<LesHouchesEvents version="3.0">
  <!--
  <scalesfunctionalform>
    muR  H_T/2 := sum_i mT(i)/2, i=final state
    muF1 H_T/2 := sum_i mT(i)/2, i=final state
    muF2 H_T/2 := sum_i mT(i)/2, i=final state
    QES  H_T/2 := sum_i mT(i)/2, i=final state
  </scalesfunctionalform>
HERWIG6   
  -->
  <header>
      102
  </header>
  <init>
   2212   2212 0.65000000D+04 0.65000000D+04 -1 -1   244800   244800 -4   1
 0.16338241D-03 0.63152143D-05 0.17058341D-05     66
  </init>
  <event>
  7     66 0.17058341E-05 0.24086330E+02 0.75467711E-02 0.95258147E-01
       -4 -1    0    0    0  503 0.00000000E+00 0.00000000E+00 0.48136562E+03 0.48136812E+03 0.15500000E+01 0.0000E+00 0.9000E+01
        3 -1    0    0  501    0 0.00000000E+00 0.00000000E+00 -.56871578E+03 0.56871600E+03 0.50000000E+00 0.0000E+00 0.9000E+01
      -24  2    1    2    0    0 0.35065018E+03 -.28674192E+03 -.25482188E+03 0.52582735E+03 0.79898237E+02 0.0000E+00 0.0000E+00
       25  1    1    2    0    0 -.35962680E+03 0.29376504E+03 0.15067017E+03 0.50394031E+03 0.12500000E+03 0.0000E+00 0.9000E+01
        1  1    3    3  502    0 0.48760540E+02 -.28018029E+02 -.54376949E+01 0.56500187E+02 0.32000000E+00 0.0000E+00 0.9000E+01
       -2  1    3    3    0  502 0.30188964E+03 -.25872390E+03 -.24938419E+03 0.46932716E+03 0.32000000E+00 0.0000E+00 0.9000E+01
       21  1    1    2  501  503 0.89766198E+01 -.70231183E+01 0.16801554E+02 0.20316461E+02 0.75000000E+00 0.0000E+00 0.9000E+01
#aMCatNLO 2  0  0  0  0 0.00000000D+00 0.00000000D+00  -5  6  0 0.00000000D+00 0.00000000D+00 0.00000000D+00 0.00000000D+00 0.00000000D+00
  <mgrwgt>
 0.1371517007D-04    1    2    0
 0.512211855565572D+03 0.000000000000000D+00 0.000000000000000D+00 0.512211855565572D+03
 0.512211855565572D+03 0.000000000000000D+00 0.000000000000000D+00 -.512211855565572D+03
 0.516722328942442D+03 -.355076616961345D+03 0.290205076664802D+03 0.202678501062555D+03
 0.568551111135378D+02 0.492519340482863D+02 -.284019616105643D+02 0.281476300976173D+00
 0.450846271075164D+03 0.305824682913059D+03 -.261803115054237D+03 -.202959977363531D+03
 0.000000000000000D+00 0.000000000000000D+00 -.000000000000000D+00 0.000000000000000D+00
 0.532778400500810D+03 0.000000000000000D+00 0.000000000000000D+00 0.532778400500810D+03
 0.513825062002218D+03 0.000000000000000D+00 0.000000000000000D+00 -.513825062002218D+03
 0.521855257109900D+03 -.359626798484611D+03 0.293765042835231D+03 0.202678501062555D+03
 0.562323399677417D+02 0.487564790747400D+02 -.280143280764346D+02 0.281476300976173D+00
 0.446399515492265D+03 0.301893699561698D+03 -.258727596489581D+03 -.202959977363531D+03
 0.221163499331202D+02 0.897661984817299D+01 -.702311826921500D+01 0.189533384985926D+02
0.193793421442D-04 0.000000000000D+00 0.000000000000D+00 0.498629736253D-04 0.245274400645D-05  6 -4 3 25 1 -2 21 2 0.74055545D-01 0.87493865D-01 0.22378139D+06 0.22378139D+06 0.22378139D+06 0.10940974D+01  1  2  1  1  6  1       -4 0.137151700695D-04 0.100000000000D+01
  </mgrwgt>
  </event>
  <event>
  7     66 0.17058341E-05 0.19793114E+02 0.75467711E-02 0.85995139E-01
       -2 -1    0    0    0  503 0.00000000E+00 0.00000000E+00 0.17154715E+04 0.17154715E+04 0.32000000E+00 0.0000E+00 0.9000E+01
        1 -1    0    0  501    0 0.00000000E+00 0.00000000E+00 -.96638687E+03 0.96638692E+03 0.32000000E+00 0.0000E+00 0.9000E+01
      -24  2    1    2    0    0 -.48407173E+03 0.10373970E+04 0.13032585E+03 0.11549940E+04 0.80674427E+02 0.0000E+00 0.0000E+00
       25  1    1    2    0    0 0.47116532E+03 -.10436544E+04 0.27689239E+03 0.11846965E+04 0.12500000E+03 0.0000E+00 0.9000E+01
        3  1    3    3  502    0 -.45773085E+03 0.92520236E+03 0.11214003E+03 0.10383124E+04 0.50000000E+00 0.0000E+00 0.9000E+01
       -4  1    3    3    0  502 -.26340880E+02 0.11219464E+03 0.18185815E+02 0.11668165E+03 0.15500000E+01 0.0000E+00 0.9000E+01
       21  1    1    2  501  503 0.12906410E+02 0.62574110E+01 0.34186636E+03 0.34216794E+03 0.75000000E+00 0.0000E+00 0.9000E+01
#aMCatNLO 2  0  0  0  0 0.00000000D+00 0.00000000D+00  -5  6  0 0.00000000D+00 0.00000000D+00 0.00000000D+00 0.00000000D+00 0.00000000D+00
  <mgrwgt>
 0.3518808646D-03    1    2    0
 0.115196778377655D+04 0.000000000000000D+00 0.000000000000000D+00 0.115196778377655D+04
 0.115196778377655D+04 0.000000000000000D+00 0.000000000000000D+00 -.115196778377655D+04
 0.115394627591300D+04 0.477630028853618D+03 -.104052013526596D+04 0.717942291335422D+02
 0.103493165206930D+04 -.452101267355745D+03 0.928350587773616D+03 -.696645870626117D+02
 0.115057639570796D+03 -.255287614978726D+02 0.112169547492346D+03 -.212964207093055D+01
 0.000000000000000D+00 0.000000000000000D+00 0.000000000000000D+00 0.000000000000000D+00
 0.143885769325575D+04 0.000000000000000D+00 0.000000000000000D+00 0.143885769325575D+04
 0.115216939796014D+04 0.000000000000000D+00 0.000000000000000D+00 -.115216939796014D+04
 0.115411902102110D+04 0.471165319226876D+03 -.104365441852352D+04 0.717942291335422D+02
 0.103496296371215D+04 -.457898879609939D+03 0.925539733138018D+03 -.696645870626117D+02
 0.114898230037221D+03 -.261728498284565D+02 0.111857274337403D+03 -.212964207093055D+01
 0.287046876445421D+03 0.129064102115191D+02 0.625741104809729D+01 0.286688295295605D+03
0.429589023465D-02 0.000000000000D+00 0.000000000000D+00 0.102725097734D-03 0.295017522703D-05  6 -2 1 25 3 -4 21 2 0.26391858D+00 0.14867485D+00 0.13383266D+07 0.13383266D+07 0.13383266D+07 0.10395416D+01  1  2  1  1  6  1       -2 0.351880864635D-03 0.100000000000D+01
  </mgrwgt>
  </event>
  <event>
  7     66 0.17058341E-05 0.32138343E+02 0.75467711E-02 0.92830528E-01
       -2 -1    0    0    0  501 0.00000000E+00 0.00000000E+00 0.11971092E+04 0.11971092E+04 0.32000000E+00 0.0000E+00 0.9000E+01
        1 -1    0    0  503    0 0.00000000E+00 0.00000000E+00 -.48656069E+03 0.48656080E+03 0.32000000E+00 0.0000E+00 0.9000E+01
      -24  2    1    2    0    0 -.57542724E+03 -.63684740E+02 0.88737602E+03 0.10624326E+04 0.78451640E+02 0.0000E+00 0.0000E+00
       25  1    1    2    0    0 0.55554189E+03 0.71997036E+02 -.17107977E+03 0.59891874E+03 0.12500000E+03 0.0000E+00 0.9000E+01
        3  1    3    3  502    0 -.44380188E+03 -.36961160E+02 0.62188118E+03 0.76489390E+03 0.50000000E+00 0.0000E+00 0.9000E+01
       -4  1    3    3    0  502 -.13162536E+03 -.26723580E+02 0.26549485E+03 0.29753874E+03 0.15500000E+01 0.0000E+00 0.9000E+01
       21  1    1    2  503  501 0.19885346E+02 -.83122952E+01 -.57477820E+01 0.22318619E+02 0.75000000E+00 0.0000E+00 0.9000E+01
#aMCatNLO 2  0  0  0  0 0.00000000D+00 0.00000000D+00  -5  6  0 0.00000000D+00 0.00000000D+00 0.00000000D+00 0.00000000D+00 0.00000000D+00
  <mgrwgt>
 0.2055876097D-02    1    2    0
 0.749423706677275D+03 0.000000000000000D+00 0.000000000000000D+00 0.749423706677275D+03
 0.749423706677275D+03 0.000000000000000D+00 0.000000000000000D+00 -.749423706677275D+03
 0.752582914256731D+03 0.565479208977141D+03 0.678431264833068D+02 -.475801026937428D+03
 0.545149011112618D+03 -.436700349445142D+03 -.400132409044843D+02 0.323850566872865D+03
 0.201115487985200D+03 -.128778859531999D+03 -.278298855788225D+02 0.151950460064563D+03
 0.000000000000000D+00 0.000000000000000D+00 -.000000000000000D+00 -.000000000000000D+00
 0.754719678592182D+03 0.000000000000000D+00 0.000000000000000D+00 0.754719678592182D+03
 0.771754779022984D+03 0.000000000000000D+00 0.000000000000000D+00 -.771754779022984D+03
 0.745534695958171D+03 0.555541890850678D+03 0.719970357222088D+02 -.475801026937428D+03
 0.550777207295951D+03 -.443969850451739D+03 -.369745088231297D+02 0.323850566872865D+03
 0.202690461572275D+03 -.131457386341076D+03 -.267102316523529D+02 0.151950460064563D+03
 0.274720927887687D+02 0.198853459421369D+02 -.831229524672618D+01 -.170351004308020D+02
0.215845709585D-02 0.000000000000D+00 0.000000000000D+00 0.352089361343D-04 0.471565082350D-06  6 -2 1 25 3 -4 21 2 0.18416941D+00 0.74854997D-01 0.34525478D+06 0.34525478D+06 0.34525478D+06 0.10800661D+01  1  2  1  2  6  2        1 0.205587609710D-02 0.100000000000D+01
  </mgrwgt>
  </event>
  <event>
  7     66 0.17058341E-05 0.85962741E+02 0.75467711E-02 0.92911159E-01
       -2 -1    0    0    0  503 0.00000000E+00 0.00000000E+00 0.90416016E+03 0.90416022E+03 0.32000000E+00 0.0000E+00 0.9000E+01
        1 -1    0    0  501    0 0.00000000E+00 0.00000000E+00 -.42791315E+03 0.42791327E+03 0.32000000E+00 0.0000E+00 0.9000E+01
      -24  2    1    2    0    0 -.20991545E+03 -.52667982E+03 0.38039678E+03 0.68742707E+03 0.79988367E+02 0.0000E+00 0.0000E+00
       25  1    1    2    0    0 0.13074065E+03 0.45695610E+03 -.14911127E+02 0.49168012E+03 0.12500000E+03 0.0000E+00 0.9000E+01
        3  1    3    3  502    0 -.15014187E+03 -.43438998E+03 0.27784172E+03 0.53706006E+03 0.50000000E+00 0.0000E+00 0.9000E+01
       -4  1    3    3    0  502 -.59773578E+02 -.92289840E+02 0.10255506E+03 0.15036701E+03 0.15500000E+01 0.0000E+00 0.9000E+01
       21  1    1    2  501  503 0.79174806E+02 0.69723719E+02 0.11076136E+03 0.15296630E+03 0.75000000E+00 0.0000E+00 0.9000E+01
#aMCatNLO 2  0  0  1  2 0.43301414D+02 0.00000000D+00  -5  6  0 0.00000000D+00 0.00000000D+00 0.00000000D+00 0.00000000D+00 0.00000000D+00
  <mgrwgt>
 0.1442942020D-03    1    2    0
 0.558028662099386D+03 0.000000000000000D+00 0.000000000000000D+00 0.558028662099386D+03
 0.558028662099386D+03 0.000000000000000D+00 0.000000000000000D+00 -.558028662099386D+03
 0.562162348168822D+03 0.169111637249912D+03 0.490746752634592D+03 -.175984046504055D+03
 0.438784224104975D+03 -.117874090944424D+03 -.406085965540895D+03 0.117181408927141D+03
 0.115110751924975D+03 -.512375463054877D+02 -.846607870936969D+02 0.588026375769142D+02
 0.000000000000000D+00 0.000000000000000D+00 0.000000000000000D+00 0.000000000000000D+00
 0.656219015329869D+03 0.000000000000000D+00 0.000000000000000D+00 0.656219015329869D+03
 0.589590805733723D+03 0.000000000000000D+00 0.000000000000000D+00 -.589590805733723D+03
 0.522012815390558D+03 0.130740645108552D+03 0.456956101310219D+03 -.175984046504055D+03
 0.474471939710870D+03 -.150195939168452D+03 -.434549558545573D+03 0.117181408927141D+03
 0.124547803647223D+03 -.597195120076718D+02 -.921302615480426D+02 0.588026375769142D+02
 0.124777262314941D+03 0.791748060675716D+02 0.697237187833964D+02 0.666282095961462D+02
0.570850398667D-04 0.000000000000D+00 0.000000000000D+00 0.178755707515D-03 0.101526562554D-06  6 -2 1 25 3 -4 21 2 0.13910132D+00 0.65832683D-01 0.34019197D+06 0.34019197D+06 0.34019197D+06 0.10805351D+01  1  2  1  1  6  1       -2 0.144294202041D-03 0.100000000000D+01
  </mgrwgt>
  </event>
  <event>
  6     66 0.17058341E-05 0.53848457E+02 0.75467711E-02 0.92456366E-01
       -2 -1    0    0    0  501 0.00000000E+00 0.00000000E+00 0.24815226E+03 0.24815246E+03 0.32000000E+00 0.0000E+00 0.9000E+01
        1 -1    0    0  501    0 -.00000000E+00 -.00000000E+00 -.29773508E+04 0.29773508E+04 0.32000000E+00 0.0000E+00 0.9000E+01
       25  1    1    2    0    0 0.31428393E+03 -.51246339E+03 -.24436129E+04 0.25195758E+04 0.12500000E+03 0.0000E+00 0.9000E+01
        3  1    1    2  503    0 -.15733207E+03 0.28981954E+03 -.22427513E+03 0.39880864E+03 0.50000000E+00 0.0000E+00 0.9000E+01
       -4  1    1    2    0  502 -.14272022E+03 0.19685433E+03 -.96165390E+02 0.26147825E+03 0.15500000E+01 0.0000E+00 0.9000E+01
       21  1    1    2  502  503 -.14231636E+02 0.25789524E+02 0.34854889E+02 0.45640604E+02 0.75000000E+00 0.0000E+00 0.9000E+01
#aMCatNLO 2  0  0  4  5 0.13431455D+01 0.00000000D+00  -5  6  0 0.00000000D+00 0.00000000D+00 0.00000000D+00 0.00000000D+00 0.00000000D+00
  <mgrwgt>
 0.1498333354D-01    1    2    0
 0.859556090646682D+03 0.000000000000000D+00 0.000000000000000D+00 0.859556090646682D+03
 0.859556090646682D+03 -.000000000000000D+00 -.000000000000000D+00 -.859556090646682D+03
 0.863645116763479D+03 0.319698426418969D+03 -.522423910548676D+03 -.595922865429468D+03
 0.524175438074803D+03 -.179232831996064D+03 0.329779840818178D+03 0.365897169168496D+03
 0.331291626455082D+03 -.140465594422905D+03 0.192644069730498D+03 0.230025696260971D+03
 0.000000000000000D+00 0.000000000000000D+00 0.000000000000000D+00 0.000000000000000D+00
 0.859556090646682D+03 0.000000000000000D+00 0.000000000000000D+00 0.859556090646682D+03
 0.859556090646682D+03 -.000000000000000D+00 -.000000000000000D+00 -.859556090646682D+03
 0.847961836066937D+03 0.314273918194303D+03 -.512443074789262D+03 -.584848933374541D+03
 0.392360200239053D+03 -.157400580246067D+03 0.290001434778018D+03 0.212298732677617D+03
 0.337462624136798D+03 -.142585043006949D+03 0.196543753783271D+03 0.234352471821360D+03
 0.141327520850576D+03 -.142882949412861D+02 0.258978862279736D+02 0.138197728875563D+03
0.287929067099D-01 0.000000000000D+00 0.000000000000D+00 0.157722703754D-06 0.136949298251D-05  6 -2 1 25 3 -4 21 2 0.38177287D-01 0.45805398D+00 0.36987918D+06 0.36987918D+06 0.36987918D+06 0.10778873D+01  1  2  1  3  6  4        3 0.149833335425D-01 0.100000000000D+01
  </mgrwgt>
  </event>
  <event>
  7     66 0.17058341E-05 0.48807181E+02 0.75467711E-02 0.89230773E-01
       -2 -1    0    0    0  501 0.00000000E+00 0.00000000E+00 0.51044945E+03 0.51044955E+03 0.32000000E+00 0.0000E+00 0.9000E+01
        1 -1    0    0  503    0 0.00000000E+00 0.00000000E+00 -.14777307E+04 0.14777307E+04 0.32000000E+00 0.0000E+00 0.9000E+01
      -24  2    1    2    0    0 -.15632215E+03 0.79863184E+03 -.47789862E+03 0.94709191E+03 0.79665402E+02 0.0000E+00 0.0000E+00
       25  1    1    2    0    0 0.16806422E+03 -.80124766E+03 -.34656248E+03 0.89776051E+03 0.12500000E+03 0.0000E+00 0.9000E+01
        3  1    3    3  502    0 -.13846879E+03 0.53690558E+03 -.30390116E+03 0.63229533E+03 0.50000000E+00 0.0000E+00 0.9000E+01
       -4  1    3    3    0  502 -.17853359E+02 0.26172625E+03 -.17399746E+03 0.31479659E+03 0.15500000E+01 0.0000E+00 0.9000E+01
       21  1    1    2  503  501 -.11742064E+02 0.26158188E+01 -.14282014E+03 0.14332786E+03 0.75000000E+00 0.0000E+00 0.9000E+01
#aMCatNLO 2  0  0  2  2 0.77855884D+03 0.00000000D+00  -5  6  0 0.00000000D+00 0.00000000D+00 0.00000000D+00 0.00000000D+00 0.00000000D+00
  <mgrwgt>
 0.9791765776D-03    1    2    0
 0.825166598234535D+03 0.000000000000000D+00 0.000000000000000D+00 0.825166598234535D+03
 0.825166598234535D+03 0.000000000000000D+00 0.000000000000000D+00 -.825166598234535D+03
 0.827977674152063D+03 0.162164569792569D+03 -.799933371973346D+03 0.610842172873112D+02
 0.557037816061400D+03 -.142477197770687D+03 0.537980044752653D+03 -.238505363839070D+02
 0.265317706255606D+03 -.196873720218822D+02 0.261953327220693D+03 -.372336809034042D+02
 0.000000000000000D+00 -.000000000000000D+00 0.000000000000000D+00 -.000000000000000D+00
 0.825597525549943D+03 0.000000000000000D+00 0.000000000000000D+00 0.825597525549943D+03
 0.913646234888910D+03 0.000000000000000D+00 0.000000000000000D+00 -.913646234888910D+03
 0.830421380661579D+03 0.168064217709500D+03 -.801247656211220D+03 0.610842172873112D+02
 0.555186182952290D+03 -.138520532467546D+03 0.537098605230214D+03 -.238505363839070D+02
 0.264769477534318D+03 -.178016209774875D+02 0.261533232172802D+03 -.372336809034042D+02
 0.888667192906664D+02 -.117420642644657D+02 0.261581880820380D+01 -.880487093389671D+02
0.817878064363D-03 0.000000000000D+00 0.000000000000D+00 0.147354601907D-03 0.612130423446D-05  6 -2 1 25 3 -4 21 2 0.78530545D-01 0.22734276D+00 0.68642355D+06 0.68642355D+06 0.68642355D+06 0.10589178D+01  1  2  1  2  6  2        1 0.979176577636D-03 0.100000000000D+01
  </mgrwgt>
  </event>
  <event>
  7     66 0.17058341E-05 0.76350508E+02 0.75467711E-02 0.91316391E-01
       -2 -1    0    0    0  501 0.00000000E+00 0.00000000E+00 0.21612793E+04 0.21612793E+04 0.32000000E+00 0.0000E+00 0.9000E+01
        1 -1    0    0  503    0 0.00000000E+00 0.00000000E+00 -.24644377E+03 0.24644397E+03 0.32000000E+00 0.0000E+00 0.9000E+01
      -24  2    1    2    0    0 -.27708067E+03 -.51353724E+03 0.74612129E+03 0.95058320E+03 0.80107749E+02 0.0000E+00 0.0000E+00
       25  1    1    2    0    0 0.38566455E+03 0.51789025E+03 0.11768473E+04 0.13481624E+04 0.12500000E+03 0.0000E+00 0.9000E+01
        3  1    3    3  502    0 -.14089274E+03 -.32651062E+03 0.41307176E+03 0.54505823E+03 0.50000000E+00 0.0000E+00 0.9000E+01
       -4  1    3    3    0  502 -.13618793E+03 -.18702663E+03 0.33304953E+03 0.40552497E+03 0.15500000E+01 0.0000E+00 0.9000E+01
       21  1    1    2  503  501 -.10858388E+03 -.43530111E+01 -.81330833E+01 0.10897760E+03 0.75000000E+00 0.0000E+00 0.9000E+01
#aMCatNLO 2  0  0  2  2 0.77855884D+03 0.00000000D+00  -5  6  0 0.00000000D+00 0.00000000D+00 0.00000000D+00 0.00000000D+00 0.00000000D+00
  <mgrwgt>
 0.2723010341D-03    1    2    0
 0.627418127219179D+03 0.000000000000000D+00 0.000000000000000D+00 0.627418127219179D+03
 0.627418127219179D+03 0.000000000000000D+00 0.000000000000000D+00 -.627418127219179D+03
 0.631087031640978D+03 0.329745644644711D+03 0.515648524142272D+03 0.895558534835232D+02
 0.378943679092540D+03 -.173035325605545D+03 -.327912278635387D+03 -.782983112009555D+02
 0.244805543704840D+03 -.156710319039166D+03 -.187736245506885D+03 -.112575422825677D+02
 0.000000000000000D+00 -.000000000000000D+00 -.000000000000000D+00 -.000000000000000D+00
 0.644809155877110D+03 0.000000000000000D+00 0.000000000000000D+00 0.644809155877110D+03
 0.826032007816869D+03 0.000000000000000D+00 0.000000000000000D+00 -.826032007816869D+03
 0.663771579673315D+03 0.385664549906222D+03 0.517890252886146D+03 0.895558534835232D+02
 0.364251369242094D+03 -.140940197121620D+03 -.326625619468433D+03 -.782983112009555D+02
 0.231510073297197D+03 -.136140468687180D+03 -.186911622339181D+03 -.112575422825677D+02
 0.211308141481373D+03 -.108583884097422D+03 -.435301107853171D+01 -.181222851939759D+03
0.111337417040D-02 0.000000000000D+00 0.000000000000D+00 0.290088718973D-03 0.154762556542D-06  6 -2 1 25 3 -4 21 2 0.33250418D+00 0.37914405D-01 0.45788647D+06 0.45788647D+06 0.45788647D+06 0.10712216D+01  1  2  1  2  6  2        1 0.272301034123D-03 0.100000000000D+01
  </mgrwgt>
  </event>
  <event>
  7     66 0.17058341E-05 0.18577039E+02 0.75467711E-02 0.91616073E-01
       -2 -1    0    0    0  501 0.00000000E+00 0.00000000E+00 0.43715763E+03 0.43715774E+03 0.32000000E+00 0.0000E+00 0.9000E+01
        1 -1    0    0  503    0 0.00000000E+00 0.00000000E+00 -.10922848E+04 0.10922848E+04 0.32000000E+00 0.0000E+00 0.9000E+01
      -24  2    1    2    0    0 0.64392487E+03 0.66833347E+02 -.31475414E+03 0.72452003E+03 0.82177693E+02 0.0000E+00 0.0000E+00
       25  1    1    2    0    0 -.64162775E+03 -.54919253E+02 -.23190914E+03 0.69577952E+03 0.12500000E+03 0.0000E+00 0.9000E+01
        3  1    3    3  502    0 0.59002935E+03 0.59013631E+02 -.31181292E+03 0.66995879E+03 0.50000000E+00 0.0000E+00 0.9000E+01
       -4  1    3    3    0  502 0.53895520E+02 0.78197153E+01 -.29412189E+01 0.54561234E+02 0.15500000E+01 0.0000E+00 0.9000E+01
       21  1    1    2  503  501 -.22971157E+01 -.11914094E+02 -.10846387E+03 0.10914301E+03 0.75000000E+00 0.0000E+00 0.9000E+01
#aMCatNLO 2  0  0  2  2 0.51571357D+02 0.00000000D+00  -5  6  0 0.00000000D+00 0.00000000D+00 0.00000000D+00 0.00000000D+00 0.00000000D+00
  <mgrwgt>
 0.4325364152D-03    1    2    0
 0.655412629070541D+03 0.000000000000000D+00 0.000000000000000D+00 0.655412629070541D+03
 0.655412629070541D+03 0.000000000000000D+00 0.000000000000000D+00 -.655412629070541D+03
 0.658796690737405D+03 -.642780768378328D+03 -.608994231848234D+02 0.388873216521476D+02
 0.594512122033644D+03 0.589194183303795D+03 0.536239161933600D+02 -.584752359380297D+02
 0.575164453700342D+02 0.535865850745336D+02 0.727550699146336D+01 0.195879142858821D+02
 0.000000000000000D+00 -.000000000000000D+00 -.000000000000000D+00 -.000000000000000D+00
 0.655948300951727D+03 0.000000000000000D+00 0.000000000000000D+00 0.655948300951727D+03
 0.727950569863606D+03 0.000000000000000D+00 0.000000000000000D+00 -.727950569863606D+03
 0.657144976759219D+03 -.641627752176511D+03 -.549192528309933D+02 0.388873216521476D+02
 0.596057493923788D+03 0.590237349646572D+03 0.590343453160003D+02 -.584752359380297D+02
 0.576789426237772D+02 0.536875182329040D+02 0.779900135386094D+01 0.195879142858821D+02
 0.730174575085486D+02 -.229711570296547D+01 -.119140938388680D+02 -.720022689118790D+02
0.130703152248D-03 0.000000000000D+00 0.000000000000D+00 0.340613639211D-04 0.142835811708D-05  6 -2 1 25 3 -4 21 2 0.67254835D-01 0.16804333D+00 0.43267464D+06 0.43267464D+06 0.43267464D+06 0.10729779D+01  1  2  1  2  6  2        1 0.432536415151D-03 0.100000000000D+01
  </mgrwgt>
  </event>
  <event>
  7     66 0.17058341E-05 0.58126782E+02 0.75467711E-02 0.92152568E-01
       -2 -1    0    0    0  503 0.00000000E+00 0.00000000E+00 0.12404093E+03 0.12404134E+03 0.32000000E+00 0.0000E+00 0.9000E+01
        1 -1    0    0  501    0 0.00000000E+00 0.00000000E+00 -.32544930E+04 0.32544930E+04 0.32000000E+00 0.0000E+00 0.9000E+01
      -24  2    1    2    0    0 0.13949508E+03 -.59916211E+03 -.14669114E+04 0.15929499E+04 0.84890159E+02 0.0000E+00 0.0000E+00
       25  1    1    2    0    0 -.14814341E+03 0.59241126E+03 -.16612689E+04 0.17743554E+04 0.12500000E+03 0.0000E+00 0.9000E+01
        3  1    3    3  502    0 0.71164609E+02 -.21046858E+03 -.61978284E+03 0.65840143E+03 0.50000000E+00 0.0000E+00 0.9000E+01
       -4  1    3    3    0  502 0.68330472E+02 -.38869353E+03 -.84712855E+03 0.93454850E+03 0.15500000E+01 0.0000E+00 0.9000E+01
       21  1    1    2  501  503 0.86483298E+01 0.67508456E+01 -.22717263E+01 0.11229014E+02 0.75000000E+00 0.0000E+00 0.9000E+01
#aMCatNLO 2  0  0  1  2 0.11806154D+02 0.00000000D+00  -5  6  0 0.00000000D+00 0.00000000D+00 0.00000000D+00 0.00000000D+00 0.00000000D+00
  <mgrwgt>
 0.1153633516D-02    1    2    0
 0.623119690230297D+03 0.000000000000000D+00 0.000000000000000D+00 0.623119690230297D+03
 0.623119690230297D+03 0.000000000000000D+00 0.000000000000000D+00 -.623119690230297D+03
 0.626497316817526D+03 -.143803542320760D+03 0.595798944250258D+03 -.349005333174029D+02
 0.222682831349296D+03 0.727334691167399D+02 -.209317308885427D+03 -.219943185606155D+02
 0.397059232293773D+03 0.710700732040197D+02 -.386481635364830D+03 0.568948518780185D+02
 0.000000000000000D+00 0.000000000000000D+00 0.000000000000000D+00 0.000000000000000D+00
 0.646480033458131D+03 0.000000000000000D+00 0.000000000000000D+00 0.646480033458131D+03
 0.624433329667461D+03 0.000000000000000D+00 0.000000000000000D+00 -.624433329667461D+03
 0.624292096994796D+03 -.148143410712021D+03 0.592411263403161D+03 -.349005333174029D+02
 0.223320589604372D+03 0.711859694916100D+02 -.210525279811803D+03 -.219943185606155D+02
 0.398674985222616D+03 0.683091114143620D+02 -.388636829147486D+03 0.568948518780185D+02
 0.246256913038076D+02 0.864832980604874D+01 0.675084555612781D+01 0.220467037906701D+02
0.107372743925D-02 0.000000000000D+00 0.000000000000D+00 0.157987655275D-04 0.811155085749D-06  6 -2 1 25 3 -4 21 2 0.19083078D-01 0.50068669D+00 0.39132296D+06 0.39132296D+06 0.39132296D+06 0.10761149D+01  1  2  1  1  6  1       -2 0.115363351625D-02 0.100000000000D+01
  </mgrwgt>
  </event>
  <event>
  7     66 -.17058341E-05 0.59258275E+01 0.75467711E-02 0.94605392E-01
       -2 -1    0    0    0  501 0.00000000E+00 0.00000000E+00 0.21941024E+03 0.21941048E+03 0.32000000E+00 0.0000E+00 0.9000E+01
        1 -1    0    0  501    0 -.00000000E+00 -.00000000E+00 -.12184021E+04 0.12184022E+04 0.32000000E+00 0.0000E+00 0.9000E+01
      -24  2    1    2    0    0 0.17907495E+03 0.45490199E+03 -.67004484E+03 0.83545493E+03 0.10010592E+03 0.0000E+00 0.0000E+00
       25  1    1    2    0    0 -.17907495E+03 -.45490199E+03 -.32894706E+03 0.60235773E+03 0.12500000E+03 0.0000E+00 0.9000E+01
        3  1    3    3  502    0 0.16219501E+03 0.44638609E+03 -.62841983E+03 0.78770521E+03 0.50000000E+00 0.0000E+00 0.9000E+01
       -4  1    3    3    0  503 0.59540632E+01 -.34778360E+01 -.14579861E+02 0.16202502E+02 0.15500000E+01 0.0000E+00 0.9000E+01
       21  1    3    3  503  502 0.10925883E+02 0.11993737E+02 -.27045151E+02 0.31547224E+02 0.75000000E+00 0.0000E+00 0.9000E+01
#aMCatNLO 2  0  0  5  4 0.52953650D+01 0.00000000D+00  -5  6  0 0.00000000D+00 0.00000000D+00 0.00000000D+00 0.00000000D+00 0.00000000D+00
  <mgrwgt>
 -.4504967783D-03    2    2    0
 0.517039753386158D+03 0.000000000000000D+00 0.000000000000000D+00 0.517039753386158D+03
 0.517039753386158D+03 -.000000000000000D+00 -.000000000000000D+00 -.517039753386158D+03
 0.521142877740650D+03 -.180535688271597D+03 -.455638931559636D+03 0.125558465773122D+03
 0.487206128324496D+03 0.160945328446909D+03 0.446025981927998D+03 -.111925136467318D+03
 0.257305007071697D+02 0.195903598246883D+02 0.961294963163873D+01 -.136333293058033D+02
 0.000000000000000D+00 0.000000000000000D+00 0.000000000000000D+00 0.000000000000000D+00
 0.517039753386158D+03 0.000000000000000D+00 0.000000000000000D+00 0.517039753386158D+03
 0.517039753386158D+03 -.000000000000000D+00 -.000000000000000D+00 -.517039753386158D+03
 0.519982840986557D+03 -.179304385448290D+03 -.455034733774212D+03 0.124701577129139D+03
 0.488291094324378D+03 0.162099014752771D+03 0.446592093446530D+03 -.112728010200326D+03
 0.694994276503981D+01 0.483572549940053D+01 -.321827934277336D+01 -.381577533453622D+01
 0.188556286963417D+02 0.123696451961187D+02 0.116609196704546D+02 -.815779159427662D+01
-.187263803593D-05 0.000000000000D+00 0.000000000000D+00 0.180106124696D-05 0.000000000000D+00  6 -2 1 25 3 -4 21 2 0.33755443D-01 0.18744650D+00 0.25136058D+06 0.25136058D+06 0.25136058D+06 0.10902818D+01  1  2 13  4  6  5       -4 -.205702237096D-04 0.100000000000D+01
-.391321734652D-04 0.000000000000D+00 0.000000000000D+00 0.180106124696D-05 0.000000000000D+00  6 -2 1 25 3 -4 21 2 0.33755443D-01 0.18744650D+00 0.25089526D+06 0.25089526D+06 0.25089526D+06 0.10903423D+01  1  2  8  4  6  5       -4 -.429926554607D-03 0.100000000000D+01
  </mgrwgt>
  </event>
  <event>
  6     66 0.17058341E-05 0.41996546E+02 0.75467711E-02 0.91975358E-01
       -2 -1    0    0    0  501 0.00000000E+00 0.00000000E+00 0.36203342E+03 0.36203356E+03 0.32000000E+00 0.0000E+00 0.9000E+01
        1 -1    0    0  501    0 -.00000000E+00 -.00000000E+00 -.11273863E+04 0.11273863E+04 0.32000000E+00 0.0000E+00 0.9000E+01
       25  1    1    2    0    0 -.49385422E+03 -.35953541E+03 -.33568111E+03 0.70814160E+03 0.12500000E+03 0.0000E+00 0.9000E+01
        3  1    1    2  503    0 0.17221019E+03 0.11074326E+03 -.17439409E+03 0.26894975E+03 0.50000000E+00 0.0000E+00 0.9000E+01
       -4  1    1    2    0  502 0.33664077E+03 0.25966153E+03 -.23939087E+03 0.48791547E+03 0.15500000E+01 0.0000E+00 0.9000E+01
       21  1    1    2  502  503 -.14996736E+02 -.10869376E+02 -.15886778E+02 0.24413063E+02 0.75000000E+00 0.0000E+00 0.9000E+01
#aMCatNLO 2  0  0  4  2 0.29317744D+00 0.00000000D+00  -5  6  0 0.00000000D+00 0.00000000D+00 0.00000000D+00 0.00000000D+00 0.00000000D+00
  <mgrwgt>
 0.2029641876D-02    1    2    0
 0.638867473893254D+03 0.000000000000000D+00 0.000000000000000D+00 0.638867473893254D+03
 0.638867473893254D+03 -.000000000000000D+00 -.000000000000000D+00 -.638867473893254D+03
 0.641843328316591D+03 -.508726432809245D+03 -.368983368027114D+03 0.372363906020382D+02
 0.222040651592993D+03 0.181932997772285D+03 0.115568690702400D+03 -.533508482665809D+02
 0.413850967876925D+03 0.326793435036960D+03 0.253414677324714D+03 0.161144576645427D+02
 0.000000000000000D+00 0.000000000000000D+00 -.000000000000000D+00 0.000000000000000D+00
 0.638867473893254D+03 0.000000000000000D+00 0.000000000000000D+00 0.638867473893254D+03
 0.638867473893254D+03 -.000000000000000D+00 -.000000000000000D+00 -.638867473893254D+03
 0.624315573411748D+03 -.493789949054490D+03 -.359495315324353D+03 0.328563491131734D+02
 0.208983089471454D+03 0.172162712854916D+03 0.110711071564127D+03 -.421543665661341D+02
 0.425421568050686D+03 0.336694072770173D+03 0.259703826373851D+03 0.132111502496441D+02
 0.190147168526215D+02 -.150668365705981D+02 -.109195826136247D+02 -.391313279668341D+01
0.435577305147D-03 0.000000000000D+00 0.000000000000D+00 0.376508402596D-05 0.155262314443D-06  6 -2 1 25 3 -4 21 2 0.55697464D-01 0.17344406D+00 0.40447178D+06 0.40447178D+06 0.40447178D+06 0.10750797D+01  1  2  1  3  6  4        3 0.202964187572D-02 0.100000000000D+01
  </mgrwgt>
  </event>
  <event>
  7     66 0.17058341E-05 0.70679267E+02 0.75467711E-02 0.91145368E-01
       -2 -1    0    0    0  503 0.00000000E+00 0.00000000E+00 0.53721612E+03 0.53721621E+03 0.32000000E+00 0.0000E+00 0.9000E+01
        1 -1    0    0  501    0 0.00000000E+00 0.00000000E+00 -.17708589E+04 0.17708589E+04 0.32000000E+00 0.0000E+00 0.9000E+01
      -24  2    1    2    0    0 -.29481010E+03 -.60306385E+03 -.99259027E+03 0.12009790E+04 0.80722083E+02 0.0000E+00 0.0000E+00
       25  1    1    2    0    0 0.28676568E+03 0.61204307E+03 -.49867193E+03 0.84919372E+03 0.12500000E+03 0.0000E+00 0.9000E+01
        3  1    3    3  502    0 -.17556618E+03 -.26742691E+03 -.47108870E+03 0.56944311E+03 0.50000000E+00 0.0000E+00 0.9000E+01
       -4  1    3    3    0  502 -.11924393E+03 -.33563694E+03 -.52150157E+03 0.63153587E+03 0.15500000E+01 0.0000E+00 0.9000E+01
       21  1    1    2  501  503 0.80444263E+01 -.89792181E+01 0.25761943E+03 0.25790244E+03 0.75000000E+00 0.0000E+00 0.9000E+01
#aMCatNLO 2  0  0  1  2 0.88940511D+02 0.00000000D+00  -5  6  0 0.00000000D+00 0.00000000D+00 0.00000000D+00 0.00000000D+00 0.00000000D+00
  <mgrwgt>
 0.2607718665D-02    1    2    0
 0.703420174493474D+03 0.000000000000000D+00 0.000000000000000D+00 0.703420174493474D+03
 0.703420174493474D+03 0.000000000000000D+00 0.000000000000000D+00 -.703420174493474D+03
 0.706657551582038D+03 0.290812734802795D+03 0.607525727059913D+03 0.173436845695381D+03
 0.331296170946059D+03 -.173734063309848D+03 -.269624860275686D+03 -.829220287419850D+02
 0.368886626458851D+03 -.117078671492947D+03 -.337900866784227D+03 -.905148169533959D+02
 0.000000000000000D+00 0.000000000000000D+00 -.000000000000000D+00 0.000000000000000D+00
 0.135228257122223D+04 0.000000000000000D+00 0.000000000000000D+00 0.135228257122223D+04
 0.703502001156553D+03 0.000000000000000D+00 0.000000000000000D+00 -.703502001156553D+03
 0.708898165286026D+03 0.286765678366494D+03 0.612043066305089D+03 0.173436845695381D+03
 0.330580868060585D+03 -.175626361648114D+03 -.267512669926583D+03 -.829220287419850D+02
 0.367412969150568D+03 -.119183743007935D+03 -.335551178234480D+03 -.905148169533959D+02
 0.648892569881599D+03 0.804442628955544D+01 -.897921814402547D+01 0.648780570065673D+03
0.369211876991D-02 0.000000000000D+00 0.000000000000D+00 0.249718174121D-03 0.128448497516D-04  6 -2 1 25 3 -4 21 2 0.82648617D-01 0.27243976D+00 0.47300772D+06 0.47300772D+06 0.47300772D+06 0.10702180D+01  1  2  1  1  6  1       -2 0.260771866542D-02 0.100000000000D+01
  </mgrwgt>
  </event>
  <event>
  7     66 0.17058341E-05 0.65045946E+02 0.75467711E-02 0.95035453E-01
       -2 -1    0    0    0  501 0.00000000E+00 0.00000000E+00 0.10800921E+03 0.10800968E+03 0.32000000E+00 0.0000E+00 0.9000E+01
        1 -1    0    0  503    0 0.00000000E+00 0.00000000E+00 -.42130653E+04 0.42130653E+04 0.32000000E+00 0.0000E+00 0.9000E+01
      -24  2    1    2    0    0 -.46419267E+03 0.94060759E+02 -.68205929E+03 0.83482895E+03 0.86094377E+02 0.0000E+00 0.0000E+00
       25  1    1    2    0    0 0.45374213E+03 -.92146929E+02 -.17875779E+04 0.18507924E+04 0.12500000E+03 0.0000E+00 0.9000E+01
        3  1    3    3  502    0 -.18392350E+03 0.51303245E+02 -.34563132E+03 0.39486850E+03 0.50000000E+00 0.0000E+00 0.9000E+01
       -4  1    3    3    0  502 -.28026917E+03 0.42757514E+02 -.33642797E+03 0.43996044E+03 0.15500000E+01 0.0000E+00 0.9000E+01
       21  1    1    2  503  501 0.10450535E+02 -.19138294E+01 -.16354189E+04 0.16354536E+04 0.75000000E+00 0.0000E+00 0.9000E+01
#aMCatNLO 2  0  0  2  2 0.78934534D+02 0.00000000D+00  -5  6  0 0.00000000D+00 0.00000000D+00 0.00000000D+00 0.00000000D+00 0.00000000D+00
  <mgrwgt>
 0.6923993885D-03    1    2    0
 0.527575023608927D+03 0.000000000000000D+00 0.000000000000000D+00 0.527575023608927D+03
 0.527575023608927D+03 0.000000000000000D+00 0.000000000000000D+00 -.527575023608927D+03
 0.531466774713741D+03 0.458982598190462D+03 -.931066274497549D+02 -.217940503596491D+03
 0.194207213703952D+03 -.182040797801246D+03 0.509644603587018D+02 0.444995906822144D+02
 0.329476058800162D+03 -.276941800389215D+03 0.421421670910531D+02 0.173440912914276D+03
 0.000000000000000D+00 0.000000000000000D+00 -.000000000000000D+00 -.000000000000000D+00
 0.527686066552095D+03 0.000000000000000D+00 0.000000000000000D+00 0.527686066552095D+03
 0.862350177588854D+03 0.000000000000000D+00 0.000000000000000D+00 -.862350177588854D+03
 0.526778931912221D+03 0.453742133107463D+03 -.921469296383640D+02 -.217940503596491D+03
 0.196112486466995D+03 -.183973672886064D+03 0.513184319927480D+02 0.444995906822144D+02
 0.332312115815765D+03 -.280218995656535D+03 0.427423270149788D+02 0.173440912914276D+03
 0.334832709945968D+03 0.104505354351362D+02 -.191382936936275D+01 -.334664111036760D+03
0.329133547371D-02 0.000000000000D+00 0.000000000000D+00 0.934038702327D-05 0.590032009481D-06  6 -2 1 25 3 -4 21 2 0.16616825D-01 0.64816342D+00 0.23264344D+06 0.23264344D+06 0.23264344D+06 0.10928178D+01  1  2  1  2  6  2        1 0.692399388503D-03 0.100000000000D+01
  </mgrwgt>
  </event>
  <event>
  6     66 -.17058341E-05 0.10596727E+02 0.75467711E-02 0.94811327E-01
       -2 -1    0    0    0  501 0.00000000E+00 0.00000000E+00 0.19394179E+03 0.19394205E+03 0.32000000E+00 0.0000E+00 0.9000E+01
        1 -1    0    0  501    0 -.00000000E+00 -.00000000E+00 -.12788286E+04 0.12788286E+04 0.32000000E+00 0.0000E+00 0.9000E+01
      -24  2    1    2    0    0 0.45702902E+03 -.15916345E+03 -.45653684E+03 0.66986521E+03 0.78006296E+02 0.0000E+00 0.0000E+00
       25  1    1    2    0    0 -.45702902E+03 0.15916345E+03 -.62834998E+03 0.80290549E+03 0.12500000E+03 0.0000E+00 0.9000E+01
        3  1    3    3  502    0 0.98745508E+01 -.38868266E+01 -.33087752E+02 0.34751453E+02 0.50000000E+00 0.0000E+00 0.9000E+01
       -4  1    3    3    0  502 0.44715447E+03 -.15527662E+03 -.42344908E+03 0.63511375E+03 0.15500000E+01 0.0000E+00 0.9000E+01
#aMCatNLO 1  0  0  4  5 0.17804980D+01 0.00000000D+00  -5  6  0 0.00000000D+00 0.00000000D+00 0.00000000D+00 0.00000000D+00 0.00000000D+00
  <mgrwgt>
 -.5445384307D-02    7    2    0
 0.498014588353213D+03 0.000000000000000D+00 0.000000000000000D+00 0.498014588353213D+03
 0.498014588353213D+03 -.000000000000000D+00 -.000000000000000D+00 -.498014588353213D+03
 0.502803613703728D+03 -.457029022206748D+03 0.159163445160458D+03 -.545705464415095D+02
 0.153318017059219D+02 0.986006490887172D+01 -.388197717370347D+01 -.110803211490187D+02
 0.477893761296777D+03 0.447168957297877D+03 -.155281467986755D+03 0.656508675905282D+02
 0.000000000000000D+00 0.000000000000000D+00 0.000000000000000D+00 -.000000000000000D+00
 0.498014588353213D+03 0.000000000000000D+00 0.000000000000000D+00 0.498014588353213D+03
 0.498014588353213D+03 -.000000000000000D+00 -.000000000000000D+00 -.498014588353213D+03
 0.502677535492122D+03 -.456890688674385D+03 0.159108982272033D+03 -.547259997755825D+02
 0.861629795876117D+01 0.664049534952407D+01 -.254919115238444D+01 -.486271904346795D+01
 0.478013369478287D+03 0.447300470464600D+03 -.155333245649070D+03 0.655030786929821D+02
 0.672197377725632D+01 0.294972286026169D+01 -.122654547057900D+01 -.591435987393169D+01
0.109538866328D-04 0.000000000000D+00 0.000000000000D+00 0.106328291684D-04 0.000000000000D+00  6 -2 1 25 3 -4 21 0 0.29837222D-01 0.19674289D+00 0.24196222D+06 0.24196222D+06 0.24196222D+06 0.10915284D+01  1  2  2  3  6  4        3 0.114706019763D-03 0.100000000000D+01
0.470448333044D-05 0.000000000000D+00 -.420658088945D-07 0.106328291684D-04 0.000000000000D+00  6 -2 1 25 3 -4 21 2 0.29837222D-01 0.19674289D+00 0.24196222D+06 0.24196222D+06 0.24196222D+06 0.10915284D+01  1  2  3  3  6  4        3 0.586948489681D-04 0.100000000000D+01
-.302633557443D-05 0.000000000000D+00 0.000000000000D+00 0.106328291684D-04 0.000000000000D+00  6 -2 1 25 3 -4 21 2 0.29837222D-01 0.19674289D+00 0.24196222D+06 0.24196222D+06 0.24196222D+06 0.10915284D+01  1  2 15  3  6  4        3 -.377576658245D-04 0.100000000000D+01
0.773803110803D-09 0.000000000000D+00 0.000000000000D+00 0.106328291684D-04 0.000000000000D+00  6 -2 1 25 3 -4 21 2 0.29837222D-01 0.19674289D+00 0.24181871D+06 0.24181871D+06 0.24181871D+06 0.10915479D+01  1  2 12  3  6  4        3 0.965477946028D-08 0.100000000000D+01
-.574729757839D-03 0.000000000000D+00 0.000000000000D+00 0.106328291684D-04 0.000000000000D+00  6 -2 1 25 3 -4 21 2 0.29837222D-01 0.19674289D+00 0.24196222D+06 0.24196222D+06 0.24196222D+06 0.10915284D+01  1  2  4  3  6  4        3 -.717053796652D-02 0.100000000000D+01
-.535570890331D-04 0.000000000000D+00 0.000000000000D+00 0.106328291684D-04 0.000000000000D+00  6 -2 1 25 3 -4 21 2 0.29837222D-01 0.19674289D+00 0.24196222D+06 0.24196222D+06 0.24196222D+06 0.10915284D+01  1  2  5  3  6  4        3 -.668197766082D-03 0.100000000000D+01
0.180958047648D-03 0.000000000000D+00 -.000000000000D+00 0.106328291684D-04 0.000000000000D+00  6 -2 1 25 3 -4 21 2 0.29837222D-01 0.19674289D+00 0.24196222D+06 0.24196222D+06 0.24196222D+06 0.10915284D+01  1  2  6  3  6  4        3 0.225769856756D-02 0.100000000000D+01
  </mgrwgt>
  </event>
  <event>
  7     66 0.17058341E-05 0.51522598E+02 0.75467711E-02 0.93924696E-01
       -2 -1    0    0    0  501 0.00000000E+00 0.00000000E+00 0.20145264E+03 0.20145289E+03 0.32000000E+00 0.0000E+00 0.9000E+01
        1 -1    0    0  503    0 0.00000000E+00 0.00000000E+00 -.21954842E+04 0.21954842E+04 0.32000000E+00 0.0000E+00 0.9000E+01
      -24  2    1    2    0    0 0.79114580E+02 -.51006056E+03 -.15255308E+04 0.16123917E+04 0.78369207E+02 0.0000E+00 0.0000E+00
       25  1    1    2    0    0 -.89063385E+02 0.51163405E+03 -.29394347E+03 0.60969619E+03 0.12500000E+03 0.0000E+00 0.9000E+01
        3  1    3    3  502    0 0.81874098E+02 -.33216935E+03 -.10693793E+04 0.11227699E+04 0.50000000E+00 0.0000E+00 0.9000E+01
       -4  1    3    3    0  502 -.27595181E+01 -.17789121E+03 -.45615151E+03 0.48962179E+03 0.15500000E+01 0.0000E+00 0.9000E+01
       21  1    1    2  503  501 0.99488052E+01 -.15734885E+01 -.17455724E+03 0.17484921E+03 0.75000000E+00 0.0000E+00 0.9000E+01
#aMCatNLO 2  0  0  2  5 0.73556421D+02 0.00000000D+00  -5  6  0 0.00000000D+00 0.00000000D+00 0.00000000D+00 0.00000000D+00 0.00000000D+00
  <mgrwgt>
 0.2496490127D-02    1    2    0
 0.637786474703147D+03 0.000000000000000D+00 0.000000000000000D+00 0.637786474703147D+03
 0.637786474703147D+03 0.000000000000000D+00 0.000000000000000D+00 -.637786474703147D+03
 0.641503732677996D+03 -.840549760693121D+02 0.510841925105238D+03 0.357599395402962D+03
 0.431748978766484D+03 0.852694756310776D+02 -.332824025958940D+03 -.261465991930090D+03
 0.202320237961814D+03 -.121449956176550D+01 -.178017899146298D+03 -.961334034728722D+02
 0.000000000000000D+00 0.000000000000000D+00 -.000000000000000D+00 -.000000000000000D+00
 0.638266363804805D+03 0.000000000000000D+00 0.000000000000000D+00 0.638266363804805D+03
 0.692944089638404D+03 0.000000000000000D+00 0.000000000000000D+00 -.692944089638404D+03
 0.642809468727454D+03 -.890633853266134D+02 0.511634047818625D+03 0.357599395402962D+03
 0.430686825035089D+03 0.819062528137298D+02 -.332292103536682D+03 -.261465991930090D+03
 0.202116423267589D+03 -.279167272784114D+01 -.177768455735504D+03 -.961334034728722D+02
 0.555977364130765D+02 0.994880524072483D+01 -.157348854643900D+01 -.546777258335996D+02
0.894576609330D-03 0.000000000000D+00 0.000000000000D+00 0.430550516829D-04 0.268055151885D-05  6 -2 1 25 3 -4 21 2 0.30992612D-01 0.33776548D+00 0.28316254D+06 0.28316254D+06 0.28316254D+06 0.10864127D+01  1  2  1  2  6  2        1 0.249649012668D-02 0.100000000000D+01
  </mgrwgt>
  </event>
  <event>
  7     66 0.17058341E-05 0.56670383E+02 0.75467711E-02 0.94767731E-01
       -2 -1    0    0    0  501 0.00000000E+00 0.00000000E+00 0.15749489E+04 0.15749489E+04 0.32000000E+00 0.0000E+00 0.9000E+01
        1 -1    0    0  503    0 0.00000000E+00 0.00000000E+00 -.21178077E+03 0.21178102E+03 0.32000000E+00 0.0000E+00 0.9000E+01
      -24  2    1    2    0    0 0.78020705E+02 0.46866177E+03 0.11065826E+04 0.12066734E+04 0.76189008E+02 0.0000E+00 0.0000E+00
       25  1    1    2    0    0 -.88040180E+02 -.47300691E+03 0.26757747E+03 0.56454345E+03 0.12500000E+03 0.0000E+00 0.9000E+01
        3  1    3    3  502    0 0.78454665E+02 0.27749053E+03 0.71334067E+03 0.76942270E+03 0.50000000E+00 0.0000E+00 0.9000E+01
       -4  1    3    3    0  502 -.43395970E+00 0.19117124E+03 0.39324188E+03 0.43725074E+03 0.15500000E+01 0.0000E+00 0.9000E+01
       21  1    1    2  503  501 0.10019475E+02 0.43451404E+01 -.10991904E+02 0.15513045E+02 0.75000000E+00 0.0000E+00 0.9000E+01
#aMCatNLO 2  0  0  2  5 0.73556421D+02 0.00000000D+00  -5  6  0 0.00000000D+00 0.00000000D+00 0.00000000D+00 0.00000000D+00 0.00000000D+00
  <mgrwgt>
 0.1846197874D-02    1    2    0
 0.558742840913521D+03 0.000000000000000D+00 0.000000000000000D+00 0.558742840913521D+03
 0.558742840913521D+03 0.000000000000000D+00 0.000000000000000D+00 -.558742840913521D+03
 0.563136738453861D+03 -.829795045518177D+02 -.470812246761714D+03 -.270089274722217D+03
 0.344264973038493D+03 0.815657401594967D+02 0.278932274801692D+03 0.184559442368524D+03
 0.210083970334690D+03 0.141376439232095D+01 0.191879971960022D+03 0.855298323536929D+02
 0.000000000000000D+00 0.000000000000000D+00 0.000000000000000D+00 -.000000000000000D+00
 0.559569008155017D+03 0.000000000000000D+00 0.000000000000000D+00 0.559569008155017D+03
 0.596065436421934D+03 0.000000000000000D+00 0.000000000000000D+00 -.596065436421934D+03
 0.565738299890191D+03 -.880401801194936D+02 -.473006907272185D+03 -.270089274722217D+03
 0.342465509826814D+03 0.784871707358050D+02 0.277597193219685D+03 0.184559442368524D+03
 0.209335236226903D+03 -.466465446380986D+00 0.191064573675263D+03 0.855298323536929D+02
 0.380953986330440D+02 0.100194748300695D+02 0.434514037723678D+01 -.364964282669173D+02
0.150096926201D-02 0.000000000000D+00 0.000000000000D+00 0.102989093473D-04 0.549899051530D-06  6 -2 1 25 3 -4 21 2 0.24229825D+00 0.32581464D-01 0.24382312D+06 0.24382312D+06 0.24382312D+06 0.10912774D+01  1  2  1  2  6  2        1 0.184619787353D-02 0.100000000000D+01
  </mgrwgt>
  </event>
  <event>
  6     66 0.17058341E-05 0.66681373E+02 0.75467711E-02 0.93259635E-01
       -2 -1    0    0    0  501 0.00000000E+00 0.00000000E+00 0.11278270E+03 0.11278315E+03 0.32000000E+00 0.0000E+00 0.9000E+01
        1 -1    0    0  501    0 -.00000000E+00 -.00000000E+00 -.30373536E+04 0.30373537E+04 0.32000000E+00 0.0000E+00 0.9000E+01
       25  1    1    2    0    0 -.52987667E+03 -.10700081E+03 -.14535897E+04 0.15558812E+04 0.12500000E+03 0.0000E+00 0.9000E+01
        3  1    1    2  503    0 0.35909513E+03 0.72748452E+02 -.82145252E+03 0.89945880E+03 0.50000000E+00 0.0000E+00 0.9000E+01
       -4  1    1    2    0  502 0.18752542E+03 0.23570614E+02 -.64784186E+03 0.67485023E+03 0.15500000E+01 0.0000E+00 0.9000E+01
       21  1    1    2  502  503 -.16743880E+02 0.10681747E+02 -.16869095E+01 0.19946563E+02 0.75000000E+00 0.0000E+00 0.9000E+01
#aMCatNLO 2  0  0  4  5 0.17804980D+01 0.00000000D+00  -5  6  0 0.00000000D+00 0.00000000D+00 0.00000000D+00 0.00000000D+00 0.00000000D+00
  <mgrwgt>
 0.2777586866D-03    1    2    0
 0.585287688743490D+03 0.000000000000000D+00 0.000000000000000D+00 0.585287688743490D+03
 0.585287688743490D+03 -.000000000000000D+00 -.000000000000000D+00 -.585287688743490D+03
 0.582077593340688D+03 -.556214456350405D+03 -.113419246486873D+03 -.308363055903284D+02
 0.399090719715226D+03 0.377675743643419D+03 0.920397298256503D+02 0.903500047583239D+02
 0.189407064431066D+03 0.178538712706986D+03 0.213795166612229D+02 -.595136991679955D+02
 0.000000000000000D+00 -.000000000000000D+00 0.000000000000000D+00 0.000000000000000D+00
 0.585287688743490D+03 0.000000000000000D+00 0.000000000000000D+00 0.585287688743490D+03
 0.585287688743490D+03 -.000000000000000D+00 -.000000000000000D+00 -.585287688743490D+03
 0.555326641361772D+03 -.529825266259999D+03 -.106988190304107D+03 -.245233149088629D+02
 0.368180377726007D+03 0.359078796273645D+03 0.727138786172964D+02 0.364952115429392D+02
 0.197505389162254D+03 0.187515561899824D+03 0.235671784009573D+02 -.573661999416395D+02
 0.495629692369464D+02 -.167690919134704D+02 0.107071332858537D+02 0.453943033075631D+02
0.146949082566D-03 0.000000000000D+00 0.000000000000D+00 0.133500218684D-07 0.281249387669D-08  6 -2 1 25 3 -4 21 2 0.17351220D-01 0.46728521D+00 0.31924683D+06 0.31924683D+06 0.31924683D+06 0.10825595D+01  1  2  1  3  6  4        3 0.277758686551D-03 0.100000000000D+01
  </mgrwgt>
  </event>
  <event>
  7     66 0.17058341E-05 0.43617281E+02 0.75467711E-02 0.94552493E-01
       -2 -1    0    0    0  501 0.00000000E+00 0.00000000E+00 0.38010638E+03 0.38010652E+03 0.32000000E+00 0.0000E+00 0.9000E+01
        1 -1    0    0  503    0 0.00000000E+00 0.00000000E+00 -.79589883E+03 0.79589890E+03 0.32000000E+00 0.0000E+00 0.9000E+01
      -24  2    1    2    0    0 0.48706870E+03 0.56334784E+02 0.15826248E+02 0.49717876E+03 0.80788110E+02 0.0000E+00 0.0000E+00
       25  1    1    2    0    0 -.45446668E+03 -.71639057E+02 -.35580615E+03 0.59489086E+03 0.12500000E+03 0.0000E+00 0.9000E+01
        3  1    3    3  502    0 0.18138123E+03 -.70286949E+01 -.21411197E+02 0.18277648E+03 0.50000000E+00 0.0000E+00 0.9000E+01
       -4  1    3    3    0  502 0.30568748E+03 0.63363479E+02 0.37237445E+02 0.31440228E+03 0.15500000E+01 0.0000E+00 0.9000E+01
       21  1    1    2  503  501 -.32602021E+02 0.15304273E+02 -.75812548E+02 0.83935794E+02 0.75000000E+00 0.0000E+00 0.9000E+01
#aMCatNLO 2  0  0  2  5 0.73556421D+02 0.00000000D+00  -5  6  0 0.00000000D+00 0.00000000D+00 0.00000000D+00 0.00000000D+00 0.00000000D+00
  <mgrwgt>
 0.9029546733D-03    1    2    0
 0.518587650805329D+03 0.000000000000000D+00 0.000000000000000D+00 0.518587650805329D+03
 0.518587650805329D+03 0.000000000000000D+00 0.000000000000000D+00 -.518587650805329D+03
 0.522973737425891D+03 -.470687941437174D+03 -.640243576185692D+02 -.179527918314588D+03
 0.179679950146246D+03 0.175700558146263D+03 -.434119704899611D+01 0.373544155332531D+02
 0.334521614038521D+03 0.294987383290911D+03 0.683655546675653D+02 0.142173502781335D+03
 0.000000000000000D+00 -.000000000000000D+00 0.000000000000000D+00 -.000000000000000D+00
 0.524502605080186D+03 0.000000000000000D+00 0.000000000000000D+00 0.524502605080186D+03
 0.576782281963176D+03 0.000000000000000D+00 0.000000000000000D+00 -.576782281963176D+03
 0.509438311546531D+03 -.454466682359078D+03 -.716390566837916D+02 -.179527918314588D+03
 0.185375182098300D+03 0.181436304725181D+03 -.703371209376330D+01 0.373544155332531D+02
 0.342986929742019D+03 0.305632398163826D+03 0.633684959058619D+02 0.142173502781335D+03
 0.634844636565123D+02 -.326020205299289D+02 0.153042728716930D+02 -.522796768829905D+02
0.112193351651D-03 0.000000000000D+00 0.000000000000D+00 0.261586373329D-03 0.128171886075D-05  6 -2 1 25 3 -4 21 2 0.58477675D-01 0.12244548D+00 0.25324922D+06 0.25324922D+06 0.25324922D+06 0.10900375D+01  1  2  1  2  6  2        1 0.902954673275D-03 0.100000000000D+01
  </mgrwgt>
  </event>
  <event>
  7     66 0.17058341E-05 0.42100090E+02 0.75467711E-02 0.92774103E-01
       -4 -1    0    0    0  501 0.00000000E+00 0.00000000E+00 0.55737888E+03 0.55738103E+03 0.15500000E+01 0.0000E+00 0.9000E+01
        3 -1    0    0  503    0 0.00000000E+00 0.00000000E+00 -.63409973E+03 0.63409993E+03 0.50000000E+00 0.0000E+00 0.9000E+01
      -24  2    1    2    0    0 -.19872615E+03 -.54619728E+03 -.77671926E+02 0.59191321E+03 0.80652194E+02 0.0000E+00 0.0000E+00
       25  1    1    2    0    0 0.18718527E+03 0.53947639E+03 0.76678996E+01 0.58459977E+03 0.12500000E+03 0.0000E+00 0.9000E+01
        1  1    3    3  502    0 -.12502590E+03 -.40819258E+03 -.84998279E+02 0.43529010E+03 0.32000000E+00 0.0000E+00 0.9000E+01
       -2  1    3    3    0  502 -.73700244E+02 -.13800469E+03 0.73263536E+01 0.15662311E+03 0.32000000E+00 0.0000E+00 0.9000E+01
       21  1    1    2  503  501 0.11540876E+02 0.67208903E+01 -.67168298E+01 0.14967982E+02 0.75000000E+00 0.0000E+00 0.9000E+01
#aMCatNLO 2  0  0  2  5 0.73556421D+02 0.00000000D+00  -5  6  0 0.00000000D+00 0.00000000D+00 0.00000000D+00 0.00000000D+00 0.00000000D+00
  <mgrwgt>
 0.9682785973D-04    1    2    0
 0.587176266437660D+03 0.000000000000000D+00 0.000000000000000D+00 0.587176266437660D+03
 0.587176266437660D+03 0.000000000000000D+00 0.000000000000000D+00 -.587176266437660D+03
 0.591059352358592D+03 0.192969285464019D+03 0.542844737564358D+03 0.425276824756312D+02
 0.427463571852766D+03 -.120808595062368D+03 -.405740396101884D+03 -.592040504633547D+02
 0.155829608663962D+03 -.721606904016514D+02 -.137104341462473D+03 0.166763679877235D+02
 0.000000000000000D+00 0.000000000000000D+00 0.000000000000000D+00 -.000000000000000D+00
 0.591583433548036D+03 0.000000000000000D+00 0.000000000000000D+00 0.591583433548036D+03
 0.597419895436899D+03 0.000000000000000D+00 0.000000000000000D+00 -.597419895436899D+03
 0.586094445772758D+03 0.187185269609548D+03 0.539476385423986D+03 0.425276824756312D+02
 0.431000528987478D+03 -.125026709957496D+03 -.408196837559311D+03 -.592040504633547D+02
 0.157333496312590D+03 -.736994361178824D+02 -.138000438146363D+03 0.166763679877235D+02
 0.145748579121090D+02 0.115408764658295D+02 0.672089028168730D+01 -.583646188886287D+01
0.266371381672D-03 0.000000000000D+00 0.000000000000D+00 0.270615343352D-03 0.943485311100D-05  6 -4 3 25 1 -2 21 2 0.85749384D-01 0.97552401D-01 0.34884783D+06 0.34884783D+06 0.34884783D+06 0.10797378D+01  1  2  1  2  6  2        3 0.968278597270D-04 0.100000000000D+01
  </mgrwgt>
  </event>
  <event>
  7     66 0.17058341E-05 0.64662975E+02 0.75467711E-02 0.93220310E-01
       21 -1    0    0  503  501 0.00000000E+00 0.00000000E+00 0.22188309E+03 0.22188435E+03 0.75000000E+00 0.0000E+00 0.9000E+01
        1 -1    0    0  501    0 0.00000000E+00 0.00000000E+00 -.15568915E+04 0.15568915E+04 0.32000000E+00 0.0000E+00 0.9000E+01
      -24  2    1    2    0    0 0.16635688E+03 0.40286241E+03 -.64794842E+03 0.78558230E+03 0.85613420E+02 0.0000E+00 0.0000E+00
       25  1    1    2    0    0 -.20728893E+03 -.51746317E+03 -.65132457E+03 0.86636340E+03 0.12500000E+03 0.0000E+00 0.9000E+01
        3  1    3    3  502    0 0.11443355E+03 0.18823778E+03 -.36971702E+03 0.43037126E+03 0.50000000E+00 0.0000E+00 0.9000E+01
        2  1    1    2  503    0 0.40932052E+02 0.11460076E+03 -.35735381E+02 0.12683015E+03 0.32000000E+00 0.0000E+00 0.9000E+01
       -4  1    3    3    0  502 0.51923325E+02 0.21462463E+03 -.27823140E+03 0.35521103E+03 0.15500000E+01 0.0000E+00 0.9000E+01
#aMCatNLO 2  0  0  1  5 0.25156901D+02 0.00000000D+00  -5  6  0 0.00000000D+00 0.00000000D+00 0.00000000D+00 0.00000000D+00 0.00000000D+00
  <mgrwgt>
 0.8616220813D-04    1    2    0
 0.506459650268154D+03 0.000000000000000D+00 0.000000000000000D+00 0.506459650268154D+03
 0.506459650268154D+03 0.000000000000000D+00 0.000000000000000D+00 -.506459650268154D+03
 0.510554421998114D+03 -.185467043553494D+03 -.456366678290424D+03 0.487057339901407D+02
 0.253641560782111D+03 0.124127481563341D+03 0.215332983099524D+03 -.505778218806204D+02
 0.000000000000000D+00 0.000000000000000D+00 0.000000000000000D+00 0.000000000000000D+00
 0.248723317756083D+03 0.613395619901536D+02 0.241033695190900D+03 0.187208789047972D+01
 0.641859713177765D+03 0.000000000000000D+00 0.000000000000000D+00 0.641859713177765D+03
 0.538199909730988D+03 0.000000000000000D+00 0.000000000000000D+00 -.538199909730988D+03
 0.573353371953460D+03 -.207288932410775D+03 -.517463176570938D+03 0.487057339901407D+02
 0.226086895044084D+03 0.114469297441840D+03 0.188292187803049D+03 -.505778218806204D+02
 0.159856566459432D+03 0.409320519281865D+02 0.114600759659448D+03 0.103659803446778D+03
 0.220762789451776D+03 0.518875830407479D+02 0.214570229108442D+03 0.187208789047972D+01
0.124597585032D-05 0.000000000000D+00 0.000000000000D+00 0.122620451626D-04 0.172572272008D-09  6 21 1 25 3 2 -4 2 0.34135950D-01 0.23952179D+00 0.32153658D+06 0.32153658D+06 0.32153658D+06 0.10823313D+01  1  2  1  5  5  1       -2 0.861622081327D-04 0.100000000000D+01
  </mgrwgt>
  </event>
  <event>
  7     66 0.17058341E-05 0.33815206E+02 0.75467711E-02 0.94654123E-01
       21 -1    0    0  503  501 0.00000000E+00 0.00000000E+00 0.49520954E+03 0.49521011E+03 0.75000000E+00 0.0000E+00 0.9000E+01
        1 -1    0    0  501    0 0.00000000E+00 0.00000000E+00 -.70919310E+03 0.70919317E+03 0.32000000E+00 0.0000E+00 0.9000E+01
      -24  2    1    2    0    0 -.47337627E+03 0.83266020E+02 -.28639553E+03 0.56506126E+03 0.79079117E+02 0.0000E+00 0.0000E+00
       25  1    1    2    0    0 0.48305308E+03 -.79954404E+02 -.57893766E+02 0.50863511E+03 0.12500000E+03 0.0000E+00 0.9000E+01
        3  1    3    3  502    0 -.89751246E+02 0.29987415E+02 -.25265510E+02 0.97944511E+02 0.50000000E+00 0.0000E+00 0.9000E+01
        2  1    1    2  503    0 -.96768095E+01 -.33116159E+01 0.13030574E+03 0.13070691E+03 0.32000000E+00 0.0000E+00 0.9000E+01
       -4  1    3    3    0  502 -.38362502E+03 0.53278605E+02 -.26113002E+03 0.46711675E+03 0.15500000E+01 0.0000E+00 0.9000E+01
#aMCatNLO 2  0  0  1  5 0.25156901D+02 0.00000000D+00  -5  6  0 0.00000000D+00 0.00000000D+00 0.00000000D+00 0.00000000D+00 0.00000000D+00
  <mgrwgt>
 0.4530289887D-03    1    2    0
 0.508474229790232D+03 0.000000000000000D+00 0.000000000000000D+00 0.508474229790232D+03
 0.508474229790232D+03 0.000000000000000D+00 0.000000000000000D+00 -.508474229790232D+03
 0.513081883804807D+03 0.478150449187533D+03 -.816321915337566D+02 0.111069134937868D+03
 0.956331476772820D+02 -.906767500941271D+02 0.296866344306096D+02 0.649073672362281D+01
 0.000000000000000D+00 -.000000000000000D+00 -.000000000000000D+00 0.000000000000000D+00
 0.408233428098374D+03 -.387473699093406D+03 0.519455571031470D+02 -.117559871661490D+03
 0.690462500935431D+03 0.000000000000000D+00 0.000000000000000D+00 0.690462500935431D+03
 0.508643666264948D+03 0.000000000000000D+00 0.000000000000000D+00 -.508643666264948D+03
 0.517391860877966D+03 0.483053080158159D+03 -.799544039852316D+02 0.111069134937868D+03
 0.948718186034174D+02 -.897703945925289D+02 0.299968091070700D+02 0.649073672362281D+01
 0.182106276892686D+03 -.967680954926584D+01 -.331161587900114D+01 0.181818834670484D+03
 0.404736210826310D+03 -.383605876016364D+03 0.532692107571628D+02 -.117559871661490D+03
0.849575043732D-05 0.000000000000D+00 0.000000000000D+00 0.437880449246D-04 0.108973957053D-06  6 21 1 25 3 2 -4 2 0.76186111D-01 0.10910665D+00 0.24874842D+06 0.24874842D+06 0.24874842D+06 0.10906231D+01  1  2  1  5  5  1       -2 0.453028988711D-03 0.100000000000D+01
  </mgrwgt>
  </event>
  <event>
  7     66 0.17058341E-05 0.25202730E+02 0.75467711E-02 0.90972846E-01
       -2 -1    0    0    0  501 0.00000000E+00 0.00000000E+00 0.28595584E+03 0.28595601E+03 0.32000000E+00 0.0000E+00 0.9000E+01
        1 -1    0    0  503    0 0.00000000E+00 0.00000000E+00 -.20437640E+04 0.20437641E+04 0.32000000E+00 0.0000E+00 0.9000E+01
      -24  2    1    2    0    0 0.19826876E+03 0.66349405E+03 -.96092516E+03 0.11871433E+04 0.79982645E+02 0.0000E+00 0.0000E+00
       25  1    1    2    0    0 -.19951458E+03 -.63387533E+03 -.49195689E+03 0.83621204E+03 0.12500000E+03 0.0000E+00 0.9000E+01
        3  1    3    3  502    0 0.38495873E+02 0.13399483E+03 -.14248363E+03 0.19934488E+03 0.50000000E+00 0.0000E+00 0.9000E+01
       -4  1    3    3    0  502 0.15977289E+03 0.52949922E+03 -.81844153E+03 0.98779843E+03 0.15500000E+01 0.0000E+00 0.9000E+01
       21  1    1    2  503  501 0.12458200E+01 -.29618721E+02 -.30492614E+03 0.30636471E+03 0.75000000E+00 0.0000E+00 0.9000E+01
#aMCatNLO 2  0  0  2  5 0.10317623D+03 0.00000000D+00  -5  6  0 0.00000000D+00 0.00000000D+00 0.00000000D+00 0.00000000D+00 0.00000000D+00
  <mgrwgt>
 0.3106696167D-03    1    2    0
 0.703956999179030D+03 0.000000000000000D+00 0.000000000000000D+00 0.703956999179030D+03
 0.703956999179030D+03 0.000000000000000D+00 0.000000000000000D+00 -.703956999179030D+03
 0.707234108609004D+03 -.198894728159094D+03 -.648611970947014D+03 0.155879705653821D+03
 0.136694476669160D+03 0.386262502533040D+02 0.131120132030975D+03 0.950641575145745D+00
 0.563985413079896D+03 0.160268477905790D+03 0.517491838916039D+03 -.156830347228967D+03
 0.000000000000000D+00 0.000000000000000D+00 -.000000000000000D+00 -.000000000000000D+00
 0.705887483040299D+03 0.000000000000000D+00 0.000000000000000D+00 0.705887483040299D+03
 0.827928886227250D+03 0.000000000000000D+00 0.000000000000000D+00 -.827928886227250D+03
 0.693921813821601D+03 -.199514579475461D+03 -.633875329729331D+03 0.155879705653821D+03
 0.139449010577396D+03 0.385040883287561D+02 0.134024467966046D+03 0.950641575145745D+00
 0.574855239643057D+03 0.159764671108544D+03 0.529469582316772D+03 -.156830347228967D+03
 0.125590305225495D+03 0.124582003816060D+01 -.296187205534865D+02 -.122041403186951D+03
0.179411894084D-03 0.000000000000D+00 0.000000000000D+00 0.110127187601D-03 0.774547180200D-06  6 -2 1 25 3 -4 21 2 0.43993151D-01 0.31442475D+00 0.48882919D+06 0.48882919D+06 0.48882919D+06 0.10692046D+01  1  2  1  2  6  2        1 0.310669616742D-03 0.100000000000D+01
  </mgrwgt>
  </event>
  <event>
  7     66 0.17058341E-05 0.34945815E+02 0.75467711E-02 0.93985846E-01
       -2 -1    0    0    0  501 0.00000000E+00 0.00000000E+00 0.31626010E+03 0.31626026E+03 0.32000000E+00 0.0000E+00 0.9000E+01
        1 -1    0    0  503    0 0.00000000E+00 0.00000000E+00 -.91044057E+03 0.91044063E+03 0.32000000E+00 0.0000E+00 0.9000E+01
      -24  2    1    2    0    0 0.19519434E+03 0.48061233E+03 -.37297219E+03 0.64413571E+03 0.81936090E+02 0.0000E+00 0.0000E+00
       25  1    1    2    0    0 -.16608590E+03 -.45456741E+03 -.20663629E+03 0.54086931E+03 0.12500000E+03 0.0000E+00 0.9000E+01
        3  1    3    3  502    0 0.47559927E+02 0.15278104E+03 -.72953455E+02 0.17585917E+03 0.50000000E+00 0.0000E+00 0.9000E+01
       -4  1    3    3    0  502 0.14763441E+03 0.32783129E+03 -.30001873E+03 0.46827654E+03 0.15500000E+01 0.0000E+00 0.9000E+01
       21  1    1    2  503  501 -.29108444E+02 -.26044919E+02 -.14571998E+02 0.41695862E+02 0.75000000E+00 0.0000E+00 0.9000E+01
#aMCatNLO 2  0  0  2  1 0.52141327D+01 0.00000000D+00  -5  6  0 0.00000000D+00 0.00000000D+00 0.00000000D+00 0.00000000D+00 0.00000000D+00
  <mgrwgt>
 0.2295800561D-03    1    2    0
 0.516421650286268D+03 0.000000000000000D+00 0.000000000000000D+00 0.516421650286268D+03
 0.516421650286268D+03 0.000000000000000D+00 0.000000000000000D+00 -.516421650286268D+03
 0.520735701375137D+03 -.180523977020630D+03 -.467485952710355D+03 0.663976537672984D+02
 0.155676884503026D+03 0.431140541650818D+02 0.148835240485022D+03 0.149847219455152D+02
 0.356430714694373D+03 0.137409922855548D+03 0.318650712225333D+03 -.813823757128136D+02
 0.000000000000000D+00 -.000000000000000D+00 -.000000000000000D+00 0.000000000000000D+00
 0.539941245203134D+03 0.000000000000000D+00 0.000000000000000D+00 0.539941245203134D+03
 0.533266069322076D+03 0.000000000000000D+00 0.000000000000000D+00 -.533266069322076D+03
 0.504231796914810D+03 -.166085896434977D+03 -.454567411501888D+03 0.663976537672984D+02
 0.160756378036439D+03 0.475714530115313D+02 0.152823519282805D+03 0.149847219455152D+02
 0.368593424563103D+03 0.147622887624292D+03 0.327788810980423D+03 -.813823757128136D+02
 0.396257150108572D+02 -.291084442008464D+02 -.260449187613404D+02 0.667517588105808D+01
0.247777538731D-04 0.000000000000D+00 0.000000000000D+00 0.525476493569D-04 0.216992702868D-06  6 -2 1 25 3 -4 21 2 0.48655094D-01 0.14006687D+00 0.28008113D+06 0.28008113D+06 0.28008113D+06 0.10867663D+01  1  2  1  2  6  2        1 0.229580056132D-03 0.100000000000D+01
  </mgrwgt>
  </event>
  <event>
  7     66 0.17058341E-05 0.50231119E+02 0.75467711E-02 0.95163543E-01
       -2 -1    0    0    0  503 0.00000000E+00 0.00000000E+00 0.33888247E+03 0.33888262E+03 0.32000000E+00 0.0000E+00 0.9000E+01
        1 -1    0    0  501    0 0.00000000E+00 0.00000000E+00 -.80340453E+03 0.80340459E+03 0.32000000E+00 0.0000E+00 0.9000E+01
      -24  2    1    2    0    0 -.13932365E+03 0.43384491E+03 -.18982150E+03 0.50079515E+03 0.84445844E+02 0.0000E+00 0.0000E+00
       25  1    1    2    0    0 0.12632023E+03 -.44119508E+03 -.33344153E+03 0.58087706E+03 0.12500000E+03 0.0000E+00 0.9000E+01
        3  1    3    3  502    0 -.59123726E+02 0.31150163E+03 -.13384786E+03 0.34415750E+03 0.50000000E+00 0.0000E+00 0.9000E+01
       -4  1    3    3    0  502 -.80199927E+02 0.12234327E+03 -.55973635E+02 0.15663766E+03 0.15500000E+01 0.0000E+00 0.9000E+01
       21  1    1    2  501  503 0.13003423E+02 0.73501780E+01 0.58740971E+02 0.60615001E+02 0.75000000E+00 0.0000E+00 0.9000E+01
#aMCatNLO 2  0  0  1  2 0.17439255D+02 0.00000000D+00  -5  6  0 0.00000000D+00 0.00000000D+00 0.00000000D+00 0.00000000D+00 0.00000000D+00
  <mgrwgt>
 0.2317180854D-02    1    2    0
 0.473283070763922D+03 0.000000000000000D+00 0.000000000000000D+00 0.473283070763922D+03
 0.473283070763922D+03 0.000000000000000D+00 0.000000000000000D+00 -.473283070763922D+03
 0.477769763377152D+03 0.132894370271253D+03 -.437479056711557D+03 -.599175106828855D+02
 0.320998390417727D+03 -.547427287237858D+02 0.314088362261517D+03 0.373055089031488D+02
 0.147797987732965D+03 -.781516415474674D+02 0.123390694450039D+03 0.226120017797368D+02
 0.000000000000000D+00 0.000000000000000D+00 0.000000000000000D+00 0.000000000000000D+00
 0.574513789476689D+03 0.000000000000000D+00 0.000000000000000D+00 0.574513789476689D+03
 0.473893319285093D+03 0.000000000000000D+00 0.000000000000000D+00 -.473893319285093D+03
 0.479400680538466D+03 0.126320229650109D+03 -.441195086096223D+03 -.599175106828855D+02
 0.319351454544750D+03 -.591408481541037D+02 0.311602327662901D+03 0.373055089031488D+02
 0.147931853597466D+03 -.801828049365308D+02 0.122242580457080D+03 0.226120017797368D+02
 0.101723120081100D+03 0.130034234405254D+02 0.735017797624232D+01 0.100620470191596D+03
0.229273741246D-03 0.000000000000D+00 0.000000000000D+00 0.146990655219D-04 0.427568133590D-06  6 -2 1 25 3 -4 21 2 0.52135629D-01 0.12360035D+00 0.22749898D+06 0.22749898D+06 0.22749898D+06 0.10935540D+01  1  2  1  1  6  1       -2 0.231718085435D-02 0.100000000000D+01
  </mgrwgt>
  </event>
  <event>
  6     66 0.17058341E-05 0.66393989E+02 0.75467711E-02 0.88956082E-01
       -2 -1    0    0    0  501 0.00000000E+00 0.00000000E+00 0.98280906E+03 0.98280911E+03 0.32000000E+00 0.0000E+00 0.9000E+01
        1 -1    0    0  503    0 0.00000000E+00 0.00000000E+00 -.13513896E+04 0.13513896E+04 0.32000000E+00 0.0000E+00 0.9000E+01
       25  1    1    2    0    0 0.75954957E+03 -.32135674E+03 -.41652025E+03 0.93236250E+03 0.12500000E+03 0.0000E+00 0.9000E+01
        3  1    1    2  502    0 -.32545381E+03 0.10348942E+03 0.14391461E+03 0.37059669E+03 0.50000000E+00 0.0000E+00 0.9000E+01
       -4  1    1    2    0  502 -.43956778E+03 0.15780163E+03 0.34847424E+03 0.58271595E+03 0.15500000E+01 0.0000E+00 0.9000E+01
       21  1    1    2  503  501 0.54720102E+01 0.60065685E+02 -.44444913E+03 0.44852360E+03 0.75000000E+00 0.0000E+00 0.9000E+01
#aMCatNLO 2  0  0  2  1 0.32675968D+02 0.00000000D+00  -5  6  0 0.00000000D+00 0.00000000D+00 0.00000000D+00 0.00000000D+00 0.00000000D+00
  <mgrwgt>
 0.9097225155D-04    1    2    0
 0.941591320843246D+03 0.000000000000000D+00 0.000000000000000D+00 0.941591320843246D+03
 0.941591320843246D+03 0.000000000000000D+00 0.000000000000000D+00 -.941591320843246D+03
 0.942334172782979D+03 0.762298016984666D+03 -.291187438129322D+03 -.454401036939298D+03
 0.367702138357488D+03 -.324441703361406D+03 0.115190349012233D+03 0.129126399961663D+03
 0.573146330546024D+03 -.437856313623261D+03 0.175997089117089D+03 0.325274636977636D+03
 0.000000000000000D+00 0.000000000000000D+00 0.000000000000000D+00 -.000000000000000D+00
 0.944030686486916D+03 0.000000000000000D+00 0.000000000000000D+00 0.944030686486916D+03
 0.140690044180786D+04 0.000000000000000D+00 0.000000000000000D+00 -.140690044180786D+04
 0.949890004900580D+03 0.759549580418164D+03 -.321356739349132D+03 -.454401036939298D+03
 0.365159327932072D+03 -.325506177262483D+03 0.103505730144320D+03 0.129126399961663D+03
 0.569098933979736D+03 -.439515413369455D+03 0.157785324433601D+03 0.325274636977636D+03
 0.466782861482383D+03 0.547201021377391D+01 0.600656847712112D+02 -.462869755320941D+03
0.323443429159D-03 0.000000000000D+00 0.000000000000D+00 0.188267979078D-06 0.334621581584D-09  6 -2 1 25 3 -4 21 2 0.15120135D+00 0.20790603D+00 0.72506360D+06 0.72506360D+06 0.72506360D+06 0.10572867D+01  1  2  1  2  6  2        1 0.909722515461D-04 0.100000000000D+01
  </mgrwgt>
  </event>
  <event>
  7     66 0.17058341E-05 0.13049544E+03 0.75467711E-02 0.88207316E-01
       21 -1    0    0  503  501 0.00000000E+00 0.00000000E+00 0.11843368E+04 0.11843371E+04 0.75000000E+00 0.0000E+00 0.9000E+01
        1 -1    0    0  501    0 0.00000000E+00 0.00000000E+00 -.11260983E+04 0.11260983E+04 0.32000000E+00 0.0000E+00 0.9000E+01
      -24  2    1    2    0    0 -.75430992E+03 0.10591656E+02 -.26712569E+03 0.80481340E+03 0.85280929E+02 0.0000E+00 0.0000E+00
       25  1    1    2    0    0 0.91165422E+03 -.29868196E+02 -.21250868E+03 0.94487590E+03 0.12500000E+03 0.0000E+00 0.9000E+01
        3  1    3    3  502    0 -.22563676E+03 0.34213392E+02 -.55522335E+02 0.23487333E+03 0.50000000E+00 0.0000E+00 0.9000E+01
        2  1    1    2  503    0 -.15734429E+03 0.19276539E+02 0.53787292E+03 0.56074611E+03 0.32000000E+00 0.0000E+00 0.9000E+01
       -4  1    3    3    0  502 -.52867317E+03 -.23621736E+02 -.21160335E+03 0.56994007E+03 0.15500000E+01 0.0000E+00 0.9000E+01
#aMCatNLO 2  0  0  1  2 0.20483881D+03 0.00000000D+00  -5  6  0 0.00000000D+00 0.00000000D+00 0.00000000D+00 0.00000000D+00 0.00000000D+00
  <mgrwgt>
 0.5469429410D-04    1    2    0
 0.837590994371449D+03 0.000000000000000D+00 0.000000000000000D+00 0.837590994371449D+03
 0.837590994371449D+03 0.000000000000000D+00 0.000000000000000D+00 -.837590994371449D+03
 0.840083906766673D+03 0.829088217504420D+03 -.197528832704386D+02 0.483582630602393D+02
 0.251072665425115D+03 -.248163385377566D+03 0.369783813174732D+02 0.922045534435562D+01
 0.000000000000000D+00 -.000000000000000D+00 0.000000000000000D+00 0.000000000000000D+00
 0.584025416551111D+03 -.580924832126855D+03 -.172254980470347D+02 -.575787184045949D+02
 0.156909985920527D+04 0.000000000000000D+00 0.000000000000000D+00 0.156909985920527D+04
 0.849964959639638D+03 0.000000000000000D+00 0.000000000000000D+00 -.849964959639638D+03
 0.921937655489712D+03 0.911654216179228D+03 -.298681958996440D+02 0.483582630602393D+02
 0.228459612608255D+03 -.225693137407428D+03 0.342255098362122D+02 0.922045534435562D+01
 0.736399223035088D+03 -.157344294278305D+03 0.192765394059524D+02 0.719134899565633D+03
 0.532268327711855D+03 -.528616784493496D+03 -.236338533425206D+02 -.575787184045949D+02
0.299972512189D-04 0.000000000000D+00 0.000000000000D+00 0.846865643694D-05 0.161267132005D-09  6 21 1 25 3 2 -4 2 0.18220568D+00 0.17324590D+00 0.84328180D+06 0.84328180D+06 0.84328180D+06 0.10528275D+01  1  2  1  5  5  1       -2 0.546942940976D-04 0.100000000000D+01
  </mgrwgt>
  </event>
  <event>
  7     66 0.17058341E-05 0.55354936E+02 0.75467711E-02 0.94545485E-01
       21 -1    0    0  503  501 0.00000000E+00 0.00000000E+00 0.11534936E+03 0.11535180E+03 0.75000000E+00 0.0000E+00 0.9000E+01
        1 -1    0    0  501    0 0.00000000E+00 0.00000000E+00 -.27907408E+04 0.27907409E+04 0.32000000E+00 0.0000E+00 0.9000E+01
      -24  2    1    2    0    0 -.46694427E+03 -.16661229E+02 -.12807400E+04 0.13654149E+04 0.75816805E+02 0.0000E+00 0.0000E+00
       25  1    1    2    0    0 0.49313742E+03 0.22935707E+02 -.14169665E+04 0.15056990E+04 0.12500000E+03 0.0000E+00 0.9000E+01
        3  1    3    3  502    0 -.21134372E+03 0.21681020E+02 -.50962477E+03 0.55213576E+03 0.50000000E+00 0.0000E+00 0.9000E+01
        2  1    1    2  503    0 -.26193155E+02 -.62744782E+01 0.22315036E+02 0.34978760E+02 0.32000000E+00 0.0000E+00 0.9000E+01
       -4  1    3    3    0  502 -.25560055E+03 -.38342249E+02 -.77111528E+03 0.81327913E+03 0.15500000E+01 0.0000E+00 0.9000E+01
#aMCatNLO 2  0  0  1  2 0.11453336D+02 0.00000000D+00  -5  6  0 0.00000000D+00 0.00000000D+00 0.00000000D+00 0.00000000D+00 0.00000000D+00
  <mgrwgt>
 0.4296485066D-03    1    2    0
 0.491159124044386D+03 0.000000000000000D+00 0.000000000000000D+00 0.491159124044386D+03
 0.491159124044386D+03 0.000000000000000D+00 0.000000000000000D+00 -.491159124044386D+03
 0.496186421605711D+03 0.479734599584545D+03 0.197251084083083D+02 -.644973221279093D+01
 0.219791456757823D+03 -.217206157107670D+03 0.203059338301259D+02 0.267850486191642D+02
 0.000000000000000D+00 -.000000000000000D+00 -.000000000000000D+00 0.000000000000000D+00
 0.266340369725238D+03 -.262528442476875D+03 -.400310422384342D+02 -.203353164063733D+02
 0.653683460508165D+03 0.000000000000000D+00 0.000000000000000D+00 0.653683460508165D+03
 0.492460895841266D+03 0.000000000000000D+00 0.000000000000000D+00 -.492460895841266D+03
 0.509290842659244D+03 0.493137421718485D+03 0.229357073531924D+02 -.644973221279093D+01
 0.214212041246231D+03 -.211420972403858D+03 0.216917544968781D+02 0.267850486191642D+02
 0.163456923355908D+03 -.261931548049276D+02 -.627447819119617D+01 0.161222564666899D+03
 0.259184549088050D+03 -.255523294509699D+03 -.383529836588743D+02 -.203353164063733D+02
0.117780450634D-04 0.000000000000D+00 0.000000000000D+00 0.115140004936D-04 0.390543532960D-08  6 21 1 25 3 2 -4 2 0.17746239D-01 0.42934480D+00 0.25356291D+06 0.25356291D+06 0.25356291D+06 0.10899971D+01  1  2  1  5  5  1       -2 0.429648506625D-03 0.100000000000D+01
  </mgrwgt>
  </event>
  <event>
  7     66 0.17058341E-05 0.12413192E+02 0.75467711E-02 0.92144098E-01
       -2 -1    0    0    0  503 0.00000000E+00 0.00000000E+00 0.92949264E+03 0.92949269E+03 0.32000000E+00 0.0000E+00 0.9000E+01
        1 -1    0    0  501    0 0.00000000E+00 0.00000000E+00 -.56033184E+03 0.56033193E+03 0.32000000E+00 0.0000E+00 0.9000E+01
      -24  2    1    2    0    0 -.19540862E+03 -.57009540E+03 -.60849536E+02 0.61086430E+03 0.79115303E+02 0.0000E+00 0.0000E+00
       25  1    1    2    0    0 0.21284994E+03 0.57912731E+03 0.21826075E+03 0.66630045E+03 0.12500000E+03 0.0000E+00 0.9000E+01
        3  1    3    3  502    0 -.34219981E+01 -.19930940E+02 -.17159111E+02 0.26526167E+02 0.50000000E+00 0.0000E+00 0.9000E+01
       -4  1    3    3    0  502 -.19198662E+03 -.55016446E+03 -.43690425E+02 0.58433813E+03 0.15500000E+01 0.0000E+00 0.9000E+01
       21  1    1    2  501  503 -.17441313E+02 -.90319096E+01 0.21174958E+03 0.21265988E+03 0.75000000E+00 0.0000E+00 0.9000E+01
#aMCatNLO 2  0  0  1  2 0.19641151D+02 0.00000000D+00  -5  6  0 0.00000000D+00 0.00000000D+00 0.00000000D+00 0.00000000D+00 0.00000000D+00
  <mgrwgt>
 0.1717116709D-03    1    2    0
 0.633637462991461D+03 0.000000000000000D+00 0.000000000000000D+00 0.633637462991461D+03
 0.633637462991461D+03 0.000000000000000D+00 0.000000000000000D+00 -.633637462991461D+03
 0.637332702559231D+03 0.204030922366829D+03 0.574560422639839D+03 0.137184828627379D+03
 0.290408336287250D+02 -.381397446627817D+01 -.201228788087626D+02 -.205886707941459D+02
 0.600901389794966D+03 -.200216947900551D+03 -.554437543831076D+03 -.116596157833233D+03
 0.000000000000000D+00 -.000000000000000D+00 -.000000000000000D+00 0.000000000000000D+00
 0.821192405406530D+03 0.000000000000000D+00 0.000000000000000D+00 0.821192405406530D+03
 0.634227986084266D+03 0.000000000000000D+00 0.000000000000000D+00 -.634227986084266D+03
 0.644312202564727D+03 0.212849935359665D+03 0.579127310861500D+03 0.137184828627379D+03
 0.288484138115132D+02 -.341563790419309D+01 -.199166019209611D+02 -.205886707941459D+02
 0.594266506903508D+03 -.191992984174355D+03 -.550178799331318D+03 -.116596157833233D+03
 0.187993268211047D+03 -.174413132811171D+02 -.903190960922142D+01 0.186964419322264D+03
0.108394947305D-03 0.000000000000D+00 0.000000000000D+00 0.269329909631D-04 0.446805597482D-06  6 -2 1 25 3 -4 21 2 0.14299871D+00 0.86204809D-01 0.39194044D+06 0.39194044D+06 0.39194044D+06 0.10760655D+01  1  2  1  1  6  1       -2 0.171711670857D-03 0.100000000000D+01
  </mgrwgt>
  </event>
  <event>
  7     66 0.17058341E-05 0.52761008E+02 0.75467711E-02 0.93737620E-01
       -2 -1    0    0    0  501 0.00000000E+00 0.00000000E+00 0.88870207E+03 0.88870212E+03 0.32000000E+00 0.0000E+00 0.9000E+01
        1 -1    0    0  503    0 0.00000000E+00 0.00000000E+00 -.36464349E+03 0.36464363E+03 0.32000000E+00 0.0000E+00 0.9000E+01
      -24  2    1    2    0    0 0.20664621E+03 0.49081655E+03 0.42963700E+03 0.68893012E+03 0.80207321E+02 0.0000E+00 0.0000E+00
       25  1    1    2    0    0 -.19116377E+03 -.47124353E+03 0.10983647E+03 0.53507299E+03 0.12500000E+03 0.0000E+00 0.9000E+01
        3  1    3    3  502    0 0.97811865E+02 0.18926333E+03 0.12683510E+03 0.24794185E+03 0.50000000E+00 0.0000E+00 0.9000E+01
       -4  1    3    3    0  502 0.10883435E+03 0.30155322E+03 0.30280190E+03 0.44098827E+03 0.15500000E+01 0.0000E+00 0.9000E+01
       21  1    1    2  503  501 -.15482442E+02 -.19573023E+02 -.15414898E+02 0.29342645E+02 0.75000000E+00 0.0000E+00 0.9000E+01
#aMCatNLO 2  0  0  2  1 0.32675968D+02 0.00000000D+00  -5  6  0 0.00000000D+00 0.00000000D+00 0.00000000D+00 0.00000000D+00 0.00000000D+00
  <mgrwgt>
 0.7763290621D-03    1    2    0
 0.549210611679459D+03 0.000000000000000D+00 0.000000000000000D+00 0.549210611679459D+03
 0.549210611679459D+03 0.000000000000000D+00 0.000000000000000D+00 -.549210611679459D+03
 0.553394701282958D+03 -.198883817492944D+03 -.481003270357419D+03 -.140363016685150D+03
 0.209309623578770D+03 0.948611996913521D+02 0.185551212244815D+03 0.195606480026458D+02
 0.335716898497191D+03 0.104022617801592D+03 0.295452058112604D+03 0.120802368682505D+03
 0.000000000000000D+00 -.000000000000000D+00 -.000000000000000D+00 -.000000000000000D+00
 0.553687597727370D+03 0.000000000000000D+00 0.000000000000000D+00 0.553687597727370D+03
 0.585267734394388D+03 0.000000000000000D+00 0.000000000000000D+00 -.585267734394388D+03
 0.542163101897238D+03 -.191163772735578D+03 -.471243530034503D+03 -.140363016685150D+03
 0.214007104990290D+03 0.978441770218117D+02 0.189322315269400D+03 0.195606480026458D+02
 0.342534481908129D+03 0.108802037927371D+03 0.301494238020592D+03 0.120802368682505D+03
 0.402506433261016D+02 -.154824422136044D+02 -.195730232554890D+02 -.315801366670180D+02
0.232535197944D-03 0.000000000000D+00 0.000000000000D+00 0.322473406335D-03 0.325644979902D-05  6 -2 1 25 3 -4 21 2 0.13672255D+00 0.56098662D-01 0.29282786D+06 0.29282786D+06 0.29282786D+06 0.10853302D+01  1  2  1  2  6  2        1 0.776329062100D-03 0.100000000000D+01
  </mgrwgt>
  </event>
  <event>
  7     66 0.17058341E-05 0.14010870E+03 0.75467711E-02 0.91861279E-01
       -2 -1    0    0    0  501 0.00000000E+00 0.00000000E+00 0.35687717E+03 0.35687732E+03 0.32000000E+00 0.0000E+00 0.9000E+01
        1 -1    0    0  503    0 0.00000000E+00 0.00000000E+00 -.22268873E+04 0.22268874E+04 0.32000000E+00 0.0000E+00 0.9000E+01
      -24  2    1    2    0    0 0.36691353E+03 0.50146283E+03 -.11461001E+04 0.13057807E+04 0.73670727E+02 0.0000E+00 0.0000E+00
       25  1    1    2    0    0 -.33801725E+03 -.33138025E+03 0.43412473E+02 0.49150603E+03 0.12500000E+03 0.0000E+00 0.9000E+01
        3  1    3    3  502    0 0.18621734E+03 0.29785124E+03 -.69953636E+03 0.78277943E+03 0.50000000E+00 0.0000E+00 0.9000E+01
       -4  1    3    3    0  502 0.18069619E+03 0.20361160E+03 -.44656375E+03 0.52300132E+03 0.15500000E+01 0.0000E+00 0.9000E+01
       21  1    1    2  503  501 -.28896277E+02 -.17008258E+03 -.76732251E+03 0.78647790E+03 0.75000000E+00 0.0000E+00 0.9000E+01
#aMCatNLO 2  0  0  2  2 0.74595177D+02 0.00000000D+00  -5  6  0 0.00000000D+00 0.00000000D+00 0.00000000D+00 0.00000000D+00 0.00000000D+00
  <mgrwgt>
 0.2932812452D-03    1    2    0
 0.704371463236182D+03 0.000000000000000D+00 0.000000000000000D+00 0.704371463236182D+03
 0.704371463236182D+03 0.000000000000000D+00 0.000000000000000D+00 -.704371463236182D+03
 0.707990868815808D+03 -.351955850289438D+03 -.413422403343797D+03 0.436846730772980D+03
 0.411506278825380D+03 0.177509595331266D+03 0.246283845053241D+03 -.277798539851872D+03
 0.289245778831177D+03 0.174446254958172D+03 0.167138558290556D+03 -.159048190921107D+03
 0.000000000000000D+00 -.000000000000000D+00 -.000000000000000D+00 -.000000000000000D+00
 0.729203314014829D+03 0.000000000000000D+00 0.000000000000000D+00 0.729203314014829D+03
 0.108985341776461D+04 0.000000000000000D+00 0.000000000000000D+00 -.108985341776461D+04
 0.656146780420143D+03 -.338017251779315D+03 -.331380248005579D+03 0.436846730772980D+03
 0.447956372218431D+03 0.186291483899517D+03 0.297973766787918D+03 -.277798539851872D+03
 0.315164162881676D+03 0.180622044855754D+03 0.203489064673649D+03 -.159048190921107D+03
 0.399789416259188D+03 -.288962769759567D+02 -.170082583455989D+03 -.360650103749780D+03
0.342392950568D-03 0.000000000000D+00 0.000000000000D+00 0.515896070106D-05 0.122772300594D-08  6 -2 1 25 3 -4 21 2 0.54904168D-01 0.34259790D+00 0.41319752D+06 0.41319752D+06 0.41319752D+06 0.10744128D+01  1  2  1  2  6  2        1 0.293281245220D-03 0.100000000000D+01
  </mgrwgt>
  </event>
  <event>
  7     66 0.17058341E-05 0.44050729E+02 0.75467711E-02 0.94637281E-01
       -2 -1    0    0    0  503 0.00000000E+00 0.00000000E+00 0.78746177E+02 0.78746828E+02 0.32000000E+00 0.0000E+00 0.9000E+01
        1 -1    0    0  501    0 0.00000000E+00 0.00000000E+00 -.34089096E+04 0.34089096E+04 0.32000000E+00 0.0000E+00 0.9000E+01
      -24  2    1    2    0    0 0.46382816E+03 -.15236304E+03 -.20439704E+04 0.21030035E+04 0.80360299E+02 0.0000E+00 0.0000E+00
       25  1    1    2    0    0 -.43822378E+03 0.14245844E+03 -.12567557E+04 0.13443937E+04 0.12500000E+03 0.0000E+00 0.9000E+01
        3  1    3    3  502    0 0.14421504E+03 -.85105302E+02 -.74701694E+03 0.76555565E+03 0.50000000E+00 0.0000E+00 0.9000E+01
       -4  1    3    3    0  502 0.31961312E+03 -.67257742E+02 -.12969535E+04 0.13374479E+04 0.15500000E+01 0.0000E+00 0.9000E+01
       21  1    1    2  501  503 -.25604383E+02 0.99046021E+01 -.29437236E+02 0.40259147E+02 0.75000000E+00 0.0000E+00 0.9000E+01
#aMCatNLO 2  0  0  1  2 0.19641151D+02 0.00000000D+00  -5  6  0 0.00000000D+00 0.00000000D+00 0.00000000D+00 0.00000000D+00 0.00000000D+00
  <mgrwgt>
 0.8742548636D-03    1    2    0
 0.497242660944232D+03 0.000000000000000D+00 0.000000000000000D+00 0.497242660944232D+03
 0.497242660944232D+03 0.000000000000000D+00 0.000000000000000D+00 -.497242660944232D+03
 0.501851689452692D+03 -.450976301532077D+03 0.147391529980324D+03 0.105480948768153D+03
 0.169928162720113D+03 0.139824273953157D+03 -.834199086190637D+02 -.486402276402238D+02
 0.322705469715660D+03 0.311152027578921D+03 -.639716213612601D+02 -.568407211279290D+02
 0.000000000000000D+00 -.000000000000000D+00 0.000000000000000D+00 0.000000000000000D+00
 0.534130839185248D+03 0.000000000000000D+00 0.000000000000000D+00 0.534130839185248D+03
 0.502566364254369D+03 0.000000000000000D+00 0.000000000000000D+00 -.502566364254369D+03
 0.488963924721668D+03 -.438223779801922D+03 0.142458442860728D+03 0.105480948768153D+03
 0.174423688444681D+03 0.144256334168979D+03 -.851343725993328D+02 -.486402276402238D+02
 0.331476569041128D+03 0.319571828947992D+03 -.672286723635814D+02 -.568407211279290D+02
 0.418330212321406D+02 -.256043833150493D+02 0.990460210218652D+01 0.315644749308793D+02
0.488399365208D-03 0.000000000000D+00 0.000000000000D+00 0.274905561415D-03 0.231626680168D-05  6 -2 1 25 3 -4 21 2 0.12114767D-01 0.52444420D+00 0.24948807D+06 0.24948807D+06 0.24948807D+06 0.10905261D+01  1  2  1  1  6  1       -2 0.874254863625D-03 0.100000000000D+01
  </mgrwgt>
  </event>
  <event>
  7     66 0.17058341E-05 0.33054873E+02 0.75467711E-02 0.94280724E-01
       -2 -1    0    0    0  501 0.00000000E+00 0.00000000E+00 0.46996972E+03 0.46996983E+03 0.32000000E+00 0.0000E+00 0.9000E+01
        1 -1    0    0  503    0 0.00000000E+00 0.00000000E+00 -.72298625E+03 0.72298632E+03 0.32000000E+00 0.0000E+00 0.9000E+01
      -24  2    1    2    0    0 0.45395655E+03 0.37807764E+02 -.30586470E+02 0.46329454E+03 0.78742124E+02 0.0000E+00 0.0000E+00
       25  1    1    2    0    0 -.50432955E+03 -.32515930E+02 -.20000236E+02 0.52099001E+03 0.12500000E+03 0.0000E+00 0.9000E+01
        3  1    3    3  502    0 0.70557668E+02 0.28876511E+02 0.12926997E+02 0.77327839E+02 0.50000000E+00 0.0000E+00 0.9000E+01
       -4  1    3    3    0  502 0.38339888E+03 0.89312532E+01 -.43513467E+02 0.38596670E+03 0.15500000E+01 0.0000E+00 0.9000E+01
       21  1    1    2  503  501 0.50373001E+02 -.52918345E+01 -.20242983E+03 0.20867161E+03 0.75000000E+00 0.0000E+00 0.9000E+01
#aMCatNLO 2  0  0  2  1 0.25701012D+02 0.00000000D+00  -5  6  0 0.00000000D+00 0.00000000D+00 0.00000000D+00 0.00000000D+00 0.00000000D+00
  <mgrwgt>
 0.5868993430D-03    1    2    0
 0.490838980274554D+03 0.000000000000000D+00 0.000000000000000D+00 0.490838980274554D+03
 0.490838980274554D+03 0.000000000000000D+00 0.000000000000000D+00 -.490838980274554D+03
 0.495639270357485D+03 -.478272368050811D+03 -.352533145894385D+02 0.678469527891136D+01
 0.816795172285310D+02 0.746664818490747D+02 0.284569495282723D+02 0.169310970262722D+02
 0.404359172963092D+03 0.403605886201736D+03 0.679636506116614D+01 -.237157923051836D+02
 0.000000000000000D+00 0.000000000000000D+00 -.000000000000000D+00 -.000000000000000D+00
 0.494776802370118D+03 0.000000000000000D+00 0.000000000000000D+00 0.494776802370118D+03
 0.686735490487349D+03 0.000000000000000D+00 0.000000000000000D+00 -.686735490487349D+03
 0.520650183602201D+03 -.504329550911010D+03 -.325159295250427D+02 0.678469527891136D+01
 0.781101912011357D+02 0.705695489964242D+02 0.288873445890449D+02 0.169310970262722D+02
 0.384223379364717D+03 0.383387001034417D+03 0.892041947536344D+01 -.237157923051836D+02
 0.198528538689413D+03 0.503730008801682D+02 -.529183453936566D+01 -.191958688117231D+03
0.988312756377D-04 0.000000000000D+00 0.000000000000D+00 0.331101876295D-04 0.860415722600D-07  6 -2 1 25 3 -4 21 2 0.72302945D-01 0.11122851D+00 0.26574029D+06 0.26574029D+06 0.26574029D+06 0.10884698D+01  1  2  1  2  6  2        1 0.586899342981D-03 0.100000000000D+01
  </mgrwgt>
  </event>
  <event>
  7     66 0.17058341E-05 0.67917500E+02 0.75467711E-02 0.94598261E-01
       -2 -1    0    0    0  501 0.00000000E+00 0.00000000E+00 0.34218573E+03 0.34218588E+03 0.32000000E+00 0.0000E+00 0.9000E+01
        1 -1    0    0  503    0 0.00000000E+00 0.00000000E+00 -.82158471E+03 0.82158477E+03 0.32000000E+00 0.0000E+00 0.9000E+01
      -24  2    1    2    0    0 -.48304590E+03 -.32452907E+02 -.34815290E+03 0.60166221E+03 0.80002730E+02 0.0000E+00 0.0000E+00
       25  1    1    2    0    0 0.48267630E+03 0.13011528E+02 -.77253925E+02 0.50471664E+03 0.12500000E+03 0.0000E+00 0.9000E+01
        3  1    3    3  502    0 -.23554546E+03 -.11690185E+02 -.21843634E+03 0.32145452E+03 0.50000000E+00 0.0000E+00 0.9000E+01
       -4  1    3    3    0  502 -.24750045E+03 -.20762721E+02 -.12971656E+03 0.28020769E+03 0.15500000E+01 0.0000E+00 0.9000E+01
       21  1    1    2  503  501 0.36960133E+00 0.19441379E+02 -.53992159E+02 0.57391808E+02 0.75000000E+00 0.0000E+00 0.9000E+01
#aMCatNLO 2  0  0  2  1 0.25701012D+02 0.00000000D+00  -5  6  0 0.00000000D+00 0.00000000D+00 0.00000000D+00 0.00000000D+00 0.00000000D+00
  <mgrwgt>
 0.1263664141D-02    1    2    0
 0.510569554212010D+03 0.000000000000000D+00 0.000000000000000D+00 0.510569554212010D+03
 0.510569554212010D+03 0.000000000000000D+00 0.000000000000000D+00 -.510569554212010D+03
 0.515086354730009D+03 0.482862628007952D+03 0.228124144898542D+02 0.126539436728028D+03
 0.257066290163413D+03 -.235531155155378D+03 -.679745763182433D+01 -.102771333840215D+03
 0.248986463530597D+03 -.247331472852574D+03 -.160149568580298D+02 -.237681028878129D+02
 0.000000000000000D+00 0.000000000000000D+00 0.000000000000000D+00 -.000000000000000D+00
 0.513207988314812D+03 0.000000000000000D+00 0.000000000000000D+00 0.513207988314812D+03
 0.547791201401135D+03 0.000000000000000D+00 0.000000000000000D+00 -.547791201401135D+03
 0.514570638592347D+03 0.482676302707253D+03 0.130115279174262D+02 0.126539436728028D+03
 0.257327560212654D+03 -.235624239152739D+03 -.116937636966460D+02 -.102771333840215D+03
 0.249426031086138D+03 -.247421664885973D+03 -.207591428905625D+02 -.237681028878129D+02
 0.396749598248071D+02 0.369601331458905D+00 0.194413786697822D+02 -.345832130863223D+02
0.133342486617D-03 0.000000000000D+00 0.000000000000D+00 0.313094860711D-03 0.526326392919D-05  6 -2 1 25 3 -4 21 2 0.52643613D-01 0.12639680D+00 0.25121113D+06 0.25121113D+06 0.25121113D+06 0.10903012D+01  1  2  1  2  6  2        1 0.126366414051D-02 0.100000000000D+01
  </mgrwgt>
  </event>
  <event>
  7     66 0.17058341E-05 0.61941241E+02 0.75467711E-02 0.94804405E-01
       -2 -1    0    0    0  503 0.00000000E+00 0.00000000E+00 0.29400589E+03 0.29400606E+03 0.32000000E+00 0.0000E+00 0.9000E+01
        1 -1    0    0  501    0 0.00000000E+00 0.00000000E+00 -.93752136E+03 0.93752141E+03 0.32000000E+00 0.0000E+00 0.9000E+01
      -24  2    1    2    0    0 -.44357709E+03 0.15977935E+03 -.26972703E+03 0.54928279E+03 0.81662977E+02 0.0000E+00 0.0000E+00
       25  1    1    2    0    0 0.43587174E+03 -.17792531E+03 -.41282447E+03 0.63850657E+03 0.12500000E+03 0.0000E+00 0.9000E+01
        3  1    3    3  502    0 -.23889368E+03 0.12611187E+03 -.13563718E+03 0.30227817E+03 0.50000000E+00 0.0000E+00 0.9000E+01
       -4  1    3    3    0  502 -.20468341E+03 0.33667484E+02 -.13408984E+03 0.24700462E+03 0.15500000E+01 0.0000E+00 0.9000E+01
       21  1    1    2  501  503 0.77053458E+01 0.18145963E+02 0.39036029E+02 0.43738111E+02 0.75000000E+00 0.0000E+00 0.9000E+01
#aMCatNLO 2  0  0  1  1 0.12362423D+03 0.00000000D+00  -5  6  0 0.00000000D+00 0.00000000D+00 0.00000000D+00 0.00000000D+00 0.00000000D+00
  <mgrwgt>
 0.1278624899D-02    1    2    0
 0.485947109111924D+03 0.000000000000000D+00 0.000000000000000D+00 0.485947109111924D+03
 0.485947109111924D+03 0.000000000000000D+00 0.000000000000000D+00 -.485947109111924D+03
 0.490554688026175D+03 0.439759617298396D+03 -.168769436208536D+03 -.561004308350589D+02
 0.274721001518224D+03 -.236796344242340D+03 0.131279938114813D+03 0.465263138149806D+02
 0.206618528679450D+03 -.202963273056056D+03 0.374894980937234D+02 0.957411702007832D+01
 0.000000000000000D+00 0.000000000000000D+00 0.000000000000000D+00 0.000000000000000D+00
 0.565675130047215D+03 0.000000000000000D+00 0.000000000000000D+00 0.565675130047215D+03
 0.487267269744215D+03 0.000000000000000D+00 0.000000000000000D+00 -.487267269744215D+03
 0.490320153534105D+03 0.435871744310638D+03 -.177925313357686D+03 -.561004308350589D+02
 0.274203784641185D+03 -.238972105876744D+03 0.126156055134795D+03 0.465263138149806D+02
 0.207570203224888D+03 -.204604984224876D+03 0.336232952050392D+02 0.957411702007832D+01
 0.808482583912517D+02 0.770534579098223D+01 0.181459630178514D+02 0.784078603030000D+02
0.124118370960D-03 0.000000000000D+00 0.000000000000D+00 0.981564720377D-04 0.162173877227D-05  6 -2 1 25 3 -4 21 2 0.45231531D-01 0.14423356D+00 0.24225658D+06 0.24225658D+06 0.24225658D+06 0.10914886D+01  1  2  1  1  6  1       -2 0.127862489890D-02 0.100000000000D+01
  </mgrwgt>
  </event>
  <event>
  7     66 0.17058341E-05 0.11762510E+03 0.75467711E-02 0.92744386E-01
       -2 -1    0    0    0  501 0.00000000E+00 0.00000000E+00 0.15791389E+04 0.15791389E+04 0.32000000E+00 0.0000E+00 0.9000E+01
        1 -1    0    0  503    0 0.00000000E+00 0.00000000E+00 -.40144324E+03 0.40144336E+03 0.32000000E+00 0.0000E+00 0.9000E+01
      -24  2    1    2    0    0 -.48797258E+02 0.54757465E+03 0.78283574E+03 0.95998554E+03 0.80754455E+02 0.0000E+00 0.0000E+00
       25  1    1    2    0    0 0.15219364E+03 -.45218235E+03 0.59696247E+03 0.77435197E+03 0.12500000E+03 0.0000E+00 0.9000E+01
        3  1    3    3  502    0 -.49974205E+02 0.41137677E+03 0.52982448E+03 0.67263846E+03 0.50000000E+00 0.0000E+00 0.9000E+01
       -4  1    3    3    0  502 0.11769470E+01 0.13619788E+03 0.25301126E+03 0.28734708E+03 0.15500000E+01 0.0000E+00 0.9000E+01
       21  1    1    2  503  501 -.10339638E+03 -.95392299E+02 -.20210253E+03 0.24624480E+03 0.75000000E+00 0.0000E+00 0.9000E+01
#aMCatNLO 2  0  0  2  1 0.55211192D+03 0.00000000D+00  -5  6  0 0.00000000D+00 0.00000000D+00 0.00000000D+00 0.00000000D+00 0.00000000D+00
  <mgrwgt>
 0.7269675017D-03    1    2    0
 0.520646955591917D+03 0.000000000000000D+00 0.000000000000000D+00 0.520646955591917D+03
 0.520646955591917D+03 0.000000000000000D+00 0.000000000000000D+00 -.520646955591917D+03
 0.525018304574605D+03 0.101819456067685D+03 -.498656986703816D+03 -.315155218256631D+02
 0.385673014860688D+03 -.895470346706477D+02 0.375030768236105D+03 -.877073826215452D+01
 0.130602591748541D+03 -.122724213970369D+02 0.123626218467711D+03 0.402862600878176D+02
 0.000000000000000D+00 -.000000000000000D+00 -.000000000000000D+00 -.000000000000000D+00
 0.532823799133570D+03 0.000000000000000D+00 0.000000000000000D+00 0.532823799133570D+03
 0.118976348926722D+04 0.000000000000000D+00 0.000000000000000D+00 -.118976348926722D+04
 0.494216562124985D+03 0.152193641731151D+03 -.452182349920146D+03 -.315155218256631D+02
 0.414641420799470D+03 -.499926696383339D+02 0.411523164567163D+03 -.877073826215452D+01
 0.141895799926332D+03 0.119541121319885D+01 0.136051483920249D+03 0.402862600878176D+02
 0.671833505550004D+03 -.103396383306016D+03 -.953922985672662D+02 -.656939690133650D+03
0.145570873755D-02 0.000000000000D+00 0.000000000000D+00 0.263113521815D-03 0.111710926267D-06  6 -2 1 25 3 -4 21 2 0.24294437D+00 0.61760486D-01 0.35075698D+06 0.35075698D+06 0.35075698D+06 0.10795649D+01  1  2  1  2  6  2        1 0.726967501674D-03 0.100000000000D+01
  </mgrwgt>
  </event>
  <event>
  7     66 0.17058341E-05 0.65175746E+02 0.75467711E-02 0.92804715E-01
       -2 -1    0    0    0  501 0.00000000E+00 0.00000000E+00 0.19948590E+03 0.19948616E+03 0.32000000E+00 0.0000E+00 0.9000E+01
        1 -1    0    0  503    0 0.00000000E+00 0.00000000E+00 -.20292286E+04 0.20292286E+04 0.32000000E+00 0.0000E+00 0.9000E+01
      -24  2    1    2    0    0 -.55842183E+03 -.11011386E+03 -.66950741E+03 0.88228258E+03 0.78882071E+02 0.0000E+00 0.0000E+00
       25  1    1    2    0    0 0.57004999E+03 0.10865710E+03 -.85443984E+03 0.10404114E+04 0.12500000E+03 0.0000E+00 0.9000E+01
        3  1    3    3  502    0 -.24336746E+03 -.79717247E+02 -.33626444E+03 0.42267788E+03 0.50000000E+00 0.0000E+00 0.9000E+01
       -4  1    3    3    0  502 -.31505437E+03 -.30396616E+02 -.33324297E+03 0.45960471E+03 0.15500000E+01 0.0000E+00 0.9000E+01
       21  1    1    2  503  501 -.11628160E+02 0.14567634E+01 -.30579546E+03 0.30602085E+03 0.75000000E+00 0.0000E+00 0.9000E+01
#aMCatNLO 2  0  0  2  1 0.55211192D+03 0.00000000D+00  -5  6  0 0.00000000D+00 0.00000000D+00 0.00000000D+00 0.00000000D+00 0.00000000D+00
  <mgrwgt>
 0.1345156928D-02    1    2    0
 0.586131267825513D+03 0.000000000000000D+00 0.000000000000000D+00 0.586131267825513D+03
 0.586131267825513D+03 0.000000000000000D+00 0.000000000000000D+00 -.586131267825513D+03
 0.590141725638345D+03 0.564169050987488D+03 0.109393857821334D+03 -.488725088188332D+02
 0.258514164653295D+03 -.246001498662575D+03 -.794270188850719D+02 -.204564248792154D+01
 0.323606645359387D+03 -.318167552324913D+03 -.299668389362624D+02 0.509181513067548D+02
 0.000000000000000D+00 -.000000000000000D+00 0.000000000000000D+00 -.000000000000000D+00
 0.586490537838391D+03 0.000000000000000D+00 0.000000000000000D+00 0.586490537838391D+03
 0.690208847523519D+03 0.000000000000000D+00 0.000000000000000D+00 -.690208847523519D+03
 0.595631498580305D+03 0.570049993132707D+03 0.108657099686004D+03 -.488725088188332D+02
 0.256185594379703D+03 -.243448801870972D+03 -.797468180059959D+02 -.204564248792154D+01
 0.320504018662507D+03 -.314973031253882D+03 -.303670451157232D+02 0.509181513067548D+02
 0.104378273739394D+03 -.116281600078530D+02 0.145676343571547D+01 -.103718309685128D+03
0.374743189298D-03 0.000000000000D+00 0.000000000000D+00 0.103439839587D-03 0.474753147049D-05  6 -2 1 25 3 -4 21 2 0.30690090D-01 0.31218832D+00 0.34689336D+06 0.34689336D+06 0.34689336D+06 0.10799159D+01  1  2  1  2  6  2        1 0.134515692835D-02 0.100000000000D+01
  </mgrwgt>
  </event>
  <event>
  7     66 0.17058341E-05 0.67228411E+02 0.75467711E-02 0.94943593E-01
       21 -1    0    0  503  501 0.00000000E+00 0.00000000E+00 0.26301726E+03 0.26301833E+03 0.75000000E+00 0.0000E+00 0.9000E+01
        1 -1    0    0  501    0 0.00000000E+00 0.00000000E+00 -.12950391E+04 0.12950392E+04 0.32000000E+00 0.0000E+00 0.9000E+01
      -24  2    1    2    0    0 -.43284442E+03 -.19500594E+03 -.85997662E+02 0.48908323E+03 0.80157333E+02 0.0000E+00 0.0000E+00
       25  1    1    2    0    0 0.42204419E+03 0.20092724E+03 -.93325892E+03 0.10512327E+04 0.12500000E+03 0.0000E+00 0.9000E+01
        3  1    3    3  502    0 -.24275587E+03 -.88542522E+02 -.10909832E+02 0.25862998E+03 0.50000000E+00 0.0000E+00 0.9000E+01
        2  1    1    2  503    0 0.10800233E+02 -.59213000E+01 -.12765304E+02 0.17741539E+02 0.32000000E+00 0.0000E+00 0.9000E+01
       -4  1    3    3    0  502 -.19008855E+03 -.10646342E+03 -.75087830E+02 0.23045325E+03 0.15500000E+01 0.0000E+00 0.9000E+01
#aMCatNLO 2  0  0  1  1 0.52928483D+02 0.00000000D+00  -5  6  0 0.00000000D+00 0.00000000D+00 0.00000000D+00 0.00000000D+00 0.00000000D+00
  <mgrwgt>
 0.1827886292D-03    1    2    0
 0.577394493280219D+03 0.000000000000000D+00 0.000000000000000D+00 0.577394493280219D+03
 0.577394493280219D+03 0.000000000000000D+00 0.000000000000000D+00 -.577394493280219D+03
 0.581377819256162D+03 0.427467613308491D+03 0.197953814483697D+03 -.316955668235712D+03
 0.333643408905811D+03 -.239710545402839D+03 -.902868504825560D+02 0.213787425633277D+03
 0.000000000000000D+00 0.000000000000000D+00 -.000000000000000D+00 -.000000000000000D+00
 0.239767758398466D+03 -.187757067905652D+03 -.107666964001141D+03 0.103168242602435D+03
 0.582939833699833D+03 0.000000000000000D+00 0.000000000000000D+00 0.582939833699833D+03
 0.584307465031183D+03 0.000000000000000D+00 0.000000000000000D+00 -.584307465031183D+03
 0.578428000302663D+03 0.422044191176186D+03 0.200927242059978D+03 -.316955668235712D+03
 0.335441338387657D+03 -.242839283822379D+03 -.885714986495841D+02 0.213787425633277D+03
 0.123926280919560D+02 0.108002325190587D+02 -.592129995029058D+01 -.136763133135070D+01
 0.240985331948740D+03 -.190005139872866D+03 -.106434443460104D+03 0.103168242602435D+03
0.239133104171D-05 0.000000000000D+00 0.000000000000D+00 0.135379548945D-03 0.998643267953D-08  6 21 1 25 3 2 -4 2 0.40464135D-01 0.19923617D+00 0.23641322D+06 0.23641322D+06 0.23641322D+06 0.10922895D+01  1  2  1  5  5  1       -2 0.182788629235D-03 0.100000000000D+01
  </mgrwgt>
  </event>
  <event>
  7     66 0.17058341E-05 0.24506904E+03 0.75467711E-02 0.93426915E-01
       21 -1    0    0  503  501 0.00000000E+00 0.00000000E+00 0.29818240E+03 0.29818335E+03 0.75000000E+00 0.0000E+00 0.9000E+01
        1 -1    0    0  501    0 0.00000000E+00 0.00000000E+00 -.14521845E+04 0.14521845E+04 0.32000000E+00 0.0000E+00 0.9000E+01
      -24  2    1    2    0    0 0.27914680E+03 0.21494846E+02 -.72588359E+03 0.78217835E+03 0.80690836E+02 0.0000E+00 0.0000E+00
       25  1    1    2    0    0 -.35432460E+03 0.31094053E+03 -.10571077E+03 0.49902876E+03 0.12500000E+03 0.0000E+00 0.9000E+01
        3  1    3    3  502    0 0.11727700E+03 0.34096454E+02 -.39761268E+03 0.41594778E+03 0.50000000E+00 0.0000E+00 0.9000E+01
        2  1    1    2  503    0 0.75177799E+02 -.33243538E+03 -.32240774E+03 0.46916077E+03 0.32000000E+00 0.0000E+00 0.9000E+01
       -4  1    3    3    0  502 0.16186980E+03 -.12601608E+02 -.32827091E+03 0.36623057E+03 0.15500000E+01 0.0000E+00 0.9000E+01
#aMCatNLO 2  0  0  1  1 0.52928483D+02 0.00000000D+00  -5  6  0 0.00000000D+00 0.00000000D+00 0.00000000D+00 0.00000000D+00 0.00000000D+00
  <mgrwgt>
 0.1802245393D-02    1    2    0
 0.456557086672429D+03 0.000000000000000D+00 0.000000000000000D+00 0.456557086672429D+03
 0.456557086672429D+03 0.000000000000000D+00 0.000000000000000D+00 -.456557086672429D+03
 0.461547694285679D+03 -.313412044873629D+03 0.130025659040000D+03 0.286823102660457D+03
 0.218822709918650D+03 0.134295513798954D+03 -.409822027297532D+02 -.167834896279152D+03
 0.000000000000000D+00 0.000000000000000D+00 -.000000000000000D+00 -.000000000000000D+00
 0.232743769140529D+03 0.179116531074675D+03 -.890434563102469D+02 -.118988206381305D+03
 0.646387145623687D+03 0.000000000000000D+00 0.000000000000000D+00 0.646387145623687D+03
 0.669902898898581D+03 0.000000000000000D+00 0.000000000000000D+00 -.669902898898581D+03
 0.565793629226518D+03 -.354324603853191D+03 0.310940530902330D+03 0.286823102660457D+03
 0.207592399685568D+03 0.117314075476375D+03 0.341095249644775D+02 -.167834896279152D+03
 0.341640120329134D+03 0.751777994444765D+02 -.332435376632972D+03 -.235157532748940D+02
 0.201263895281048D+03 0.161832728932339D+03 -.126146792338361D+02 -.118988206381305D+03
0.407255609954D-04 0.000000000000D+00 0.000000000000D+00 0.231839958488D-03 0.855079844357D-09  6 21 1 25 3 2 -4 2 0.45874286D-01 0.22341305D+00 0.30970863D+06 0.30970863D+06 0.30970863D+06 0.10835300D+01  1  2  1  5  5  1       -2 0.180224539292D-02 0.100000000000D+01
  </mgrwgt>
  </event>
  <event>
  7     66 0.17058341E-05 0.42969014E+02 0.75467711E-02 0.90894522E-01
       -2 -1    0    0    0  503 0.00000000E+00 0.00000000E+00 0.15043116E+04 0.15043116E+04 0.32000000E+00 0.0000E+00 0.9000E+01
        1 -1    0    0  501    0 0.00000000E+00 0.00000000E+00 -.51464613E+03 0.51464623E+03 0.32000000E+00 0.0000E+00 0.9000E+01
      -24  2    1    2    0    0 0.58585688E+03 -.34905714E+03 -.11336336E+03 0.69617520E+03 0.82094394E+02 0.0000E+00 0.0000E+00
       25  1    1    2    0    0 -.60328315E+03 0.34216086E+03 0.10954370E+04 0.13025482E+04 0.12500000E+03 0.0000E+00 0.9000E+01
        3  1    3    3  502    0 0.43370575E+03 -.22247854E+03 -.10149318E+03 0.49789405E+03 0.50000000E+00 0.0000E+00 0.9000E+01
       -4  1    3    3    0  502 0.15215113E+03 -.12657860E+03 -.11870186E+02 0.19828115E+03 0.15500000E+01 0.0000E+00 0.9000E+01
       21  1    1    2  501  503 0.17426270E+02 0.68962807E+01 0.75917734E+01 0.20234404E+02 0.75000000E+00 0.0000E+00 0.9000E+01
#aMCatNLO 2  0  0  1  1 0.52928483D+02 0.00000000D+00  -5  6  0 0.00000000D+00 0.00000000D+00 0.00000000D+00 0.00000000D+00 0.00000000D+00
  <mgrwgt>
 0.2771771262D-03    1    2    0
 0.870355599133623D+03 0.000000000000000D+00 0.000000000000000D+00 0.870355599133623D+03
 0.870355599133623D+03 0.000000000000000D+00 0.000000000000000D+00 -.870355599133623D+03
 0.872907863542649D+03 -.594521527355201D+03 0.345628188064778D+03 0.522903860533550D+03
 0.632630668955409D+03 0.440170349510903D+03 -.220053853583237D+03 -.397552421999396D+03
 0.235172665769188D+03 0.154351177844299D+03 -.125574334481541D+03 -.125351438534153D+03
 0.000000000000000D+00 0.000000000000000D+00 0.000000000000000D+00 -.000000000000000D+00
 0.878523995063196D+03 0.000000000000000D+00 0.000000000000000D+00 0.878523995063196D+03
 0.881222609270852D+03 0.000000000000000D+00 0.000000000000000D+00 -.881222609270852D+03
 0.877540916357871D+03 -.603283149884885D+03 0.342160859226027D+03 0.522903860533550D+03
 0.629132586559514D+03 0.433854772903586D+03 -.222553182997361D+03 -.397552421999396D+03
 0.234138580376323D+03 0.152002107117479D+03 -.126503956894259D+03 -.125351438534153D+03
 0.189345210403405D+02 0.174262698638208D+02 0.689628066559276D+01 -.269861420765545D+01
0.686068900233D-03 0.000000000000D+00 0.000000000000D+00 0.465246833388D-04 0.807042376359D-06  6 -2 1 25 3 -4 21 2 0.23143061D+00 0.79175670D-01 0.49620639D+06 0.49620639D+06 0.49620639D+06 0.10687442D+01  1  2  1  1  6  1       -2 0.277177126231D-03 0.100000000000D+01
  </mgrwgt>
  </event>
  <event>
  7     66 0.17058341E-05 0.54444958E+02 0.75467711E-02 0.93051366E-01
       -2 -1    0    0    0  503 0.00000000E+00 0.00000000E+00 0.32676356E+03 0.32676372E+03 0.32000000E+00 0.0000E+00 0.9000E+01
        1 -1    0    0  501    0 0.00000000E+00 0.00000000E+00 -.11751046E+04 0.11751047E+04 0.32000000E+00 0.0000E+00 0.9000E+01
      -24  2    1    2    0    0 -.20514757E+03 -.51564027E+03 -.37869869E+03 0.67666191E+03 0.80549585E+02 0.0000E+00 0.0000E+00
       25  1    1    2    0    0 0.21382531E+03 0.52706048E+03 -.51513654E+03 0.77749898E+03 0.12500000E+03 0.0000E+00 0.9000E+01
        3  1    3    3  502    0 -.12699606E+03 -.32509999E+03 -.28405261E+03 0.45000460E+03 0.50000000E+00 0.0000E+00 0.9000E+01
       -4  1    3    3    0  502 -.78151504E+02 -.19054028E+03 -.94646084E+02 0.22665732E+03 0.15500000E+01 0.0000E+00 0.9000E+01
       21  1    1    2  501  503 -.86777458E+01 -.11420211E+02 0.45494162E+02 0.47707502E+02 0.75000000E+00 0.0000E+00 0.9000E+01
#aMCatNLO 2  0  0  1  1 0.52928483D+02 0.00000000D+00  -5  6  0 0.00000000D+00 0.00000000D+00 0.00000000D+00 0.00000000D+00 0.00000000D+00
  <mgrwgt>
 0.5977221354D-03    1    2    0
 0.573462457282315D+03 0.000000000000000D+00 0.000000000000000D+00 0.573462457282315D+03
 0.573462457282315D+03 0.000000000000000D+00 0.000000000000000D+00 -.573462457282315D+03
 0.577445614478436D+03 0.209430673338565D+03 0.521276981920387D+03 -.471968099060405D+02
 0.353500205029636D+03 -.129698617835240D+03 -.328711782226577D+03 -.944604218976600D+01
 0.215979095056558D+03 -.797320555033245D+02 -.192565199693810D+03 0.566428520958065D+02
 0.000000000000000D+00 -.000000000000000D+00 -.000000000000000D+00 0.000000000000000D+00
 0.668899821547372D+03 0.000000000000000D+00 0.000000000000000D+00 0.668899821547372D+03
 0.574046450722281D+03 0.000000000000000D+00 0.000000000000000D+00 -.574046450722281D+03
 0.584265821802712D+03 0.213825312544138D+03 0.527060477912064D+03 -.471968099060405D+02
 0.349273470535831D+03 -.127040094684972D+03 -.325213074536567D+03 -.944604218976600D+01
 0.213475303970024D+03 -.781074720826692D+02 -.190427192166459D+03 0.566428520958065D+02
 0.959316759610861D+02 -.867774577649640D+01 -.114202112090386D+02 0.948533708250913D+02
0.110776853116D-03 0.000000000000D+00 0.000000000000D+00 0.346300104062D-03 0.106171066341D-04  6 -2 1 25 3 -4 21 2 0.50271204D-01 0.18078488D+00 0.33158519D+06 0.33158519D+06 0.33158519D+06 0.10813501D+01  1  2  1  1  6  1       -2 0.597722135393D-03 0.100000000000D+01
  </mgrwgt>
  </event>
  <event>
  7     66 0.17058341E-05 0.53431546E+02 0.75467711E-02 0.93596268E-01
       21 -1    0    0  503  501 0.00000000E+00 0.00000000E+00 0.52001272E+03 0.52001326E+03 0.75000000E+00 0.0000E+00 0.9000E+01
        1 -1    0    0  501    0 0.00000000E+00 0.00000000E+00 -.71540470E+03 0.71540477E+03 0.32000000E+00 0.0000E+00 0.9000E+01
      -24  2    1    2    0    0 0.19595915E+03 0.49786260E+03 -.34339041E+03 0.64077059E+03 0.80017574E+02 0.0000E+00 0.0000E+00
       25  1    1    2    0    0 -.20378043E+03 -.47148761E+03 0.98086337E+02 0.53765506E+03 0.12500000E+03 0.0000E+00 0.9000E+01
        3  1    3    3  502    0 0.14883997E+03 0.28017588E+03 -.22080426E+03 0.38653154E+03 0.50000000E+00 0.0000E+00 0.9000E+01
        2  1    1    2  503    0 0.78212838E+01 -.26374990E+02 0.49912094E+02 0.56992386E+02 0.32000000E+00 0.0000E+00 0.9000E+01
       -4  1    3    3    0  502 0.47119182E+02 0.21768672E+03 -.12258614E+03 0.25423904E+03 0.15500000E+01 0.0000E+00 0.9000E+01
#aMCatNLO 2  0  0  1  1 0.52928483D+02 0.00000000D+00  -5  6  0 0.00000000D+00 0.00000000D+00 0.00000000D+00 0.00000000D+00 0.00000000D+00
  <mgrwgt>
 0.1018042819D-03    1    2    0
 0.576141499124258D+03 0.000000000000000D+00 0.000000000000000D+00 0.576141499124258D+03
 0.576141499124258D+03 0.000000000000000D+00 0.000000000000000D+00 -.576141499124258D+03
 0.580143201803675D+03 -.199875669409451D+03 -.484655287159373D+03 0.214709347736907D+03
 0.343012074841130D+03 0.151239914205957D+03 0.272361643112852D+03 -.143537128293202D+03
 0.000000000000000D+00 0.000000000000000D+00 -.000000000000000D+00 0.000000000000000D+00
 0.229127721603712D+03 0.486357552034940D+02 0.212293644046521D+03 -.711722194437050D+02
 0.642330592504365D+03 0.000000000000000D+00 0.000000000000000D+00 0.642330592504365D+03
 0.579171306694028D+03 0.000000000000000D+00 0.000000000000000D+00 -.579171306694028D+03
 0.570571764891044D+03 -.203780433331779D+03 -.471487613704099D+03 0.214709347736907D+03
 0.348317432568511D+03 0.148894000059443D+03 0.280272551953913D+03 -.143537128293202D+03
 0.688905507176082D+02 0.782128376737732D+01 -.263749903191206D+02 0.631592858103368D+02
 0.233722151021230D+03 0.470651495049590D+02 0.217590052069306D+03 -.711722194437050D+02
0.222962270505D-05 0.000000000000D+00 0.000000000000D+00 0.234867588859D-03 0.347531128116D-07  6 21 1 25 3 2 -4 2 0.80001953D-01 0.11006224D+00 0.30037632D+06 0.30037632D+06 0.30037632D+06 0.10845116D+01  1  2  1  5  5  1       -2 0.101804281868D-03 0.100000000000D+01
  </mgrwgt>
  </event>
  <event>
  7     66 0.17058341E-05 0.27565180E+02 0.75467711E-02 0.93244492E-01
       -2 -1    0    0    0  503 0.00000000E+00 0.00000000E+00 0.13089311E+04 0.13089311E+04 0.32000000E+00 0.0000E+00 0.9000E+01
        1 -1    0    0  501    0 0.00000000E+00 0.00000000E+00 -.14241653E+04 0.14241654E+04 0.32000000E+00 0.0000E+00 0.9000E+01
      -24  2    1    2    0    0 0.50928752E+03 0.18232732E+03 0.58882677E+03 0.80353107E+03 0.79549976E+02 0.0000E+00 0.0000E+00
       25  1    1    2    0    0 -.51706598E+03 -.15159995E+03 -.12582520E+04 0.13744682E+04 0.12500000E+03 0.0000E+00 0.9000E+01
        3  1    3    3  502    0 0.38499114E+03 0.17307803E+03 0.45550319E+03 0.62101335E+03 0.50000000E+00 0.0000E+00 0.9000E+01
       -4  1    3    3    0  502 0.12429638E+03 0.92492913E+01 0.13332358E+03 0.18251772E+03 0.15500000E+01 0.0000E+00 0.9000E+01
       21  1    1    2  501  503 0.77784612E+01 -.30727365E+02 0.55419102E+03 0.55509722E+03 0.75000000E+00 0.0000E+00 0.9000E+01
#aMCatNLO 2  0  0  1  2 0.87454894D+02 0.00000000D+00  -5  6  0 0.00000000D+00 0.00000000D+00 0.00000000D+00 0.00000000D+00 0.00000000D+00
  <mgrwgt>
 0.2208976898D-02    1    2    0
 0.103616432741307D+04 0.000000000000000D+00 0.000000000000000D+00 0.103616432741307D+04
 0.103616432741307D+04 0.000000000000000D+00 0.000000000000000D+00 -.103616432741307D+04
 0.103840740825407D+04 -.513169359187734D+03 -.166992817942399D+03 -.878314040115175D+03
 0.798993805996560D+03 0.388133218073290D+03 0.161289424510687D+03 0.679506753895759D+03
 0.234927440575504D+03 0.125036141114444D+03 0.570339343171185D+01 0.198807286219416D+03
 0.000000000000000D+00 0.000000000000000D+00 -.000000000000000D+00 0.000000000000000D+00
 0.179828912397595D+04 0.000000000000000D+00 0.000000000000000D+00 0.179828912397595D+04
 0.103661513796442D+04 0.000000000000000D+00 0.000000000000000D+00 -.103661513796442D+04
 0.103797896099650D+04 -.517065977195044D+03 -.151599952622907D+03 -.878314040115175D+03
 0.800021918362531D+03 0.385132450221131D+03 0.173143400270359D+03 0.679506753895759D+03
 0.234570163828749D+03 0.124155065777598D+03 0.918391781746351D+01 0.198807286219416D+03
 0.762333218752596D+03 0.777846119631506D+01 -.307273654649162D+02 0.761673986011532D+03
0.184860864071D-01 0.000000000000D+00 0.000000000000D+00 0.327418949015D-04 0.236581341562D-06  6 -2 1 25 3 -4 21 2 0.20137399D+00 0.21910232D+00 0.32012638D+06 0.32012638D+06 0.32012638D+06 0.10824716D+01  1  2  1  1  6  1       -2 0.220897689767D-02 0.100000000000D+01
  </mgrwgt>
  </event>
  <event>
  7     66 0.17058341E-05 0.33861725E+02 0.75467711E-02 0.91514397E-01
       21 -1    0    0  503  501 0.00000000E+00 0.00000000E+00 0.43305478E+03 0.43305543E+03 0.75000000E+00 0.0000E+00 0.9000E+01
        1 -1    0    0  501    0 0.00000000E+00 0.00000000E+00 -.12923779E+04 0.12923779E+04 0.32000000E+00 0.0000E+00 0.9000E+01
      -24  2    1    2    0    0 0.65300402E+03 0.52691757E+02 -.74424741E+03 0.99471215E+03 0.79733296E+02 0.0000E+00 0.0000E+00
       25  1    1    2    0    0 -.59105495E+03 -.44193904E+02 -.18839071E+03 0.63436198E+03 0.12500000E+03 0.0000E+00 0.9000E+01
        3  1    3    3  502    0 0.21711923E+03 0.55354315E+02 -.25259469E+03 0.33765246E+03 0.50000000E+00 0.0000E+00 0.9000E+01
        2  1    1    2  503    0 -.61949063E+02 -.84978532E+01 0.73315035E+02 0.96359206E+02 0.32000000E+00 0.0000E+00 0.9000E+01
       -4  1    3    3    0  502 0.43588479E+03 -.26625583E+01 -.49165272E+03 0.65705969E+03 0.15500000E+01 0.0000E+00 0.9000E+01
#aMCatNLO 2  0  0  1  2 0.87454894D+02 0.00000000D+00  -5  6  0 0.00000000D+00 0.00000000D+00 0.00000000D+00 0.00000000D+00 0.00000000D+00
  <mgrwgt>
 0.1727710766D-03    1    2    0
 0.667112952730276D+03 0.000000000000000D+00 0.000000000000000D+00 0.667112952730276D+03
 0.667112952730276D+03 0.000000000000000D+00 0.000000000000000D+00 -.667112952730276D+03
 0.670585978363872D+03 -.621514025900679D+03 -.483721225064779D+02 0.213168965262723D+03
 0.225337664503273D+03 0.206491149746770D+03 0.539085362789298D+02 -.723349005412297D+02
 0.000000000000000D+00 -.000000000000000D+00 -.000000000000000D+00 0.000000000000000D+00
 0.438302262593407D+03 0.415022876153908D+03 -.553641377245198D+01 -.140834064721493D+03
 0.830553571191608D+03 0.000000000000000D+00 0.000000000000000D+00 0.830553571191608D+03
 0.673852692663491D+03 0.000000000000000D+00 0.000000000000000D+00 -.673852692663491D+03
 0.642156575580316D+03 -.591054954012180D+03 -.441939039633108D+02 0.213168965262723D+03
 0.235515873981360D+03 0.217184161119486D+03 0.553753484839546D+02 -.723349005412297D+02
 0.168715930481131D+03 -.619490626022549D+02 -.849785321903690D+01 0.156700878528117D+03
 0.458017883812291D+03 0.435819855494949D+03 -.268359130160690D+01 -.140834064721493D+03
0.729006142902D-05 0.000000000000D+00 0.000000000000D+00 0.160672432636D-03 0.804373706362D-08  6 21 1 25 3 2 -4 2 0.66623851D-01 0.19882737D+00 0.44105033D+06 0.44105033D+06 0.44105033D+06 0.10723823D+01  1  2  1  5  5  1       -2 0.172771076580D-03 0.100000000000D+01
  </mgrwgt>
  </event>
  <event>
  7     66 0.17058341E-05 0.17907675E+02 0.75467711E-02 0.93003548E-01
       -2 -1    0    0    0  503 0.00000000E+00 0.00000000E+00 0.49576941E+03 0.49576952E+03 0.32000000E+00 0.0000E+00 0.9000E+01
        1 -1    0    0  501    0 0.00000000E+00 0.00000000E+00 -.11801540E+04 0.11801540E+04 0.32000000E+00 0.0000E+00 0.9000E+01
      -24  2    1    2    0    0 -.25749821E+03 -.48013870E+03 -.56181940E+03 0.78654702E+03 0.78591800E+02 0.0000E+00 0.0000E+00
       25  1    1    2    0    0 0.28378448E+03 0.48905798E+03 -.33910383E+03 0.67106463E+03 0.12500000E+03 0.0000E+00 0.9000E+01
        3  1    3    3  502    0 -.25939333E+03 -.44828782E+03 -.53724527E+03 0.74624366E+03 0.50000000E+00 0.0000E+00 0.9000E+01
       -4  1    3    3    0  502 0.18951229E+01 -.31850885E+02 -.24574131E+02 0.40303359E+02 0.15500000E+01 0.0000E+00 0.9000E+01
       21  1    1    2  501  503 -.26286265E+02 -.89192746E+01 0.21653867E+03 0.21831188E+03 0.75000000E+00 0.0000E+00 0.9000E+01
#aMCatNLO 2  0  0  1  4 0.16393257D+03 0.00000000D+00  -5  6  0 0.00000000D+00 0.00000000D+00 0.00000000D+00 0.00000000D+00 0.00000000D+00
  <mgrwgt>
 0.1774396915D-03    1    2    0
 0.572756173151077D+03 0.000000000000000D+00 0.000000000000000D+00 0.572756173151077D+03
 0.572756173151077D+03 0.000000000000000D+00 0.000000000000000D+00 -.572756173151077D+03
 0.576880235645343D+03 0.270432237899477D+03 0.484527386863596D+03 0.962570639591796D+02
 0.536677972237829D+03 -.271697641083793D+03 -.452601712635882D+03 -.967229416109612D+02
 0.319541384189819D+02 0.126540318431546D+01 -.319256742277146D+02 0.465877651781547D+00
 0.000000000000000D+00 -.000000000000000D+00 -.000000000000000D+00 0.000000000000000D+00
 0.102045677419769D+04 0.000000000000000D+00 0.000000000000000D+00 0.102045677419769D+04
 0.573354736812993D+03 0.000000000000000D+00 0.000000000000000D+00 -.573354736812993D+03
 0.587027900153310D+03 0.283784476009781D+03 0.489057976493806D+03 0.962570639591796D+02
 0.527076744339454D+03 -.259494353015055D+03 -.448460976833992D+03 -.967229416109612D+02
 0.317439740841896D+02 0.199614158123857D+01 -.316777250991755D+02 0.465877651781547D+00
 0.447962892433728D+03 -.262862645759652D+02 -.891927456063853D+01 0.447102037384696D+03
0.796102301679D-04 0.000000000000D+00 0.000000000000D+00 0.178013538099D-04 0.167920711968D-06  6 -2 1 25 3 -4 21 2 0.76272187D-01 0.18156206D+00 0.33449286D+06 0.33449286D+06 0.33449286D+06 0.10810722D+01  1  2  1  1  6  1       -2 0.177439691496D-03 0.100000000000D+01
  </mgrwgt>
  </event>
  <event>
  7     66 0.17058341E-05 0.20550844E+02 0.75467711E-02 0.93705035E-01
       -2 -1    0    0    0  503 0.00000000E+00 0.00000000E+00 0.66993890E+03 0.66993898E+03 0.32000000E+00 0.0000E+00 0.9000E+01
        1 -1    0    0  501    0 0.00000000E+00 0.00000000E+00 -.47958877E+03 0.47958888E+03 0.32000000E+00 0.0000E+00 0.9000E+01
      -24  2    1    2    0    0 0.51661071E+03 0.26219983E+02 0.14688323E+03 0.54377602E+03 0.80892302E+02 0.0000E+00 0.0000E+00
       25  1    1    2    0    0 -.52459907E+03 -.34977501E+01 -.18137606E+02 0.53960207E+03 0.12500000E+03 0.0000E+00 0.9000E+01
        3  1    3    3  502    0 0.69347606E+02 -.20629848E+02 0.34901071E+02 0.80330665E+02 0.50000000E+00 0.0000E+00 0.9000E+01
       -4  1    3    3    0  502 0.44726311E+03 0.46849831E+02 0.11198216E+03 0.46344536E+03 0.15500000E+01 0.0000E+00 0.9000E+01
       21  1    1    2  501  503 0.79883574E+01 -.22722233E+02 0.61604506E+02 0.66149765E+02 0.75000000E+00 0.0000E+00 0.9000E+01
#aMCatNLO 2  0  0  1  4 0.16393257D+03 0.00000000D+00  -5  6  0 0.00000000D+00 0.00000000D+00 0.00000000D+00 0.00000000D+00 0.00000000D+00
  <mgrwgt>
 0.1409198048D-03    1    2    0
 0.537715663223353D+03 0.000000000000000D+00 0.000000000000000D+00 0.537715663223353D+03
 0.537715663223353D+03 0.000000000000000D+00 0.000000000000000D+00 -.537715663223353D+03
 0.541937892665031D+03 -.520560344370921D+03 -.149855755030341D+02 -.828495015162143D+02
 0.777081718856478D+02 0.699295208571078D+02 -.222706159693888D+02 0.255429394324286D+02
 0.455785261896028D+03 0.450630823513814D+03 0.372561914724229D+02 0.573065620837858D+02
 0.000000000000000D+00 0.000000000000000D+00 -.000000000000000D+00 0.000000000000000D+00
 0.594535761730892D+03 0.000000000000000D+00 0.000000000000000D+00 0.594535761730892D+03
 0.540408988154215D+03 0.000000000000000D+00 0.000000000000000D+00 -.540408988154215D+03
 0.545623916243499D+03 -.524599069594808D+03 -.349775008675448D+01 -.828495015162143D+02
 0.767376739166338D+02 0.693559770566022D+02 -.206392172770912D+02 0.255429394324286D+02
 0.453339414591002D+03 0.447254735154964D+03 0.468592002205841D+02 0.573065620837858D+02
 0.592437451339727D+02 0.798835738324262D+01 -.227222328567384D+02 0.541267735766770D+02
0.298604004427D-04 0.000000000000D+00 0.000000000000D+00 0.892424536559D-04 0.969717375017D-06  6 -2 1 25 3 -4 21 2 0.10306709D+00 0.73782579D-01 0.29454894D+06 0.29454894D+06 0.29454894D+06 0.10851416D+01  1  2  1  1  6  1       -2 0.140919804754D-03 0.100000000000D+01
  </mgrwgt>
  </event>
  <event>
  6     66 0.17058341E-05 0.14949699E+03 0.75467711E-02 0.94166233E-01
       -2 -1    0    0    0  501 0.00000000E+00 0.00000000E+00 0.31262029E+03 0.31262046E+03 0.32000000E+00 0.0000E+00 0.9000E+01
        1 -1    0    0  501    0 -.00000000E+00 -.00000000E+00 -.10064096E+04 0.10064097E+04 0.32000000E+00 0.0000E+00 0.9000E+01
       25  1    1    2    0    0 -.14510598E+03 -.48465475E+03 -.34428438E+03 0.62458203E+03 0.12500000E+03 0.0000E+00 0.9000E+01
        3  1    1    2  502    0 -.56852402E+01 0.12619092E+03 0.26630433E+02 0.12909648E+03 0.50000000E+00 0.0000E+00 0.9000E+01
       -4  1    1    2    0  503 0.43445615E+02 0.45906022E+02 0.18702401E+01 0.63251756E+02 0.15500000E+01 0.0000E+00 0.9000E+01
       21  1    1    2  503  502 0.10734560E+03 0.31255781E+03 -.37800561E+03 0.50209986E+03 0.75000000E+00 0.0000E+00 0.9000E+01
#aMCatNLO 2  0  0  5  5 0.57383087D+02 0.00000000D+00  -5  6  0 0.00000000D+00 0.00000000D+00 0.00000000D+00 0.00000000D+00 0.00000000D+00
  <mgrwgt>
 0.9951263038D-01    1    2    0
 0.560913727097482D+03 0.000000000000000D+00 0.000000000000000D+00 0.560913727097482D+03
 0.560913727097482D+03 -.000000000000000D+00 -.000000000000000D+00 -.560913727097482D+03
 0.535879202767011D+03 -.150942388679582D+03 -.498532179501946D+03 -.149526338465552D+02
 0.165839531356602D+03 -.752010779779186D+01 0.121823204118461D+03 0.112273349810179D+03
 0.420108720071351D+03 0.158462496477374D+03 0.376708975383485D+03 -.973207159636234D+02
 0.000000000000000D+00 0.000000000000000D+00 0.000000000000000D+00 -.000000000000000D+00
 0.560913727097482D+03 0.000000000000000D+00 0.000000000000000D+00 0.560913727097482D+03
 0.560913727097482D+03 -.000000000000000D+00 -.000000000000000D+00 -.560913727097482D+03
 0.521695848375002D+03 -.145202916609276D+03 -.484887874439795D+03 -.184775658875899D+02
 0.168222044918706D+03 -.570715174826681D+01 0.126133099715300D+03 0.111159911711748D+03
 0.741442669545814D+02 0.426551469141337D+02 0.449396091038574D+02 0.407227491404792D+02
 0.357765293946675D+03 0.108254921443409D+03 0.313815165620638D+03 -.133405094964637D+03
0.124420670466D-01 0.000000000000D+00 0.000000000000D+00 0.408614410341D-09 0.181960233087D-09  6 -2 1 25 3 -4 21 2 0.48095446D-01 0.15483226D+00 0.27120819D+06 0.27120819D+06 0.27120819D+06 0.10878087D+01  1  2  1  4  6  5       -4 0.995126303774D-01 0.100000000000D+01
  </mgrwgt>
  </event>
  <event>
  7     66 0.17058341E-05 0.41963475E+02 0.75467711E-02 0.95123872E-01
       -2 -1    0    0    0  501 0.00000000E+00 0.00000000E+00 0.31061958E+03 0.31061974E+03 0.32000000E+00 0.0000E+00 0.9000E+01
        1 -1    0    0  503    0 0.00000000E+00 0.00000000E+00 -.11712730E+04 0.11712731E+04 0.32000000E+00 0.0000E+00 0.9000E+01
      -24  2    1    2    0    0 0.41717123E+03 0.18518605E+03 -.36379271E+02 0.46505402E+03 0.81400746E+02 0.0000E+00 0.0000E+00
       25  1    1    2    0    0 -.43052950E+03 -.18951455E+03 -.52002822E+03 0.71226804E+03 0.12500000E+03 0.0000E+00 0.9000E+01
        3  1    3    3  502    0 0.11066680E+03 0.52518645E+02 -.46204335E+02 0.13092150E+03 0.50000000E+00 0.0000E+00 0.9000E+01
       -4  1    3    3    0  502 0.30650443E+03 0.13266741E+03 0.98250647E+01 0.33413252E+03 0.15500000E+01 0.0000E+00 0.9000E+01
       21  1    1    2  503  501 0.13358272E+02 0.43285021E+01 -.30424598E+03 0.30457078E+03 0.75000000E+00 0.0000E+00 0.9000E+01
#aMCatNLO 2  0  0  2  5 0.95555001D+02 0.00000000D+00  -5  6  0 0.00000000D+00 0.00000000D+00 0.00000000D+00 0.00000000D+00 0.00000000D+00
  <mgrwgt>
 0.1652321350D-02    1    2    0
 0.518724579068683D+03 0.000000000000000D+00 0.000000000000000D+00 0.518724579068683D+03
 0.518724579068683D+03 0.000000000000000D+00 0.000000000000000D+00 -.518724579068683D+03
 0.523061619900263D+03 -.423754361729648D+03 -.187319194021332D+03 -.208115878007865D+03
 0.125467301743308D+03 0.112300164077798D+03 0.530526893043542D+02 0.177800200343434D+02
 0.388920236493794D+03 0.311454197651850D+03 0.134266504716978D+03 0.190335857973522D+03
 0.000000000000000D+00 0.000000000000000D+00 0.000000000000000D+00 -.000000000000000D+00
 0.519042688762036D+03 0.000000000000000D+00 0.000000000000000D+00 0.519042688762036D+03
 0.700943145954925D+03 0.000000000000000D+00 0.000000000000000D+00 -.700943145954925D+03
 0.529347366181416D+03 -.430529499282738D+03 -.189514552611593D+03 -.208115878007865D+03
 0.123811459563851D+03 0.110695371721161D+03 0.525326858862507D+02 0.177800200343434D+02
 0.384385358892875D+03 0.306475855725271D+03 0.132653364669543D+03 0.190335857973522D+03
 0.182441650078818D+03 0.133582718363054D+02 0.432850205579934D+01 -.181900457192889D+03
0.265440635484D-03 0.000000000000D+00 0.000000000000D+00 0.140753728102D-03 0.476859195498D-05  6 -2 1 25 3 -4 21 2 0.47787573D-01 0.18019560D+00 0.22907850D+06 0.22907850D+06 0.22907850D+06 0.10933260D+01  1  2  1  2  6  2        1 0.165232135004D-02 0.100000000000D+01
  </mgrwgt>
  </event>
  <event>
  7     66 0.17058341E-05 0.43524645E+02 0.75467711E-02 0.92992284E-01
       -2 -1    0    0    0  503 0.00000000E+00 0.00000000E+00 0.20575251E+03 0.20575276E+03 0.32000000E+00 0.0000E+00 0.9000E+01
        1 -1    0    0  501    0 0.00000000E+00 0.00000000E+00 -.19729024E+04 0.19729024E+04 0.32000000E+00 0.0000E+00 0.9000E+01
      -24  2    1    2    0    0 -.46885775E+03 -.31850379E+03 -.42795602E+03 0.71472156E+03 0.80051852E+02 0.0000E+00 0.0000E+00
       25  1    1    2    0    0 0.41928291E+03 0.31109999E+03 -.12669827E+04 0.13760275E+04 0.12500000E+03 0.0000E+00 0.9000E+01
        3  1    3    3  502    0 -.29015507E+03 -.15626748E+03 -.27246865E+03 0.42760836E+03 0.50000000E+00 0.0000E+00 0.9000E+01
       -4  1    3    3    0  502 -.17870268E+03 -.16223631E+03 -.15548737E+03 0.28711320E+03 0.15500000E+01 0.0000E+00 0.9000E+01
       21  1    1    2  501  503 0.49574833E+02 0.74037965E+01 -.72211130E+02 0.87906144E+02 0.75000000E+00 0.0000E+00 0.9000E+01
#aMCatNLO 2  0  0  1  2 0.75971588D+00 0.00000000D+00  -5  6  0 0.00000000D+00 0.00000000D+00 0.00000000D+00 0.00000000D+00 0.00000000D+00
  <mgrwgt>
 0.2856510042D-03    1    2    0
 0.611535292060414D+03 0.000000000000000D+00 0.000000000000000D+00 0.611535292060414D+03
 0.611535292060414D+03 0.000000000000000D+00 0.000000000000000D+00 -.611535292060414D+03
 0.615303145313651D+03 0.443820023155775D+03 0.314764508919021D+03 -.258689102213152D+03
 0.340786746036373D+03 -.276198077713074D+03 -.154220131818287D+03 0.126753221196197D+03
 0.266980692770805D+03 -.167621945442701D+03 -.160544377100735D+03 0.131935881016955D+03
 0.000000000000000D+00 0.000000000000000D+00 0.000000000000000D+00 -.000000000000000D+00
 0.636315320835265D+03 0.000000000000000D+00 0.000000000000000D+00 0.636315320835265D+03
 0.637932686439421D+03 0.000000000000000D+00 0.000000000000000D+00 -.637932686439421D+03
 0.595924843489775D+03 0.419282913836385D+03 0.311099993007613D+03 -.258689102213152D+03
 0.353201540600102D+03 -.290256922631608D+03 -.156319762228266D+03 0.126753221196197D+03
 0.274970889009170D+03 -.178600824176414D+03 -.162184027284684D+03 0.131935881016955D+03
 0.501507341756390D+02 0.495748329716364D+02 0.740379650533745D+01 -.161736560415527D+01
0.768584462923D-04 0.000000000000D+00 0.000000000000D+00 0.236464606432D-03 0.586982226395D-06  6 -2 1 25 3 -4 21 2 0.31654114D-01 0.30352213D+00 0.33518190D+06 0.33518190D+06 0.33518190D+06 0.10810067D+01  1  2  1  1  6  1       -2 0.285651004223D-03 0.100000000000D+01
  </mgrwgt>
  </event>
  <event>
  7     66 0.17058341E-05 0.65954775E+02 0.75467711E-02 0.91597897E-01
       -2 -1    0    0    0  503 0.00000000E+00 0.00000000E+00 0.14027781E+04 0.14027781E+04 0.32000000E+00 0.0000E+00 0.9000E+01
        1 -1    0    0  501    0 0.00000000E+00 0.00000000E+00 -.33942717E+03 0.33942732E+03 0.32000000E+00 0.0000E+00 0.9000E+01
      -24  2    1    2    0    0 0.59873691E+03 0.21228208E+03 0.58380854E+03 0.86678510E+03 0.83273162E+02 0.0000E+00 0.0000E+00
       25  1    1    2    0    0 -.61622873E+03 -.20463644E+03 0.35711598E+03 0.75151230E+03 0.12500000E+03 0.0000E+00 0.9000E+01
        3  1    3    3  502    0 0.33741318E+03 0.91520798E+02 0.27680316E+03 0.44591922E+03 0.50000000E+00 0.0000E+00 0.9000E+01
       -4  1    3    3    0  502 0.26132373E+03 0.12076128E+03 0.30700538E+03 0.42086587E+03 0.15500000E+01 0.0000E+00 0.9000E+01
       21  1    1    2  501  503 0.17491815E+02 -.76456401E+01 0.12242642E+03 0.12390807E+03 0.75000000E+00 0.0000E+00 0.9000E+01
#aMCatNLO 2  0  0  1  2 0.75971588D+00 0.00000000D+00  -5  6  0 0.00000000D+00 0.00000000D+00 0.00000000D+00 0.00000000D+00 0.00000000D+00
  <mgrwgt>
 0.3254836524D-03    1    2    0
 0.658252061234398D+03 0.000000000000000D+00 0.000000000000000D+00 0.658252061234398D+03
 0.658252061234398D+03 0.000000000000000D+00 0.000000000000000D+00 -.658252061234398D+03
 0.661552689368011D+03 -.607393402594047D+03 -.208498341389657D+03 -.981257200383095D+02
 0.354369297010118D+03 0.342202305054638D+03 0.895018447107353D+02 0.215546021098410D+02
 0.300582136090667D+03 0.265191097539409D+03 0.118996496678921D+03 0.765711179284685D+02
 0.000000000000000D+00 0.000000000000000D+00 -.000000000000000D+00 0.000000000000000D+00
 0.721684724063878D+03 0.000000000000000D+00 0.000000000000000D+00 0.721684724063878D+03
 0.659759073322875D+03 0.000000000000000D+00 0.000000000000000D+00 -.659759073322875D+03
 0.668481544755717D+03 -.616228730092716D+03 -.204636436037846D+03 -.981257200383095D+02
 0.350379642251014D+03 0.337520705496552D+03 0.915481632417834D+02 0.215546021098410D+02
 0.297781332391234D+03 0.261216209471388D+03 0.120733912921279D+03 0.765711179284685D+02
 0.648012779887893D+02 0.174918151247755D+02 -.764564012521689D+01 0.619256507410032D+02
0.352898263798D-03 0.000000000000D+00 0.000000000000D+00 0.373530270285D-04 0.631584200724D-06  6 -2 1 25 3 -4 21 2 0.21581132D+00 0.52219408D-01 0.43415877D+06 0.43415877D+06 0.43415877D+06 0.10728714D+01  1  2  1  1  6  1       -2 0.325483652388D-03 0.100000000000D+01
  </mgrwgt>
  </event>
  <event>
  7     66 0.17058341E-05 0.17155036E+02 0.75467711E-02 0.94546674E-01
       -2 -1    0    0    0  501 0.00000000E+00 0.00000000E+00 0.16945667E+03 0.16945697E+03 0.32000000E+00 0.0000E+00 0.9000E+01
        1 -1    0    0  503    0 0.00000000E+00 0.00000000E+00 -.18938970E+04 0.18938970E+04 0.32000000E+00 0.0000E+00 0.9000E+01
      -24  2    1    2    0    0 0.47324346E+03 0.10553581E+03 -.67176344E+03 0.83222035E+03 0.78914025E+02 0.0000E+00 0.0000E+00
       25  1    1    2    0    0 -.46975685E+03 -.75956116E+02 -.59316078E+03 0.77065267E+03 0.12500000E+03 0.0000E+00 0.9000E+01
        3  1    3    3  502    0 0.66276379E+02 0.21298962E+02 -.14839198E+03 0.16391044E+03 0.50000000E+00 0.0000E+00 0.9000E+01
       -4  1    3    3    0  502 0.40696708E+03 0.84236844E+02 -.52337146E+03 0.66830991E+03 0.15500000E+01 0.0000E+00 0.9000E+01
       21  1    1    2  503  501 -.34866081E+01 -.29579689E+02 -.45951612E+03 0.46048099E+03 0.75000000E+00 0.0000E+00 0.9000E+01
#aMCatNLO 2  0  0  2  5 0.95555001D+02 0.00000000D+00  -5  6  0 0.00000000D+00 0.00000000D+00 0.00000000D+00 0.00000000D+00 0.00000000D+00
  <mgrwgt>
 0.5542794554D-03    1    2    0
 0.492006488419062D+03 0.000000000000000D+00 0.000000000000000D+00 0.492006488419062D+03
 0.492006488419062D+03 0.000000000000000D+00 0.000000000000000D+00 -.492006488419062D+03
 0.496781616905737D+03 -.471509277398277D+03 -.908233723495351D+02 0.244354508427983D+02
 0.753793565190619D+02 0.660170934503466D+02 0.190257658691948D+02 -.310130778009315D+02
 0.411852003413324D+03 0.405492183947931D+03 0.717976064803403D+02 0.657762695813320D+01
 0.000000000000000D+00 -.000000000000000D+00 -.000000000000000D+00 -.000000000000000D+00
 0.493636297282224D+03 0.000000000000000D+00 0.000000000000000D+00 0.493636297282224D+03
 0.650139956425904D+03 0.000000000000000D+00 0.000000000000000D+00 -.650139956425904D+03
 0.492608282319316D+03 -.469756848732092D+03 -.759561164159316D+02 0.244354508427983D+02
 0.762197137934886D+02 0.662856089837989D+02 0.213037981994201D+02 -.310130778009315D+02
 0.415635641117829D+03 0.406957847858919D+03 0.842320073194588D+02 0.657762695813320D+01
 0.159312616477494D+03 -.348660811062538D+01 -.295796891029474D+02 -.156503659143680D+03
0.910864080482D-04 0.000000000000D+00 0.000000000000D+00 0.691780833920D-04 0.513493467982D-06  6 -2 1 25 3 -4 21 2 0.26070236D-01 0.29136828D+00 0.25350967D+06 0.25350967D+06 0.25350967D+06 0.10900039D+01  1  2  1  2  6  2        1 0.554279455419D-03 0.100000000000D+01
  </mgrwgt>
  </event>
  <event>
  6     66 -.17058341E-05 0.17732418E+02 0.75467711E-02 0.95064808E-01
       -2 -1    0    0    0  501 0.00000000E+00 0.00000000E+00 0.19707106E+03 0.19707132E+03 0.32000000E+00 0.0000E+00 0.9000E+01
        1 -1    0    0  501    0 -.00000000E+00 -.00000000E+00 -.12476829E+04 0.12476830E+04 0.32000000E+00 0.0000E+00 0.9000E+01
      -24  2    1    2    0    0 0.34125749E+03 -.32763458E+03 -.36805512E+03 0.60492703E+03 0.81676517E+02 0.0000E+00 0.0000E+00
       25  1    1    2    0    0 -.34125749E+03 0.32763458E+03 -.68255674E+03 0.83982724E+03 0.12500000E+03 0.0000E+00 0.9000E+01
        3  1    3    3  502    0 0.16654000E+02 -.14956336E+02 -.45433368E+02 0.50650653E+02 0.50000000E+00 0.0000E+00 0.9000E+01
       -4  1    3    3    0  502 0.32460349E+03 -.31267824E+03 -.32262175E+03 0.55427638E+03 0.15500000E+01 0.0000E+00 0.9000E+01
#aMCatNLO 1  0  0  4  1 0.54787754D+00 0.00000000D+00  -5  6  0 0.00000000D+00 0.00000000D+00 0.00000000D+00 0.00000000D+00 0.00000000D+00
  <mgrwgt>
 -.1064467393D-01    7    2    0
 0.495865314538126D+03 0.000000000000000D+00 0.000000000000000D+00 0.495865314538126D+03
 0.495865314538126D+03 -.000000000000000D+00 -.000000000000000D+00 -.495865314538126D+03
 0.500379618468977D+03 -.341257493951257D+03 0.327634576607308D+03 -.104659780300824D+03
 0.256488585621647D+02 0.166478263716378D+02 -.149499981882247D+02 -.125383961021260D+02
 0.465702152045111D+03 0.324609667579619D+03 -.312684578419084D+03 0.117198176402950D+03
 0.000000000000000D+00 0.000000000000000D+00 0.000000000000000D+00 0.000000000000000D+00
 0.495865314538126D+03 0.000000000000000D+00 0.000000000000000D+00 0.495865314538126D+03
 0.495865314538126D+03 -.000000000000000D+00 -.000000000000000D+00 -.495865314538126D+03
 0.500237508840147D+03 -.341129733911769D+03 0.327519846172461D+03 -.104756003432022D+03
 0.250760877679894D+02 0.158906393277296D+02 -.147203709652622D+02 -.126336233183116D+02
 0.465834245408619D+03 0.324728607305589D+03 -.312791388079881D+03 0.117108596336267D+03
 0.582787059497387D+00 0.510487278449444D+00 -.808712731813112D-02 0.281030414066931D+00
0.223945930091D-04 0.000000000000D+00 0.000000000000D+00 0.419555576116D-04 0.000000000000D+00  6 -2 1 25 3 -4 21 0 0.30318648D-01 0.19195124D+00 0.23155397D+06 0.23155397D+06 0.23155397D+06 0.10929722D+01  1  2  2  3  6  4        3 0.239969626188D-03 0.100000000000D+01
0.729603212894D-05 0.000000000000D+00 -.860011337867D-07 0.419555576116D-04 0.000000000000D+00  6 -2 1 25 3 -4 21 2 0.30318648D-01 0.19195124D+00 0.23155397D+06 0.23155397D+06 0.23155397D+06 0.10929722D+01  1  2  3  3  6  4        3 0.933938061889D-04 0.100000000000D+01
-.616154238033D-05 0.000000000000D+00 0.000000000000D+00 0.419555576116D-04 0.000000000000D+00  6 -2 1 25 3 -4 21 2 0.30318648D-01 0.19195124D+00 0.23155397D+06 0.23155397D+06 0.23155397D+06 0.10929722D+01  1  2 15  3  6  4        3 -.788716229210D-04 0.100000000000D+01
-.146304261205D-02 0.000000000000D+00 0.000000000000D+00 0.419555576116D-04 0.000000000000D+00  6 -2 1 25 3 -4 21 2 0.30318648D-01 0.19195124D+00 0.23155397D+06 0.23155397D+06 0.23155397D+06 0.10929722D+01  1  2  4  3  6  4        3 -.187278668379D-01 0.100000000000D+01
-.514048267153D-03 0.000000000000D+00 0.000000000000D+00 0.419555576116D-04 0.000000000000D+00  6 -2 1 25 3 -4 21 2 0.30318648D-01 0.19195124D+00 0.23155397D+06 0.23155397D+06 0.23155397D+06 0.10929722D+01  1  2  5  3  6  4        3 -.658014155993D-02 0.100000000000D+01
0.552968032568D-03 0.000000000000D+00 -.000000000000D+00 0.419555576116D-04 0.000000000000D+00  6 -2 1 25 3 -4 21 2 0.30318648D-01 0.19195124D+00 0.23155397D+06 0.23155397D+06 0.23155397D+06 0.10929722D+01  1  2  6  3  6  4        3 0.707833906836D-02 0.100000000000D+01
0.572644401191D-03 0.000000000000D+00 0.000000000000D+00 0.419555576116D-04 0.692155540858D-03  6 -2 1 25 3 -4 21 2 0.30318648D-01 0.19195124D+00 0.23145302D+06 0.23145302D+06 0.23145302D+06 0.10929866D+01  1  2 11  3  6  4        3 0.733050359366D-02 0.100000000000D+01
  </mgrwgt>
  </event>
  <event>
  7     66 0.17058341E-05 0.38729268E+02 0.75467711E-02 0.94187823E-01
       -2 -1    0    0    0  501 0.00000000E+00 0.00000000E+00 0.34800000E+03 0.34800015E+03 0.32000000E+00 0.0000E+00 0.9000E+01
        1 -1    0    0  503    0 0.00000000E+00 0.00000000E+00 -.99716546E+03 0.99716551E+03 0.32000000E+00 0.0000E+00 0.9000E+01
      -24  2    1    2    0    0 -.50147486E+03 0.10162337E+03 -.20023528E+02 0.51845695E+03 0.81193101E+02 0.0000E+00 0.0000E+00
       25  1    1    2    0    0 0.48819046E+03 -.10175852E+03 -.57662490E+03 0.77253219E+03 0.12500000E+03 0.0000E+00 0.9000E+01
        3  1    3    3  502    0 -.37948394E+03 0.86639894E+02 -.48571954E+02 0.39226779E+03 0.50000000E+00 0.0000E+00 0.9000E+01
       -4  1    3    3    0  502 -.12199092E+03 0.14983480E+02 0.28548426E+02 0.12618916E+03 0.15500000E+01 0.0000E+00 0.9000E+01
       21  1    1    2  503  501 0.13284406E+02 0.13514278E+00 -.52517030E+02 0.54176513E+02 0.75000000E+00 0.0000E+00 0.9000E+01
#aMCatNLO 2  0  0  2  1 0.36465712D+02 0.00000000D+00  -5  6  0 0.00000000D+00 0.00000000D+00 0.00000000D+00 0.00000000D+00 0.00000000D+00
  <mgrwgt>
 0.1667459913D-02    1    2    0
 0.572382549180006D+03 0.000000000000000D+00 0.000000000000000D+00 0.572382549180006D+03
 0.572382549180006D+03 0.000000000000000D+00 0.000000000000000D+00 -.572382549180006D+03
 0.576327760474779D+03 0.494845192983383D+03 -.101690817792215D+03 -.247620475833206D+03
 0.412808736463640D+03 -.374802061418232D+03 0.867199031602280D+02 0.149713479864813D+03
 0.155628601421594D+03 -.120043131565151D+03 0.149709146319871D+02 0.979069959683925D+02
 0.000000000000000D+00 0.000000000000000D+00 0.000000000000000D+00 -.000000000000000D+00
 0.573785024388745D+03 0.000000000000000D+00 0.000000000000000D+00 0.573785024388745D+03
 0.604771239538492D+03 0.000000000000000D+00 0.000000000000000D+00 -.604771239538492D+03
 0.570636151036039D+03 0.488190455762791D+03 -.101758516692612D+03 -.247620475833206D+03
 0.417175680046187D+03 -.379617669070423D+03 0.866709137964127D+02 0.149713479864813D+03
 0.157030351990094D+03 -.121857193153087D+03 0.149524601129454D+02 0.979069959683925D+02
 0.337140808549172D+02 0.132844064607195D+02 0.135142783253775D+00 -.309862151497472D+02
0.253740122137D-03 0.000000000000D+00 0.000000000000D+00 0.151002962939D-03 0.540546820840D-05  6 -2 1 25 3 -4 21 2 0.53538089D-01 0.15340897D+00 0.27016750D+06 0.27016750D+06 0.27016750D+06 0.10879334D+01  1  2  1  2  6  2        1 0.166745991285D-02 0.100000000000D+01
  </mgrwgt>
  </event>
  <event>
  7     66 0.17058341E-05 0.74195211E+02 0.75467711E-02 0.93588096E-01
       21 -1    0    0  503  501 0.00000000E+00 0.00000000E+00 0.63407417E+03 0.63407462E+03 0.75000000E+00 0.0000E+00 0.9000E+01
        1 -1    0    0  501    0 0.00000000E+00 0.00000000E+00 -.92874131E+03 0.92874137E+03 0.32000000E+00 0.0000E+00 0.9000E+01
      -24  2    1    2    0    0 0.48353044E+03 0.24010572E+03 -.11309100E+03 0.55750086E+03 0.81025867E+02 0.0000E+00 0.0000E+00
       25  1    1    2    0    0 -.47750320E+03 -.23019586E+03 -.46834504E+03 0.71831157E+03 0.12500000E+03 0.0000E+00 0.9000E+01
        3  1    3    3  502    0 0.24594866E+03 0.10526517E+03 -.94334834E+02 0.28367377E+03 0.50000000E+00 0.0000E+00 0.9000E+01
        2  1    1    2  503    0 -.60272381E+01 -.99098662E+01 0.28676890E+03 0.28700355E+03 0.32000000E+00 0.0000E+00 0.9000E+01
       -4  1    3    3    0  502 0.23758178E+03 0.13484055E+03 -.18756162E+02 0.27382708E+03 0.15500000E+01 0.0000E+00 0.9000E+01
#aMCatNLO 2  0  0  1  1 0.21747775D+02 0.00000000D+00  -5  6  0 0.00000000D+00 0.00000000D+00 0.00000000D+00 0.00000000D+00 0.00000000D+00
  <mgrwgt>
 0.1249682454D-02    1    2    0
 0.567779657579362D+03 0.000000000000000D+00 0.000000000000000D+00 0.567779657579362D+03
 0.567779657579362D+03 0.000000000000000D+00 0.000000000000000D+00 -.567779657579362D+03
 0.571768797026558D+03 -.480525775353386D+03 -.235165521084601D+03 -.158387859911146D+03
 0.268271323911754D+03 0.244599906997443D+03 0.102947821106560D+03 0.392700249505806D+02
 0.000000000000000D+00 -.000000000000000D+00 -.000000000000000D+00 0.000000000000000D+00
 0.295519194220412D+03 0.235925868355943D+03 0.132217699978041D+03 0.119117834960565D+03
 0.103699753326985D+04 0.000000000000000D+00 0.000000000000000D+00 0.103699753326985D+04
 0.567880958979275D+03 0.000000000000000D+00 0.000000000000000D+00 -.567880958979275D+03
 0.567195866866698D+03 -.477503197804376D+03 -.230195858585744D+03 -.158387859911146D+03
 0.270481998435571D+03 0.246029647311787D+03 0.105298571983283D+03 0.392700249505806D+02
 0.469259942166512D+03 -.602723810747649D+01 -.990986623460509D+01 0.469116574290577D+03
 0.297940684780346D+03 0.237500788600065D+03 0.134807152837066D+03 0.119117834960565D+03
0.684309183697D-04 0.000000000000D+00 0.000000000000D+00 0.254499924564D-03 0.930406590672D-06  6 21 1 25 3 2 -4 2 0.97549902D-01 0.14288330D+00 0.30081932D+06 0.30081932D+06 0.30081932D+06 0.10844642D+01  1  2  1  5  5  1       -2 0.124968245393D-02 0.100000000000D+01
  </mgrwgt>
  </event>
  <event>
  6     66 0.17058341E-05 0.72767124E+02 0.75467711E-02 0.92637896E-01
       -2 -1    0    0    0  501 0.00000000E+00 0.00000000E+00 0.41271679E+03 0.41271691E+03 0.32000000E+00 0.0000E+00 0.9000E+01
        1 -1    0    0  501    0 -.00000000E+00 -.00000000E+00 -.13969984E+04 0.13969985E+04 0.32000000E+00 0.0000E+00 0.9000E+01
       25  1    1    2    0    0 -.48771688E+03 -.32897523E+03 0.75383738E+01 0.60147676E+03 0.12500000E+03 0.0000E+00 0.9000E+01
        3  1    1    2  502    0 0.13565717E+03 0.93963971E+02 -.42487136E+03 0.45579383E+03 0.50000000E+00 0.0000E+00 0.9000E+01
       -4  1    1    2    0  503 0.28745887E+03 0.15370892E+03 -.56049983E+03 0.64839918E+03 0.15500000E+01 0.0000E+00 0.9000E+01
       21  1    1    2  503  502 0.64600844E+02 0.81302335E+02 -.64488304E+01 0.10404561E+03 0.75000000E+00 0.0000E+00 0.9000E+01
#aMCatNLO 2  0  0  5  4 0.72056049D+00 0.00000000D+00  -5  6  0 0.00000000D+00 0.00000000D+00 0.00000000D+00 0.00000000D+00 0.00000000D+00
  <mgrwgt>
 0.1289525806D-01    1    2    0
 0.759318672882507D+03 0.000000000000000D+00 0.000000000000000D+00 0.759318672882507D+03
 0.759318672882507D+03 -.000000000000000D+00 -.000000000000000D+00 -.759318672882507D+03
 0.753486228262622D+03 -.512651213102754D+03 -.345619704679082D+03 0.412131349964123D+03
 0.257566574292624D+03 0.126796255938523D+03 0.880495174279227D+02 -.206180823922886D+03
 0.507584543209769D+03 0.385854957164231D+03 0.257570187251160D+03 -.205950526041236D+03
 0.000000000000000D+00 0.000000000000000D+00 0.000000000000000D+00 0.000000000000000D+00
 0.759318672882507D+03 0.000000000000000D+00 0.000000000000000D+00 0.759318672882507D+03
 0.759318672882507D+03 -.000000000000000D+00 -.000000000000000D+00 -.759318672882507D+03
 0.721577969858824D+03 -.487661348189014D+03 -.328938192453560D+03 0.398792980897910D+03
 0.267844096463183D+03 0.135697523899028D+03 0.939913906960793D+02 -.210931885908387D+03
 0.409054446884932D+03 0.287118001125909D+03 0.153389040600989D+03 -.247710710647133D+03
 0.120160832558076D+03 0.648458231640767D+02 0.815577611564925D+02 0.598496156576107D+02
0.555237950419D-02 0.000000000000D+00 0.000000000000D+00 0.106102459347D-07 0.171963630653D-08  6 -2 1 25 3 -4 21 2 0.63494903D-01 0.21492285D+00 0.35769510D+06 0.35769510D+06 0.35769510D+06 0.10789449D+01  1  2  1  4  6  5       -4 0.128952580607D-01 0.100000000000D+01
  </mgrwgt>
  </event>
  <event>
  7     66 0.17058341E-05 0.21839923E+02 0.75467711E-02 0.93266611E-01
       -2 -1    0    0    0  503 0.00000000E+00 0.00000000E+00 0.23816611E+03 0.23816632E+03 0.32000000E+00 0.0000E+00 0.9000E+01
        1 -1    0    0  501    0 0.00000000E+00 0.00000000E+00 -.25432359E+04 0.25432359E+04 0.32000000E+00 0.0000E+00 0.9000E+01
      -24  2    1    2    0    0 -.43247459E+03 -.29276044E+03 -.56767848E+03 0.77574710E+03 0.82351434E+02 0.0000E+00 0.0000E+00
       25  1    1    2    0    0 0.45912540E+03 0.31561619E+03 -.18244851E+04 0.19117481E+04 0.12500000E+03 0.0000E+00 0.9000E+01
        3  1    3    3  502    0 -.45871138E+02 -.19787571E+02 -.92301996E+02 0.10495531E+03 0.50000000E+00 0.0000E+00 0.9000E+01
       -4  1    3    3    0  502 -.38660345E+03 -.27297286E+03 -.47537648E+03 0.67079179E+03 0.15500000E+01 0.0000E+00 0.9000E+01
       21  1    1    2  501  503 -.26650803E+02 -.22855757E+02 0.87093795E+02 0.93907096E+02 0.75000000E+00 0.0000E+00 0.9000E+01
#aMCatNLO 2  0  0  1  1 0.21747775D+02 0.00000000D+00  -5  6  0 0.00000000D+00 0.00000000D+00 0.00000000D+00 0.00000000D+00 0.00000000D+00
  <mgrwgt>
 0.2762135195D-03    1    2    0
 0.612158254300380D+03 0.000000000000000D+00 0.000000000000000D+00 0.612158254300380D+03
 0.612158254300380D+03 0.000000000000000D+00 0.000000000000000D+00 -.612158254300380D+03
 0.615769755702657D+03 0.445554089659899D+03 0.303977426127624D+03 -.269493357302685D+03
 0.514060914179052D+02 -.469767968328175D+02 -.207310171870830D+02 0.244779913046130D+01
 0.557140661480198D+03 -.398577292827082D+03 -.283246408940541D+03 0.267045558172224D+03
 0.000000000000000D+00 -.000000000000000D+00 -.000000000000000D+00 0.000000000000000D+00
 0.987739108205389D+03 0.000000000000000D+00 0.000000000000000D+00 0.987739108205389D+03
 0.613230950930481D+03 0.000000000000000D+00 0.000000000000000D+00 -.613230950930481D+03
 0.631396372945282D+03 0.459125395665626D+03 0.315616192856241D+03 -.269493357302685D+03
 0.500176271368103D+02 -.458731328628563D+02 -.197845137711451D+02 0.244779913046130D+01
 0.543405808769680D+03 -.386601460114662D+03 -.272975921836207D+03 0.267045558172224D+03
 0.376150250284096D+03 -.266508026881069D+02 -.228557572488890D+02 0.374508157274909D+03
0.235281472006D-03 0.000000000000D+00 0.000000000000D+00 0.270605378284D-04 0.152341052557D-06  6 -2 1 25 3 -4 21 2 0.36640936D-01 0.39126684D+00 0.31884256D+06 0.31884256D+06 0.31884256D+06 0.10826000D+01  1  2  1  1  6  1       -2 0.276213519524D-03 0.100000000000D+01
  </mgrwgt>
  </event>
  <event>
  7     66 0.17058341E-05 0.70874567E+02 0.75467711E-02 0.93051097E-01
       -2 -1    0    0    0  501 0.00000000E+00 0.00000000E+00 0.65587221E+03 0.65587229E+03 0.32000000E+00 0.0000E+00 0.9000E+01
        1 -1    0    0  503    0 0.00000000E+00 0.00000000E+00 -.53273439E+03 0.53273449E+03 0.32000000E+00 0.0000E+00 0.9000E+01
      -24  2    1    2    0    0 -.87684397E+02 -.46921587E+03 0.11797282E+03 0.49831882E+03 0.80944289E+02 0.0000E+00 0.0000E+00
       25  1    1    2    0    0 0.17355742E+03 0.52794158E+03 0.59845790E+02 0.57275738E+03 0.12500000E+03 0.0000E+00 0.9000E+01
        3  1    3    3  502    0 -.39816056E+02 -.28225036E+03 0.31334254E+02 0.28676239E+03 0.50000000E+00 0.0000E+00 0.9000E+01
       -4  1    3    3    0  502 -.47868341E+02 -.18696551E+03 0.86638570E+02 0.21155643E+03 0.15500000E+01 0.0000E+00 0.9000E+01
       21  1    1    2  503  501 -.85873022E+02 -.58725716E+02 -.54680794E+02 0.11753058E+03 0.75000000E+00 0.0000E+00 0.9000E+01
#aMCatNLO 2  0  0  2  1 0.25957915D+01 0.00000000D+00  -5  6  0 0.00000000D+00 0.00000000D+00 0.00000000D+00 0.00000000D+00 0.00000000D+00
  <mgrwgt>
 0.1139239210D-03    1    2    0
 0.525538266290841D+03 0.000000000000000D+00 0.000000000000000D+00 0.525538266290841D+03
 0.525538266290841D+03 0.000000000000000D+00 0.000000000000000D+00 -.525538266290841D+03
 0.529854327961158D+03 0.128707587782471D+03 0.497270268992800D+03 -.357385685529906D+02
 0.306044658902648D+03 -.639394379462711D+02 -.298835202014636D+03 -.165107103064930D+02
 0.215177545717877D+03 -.647681498362000D+02 -.198435066978164D+03 0.522492788594837D+02
 0.000000000000000D+00 -.000000000000000D+00 -.000000000000000D+00 -.000000000000000D+00
 0.554681753857772D+03 0.000000000000000D+00 0.000000000000000D+00 0.554681753857772D+03
 0.629918765838025D+03 0.000000000000000D+00 0.000000000000000D+00 -.629918765838025D+03
 0.570742269825601D+03 0.173557418964331D+03 0.527941583516493D+03 -.357385685529906D+02
 0.285619732767376D+03 -.398288345371008D+02 -.282346758668660D+03 -.165107103064930D+02
 0.199850458498284D+03 -.478555626427897D+02 -.186869108588821D+03 0.522492788594837D+02
 0.128388058604536D+03 -.858730217844408D+02 -.587257162590120D+02 -.752370119802529D+02
0.268747447208D-04 0.000000000000D+00 0.000000000000D+00 0.289347018365D-03 0.168963962461D-06  6 -2 1 25 3 -4 21 2 0.10090324D+00 0.81958993D-01 0.33160147D+06 0.33160147D+06 0.33160147D+06 0.10813485D+01  1  2  1  2  6  2        1 0.113923921025D-03 0.100000000000D+01
  </mgrwgt>
  </event>
  <event>
  7     66 0.17058341E-05 0.56475299E+02 0.75467711E-02 0.95020679E-01
       21 -1    0    0  503  501 0.00000000E+00 0.00000000E+00 0.26267292E+03 0.26267399E+03 0.75000000E+00 0.0000E+00 0.9000E+01
        1 -1    0    0  501    0 0.00000000E+00 0.00000000E+00 -.12172056E+04 0.12172057E+04 0.32000000E+00 0.0000E+00 0.9000E+01
      -24  2    1    2    0    0 -.16843083E+03 0.43549339E+03 -.32898038E+03 0.57891273E+03 0.94278392E+02 0.0000E+00 0.0000E+00
       25  1    1    2    0    0 0.15318577E+03 -.43118729E+03 -.68848119E+03 0.83607398E+03 0.12500000E+03 0.0000E+00 0.9000E+01
        3  1    3    3  502    0 -.91202305E+02 0.11900760E+03 -.89907569E+02 0.17482646E+03 0.50000000E+00 0.0000E+00 0.9000E+01
        2  1    1    2  503    0 0.15245063E+02 -.43061044E+01 0.62928846E+02 0.64892963E+02 0.32000000E+00 0.0000E+00 0.9000E+01
       -4  1    3    3    0  502 -.77228528E+02 0.31648579E+03 -.23907281E+03 0.40408627E+03 0.15500000E+01 0.0000E+00 0.9000E+01
#aMCatNLO 2  0  0  1  1 0.21747775D+02 0.00000000D+00  -5  6  0 0.00000000D+00 0.00000000D+00 0.00000000D+00 0.00000000D+00 0.00000000D+00
  <mgrwgt>
 0.2169692447D-03    1    2    0
 0.491606651920842D+03 0.000000000000000D+00 0.000000000000000D+00 0.491606651920842D+03
 0.491606651920842D+03 0.000000000000000D+00 0.000000000000000D+00 -.491606651920842D+03
 0.495032471413675D+03 0.160827382232979D+03 -.433345747932763D+03 -.125611160438125D+03
 0.156659016877379D+03 -.887809726980133D+02 0.118340668358920D+03 0.515312785417329D+02
 0.000000000000000D+00 0.000000000000000D+00 -.000000000000000D+00 0.000000000000000D+00
 0.331521815550630D+03 -.720464095349658D+02 0.315005079573843D+03 0.740798818963918D+02
 0.649763909839083D+03 0.000000000000000D+00 0.000000000000000D+00 0.649763909839083D+03
 0.492067302689971D+03 0.000000000000000D+00 0.000000000000000D+00 -.492067302689971D+03
 0.490705146079804D+03 0.153185776625164D+03 -.431187308025566D+03 -.125611160438125D+03
 0.158574216981281D+03 -.912247143234462D+02 0.119030925055997D+03 0.515312785417329D+02
 0.158490297422756D+03 0.152450626626148D+02 -.430610441410945D+01 0.157696607149112D+03
 0.334061552045214D+03 -.772061249643329D+02 0.316462487383679D+03 0.740798818963918D+02
0.249353646921D-05 0.000000000000D+00 0.000000000000D+00 0.953599461194D-06 0.920391623078D-09  6 21 1 25 3 2 -4 2 0.40411291D-01 0.18726243D+00 0.23324515D+06 0.23324515D+06 0.23324515D+06 0.10927328D+01  1  2  1  5  5  1       -2 0.216969244693D-03 0.100000000000D+01
  </mgrwgt>
  </event>
  <event>
  7     66 0.17058341E-05 0.24872106E+02 0.75467711E-02 0.94871204E-01
       -2 -1    0    0    0  501 0.00000000E+00 0.00000000E+00 0.24112977E+03 0.24112999E+03 0.32000000E+00 0.0000E+00 0.9000E+01
        1 -1    0    0  503    0 0.00000000E+00 0.00000000E+00 -.14457885E+04 0.14457886E+04 0.32000000E+00 0.0000E+00 0.9000E+01
      -24  2    1    2    0    0 0.32855733E+03 -.28268868E+03 -.22119212E+03 0.49362383E+03 0.82919985E+02 0.0000E+00 0.0000E+00
       25  1    1    2    0    0 -.35834485E+03 0.31513609E+03 -.48130139E+03 0.68920085E+03 0.12500000E+03 0.0000E+00 0.9000E+01
        3  1    3    3  502    0 0.29566160E+03 -.21358897E+03 -.18198493E+03 0.40762089E+03 0.50000000E+00 0.0000E+00 0.9000E+01
       -4  1    3    3    0  502 0.32895734E+02 -.69099709E+02 -.39207197E+02 0.86002941E+02 0.15500000E+01 0.0000E+00 0.9000E+01
       21  1    1    2  503  501 0.29787526E+02 -.32447407E+02 -.50216524E+03 0.50409386E+03 0.75000000E+00 0.0000E+00 0.9000E+01
#aMCatNLO 2  0  0  2  1 0.13211796D+02 0.00000000D+00  -5  6  0 0.00000000D+00 0.00000000D+00 0.00000000D+00 0.00000000D+00 0.00000000D+00
  <mgrwgt>
 0.1238536284D-02    1    2    0
 0.475299109802682D+03 0.000000000000000D+00 0.000000000000000D+00 0.475299109802682D+03
 0.475299109802682D+03 0.000000000000000D+00 0.000000000000000D+00 -.475299109802682D+03
 0.479901094713562D+03 -.342979090704272D+03 0.298398237817810D+03 -.894644941536656D+02
 0.389401945689549D+03 0.307693742269739D+03 -.226656408204546D+03 0.747349241965511D+02
 0.812951792022541D+02 0.352853484345328D+02 -.717418296132646D+02 0.147295699571145D+02
 0.000000000000000D+00 0.000000000000000D+00 -.000000000000000D+00 -.000000000000000D+00
 0.477718993114075D+03 0.000000000000000D+00 0.000000000000000D+00 0.477718993114075D+03
 0.729763892240536D+03 0.000000000000000D+00 0.000000000000000D+00 -.729763892240536D+03
 0.501348866821737D+03 -.358344855157767D+03 0.315136090175701D+03 -.894644941536656D+02
 0.372441378872784D+03 0.295763749368260D+03 -.213661125059345D+03 0.747349241965511D+02
 0.778279056843331D+02 0.327935798359840D+02 -.690275582186482D+02 0.147295699571145D+02
 0.255864733975757D+03 0.297875259535225D+02 -.324474068977081D+02 -.252044899126461D+03
0.191285959706D-03 0.000000000000D+00 0.000000000000D+00 0.219664426446D-04 0.791364418623D-07  6 -2 1 25 3 -4 21 2 0.37096865D-01 0.22242877D+00 0.23943225D+06 0.23943225D+06 0.23943225D+06 0.10918730D+01  1  2  1  2  6  2        1 0.123853628386D-02 0.100000000000D+01
  </mgrwgt>
  </event>
  <event>
  6     66 0.17058341E-05 0.13248570E+02 0.75467711E-02 0.94896579E-01
       -2 -1    0    0    0  501 0.00000000E+00 0.00000000E+00 0.14523581E+04 0.14523582E+04 0.32000000E+00 0.0000E+00 0.9000E+01
        1 -1    0    0  501    0 0.00000000E+00 0.00000000E+00 -.17065130E+03 0.17065160E+03 0.32000000E+00 0.0000E+00 0.9000E+01
       25  1    1    2    0    0 0.39896743E+03 -.26558373E+03 0.72275764E+03 0.87619252E+03 0.12500000E+03 0.0000E+00 0.9000E+01
        3  1    1    2  502    0 -.36001307E+03 0.24303970E+03 0.48262436E+03 0.64931058E+03 0.50000000E+00 0.0000E+00 0.9000E+01
       -4  1    1    2    0  503 -.25374577E+02 0.11908403E+02 0.75126093E+02 0.80199823E+02 0.15500000E+01 0.0000E+00 0.9000E+01
       21  1    1    2  503  502 -.13579783E+02 0.10635625E+02 0.11987273E+01 0.17306833E+02 0.75000000E+00 0.0000E+00 0.9000E+01
#aMCatNLO 2  0  0  5  4 0.75985011D+01 0.00000000D+00  -5  6  0 0.00000000D+00 0.00000000D+00 0.00000000D+00 0.00000000D+00 0.00000000D+00
  <mgrwgt>
 0.7710455328D-02    1    2    0
 0.497842419758791D+03 0.000000000000000D+00 0.000000000000000D+00 0.497842419758791D+03
 0.497842419758791D+03 -.000000000000000D+00 -.000000000000000D+00 -.497842419758791D+03
 0.505503009168747D+03 0.405835956919652D+03 -.269558970681900D+03 0.504324268173091D+02
 0.436432042937178D+03 -.359121744790723D+03 0.242985074932067D+03 -.496261411057065D+02
 0.537497874116568D+02 -.467142121289292D+02 0.265738957498326D+02 -.806285711602631D+00
 0.000000000000000D+00 0.000000000000000D+00 0.000000000000000D+00 -.000000000000000D+00
 0.497842419758791D+03 0.000000000000000D+00 0.000000000000000D+00 0.497842419758791D+03
 0.497842419758791D+03 -.000000000000000D+00 -.000000000000000D+00 -.497842419758791D+03
 0.498605636486383D+03 0.399606955768608D+03 -.266015534548233D+03 0.503249144694228D+02
 0.442658049325355D+03 -.364575191706322D+03 0.246087328469222D+03 -.497202674138822D+02
 0.295834661573994D+02 -.216115323929962D+02 0.978974574321169D+01 0.176715595179300D+02
 0.248376875484444D+02 -.134202316692899D+02 0.101384603357990D+02 -.182762065734706D+02
0.355067007457D-02 0.000000000000D+00 0.000000000000D+00 0.888011323897D-07 0.860943536265D-07  6 -2 1 25 3 -4 21 2 0.22343974D+00 0.26254072D-01 0.23836908D+06 0.23836908D+06 0.23836908D+06 0.10920190D+01  1  2  1  4  6  5       -4 0.771045532804D-02 0.100000000000D+01
  </mgrwgt>
  </event>
  <event>
  7     66 0.17058341E-05 0.56488366E+02 0.75467711E-02 0.93758961E-01
       21 -1    0    0  503  501 0.00000000E+00 0.00000000E+00 0.69536611E+03 0.69536651E+03 0.75000000E+00 0.0000E+00 0.9000E+01
        1 -1    0    0  501    0 0.00000000E+00 0.00000000E+00 -.59799275E+03 0.59799283E+03 0.32000000E+00 0.0000E+00 0.9000E+01
      -24  2    1    2    0    0 -.50418818E+02 0.52942186E+03 0.23881259E+02 0.53741113E+03 0.73558428E+02 0.0000E+00 0.0000E+00
       25  1    1    2    0    0 0.52961983E+02 -.50863730E+03 -.13735278E+03 0.54406586E+03 0.12500000E+03 0.0000E+00 0.9000E+01
        3  1    3    3  502    0 -.39027645E+02 0.23868209E+03 -.21992265E+02 0.24285018E+03 0.50000000E+00 0.0000E+00 0.9000E+01
        2  1    1    2  503    0 -.25431650E+01 -.20784561E+02 0.21084489E+03 0.21188236E+03 0.32000000E+00 0.0000E+00 0.9000E+01
       -4  1    3    3    0  502 -.11391173E+02 0.29073977E+03 0.45873524E+02 0.29456095E+03 0.15500000E+01 0.0000E+00 0.9000E+01
#aMCatNLO 2  0  0  1  2 0.72526090D+03 0.00000000D+00  -5  6  0 0.00000000D+00 0.00000000D+00 0.00000000D+00 0.00000000D+00 0.00000000D+00
  <mgrwgt>
 0.2212366614D-03    1    2    0
 0.537651890821427D+03 0.000000000000000D+00 0.000000000000000D+00 0.537651890821427D+03
 0.537651890821427D+03 0.000000000000000D+00 0.000000000000000D+00 -.537651890821427D+03
 0.542401319826239D+03 0.516908855969187D+02 -.519025615044577D+03 -.807134129067189D+02
 0.237494234443156D+03 -.396113865472967D+02 0.234141325473890D+03 0.350558909044787D+01
 0.000000000000000D+00 -.000000000000000D+00 -.000000000000000D+00 0.000000000000000D+00
 0.295408227373459D+03 -.120794990496220D+02 0.284884289570687D+03 0.772078238162710D+02
 0.772590347179228D+03 0.000000000000000D+00 0.000000000000000D+00 0.772590347179228D+03
 0.538220598649918D+03 0.000000000000000D+00 0.000000000000000D+00 -.538220598649918D+03
 0.532594149963675D+03 0.529619830147061D+02 -.508637298974062D+03 -.807134129067189D+02
 0.241971296792011D+03 -.390444563454512D+02 0.238774684053868D+03 0.350558909044787D+01
 0.235303303607054D+03 -.254316499357584D+01 -.207845609652201D+02 0.234369748529310D+03
 0.300942195466406D+03 -.113743616756791D+02 0.290647175885414D+03 0.772078238162710D+02
0.771332806979D-05 0.000000000000D+00 0.000000000000D+00 0.838049867886D-05 0.567608176073D-08  6 21 1 25 3 2 -4 2 0.10697942D+00 0.91998903D-01 0.29170682D+06 0.29170682D+06 0.29170682D+06 0.10854538D+01  1  2  1  5  5  1       -2 0.221236661429D-03 0.100000000000D+01
  </mgrwgt>
  </event>
  <event>
  7     66 0.17058341E-05 0.17641994E+03 0.75467711E-02 0.91095909E-01
       21 -1    0    0  503  501 0.00000000E+00 0.00000000E+00 0.60357600E+03 0.60357646E+03 0.75000000E+00 0.0000E+00 0.9000E+01
        1 -1    0    0  501    0 0.00000000E+00 0.00000000E+00 -.18472452E+04 0.18472452E+04 0.32000000E+00 0.0000E+00 0.9000E+01
      -24  2    1    2    0    0 0.95215583E+01 0.21435801E+03 -.32710677E+03 0.39951674E+03 0.81084942E+02 0.0000E+00 0.0000E+00
       25  1    1    2    0    0 -.57131250E+03 -.13283773E+03 -.12546236E+04 0.13905931E+04 0.12500000E+03 0.0000E+00 0.9000E+01
        3  1    3    3  502    0 0.29653860E+01 0.11133196E+03 -.23943108E+03 0.26406645E+03 0.50000000E+00 0.0000E+00 0.9000E+01
        2  1    1    2  503    0 0.56179094E+03 -.81520275E+02 0.33806120E+03 0.66071181E+03 0.32000000E+00 0.0000E+00 0.9000E+01
       -4  1    3    3    0  502 0.65561723E+01 0.10302605E+03 -.87675686E+02 0.13545028E+03 0.15500000E+01 0.0000E+00 0.9000E+01
#aMCatNLO 2  0  0  1  2 0.72526090D+03 0.00000000D+00  -5  6  0 0.00000000D+00 0.00000000D+00 0.00000000D+00 0.00000000D+00 0.00000000D+00
  <mgrwgt>
 0.1515016751D-01    1    2    0
 0.308369786799767D+03 0.000000000000000D+00 0.000000000000000D+00 0.308369786799767D+03
 0.308369786799767D+03 0.000000000000000D+00 0.000000000000000D+00 -.308369786799767D+03
 0.315706946165163D+03 -.216863401640970D+03 -.184271079167990D+03 -.553200711126166D+02
 0.140432922677886D+03 0.100500840256804D+03 0.972156970407001D+02 -.130420523086026D+02
 0.000000000000000D+00 0.000000000000000D+00 -.000000000000000D+00 0.000000000000000D+00
 0.160599704756486D+03 0.116362561384167D+03 0.870553821272897D+02 0.683621234212192D+02
 0.242794110611584D+04 0.000000000000000D+00 0.000000000000000D+00 0.242794110611584D+04
 0.459217648310480D+03 0.000000000000000D+00 0.000000000000000D+00 -.459217648310480D+03
 0.602269996636947D+03 -.571312502352573D+03 -.132837732729842D+03 -.553200711126166D+02
 0.112169019332190D+03 0.296622145671371D+01 0.111368735737614D+03 -.130420523086026D+02
 0.204893305690092D+04 0.561790942529176D+03 -.815202750265324D+02 0.196872345780536D+04
 0.123786681556272D+03 0.655533836668303D+01 0.102989272018760D+03 0.683621234212192D+02
0.344161047572D-02 0.000000000000D+00 0.000000000000D+00 0.310490311572D-03 0.601412258029D-08  6 21 1 25 3 2 -4 2 0.92857881D-01 0.28419160D+00 0.47748420D+06 0.47748420D+06 0.47748420D+06 0.10699275D+01  1  2  1  5  5  1       -2 0.151501675066D-01 0.100000000000D+01
  </mgrwgt>
  </event>
  <event>
  7     66 0.17058341E-05 0.81994384E+02 0.75467711E-02 0.93518078E-01
       21 -1    0    0  503  501 0.00000000E+00 0.00000000E+00 0.26737516E+03 0.26737622E+03 0.75000000E+00 0.0000E+00 0.9000E+01
        1 -1    0    0  501    0 0.00000000E+00 0.00000000E+00 -.28449045E+04 0.28449045E+04 0.32000000E+00 0.0000E+00 0.9000E+01
      -24  2    1    2    0    0 0.20790472E+03 -.39404195E+03 -.12405323E+04 0.13206580E+04 0.81998192E+02 0.0000E+00 0.0000E+00
       25  1    1    2    0    0 -.31120101E+03 0.43175276E+03 -.14991366E+04 0.15957105E+04 0.12500000E+03 0.0000E+00 0.9000E+01
        3  1    3    3  502    0 0.49982315E+02 -.13363528E+03 -.49962611E+03 0.51959900E+03 0.50000000E+00 0.0000E+00 0.9000E+01
        2  1    1    2  503    0 0.10329629E+03 -.37710810E+02 0.16213961E+03 0.19591218E+03 0.32000000E+00 0.0000E+00 0.9000E+01
       -4  1    3    3    0  502 0.15792241E+03 -.26040668E+03 -.74090623E+03 0.80105903E+03 0.15500000E+01 0.0000E+00 0.9000E+01
#aMCatNLO 2  0  0  1  2 0.72526090D+03 0.00000000D+00  -5  6  0 0.00000000D+00 0.00000000D+00 0.00000000D+00 0.00000000D+00 0.00000000D+00
  <mgrwgt>
 0.7053915399D-03    1    2    0
 0.496821740369166D+03 0.000000000000000D+00 0.000000000000000D+00 0.496821740369166D+03
 0.496821740369166D+03 0.000000000000000D+00 0.000000000000000D+00 -.496821740369166D+03
 0.501300860508790D+03 -.256893189649877D+03 0.411926379065592D+03 -.316367311763341D+00
 0.157781116064891D+03 0.657682537825721D+02 -.139432017690404D+03 -.335876439164243D+02
 0.000000000000000D+00 0.000000000000000D+00 -.000000000000000D+00 0.000000000000000D+00
 0.334561504164651D+03 0.191124935867305D+03 -.272494361375188D+03 0.339040112281876D+02
 0.151272595119272D+04 0.000000000000000D+00 0.000000000000000D+00 0.151272595119272D+04
 0.502839519296926D+03 0.000000000000000D+00 0.000000000000000D+00 -.502839519296926D+03
 0.546700664286459D+03 -.311201009223963D+03 0.431752762702182D+03 -.316367311763341D+00
 0.146615574892529D+03 0.499943067220523D+02 -.133673356629478D+03 -.335876439164243D+02
 0.101585571500904D+04 0.103296288544187D+03 -.377108096214232D+02 0.100988643189579D+04
 0.306393516301620D+03 0.157910413957723D+03 -.260368596451282D+03 0.339040112281876D+02
0.112266343212D-03 0.000000000000D+00 0.000000000000D+00 0.978504515538D-04 0.111302917322D-07  6 21 1 25 3 2 -4 2 0.41134721D-01 0.43767767D+00 0.30464530D+06 0.30464530D+06 0.30464530D+06 0.10840585D+01  1  2  1  5  5  1       -2 0.705391539914D-03 0.100000000000D+01
  </mgrwgt>
  </event>
  <event>
  7     66 0.17058341E-05 0.41627316E+02 0.75467711E-02 0.92834016E-01
       -2 -1    0    0    0  501 0.00000000E+00 0.00000000E+00 0.87362334E+03 0.87362340E+03 0.32000000E+00 0.0000E+00 0.9000E+01
        1 -1    0    0  503    0 0.00000000E+00 0.00000000E+00 -.52517608E+03 0.52517618E+03 0.32000000E+00 0.0000E+00 0.9000E+01
      -24  2    1    2    0    0 -.47867387E+02 0.53493211E+03 0.31090916E+03 0.62579284E+03 0.80675412E+02 0.0000E+00 0.0000E+00
       25  1    1    2    0    0 -.21720100E+02 -.55156561E+03 0.19615545E+03 0.59899778E+03 0.12500000E+03 0.0000E+00 0.9000E+01
        3  1    3    3  502    0 -.37870857E+02 0.34345180E+03 0.15521081E+03 0.37879281E+03 0.50000000E+00 0.0000E+00 0.9000E+01
       -4  1    3    3    0  502 -.99965303E+01 0.19148030E+03 0.15569835E+03 0.24700003E+03 0.15500000E+01 0.0000E+00 0.9000E+01
       21  1    1    2  503  501 0.69587487E+02 0.16633498E+02 -.15861735E+03 0.17400896E+03 0.75000000E+00 0.0000E+00 0.9000E+01
#aMCatNLO 2  0  0  2  1 0.32770275D+02 0.00000000D+00  -5  6  0 0.00000000D+00 0.00000000D+00 0.00000000D+00 0.00000000D+00 0.00000000D+00
  <mgrwgt>
 0.5835604537D-03    1    2    0
 0.556299931541158D+03 0.000000000000000D+00 0.000000000000000D+00 0.556299931541158D+03
 0.556299931541158D+03 0.000000000000000D+00 0.000000000000000D+00 -.556299931541158D+03
 0.560396857263062D+03 0.135570640640399D+02 -.543133307112080D+03 -.569390406467799D+02
 0.349139129945395D+03 -.161788480696500D+02 0.348759572054969D+03 -.177139329379254D+01
 0.203063875873859D+03 0.262178400561007D+01 0.194373735057110D+03 0.587104339405724D+02
 0.000000000000000D+00 0.000000000000000D+00 0.000000000000000D+00 -.000000000000000D+00
 0.562402715744266D+03 0.000000000000000D+00 0.000000000000000D+00 0.562402715744266D+03
 0.815795009850633D+03 0.000000000000000D+00 0.000000000000000D+00 -.815795009850633D+03
 0.568826368157166D+03 -.217200995453936D+02 -.551565608098288D+03 -.569390406467799D+02
 0.345658204358699D+03 -.378844583386227D+02 0.343571279682496D+03 -.177139329379254D+01
 0.200413425928716D+03 -.998292909979510D+01 0.191360830280346D+03 0.587104339405724D+02
 0.263299727150317D+03 0.695874869838114D+02 0.166334981354456D+02 -.253392294106367D+03
0.280493456816D-03 0.000000000000D+00 0.000000000000D+00 0.326851856610D-03 0.426589315880D-06  6 -2 1 25 3 -4 21 2 0.13440348D+00 0.80796256D-01 0.34503404D+06 0.34503404D+06 0.34503404D+06 0.10800864D+01  1  2  1  2  6  2        1 0.583560453652D-03 0.100000000000D+01
  </mgrwgt>
  </event>
  <event>
  6     66 0.17058341E-05 0.34893601E+02 0.75467711E-02 0.93018744E-01
       -2 -1    0    0    0  501 0.00000000E+00 0.00000000E+00 0.10804229E+04 0.10804229E+04 0.32000000E+00 0.0000E+00 0.9000E+01
        1 -1    0    0  501    0 0.00000000E+00 0.00000000E+00 -.46665289E+03 0.46665300E+03 0.32000000E+00 0.0000E+00 0.9000E+01
       25  1    1    2    0    0 -.43889514E+03 0.35379291E+03 -.13816430E+03 0.59372783E+03 0.12500000E+03 0.0000E+00 0.9000E+01
        3  1    1    2  503    0 0.43052240E+02 -.78875144E+02 0.14941194E+03 0.17435298E+03 0.50000000E+00 0.0000E+00 0.9000E+01
       -4  1    1    2    0  502 0.37025247E+03 -.27657334E+03 0.59256532E+03 0.75147573E+03 0.15500000E+01 0.0000E+00 0.9000E+01
       21  1    1    2  502  503 0.25590426E+02 0.16555752E+01 0.99570117E+01 0.27519365E+02 0.75000000E+00 0.0000E+00 0.9000E+01
#aMCatNLO 2  0  0  4  5 0.78291693D+01 0.00000000D+00  -5  6  0 0.00000000D+00 0.00000000D+00 0.00000000D+00 0.00000000D+00 0.00000000D+00
  <mgrwgt>
 0.3252465999D-03    1    2    0
 0.710058145134841D+03 0.000000000000000D+00 0.000000000000000D+00 0.710058145134841D+03
 0.710058145134841D+03 -.000000000000000D+00 -.000000000000000D+00 -.710058145134841D+03
 0.714544384737590D+03 -.443095096271124D+03 0.358517647982914D+03 -.412408183121168D+03
 0.149216807116761D+03 0.760132952813814D+02 -.855871689238638D+02 0.957207970202095D+02
 0.556355098415332D+03 0.367081800989743D+03 -.272930479059050D+03 0.316687386100959D+03
 0.000000000000000D+00 0.000000000000000D+00 0.000000000000000D+00 0.000000000000000D+00
 0.710058145134841D+03 0.000000000000000D+00 0.000000000000000D+00 0.710058145134841D+03
 0.710058145134841D+03 -.000000000000000D+00 -.000000000000000D+00 -.710058145134841D+03
 0.706481228625843D+03 -.438876317674732D+03 0.353767514272157D+03 -.407095627624085D+03
 0.125043594167442D+03 0.427180063457053D+02 -.787290468054465D+02 0.872514158353087D+02
 0.562765284530965D+03 0.370404275316708D+03 -.276671418988237D+03 0.320871258007565D+03
 0.258261829454328D+02 0.257540360123181D+02 0.163295152152677D+01 -.102704621878813D+01
0.237479324972D-03 0.000000000000D+00 0.000000000000D+00 0.227441287349D-06 0.221626500048D-08  6 -2 1 25 3 -4 21 2 0.16621891D+00 0.71792764D-01 0.33356573D+06 0.33356573D+06 0.33356573D+06 0.10811605D+01  1  2  1  3  6  4        3 0.325246599943D-03 0.100000000000D+01
  </mgrwgt>
  </event>
  <event>
  7     66 0.17058341E-05 0.62179412E+02 0.75467711E-02 0.93636571E-01
       -2 -1    0    0    0  501 0.00000000E+00 0.00000000E+00 0.12772968E+03 0.12773008E+03 0.32000000E+00 0.0000E+00 0.9000E+01
        1 -1    0    0  503    0 0.00000000E+00 0.00000000E+00 -.25647143E+04 0.25647144E+04 0.32000000E+00 0.0000E+00 0.9000E+01
      -24  2    1    2    0    0 0.51253061E+03 -.11196367E+03 -.86656778E+03 0.10162388E+04 0.81105613E+02 0.0000E+00 0.0000E+00
       25  1    1    2    0    0 -.52351299E+03 0.10440703E+03 -.13741683E+04 0.14795034E+04 0.12500000E+03 0.0000E+00 0.9000E+01
        3  1    3    3  502    0 0.30800668E+03 -.27335466E+02 -.52139768E+03 0.60619397E+03 0.50000000E+00 0.0000E+00 0.9000E+01
       -4  1    3    3    0  502 0.20452394E+03 -.84628207E+02 -.34517010E+03 0.41004484E+03 0.15500000E+01 0.0000E+00 0.9000E+01
       21  1    1    2  503  501 0.10982372E+02 0.75566423E+01 -.19624856E+03 0.19670225E+03 0.75000000E+00 0.0000E+00 0.9000E+01
#aMCatNLO 2  0  0  2  2 0.42965537D+02 0.00000000D+00  -5  6  0 0.00000000D+00 0.00000000D+00 0.00000000D+00 0.00000000D+00 0.00000000D+00
  <mgrwgt>
 0.8891200964D-03    1    2    0
 0.549466358497292D+03 0.000000000000000D+00 0.000000000000000D+00 0.549466358497292D+03
 0.549466358497292D+03 0.000000000000000D+00 0.000000000000000D+00 -.549466358497292D+03
 0.553582570295057D+03 -.517958517994986D+03 0.108228893285397D+03 -.104087186671262D+03
 0.316564284276004D+03 0.311260399641499D+03 -.251755288963628D+02 0.519240063841491D+02
 0.228785862423524D+03 0.206698118353487D+03 -.830533643890341D+02 0.521631802871131D+02
 0.000000000000000D+00 0.000000000000000D+00 0.000000000000000D+00 -.000000000000000D+00
 0.550481417201411D+03 0.000000000000000D+00 0.000000000000000D+00 0.550481417201411D+03
 0.595092068531563D+03 0.000000000000000D+00 0.000000000000000D+00 -.595092068531563D+03
 0.558055388364232D+03 -.523512985667986D+03 0.104407029888825D+03 -.104087186671262D+03
 0.313650057477403D+03 0.308111438092406D+03 -.273422353370524D+02 0.519240063841491D+02
 0.227308126331040D+03 0.204419175558620D+03 -.846214368963097D+02 0.521631802871131D+02
 0.465599135602994D+02 0.109823720169609D+02 0.755664234453739D+01 -.446106513301517D+02
0.261336023221D-03 0.000000000000D+00 0.000000000000D+00 0.198341322760D-03 0.702899697075D-05  6 -2 1 25 3 -4 21 2 0.19650645D-01 0.39456931D+00 0.29820204D+06 0.29820204D+06 0.29820204D+06 0.10847451D+01  1  2  1  2  6  2        1 0.889120096388D-03 0.100000000000D+01
  </mgrwgt>
  </event>
  <event>
  7     66 0.17058341E-05 0.31767628E+02 0.75467711E-02 0.95178260E-01
       21 -1    0    0  503  501 0.00000000E+00 0.00000000E+00 0.58459891E+03 0.58459939E+03 0.75000000E+00 0.0000E+00 0.9000E+01
        1 -1    0    0  501    0 0.00000000E+00 0.00000000E+00 -.96524699E+03 0.96524704E+03 0.32000000E+00 0.0000E+00 0.9000E+01
      -24  2    1    2    0    0 -.17611622E+03 -.37429487E+03 -.30622979E+03 0.52086616E+03 0.80070536E+02 0.0000E+00 0.0000E+00
       25  1    1    2    0    0 0.20848025E+03 0.41852770E+03 -.44313101E+03 0.65621608E+03 0.12500000E+03 0.0000E+00 0.9000E+01
        3  1    3    3  502    0 -.11960498E+03 -.23806938E+03 -.14888931E+03 0.30520592E+03 0.50000000E+00 0.0000E+00 0.9000E+01
        2  1    1    2  503    0 -.32364028E+02 -.44232822E+02 0.36871272E+03 0.37276420E+03 0.32000000E+00 0.0000E+00 0.9000E+01
       -4  1    3    3    0  502 -.56511245E+02 -.13622550E+03 -.15734048E+03 0.21566023E+03 0.15500000E+01 0.0000E+00 0.9000E+01
#aMCatNLO 2  0  0  1  2 0.34423724D+02 0.00000000D+00  -5  6  0 0.00000000D+00 0.00000000D+00 0.00000000D+00 0.00000000D+00 0.00000000D+00
  <mgrwgt>
 0.1798712733D-02    1    2    0
 0.453038905594351D+03 0.000000000000000D+00 0.000000000000000D+00 0.453038905594351D+03
 0.453038905594351D+03 0.000000000000000D+00 0.000000000000000D+00 -.453038905594351D+03
 0.458123297535862D+03 0.191649954945530D+03 0.395525262074635D+03 -.328940355581307D+02
 0.289351173806357D+03 -.129680851977913D+03 -.251866023836327D+03 0.589108177695594D+02
 0.000000000000000D+00 -.000000000000000D+00 -.000000000000000D+00 0.000000000000000D+00
 0.158603339846483D+03 -.619691029676167D+02 -.143659238238308D+03 -.260167822114287D+02
 0.124066847467674D+04 0.000000000000000D+00 0.000000000000000D+00 0.124066847467674D+04
 0.454821477274825D+03 0.000000000000000D+00 0.000000000000000D+00 -.454821477274825D+03
 0.485114899147462D+03 0.208480250030590D+03 0.418527696988784D+03 -.328940355581307D+02
 0.272952442738312D+03 -.119647611353095D+03 -.238153313317350D+03 0.589108177695594D+02
 0.787755975047535D+03 -.323640282271254D+02 -.442328223653642D+02 0.785846997401912D+03
 0.149666635018253D+03 -.564686104503702D+02 -.136141561306069D+03 -.260167822114287D+02
0.823334578381D-04 0.000000000000D+00 0.000000000000D+00 0.157052241065D-03 0.574959117720D-07  6 21 1 25 3 2 -4 2 0.89938328D-01 0.14849957D+00 0.22691611D+06 0.22691611D+06 0.22691611D+06 0.10936386D+01  1  2  1  5  5  1       -2 0.179871273319D-02 0.100000000000D+01
  </mgrwgt>
  </event>
  <event>
  7     66 0.17058341E-05 0.53217554E+02 0.75467711E-02 0.94501938E-01
       -2 -1    0    0    0  503 0.00000000E+00 0.00000000E+00 0.24975064E+03 0.24975085E+03 0.32000000E+00 0.0000E+00 0.9000E+01
        1 -1    0    0  501    0 0.00000000E+00 0.00000000E+00 -.11660266E+04 0.11660266E+04 0.32000000E+00 0.0000E+00 0.9000E+01
      -24  2    1    2    0    0 -.11609397E+03 -.46607824E+03 -.34168486E+03 0.59509269E+03 0.81731454E+02 0.0000E+00 0.0000E+00
       25  1    1    2    0    0 0.77090162E+02 0.46730562E+03 -.59966073E+03 0.77429673E+03 0.12500000E+03 0.0000E+00 0.9000E+01
        3  1    3    3  502    0 -.71435467E+02 -.20123525E+03 -.19439904E+03 0.28877308E+03 0.50000000E+00 0.0000E+00 0.9000E+01
       -4  1    3    3    0  502 -.44658501E+02 -.26484300E+03 -.14728582E+03 0.30631962E+03 0.15500000E+01 0.0000E+00 0.9000E+01
       21  1    1    2  501  503 0.39003806E+02 -.12273770E+01 0.25069638E+02 0.46388065E+02 0.75000000E+00 0.0000E+00 0.9000E+01
#aMCatNLO 2  0  0  1  2 0.20615525D+02 0.00000000D+00  -5  6  0 0.00000000D+00 0.00000000D+00 0.00000000D+00 0.00000000D+00 0.00000000D+00
  <mgrwgt>
 0.9792796048D-03    1    2    0
 0.496883556142729D+03 0.000000000000000D+00 0.000000000000000D+00 0.496883556142729D+03
 0.496883556142729D+03 0.000000000000000D+00 0.000000000000000D+00 -.496883556142729D+03
 0.501384092405373D+03 0.967055556819497D+02 0.466688362276709D+03 -.927955609546546D+02
 0.211288853033190D+03 -.631230235523340D+02 -.201560070287458D+03 0.565697617169949D+01
 0.281094166846895D+03 -.335825321296157D+02 -.265128291989250D+03 0.871385847829551D+02
 0.000000000000000D+00 0.000000000000000D+00 -.000000000000000D+00 0.000000000000000D+00
 0.580278400851496D+03 0.000000000000000D+00 0.000000000000000D+00 0.580278400851496D+03
 0.501852596537093D+03 0.000000000000000D+00 0.000000000000000D+00 -.501852596537093D+03
 0.498551355155247D+03 0.770901624434755D+02 0.467305622102583D+03 -.927955609546546D+02
 0.213680228532677D+03 -.714594973411606D+02 -.201297737011916D+03 0.565697617169949D+01
 0.282301410645160D+03 -.446344713605768D+02 -.264780508082889D+03 0.871385847829551D+02
 0.875980030555055D+02 0.390038062582619D+02 -.122737700777841D+01 0.784258043144034D+02
0.103960770944D-03 0.000000000000D+00 0.000000000000D+00 0.134787320173D-03 0.567953628212D-06  6 -2 1 25 3 -4 21 2 0.38423073D-01 0.17938816D+00 0.25552209D+06 0.25552209D+06 0.25552209D+06 0.10897460D+01  1  2  1  1  6  1       -2 0.979279604824D-03 0.100000000000D+01
  </mgrwgt>
  </event>
  <event>
  7     66 0.17058341E-05 0.71537737E+02 0.75467711E-02 0.94595394E-01
       -2 -1    0    0    0  501 0.00000000E+00 0.00000000E+00 0.19053726E+03 0.19053753E+03 0.32000000E+00 0.0000E+00 0.9000E+01
        1 -1    0    0  503    0 0.00000000E+00 0.00000000E+00 -.16117147E+04 0.16117148E+04 0.32000000E+00 0.0000E+00 0.9000E+01
      -24  2    1    2    0    0 0.44957377E+03 0.19331825E+03 -.10737344E+04 0.11831936E+04 0.86907994E+02 0.0000E+00 0.0000E+00
       25  1    1    2    0    0 -.43885092E+03 -.19160626E+03 -.31950917E+03 0.58907911E+03 0.12500000E+03 0.0000E+00 0.9000E+01
        3  1    3    3  502    0 0.21244329E+03 0.44828193E+02 -.45627141E+03 0.50529750E+03 0.50000000E+00 0.0000E+00 0.9000E+01
       -4  1    3    3    0  502 0.23713048E+03 0.14849006E+03 -.61746304E+03 0.67789613E+03 0.15500000E+01 0.0000E+00 0.9000E+01
       21  1    1    2  503  501 -.10722849E+02 -.17119924E+01 -.27933848E+02 0.29979539E+02 0.75000000E+00 0.0000E+00 0.9000E+01
#aMCatNLO 2  0  0  2  1 0.81275768D+02 0.00000000D+00  -5  6  0 0.00000000D+00 0.00000000D+00 0.00000000D+00 0.00000000D+00 0.00000000D+00
  <mgrwgt>
 0.3153687913D-02    1    2    0
 0.547655231916719D+03 0.000000000000000D+00 0.000000000000000D+00 0.547655231916719D+03
 0.547655231916719D+03 0.000000000000000D+00 0.000000000000000D+00 -.547655231916719D+03
 0.551340034563049D+03 -.444225662624449D+03 -.192464380334306D+03 0.232318438098194D+03
 0.235133104349197D+03 0.210190721822234D+03 0.444683726352309D+02 -.955510390101149D+02
 0.308837324921193D+03 0.234034940802215D+03 0.147996007699075D+03 -.136767399088079D+03
 0.000000000000000D+00 -.000000000000000D+00 -.000000000000000D+00 -.000000000000000D+00
 0.550627271928592D+03 0.000000000000000D+00 0.000000000000000D+00 0.550627271928592D+03
 0.557691080773502D+03 0.000000000000000D+00 0.000000000000000D+00 -.557691080773502D+03
 0.546717430119633D+03 -.438850923961053D+03 -.191606258391426D+03 0.232318438098194D+03
 0.237271884814152D+03 0.212503035559632D+03 0.448375528468006D+02 -.955510390101149D+02
 0.311374972684639D+03 0.237070737308930D+03 0.148480697980721D+03 -.136767399088079D+03
 0.129540650836697D+02 -.107228489075094D+02 -.171199243609501D+01 -.706380884490993D+01
0.413206300716D-03 0.000000000000D+00 0.000000000000D+00 0.499397932457D-05 0.268580984596D-06  6 -2 1 25 3 -4 21 2 0.29312872D-01 0.24795126D+00 0.25133824D+06 0.25133824D+06 0.25133824D+06 0.10902847D+01  1  2  1  2  6  2        1 0.315368791282D-02 0.100000000000D+01
  </mgrwgt>
  </event>
  <event>
  7     66 0.17058341E-05 0.45022859E+02 0.75467711E-02 0.92550373E-01
       21 -1    0    0  503  501 0.00000000E+00 0.00000000E+00 0.72847604E+03 0.72847643E+03 0.75000000E+00 0.0000E+00 0.9000E+01
        1 -1    0    0  501    0 0.00000000E+00 0.00000000E+00 -.70497421E+03 0.70497428E+03 0.32000000E+00 0.0000E+00 0.9000E+01
      -24  2    1    2    0    0 -.34612444E+03 -.46714399E+03 0.21348167E+03 0.62472409E+03 0.81732083E+02 0.0000E+00 0.0000E+00
       25  1    1    2    0    0 0.36095742E+03 0.46832079E+03 -.31589801E+03 0.68193194E+03 0.12500000E+03 0.0000E+00 0.9000E+01
        3  1    3    3  502    0 -.12758846E+03 -.11285005E+03 0.50289636E+02 0.17760418E+03 0.50000000E+00 0.0000E+00 0.9000E+01
        2  1    1    2  503    0 -.14832983E+02 -.11767927E+01 0.12591817E+03 0.12679468E+03 0.32000000E+00 0.0000E+00 0.9000E+01
       -4  1    3    3    0  502 -.21853598E+03 -.35429394E+03 0.16319204E+03 0.44711991E+03 0.15500000E+01 0.0000E+00 0.9000E+01
#aMCatNLO 2  0  0  1  5 0.52133420D+02 0.00000000D+00  -5  6  0 0.00000000D+00 0.00000000D+00 0.00000000D+00 0.00000000D+00 0.00000000D+00
  <mgrwgt>
 0.2440728516D-03    1    2    0
 0.651275572131870D+03 0.000000000000000D+00 0.000000000000000D+00 0.651275572131870D+03
 0.651275572131870D+03 0.000000000000000D+00 0.000000000000000D+00 -.651275572131870D+03
 0.654709167333360D+03 0.353476502093206D+03 0.467727278943269D+03 -.263257761121336D+03
 0.183721623832543D+03 -.129709341273329D+03 -.113042656270650D+03 0.644242168239658D+02
 0.000000000000000D+00 -.000000000000000D+00 -.000000000000000D+00 0.000000000000000D+00
 0.464120353097838D+03 -.223767160819877D+03 -.354684622672620D+03 0.198833544297370D+03
 0.787998637327053D+03 0.000000000000000D+00 0.000000000000000D+00 0.787998637327053D+03
 0.651723027546006D+03 0.000000000000000D+00 0.000000000000000D+00 -.651723027546006D+03
 0.659199716072747D+03 0.360957418247761D+03 0.468320786525309D+03 -.263257761121336D+03
 0.182154398950455D+03 -.127626177148351D+03 -.112877385911076D+03 0.644242168239658D+02
 0.137085535466355D+03 -.148329825662788D+02 -.117679271301364D+01 0.136275609781047D+03
 0.461282014383502D+03 -.218498258533131D+03 -.354266607901220D+03 0.198833544297370D+03
0.126841678180D-04 0.000000000000D+00 0.000000000000D+00 0.814474267211D-04 0.643859234183D-07  6 21 1 25 3 2 -4 2 0.11207324D+00 0.10845758D+00 0.36351254D+06 0.36351254D+06 0.36351254D+06 0.10784351D+01  1  2  1  5  5  1       -2 0.244072851608D-03 0.100000000000D+01
  </mgrwgt>
  </event>
  <event>
  7     66 0.17058341E-05 0.10585001E+03 0.75467711E-02 0.92817349E-01
       -2 -1    0    0    0  503 0.00000000E+00 0.00000000E+00 0.15509452E+03 0.15509485E+03 0.32000000E+00 0.0000E+00 0.9000E+01
        1 -1    0    0  501    0 0.00000000E+00 0.00000000E+00 -.41331879E+04 0.41331879E+04 0.32000000E+00 0.0000E+00 0.9000E+01
      -24  2    1    2    0    0 0.13675296E+03 -.50953230E+03 -.16683233E+04 0.17515567E+04 0.79520748E+02 0.0000E+00 0.0000E+00
       25  1    1    2    0    0 -.79185817E+01 0.50369010E+03 -.23460286E+04 0.24027571E+04 0.12500000E+03 0.0000E+00 0.9000E+01
        3  1    3    3  502    0 0.48410746E+02 -.12511087E+03 -.53462160E+03 0.55119582E+03 0.50000000E+00 0.0000E+00 0.9000E+01
       -4  1    3    3    0  502 0.88342214E+02 -.38442143E+03 -.11337017E+04 0.12003609E+04 0.15500000E+01 0.0000E+00 0.9000E+01
       21  1    1    2  501  503 -.12883438E+03 0.58422035E+01 0.36258603E+02 0.13396894E+03 0.75000000E+00 0.0000E+00 0.9000E+01
#aMCatNLO 2  0  0  1  5 0.52133420D+02 0.00000000D+00  -5  6  0 0.00000000D+00 0.00000000D+00 0.00000000D+00 0.00000000D+00 0.00000000D+00
  <mgrwgt>
 0.3932742536D-03    1    2    0
 0.530723338403740D+03 0.000000000000000D+00 0.000000000000000D+00 0.530723338403740D+03
 0.530723338403740D+03 0.000000000000000D+00 0.000000000000000D+00 -.530723338403740D+03
 0.535104835328648D+03 -.721693223443342D+02 0.506603649399923D+03 -.941090650210678D+02
 0.128832208420620D+03 0.325084945380005D+02 -.124421421972234D+03 -.776179514120549D+01
 0.397509633058212D+03 0.396608278063337D+02 -.382182227427688D+03 0.101870860162273D+03
 0.000000000000000D+00 -.000000000000000D+00 0.000000000000000D+00 0.000000000000000D+00
 0.118486127475046D+04 0.000000000000000D+00 0.000000000000000D+00 0.118486127475046D+04
 0.541021159520651D+03 0.000000000000000D+00 0.000000000000000D+00 -.541021159520651D+03
 0.527492115918229D+03 -.791858173337309D+01 0.503690095495318D+03 -.941090650210678D+02
 0.134410239502723D+03 0.484256512919987D+02 -.125143211227421D+03 -.776179514120549D+01
 0.407350409820505D+03 0.883273083401300D+02 -.384389087816134D+03 0.101870860162273D+03
 0.656629669029649D+03 -.128834377898756D+03 0.584220354823655D+01 0.643840115229805D+03
0.302917376065D-02 0.000000000000D+00 0.000000000000D+00 0.161106886649D-03 0.817757626560D-07  6 -2 1 25 3 -4 21 2 0.23860712D-01 0.63587484D+00 0.34609028D+06 0.34609028D+06 0.34609028D+06 0.10799894D+01  1  2  1  1  6  1       -2 0.393274253626D-03 0.100000000000D+01
  </mgrwgt>
  </event>
  <event>
  6     66 0.17058341E-05 0.33384381E+02 0.75467711E-02 0.94468151E-01
       -2 -1    0    0    0  501 0.00000000E+00 0.00000000E+00 0.76242279E+02 0.76242951E+02 0.32000000E+00 0.0000E+00 0.9000E+01
        1 -1    0    0  501    0 -.00000000E+00 -.00000000E+00 -.37503012E+04 0.37503012E+04 0.32000000E+00 0.0000E+00 0.9000E+01
       25  1    1    2    0    0 -.27536577E+03 0.39718768E+03 -.18255056E+04 0.18925327E+04 0.12500000E+03 0.0000E+00 0.9000E+01
        3  1    1    2  503    0 0.99740944E+02 -.15776533E+03 -.87773401E+03 0.89736024E+03 0.50000000E+00 0.0000E+00 0.9000E+01
       -4  1    1    2    0  502 0.11864431E+03 -.24380956E+03 -.92339861E+03 0.96238608E+03 0.15500000E+01 0.0000E+00 0.9000E+01
       21  1    1    2  502  503 0.56980520E+02 0.43872066E+01 -.47420747E+02 0.74265180E+02 0.75000000E+00 0.0000E+00 0.9000E+01
#aMCatNLO 2  0  0  4  5 0.18606924D+02 0.00000000D+00  -5  6  0 0.00000000D+00 0.00000000D+00 0.00000000D+00 0.00000000D+00 0.00000000D+00
  <mgrwgt>
 0.7240501556D-02    1    2    0
 0.534726870114395D+03 0.000000000000000D+00 0.000000000000000D+00 0.534726870114395D+03
 0.534726870114395D+03 -.000000000000000D+00 -.000000000000000D+00 -.534726870114395D+03
 0.537082388914324D+03 -.302883914093041D+03 0.424118794463097D+03 -.348866055781571D+02
 0.279482940125760D+03 0.198173274519168D+03 -.193927146944802D+03 0.350760426151413D+02
 0.252888411188705D+03 0.104710639573874D+03 -.230191647518295D+03 -.189437036984270D+00
 0.000000000000000D+00 0.000000000000000D+00 0.000000000000000D+00 0.000000000000000D+00
 0.534726870114395D+03 0.000000000000000D+00 0.000000000000000D+00 0.534726870114395D+03
 0.534726870114395D+03 -.000000000000000D+00 -.000000000000000D+00 -.534726870114395D+03
 0.500037919687902D+03 -.275310151966214D+03 0.397135837085193D+03 -.300061369187626D+02
 0.195086858463687D+03 0.993872986717487D+02 -.157548142623472D+03 -.579623150319011D+02
 0.271169132773182D+03 0.118643678911855D+03 -.243826152845214D+03 0.227666684490026D+01
 0.103159829304019D+03 0.572791743826096D+02 0.423845838349283D+01 0.856917851057634D+02
0.744134905150D-02 0.000000000000D+00 0.000000000000D+00 0.403637732286D-06 0.284213992997D-07  6 -2 1 25 3 -4 21 2 0.11729634D-01 0.57696947D+00 0.25705382D+06 0.25705382D+06 0.25705382D+06 0.10895512D+01  1  2  1  3  6  4        3 0.724050155607D-02 0.100000000000D+01
  </mgrwgt>
  </event>
  <event>
  6     66 0.17058341E-05 0.11930489E+02 0.75467711E-02 0.89798770E-01
       -2 -1    0    0    0  501 0.00000000E+00 0.00000000E+00 0.18139853E+03 0.18139881E+03 0.32000000E+00 0.0000E+00 0.9000E+01
        1 -1    0    0  501    0 0.00000000E+00 0.00000000E+00 -.29275361E+04 0.29275361E+04 0.32000000E+00 0.0000E+00 0.9000E+01
      -24  2    1    2    0    0 0.29297186E+03 0.60163510E+03 -.19400132E+04 0.20538241E+04 0.82128108E+02 0.0000E+00 0.0000E+00
       25  1    1    2    0    0 -.29297186E+03 -.60163510E+03 -.80612438E+03 0.10551108E+04 0.12500000E+03 0.0000E+00 0.9000E+01
        3  1    3    3  502    0 0.17931100E+01 0.14284505E+02 -.88802982E+02 0.89963781E+02 0.50000000E+00 0.0000E+00 0.9000E+01
       -4  1    3    3    0  502 0.29117875E+03 0.58735060E+03 -.18512102E+04 0.19638603E+04 0.15500000E+01 0.0000E+00 0.9000E+01
#aMCatNLO 1  0  0  1  5 0.20342553D+03 0.00000000D+00  -5  6  0 0.00000000D+00 0.00000000D+00 0.00000000D+00 0.00000000D+00 0.00000000D+00
  <mgrwgt>
 0.4821991225D-04    7    4    0
 0.728732604685947D+03 0.000000000000000D+00 0.000000000000000D+00 0.728732604685947D+03
 0.728732604685947D+03 0.000000000000000D+00 0.000000000000000D+00 -.728732604685947D+03
 0.731778980668811D+03 -.292971858668102D+03 -.601635102300823D+03 0.268473779458480D+03
 0.245640176378692D+02 0.178294863679920D+01 0.142678096131170D+02 -.199158646690504D+02
 0.701122211065213D+03 0.291188910031303D+03 0.587367292687706D+03 -.248557914789430D+03
 0.000000000000000D+00 0.000000000000000D+00 0.000000000000000D+00 0.000000000000000D+00
 0.977905534548111D+03 0.000000000000000D+00 0.000000000000000D+00 0.977905534548111D+03
 0.778527355899187D+03 0.000000000000000D+00 0.000000000000000D+00 -.778527355899187D+03
 0.828064768645336D+03 -.309358302113860D+03 -.708721053538106D+03 0.268473779458480D+03
 0.227959749846786D+02 0.128542326540086D+01 0.110164648147638D+02 -.199158646690504D+02
 0.620732536468681D+03 0.277302584510882D+03 0.496619694987984D+03 -.248557914789430D+03
 0.284839610348602D+03 0.307702943375777D+02 0.201084893735359D+03 0.199378178648923D+03
 0.728732604685947D+03 0.000000000000000D+00 0.000000000000000D+00 0.728732604685947D+03
 0.728732604685947D+03 0.000000000000000D+00 0.000000000000000D+00 -.728732604685947D+03
 0.731778980668811D+03 -.292971858668102D+03 -.601635102300823D+03 0.268473779458480D+03
 0.245640176378692D+02 0.178294863679920D+01 0.142678096131170D+02 -.199158646690504D+02
 0.000000000000000D+00 0.000000000000000D+00 0.000000000000000D+00 0.000000000000000D+00
 0.701122211065213D+03 0.291188910031303D+03 0.587367292687706D+03 -.248557914789430D+03
 0.977905534548111D+03 0.000000000000000D+00 0.000000000000000D+00 0.977905534548111D+03
 0.778527355899187D+03 0.000000000000000D+00 0.000000000000000D+00 -.778527355899187D+03
 0.828064768645336D+03 -.309358302113860D+03 -.708721053538106D+03 0.268473779458480D+03
 0.227959749846786D+02 0.128542326540086D+01 0.110164648147638D+02 -.199158646690504D+02
 0.284839610348602D+03 0.307702943375777D+02 0.201084893735359D+03 0.199378178648923D+03
 0.620732536468681D+03 0.277302584510882D+03 0.496619694987984D+03 -.248557914789430D+03
0.286381602437D-04 0.000000000000D+00 0.000000000000D+00 0.114843242981D-04 0.000000000000D+00  6 -2 1 25 3 -4 21 0 0.27907489D-01 0.45039019D+00 0.45610760D+06 0.45610760D+06 0.45610760D+06 0.10713420D+01  1  2  2  1  6  1       -2 0.242960329847D-04 0.100000000000D+01
0.125607245743D-04 0.000000000000D+00 -.109978075937D-06 0.114843242981D-04 0.000000000000D+00  6 -2 1 25 3 -4 21 2 0.27907489D-01 0.45039019D+00 0.45610760D+06 0.45610760D+06 0.45610760D+06 0.10713420D+01  1  2  3  1  6  1       -2 0.122309782130D-04 0.100000000000D+01
-.758891234858D-05 0.000000000000D+00 0.000000000000D+00 0.114843242981D-04 0.000000000000D+00  6 -2 1 25 3 -4 21 2 0.27907489D-01 0.45039019D+00 0.45610760D+06 0.45610760D+06 0.45610760D+06 0.10713420D+01  1  2 15  1  6  1       -2 -.738968688045D-05 0.100000000000D+01
-.171680894451D-05 0.000000000000D+00 0.000000000000D+00 0.114843242981D-04 0.000000000000D+00  6 -2 1 25 3 -4 21 2 0.27907489D-01 0.45039019D+00 0.45610760D+06 0.45610760D+06 0.45610760D+06 0.10713420D+01  1  2  4  1  6  1       -2 -.167173897269D-05 0.100000000000D+01
-.637779597590D-04 0.000000000000D+00 -.167605710824D-04 0.114843242981D-04 0.000000000000D+00  6 -2 1 25 3 -4 21 2 0.40523178D-01 0.45039019D+00 0.45610760D+06 0.45610760D+06 0.45610760D+06 0.10713420D+01  1  2  5  1  6  1       -2 -.314297857950D-04 0.100000000000D+01
0.664549349646D-04 0.000000000000D+00 0.156587175680D-04 0.114843242981D-04 0.000000000000D+00  6 -2 1 25 3 -4 21 2 0.27907489D-01 0.45039019D+00 0.45610760D+06 0.45610760D+06 0.45610760D+06 0.10713420D+01  1  2  6  1  6  1       -2 0.647103482676D-04 0.100000000000D+01
-.236553433525D-05 0.000000000000D+00 -.758116402788D-06 0.114843242981D-04 0.000000000000D+00  6 21 1 25 3 2 -4 2 0.40523178D-01 0.45039019D+00 0.45610760D+06 0.45610760D+06 0.45610760D+06 0.10713420D+01  3  4  5  5  5  1       -2 -.125262355662D-04 0.100000000000D+01
  </mgrwgt>
  </event>
  <event>
  7     66 0.17058341E-05 0.41637727E+02 0.75467711E-02 0.92183242E-01
       -2 -1    0    0    0  501 0.00000000E+00 0.00000000E+00 0.57016970E+03 0.57016979E+03 0.32000000E+00 0.0000E+00 0.9000E+01
        1 -1    0    0  503    0 0.00000000E+00 0.00000000E+00 -.10414336E+04 0.10414337E+04 0.32000000E+00 0.0000E+00 0.9000E+01
      -24  2    1    2    0    0 -.44440611E+02 -.60305865E+03 0.16714827E+03 0.63253629E+03 0.80677871E+02 0.0000E+00 0.0000E+00
       25  1    1    2    0    0 0.42084635E+02 0.61328974E+03 -.40779371E+03 0.74820862E+03 0.12500000E+03 0.0000E+00 0.9000E+01
        3  1    3    3  502    0 -.67203034E+02 -.45145033E+03 0.11630593E+03 0.47101058E+03 0.50000000E+00 0.0000E+00 0.9000E+01
       -4  1    3    3    0  502 0.22762423E+02 -.15160832E+03 0.50842342E+02 0.16152571E+03 0.15500000E+01 0.0000E+00 0.9000E+01
       21  1    1    2  503  501 0.23559756E+01 -.10231099E+02 -.23061849E+03 0.23085857E+03 0.75000000E+00 0.0000E+00 0.9000E+01
#aMCatNLO 2  0  0  2  1 0.73904715D+00 0.00000000D+00  -5  6  0 0.00000000D+00 0.00000000D+00 0.00000000D+00 0.00000000D+00 0.00000000D+00
  <mgrwgt>
 0.2022724997D-02    1    2    0
 0.679786005619280D+03 0.000000000000000D+00 0.000000000000000D+00 0.679786005619280D+03
 0.679786005619280D+03 0.000000000000000D+00 0.000000000000000D+00 -.679786005619280D+03
 0.683138561119119D+03 0.432723329474923D+02 0.608132029523485D+03 -.281702384719812D+03
 0.502391547553055D+03 -.663610102206779D+02 -.455379361392778D+03 0.201551781417954D+03
 0.174041902566385D+03 0.230886772731856D+02 -.152752668130707D+03 0.801506033018577D+02
 0.000000000000000D+00 0.000000000000000D+00 -.000000000000000D+00 -.000000000000000D+00
 0.679948696282125D+03 0.000000000000000D+00 0.000000000000000D+00 0.679948696282125D+03
 0.873290520139365D+03 0.000000000000000D+00 0.000000000000000D+00 -.873290520139365D+03
 0.687660279925653D+03 0.420846354993827D+02 0.613289744317874D+03 -.281702384719812D+03
 0.499094685639565D+03 -.672287251675138D+02 -.451611207957969D+03 0.201551781417954D+03
 0.172857582092198D+03 0.227881141122440D+02 -.151447437523110D+03 0.801506033018577D+02
 0.193626668764074D+03 0.235597555588713D+01 -.102310988367939D+02 -.193341823857241D+03
0.100208966737D-02 0.000000000000D+00 0.000000000000D+00 0.181383444692D-03 0.105030379263D-04  6 -2 1 25 3 -4 21 2 0.87718333D-01 0.16022040D+00 0.38909586D+06 0.38909586D+06 0.38909586D+06 0.10762940D+01  1  2  1  2  6  2        1 0.202272499695D-02 0.100000000000D+01
  </mgrwgt>
  </event>
  <event>
  7     66 0.17058341E-05 0.35033388E+02 0.75467711E-02 0.93991854E-01
       -2 -1    0    0    0  503 0.00000000E+00 0.00000000E+00 0.41256219E+03 0.41256232E+03 0.32000000E+00 0.0000E+00 0.9000E+01
        1 -1    0    0  501    0 0.00000000E+00 0.00000000E+00 -.10170956E+04 0.10170957E+04 0.32000000E+00 0.0000E+00 0.9000E+01
      -24  2    1    2    0    0 0.51084506E+03 0.49556667E+02 -.28332222E+03 0.59173942E+03 0.80408421E+02 0.0000E+00 0.0000E+00
       25  1    1    2    0    0 -.46124107E+03 -.49212532E+01 -.47281949E+03 0.67227287E+03 0.12500000E+03 0.0000E+00 0.9000E+01
        3  1    3    3  502    0 0.29539130E+03 0.27222049E+02 -.20841881E+03 0.36254063E+03 0.50000000E+00 0.0000E+00 0.9000E+01
       -4  1    3    3    0  502 0.21545376E+03 0.22334618E+02 -.74903410E+02 0.22919878E+03 0.15500000E+01 0.0000E+00 0.9000E+01
       21  1    1    2  501  503 -.49603992E+02 -.44635414E+02 0.15160826E+03 0.16564572E+03 0.75000000E+00 0.0000E+00 0.9000E+01
#aMCatNLO 2  0  0  1  2 0.30421810D+02 0.00000000D+00  -5  6  0 0.00000000D+00 0.00000000D+00 0.00000000D+00 0.00000000D+00 0.00000000D+00
  <mgrwgt>
 0.4895915974D-03    1    2    0
 0.505352329776059D+03 0.000000000000000D+00 0.000000000000000D+00 0.505352329776059D+03
 0.505352329776059D+03 0.000000000000000D+00 0.000000000000000D+00 -.505352329776059D+03
 0.509883567383519D+03 -.485652087098194D+03 -.268871414453186D+02 -.881781390697919D+02
 0.281873951364112D+03 0.281304714158828D+03 0.144643844009410D+02 0.105529064024713D+02
 0.218947140804486D+03 0.204347372939365D+03 0.124227570443776D+02 0.776252326673207D+02
 0.000000000000000D+00 -.000000000000000D+00 -.000000000000000D+00 0.000000000000000D+00
 0.822820037096730D+03 0.000000000000000D+00 0.000000000000000D+00 0.822820037096730D+03
 0.509971313829305D+03 0.000000000000000D+00 0.000000000000000D+00 -.509971313829305D+03
 0.485971120531585D+03 -.461241072593698D+03 -.492125324770044D+01 -.881781390697919D+02
 0.296932468451716D+03 0.295492780029162D+03 0.272313043743318D+02 0.105529064024713D+02
 0.230001532443837D+03 0.215352284305885D+03 0.223253627987247D+02 0.776252326673207D+02
 0.319886229498897D+03 -.496039917413488D+02 -.446354139253560D+02 0.312848723267424D+03
0.109917029345D-03 0.000000000000D+00 0.000000000000D+00 0.369567607266D-03 0.589511447174D-06  6 -2 1 25 3 -4 21 2 0.63471066D-01 0.15647613D+00 0.27978043D+06 0.27978043D+06 0.27978043D+06 0.10868010D+01  1  2  1  1  6  1       -2 0.489591597432D-03 0.100000000000D+01
  </mgrwgt>
  </event>
  <event>
  7     66 0.17058341E-05 0.36056910E+02 0.75467711E-02 0.93453744E-01
       -2 -1    0    0    0  503 0.00000000E+00 0.00000000E+00 0.40373031E+03 0.40373044E+03 0.32000000E+00 0.0000E+00 0.9000E+01
        1 -1    0    0  501    0 0.00000000E+00 0.00000000E+00 -.78599415E+03 0.78599422E+03 0.32000000E+00 0.0000E+00 0.9000E+01
      -24  2    1    2    0    0 0.54521859E+03 0.17799110E+01 -.12373823E+03 0.56489829E+03 0.80823575E+02 0.0000E+00 0.0000E+00
       25  1    1    2    0    0 -.50235219E+03 0.29854156E+01 -.26440074E+03 0.58129114E+03 0.12500000E+03 0.0000E+00 0.9000E+01
        3  1    3    3  502    0 0.36331537E+03 -.31182307E+02 -.10267070E+03 0.37882967E+03 0.50000000E+00 0.0000E+00 0.9000E+01
       -4  1    3    3    0  502 0.18190321E+03 0.32962218E+02 -.21067530E+02 0.18606862E+03 0.15500000E+01 0.0000E+00 0.9000E+01
       21  1    1    2  501  503 -.42866401E+02 -.47653266E+01 0.58751366E+01 0.43535232E+02 0.75000000E+00 0.0000E+00 0.9000E+01
#aMCatNLO 2  0  0  1  2 0.18540294D+02 0.00000000D+00  -5  6  0 0.00000000D+00 0.00000000D+00 0.00000000D+00 0.00000000D+00 0.00000000D+00
  <mgrwgt>
 0.4556256302D-03    1    2    0
 0.538803790482866D+03 0.000000000000000D+00 0.000000000000000D+00 0.538803790482866D+03
 0.538803790482866D+03 0.000000000000000D+00 0.000000000000000D+00 -.538803790482866D+03
 0.543022649902701D+03 -.523539210348474D+03 0.630119048861962D+00 -.717976077946301D+02
 0.351766744324705D+03 0.349175802666711D+03 -.327809821027797D+02 0.272306528977416D+02
 0.182818186738327D+03 0.174363407681763D+03 0.321508630539178D+02 0.445669548968885D+02
 0.000000000000000D+00 -.000000000000000D+00 -.000000000000000D+00 0.000000000000000D+00
 0.574379999313544D+03 0.000000000000000D+00 0.000000000000000D+00 0.574379999313544D+03
 0.552467837997227D+03 0.000000000000000D+00 0.000000000000000D+00 -.552467837997227D+03
 0.522634220487895D+03 -.502352186452257D+03 0.298541564864809D+01 -.717976077946301D+02
 0.365793369728818D+03 0.363442086407605D+03 -.311950430038717D+02 0.272306528977416D+02
 0.190042778060221D+03 0.181776501324427D+03 0.329749539850457D+02 0.445669548968885D+02
 0.483774690338368D+02 -.428664012797744D+02 -.476532662982202D+01 0.219121613163170D+02
0.640662344260D-04 0.000000000000D+00 0.000000000000D+00 0.257336072441D-03 0.867640435466D-06  6 -2 1 25 3 -4 21 2 0.62112048D-01 0.12092156D+00 0.30820880D+06 0.30820880D+06 0.30820880D+06 0.10836856D+01  1  2  1  1  6  1       -2 0.455625630249D-03 0.100000000000D+01
  </mgrwgt>
  </event>
  <event>
  7     66 0.17058341E-05 0.40924604E+02 0.75467711E-02 0.93332957E-01
       -2 -1    0    0    0  503 0.00000000E+00 0.00000000E+00 0.27553910E+03 0.27553928E+03 0.32000000E+00 0.0000E+00 0.9000E+01
        1 -1    0    0  501    0 0.00000000E+00 0.00000000E+00 -.24606360E+04 0.24606360E+04 0.32000000E+00 0.0000E+00 0.9000E+01
      -24  2    1    2    0    0 -.33496146E+03 -.44084979E+03 -.10122515E+04 0.11565248E+04 0.79678434E+02 0.0000E+00 0.0000E+00
       25  1    1    2    0    0 0.32303862E+03 0.43309247E+03 -.13200230E+04 0.14317852E+04 0.12500000E+03 0.0000E+00 0.9000E+01
        3  1    3    3  502    0 -.86444464E+02 -.12073799E+03 -.34876660E+03 0.37906293E+03 0.50000000E+00 0.0000E+00 0.9000E+01
       -4  1    3    3    0  502 -.24851700E+03 -.32011179E+03 -.66348494E+03 0.77746185E+03 0.15500000E+01 0.0000E+00 0.9000E+01
       21  1    1    2  501  503 0.11922836E+02 0.77573172E+01 0.14717766E+03 0.14786534E+03 0.75000000E+00 0.0000E+00 0.9000E+01
#aMCatNLO 2  0  0  1  2 0.18540294D+02 0.00000000D+00  -5  6  0 0.00000000D+00 0.00000000D+00 0.00000000D+00 0.00000000D+00 0.00000000D+00
  <mgrwgt>
 0.2337868773D-02    1    2    0
 0.561168753356850D+03 0.000000000000000D+00 0.000000000000000D+00 0.561168753356850D+03
 0.561168753356850D+03 0.000000000000000D+00 0.000000000000000D+00 -.561168753356850D+03
 0.565301354795285D+03 0.329009338436864D+03 0.436977178301949D+03 -.688797691487727D+02
 0.147718711132402D+03 -.848889644277889D+02 -.119744119009635D+03 -.166140693269899D+02
 0.409317440786014D+03 -.244120374009075D+03 -.317233059292314D+03 0.854938384757626D+02
 0.000000000000000D+00 0.000000000000000D+00 0.000000000000000D+00 0.000000000000000D+00
 0.120792943039965D+04 0.000000000000000D+00 0.000000000000000D+00 0.120792943039965D+04
 0.561292034868341D+03 0.000000000000000D+00 0.000000000000000D+00 -.561292034868341D+03
 0.558831338412100D+03 0.323038624785178D+03 0.433092471754441D+03 -.688797691487727D+02
 0.149460009819360D+03 -.864673982344907D+02 -.120771090407262D+03 -.166140693269899D+02
 0.414136292629270D+03 -.248494062700227D+03 -.320078698538551D+03 0.854938384757626D+02
 0.646793824407265D+03 0.119228361495392D+02 0.775731719137163D+01 0.646637395531313D+03
0.229117742080D-02 0.000000000000D+00 0.000000000000D+00 0.198998884884D-03 0.805408912250D-05  6 -2 1 25 3 -4 21 2 0.42390630D-01 0.37855925D+00 0.31502611D+06 0.31502611D+06 0.31502611D+06 0.10829850D+01  1  2  1  1  6  1       -2 0.233786877297D-02 0.100000000000D+01
  </mgrwgt>
  </event>
  <event>
  7     66 0.17058341E-05 0.59141169E+02 0.75467711E-02 0.93537828E-01
       -2 -1    0    0    0  503 0.00000000E+00 0.00000000E+00 0.40102155E+03 0.40102168E+03 0.32000000E+00 0.0000E+00 0.9000E+01
        1 -1    0    0  501    0 0.00000000E+00 0.00000000E+00 -.93200392E+03 0.93200398E+03 0.32000000E+00 0.0000E+00 0.9000E+01
      -24  2    1    2    0    0 -.40727850E+03 0.33532436E+03 -.14211918E+03 0.55232955E+03 0.80943563E+02 0.0000E+00 0.0000E+00
       25  1    1    2    0    0 0.40572301E+03 -.35346908E+03 -.45275371E+03 0.71425659E+03 0.12500000E+03 0.0000E+00 0.9000E+01
        3  1    3    3  502    0 -.18818707E+03 0.11485957E+03 -.85097409E+02 0.23632374E+03 0.50000000E+00 0.0000E+00 0.9000E+01
       -4  1    3    3    0  502 -.21909144E+03 0.22046480E+03 -.57021767E+02 0.31600580E+03 0.15500000E+01 0.0000E+00 0.9000E+01
       21  1    1    2  501  503 0.15554939E+01 0.18144721E+02 0.63890508E+02 0.66439521E+02 0.75000000E+00 0.0000E+00 0.9000E+01
#aMCatNLO 2  0  0  1  2 0.16035966D+02 0.00000000D+00  -5  6  0 0.00000000D+00 0.00000000D+00 0.00000000D+00 0.00000000D+00 0.00000000D+00
  <mgrwgt>
 0.5480845227D-03    1    2    0
 0.559024827945888D+03 0.000000000000000D+00 0.000000000000000D+00 0.559024827945888D+03
 0.559024827945888D+03 0.000000000000000D+00 0.000000000000000D+00 -.559024827945888D+03
 0.563082402485108D+03 0.406509894251313D+03 -.344290125116234D+03 -.132856342007582D+03
 0.224114706404253D+03 -.187937092812274D+03 0.118516935082324D+03 0.293391695626799D+02
 0.330852547002415D+03 -.218572801439039D+03 0.225773190033911D+03 0.103517172444902D+03
 0.000000000000000D+00 0.000000000000000D+00 0.000000000000000D+00 0.000000000000000D+00
 0.667577349387642D+03 0.000000000000000D+00 0.000000000000000D+00 0.667577349387642D+03
 0.559863305198876D+03 0.000000000000000D+00 0.000000000000000D+00 -.559863305198876D+03
 0.568178985870292D+03 0.405723009011856D+03 -.353469082567801D+03 -.132856342007582D+03
 0.222482503452515D+03 -.188247737863927D+03 0.114893283794072D+03 0.293391695626799D+02
 0.327536473242116D+03 -.219030765095523D+03 0.220431078241172D+03 0.103517172444902D+03
 0.109242692021595D+03 0.155549394759470D+01 0.181447205325581D+02 0.107714044188766D+03
0.100390133471D-03 0.000000000000D+00 0.000000000000D+00 0.250615452515D-03 0.481097886729D-05  6 -2 1 25 3 -4 21 2 0.61695495D-01 0.14338490D+00 0.30356060D+06 0.30356060D+06 0.30356060D+06 0.10841730D+01  1  2  1  1  6  1       -2 0.548084522696D-03 0.100000000000D+01
  </mgrwgt>
  </event>
  <event>
  7     66 0.17058341E-05 0.81745771E+02 0.75467711E-02 0.93604392E-01
       -2 -1    0    0    0  501 0.00000000E+00 0.00000000E+00 0.43982109E+03 0.43982121E+03 0.32000000E+00 0.0000E+00 0.9000E+01
        1 -1    0    0  503    0 0.00000000E+00 0.00000000E+00 -.12553666E+04 0.12553666E+04 0.32000000E+00 0.0000E+00 0.9000E+01
      -24  2    1    2    0    0 -.29027135E+03 -.36740705E+03 0.16092366E+03 0.50159179E+03 0.80327516E+02 0.0000E+00 0.0000E+00
       25  1    1    2    0    0 0.22364115E+03 0.44776079E+03 -.54809872E+03 0.75269004E+03 0.12500000E+03 0.0000E+00 0.9000E+01
        3  1    3    3  502    0 -.19644178E+03 -.30350920E+03 0.12390047E+03 0.38217638E+03 0.50000000E+00 0.0000E+00 0.9000E+01
       -4  1    3    3    0  502 -.93829566E+02 -.63897848E+02 0.37023189E+02 0.11941542E+03 0.15500000E+01 0.0000E+00 0.9000E+01
       21  1    1    2  503  501 0.66630199E+02 -.80353747E+02 -.42837044E+03 0.44090601E+03 0.75000000E+00 0.0000E+00 0.9000E+01
#aMCatNLO 2  0  0  2  1 0.93999042D+01 0.00000000D+00  -5  6  0 0.00000000D+00 0.00000000D+00 0.00000000D+00 0.00000000D+00 0.00000000D+00
  <mgrwgt>
 0.7059507398D-03    1    2    0
 0.594226826181493D+03 0.000000000000000D+00 0.000000000000000D+00 0.594226826181493D+03
 0.594226826181493D+03 0.000000000000000D+00 0.000000000000000D+00 -.594226826181493D+03
 0.598085828280125D+03 0.257538318296952D+03 0.406881966138430D+03 -.331967977717169D+03
 0.453380344241420D+03 -.171455291453951D+03 -.333836496214776D+03 0.254381629391649D+03
 0.136987479841440D+03 -.860830268430002D+02 -.730454699236542D+02 0.775863483255195D+02
 0.000000000000000D+00 0.000000000000000D+00 -.000000000000000D+00 -.000000000000000D+00
 0.605137787831547D+03 0.000000000000000D+00 0.000000000000000D+00 0.605137787831547D+03
 0.912413780203336D+03 0.000000000000000D+00 0.000000000000000D+00 -.912413780203336D+03
 0.613459723068317D+03 0.223641150181676D+03 0.447760795004260D+03 -.331967977717169D+03
 0.442167030860385D+03 -.196511320007919D+03 -.303619780180217D+03 0.254381629391649D+03
 0.137402328654919D+03 -.937600287166543D+02 -.637872674470192D+02 0.775863483255195D+02
 0.324522485451261D+03 0.666301985428976D+02 -.803537473770231D+02 -.307275992371789D+03
0.272494454665D-03 0.000000000000D+00 0.000000000000D+00 0.140235081313D-03 0.908328285420D-07  6 -2 1 25 3 -4 21 2 0.67664747D-01 0.19313320D+00 0.29993661D+06 0.29993661D+06 0.29993661D+06 0.10845587D+01  1  2  1  2  6  2        1 0.705950739783D-03 0.100000000000D+01
  </mgrwgt>
  </event>
  <event>
  7     66 0.17058341E-05 0.36499673E+02 0.75467711E-02 0.95279494E-01
       -2 -1    0    0    0  501 0.00000000E+00 0.00000000E+00 0.28170030E+04 0.28170030E+04 0.32000000E+00 0.0000E+00 0.9000E+01
        1 -1    0    0  503    0 0.00000000E+00 0.00000000E+00 -.92283212E+02 0.92283767E+02 0.32000000E+00 0.0000E+00 0.9000E+01
      -24  2    1    2    0    0 -.45751166E+03 -.72244439E+02 0.14631048E+04 0.15367145E+04 0.79245350E+02 0.0000E+00 0.0000E+00
       25  1    1    2    0    0 0.44500595E+03 0.72992627E+02 0.12725891E+04 0.13559006E+04 0.12500000E+03 0.0000E+00 0.9000E+01
        3  1    3    3  502    0 -.35535198E+03 -.45384053E+02 0.12231969E+04 0.12745767E+04 0.50000000E+00 0.0000E+00 0.9000E+01
       -4  1    3    3    0  502 -.10215968E+03 -.26860385E+02 0.23990783E+03 0.26213784E+03 0.15500000E+01 0.0000E+00 0.9000E+01
       21  1    1    2  503  501 0.12505716E+02 -.74818787E+00 -.10974095E+02 0.16671712E+02 0.75000000E+00 0.0000E+00 0.9000E+01
#aMCatNLO 2  0  0  2  1 0.93999042D+01 0.00000000D+00  -5  6  0 0.00000000D+00 0.00000000D+00 0.00000000D+00 0.00000000D+00 0.00000000D+00
  <mgrwgt>
 0.1645593640D-02    1    2    0
 0.469852104449819D+03 0.000000000000000D+00 0.000000000000000D+00 0.469852104449819D+03
 0.469852104449819D+03 0.000000000000000D+00 0.000000000000000D+00 -.469852104449819D+03
 0.474824506670446D+03 0.451285401246141D+03 0.726169414612370D+02 -.300262979695728D+02
 0.357859470424887D+03 -.350690669532846D+03 -.456871233486639D+02 0.547004719861634D+02
 0.107020231804305D+03 -.100594731713295D+03 -.269298181125731D+02 -.246741740165905D+02
 0.000000000000000D+00 0.000000000000000D+00 -.000000000000000D+00 -.000000000000000D+00
 0.470367851382104D+03 0.000000000000000D+00 0.000000000000000D+00 0.470367851382104D+03
 0.552676073107625D+03 0.000000000000000D+00 0.000000000000000D+00 -.552676073107625D+03
 0.468918749931389D+03 0.445005945942013D+03 0.729926266393590D+02 -.300262979695728D+02
 0.362521937212875D+03 -.355483925346375D+03 -.454003540228425D+02 0.547004719861634D+02
 0.108347029817408D+03 -.102027737018356D+03 -.268440847444372D+02 -.246741740165905D+02
 0.832562075280572D+02 0.125057164227174D+02 -.748187872079316D+00 -.823082217255213D+02
0.889962009728D-02 0.000000000000D+00 0.000000000000D+00 0.579136625969D-04 0.238716420030D-05  6 -2 1 25 3 -4 21 2 0.43338357D+00 0.14197410D-01 0.22295202D+06 0.22295202D+06 0.22295202D+06 0.10942200D+01  1  2  1  2  6  2        1 0.164559363967D-02 0.100000000000D+01
  </mgrwgt>
  </event>
  <event>
  7     66 0.17058341E-05 0.55779784E+02 0.75467711E-02 0.93493516E-01
       -2 -1    0    0    0  503 0.00000000E+00 0.00000000E+00 0.96966704E+03 0.96966710E+03 0.32000000E+00 0.0000E+00 0.9000E+01
        1 -1    0    0  501    0 0.00000000E+00 0.00000000E+00 -.46694390E+03 0.46694401E+03 0.32000000E+00 0.0000E+00 0.9000E+01
      -24  2    1    2    0    0 -.44191317E+03 0.30538660E+03 -.90114900E+02 0.55040104E+03 0.79198417E+02 0.0000E+00 0.0000E+00
       25  1    1    2    0    0 0.39690670E+03 -.31126299E+03 0.63754199E+03 0.82249885E+03 0.12500000E+03 0.0000E+00 0.9000E+01
        3  1    3    3  502    0 -.23744747E+03 0.12353496E+03 -.66149545E+02 0.27571399E+03 0.50000000E+00 0.0000E+00 0.9000E+01
       -4  1    3    3    0  502 -.20446569E+03 0.18185164E+03 -.23965355E+02 0.27468706E+03 0.15500000E+01 0.0000E+00 0.9000E+01
       21  1    1    2  501  503 0.45006465E+02 0.58763868E+01 -.44703946E+02 0.63711216E+02 0.75000000E+00 0.0000E+00 0.9000E+01
#aMCatNLO 2  0  0  1  4 0.72425390D-01 0.00000000D+00  -5  6  0 0.00000000D+00 0.00000000D+00 0.00000000D+00 0.00000000D+00 0.00000000D+00
  <mgrwgt>
 0.1119416376D-03    1    2    0
 0.629110003212175D+03 0.000000000000000D+00 0.000000000000000D+00 0.629110003212175D+03
 0.629110003212175D+03 0.000000000000000D+00 0.000000000000000D+00 -.629110003212175D+03
 0.632826607104544D+03 0.419300464789406D+03 -.308339086369698D+03 0.337577609896652D+03
 0.321818831682459D+03 -.225884850422393D+03 0.125095565661829D+03 -.192079395633325D+03
 0.303574567637346D+03 -.193415614367013D+03 0.183243520707870D+03 -.145498214263327D+03
 0.000000000000000D+00 0.000000000000000D+00 0.000000000000000D+00 -.000000000000000D+00
 0.635748572481642D+03 0.000000000000000D+00 0.000000000000000D+00 0.635748572481642D+03
 0.712196637914543D+03 0.000000000000000D+00 0.000000000000000D+00 -.712196637914543D+03
 0.619679932239991D+03 0.396906700343637D+03 -.311262986780873D+03 0.337577609896652D+03
 0.329523798899617D+03 -.237530309335825D+03 0.123575045867680D+03 -.192079395633325D+03
 0.309834671129890D+03 -.204382856110118D+03 0.181811554112000D+03 -.145498214263327D+03
 0.889068081266868D+02 0.450064651023063D+02 0.587638680119270D+01 -.764480654329013D+02
0.597999655207D-04 0.000000000000D+00 0.000000000000D+00 0.998747983050D-04 0.306894542817D-06  6 -2 1 25 3 -4 21 2 0.14917919D+00 0.71837359D-01 0.30600030D+06 0.30600030D+06 0.30600030D+06 0.10839161D+01  1  2  1  1  6  1       -2 0.111941637575D-03 0.100000000000D+01
  </mgrwgt>
  </event>
  <event>
  6     66 0.17058341E-05 0.22963138E+02 0.75467711E-02 0.89627685E-01
       -2 -1    0    0    0  501 0.00000000E+00 0.00000000E+00 0.42285612E+03 0.42285624E+03 0.32000000E+00 0.0000E+00 0.9000E+01
        1 -1    0    0  501    0 -.00000000E+00 -.00000000E+00 -.15180005E+04 0.15180005E+04 0.32000000E+00 0.0000E+00 0.9000E+01
       25  1    1    2    0    0 -.94515025E+02 0.78377643E+03 -.48994007E+03 0.93749926E+03 0.12500000E+03 0.0000E+00 0.9000E+01
        3  1    1    2  503    0 0.30892146E+01 -.82329071E+02 -.31537161E+02 0.88218262E+02 0.50000000E+00 0.0000E+00 0.9000E+01
       -4  1    1    2    0  502 0.10145036E+03 -.68362647E+03 -.54622753E+03 0.88091103E+03 0.15500000E+01 0.0000E+00 0.9000E+01
       21  1    1    2  502  503 -.10024551E+02 -.17820883E+02 -.27439580E+02 0.34228184E+02 0.75000000E+00 0.0000E+00 0.9000E+01
#aMCatNLO 2  0  0  4  5 0.35723695D+01 0.00000000D+00  -5  6  0 0.00000000D+00 0.00000000D+00 0.00000000D+00 0.00000000D+00 0.00000000D+00
  <mgrwgt>
 0.8288622439D-05    1    2    0
 0.801184080887003D+03 0.000000000000000D+00 0.000000000000000D+00 0.801184080887003D+03
 0.801184080887003D+03 -.000000000000000D+00 -.000000000000000D+00 -.801184080887003D+03
 0.803974010834578D+03 -.942788783435730D+02 0.787186518153022D+03 0.468837800719775D+02
 0.107433700002722D+03 -.740167244826792D+01 -.106381333684572D+03 0.130471063740275D+02
 0.690960450936706D+03 0.101680550791841D+03 -.680805184468450D+03 -.599308864460049D+02
 0.000000000000000D+00 -.000000000000000D+00 0.000000000000000D+00 0.000000000000000D+00
 0.801184080887003D+03 0.000000000000000D+00 0.000000000000000D+00 0.801184080887003D+03
 0.801184080887003D+03 -.000000000000000D+00 -.000000000000000D+00 -.801184080887003D+03
 0.800665565745828D+03 -.945177615230246D+02 0.783753143952463D+03 0.473048652084861D+02
 0.849768343030817D+02 0.315407866131014D+01 -.819738225520997D+02 0.221676920803350D+02
 0.693818564121111D+03 0.101474398320730D+03 -.683768133041554D+03 -.595674965177616D+02
 0.229071976039859D+02 -.101107154590153D+02 -.180111883588092D+02 -.990506077105942D+01
0.483653813880D-05 0.000000000000D+00 0.000000000000D+00 0.395173648762D-04 0.158580902631D-07  6 -2 1 25 3 -4 21 2 0.65054799D-01 0.23353854D+00 0.63458205D+06 0.63458205D+06 0.63458205D+06 0.10612703D+01  1  2  1  3  6  4        3 0.828862243889D-05 0.100000000000D+01
  </mgrwgt>
  </event>
  <event>
  7     66 0.17058341E-05 0.72021874E+02 0.75467711E-02 0.92848758E-01
       -2 -1    0    0    0  503 0.00000000E+00 0.00000000E+00 0.18259321E+03 0.18259349E+03 0.32000000E+00 0.0000E+00 0.9000E+01
        1 -1    0    0  501    0 0.00000000E+00 0.00000000E+00 -.20132764E+04 0.20132764E+04 0.32000000E+00 0.0000E+00 0.9000E+01
      -24  2    1    2    0    0 0.56647553E+03 -.12105299E+03 -.11646384E+04 0.13034448E+04 0.83889664E+02 0.0000E+00 0.0000E+00
       25  1    1    2    0    0 -.55409048E+03 0.11329833E+03 -.65248876E+03 0.87247885E+03 0.12500000E+03 0.0000E+00 0.9000E+01
        3  1    3    3  502    0 0.29927519E+03 -.57855616E+02 -.70439710E+03 0.76752097E+03 0.50000000E+00 0.0000E+00 0.9000E+01
       -4  1    3    3    0  502 0.26720034E+03 -.63197369E+02 -.46024125E+03 0.53592382E+03 0.15500000E+01 0.0000E+00 0.9000E+01
       21  1    1    2  501  503 -.12385051E+02 0.77546558E+01 -.13556063E+02 0.19946266E+02 0.75000000E+00 0.0000E+00 0.9000E+01
#aMCatNLO 2  0  0  1  4 0.72425390D-01 0.00000000D+00  -5  6  0 0.00000000D+00 0.00000000D+00 0.00000000D+00 0.00000000D+00 0.00000000D+00
  <mgrwgt>
 0.1529251761D-02    1    2    0
 0.598431121635039D+03 0.000000000000000D+00 0.000000000000000D+00 0.598431121635039D+03
 0.598431121635039D+03 0.000000000000000D+00 0.000000000000000D+00 -.598431121635039D+03
 0.602018637815684D+03 -.560286201465461D+03 0.117177660459903D+03 0.138384278781948D+03
 0.322554227529708D+03 0.296012411476830D+03 -.557721570958500D+02 -.115357481083085D+03
 0.272289377924685D+03 0.264273789988631D+03 -.614055033640530D+02 -.230267976988627D+02
 0.000000000000000D+00 -.000000000000000D+00 0.000000000000000D+00 0.000000000000000D+00
 0.609125603748016D+03 0.000000000000000D+00 0.000000000000000D+00 0.609125603748016D+03
 0.603488080272553D+03 0.000000000000000D+00 0.000000000000000D+00 -.603488080272553D+03
 0.595506487882476D+03 -.554090477259684D+03 0.113298329671084D+03 0.138384278781948D+03
 0.326002739605581D+03 0.299367898567561D+03 -.578731293067205D+02 -.115357481083085D+03
 0.275442214105291D+03 0.267107629388060D+03 -.631798561382647D+02 -.230267976988627D+02
 0.156622424272203D+02 -.123850506959366D+02 0.775465577390107D+01 0.563752347546335D+01
0.354951851062D-03 0.000000000000D+00 0.000000000000D+00 0.274174191470D-04 0.799063512835D-06  6 -2 1 25 3 -4 21 2 0.28090871D-01 0.30973026D+00 0.34410276D+06 0.34410276D+06 0.34410276D+06 0.10801722D+01  1  2  1  1  6  1       -2 0.152925176146D-02 0.100000000000D+01
  </mgrwgt>
  </event>
  <event>
  6     66 0.17058341E-05 0.42959496E+02 0.75467711E-02 0.90333401E-01
       -2 -1    0    0    0  501 0.00000000E+00 0.00000000E+00 0.83197629E+03 0.83197635E+03 0.32000000E+00 0.0000E+00 0.9000E+01
        1 -1    0    0  501    0 0.00000000E+00 0.00000000E+00 -.68917397E+03 0.68917404E+03 0.32000000E+00 0.0000E+00 0.9000E+01
       25  1    1    2    0    0 0.56709914E+03 -.43936210E+03 0.19573996E+03 0.75404219E+03 0.12500000E+03 0.0000E+00 0.9000E+01
        3  1    1    2  502    0 -.17946423E+03 0.10697082E+03 -.57986267E+02 0.21682441E+03 0.50000000E+00 0.0000E+00 0.9000E+01
       -4  1    1    2    0  503 -.40038017E+03 0.26217137E+03 -.17966291E+01 0.47858514E+03 0.15500000E+01 0.0000E+00 0.9000E+01
       21  1    1    2  503  502 0.12745266E+02 0.70219904E+02 0.68452562E+01 0.71698652E+02 0.75000000E+00 0.0000E+00 0.9000E+01
#aMCatNLO 2  0  0  5  4 0.19117908D+02 0.00000000D+00  -5  6  0 0.00000000D+00 0.00000000D+00 0.00000000D+00 0.00000000D+00 0.00000000D+00
  <mgrwgt>
 0.9892653225D-03    1    2    0
 0.757216285428840D+03 0.000000000000000D+00 0.000000000000000D+00 0.757216285428840D+03
 0.757216285428840D+03 -.000000000000000D+00 -.000000000000000D+00 -.757216285428840D+03
 0.758335066803264D+03 0.582043764188792D+03 -.452176900278801D+03 0.127311354429633D+03
 0.217810645646621D+03 -.175130057909773D+03 0.103234130590824D+03 -.781898615849535D+02
 0.538286858407796D+03 -.406913706279019D+03 0.348942769687977D+03 -.491214928446795D+02
 0.000000000000000D+00 0.000000000000000D+00 0.000000000000000D+00 0.000000000000000D+00
 0.757216285428840D+03 0.000000000000000D+00 0.000000000000000D+00 0.757216285428840D+03
 0.757216285428840D+03 -.000000000000000D+00 -.000000000000000D+00 -.757216285428840D+03
 0.738885764169942D+03 0.567065382936357D+03 -.439332413206932D+03 0.125503205831631D+03
 0.223352078163696D+03 -.179543504032680D+03 0.107018815378364D+03 -.787226405471792D+02
 0.480641742435153D+03 -.400277606671258D+03 0.261906863839573D+03 -.468947421610252D+02
 0.715529860888893D+02 0.127557277675808D+02 0.704067339889943D+02 0.114176876573819D+00
0.653891808283D-03 0.000000000000D+00 0.000000000000D+00 0.239436314306D-06 0.848061370407D-08  6 -2 1 25 3 -4 21 2 0.12799636D+00 0.10602677D+00 0.55284390D+06 0.55284390D+06 0.55284390D+06 0.10654403D+01  1  2  1  4  6  5       -4 0.989265322535D-03 0.100000000000D+01
  </mgrwgt>
  </event>
  <event>
  7     66 0.17058341E-05 0.23990656E+02 0.75467711E-02 0.94461688E-01
       21 -1    0    0  503  501 0.00000000E+00 0.00000000E+00 0.21780454E+03 0.21780583E+03 0.75000000E+00 0.0000E+00 0.9000E+01
        1 -1    0    0  501    0 0.00000000E+00 0.00000000E+00 -.13199552E+04 0.13199552E+04 0.32000000E+00 0.0000E+00 0.9000E+01
      -24  2    1    2    0    0 0.23597276E+03 -.41682796E+03 -.61564861E+03 0.78441113E+03 0.82758275E+02 0.0000E+00 0.0000E+00
       25  1    1    2    0    0 -.22993744E+03 0.43609791E+03 -.51142486E+03 0.72127180E+03 0.12500000E+03 0.0000E+00 0.9000E+01
        3  1    3    3  502    0 0.55560281E+02 -.41489314E+02 -.97637565E+02 0.11975664E+03 0.50000000E+00 0.0000E+00 0.9000E+01
        2  1    1    2  503    0 -.60353126E+01 -.19269959E+02 0.24922824E+02 0.32078122E+02 0.32000000E+00 0.0000E+00 0.9000E+01
       -4  1    3    3    0  502 0.18041248E+03 -.37533864E+03 -.51801104E+03 0.66465450E+03 0.15500000E+01 0.0000E+00 0.9000E+01
#aMCatNLO 2  0  0  1  2 0.72425390D-01 0.00000000D+00  -5  6  0 0.00000000D+00 0.00000000D+00 0.00000000D+00 0.00000000D+00 0.00000000D+00
  <mgrwgt>
 0.2178861793D-03    1    2    0
 0.499093861308785D+03 0.000000000000000D+00 0.000000000000000D+00 0.499093861308785D+03
 0.499093861308785D+03 0.000000000000000D+00 0.000000000000000D+00 -.499093861308785D+03
 0.503489862518204D+03 -.233002298205069D+03 0.426312236459613D+03 0.429516907066415D+02
 0.708727983403170D+02 0.551461635243456D+02 -.428535935286493D+02 -.120591755445673D+02
 0.000000000000000D+00 -.000000000000000D+00 -.000000000000000D+00 0.000000000000000D+00
 0.423825061759050D+03 0.177856134680724D+03 -.383458642930963D+03 -.308925151620742D+02
 0.574351248496806D+03 0.000000000000000D+00 0.000000000000000D+00 0.574351248496806D+03
 0.500552354630839D+03 0.000000000000000D+00 0.000000000000000D+00 -.500552354630839D+03
 0.510414015111471D+03 -.229937443395877D+03 0.436097914707491D+03 0.429516907066415D+02
 0.703934411192413D+02 0.555731867589311D+02 -.414901645122115D+02 -.120591755445673D+02
 0.765116530866482D+02 -.603531256433288D+01 -.192699591193678D+02 0.737988938659673D+02
 0.417584493810284D+03 0.180399569201278D+03 -.375337791075912D+03 -.308925151620742D+02
0.203873641995D-05 0.000000000000D+00 0.000000000000D+00 0.240846362230D-04 0.812830644835D-08  6 21 1 25 3 2 -4 2 0.33508471D-01 0.20307000D+00 0.25734802D+06 0.25734802D+06 0.25734802D+06 0.10895139D+01  1  2  1  5  5  1       -2 0.217886179278D-03 0.100000000000D+01
  </mgrwgt>
  </event>
  <event>
  7     66 0.17058341E-05 0.20684187E+02 0.75467711E-02 0.93416542E-01
       -2 -1    0    0    0  501 0.00000000E+00 0.00000000E+00 0.95520186E+03 0.95520191E+03 0.32000000E+00 0.0000E+00 0.9000E+01
        1 -1    0    0  503    0 0.00000000E+00 0.00000000E+00 -.76872615E+03 0.76872622E+03 0.32000000E+00 0.0000E+00 0.9000E+01
      -24  2    1    2    0    0 0.19535918E+03 0.51331233E+03 0.39342194E+03 0.68049224E+03 0.81449984E+02 0.0000E+00 0.0000E+00
       25  1    1    2    0    0 -.18353515E+03 -.48703212E+03 0.24634167E+03 0.58923226E+03 0.12500000E+03 0.0000E+00 0.9000E+01
        3  1    3    3  502    0 0.15480430E+03 0.43632747E+03 0.29434587E+03 0.54862170E+03 0.50000000E+00 0.0000E+00 0.9000E+01
       -4  1    3    3    0  502 0.40554881E+02 0.76984867E+02 0.99076070E+02 0.13187054E+03 0.15500000E+01 0.0000E+00 0.9000E+01
       21  1    1    2  503  501 -.11824024E+02 -.26280217E+02 -.45328790E+03 0.45420364E+03 0.75000000E+00 0.0000E+00 0.9000E+01
#aMCatNLO 2  0  0  2  1 0.93999042D+01 0.00000000D+00  -5  6  0 0.00000000D+00 0.00000000D+00 0.00000000D+00 0.00000000D+00 0.00000000D+00
  <mgrwgt>
 0.1090781662D-02    1    2    0
 0.548195301116067D+03 0.000000000000000D+00 0.000000000000000D+00 0.548195301116067D+03
 0.548195301116067D+03 0.000000000000000D+00 0.000000000000000D+00 -.548195301116067D+03
 0.552295527919152D+03 -.189415744463394D+03 -.500102385813697D+03 -.585203350325454D+02
 0.451631879737666D+03 0.149924524239810D+03 0.425515545254716D+03 0.207487969151435D+02
 0.924631945753160D+02 0.394912202235838D+02 0.745868405589808D+02 0.377715381174019D+02
 0.000000000000000D+00 -.000000000000000D+00 -.000000000000000D+00 -.000000000000000D+00
 0.548647440921685D+03 0.000000000000000D+00 0.000000000000000D+00 0.548647440921685D+03
 0.133836088689798D+04 0.000000000000000D+00 0.000000000000000D+00 -.133836088689798D+04
 0.538456186126847D+03 -.183535154457988D+03 -.487032115824030D+03 -.585203350325454D+02
 0.463604224127928D+03 0.154858853671221D+03 0.436482645125173D+03 0.207487969151435D+02
 0.947088498869132D+02 0.405003243485484D+02 0.768296875095162D+02 0.377715381174019D+02
 0.790239067677976D+03 -.118240235617816D+02 -.262802168106595D+02 -.789713445976293D+03
0.116302197171D-02 0.000000000000D+00 0.000000000000D+00 0.107850044131D-03 0.114993035307D-05  6 -2 1 25 3 -4 21 2 0.14695409D+00 0.11826553D+00 0.31029073D+06 0.31029073D+06 0.31029073D+06 0.10834698D+01  1  2  1  2  6  2        1 0.109078166221D-02 0.100000000000D+01
  </mgrwgt>
  </event>
  <event>
  7     66 0.17058341E-05 0.13174672E+02 0.75467711E-02 0.94096672E-01
       -2 -1    0    0    0  501 0.00000000E+00 0.00000000E+00 0.37676423E+03 0.37676436E+03 0.32000000E+00 0.0000E+00 0.9000E+01
        1 -1    0    0  501    0 -.00000000E+00 -.00000000E+00 -.73216644E+03 0.73216651E+03 0.32000000E+00 0.0000E+00 0.9000E+01
      -24  2    1    2    0    0 -.14186304E+03 -.49407512E+03 -.14282835E+03 0.53880107E+03 0.75308075E+02 0.0000E+00 0.0000E+00
       25  1    1    2    0    0 0.14186304E+03 0.49407512E+03 -.21257386E+03 0.57012981E+03 0.12500000E+03 0.0000E+00 0.9000E+01
        3  1    3    3  502    0 -.12563230E+03 -.48184635E+03 -.13834852E+03 0.51681713E+03 0.50000000E+00 0.0000E+00 0.9000E+01
       -4  1    3    3    0  503 -.15182843E+02 -.92437449E+01 -.21239807E+01 0.17968843E+02 0.15500000E+01 0.0000E+00 0.9000E+01
       21  1    3    3  503  502 -.10479016E+01 -.29850256E+01 -.23558554E+01 0.40151003E+01 0.75000000E+00 0.0000E+00 0.9000E+01
#aMCatNLO 2  0  0  5  4 0.59335082D+00 0.00000000D+00  -5  6  0 0.00000000D+00 0.00000000D+00 0.00000000D+00 0.00000000D+00 0.00000000D+00
  <mgrwgt>
 0.2191456180D-02    1    2    0
 0.525218276038236D+03 0.000000000000000D+00 0.000000000000000D+00 0.525218276038236D+03
 0.525218276038236D+03 -.000000000000000D+00 -.000000000000000D+00 -.525218276038236D+03
 0.530374910323423D+03 0.142290214317948D+03 0.494396963820346D+03 -.315861136443753D+02
 0.498940369250826D+03 -.125368105873570D+03 -.482075281178140D+03 0.287707034123553D+02
 0.211212725022219D+02 -.169221084443785D+02 -.123216826422062D+02 0.281541023202006D+01
 0.000000000000000D+00 0.000000000000000D+00 -.000000000000000D+00 0.000000000000000D+00
 0.525218276038236D+03 0.000000000000000D+00 0.000000000000000D+00 0.525218276038236D+03
 0.525218276038236D+03 -.000000000000000D+00 -.000000000000000D+00 -.525218276038236D+03
 0.529942310683444D+03 0.141838018493844D+03 0.494067701455963D+03 -.315108797127264D+02
 0.499351066483324D+03 -.125793849424211D+03 -.482385282555049D+03 0.288415363556987D+02
 0.174962981651501D+02 -.148165054979410D+02 -.846396789301871D+01 0.386689304471540D+01
 0.364687674455285D+01 -.122766357169201D+01 -.321845100789494D+01 -.119754968768768D+01
0.236357411548D-03 0.000000000000D+00 0.000000000000D+00 0.457309221392D-06 0.510069456589D-05  6 -2 1 25 3 -4 21 2 0.57963743D-01 0.11264101D+00 0.27459192D+06 0.27459192D+06 0.27459192D+06 0.10874068D+01  1  2  1  4  6  5       -4 0.219145618037D-02 0.100000000000D+01
  </mgrwgt>
  </event>
  <event>
  7     66 0.17058341E-05 0.67265749E+02 0.75467711E-02 0.94837501E-01
       -2 -1    0    0    0  503 0.00000000E+00 0.00000000E+00 0.65205626E+03 0.65205634E+03 0.32000000E+00 0.0000E+00 0.9000E+01
        1 -1    0    0  501    0 0.00000000E+00 0.00000000E+00 -.65772440E+03 0.65772448E+03 0.32000000E+00 0.0000E+00 0.9000E+01
      -24  2    1    2    0    0 -.23271146E+03 -.41706027E+03 -.43373017E+03 0.65005071E+03 0.79687988E+02 0.0000E+00 0.0000E+00
       25  1    1    2    0    0 0.23604973E+03 0.40727285E+03 0.40145707E+03 0.63117622E+03 0.12500000E+03 0.0000E+00 0.9000E+01
        3  1    3    3  502    0 -.93749128E+02 -.24903378E+03 -.24295392E+03 0.36032427E+03 0.50000000E+00 0.0000E+00 0.9000E+01
       -4  1    3    3    0  502 -.13896233E+03 -.16802649E+03 -.19077625E+03 0.28972644E+03 0.15500000E+01 0.0000E+00 0.9000E+01
       21  1    1    2  501  503 -.33382665E+01 0.97874212E+01 0.26604961E+02 0.28553881E+02 0.75000000E+00 0.0000E+00 0.9000E+01
#aMCatNLO 2  0  0  1  2 0.25654819D+02 0.00000000D+00  -5  6  0 0.00000000D+00 0.00000000D+00 0.00000000D+00 0.00000000D+00 0.00000000D+00
  <mgrwgt>
 0.3213671613D-02    1    2    0
 0.640389329332810D+03 0.000000000000000D+00 0.000000000000000D+00 0.640389329332810D+03
 0.640389329332810D+03 0.000000000000000D+00 0.000000000000000D+00 -.640389329332810D+03
 0.644010105103283D+03 0.234374463288670D+03 0.412184526797463D+03 0.417488373852543D+03
 0.352792010824745D+03 -.947007995498580D+02 -.246419210941948D+03 -.234033189836681D+03
 0.283976542737592D+03 -.139673663738812D+03 -.165765315855515D+03 -.183455184015862D+03
 0.000000000000000D+00 -.000000000000000D+00 0.000000000000000D+00 0.000000000000000D+00
 0.668688292154702D+03 0.000000000000000D+00 0.000000000000000D+00 0.668688292154702D+03
 0.641355613271808D+03 0.000000000000000D+00 0.000000000000000D+00 -.641355613271808D+03
 0.641492157148186D+03 0.236049725130735D+03 0.407272847911933D+03 0.417488373852543D+03
 0.354439758376273D+03 -.937791376973436D+02 -.249121419603858D+03 -.234033189836681D+03
 0.284888489579050D+03 -.138932320911258D+03 -.167938849461790D+03 -.183455184015862D+03
 0.292235003229997D+02 -.333826652213306D+01 0.978742115371462D+01 0.273326788828938D+02
0.983971290927D-03 0.000000000000D+00 0.000000000000D+00 0.111561231550D-03 0.663552028782D-05  6 -2 1 25 3 -4 21 2 0.10031561D+00 0.10118762D+00 0.24085263D+06 0.24085263D+06 0.24085263D+06 0.10916791D+01  1  2  1  1  6  1       -2 0.321367161275D-02 0.100000000000D+01
  </mgrwgt>
  </event>
  <event>
  7     66 0.17058341E-05 0.23524443E+02 0.75467711E-02 0.91709421E-01
       21 -1    0    0  503  501 0.00000000E+00 0.00000000E+00 0.58344368E+03 0.58344416E+03 0.75000000E+00 0.0000E+00 0.9000E+01
        1 -1    0    0  501    0 0.00000000E+00 0.00000000E+00 -.78999300E+03 0.78999306E+03 0.32000000E+00 0.0000E+00 0.9000E+01
      -24  2    1    2    0    0 0.47486030E+03 0.41980828E+03 -.22900174E+02 0.63909956E+03 0.78692646E+02 0.0000E+00 0.0000E+00
       25  1    1    2    0    0 -.44890073E+03 -.43322661E+03 -.23250581E+03 0.67740765E+03 0.12500000E+03 0.0000E+00 0.9000E+01
        3  1    3    3  502    0 0.40727202E+03 0.31961955E+03 -.13906734E+02 0.51790038E+03 0.50000000E+00 0.0000E+00 0.9000E+01
        2  1    1    2  503    0 -.25959563E+02 0.13418335E+02 0.48856665E+02 0.56930017E+02 0.32000000E+00 0.0000E+00 0.9000E+01
       -4  1    3    3    0  502 0.67588280E+02 0.10018873E+03 -.89934399E+01 0.12119918E+03 0.15500000E+01 0.0000E+00 0.9000E+01
#aMCatNLO 2  0  0  1  2 0.82942408D+01 0.00000000D+00  -5  6  0 0.00000000D+00 0.00000000D+00 0.00000000D+00 0.00000000D+00 0.00000000D+00
  <mgrwgt>
 0.5767915134D-04    1    2    0
 0.645582110966024D+03 0.000000000000000D+00 0.000000000000000D+00 0.645582110966024D+03
 0.645582110966024D+03 0.000000000000000D+00 0.000000000000000D+00 -.645582110966024D+03
 0.649234809589745D+03 -.461905159513429D+03 -.426504708024569D+03 -.103044629315572D+03
 0.520645131638842D+03 0.396913267141636D+03 0.325174238205841D+03 0.882775524888995D+02
 0.000000000000000D+00 -.000000000000000D+00 0.000000000000000D+00 0.000000000000000D+00
 0.121284280703460D+03 0.649918923717938D+02 0.101330469818728D+03 0.147670768266726D+02
 0.710124933108147D+03 0.000000000000000D+00 0.000000000000000D+00 0.710124933108147D+03
 0.649063619336421D+03 0.000000000000000D+00 0.000000000000000D+00 -.649063619336421D+03
 0.644546633526909D+03 -.448900732645719D+03 -.433226614360457D+03 -.103044629315572D+03
 0.525379268772058D+03 0.407427367409001D+03 0.319739566003651D+03 0.882775524888995D+02
 0.676936826783663D+02 -.259595633102539D+02 0.134183347614773D+02 0.610613137717262D+02
 0.121568967467236D+03 0.674329285469719D+02 0.100068713595329D+03 0.147670768266726D+02
0.205095736183D-05 0.000000000000D+00 0.000000000000D+00 0.435543851329D-04 0.489369643087D-08  6 21 1 25 3 2 -4 2 0.89760555D-01 0.12153736D+00 0.42514133D+06 0.42514133D+06 0.42514133D+06 0.10735244D+01  1  2  1  5  5  1       -2 0.576791513447D-04 0.100000000000D+01
  </mgrwgt>
  </event>
  <event>
  7     66 0.17058341E-05 0.30093761E+02 0.75467711E-02 0.94531411E-01
       21 -1    0    0  503  501 0.00000000E+00 0.00000000E+00 0.32489267E+03 0.32489354E+03 0.75000000E+00 0.0000E+00 0.9000E+01
        1 -1    0    0  501    0 0.00000000E+00 0.00000000E+00 -.90294596E+03 0.90294601E+03 0.32000000E+00 0.0000E+00 0.9000E+01
      -24  2    1    2    0    0 -.37349769E+03 -.27202710E+03 -.17164441E+03 0.49934779E+03 0.79919601E+02 0.0000E+00 0.0000E+00
       25  1    1    2    0    0 0.37262089E+03 0.31078082E+03 -.44764576E+03 0.67189492E+03 0.12500000E+03 0.0000E+00 0.9000E+01
        3  1    3    3  502    0 -.12058726E+03 -.45124467E+02 -.38196429E+02 0.13430087E+03 0.50000000E+00 0.0000E+00 0.9000E+01
        2  1    1    2  503    0 0.87679344E+00 -.38753722E+02 0.41236885E+02 0.56596845E+02 0.32000000E+00 0.0000E+00 0.9000E+01
       -4  1    3    3    0  502 -.25291042E+03 -.22690264E+03 -.13344798E+03 0.36504692E+03 0.15500000E+01 0.0000E+00 0.9000E+01
#aMCatNLO 2  0  0  1  2 0.82942408D+01 0.00000000D+00  -5  6  0 0.00000000D+00 0.00000000D+00 0.00000000D+00 0.00000000D+00 0.00000000D+00
  <mgrwgt>
 0.2261140002D-03    1    2    0
 0.496685649353099D+03 0.000000000000000D+00 0.000000000000000D+00 0.496685649353099D+03
 0.496685649353099D+03 0.000000000000000D+00 0.000000000000000D+00 -.496685649353099D+03
 0.501335399894652D+03 0.373068257130902D+03 0.291007619859562D+03 -.108843115962905D+03
 0.136227321116476D+03 -.120503314472746D+03 -.504108310525963D+02 0.386727595632967D+02
 0.000000000000000D+00 0.000000000000000D+00 -.000000000000000D+00 0.000000000000000D+00
 0.355808577695071D+03 -.252564942658156D+03 -.240596788806965D+03 0.701703563996080D+02
 0.585168009656210D+03 0.000000000000000D+00 0.000000000000000D+00 0.585168009656210D+03
 0.501327417731751D+03 0.000000000000000D+00 0.000000000000000D+00 -.501327417731751D+03
 0.512740553368855D+03 0.372620893231182D+03 0.310780824865500D+03 -.108843115962905D+03
 0.134470718998745D+03 -.120622734059102D+03 -.451325599086269D+02 0.386727595632967D+02
 0.923680930616025D+02 0.876793435737864D+00 -.387537223355924D+02 0.838405919244593D+02
 0.346916061958760D+03 -.252874952607818D+03 -.226894542621281D+03 0.701703563996080D+02
0.239917070672D-05 0.000000000000D+00 0.000000000000D+00 0.159882047080D-03 0.168645512995D-07  6 21 1 25 3 2 -4 2 0.49983531D-01 0.13891476D+00 0.25419425D+06 0.25419425D+06 0.25419425D+06 0.10899159D+01  1  2  1  5  5  1       -2 0.226114000192D-03 0.100000000000D+01
  </mgrwgt>
  </event>
  <event>
  7     66 0.17058341E-05 0.75196795E+02 0.75467711E-02 0.90929059E-01
       -2 -1    0    0    0  501 0.00000000E+00 0.00000000E+00 0.36444880E+04 0.36444880E+04 0.32000000E+00 0.0000E+00 0.9000E+01
        1 -1    0    0  503    0 0.00000000E+00 0.00000000E+00 -.25730379E+03 0.25730399E+03 0.32000000E+00 0.0000E+00 0.9000E+01
      -24  2    1    2    0    0 0.28617090E+03 0.63205679E+03 0.38063689E+03 0.79546915E+03 0.80604928E+02 0.0000E+00 0.0000E+00
       25  1    1    2    0    0 -.28522442E+03 -.62110638E+03 0.30139829E+04 0.30930315E+04 0.12500000E+03 0.0000E+00 0.9000E+01
        3  1    3    3  502    0 0.17952638E+03 0.29981121E+03 0.19690773E+03 0.40111019E+03 0.50000000E+00 0.0000E+00 0.9000E+01
       -4  1    3    3    0  502 0.10664452E+03 0.33224558E+03 0.18372916E+03 0.39435896E+03 0.15500000E+01 0.0000E+00 0.9000E+01
       21  1    1    2  503  501 -.94647942E+00 -.10950409E+02 -.74356250E+01 0.13291286E+02 0.75000000E+00 0.0000E+00 0.9000E+01
#aMCatNLO 2  0  0  2  1 0.17280232D+02 0.00000000D+00  -5  6  0 0.00000000D+00 0.00000000D+00 0.00000000D+00 0.00000000D+00 0.00000000D+00
  <mgrwgt>
 0.4960659512D-03    1    2    0
 0.948271217526816D+03 0.000000000000000D+00 0.000000000000000D+00 0.948271217526816D+03
 0.948271217526816D+03 0.000000000000000D+00 0.000000000000000D+00 -.948271217526816D+03
 0.950677661336499D+03 -.285697919608095D+03 -.626584626340917D+03 0.643375023239989D+03
 0.468289532616580D+03 0.179354533214687D+03 0.297200269804867D+03 -.314323141689426D+03
 0.477575241100553D+03 0.106343386393408D+03 0.329384356536051D+03 -.329051881550562D+03
 0.000000000000000D+00 -.000000000000000D+00 -.000000000000000D+00 -.000000000000000D+00
 0.949046104401412D+03 0.000000000000000D+00 0.000000000000000D+00 0.949046104401412D+03
 0.988080708479830D+03 0.000000000000000D+00 0.000000000000000D+00 -.988080708479830D+03
 0.946933222741656D+03 -.285224417268040D+03 -.621106383477863D+03 0.643375023239989D+03
 0.470102903253022D+03 0.179588686073949D+03 0.299909329764251D+03 -.314323141689426D+03
 0.479538158137516D+03 0.106582210610765D+03 0.332147462340567D+03 -.329051881550562D+03
 0.405525287490482D+02 -.946479416674158D+00 -.109504086269548D+02 -.390346040784188D+02
0.184804888766D+00 0.000000000000D+00 0.000000000000D+00 0.145450077676D-03 0.734665043485D-05  6 -2 1 25 3 -4 21 2 0.56068843D+00 0.39585071D-01 0.49293815D+06 0.49293815D+06 0.49293815D+06 0.10689473D+01  1  2  1  2  6  2        1 0.496065951224D-03 0.100000000000D+01
  </mgrwgt>
  </event>
  <event>
  7     66 0.17058341E-05 0.55188655E+02 0.75467711E-02 0.88964380E-01
       -2 -1    0    0    0  503 0.00000000E+00 0.00000000E+00 0.33828212E+03 0.33828227E+03 0.32000000E+00 0.0000E+00 0.9000E+01
        1 -1    0    0  501    0 0.00000000E+00 0.00000000E+00 -.25173336E+04 0.25173336E+04 0.32000000E+00 0.0000E+00 0.9000E+01
      -24  2    1    2    0    0 -.76613039E+03 -.31306849E+03 -.95791555E+03 0.12684865E+04 0.80549020E+02 0.0000E+00 0.0000E+00
       25  1    1    2    0    0 0.76229742E+03 0.33960570E+03 -.12738472E+04 0.15279859E+04 0.12500000E+03 0.0000E+00 0.9000E+01
        3  1    3    3  502    0 -.30717030E+03 -.16510701E+03 -.37869176E+03 0.51480250E+03 0.50000000E+00 0.0000E+00 0.9000E+01
       -4  1    3    3    0  502 -.45896009E+03 -.14796147E+03 -.57922380E+03 0.75368400E+03 0.15500000E+01 0.0000E+00 0.9000E+01
       21  1    1    2  501  503 0.38329735E+01 -.26537210E+02 0.52711230E+02 0.59143482E+02 0.75000000E+00 0.0000E+00 0.9000E+01
#aMCatNLO 2  0  0  1  2 0.13172352D+03 0.00000000D+00  -5  6  0 0.00000000D+00 0.00000000D+00 0.00000000D+00 0.00000000D+00 0.00000000D+00
  <mgrwgt>
 0.5625682355D-03    1    2    0
 0.842433123083785D+03 0.000000000000000D+00 0.000000000000000D+00 0.842433123083785D+03
 0.842433123083785D+03 0.000000000000000D+00 0.000000000000000D+00 -.842433123083785D+03
 0.845144571391312D+03 0.764223938961074D+03 0.326267609058309D+03 -.903081665764475D+02
 0.354850041342422D+03 -.306461392205382D+03 -.170735795098360D+03 0.533784151168659D+02
 0.484871633433836D+03 -.457762546755692D+03 -.155531813959950D+03 0.369297514595816D+02
 0.000000000000000D+00 0.000000000000000D+00 -.000000000000000D+00 0.000000000000000D+00
 0.100942461241328D+04 0.000000000000000D+00 0.000000000000000D+00 0.100942461241328D+04
 0.843616751856196D+03 0.000000000000000D+00 0.000000000000000D+00 -.843616751856196D+03
 0.848651839510056D+03 0.762297416372655D+03 0.339605695984294D+03 -.903081665764475D+02
 0.352903006945789D+03 -.307266389916898D+03 -.165162473759714D+03 0.533784151168659D+02
 0.483524731087192D+03 -.458863999952066D+03 -.147906012650148D+03 0.369297514595816D+02
 0.167961786726440D+03 0.383297349630781D+01 -.265372095744315D+02 0.165807860557084D+03
0.100103884323D-02 0.000000000000D+00 0.000000000000D+00 0.253805276158D-03 0.213800568945D-05  6 -2 1 25 3 -4 21 2 0.52043365D-01 0.38728172D+00 0.72386141D+06 0.72386141D+06 0.72386141D+06 0.10573360D+01  1  2  1  1  6  1       -2 0.562568235527D-03 0.100000000000D+01
  </mgrwgt>
  </event>
  <event>
  7     66 0.17058341E-05 0.56084929E+02 0.75467711E-02 0.93837050E-01
       21 -1    0    0  503  501 0.00000000E+00 0.00000000E+00 0.16085735E+04 0.16085737E+04 0.75000000E+00 0.0000E+00 0.9000E+01
        1 -1    0    0  501    0 0.00000000E+00 0.00000000E+00 -.25370750E+03 0.25370770E+03 0.32000000E+00 0.0000E+00 0.9000E+01
      -24  2    1    2    0    0 0.48122513E+03 0.20840014E+03 0.48377888E+03 0.71790944E+03 0.79647446E+02 0.0000E+00 0.0000E+00
       25  1    1    2    0    0 -.46837069E+03 -.21807534E+03 0.38094660E+03 0.65396733E+03 0.12500000E+03 0.0000E+00 0.9000E+01
        3  1    3    3  502    0 0.18498367E+03 0.93400729E+02 0.24202884E+03 0.31862339E+03 0.50000000E+00 0.0000E+00 0.9000E+01
        2  1    1    2  503    0 -.12854444E+02 0.96751936E+01 0.49014056E+03 0.49040465E+03 0.32000000E+00 0.0000E+00 0.9000E+01
       -4  1    3    3    0  502 0.29624146E+03 0.11499942E+03 0.24175004E+03 0.39928605E+03 0.15500000E+01 0.0000E+00 0.9000E+01
#aMCatNLO 2  0  0  1  2 0.13172352D+03 0.00000000D+00  -5  6  0 0.00000000D+00 0.00000000D+00 0.00000000D+00 0.00000000D+00 0.00000000D+00
  <mgrwgt>
 0.1883031620D-03    1    2    0
 0.532455839287738D+03 0.000000000000000D+00 0.000000000000000D+00 0.532455839287738D+03
 0.532455839287738D+03 0.000000000000000D+00 0.000000000000000D+00 -.532455839287738D+03
 0.536813611164001D+03 -.474827614548309D+03 -.213215385441906D+03 -.402714415455577D+02
 0.212620302161387D+03 0.182467498041179D+03 0.953694005562355D+02 0.530818470603296D+02
 0.000000000000000D+00 -.000000000000000D+00 0.000000000000000D+00 0.000000000000000D+00
 0.315477765250088D+03 0.292360116507131D+03 0.117845984885671D+03 -.128104055147719D+02
 0.765976197842718D+03 0.000000000000000D+00 0.000000000000000D+00 0.765976197842718D+03
 0.532793787990700D+03 0.000000000000000D+00 0.000000000000000D+00 -.532793787990700D+03
 0.533080430532064D+03 -.468370689926248D+03 -.218075338427122D+03 -.402714415455577D+02
 0.213980640371693D+03 0.185042080216877D+03 0.934315820028458D+02 0.530818470603296D+02
 0.233736780115877D+03 -.128544444880008D+02 0.967519361296378D+01 0.233182409852018D+03
 0.317972134813784D+03 0.296183054197372D+03 0.114968562811313D+03 -.128104055147719D+02
0.285449402604D-04 0.000000000000D+00 0.000000000000D+00 0.127704869612D-03 0.147135729584D-06  6 21 1 25 3 2 -4 2 0.24747283D+00 0.39031944D-01 0.28764554D+06 0.28764554D+06 0.28764554D+06 0.10859057D+01  1  2  1  5  5  1       -2 0.188303162016D-03 0.100000000000D+01
  </mgrwgt>
  </event>
  <event>
  7     66 0.17058341E-05 0.32837681E+02 0.75467711E-02 0.95147294E-01
       -2 -1    0    0    0  503 0.00000000E+00 0.00000000E+00 0.56083255E+03 0.56083264E+03 0.32000000E+00 0.0000E+00 0.9000E+01
        1 -1    0    0  501    0 0.00000000E+00 0.00000000E+00 -.50029779E+03 0.50029789E+03 0.32000000E+00 0.0000E+00 0.9000E+01
      -24  2    1    2    0    0 0.44586002E+03 0.78495648E+02 -.83663585E+02 0.46691739E+03 0.77842976E+02 0.0000E+00 0.0000E+00
       25  1    1    2    0    0 -.46005211E+03 -.85413187E+02 0.36866453E+02 0.48572367E+03 0.12500000E+03 0.0000E+00 0.9000E+01
        3  1    3    3  502    0 0.34763378E+03 0.80881107E+02 -.91122080E+02 0.36836732E+03 0.50000000E+00 0.0000E+00 0.9000E+01
       -4  1    3    3    0  502 0.98226241E+02 -.23854593E+01 0.74584951E+01 0.98550071E+02 0.15500000E+01 0.0000E+00 0.9000E+01
       21  1    1    2  501  503 0.14192089E+02 0.69175385E+01 0.10733189E+03 0.10848947E+03 0.75000000E+00 0.0000E+00 0.9000E+01
#aMCatNLO 2  0  0  1  2 0.13172352D+03 0.00000000D+00  -5  6  0 0.00000000D+00 0.00000000D+00 0.00000000D+00 0.00000000D+00 0.00000000D+00
  <mgrwgt>
 0.1542563210D-02    1    2    0
 0.475679974425434D+03 0.000000000000000D+00 0.000000000000000D+00 0.475679974425434D+03
 0.475679974425434D+03 0.000000000000000D+00 0.000000000000000D+00 -.475679974425434D+03
 0.480707236308477D+03 -.452826243529980D+03 -.818911410950350D+02 0.608003389794337D+02
 0.370297769115727D+03 0.353247767073319D+03 0.835844355474165D+02 -.731443436228538D+02
 0.100354943426664D+03 0.995784764566603D+02 -.169329445238147D+01 0.123440046434201D+02
 0.000000000000000D+00 0.000000000000000D+00 0.000000000000000D+00 0.000000000000000D+00
 0.589092434729029D+03 0.000000000000000D+00 0.000000000000000D+00 0.589092434729029D+03
 0.476295262060117D+03 0.000000000000000D+00 0.000000000000000D+00 -.476295262060117D+03
 0.488123994277359D+03 -.460052105893324D+03 -.854131865251901D+02 0.608003389794337D+02
 0.364471357909916D+03 0.347767616957275D+03 0.809132889489580D+02 -.731443436228538D+02
 0.988955936417896D+02 0.980924003360459D+02 -.241764088278456D+01 0.123440046434201D+02
 0.113896750960081D+03 0.141920886000030D+02 0.691753845901663D+01 0.112797172668912D+03
0.222239057046D-03 0.000000000000D+00 0.000000000000D+00 0.363979103081D-04 0.952277810738D-06  6 -2 1 25 3 -4 21 2 0.86281723D-01 0.76968706D-01 0.22814445D+06 0.22814445D+06 0.22814445D+06 0.10934606D+01  1  2  1  1  6  1       -2 0.154256320981D-02 0.100000000000D+01
  </mgrwgt>
  </event>
  <event>
  7     66 0.17058341E-05 0.43178768E+02 0.75467711E-02 0.91824930E-01
       -2 -1    0    0    0  503 0.00000000E+00 0.00000000E+00 0.97378586E+03 0.97378591E+03 0.32000000E+00 0.0000E+00 0.9000E+01
        1 -1    0    0  501    0 0.00000000E+00 0.00000000E+00 -.53671882E+03 0.53671892E+03 0.32000000E+00 0.0000E+00 0.9000E+01
      -24  2    1    2    0    0 -.60612338E+03 0.12459990E+03 -.12247647E+03 0.63469852E+03 0.70221365E+02 0.0000E+00 0.0000E+00
       25  1    1    2    0    0 0.57022770E+03 -.17437700E+03 0.53074473E+03 0.80801110E+03 0.12500000E+03 0.0000E+00 0.9000E+01
        3  1    3    3  502    0 -.12617982E+03 0.37042618E+02 0.75628915E+00 0.13150789E+03 0.50000000E+00 0.0000E+00 0.9000E+01
       -4  1    3    3    0  502 -.47994356E+03 0.87557287E+02 -.12323276E+03 0.50319063E+03 0.15500000E+01 0.0000E+00 0.9000E+01
       21  1    1    2  501  503 0.35895680E+02 0.49777094E+02 0.28798768E+02 0.67795209E+02 0.75000000E+00 0.0000E+00 0.9000E+01
#aMCatNLO 2  0  0  1  2 0.73308305D+01 0.00000000D+00  -5  6  0 0.00000000D+00 0.00000000D+00 0.00000000D+00 0.00000000D+00 0.00000000D+00
  <mgrwgt>
 0.2688158442D-04    1    2    0
 0.691187710329300D+03 0.000000000000000D+00 0.000000000000000D+00 0.691187710329300D+03
 0.691187710329300D+03 0.000000000000000D+00 0.000000000000000D+00 -.691187710329300D+03
 0.695055675534750D+03 0.588147658651974D+03 -.149527110506573D+03 0.314962484970550D+03
 0.135119431112453D+03 -.122686637420892D+03 0.419518087888377D+02 -.380170409402491D+02
 0.552200314011396D+03 -.465461021231083D+03 0.107575301717735D+03 -.276945444030301D+03
 0.000000000000000D+00 0.000000000000000D+00 0.000000000000000D+00 0.000000000000000D+00
 0.727971633982924D+03 0.000000000000000D+00 0.000000000000000D+00 0.727971633982924D+03
 0.717948354323487D+03 0.000000000000000D+00 0.000000000000000D+00 -.717948354323487D+03
 0.685852265664309D+03 0.570227696399441D+03 -.174376998589346D+03 0.314962484970550D+03
 0.136927663440747D+03 -.126216976786651D+03 0.370562327325363D+02 -.380170409402491D+02
 0.560957062724239D+03 -.479906399939609D+03 0.875436722331696D+02 -.276945444030301D+03
 0.621829964771166D+02 0.358956803268197D+02 0.497770936236397D+02 0.100232796594365D+02
0.182407547881D-04 0.000000000000D+00 0.000000000000D+00 0.132141207190D-05 0.216413951782D-08  6 -2 1 25 3 -4 21 2 0.14981275D+00 0.82571879D-01 0.41602190D+06 0.41602190D+06 0.41602190D+06 0.10742002D+01  1  2  1  1  6  1       -2 0.268815844232D-04 0.100000000000D+01
  </mgrwgt>
  </event>
  <event>
  6     66 0.17058341E-05 0.34855745E+02 0.75467711E-02 0.94712108E-01
       -4 -1    0    0    0  501 0.00000000E+00 0.00000000E+00 0.40364849E+03 0.40365147E+03 0.15500000E+01 0.0000E+00 0.9000E+01
        3 -1    0    0  501    0 -.00000000E+00 -.00000000E+00 -.66855260E+03 0.66855279E+03 0.50000000E+00 0.0000E+00 0.9000E+01
       25  1    1    2    0    0 0.35713546E+03 -.31580090E+03 -.27472127E+03 0.56424527E+03 0.12500000E+03 0.0000E+00 0.9000E+01
        1  1    1    2  503    0 -.93248380E+02 0.11272307E+03 -.38060820E+02 0.15116375E+03 0.32000000E+00 0.0000E+00 0.9000E+01
       -2  1    1    2    0  502 -.18778283E+03 0.20385846E+03 0.43490559E+02 0.28055693E+03 0.32000000E+00 0.0000E+00 0.9000E+01
       21  1    1    2  502  503 -.76104252E+02 -.78062529E+00 0.43874234E+01 0.76238301E+02 0.75000000E+00 0.0000E+00 0.9000E+01
#aMCatNLO 2  0  0  4  5 0.55658513D+02 0.00000000D+00  -5  6  0 0.00000000D+00 0.00000000D+00 0.00000000D+00 0.00000000D+00 0.00000000D+00
  <mgrwgt>
 0.2024161556D-03    1    2    0
 0.519482379668973D+03 0.000000000000000D+00 0.000000000000000D+00 0.519482379668973D+03
 0.519482379668973D+03 -.000000000000000D+00 -.000000000000000D+00 -.519482379668973D+03
 0.522629639737171D+03 0.366211908029130D+03 -.321800455674217D+03 -.140890189428984D+03
 0.221549962967893D+03 -.183629818117995D+03 0.121369693985924D+03 0.251768419542611D+02
 0.294785156632882D+03 -.182582089911135D+03 0.200430761688293D+03 0.115713347474723D+03
 0.000000000000000D+00 0.000000000000000D+00 0.000000000000000D+00 0.000000000000000D+00
 0.519482379668973D+03 0.000000000000000D+00 0.000000000000000D+00 0.519482379668973D+03
 0.519482379668973D+03 -.000000000000000D+00 -.000000000000000D+00 -.519482379668973D+03
 0.512234921757190D+03 0.357120433873656D+03 -.315791467333218D+03 -.139643689213009D+03
 0.145978725363193D+03 -.929147988532842D+02 0.112587594392034D+03 -.813634888165039D+00
 0.300666462894477D+03 -.187813241127629D+03 0.203888278712745D+03 0.116430572317433D+03
 0.800846493230852D+02 -.763923938927423D+02 -.684405771561146D+00 0.240267517837408D+02
0.274491820660D-03 0.000000000000D+00 0.000000000000D+00 0.137982339741D-05 0.201622484492D-07  6 -4 3 25 1 -2 21 2 0.62100011D-01 0.10285449D+00 0.24622077D+06 0.24622077D+06 0.24622077D+06 0.10909571D+01  1  2  1  3  6  4        1 0.202416155602D-03 0.100000000000D+01
  </mgrwgt>
  </event>
  <event>
  7     66 0.17058341E-05 0.53962187E+02 0.75467711E-02 0.92634566E-01
       21 -1    0    0  503  501 0.00000000E+00 0.00000000E+00 0.14833522E+03 0.14833712E+03 0.75000000E+00 0.0000E+00 0.9000E+01
        1 -1    0    0  501    0 0.00000000E+00 0.00000000E+00 -.28759939E+04 0.28759940E+04 0.32000000E+00 0.0000E+00 0.9000E+01
      -24  2    1    2    0    0 0.31735330E+03 -.49762183E+03 -.83665321E+03 0.10270188E+04 0.80239700E+02 0.0000E+00 0.0000E+00
       25  1    1    2    0    0 -.29384396E+03 0.48165747E+03 -.18800353E+04 0.19668492E+04 0.12500000E+03 0.0000E+00 0.9000E+01
        3  1    3    3  502    0 0.13279987E+03 -.20973720E+03 -.42138010E+03 0.48906742E+03 0.50000000E+00 0.0000E+00 0.9000E+01
        2  1    1    2  503    0 -.23509346E+02 0.15964359E+02 -.10970232E+02 0.30463068E+02 0.32000000E+00 0.0000E+00 0.9000E+01
       -4  1    3    3    0  502 0.18455343E+03 -.28788463E+03 -.41527311E+03 0.53795138E+03 0.15500000E+01 0.0000E+00 0.9000E+01
#aMCatNLO 2  0  0  1  4 0.63796808D+02 0.00000000D+00  -5  6  0 0.00000000D+00 0.00000000D+00 0.00000000D+00 0.00000000D+00 0.00000000D+00
  <mgrwgt>
 0.1471908108D-03    1    2    0
 0.628896213702158D+03 0.000000000000000D+00 0.000000000000000D+00 0.628896213702158D+03
 0.628896213702158D+03 0.000000000000000D+00 0.000000000000000D+00 -.628896213702158D+03
 0.632548084383933D+03 -.305555450436715D+03 0.489610333548342D+03 -.226736999735113D+03
 0.248906662575543D+03 0.128143089108065D+03 -.206613262847082D+03 0.533369947036783D+02
 0.000000000000000D+00 -.000000000000000D+00 0.000000000000000D+00 0.000000000000000D+00
 0.376337680444840D+03 0.177412361328650D+03 -.282997070701260D+03 0.173400005031434D+03
 0.673294983421240D+03 0.000000000000000D+00 0.000000000000000D+00 0.673294983421240D+03
 0.633620341361295D+03 0.000000000000000D+00 0.000000000000000D+00 -.633620341361295D+03
 0.620784068466827D+03 -.293843955042551D+03 0.481657474454926D+03 -.226736999735113D+03
 0.253987709315877D+03 0.132842278470407D+03 -.209804314851475D+03 0.533369947036783D+02
 0.488019194968146D+02 -.235093462692082D+02 0.159643591159595D+02 0.396746420599445D+02
 0.383341627503016D+03 0.184511022841352D+03 -.287817518719410D+03 0.173400005031434D+03
0.781907875538D-05 0.000000000000D+00 0.000000000000D+00 0.308009068290D-03 0.272741418225D-07  6 21 1 25 3 2 -4 2 0.22820932D-01 0.44246039D+00 0.35791446D+06 0.35791446D+06 0.35791446D+06 0.10789255D+01  1  2  1  5  5  1       -2 0.147190810787D-03 0.100000000000D+01
  </mgrwgt>
  </event>
  <event>
  7     66 0.17058341E-05 0.39445143E+02 0.75467711E-02 0.93365979E-01
       -2 -1    0    0    0  503 0.00000000E+00 0.00000000E+00 0.17729455E+03 0.17729484E+03 0.32000000E+00 0.0000E+00 0.9000E+01
        1 -1    0    0  501    0 0.00000000E+00 0.00000000E+00 -.26737313E+04 0.26737313E+04 0.32000000E+00 0.0000E+00 0.9000E+01
      -24  2    1    2    0    0 0.41145692E+03 -.34719727E+03 -.20463056E+04 0.21176763E+04 0.85692963E+02 0.0000E+00 0.0000E+00
       25  1    1    2    0    0 -.40491585E+03 0.36284886E+03 -.44935427E+03 0.71635215E+03 0.12500000E+03 0.0000E+00 0.9000E+01
        3  1    3    3  502    0 0.33831311E+03 -.24099128E+03 -.16090249E+04 0.16617744E+04 0.50000000E+00 0.0000E+00 0.9000E+01
       -4  1    3    3    0  502 0.73143812E+02 -.10620600E+03 -.43728069E+03 0.45590189E+03 0.15500000E+01 0.0000E+00 0.9000E+01
       21  1    1    2  501  503 -.65410728E+01 -.15651585E+02 -.77686830E+00 0.16997758E+02 0.75000000E+00 0.0000E+00 0.9000E+01
#aMCatNLO 2  0  0  1  4 0.63796808D+02 0.00000000D+00  -5  6  0 0.00000000D+00 0.00000000D+00 0.00000000D+00 0.00000000D+00 0.00000000D+00
  <mgrwgt>
 0.1038002755D-02    1    2    0
 0.671399834756167D+03 0.000000000000000D+00 0.000000000000000D+00 0.671399834756167D+03
 0.671399834756167D+03 0.000000000000000D+00 0.000000000000000D+00 -.671399834756167D+03
 0.674483585050140D+03 -.408206642689206D+03 0.354974598758352D+03 0.382966679494238D+03
 0.518108920323047D+03 0.335900553593972D+03 -.247098331623262D+03 -.307489976946528D+03
 0.150207164139147D+03 0.723060890952337D+02 -.107876267135090D+03 -.754767025477103D+02
 0.000000000000000D+00 -.000000000000000D+00 -.000000000000000D+00 0.000000000000000D+00
 0.703637641952129D+03 0.000000000000000D+00 0.000000000000000D+00 0.703637641952129D+03
 0.673688645101649D+03 0.000000000000000D+00 0.000000000000000D+00 -.673688645101649D+03
 0.676686499358350D+03 -.404915850522111D+03 0.362848859453865D+03 0.382966679494238D+03
 0.516906344694814D+03 0.338421346620881D+03 -.241066537317993D+03 -.307489976946528D+03
 0.149313969608409D+03 0.730355766795058D+02 -.106130737450738D+03 -.754767025477103D+02
 0.344194733922051D+02 -.654107277827544D+01 -.156515846851339D+02 0.299489968504806D+02
0.641076000595D-03 0.000000000000D+00 0.000000000000D+00 0.544852153439D-05 0.118671005545D-06  6 -2 1 25 3 -4 21 2 0.27275943D-01 0.41134082D+00 0.31314571D+06 0.31314571D+06 0.31314571D+06 0.10831766D+01  1  2  1  1  6  1       -2 0.103800275485D-02 0.100000000000D+01
  </mgrwgt>
  </event>
  <event>
  7     66 0.17058341E-05 0.63073182E+02 0.75467711E-02 0.92783527E-01
       -4 -1    0    0    0  501 0.00000000E+00 0.00000000E+00 0.64347964E+03 0.64348150E+03 0.15500000E+01 0.0000E+00 0.9000E+01
       21 -1    0    0  501  503 0.00000000E+00 0.00000000E+00 -.55979477E+03 0.55979528E+03 0.75000000E+00 0.0000E+00 0.9000E+01
      -24  2    1    2    0    0 0.42189875E+03 0.26424243E+03 -.29347620E+01 0.50448568E+03 0.81698042E+02 0.0000E+00 0.0000E+00
       25  1    1    2    0    0 -.43379970E+03 -.36115675E+03 0.12898972E+03 0.59235101E+03 0.12500000E+03 0.0000E+00 0.9000E+01
        1  1    3    3  502    0 0.23789093E+03 0.19592374E+03 -.33524629E+01 0.30820375E+03 0.32000000E+00 0.0000E+00 0.9000E+01
       -2  1    3    3    0  502 0.18400781E+03 0.68318692E+02 0.41770088E+00 0.19628193E+03 0.32000000E+00 0.0000E+00 0.9000E+01
       -3  1    1    2    0  503 0.11900949E+02 0.96914319E+02 -.42370093E+02 0.10644009E+03 0.50000000E+00 0.0000E+00 0.9000E+01
#aMCatNLO 2  0  0  2  4 0.47405394D+02 0.00000000D+00  -5  6  0 0.00000000D+00 0.00000000D+00 0.00000000D+00 0.00000000D+00 0.00000000D+00
  <mgrwgt>
 0.2277846082D-04    1    2    0
 0.542592586784567D+03 0.000000000000000D+00 0.000000000000000D+00 0.542592586784567D+03
 0.542592586784567D+03 0.000000000000000D+00 0.000000000000000D+00 -.542592586784567D+03
 0.546716505105122D+03 -.427626397834418D+03 -.310885051359939D+03 0.613195374285181D+02
 0.332010441052524D+03 0.241408596983976D+03 0.224564757064740D+03 -.390319376225969D+02
 0.206458227411488D+03 0.186217800850442D+03 0.863202942951987D+02 -.222875998059212D+02
 0.000000000000000D+00 0.000000000000000D+00 0.000000000000000D+00 -.000000000000000D+00
 0.573326485259600D+03 0.000000000000000D+00 0.000000000000000D+00 0.573326485259600D+03
 0.628293458023822D+03 0.000000000000000D+00 0.000000000000000D+00 -.628293458023822D+03
 0.581378931781539D+03 -.433799695679642D+03 -.361156753608797D+03 0.613195374285181D+02
 0.310649096832084D+03 0.237891759125483D+03 0.195925700581109D+03 -.390319376225969D+02
 0.197541096621114D+03 0.184006987762318D+03 0.683167344345560D+02 -.222875998059212D+02
 0.112050818048686D+03 0.119009487918416D+02 0.969143185931321D+02 -.549669727642216D+02
0.515204654303D-05 0.000000000000D+00 0.000000000000D+00 0.105123965812D-03 0.161247932430D-08  6 -4 21 25 1 -2 -3 2 0.98996956D-01 0.86122373D-01 0.34824481D+06 0.34824481D+06 0.34824481D+06 0.10797927D+01  1  2  1  6  6  2        3 0.227784608179D-04 0.100000000000D+01
  </mgrwgt>
  </event>
  <event>
  7     66 0.17058341E-05 0.13288451E+02 0.75467711E-02 0.92028406E-01
       -2 -1    0    0    0  501 0.00000000E+00 0.00000000E+00 0.51106782E+03 0.51106792E+03 0.32000000E+00 0.0000E+00 0.9000E+01
        1 -1    0    0  503    0 0.00000000E+00 0.00000000E+00 -.97421930E+03 0.97421935E+03 0.32000000E+00 0.0000E+00 0.9000E+01
      -24  2    1    2    0    0 0.60348522E+03 -.13947201E+02 0.81246318E+02 0.61455393E+03 0.81771820E+02 0.0000E+00 0.0000E+00
       25  1    1    2    0    0 -.62529657E+03 0.19760545E+02 -.46842727E+03 0.79147671E+03 0.12500000E+03 0.0000E+00 0.9000E+01
        3  1    3    3  502    0 0.49440153E+02 0.10506323E+02 0.27039412E+02 0.57324439E+02 0.50000000E+00 0.0000E+00 0.9000E+01
       -4  1    3    3    0  502 0.55404507E+03 -.24453524E+02 0.54206906E+02 0.55722949E+03 0.15500000E+01 0.0000E+00 0.9000E+01
       21  1    1    2  503  501 0.21811348E+02 -.58133442E+01 -.75970526E+02 0.79256628E+02 0.75000000E+00 0.0000E+00 0.9000E+01
#aMCatNLO 2  0  0  2  4 0.47405394D+02 0.00000000D+00  -5  6  0 0.00000000D+00 0.00000000D+00 0.00000000D+00 0.00000000D+00 0.00000000D+00
  <mgrwgt>
 0.2180057932D-03    1    2    0
 0.675740990058208D+03 0.000000000000000D+00 0.000000000000000D+00 0.675740990058208D+03
 0.675740990058208D+03 0.000000000000000D+00 0.000000000000000D+00 -.675740990058208D+03
 0.679047867156412D+03 -.614256952624472D+03 0.168181731394805D+02 -.260550477056596D+03
 0.681391887436357D+02 0.505306556373197D+02 0.102195760417998D+02 0.445551585007762D+02
 0.604294924216368D+03 0.563726296987152D+03 -.270377491812803D+02 0.215995318555820D+03
 0.000000000000000D+00 0.000000000000000D+00 -.000000000000000D+00 -.000000000000000D+00
 0.678012702668807D+03 0.000000000000000D+00 0.000000000000000D+00 0.678012702668807D+03
 0.734335580181105D+03 0.000000000000000D+00 0.000000000000000D+00 -.734335580181105D+03
 0.689128311370680D+03 -.625296569085072D+03 0.197605447450744D+02 -.260550477056596D+03
 0.673771453520754D+02 0.494371938624087D+02 0.105110146882223D+02 0.445551585007762D+02
 0.595165018074345D+03 0.554048027528464D+03 -.244582152501728D+02 0.215995318555820D+03
 0.606778080528131D+02 0.218113476941995D+02 -.581334418312392D+01 -.563228775122979D+02
0.749394537676D-04 0.000000000000D+00 0.000000000000D+00 0.178058042223D-04 0.216623899842D-06  6 -2 1 25 3 -4 21 2 0.78625562D-01 0.14987939D+00 0.40048455D+06 0.40048455D+06 0.40048455D+06 0.10753897D+01  1  2  1  2  6  2        1 0.218005793154D-03 0.100000000000D+01
  </mgrwgt>
  </event>
  <event>
  7     66 0.17058341E-05 0.33474215E+02 0.75467711E-02 0.88064758E-01
       -2 -1    0    0    0  501 0.00000000E+00 0.00000000E+00 0.70094972E+03 0.70094979E+03 0.32000000E+00 0.0000E+00 0.9000E+01
        1 -1    0    0  503    0 0.00000000E+00 0.00000000E+00 -.13014490E+04 0.13014490E+04 0.32000000E+00 0.0000E+00 0.9000E+01
      -24  2    1    2    0    0 0.46963537E+03 0.79133612E+03 -.42323980E+03 0.10166578E+04 0.87698107E+02 0.0000E+00 0.0000E+00
       25  1    1    2    0    0 -.48141946E+03 -.78536763E+03 -.13243582E+03 0.93900546E+03 0.12500000E+03 0.0000E+00 0.9000E+01
        3  1    3    3  502    0 0.71870495E+02 0.14248024E+03 -.10904459E+03 0.19327949E+03 0.50000000E+00 0.0000E+00 0.9000E+01
       -4  1    3    3    0  502 0.39776487E+03 0.64885588E+03 -.31419521E+03 0.82337833E+03 0.15500000E+01 0.0000E+00 0.9000E+01
       21  1    1    2  503  501 0.11784096E+02 -.59684961E+01 -.44823631E+02 0.46735514E+02 0.75000000E+00 0.0000E+00 0.9000E+01
#aMCatNLO 2  0  0  2  1 0.63926486D+01 0.00000000D+00  -5  6  0 0.00000000D+00 0.00000000D+00 0.00000000D+00 0.00000000D+00 0.00000000D+00
  <mgrwgt>
 0.3490194432D-03    1    2    0
 0.937505865792216D+03 0.000000000000000D+00 0.000000000000000D+00 0.937505865792216D+03
 0.937505865792216D+03 0.000000000000000D+00 0.000000000000000D+00 -.937505865792216D+03
 0.939621597398906D+03 -.475512614018332D+03 -.788359373451901D+03 0.140146346718174D+03
 0.169303032111163D+03 0.729440343426707D+02 0.141964750556831D+03 -.564685234018535D+02
 0.766087102074364D+03 0.402568579675661D+03 0.646394622895070D+03 -.836778233163210D+02
 0.000000000000000D+00 0.000000000000000D+00 -.000000000000000D+00 -.000000000000000D+00
 0.938805499120553D+03 0.000000000000000D+00 0.000000000000000D+00 0.938805499120553D+03
 0.971705747817131D+03 0.000000000000000D+00 0.000000000000000D+00 -.971705747817131D+03
 0.940123933593003D+03 -.481419464179027D+03 -.785367628264311D+03 0.140146346718174D+03
 0.169300692981602D+03 0.718800172004564D+02 0.142503661834099D+03 -.564685234018535D+02
 0.765633634237620D+03 0.397755351114532D+03 0.648832462520722D+03 -.836778233163210D+02
 0.354529861254584D+02 0.117840958640381D+02 -.596849609051004D+01 -.329002486965779D+02
0.479599947001D-03 0.000000000000D+00 0.000000000000D+00 0.362409184009D-05 0.122663313514D-06  6 -2 1 25 3 -4 21 2 0.10783797D+00 0.20022208D+00 0.86814106D+06 0.86814106D+06 0.86814106D+06 0.10519764D+01  1  2  1  2  6  2        1 0.349019443151D-03 0.100000000000D+01
  </mgrwgt>
  </event>
  <event>
  6     66 0.17058341E-05 0.33388442E+02 0.75467711E-02 0.91032469E-01
       -2 -1    0    0    0  501 0.00000000E+00 0.00000000E+00 0.61418357E+03 0.61418366E+03 0.32000000E+00 0.0000E+00 0.9000E+01
        1 -1    0    0  501    0 -.00000000E+00 -.00000000E+00 -.93365388E+03 0.93365393E+03 0.32000000E+00 0.0000E+00 0.9000E+01
       25  1    1    2    0    0 0.42591891E+03 0.53850572E+03 0.13492771E+03 0.71079238E+03 0.12500000E+03 0.0000E+00 0.9000E+01
        3  1    1    2  503    0 -.67439345E+02 -.14087432E+03 -.11731646E+03 0.19533827E+03 0.50000000E+00 0.0000E+00 0.9000E+01
       -4  1    1    2    0  502 -.32695289E+03 -.37518741E+03 -.34027135E+03 0.60286879E+03 0.15500000E+01 0.0000E+00 0.9000E+01
       21  1    1    2  502  503 -.31526678E+02 -.22443993E+02 0.31898028E+01 0.38838147E+02 0.75000000E+00 0.0000E+00 0.9000E+01
#aMCatNLO 2  0  0  4  5 0.91625440D+00 0.00000000D+00  -5  6  0 0.00000000D+00 0.00000000D+00 0.00000000D+00 0.00000000D+00 0.00000000D+00
  <mgrwgt>
 0.4387290518D-02    1    2    0
 0.757254899425635D+03 0.000000000000000D+00 0.000000000000000D+00 0.757254899425635D+03
 0.757254899425635D+03 -.000000000000000D+00 -.000000000000000D+00 -.757254899425635D+03
 0.761186218421804D+03 0.429062952083320D+03 0.543694161549689D+03 0.289967413620245D+03
 0.213402063165929D+03 -.104289279143171D+03 -.172172205117173D+03 -.708584406006993D+02
 0.539921517263536D+03 -.324773672940148D+03 -.371521956432516D+03 -.219108973019545D+03
 0.000000000000000D+00 -.000000000000000D+00 0.000000000000000D+00 0.000000000000000D+00
 0.757254899425635D+03 0.000000000000000D+00 0.000000000000000D+00 0.757254899425635D+03
 0.757254899425635D+03 -.000000000000000D+00 -.000000000000000D+00 -.757254899425635D+03
 0.754873377865218D+03 0.425908623762100D+03 0.538486649644439D+03 0.287824232769628D+03
 0.174631380373081D+03 -.672179621314464D+02 -.140674120835169D+03 -.786680132274558D+02
 0.544464395903223D+03 -.327029856803508D+03 -.375246712745876D+03 -.220641917456208D+03
 0.405406447097479D+02 -.316608048271456D+02 -.225658160633936D+02 0.114856979140360D+02
0.218467401178D-02 0.000000000000D+00 0.000000000000D+00 0.661669202250D-06 0.596089670373D-07  6 -2 1 25 3 -4 21 2 0.94489791D-01 0.14363907D+00 0.48329546D+06 0.48329546D+06 0.48329546D+06 0.10695549D+01  1  2  1  3  6  4        3 0.438729051798D-02 0.100000000000D+01
  </mgrwgt>
  </event>
  <event>
  6     66 0.17058341E-05 0.10377175E+03 0.75467711E-02 0.92351403E-01
       -2 -1    0    0    0  501 0.00000000E+00 0.00000000E+00 0.27387237E+03 0.27387255E+03 0.32000000E+00 0.0000E+00 0.9000E+01
        1 -1    0    0  501    0 -.00000000E+00 -.00000000E+00 -.17049170E+04 0.17049170E+04 0.32000000E+00 0.0000E+00 0.9000E+01
       25  1    1    2    0    0 -.15902521E+03 0.58003341E+03 -.77992210E+03 0.99278963E+03 0.12500000E+03 0.0000E+00 0.9000E+01
        3  1    1    2  503    0 0.83377246E+02 -.15353144E+03 -.67022360E+02 0.18712540E+03 0.50000000E+00 0.0000E+00 0.9000E+01
       -4  1    1    2    0  502 0.86948221E+02 -.30303506E+03 -.15325049E+03 0.35054009E+03 0.15500000E+01 0.0000E+00 0.9000E+01
       21  1    1    2  502  503 -.11300254E+02 -.12346691E+03 -.43084969E+03 0.44833446E+03 0.75000000E+00 0.0000E+00 0.9000E+01
#aMCatNLO 2  0  0  4  1 0.52366170D+02 0.00000000D+00  -5  6  0 0.00000000D+00 0.00000000D+00 0.00000000D+00 0.00000000D+00 0.00000000D+00
  <mgrwgt>
 0.1007947299D-01    1    2    0
 0.683322666859934D+03 0.000000000000000D+00 0.000000000000000D+00 0.683322666859934D+03
 0.683322666859934D+03 -.000000000000000D+00 -.000000000000000D+00 -.683322666859934D+03
 0.669769944759452D+03 -.172051367203627D+03 0.630093985831625D+03 -.796660213971963D+02
 0.371690291572775D+03 0.918898368211930D+02 -.353140773312280D+03 -.707214604121968D+02
 0.325185097387641D+03 0.801615303824335D+02 -.276953212519345D+03 0.150387481809393D+03
 0.000000000000000D+00 0.000000000000000D+00 0.000000000000000D+00 -.000000000000000D+00
 0.683322666859934D+03 0.000000000000000D+00 0.000000000000000D+00 0.683322666859934D+03
 0.683322666859934D+03 -.000000000000000D+00 -.000000000000000D+00 -.683322666859934D+03
 0.620803588672524D+03 -.159025186722604D+03 0.580033221687218D+03 -.896914011244822D+02
 0.200281105229267D+03 0.832167164940700D+02 -.152904464326483D+03 0.990339537574535D+02
 0.347073155481832D+03 0.869468526479908D+02 -.303029806350876D+03 0.145165273167088D+03
 0.198487484336245D+03 -.111383824194572D+02 -.124098951009859D+03 -.154507825800060D+03
0.309164182207D-02 0.000000000000D+00 0.000000000000D+00 0.667569170124D-08 0.222122840718D-09  6 -2 1 25 3 -4 21 2 0.42134227D-01 0.26229494D+00 0.37713574D+06 0.37713574D+06 0.37713574D+06 0.10772752D+01  1  2  1  3  6  4        3 0.100794729872D-01 0.100000000000D+01
  </mgrwgt>
  </event>
</LesHouchesEvents>
