<LesHouchesEvents version="3.0">
  <!--
  <scalesfunctionalform>
    muR  H_T/2 := sum_i mT(i)/2, i=final state
    muF1 H_T/2 := sum_i mT(i)/2, i=final state
    muF2 H_T/2 := sum_i mT(i)/2, i=final state
    QES  H_T/2 := sum_i mT(i)/2, i=final state
  </scalesfunctionalform>
HERWIG6   
  -->
  <header>
      168
  </header>
  <init>
   2212   2212 0.65000000D+04 0.65000000D+04 -1 -1   244800   244800 -4   1
 0.16387517D-03 0.79737809D-05 0.18829897D-05     66
  </init>
  <event>
  6     66 -.18829897E-05 0.14570206E+03 0.75467711E-02 0.94786671E-01
       -3 -1    0    0    0  501 0.00000000E+00 0.00000000E+00 0.13329208E+04 0.13329209E+04 0.50000000E+00 0.0000E+00 0.9000E+01
        3 -1    0    0  502    0 -.00000000E+00 -.00000000E+00 -.14461434E+04 0.14461435E+04 0.50000000E+00 0.0000E+00 0.9000E+01
       25  1    1    2    0    0 -.40016140E+03 0.24868526E+03 -.14448586E+03 0.50840404E+03 0.12500000E+03 0.0000E+00 0.9000E+01
        4  1    1    2  502    0 0.30626918E+03 -.11109730E+03 -.10888728E+04 0.11365693E+04 0.15500000E+01 0.0000E+00 0.9000E+01
       -4  1    1    2    0  503 0.82074967E+02 -.84106814E+02 0.87835347E+03 0.88618140E+03 0.15500000E+01 0.0000E+00 0.9000E+01
       21  1    1    2  503  501 0.11817251E+02 -.53481147E+02 0.24178253E+03 0.24790973E+03 0.75000000E+00 0.0000E+00 0.9000E+01
#aMCatNLO 2  0  0  5  1 0.25153484D+02 0.00000000D+00  -5  6  0 0.00000000D+00 0.00000000D+00 0.00000000D+00 0.00000000D+00 0.00000000D+00
  <mgrwgt>
 -.1374751893D-03    3    2    0
 0.138837853626255D+04 0.000000000000000D+00 0.000000000000000D+00 0.138837853626255D+04
 0.138837853626255D+04 -.000000000000000D+00 -.000000000000000D+00 -.138837853626255D+04
 0.503128407004514D+03 -.400385162584254D+03 0.248777937434876D+03 -.123751579234083D+03
 0.109387155217544D+04 0.306443350513405D+03 -.111117301072757D+03 -.104417450217248D+04
 0.117975711334514D+04 0.939418120708484D+02 -.137660636362119D+03 0.116792608140656D+04
 0.000000000000000D+00 0.000000000000000D+00 -.000000000000000D+00 0.000000000000000D+00
 0.138837853626255D+04 0.000000000000000D+00 0.000000000000000D+00 0.138837853626255D+04
 0.138837853626255D+04 -.000000000000000D+00 -.000000000000000D+00 -.138837853626255D+04
 0.503024687686713D+03 -.400362492791057D+03 0.248744717528970D+03 -.123469738356727D+03
 0.109330789113754D+04 0.306492630196512D+03 -.111189514631200D+03 -.104356183539593D+04
 0.922162741882134D+03 0.820339891694383D+02 -.840285214577536D+02 0.914654992179099D+03
 0.258261751818712D+03 0.118358734251060D+02 -.535266814400153D+02 0.252376581573557D+03
-.758664410342D-09 0.000000000000D+00 0.000000000000D+00 0.150675466650D-03 0.000000000000D+00  6 -3 3 25 4 -4 21 2 0.20506476D+00 0.22248362D+00 0.24301268D+06 0.24301268D+06 0.24301268D+06 0.10913865D+01  1  2 13  4  6  5       -4 -.210468953984D-11 0.100000000000D+01
-.101249446095D+00 0.000000000000D+00 0.000000000000D+00 0.150675466650D-03 0.000000000000D+00  6 -3 3 25 4 -4 21 2 0.20506476D+00 0.22248362D+00 0.24301268D+06 0.24301268D+06 0.24301268D+06 0.10913865D+01  1  2 13  4  6  5       -4 -.280886578052D-03 0.100000000000D+01
0.516946163426D-01 0.000000000000D+00 0.000000000000D+00 0.150675466650D-03 0.397832026187D-06  6 -3 3 25 4 -4 21 2 0.20506476D+00 0.22248362D+00 0.24301268D+06 0.24301268D+06 0.24301268D+06 0.10913865D+01  1  2  1  4  6  5       -4 0.143411390859D-03 0.100000000000D+01
  </mgrwgt>
  </event>
  <event>
  5     66 0.18829897E-05 0.62176320E+02 0.75467711E-02 0.94601191E-01
       -1 -1    0    0    0  501 0.00000000E+00 0.00000000E+00 0.30767734E+03 0.30767750E+03 0.32000000E+00 0.0000E+00 0.9000E+01
        1 -1    0    0  502    0 -.00000000E+00 -.00000000E+00 -.94326446E+03 0.94326451E+03 0.32000000E+00 0.0000E+00 0.9000E+01
       25  1    1    2    0    0 -.24404606E+03 -.40408122E+03 -.35084188E+03 0.60129455E+03 0.12500000E+03 0.0000E+00 0.9000E+01
        2  1    1    2  502    0 0.61513661E+02 -.90473254E+01 -.17376805E+03 0.18455682E+03 0.32000000E+00 0.0000E+00 0.9000E+01
       -2  1    1    2    0  501 0.18253239E+03 0.41312854E+03 -.11097719E+03 0.46509065E+03 0.32000000E+00 0.0000E+00 0.9000E+01
#aMCatNLO 1  0  0  5  1 0.11473893D+03 0.00000000D+00  -5  6  0 0.00000000D+00 0.00000000D+00 0.00000000D+00 0.00000000D+00 0.00000000D+00
  <mgrwgt>
 0.4848328791D-02    3    2    0
 0.538721853106417D+03 0.000000000000000D+00 0.000000000000000D+00 0.538721853106417D+03
 0.538721853106417D+03 -.000000000000000D+00 -.000000000000000D+00 -.538721853106417D+03
 0.491156673063188D+03 -.244046613655183D+03 -.404080735768536D+03 -.526297144082734D+02
 0.111770808310052D+03 0.615146189995737D+02 -.904690399480438D+01 -.928806695051688D+02
 0.474516224839595D+03 0.182531994655609D+03 0.413127639763340D+03 0.145510383913442D+03
 0.000000000000000D+00 0.000000000000000D+00 0.000000000000000D+00 -.000000000000000D+00
 0.538721853106417D+03 0.000000000000000D+00 0.000000000000000D+00 0.538721853106417D+03
 0.538721853106417D+03 -.000000000000000D+00 -.000000000000000D+00 -.538721853106417D+03
 0.443454461576360D+03 -.224391794848436D+03 -.359595663883314D+03 -.369613367317186D+02
 0.111048642086197D+03 0.662004993211754D+02 0.155872534228408D+01 -.891451915367437D+02
 0.116753361556236D+03 -.366677405896323D+02 0.196867042197396D+01 0.110828464626658D+03
 0.406187240994041D+03 0.194859036116893D+03 0.356068268119056D+03 0.152780636418047D+02
0.125300684889D-02 0.000000000000D+00 0.000000000000D+00 0.192740485973D-06 0.000000000000D+00  6 -1 1 25 2 -2 21 0 0.47334992D-01 0.14511763D+00 0.25108129D+06 0.25108129D+06 0.25108129D+06 0.10903181D+01  1  2  2  4  6  5       -2 0.112826338250D-01 0.100000000000D+01
0.188518947183D-03 0.000000000000D+00 -.481187622400D-05 0.192740485973D-06 0.000000000000D+00  6 -1 1 25 2 -2 21 2 0.47334992D-01 0.14511763D+00 0.25108129D+06 0.25108129D+06 0.25108129D+06 0.10903181D+01  1  2  3  4  6  5       -2 0.201798773022D-02 0.100000000000D+01
-.789607047289D-03 0.000000000000D+00 0.000000000000D+00 0.192740485973D-06 0.000000000000D+00  6 -1 1 25 2 -2 21 2 0.47334992D-01 0.14511763D+00 0.25108129D+06 0.25108129D+06 0.25108129D+06 0.10903181D+01  1  2 15  4  6  5       -2 -.845229276386D-02 0.100000000000D+01
  </mgrwgt>
  </event>
  <event>
  5     66 0.18829897E-05 0.17198373E+02 0.75467711E-02 0.91897307E-01
       -1 -1    0    0    0  501 0.00000000E+00 0.00000000E+00 0.74531648E+03 0.74531655E+03 0.32000000E+00 0.0000E+00 0.9000E+01
        1 -1    0    0  502    0 0.00000000E+00 0.00000000E+00 -.22080926E+04 0.22080926E+04 0.32000000E+00 0.0000E+00 0.9000E+01
       25  1    1    2    0    0 0.50107940E+03 -.11601460E+03 -.45191055E+03 0.69597996E+03 0.12500000E+03 0.0000E+00 0.9000E+01
        2  1    1    2  502    0 -.51600511E+03 0.12456105E+03 -.15909089E+04 0.16771308E+04 0.32000000E+00 0.0000E+00 0.9000E+01
       -2  1    1    2    0  501 0.14925702E+02 -.85464533E+01 0.58004332E+03 0.58029835E+03 0.32000000E+00 0.0000E+00 0.9000E+01
#aMCatNLO 1  0  0  1  5 0.25792256D+03 0.00000000D+00  -5  6  0 0.00000000D+00 0.00000000D+00 0.00000000D+00 0.00000000D+00 0.00000000D+00
  <mgrwgt>
 0.2045209188D-01    7    4    0
 0.128285927526885D+04 0.000000000000000D+00 0.000000000000000D+00 0.128285927526885D+04
 0.128285927526885D+04 0.000000000000000D+00 0.000000000000000D+00 -.128285927526885D+04
 0.543543752993946D+03 0.501133593969880D+03 -.116027762159844D+03 -.123359194313815D+03
 0.102355288135256D+04 -.516058427516938D+03 0.124573718284695D+03 -.875114614794310D+03
 0.998621916191200D+03 0.149248335470580D+02 -.854595612485097D+01 0.998473809108126D+03
 0.000000000000000D+00 -.000000000000000D+00 0.000000000000000D+00 0.000000000000000D+00
 0.171377304954756D+04 0.000000000000000D+00 0.000000000000000D+00 0.171377304954756D+04
 0.129930645915288D+04 0.000000000000000D+00 0.000000000000000D+00 -.129930645915288D+04
 0.555421501014921D+03 0.505417138391373D+03 -.149010298933291D+03 -.123359194313815D+03
 0.101391858696241D+04 -.508116775576427D+03 0.634243986102019D+02 -.875114614794310D+03
 0.100108283100685D+04 0.227192784426065D+02 -.685618075085971D+02 0.998473809108126D+03
 0.442656589716262D+03 -.200196412575526D+02 0.154147707831686D+03 0.414466590394675D+03
 0.128285927526885D+04 0.000000000000000D+00 0.000000000000000D+00 0.128285927526885D+04
 0.128285927526885D+04 0.000000000000000D+00 0.000000000000000D+00 -.128285927526885D+04
 0.543543752993946D+03 0.501133593969880D+03 -.116027762159844D+03 -.123359194313815D+03
 0.102355288135256D+04 -.516058427516938D+03 0.124573718284695D+03 -.875114614794310D+03
 0.000000000000000D+00 -.000000000000000D+00 0.000000000000000D+00 0.000000000000000D+00
 0.998621916191200D+03 0.149248335470580D+02 -.854595612485097D+01 0.998473809108126D+03
 0.171377304954756D+04 0.000000000000000D+00 0.000000000000000D+00 0.171377304954756D+04
 0.129930645915288D+04 0.000000000000000D+00 0.000000000000000D+00 -.129930645915288D+04
 0.555421501014921D+03 0.505417138391373D+03 -.149010298933291D+03 -.123359194313815D+03
 0.101391858696241D+04 -.508116775576427D+03 0.634243986102019D+02 -.875114614794310D+03
 0.442656589716262D+03 -.200196412575526D+02 0.154147707831686D+03 0.414466590394675D+03
 0.100108283100685D+04 0.227192784426065D+02 -.685618075085971D+02 0.998473809108126D+03
0.138104563656D-01 0.000000000000D+00 0.000000000000D+00 0.445555290157D-03 0.000000000000D+00  6 -1 1 25 2 -2 21 0 0.11466408D+00 0.33970656D+00 0.29021920D+06 0.29021920D+06 0.29021920D+06 0.10856185D+01  1  2  2  1  6  1       -1 0.277076978771D-02 0.100000000000D+01
0.133843875179D-01 0.000000000000D+00 -.530357888207D-04 0.445555290157D-03 0.000000000000D+00  6 -1 1 25 2 -2 21 2 0.11466408D+00 0.33970656D+00 0.29021920D+06 0.29021920D+06 0.29021920D+06 0.10856185D+01  1  2  3  1  6  1       -1 0.316479349780D-02 0.100000000000D+01
-.896054071262D-02 0.000000000000D+00 0.000000000000D+00 0.445555290157D-03 0.000000000000D+00  6 -1 1 25 2 -2 21 2 0.11466408D+00 0.33970656D+00 0.29021920D+06 0.29021920D+06 0.29021920D+06 0.10856185D+01  1  2 15  1  6  1       -1 -.211875671906D-02 0.100000000000D+01
-.364945317574D-03 0.000000000000D+00 0.000000000000D+00 0.445555290157D-03 0.000000000000D+00  6 -1 1 25 2 -2 21 2 0.11466408D+00 0.33970656D+00 0.29021920D+06 0.29021920D+06 0.29021920D+06 0.10856185D+01  1  2  4  1  6  1       -1 -.862928218840D-04 0.100000000000D+01
-.167758002634D+00 0.000000000000D+00 -.139900024677D-01 0.445555290157D-03 0.000000000000D+00  6 -1 1 25 2 -2 21 2 0.15397673D+00 0.33970656D+00 0.29021920D+06 0.29021920D+06 0.29021920D+06 0.10856185D+01  1  2  5  1  6  1       -1 -.182096268966D-01 0.100000000000D+01
0.165236804515D+00 0.000000000000D+00 0.134033698962D-01 0.445555290157D-03 0.000000000000D+00  6 -1 1 25 2 -2 21 2 0.11466408D+00 0.33970656D+00 0.29021920D+06 0.29021920D+06 0.29021920D+06 0.10856185D+01  1  2  6  1  6  1       -1 0.390709222836D-01 0.100000000000D+01
-.609793164092D-02 0.000000000000D+00 -.533986679909D-03 0.445555290157D-03 0.000000000000D+00  6 21 1 25 2 1 -2 2 0.15397673D+00 0.33970656D+00 0.29021920D+06 0.29021920D+06 0.29021920D+06 0.10856185D+01  3  4  5  5  5  1       -1 -.413971725138D-02 0.100000000000D+01
  </mgrwgt>
  </event>
  <event>
  6     66 0.18829897E-05 0.17648133E+03 0.75467711E-02 0.93634610E-01
       -1 -1    0    0    0  501 0.00000000E+00 0.00000000E+00 0.38584741E+03 0.38584754E+03 0.32000000E+00 0.0000E+00 0.9000E+01
        1 -1    0    0  502    0 -.00000000E+00 -.00000000E+00 -.30459453E+04 0.30459453E+04 0.32000000E+00 0.0000E+00 0.9000E+01
       25  1    1    2    0    0 -.24666343E+03 -.40221629E+03 -.17988231E+04 0.18638697E+04 0.12500000E+03 0.0000E+00 0.9000E+01
        2  1    1    2  502    0 0.63603959E+02 0.41530957E+03 -.11506181E+04 0.12249284E+04 0.32000000E+00 0.0000E+00 0.9000E+01
       -2  1    1    2    0  503 0.82452053E+02 -.14372421E+01 0.11812367E+03 0.14406148E+03 0.32000000E+00 0.0000E+00 0.9000E+01
       21  1    1    2  503  501 0.10060741E+03 -.11656042E+02 0.17121962E+03 0.19893325E+03 0.75000000E+00 0.0000E+00 0.9000E+01
#aMCatNLO 2  0  0  5  1 0.76488942D+01 0.00000000D+00  -5  6  0 0.00000000D+00 0.00000000D+00 0.00000000D+00 0.00000000D+00 0.00000000D+00
  <mgrwgt>
 0.3579494750D-03    3    2    0
 0.108409886563772D+04 0.000000000000000D+00 0.000000000000000D+00 0.108409886563772D+04
 0.108409886563772D+04 -.000000000000000D+00 -.000000000000000D+00 -.108409886563772D+04
 0.743258011297864D+03 -.246729958684063D+03 -.402405617703889D+03 -.560358383257151D+03
 0.527287585594448D+03 0.636880630674949D+02 0.415497644587059D+03 -.318335885327650D+03
 0.897652134383133D+03 0.183041895616568D+03 -.130920268831702D+02 0.878694268584801D+03
 0.000000000000000D+00 0.000000000000000D+00 0.000000000000000D+00 0.000000000000000D+00
 0.108409886563772D+04 0.000000000000000D+00 0.000000000000000D+00 0.108409886563772D+04
 0.108409886563772D+04 -.000000000000000D+00 -.000000000000000D+00 -.108409886563772D+04
 0.743221338780461D+03 -.246720585244352D+03 -.402406288136875D+03 -.560313385975391D+03
 0.527268742295892D+03 0.636947128875282D+02 0.415497168960305D+03 -.318303962806685D+03
 0.373893893695506D+03 0.826266003487309D+02 -.146357635166249D+01 0.364646879325548D+03
 0.523813756503586D+03 0.100399272008093D+03 -.116273044717676D+02 0.513970469456528D+03
-.284124776479D-07 0.000000000000D+00 0.000000000000D+00 0.185445868494D-05 0.000000000000D+00  6 -1 1 25 2 -2 21 2 0.59361151D-01 0.46860698D+00 0.29830743D+06 0.29830743D+06 0.29830743D+06 0.10847337D+01  1  2 13  4  6  5       -2 -.679816950502D-08 0.100000000000D+01
-.116450458559D-01 0.000000000000D+00 0.000000000000D+00 0.185445868494D-05 0.000000000000D+00  6 -1 1 25 2 -2 21 2 0.59361151D-01 0.46860698D+00 0.29830743D+06 0.29830743D+06 0.29830743D+06 0.10847337D+01  1  2 13  4  6  5       -2 -.278627568506D-02 0.100000000000D+01
0.131410992574D-01 0.000000000000D+00 0.000000000000D+00 0.185445868494D-05 0.546652943708D-07  6 -1 1 25 2 -2 21 2 0.59361151D-01 0.46860698D+00 0.29830743D+06 0.29830743D+06 0.29830743D+06 0.10847337D+01  1  2  1  4  6  5       -2 0.314423195827D-02 0.100000000000D+01
  </mgrwgt>
  </event>
  <event>
  6     66 -.18829897E-05 0.73468290E+02 0.75467711E-02 0.92984688E-01
       -1 -1    0    0    0  501 0.00000000E+00 0.00000000E+00 0.41927278E+03 0.41927290E+03 0.32000000E+00 0.0000E+00 0.9000E+01
        1 -1    0    0  502    0 -.00000000E+00 -.00000000E+00 -.36621936E+04 0.36621936E+04 0.32000000E+00 0.0000E+00 0.9000E+01
       25  1    1    2    0    0 -.36195388E+03 0.42747274E+03 -.93762745E+03 0.10993242E+04 0.12500000E+03 0.0000E+00 0.9000E+01
        2  1    1    2  503    0 0.46890633E+02 -.32215302E+02 -.15457365E+04 0.15467831E+04 0.32000000E+00 0.0000E+00 0.9000E+01
       -2  1    1    2    0  501 0.27599964E+03 -.40263155E+03 0.16094765E+03 0.51399632E+03 0.32000000E+00 0.0000E+00 0.9000E+01
       21  1    1    2  502  503 0.39063604E+02 0.73741163E+01 -.92050455E+03 0.92136286E+03 0.75000000E+00 0.0000E+00 0.9000E+01
#aMCatNLO 2  0  0  4  2 0.18057225D+02 0.00000000D+00  -5  6  0 0.00000000D+00 0.00000000D+00 0.00000000D+00 0.00000000D+00 0.00000000D+00
  <mgrwgt>
 -.1002385450D-02    3    2    0
 0.123913613825678D+04 0.000000000000000D+00 0.000000000000000D+00 0.123913613825678D+04
 0.123913613825678D+04 -.000000000000000D+00 -.000000000000000D+00 -.123913613825678D+04
 0.583535437781175D+03 -.361974487680642D+03 0.427479162441996D+03 -.105473423632180D+03
 0.837329994175392D+03 0.860112744676226D+02 -.248580853373262D+02 -.832529672386264D+03
 0.105740684455699D+04 0.275963213213018D+03 -.402621077104670D+03 0.938003096018444D+03
 0.000000000000000D+00 0.000000000000000D+00 0.000000000000000D+00 0.000000000000000D+00
 0.123913613825678D+04 0.000000000000000D+00 0.000000000000000D+00 0.123913613825678D+04
 0.123913613825678D+04 -.000000000000000D+00 -.000000000000000D+00 -.123913613825678D+04
 0.583553936554428D+03 -.361954360912438D+03 0.427473345612462D+03 -.105668236833619D+03
 0.524450491102956D+03 0.468592546273769D+02 -.322120656934996D+02 -.521358715950598D+03
 0.105710728843739D+04 0.275999678574416D+03 -.402631615944736D+03 0.937650136530683D+03
 0.313160560418776D+03 0.390954277106444D+02 0.737033602577318D+01 -.310623183746467D+03
-.125047484195D-08 0.000000000000D+00 0.000000000000D+00 0.833618198248D-04 0.000000000000D+00  6 -1 1 25 2 -2 21 2 0.64503515D-01 0.56341441D+00 0.33564750D+06 0.33564750D+06 0.33564750D+06 0.10809626D+01  1  2 13  3  6  4        2 -.808251699620D-10 0.100000000000D+01
-.543130727602D-01 0.000000000000D+00 0.000000000000D+00 0.833618198248D-04 0.000000000000D+00  6 -1 1 25 2 -2 21 2 0.64503515D-01 0.56341441D+00 0.33564750D+06 0.33564750D+06 0.33564750D+06 0.10809626D+01  1  2 13  3  6  4        2 -.351055710179D-02 0.100000000000D+01
0.388048135604D-01 0.000000000000D+00 0.000000000000D+00 0.833618198248D-04 0.453999584500D-06  6 -1 1 25 2 -2 21 2 0.64503515D-01 0.56341441D+00 0.33564750D+06 0.33564750D+06 0.33564750D+06 0.10809626D+01  1  2  1  3  6  4        2 0.250817173297D-02 0.100000000000D+01
  </mgrwgt>
  </event>
  <event>
  5     66 -.18829897E-05 0.31523450E+02 0.75467711E-02 0.93538602E-01
       -1 -1    0    0    0  501 0.00000000E+00 0.00000000E+00 0.57823772E+03 0.57823781E+03 0.32000000E+00 0.0000E+00 0.9000E+01
        1 -1    0    0  502    0 0.00000000E+00 0.00000000E+00 -.54859148E+03 0.54859157E+03 0.32000000E+00 0.0000E+00 0.9000E+01
       25  1    1    2    0    0 0.47419255E+03 0.74575372E+02 -.45856452E+00 0.49602951E+03 0.12500000E+03 0.0000E+00 0.9000E+01
        2  1    1    2  502    0 -.48592756E+03 -.10390029E+03 -.91407778E+02 0.50524880E+03 0.32000000E+00 0.0000E+00 0.9000E+01
       -2  1    1    2    0  501 0.11735006E+02 0.29324918E+02 0.12151258E+03 0.12555107E+03 0.32000000E+00 0.0000E+00 0.9000E+01
#aMCatNLO 1  0  0  5  2 0.31591533D+03 0.00000000D+00  -5  6  0 0.00000000D+00 0.00000000D+00 0.00000000D+00 0.00000000D+00 0.00000000D+00
  <mgrwgt>
 -.3495167281D-01    4    2    0
 0.563219659235511D+03 0.000000000000000D+00 0.000000000000000D+00 0.563219659235511D+03
 0.563219659235511D+03 -.000000000000000D+00 -.000000000000000D+00 -.563219659235511D+03
 0.496361195852768D+03 0.474341317169836D+03 0.746326652642311D+02 -.134058513169736D+02
 0.507923543952528D+03 -.486053167503248D+03 -.103899719014383D+03 -.104611152608538D+03
 0.122154578665725D+03 0.117118503334128D+02 0.292670537501522D+02 0.118017003925512D+03
 0.000000000000000D+00 -.000000000000000D+00 0.000000000000000D+00 0.000000000000000D+00
 0.563219659235511D+03 0.000000000000000D+00 0.000000000000000D+00 0.563219659235511D+03
 0.563219659235511D+03 -.000000000000000D+00 -.000000000000000D+00 -.563219659235511D+03
 0.499892005369865D+03 0.476971101773707D+03 0.812043038321572D+02 0.130937444841225D+02
 0.499185011142662D+03 -.483394728293852D+03 -.972564746919262D+02 -.778228124505382D+02
 0.607561712200624D+02 0.542588874282667D+02 -.907815955177573D+01 0.257851215921261D+02
 0.666061307384316D+02 -.478352609081217D+02 0.251303304115447D+02 0.389439463742898D+02
0.688843116102D-02 0.000000000000D+00 0.000000000000D+00 0.884288822342D-06 0.000000000000D+00  6 -1 1 25 2 -2 21 0 0.88959663D-01 0.84398703D-01 0.26252179D+06 0.26252179D+06 0.26252179D+06 0.10888659D+01  1  2  2  4  6  5       -2 0.421996543086D-01 0.100000000000D+01
0.210444578525D-02 0.000000000000D+00 -.264533894239D-04 0.884288822342D-06 0.000000000000D+00  6 -1 1 25 2 -2 21 2 0.88959663D-01 0.84398703D-01 0.26252179D+06 0.26252179D+06 0.26252179D+06 0.10888659D+01  1  2  3  4  6  5       -2 0.152853405821D-01 0.100000000000D+01
-.478913498123D-02 0.000000000000D+00 0.000000000000D+00 0.884288822342D-06 0.000000000000D+00  6 -1 1 25 2 -2 21 2 0.88959663D-01 0.84398703D-01 0.26252179D+06 0.26252179D+06 0.26252179D+06 0.10888659D+01  1  2 15  4  6  5       -2 -.347851960811D-01 0.100000000000D+01
-.793730409957D-02 0.000000000000D+00 0.000000000000D+00 0.884288822342D-06 0.000000000000D+00  6 -1 1 25 2 -2 21 2 0.88959663D-01 0.84398703D-01 0.26252179D+06 0.26252179D+06 0.26252179D+06 0.10888659D+01  1  2  4  4  6  5       -2 -.576514716208D-01 0.100000000000D+01
  </mgrwgt>
  </event>
  <event>
  5     66 -.18829897E-05 0.45222469E+02 0.75467711E-02 0.95093551E-01
       -1 -1    0    0    0  501 0.00000000E+00 0.00000000E+00 0.17018669E+04 0.17018669E+04 0.32000000E+00 0.0000E+00 0.9000E+01
        1 -1    0    0  502    0 -.00000000E+00 -.00000000E+00 -.17611549E+04 0.17611550E+04 0.32000000E+00 0.0000E+00 0.9000E+01
       25  1    1    2    0    0 0.22025087E+03 0.41638353E+03 0.26610480E+03 0.55526791E+03 0.12500000E+03 0.0000E+00 0.9000E+01
        2  1    1    2  502    0 -.20877532E+03 -.37263862E+03 -.15879464E+04 0.16443906E+04 0.32000000E+00 0.0000E+00 0.9000E+01
       -2  1    1    2    0  501 -.11475549E+02 -.43744914E+02 0.12625535E+04 0.12633633E+04 0.32000000E+00 0.0000E+00 0.9000E+01
#aMCatNLO 1  0  0  4  2 0.49277365D+01 0.00000000D+00  -5  6  0 0.00000000D+00 0.00000000D+00 0.00000000D+00 0.00000000D+00 0.00000000D+00
  <mgrwgt>
 -.1402803910D-02    1    2    0
 0.173125715495720D+04 0.000000000000000D+00 0.000000000000000D+00 0.173125715495720D+04
 0.173125715495720D+04 -.000000000000000D+00 -.000000000000000D+00 -.173125715495720D+04
 0.559970024935432D+03 0.220267707498863D+03 0.416412469623683D+03 0.275724900945288D+03
 0.161745085738143D+04 -.208792814714762D+03 -.372670058502077D+03 -.156002239216733D+04
 0.128509342759753D+04 -.114748927841014D+02 -.437424111216061D+02 0.128429749122204D+04
 0.000000000000000D+00 -.000000000000000D+00 0.000000000000000D+00 0.000000000000000D+00
 0.173125715495720D+04 0.000000000000000D+00 0.000000000000000D+00 0.173125715495720D+04
 0.173125715495720D+04 -.000000000000000D+00 -.000000000000000D+00 -.173125715495720D+04
 0.529782988853982D+03 0.214497392245525D+03 0.406113151009800D+03 0.232611247741418D+03
 0.105024592584812D+04 0.277785981929376D+03 -.433715767552984D+03 -.915282517029597D+03
 0.118858316960813D+04 -.245731761749834D+02 -.671212713770479D+02 0.118643198077982D+04
 0.693902225604161D+03 -.467710197999918D+03 0.947238879202327D+02 -.503760711491637D+03
-.477169768736D-01 0.000000000000D+00 0.000000000000D+00 0.342785782271D-02 0.000000000000D+00  6 -1 1 25 2 -2 21 2 0.26182568D+00 0.27094692D+00 0.23029405D+06 0.23029405D+06 0.23029405D+06 0.10931518D+01  1  2 14  3  6  4        2 -.140280391023D-02 0.100000000000D+01
  </mgrwgt>
  </event>
  <event>
  5     66 -.18829897E-05 0.78738376E+02 0.75467711E-02 0.88516991E-01
       -1 -1    0    0    0  501 0.00000000E+00 0.00000000E+00 0.15417631E+04 0.15417631E+04 0.32000000E+00 0.0000E+00 0.9000E+01
        1 -1    0    0  502    0 0.00000000E+00 0.00000000E+00 -.21326328E+04 0.21326328E+04 0.32000000E+00 0.0000E+00 0.9000E+01
       25  1    1    2    0    0 -.67798082E+03 0.52475047E+03 -.77572682E+03 0.11629265E+04 0.12500000E+03 0.0000E+00 0.9000E+01
        2  1    1    2  502    0 0.78697998E+02 -.23871449E+01 -.10444984E+04 0.10474617E+04 0.32000000E+00 0.0000E+00 0.9000E+01
       -2  1    1    2    0  501 0.59928282E+03 -.52236333E+03 0.12293555E+04 0.14640076E+04 0.32000000E+00 0.0000E+00 0.9000E+01
#aMCatNLO 1  0  0  1  5 0.47438132D+02 0.00000000D+00  -5  6  0 0.00000000D+00 0.00000000D+00 0.00000000D+00 0.00000000D+00 0.00000000D+00
  <mgrwgt>
 -.2293082460D-02   11    4    0
 0.181328831525072D+04 0.000000000000000D+00 0.000000000000000D+00 0.181328831525072D+04
 0.181328831525072D+04 0.000000000000000D+00 0.000000000000000D+00 -.181328831525072D+04
 0.105183900449667D+04 -.677980631723599D+03 0.524747065028971D+03 -.596425244378279D+03
 0.891142158187923D+03 0.787021700311369D+02 -.238753619726526D+01 -.887656811049814D+03
 0.168359546781685D+04 0.599278461692462D+03 -.522359528831706D+03 0.148408205542809D+04
 0.000000000000000D+00 0.000000000000000D+00 -.000000000000000D+00 0.000000000000000D+00
 0.205127918660472D+04 0.000000000000000D+00 0.000000000000000D+00 0.205127918660472D+04
 0.181580891272223D+04 0.000000000000000D+00 0.000000000000000D+00 -.181580891272223D+04
 0.105994248628114D+04 -.679871345495964D+03 0.538428227032789D+03 -.596425244378279D+03
 0.891046524745246D+03 0.771065462876340D+02 0.915836104591933D+01 -.887656811049814D+03
 0.167589786799961D+04 0.596270650351215D+03 -.500595074138468D+03 0.148408205542809D+04
 0.240201220300957D+03 0.649414885711502D+01 -.469915139402405D+02 0.235470273882490D+03
 0.181328831525072D+04 0.000000000000000D+00 0.000000000000000D+00 0.181328831525072D+04
 0.181328831525072D+04 0.000000000000000D+00 0.000000000000000D+00 -.181328831525072D+04
 0.105183900449667D+04 -.677980631723599D+03 0.524747065028971D+03 -.596425244378279D+03
 0.891142158187923D+03 0.787021700311369D+02 -.238753619726526D+01 -.887656811049814D+03
 0.000000000000000D+00 0.000000000000000D+00 -.000000000000000D+00 0.000000000000000D+00
 0.168359546781685D+04 0.599278461692462D+03 -.522359528831706D+03 0.148408205542809D+04
 0.205127918660472D+04 0.000000000000000D+00 0.000000000000000D+00 0.205127918660472D+04
 0.181580891272223D+04 0.000000000000000D+00 0.000000000000000D+00 -.181580891272223D+04
 0.105994248628114D+04 -.679871345495964D+03 0.538428227032789D+03 -.596425244378279D+03
 0.891046524745246D+03 0.771065462876340D+02 0.915836104591933D+01 -.887656811049814D+03
 0.240201220300957D+03 0.649414885711502D+01 -.469915139402405D+02 0.235470273882490D+03
 0.167589786799961D+04 0.596270650351215D+03 -.500595074138468D+03 0.148408205542809D+04
0.222141364358D-02 0.000000000000D+00 0.000000000000D+00 0.478422094513D-04 0.000000000000D+00  6 -1 1 25 2 -2 21 0 0.23719432D+00 0.32809735D+00 0.75700013D+06 0.75700013D+06 0.75700013D+06 0.10560082D+01  1  2  2  1  6  1       -1 0.435607043538D-04 0.100000000000D+01
0.806333555273D-03 0.000000000000D+00 -.853081330298D-05 0.478422094513D-04 0.000000000000D+00  6 -1 1 25 2 -2 21 2 0.23719432D+00 0.32809735D+00 0.75700013D+06 0.75700013D+06 0.75700013D+06 0.10560082D+01  1  2  3  1  6  1       -1 0.176325364517D-04 0.100000000000D+01
-.147412190575D-02 0.000000000000D+00 0.000000000000D+00 0.478422094513D-04 0.000000000000D+00  6 -1 1 25 2 -2 21 2 0.23719432D+00 0.32809735D+00 0.75700013D+06 0.75700013D+06 0.75700013D+06 0.10560082D+01  1  2 15  1  6  1       -1 -.322354292059D-04 0.100000000000D+01
0.168693484403D-08 0.000000000000D+00 0.000000000000D+00 0.478422094513D-04 0.000000000000D+00  6 -1 1 25 2 -2 21 2 0.26847761D+00 0.32809735D+00 0.79196572D+06 0.79196572D+06 0.79196572D+06 0.10546740D+01  1  2 12  1  6  1       -1 0.199757814523D-10 0.100000000000D+01
0.167913309640D+00 0.000000000000D+00 0.000000000000D+00 0.478422094513D-04 0.000000000000D+00  6 -1 1 25 2 -2 21 2 0.27144717D+00 0.32809735D+00 0.79196572D+06 0.79196572D+06 0.79196572D+06 0.10546740D+01  1  2 12  1  6  1       -1 0.187493557654D-02 0.100000000000D+01
-.276893045664D+00 0.000000000000D+00 0.000000000000D+00 0.478422094513D-04 0.000000000000D+00  6 -1 1 25 2 -2 21 2 0.23719432D+00 0.32809735D+00 0.75700013D+06 0.75700013D+06 0.75700013D+06 0.10560082D+01  1  2  4  1  6  1       -1 -.605497153002D-02 0.100000000000D+01
-.192924764960D+00 0.000000000000D+00 -.410400783623D-02 0.478422094513D-04 0.000000000000D+00  6 -1 1 25 2 -2 21 2 0.26845527D+00 0.32809735D+00 0.75700013D+06 0.75700013D+06 0.75700013D+06 0.10560082D+01  1  2  5  1  6  1       -1 -.230287713894D-02 0.100000000000D+01
0.191990855474D+00 0.000000000000D+00 0.407275522726D-02 0.478422094513D-04 0.000000000000D+00  6 -1 1 25 2 -2 21 2 0.23719432D+00 0.32809735D+00 0.75700013D+06 0.75700013D+06 0.75700013D+06 0.10560082D+01  1  2  6  1  6  1       -1 0.419836894471D-02 0.100000000000D+01
0.328749586458D-10 0.000000000000D+00 0.000000000000D+00 0.478422094513D-04 0.000000000000D+00  6 21 1 25 2 1 -2 2 0.26847761D+00 0.32809735D+00 0.79196572D+06 0.79196572D+06 0.79196572D+06 0.10546740D+01  3  4 12  5  5  1       -1 0.293971072756D-11 0.100000000000D+01
0.351189335181D-02 0.000000000000D+00 0.000000000000D+00 0.478422094513D-04 0.000000000000D+00  6 21 1 25 2 1 -2 2 0.27144717D+00 0.32809735D+00 0.79196572D+06 0.79196572D+06 0.79196572D+06 0.10546740D+01  3  4 12  5  5  1       -1 0.299761385140D-03 0.100000000000D+01
-.373750054910D-02 0.000000000000D+00 -.799338921876D-04 0.478422094513D-04 0.000000000000D+00  6 21 1 25 2 1 -2 2 0.26845527D+00 0.32809735D+00 0.75700013D+06 0.75700013D+06 0.75700013D+06 0.10560082D+01  3  4  5  5  5  1       -1 -.337257531575D-03 0.100000000000D+01
  </mgrwgt>
  </event>
  <event>
  5     66 0.18829897E-05 0.95506946E+02 0.75467711E-02 0.94851682E-01
       -1 -1    0    0    0  501 0.00000000E+00 0.00000000E+00 0.11880878E+03 0.11880921E+03 0.32000000E+00 0.0000E+00 0.9000E+01
        1 -1    0    0  502    0 -.00000000E+00 -.00000000E+00 -.32184422E+04 0.32184422E+04 0.32000000E+00 0.0000E+00 0.9000E+01
       25  1    1    2    0    0 -.26704477E+03 0.37502580E+03 -.16137375E+04 0.16827748E+04 0.12500000E+03 0.0000E+00 0.9000E+01
        2  1    1    2  502    0 0.17746030E+03 -.34180025E+03 -.15080036E+04 0.15564044E+04 0.32000000E+00 0.0000E+00 0.9000E+01
       -2  1    1    2    0  501 0.89584475E+02 -.33225548E+02 0.22107705E+02 0.98072260E+02 0.32000000E+00 0.0000E+00 0.9000E+01
#aMCatNLO 1  0  0  5  4 0.61770374D+02 0.00000000D+00  -5  6  0 0.00000000D+00 0.00000000D+00 0.00000000D+00 0.00000000D+00 0.00000000D+00
  <mgrwgt>
 0.9486519120D-02    4    2    0
 0.618368776220759D+03 0.000000000000000D+00 0.000000000000000D+00 0.618368776220759D+03
 0.618368776220759D+03 -.000000000000000D+00 -.000000000000000D+00 -.618368776220759D+03
 0.496386325104777D+03 -.267073020118477D+03 0.375101842529911D+03 -.136912356661065D+03
 0.420437288607729D+03 0.177526521278453D+03 -.341890379721770D+03 -.168412636545759D+03
 0.319913938729012D+03 0.895464988400242D+02 -.332114628081411D+02 0.305324993206824D+03
 0.000000000000000D+00 0.000000000000000D+00 0.000000000000000D+00 0.000000000000000D+00
 0.618368776220759D+03 0.000000000000000D+00 0.000000000000000D+00 0.618368776220759D+03
 0.618368776220759D+03 -.000000000000000D+00 -.000000000000000D+00 -.618368776220759D+03
 0.478094682388265D+03 -.255961807389464D+03 0.370980859207467D+03 -.990266660427598D+02
 0.415669697248228D+03 0.187059967813198D+03 -.345426193060354D+03 -.135906625298363D+03
 0.661539767478391D+02 0.127930742604815D+02 -.549507599241310D+02 -.345412778321812D+02
 0.276819196057186D+03 0.561087653157839D+02 0.293960937770182D+02 0.269474569173304D+03
0.217120598433D-01 0.000000000000D+00 0.000000000000D+00 0.115699866159D-05 0.000000000000D+00  6 -1 1 25 2 -2 21 0 0.18278309D-01 0.49514499D+00 0.22937953D+06 0.22937953D+06 0.22937953D+06 0.10932828D+01  1  2  2  4  6  5       -2 0.252028803374D-01 0.100000000000D+01
0.325230318329D-02 0.000000000000D+00 -.833800267150D-04 0.115699866159D-05 0.000000000000D+00  6 -1 1 25 2 -2 21 2 0.18278309D-01 0.49514499D+00 0.22937953D+06 0.22937953D+06 0.22937953D+06 0.10932828D+01  1  2  3  4  6  5       -2 0.451237512323D-02 0.100000000000D+01
-.134787381819D-01 0.000000000000D+00 0.000000000000D+00 0.115699866159D-05 0.000000000000D+00  6 -1 1 25 2 -2 21 2 0.18278309D-01 0.49514499D+00 0.22937953D+06 0.22937953D+06 0.22937953D+06 0.10932828D+01  1  2 15  4  6  5       -2 -.187009388230D-01 0.100000000000D+01
-.110116304470D-02 0.000000000000D+00 0.000000000000D+00 0.115699866159D-05 0.000000000000D+00  6 -1 1 25 2 -2 21 2 0.18278309D-01 0.49514499D+00 0.22937953D+06 0.22937953D+06 0.22937953D+06 0.10932828D+01  1  2  4  4  6  5       -2 -.152779751748D-02 0.100000000000D+01
  </mgrwgt>
  </event>
  <event>
  5     66 -.18829897E-05 0.31178065E+02 0.75467711E-02 0.89746284E-01
       -1 -1    0    0    0  501 0.00000000E+00 0.00000000E+00 0.30419788E+03 0.30419805E+03 0.32000000E+00 0.0000E+00 0.9000E+01
        1 -1    0    0  502    0 -.00000000E+00 -.00000000E+00 -.25566512E+04 0.25566512E+04 0.32000000E+00 0.0000E+00 0.9000E+01
       25  1    1    2    0    0 -.75000674E+03 -.21109037E+03 -.13023672E+04 0.15227786E+04 0.12500000E+03 0.0000E+00 0.9000E+01
        2  1    1    2  502    0 0.72073241E+03 0.22192573E+03 -.10159102E+04 0.12652193E+04 0.32000000E+00 0.0000E+00 0.9000E+01
       -2  1    1    2    0  501 0.29274330E+02 -.10835363E+02 0.65824175E+02 0.72851327E+02 0.32000000E+00 0.0000E+00 0.9000E+01
#aMCatNLO 1  0  0  5  1 0.14711276D+01 0.00000000D+00  -5  6  0 0.00000000D+00 0.00000000D+00 0.00000000D+00 0.00000000D+00 0.00000000D+00
  <mgrwgt>
 -.1673799180D-02    9    2    0
 0.881888965404993D+03 0.000000000000000D+00 0.000000000000000D+00 0.881888965404993D+03
 0.881888965404993D+03 -.000000000000000D+00 -.000000000000000D+00 -.881888965404993D+03
 0.806837117106951D+03 -.750122656133849D+03 -.211135285592883D+03 -.167627639349144D+03
 0.754955484834059D+03 0.720883194182221D+03 0.221957742565529D+03 -.319368899845089D+02
 0.201985328868975D+03 0.292394619516277D+02 -.108224569726456D+02 0.199564529333653D+03
 0.000000000000000D+00 0.000000000000000D+00 0.000000000000000D+00 0.000000000000000D+00
 0.881888965404993D+03 0.000000000000000D+00 0.000000000000000D+00 0.881888965404993D+03
 0.881888965404993D+03 -.000000000000000D+00 -.000000000000000D+00 -.881888965404993D+03
 0.806832178633474D+03 -.750120462021693D+03 -.211136097703737D+03 -.167612664143367D+03
 0.754956629170473D+03 0.720885247215349D+03 0.221956982672521D+03 -.319228776681856D+02
 0.409831722154685D+02 0.735524523697770D+01 -.188992707606562D+01 0.402734273186902D+02
 0.161005950790570D+03 0.218799695693663D+02 -.893095789271872D+01 0.159262114492862D+03
0.645774509655D-05 0.000000000000D+00 0.000000000000D+00 0.648404456153D-06 0.000000000000D+00  6 -1 1 25 2 -2 21 0 0.46799689D-01 0.39333096D+00 0.61991192D+06 0.61991192D+06 0.61991192D+06 0.10619741D+01  1  2  2  4  6  5       -2 0.436876064989D-05 0.100000000000D+01
0.283812214881D-05 0.000000000000D+00 -.247994415341D-07 0.648404456153D-06 0.000000000000D+00  6 -1 1 25 2 -2 21 2 0.46799689D-01 0.39333096D+00 0.61991192D+06 0.61991192D+06 0.61991192D+06 0.10619741D+01  1  2  3  4  6  5       -2 0.216539083571D-05 0.100000000000D+01
-.459046009861D-05 0.000000000000D+00 0.000000000000D+00 0.648404456153D-06 0.000000000000D+00  6 -1 1 25 2 -2 21 2 0.46799689D-01 0.39333096D+00 0.61991192D+06 0.61991192D+06 0.61991192D+06 0.10619741D+01  1  2 15  4  6  5       -2 -.350236519362D-05 0.100000000000D+01
0.120794075136D-10 0.000000000000D+00 0.000000000000D+00 0.648404456153D-06 0.000000000000D+00  6 -1 1 25 2 -2 21 2 0.46799689D-01 0.39333096D+00 0.61995009D+06 0.61995009D+06 0.61995009D+06 0.10619723D+01  1  2 12  4  6  5       -2 0.921610719169D-11 0.100000000000D+01
0.183588702838D-06 0.000000000000D+00 0.000000000000D+00 0.648404456153D-06 0.000000000000D+00  6 -1 1 25 2 -2 21 2 0.46799689D-01 0.39333096D+00 0.61995009D+06 0.61995009D+06 0.61995009D+06 0.10619723D+01  1  2 12  4  6  5       -2 0.140070873728D-06 0.100000000000D+01
-.572675074196D-02 0.000000000000D+00 0.000000000000D+00 0.648404456153D-06 0.000000000000D+00  6 -1 1 25 2 -2 21 2 0.46799689D-01 0.39333096D+00 0.61991192D+06 0.61991192D+06 0.61991192D+06 0.10619741D+01  1  2  4  4  6  5       -2 -.436931637358D-02 0.100000000000D+01
-.109402823234D-02 0.000000000000D+00 0.000000000000D+00 0.648404456153D-06 0.000000000000D+00  6 -1 1 25 2 -2 21 2 0.46799689D-01 0.39333096D+00 0.61991192D+06 0.61991192D+06 0.61991192D+06 0.10619741D+01  1  2  5  4  6  5       -2 -.834706395324D-03 0.100000000000D+01
0.340940965052D-02 0.000000000000D+00 -.000000000000D+00 0.648404456153D-06 0.000000000000D+00  6 -1 1 25 2 -2 21 2 0.46799689D-01 0.39333096D+00 0.61991192D+06 0.61991192D+06 0.61991192D+06 0.10619741D+01  1  2  6  4  6  5       -2 0.260126380237D-02 0.100000000000D+01
0.121341574363D-02 0.000000000000D+00 0.000000000000D+00 0.648404456153D-06 0.211148946275D-06  6 -1 1 25 2 -2 21 2 0.46799689D-01 0.39333096D+00 0.61995009D+06 0.61995009D+06 0.61995009D+06 0.10619723D+01  1  2 11  4  6  5       -2 0.925787920379D-03 0.100000000000D+01
  </mgrwgt>
  </event>
  <event>
  5     66 0.18829897E-05 0.14934017E+02 0.75467711E-02 0.95106904E-01
       -1 -1    0    0    0  501 0.00000000E+00 0.00000000E+00 0.41533252E+03 0.41533265E+03 0.32000000E+00 0.0000E+00 0.9000E+01
        1 -1    0    0  502    0 0.00000000E+00 0.00000000E+00 -.14487540E+04 0.14487540E+04 0.32000000E+00 0.0000E+00 0.9000E+01
       25  1    1    2    0    0 0.43280678E+03 -.18609681E+03 -.58975597E+03 0.76510838E+03 0.12500000E+03 0.0000E+00 0.9000E+01
        2  1    1    2  502    0 -.14059077E+02 0.50335476E+01 -.61238188E+03 0.61256401E+03 0.32000000E+00 0.0000E+00 0.9000E+01
       -2  1    1    2    0  501 -.41874770E+03 0.18106326E+03 0.16871638E+03 0.48641429E+03 0.32000000E+00 0.0000E+00 0.9000E+01
#aMCatNLO 1  0  0  1  5 0.84381200D-01 0.00000000D+00  -5  6  0 0.00000000D+00 0.00000000D+00 0.00000000D+00 0.00000000D+00 0.00000000D+00
  <mgrwgt>
 0.9004991991D-03    9    4    0
 0.775702779353473D+03 0.000000000000000D+00 0.000000000000000D+00 0.775702779353473D+03
 0.775702779353473D+03 0.000000000000000D+00 0.000000000000000D+00 -.775702779353473D+03
 0.526452466534917D+03 0.432803365213854D+03 -.186095274601942D+03 -.198939677669108D+03
 0.328125545177180D+03 -.140600366034936D+02 0.503390698844603D+01 -.327785522177173D+03
 0.696827546994849D+03 -.418743328610361D+03 0.181061367613496D+03 0.526725199846281D+03
 0.000000000000000D+00 0.000000000000000D+00 0.000000000000000D+00 0.000000000000000D+00
 0.775805784349521D+03 0.000000000000000D+00 0.000000000000000D+00 0.775805784349521D+03
 0.775720061862299D+03 0.000000000000000D+00 0.000000000000000D+00 -.775720061862299D+03
 0.526440385009742D+03 0.432780987641161D+03 -.186113138586339D+03 -.198939677669108D+03
 0.328125972493907D+03 -.140739841918165D+02 0.502277264856024D+01 -.327785522177173D+03
 0.696839203498050D+03 -.418772948793433D+03 0.181037721863551D+03 0.526725199846281D+03
 0.120285210120605D+00 0.659453440883303D-01 0.526440742275905D-01 0.857224872221392D-01
 0.775702779353473D+03 0.000000000000000D+00 0.000000000000000D+00 0.775702779353473D+03
 0.775702779353473D+03 0.000000000000000D+00 0.000000000000000D+00 -.775702779353473D+03
 0.526452466534917D+03 0.432803365213854D+03 -.186095274601942D+03 -.198939677669108D+03
 0.328125545177180D+03 -.140600366034936D+02 0.503390698844603D+01 -.327785522177173D+03
 0.000000000000000D+00 0.000000000000000D+00 0.000000000000000D+00 0.000000000000000D+00
 0.696827546994849D+03 -.418743328610361D+03 0.181061367613496D+03 0.526725199846281D+03
 0.775805784349521D+03 0.000000000000000D+00 0.000000000000000D+00 0.775805784349521D+03
 0.775720061862299D+03 0.000000000000000D+00 0.000000000000000D+00 -.775720061862299D+03
 0.526440385009742D+03 0.432780987641161D+03 -.186113138586339D+03 -.198939677669108D+03
 0.328125972493907D+03 -.140739841918165D+02 0.502277264856024D+01 -.327785522177173D+03
 0.120285210120605D+00 0.659453440883303D-01 0.526440742275905D-01 0.857224872221392D-01
 0.696839203498050D+03 -.418772948793433D+03 0.181037721863551D+03 0.526725199846281D+03
0.913286195751D-04 0.000000000000D+00 0.000000000000D+00 0.677884895808D-04 0.000000000000D+00  6 -1 1 25 2 -2 21 0 0.63897324D-01 0.22288524D+00 0.22971060D+06 0.22971060D+06 0.22971060D+06 0.10932353D+01  1  2  2  1  6  1       -1 0.205638601092D-03 0.100000000000D+01
0.660485758990D-04 0.000000000000D+00 -.350725946546D-06 0.677884895808D-04 0.000000000000D+00  6 -1 1 25 2 -2 21 2 0.63897324D-01 0.22288524D+00 0.22971060D+06 0.22971060D+06 0.22971060D+06 0.10932353D+01  1  2  3  1  6  1       -1 0.177741357733D-03 0.100000000000D+01
-.640153035786D-04 0.000000000000D+00 0.000000000000D+00 0.677884895808D-04 0.000000000000D+00  6 -1 1 25 2 -2 21 2 0.63897324D-01 0.22288524D+00 0.22971060D+06 0.22971060D+06 0.22971060D+06 0.10932353D+01  1  2 15  1  6  1       -1 -.172269679079D-03 0.100000000000D+01
-.123438438320D+00 0.000000000000D+00 0.000000000000D+00 0.677884895808D-04 0.000000000000D+00  6 -1 1 25 2 -2 21 2 0.63897324D-01 0.22288524D+00 0.22971060D+06 0.22971060D+06 0.22971060D+06 0.10932353D+01  1  2  4  1  6  1       -1 -.332181509211D+00 0.100000000000D+01
-.313805166950D+01 0.000000000000D+00 -.161293930099D+00 0.677884895808D-04 0.000000000000D+00  6 -1 1 25 2 -2 21 2 0.63906804D-01 0.22288524D+00 0.22971060D+06 0.22971060D+06 0.22971060D+06 0.10932353D+01  1  2  5  1  6  1       -1 -.844232243782D+01 0.100000000000D+01
0.313807556647D+01 0.000000000000D+00 0.161293928324D+00 0.677884895808D-04 0.000000000000D+00  6 -1 1 25 2 -2 21 2 0.63897324D-01 0.22288524D+00 0.22971060D+06 0.22971060D+06 0.22971060D+06 0.10932353D+01  1  2  6  1  6  1       -1 0.844478180280D+01 0.100000000000D+01
0.123409166546D+00 0.000000000000D+00 0.000000000000D+00 0.677884895808D-04 0.187365554512D-01  6 -1 1 25 2 -2 21 2 0.63905809D-01 0.22289021D+00 0.22975782D+06 0.22975782D+06 0.22975782D+06 0.10932285D+01  1  2 11  1  6  1       -1 0.331994110048D+00 0.100000000000D+01
-.872725753031D-04 0.000000000000D+00 -.448582523176D-05 0.677884895808D-04 0.000000000000D+00  6 21 1 25 2 1 -2 2 0.63906804D-01 0.22288524D+00 0.22971060D+06 0.22971060D+06 0.22971060D+06 0.10932353D+01  3  4  5  5  5  1       -1 -.194633102354D-02 0.100000000000D+01
0.163112758759D-04 0.000000000000D+00 0.000000000000D+00 0.677884895808D-04 0.151017638575D-05  6 21 1 25 2 1 -2 2 0.63905809D-01 0.22289021D+00 0.22975782D+06 0.22975782D+06 0.22975782D+06 0.10932285D+01  3  4 11  5  5  1       -1 0.363754126175D-03 0.100000000000D+01
  </mgrwgt>
  </event>
  <event>
  5     66 0.18829897E-05 0.16948033E+02 0.75467711E-02 0.88193530E-01
       -1 -1    0    0    0  501 0.00000000E+00 0.00000000E+00 0.10326650E+04 0.10326651E+04 0.32000000E+00 0.0000E+00 0.9000E+01
        1 -1    0    0  502    0 0.00000000E+00 0.00000000E+00 -.13203206E+04 0.13203206E+04 0.32000000E+00 0.0000E+00 0.9000E+01
       25  1    1    2    0    0 0.30232232E+03 0.40201028E+03 -.13550160E+03 0.53572076E+03 0.12500000E+03 0.0000E+00 0.9000E+01
        2  1    1    2  502    0 0.14339313E+02 -.90314821E+01 -.90813963E+03 0.90829779E+03 0.32000000E+00 0.0000E+00 0.9000E+01
       -2  1    1    2    0  501 -.31666163E+03 -.39297880E+03 0.75598566E+03 0.90896718E+03 0.32000000E+00 0.0000E+00 0.9000E+01
#aMCatNLO 1  0  0  1  2 0.19677653D+03 0.00000000D+00  -5  6  0 0.00000000D+00 0.00000000D+00 0.00000000D+00 0.00000000D+00 0.00000000D+00
  <mgrwgt>
 0.4184228957D-01    7    4    0
 0.116766820216960D+04 0.000000000000000D+00 0.000000000000000D+00 0.116766820216960D+04
 0.116766820216960D+04 0.000000000000000D+00 0.000000000000000D+00 -.116766820216960D+04
 0.523055439159913D+03 0.302312331191754D+03 0.402000344432684D+03 -.704625426746692D+02
 0.803353422614235D+03 0.143405679587972D+02 -.903238307658489D+01 -.803174629699284D+03
 0.100892754256506D+04 -.316652899150551D+03 -.392967961356099D+03 0.873637172373953D+03
 0.000000000000000D+00 -.000000000000000D+00 0.000000000000000D+00 0.000000000000000D+00
 0.169760715020321D+04 0.000000000000000D+00 0.000000000000000D+00 0.169760715020321D+04
 0.138493360514864D+04 0.000000000000000D+00 0.000000000000000D+00 -.138493360514864D+04
 0.608099160394521D+03 0.443747622742664D+03 0.390234117245758D+03 -.704625426746692D+02
 0.832885606485579D+03 0.218929705658337D+03 -.260524793181487D+02 -.803174629699284D+03
 0.969054558352470D+03 -.693335006917116D+02 -.413542856052400D+03 0.873637172373953D+03
 0.672501430119272D+03 -.593343827709289D+03 0.493612181247914D+02 0.312673545054570D+03
 0.116766820216960D+04 0.000000000000000D+00 0.000000000000000D+00 0.116766820216960D+04
 0.116766820216960D+04 0.000000000000000D+00 0.000000000000000D+00 -.116766820216960D+04
 0.523055439159913D+03 0.302312331191754D+03 0.402000344432684D+03 -.704625426746692D+02
 0.803353422614235D+03 0.143405679587972D+02 -.903238307658489D+01 -.803174629699284D+03
 0.000000000000000D+00 -.000000000000000D+00 0.000000000000000D+00 0.000000000000000D+00
 0.100892754256506D+04 -.316652899150551D+03 -.392967961356099D+03 0.873637172373953D+03
 0.169760715020321D+04 0.000000000000000D+00 0.000000000000000D+00 0.169760715020321D+04
 0.138493360514864D+04 0.000000000000000D+00 0.000000000000000D+00 -.138493360514864D+04
 0.608099160394521D+03 0.443747622742664D+03 0.390234117245758D+03 -.704625426746692D+02
 0.832885606485579D+03 0.218929705658337D+03 -.260524793181487D+02 -.803174629699284D+03
 0.672501430119272D+03 -.593343827709289D+03 0.493612181247914D+02 0.312673545054570D+03
 0.969054558352470D+03 -.693335006917116D+02 -.413542856052400D+03 0.873637172373953D+03
0.626394147437D-01 0.000000000000D+00 0.000000000000D+00 0.420266996196D-03 0.000000000000D+00  6 -1 1 25 2 -2 21 0 0.15887155D+00 0.20312625D+00 0.27035147D+06 0.27035147D+06 0.27035147D+06 0.10879113D+01  1  2  2  1  6  1       -1 0.207816616817D-01 0.100000000000D+01
0.566604082011D-01 0.000000000000D+00 -.240551845952D-03 0.420266996196D-03 0.000000000000D+00  6 -1 1 25 2 -2 21 2 0.15887155D+00 0.20312625D+00 0.27035147D+06 0.27035147D+06 0.27035147D+06 0.10879113D+01  1  2  3  1  6  1       -1 0.222484250431D-01 0.100000000000D+01
-.434542903801D-01 0.000000000000D+00 0.000000000000D+00 0.420266996196D-03 0.000000000000D+00  6 -1 1 25 2 -2 21 2 0.15887155D+00 0.20312625D+00 0.27035147D+06 0.27035147D+06 0.27035147D+06 0.10879113D+01  1  2 15  1  6  1       -1 -.170628760543D-01 0.100000000000D+01
-.507777179902D-02 0.000000000000D+00 0.000000000000D+00 0.420266996196D-03 0.000000000000D+00  6 -1 1 25 2 -2 21 2 0.15887155D+00 0.20312625D+00 0.27035147D+06 0.27035147D+06 0.27035147D+06 0.10879113D+01  1  2  4  1  6  1       -1 -.199385124187D-02 0.100000000000D+01
-.313974539797D-01 0.000000000000D+00 -.439554488068D-01 0.420266996196D-03 0.000000000000D+00  6 -1 1 25 2 -2 21 2 0.25322341D+00 0.20312625D+00 0.27035147D+06 0.27035147D+06 0.27035147D+06 0.10879113D+01  1  2  5  1  6  1       -1 -.209795091420D-02 0.100000000000D+01
0.506619289723D-01 0.000000000000D+00 0.395766051100D-01 0.420266996196D-03 0.000000000000D+00  6 -1 1 25 2 -2 21 2 0.15887155D+00 0.20312625D+00 0.27035147D+06 0.27035147D+06 0.27035147D+06 0.10879113D+01  1  2  6  1  6  1       -1 0.198930463981D-01 0.100000000000D+01
0.150540912869D-03 0.000000000000D+00 -.234655645555D-02 0.420266996196D-03 0.000000000000D+00  6 21 1 25 2 1 -2 2 0.25322341D+00 0.20312625D+00 0.27035147D+06 0.27035147D+06 0.27035147D+06 0.10879113D+01  3  4  5  5  5  1       -1 0.738346535288D-04 0.100000000000D+01
  </mgrwgt>
  </event>
  <event>
  5     66 -.18829897E-05 0.27455961E+02 0.75467711E-02 0.88150266E-01
       -1 -1    0    0    0  501 0.00000000E+00 0.00000000E+00 0.10528898E+04 0.10528899E+04 0.32000000E+00 0.0000E+00 0.9000E+01
        1 -1    0    0  502    0 0.00000000E+00 0.00000000E+00 -.18297487E+04 0.18297488E+04 0.32000000E+00 0.0000E+00 0.9000E+01
       25  1    1    2    0    0 -.51744803E+03 0.72702190E+03 -.29339708E+03 0.94763926E+03 0.12500000E+03 0.0000E+00 0.9000E+01
        2  1    1    2  502    0 0.53940335E+03 -.74351715E+03 -.10343949E+04 0.13833823E+04 0.32000000E+00 0.0000E+00 0.9000E+01
       -2  1    1    2    0  501 -.21955322E+02 0.16495251E+02 0.55093300E+03 0.55161708E+03 0.32000000E+00 0.0000E+00 0.9000E+01
#aMCatNLO 1  0  0  2  1 0.91345625D+02 0.00000000D+00  -5  6  0 0.00000000D+00 0.00000000D+00 0.00000000D+00 0.00000000D+00 0.00000000D+00
  <mgrwgt>
 -.1197536489D-02    1    2    0
 0.138799276180738D+04 0.000000000000000D+00 0.000000000000000D+00 0.138799276180738D+04
 0.138799276180738D+04 0.000000000000000D+00 0.000000000000000D+00 -.138799276180738D+04
 0.902039031238732D+03 -.517509519303342D+03 0.727105396142236D+03 -.393834255668157D+02
 0.114710238298967D+04 0.539460478217193D+03 -.743597369058837D+03 -.686941935123364D+03
 0.726844109386352D+03 -.219509589138512D+02 0.164919729166014D+02 0.726325360690180D+03
 0.000000000000000D+00 -.000000000000000D+00 0.000000000000000D+00 -.000000000000000D+00
 0.168499566942598D+04 0.000000000000000D+00 0.000000000000000D+00 0.168499566942598D+04
 0.273871088217942D+04 0.000000000000000D+00 0.000000000000000D+00 -.273871088217942D+04
 0.644562636371273D+03 -.422221351798973D+03 0.469056572367936D+03 -.393834255668157D+02
 0.154693762371886D+04 0.705443834370826D+03 -.119309504482841D+04 -.686941935123364D+03
 0.765856791877035D+03 0.700163113227764D+02 -.232563566001248D+03 0.726325360690180D+03
 0.146634949963823D+04 -.353238793894629D+03 0.956602038461723D+03 -.105371521275344D+04
-.838596867103D-02 0.000000000000D+00 0.000000000000D+00 0.250194192123D-04 0.000000000000D+00  6 -1 1 25 2 -2 21 2 0.16198305D+00 0.28149981D+00 0.85313383D+06 0.85313383D+06 0.85313383D+06 0.10524870D+01  1  2 14  2  6  2        1 -.119753648949D-02 0.100000000000D+01
  </mgrwgt>
  </event>
  <event>
  5     66 -.18829897E-05 0.11119401E+02 0.75467711E-02 0.94773647E-01
       -1 -1    0    0    0  501 0.00000000E+00 0.00000000E+00 0.17957767E+04 0.17957767E+04 0.32000000E+00 0.0000E+00 0.9000E+01
        1 -1    0    0  502    0 0.00000000E+00 0.00000000E+00 -.41273562E+03 0.41273574E+03 0.32000000E+00 0.0000E+00 0.9000E+01
       25  1    1    2    0    0 -.21556496E+02 -.48505623E+03 0.29533248E+03 0.58188530E+03 0.12500000E+03 0.0000E+00 0.9000E+01
        2  1    1    2  502    0 0.24625463E+01 0.10841932E+02 -.22782794E+03 0.22809928E+03 0.32000000E+00 0.0000E+00 0.9000E+01
       -2  1    1    2    0  501 0.19093949E+02 0.47421429E+03 0.13155365E+04 0.13985278E+04 0.32000000E+00 0.0000E+00 0.9000E+01
#aMCatNLO 1  0  0  4  2 0.20804425D+02 0.00000000D+00  -5  6  0 0.00000000D+00 0.00000000D+00 0.00000000D+00 0.00000000D+00 0.00000000D+00
  <mgrwgt>
 -.2840192764D-02    1    2    0
 0.860918787211571D+03 0.000000000000000D+00 0.000000000000000D+00 0.860918787211571D+03
 0.860918787211571D+03 -.000000000000000D+00 -.000000000000000D+00 -.860918787211571D+03
 0.509106948766206D+03 -.215561299431322D+02 -.485041759991586D+03 -.885138950005915D+02
 0.475621104985754D+03 0.246281523381976D+01 0.108432291785623D+02 -.475491108676045D+03
 0.737109520671183D+03 0.190933147093123D+02 0.474198530813023D+03 0.564005003676637D+03
 0.000000000000000D+00 -.000000000000000D+00 0.000000000000000D+00 0.000000000000000D+00
 0.860918787211571D+03 0.000000000000000D+00 0.000000000000000D+00 0.860918787211571D+03
 0.860918787211571D+03 -.000000000000000D+00 -.000000000000000D+00 -.860918787211571D+03
 0.531770824803566D+03 -.210660975753756D+02 -.482884256174193D+03 -.183123523295904D+03
 0.382187127122487D+03 0.571249783532710D+02 0.111629980556003D+03 -.361029755598268D+03
 0.648013655259316D+03 0.197454135500896D+02 0.477069577361917D+03 0.438105506016528D+03
 0.159865967237773D+03 -.558042943279851D+02 -.105815301743727D+03 0.106047772877644D+03
-.101337316818D-01 0.000000000000D+00 0.000000000000D+00 0.110922281350D-03 0.000000000000D+00  6 -1 1 25 2 -2 21 2 0.27627334D+00 0.63497799D-01 0.24356965D+06 0.24356965D+06 0.24356965D+06 0.10913115D+01  1  2 14  3  6  4        2 -.284019276415D-02 0.100000000000D+01
  </mgrwgt>
  </event>
  <event>
  5     66 -.18829897E-05 0.33796939E+02 0.75467711E-02 0.89518173E-01
       -1 -1    0    0    0  501 0.00000000E+00 0.00000000E+00 0.22780447E+04 0.22780448E+04 0.32000000E+00 0.0000E+00 0.9000E+01
        1 -1    0    0  502    0 0.00000000E+00 0.00000000E+00 -.21827021E+04 0.21827021E+04 0.32000000E+00 0.0000E+00 0.9000E+01
       25  1    1    2    0    0 -.37649201E+03 0.70630792E+03 -.56185480E+03 0.98586152E+03 0.12500000E+03 0.0000E+00 0.9000E+01
        2  1    1    2  502    0 0.17322861E+02 -.29018127E+02 -.13375060E+04 0.13379329E+04 0.32000000E+00 0.0000E+00 0.9000E+01
       -2  1    1    2    0  501 0.35916915E+03 -.67728979E+03 0.19947034E+04 0.21369524E+04 0.32000000E+00 0.0000E+00 0.9000E+01
#aMCatNLO 1  0  0  5  1 0.30039416D+03 0.00000000D+00  -5  6  0 0.00000000D+00 0.00000000D+00 0.00000000D+00 0.00000000D+00 0.00000000D+00
  <mgrwgt>
 -.4016481587D-03    1    2    0
 0.222986393227636D+04 0.000000000000000D+00 0.000000000000000D+00 0.222986393227636D+04
 0.222986393227636D+04 -.000000000000000D+00 -.000000000000000D+00 -.222986393227636D+04
 0.998064688946928D+03 -.376490933710583D+03 0.706305735228484D+03 -.583005067336307D+03
 0.136687707376284D+04 0.173236142244219D+02 -.290193986889719D+02 -.136645918404774D+04
 0.209478610184294D+04 0.359167319486161D+03 -.677286336539513D+03 0.194946425138405D+04
 0.000000000000000D+00 0.000000000000000D+00 0.000000000000000D+00 0.000000000000000D+00
 0.222986393227636D+04 0.000000000000000D+00 0.000000000000000D+00 0.222986393227636D+04
 0.222986393227636D+04 -.000000000000000D+00 -.000000000000000D+00 -.222986393227636D+04
 0.834454720153800D+03 -.341437427832040D+03 0.640204897843530D+03 -.392744002678020D+03
 0.111680190031561D+04 0.648328821131570D+02 -.118608223323880D+03 -.110859157100594D+04
 0.205089920812733D+04 0.280779357676944D+03 -.790652362392020D+03 0.187142174724025D+04
 0.457572035955972D+03 -.417481195806160D+01 0.269055687872370D+03 -.370086173556287D+03
-.201399579585D+00 0.000000000000D+00 0.000000000000D+00 0.928441306256D-03 0.000000000000D+00  6 -1 1 25 2 -2 21 2 0.35046842D+00 0.33580033D+00 0.64843553D+06 0.64843553D+06 0.64843553D+06 0.10606218D+01  1  2 14  4  6  5       -2 -.401648158652D-03 0.100000000000D+01
  </mgrwgt>
  </event>
  <event>
  5     66 0.18829897E-05 0.36731016E+02 0.75467711E-02 0.94951510E-01
       -1 -1    0    0    0  501 0.00000000E+00 0.00000000E+00 0.63591469E+03 0.63591477E+03 0.32000000E+00 0.0000E+00 0.9000E+01
        1 -1    0    0  502    0 -.00000000E+00 -.00000000E+00 -.90156004E+03 0.90156009E+03 0.32000000E+00 0.0000E+00 0.9000E+01
       25  1    1    2    0    0 -.35346092E+03 -.31468235E+03 0.18674403E+03 0.52388733E+03 0.12500000E+03 0.0000E+00 0.9000E+01
        2  1    1    2  502    0 0.57941422E+01 0.36264002E+02 -.55524397E+03 0.55645721E+03 0.32000000E+00 0.0000E+00 0.9000E+01
       -2  1    1    2    0  501 0.34766677E+03 0.27841835E+03 0.10285460E+03 0.45713033E+03 0.32000000E+00 0.0000E+00 0.9000E+01
#aMCatNLO 1  0  0  4  2 0.79210589D+01 0.00000000D+00  -5  6  0 0.00000000D+00 0.00000000D+00 0.00000000D+00 0.00000000D+00 0.00000000D+00
  <mgrwgt>
 0.7713932306D-02    9    2    0
 0.757175919599889D+03 0.000000000000000D+00 0.000000000000000D+00 0.757175919599889D+03
 0.757175919599889D+03 -.000000000000000D+00 -.000000000000000D+00 -.757175919599889D+03
 0.564642727109870D+03 -.353391708902889D+03 -.314632779039286D+03 0.281632604133084D+03
 0.467654091049082D+03 0.579548287934119D+01 0.362709235127439D+02 -.466209375024432D+03
 0.482055021040825D+03 0.347596226023548D+03 0.278361855526543D+03 0.184576770891348D+03
 0.000000000000000D+00 0.000000000000000D+00 0.000000000000000D+00 -.000000000000000D+00
 0.757175919599889D+03 0.000000000000000D+00 0.000000000000000D+00 0.757175919599889D+03
 0.757175919599889D+03 -.000000000000000D+00 -.000000000000000D+00 -.757175919599889D+03
 0.564580755189246D+03 -.353390307814095D+03 -.314624010350718D+03 0.281519895538396D+03
 0.313099113850876D+03 0.344678408467450D+01 0.321618244813298D+02 -.311423813828856D+03
 0.482023370883403D+03 0.347597422207875D+03 0.278369341824257D+03 0.184480545544969D+03
 0.154648599276252D+03 0.234610152154600D+01 0.409284404513187D+01 -.154576627254509D+03
0.236702757302D-04 0.000000000000D+00 0.000000000000D+00 0.114506538153D-04 0.000000000000D+00  6 -1 1 25 2 -2 21 0 0.97833039D-01 0.13870155D+00 0.23592457D+06 0.23592457D+06 0.23592457D+06 0.10923575D+01  1  2  2  3  6  4        2 0.553904960923D-04 0.100000000000D+01
0.111888670583D-04 0.000000000000D+00 -.909000913306D-07 0.114506538153D-04 0.000000000000D+00  6 -1 1 25 2 -2 21 2 0.97833039D-01 0.13870155D+00 0.23592457D+06 0.23592457D+06 0.23592457D+06 0.10923575D+01  1  2  3  3  6  4        2 0.312426319624D-04 0.100000000000D+01
-.144706528164D-04 0.000000000000D+00 0.000000000000D+00 0.114506538153D-04 0.000000000000D+00  6 -1 1 25 2 -2 21 2 0.97833039D-01 0.13870155D+00 0.23592457D+06 0.23592457D+06 0.23592457D+06 0.10923575D+01  1  2 15  3  6  4        2 -.404063501554D-04 0.100000000000D+01
0.108362872411D-07 0.000000000000D+00 0.000000000000D+00 0.114506538153D-04 0.000000000000D+00  6 -1 1 25 2 -2 21 2 0.97833039D-01 0.13870155D+00 0.23608563D+06 0.23608563D+06 0.23608563D+06 0.10923350D+01  1  2 12  3  6  4        2 0.302558537728D-07 0.100000000000D+01
0.401734074678D-02 0.000000000000D+00 0.000000000000D+00 0.114506538153D-04 0.000000000000D+00  6 -1 1 25 2 -2 21 2 0.97833039D-01 0.13870155D+00 0.23608563D+06 0.23608563D+06 0.23608563D+06 0.10923350D+01  1  2 12  3  6  4        2 0.112167637758D-01 0.100000000000D+01
-.327017495733D-02 0.000000000000D+00 0.000000000000D+00 0.114506538153D-04 0.000000000000D+00  6 -1 1 25 2 -2 21 2 0.97833039D-01 0.13870155D+00 0.23592457D+06 0.23592457D+06 0.23592457D+06 0.10923575D+01  1  2  4  3  6  4        2 -.913129739700D-02 0.100000000000D+01
-.513469200609D-02 0.000000000000D+00 0.000000000000D+00 0.114506538153D-04 0.000000000000D+00  6 -1 1 25 2 -2 21 2 0.97833039D-01 0.13870155D+00 0.23592457D+06 0.23592457D+06 0.23592457D+06 0.10923575D+01  1  2  5  3  6  4        2 -.143375814326D-01 0.100000000000D+01
0.709223514028D-02 0.000000000000D+00 -.000000000000D+00 0.114506538153D-04 0.000000000000D+00  6 -1 1 25 2 -2 21 2 0.97833039D-01 0.13870155D+00 0.23592457D+06 0.23592457D+06 0.23592457D+06 0.10923575D+01  1  2  6  3  6  4        2 0.198036218613D-01 0.100000000000D+01
0.416063239634D-04 0.000000000000D+00 0.000000000000D+00 0.114506538153D-04 0.386894200870D-05  6 -1 1 25 2 -2 21 2 0.97833039D-01 0.13870155D+00 0.23608563D+06 0.23608563D+06 0.23608563D+06 0.10923350D+01  1  2 11  3  6  4        2 0.116168464885D-03 0.100000000000D+01
  </mgrwgt>
  </event>
  <event>
  5     66 0.18829897E-05 0.17702237E+03 0.75467711E-02 0.95244055E-01
       -1 -1    0    0    0  501 0.00000000E+00 0.00000000E+00 0.10230405E+04 0.10230405E+04 0.32000000E+00 0.0000E+00 0.9000E+01
        1 -1    0    0  502    0 0.00000000E+00 0.00000000E+00 -.18278111E+04 0.18278111E+04 0.32000000E+00 0.0000E+00 0.9000E+01
       25  1    1    2    0    0 -.11178426E+03 -.44231117E+03 -.46982172E+03 0.66670259E+03 0.12500000E+03 0.0000E+00 0.9000E+01
        2  1    1    2  502    0 0.99600091E+02 0.14632977E+03 -.12293185E+04 0.12419970E+04 0.32000000E+00 0.0000E+00 0.9000E+01
       -2  1    1    2    0  501 0.12184173E+02 0.29598140E+03 0.89436956E+03 0.94215203E+03 0.32000000E+00 0.0000E+00 0.9000E+01
#aMCatNLO 1  0  0  2  5 0.13479469D+01 0.00000000D+00  -5  6  0 0.00000000D+00 0.00000000D+00 0.00000000D+00 0.00000000D+00 0.00000000D+00
  <mgrwgt>
 0.1065221248D-01   10    2    0
 0.136745194540503D+04 0.000000000000000D+00 0.000000000000000D+00 0.136745194540503D+04
 0.136745194540503D+04 0.000000000000000D+00 0.000000000000000D+00 -.136745194540503D+04
 0.556702735238331D+03 -.111790435989934D+03 -.442318221675495D+03 -.293513925763066D+03
 0.932944236048942D+03 0.996064060127007D+02 0.146340295194537D+03 -.915995649258529D+03
 0.124525691952278D+04 0.121840299772330D+02 0.295977926480959D+03 0.120950957502159D+04
 0.000000000000000D+00 0.000000000000000D+00 0.000000000000000D+00 -.000000000000000D+00
 0.136775596684918D+04 0.000000000000000D+00 0.000000000000000D+00 0.136775596684918D+04
 0.136894703392376D+04 0.000000000000000D+00 0.000000000000000D+00 -.136894703392376D+04
 0.556802492215927D+03 -.112058711530186D+03 -.442375898858895D+03 -.293513925763066D+03
 0.932881193018112D+03 0.991568748271625D+02 0.146243649437687D+03 -.915995649258529D+03
 0.124522053775600D+04 0.115840020933348D+02 0.295848925088317D+03 0.120950957502159D+04
 0.179877778290063D+01 0.131783460968916D+01 0.283324332890403D+00 -.119106707458250D+01
0.819525547431D-02 0.000000000000D+00 0.000000000000D+00 0.140685370410D-03 0.000000000000D+00  6 -1 1 25 2 -2 21 0 0.15739085D+00 0.28120171D+00 0.22386698D+06 0.22386698D+06 0.22386698D+06 0.10940848D+01  1  2  2  2  6  2        1 0.129774132952D-02 0.100000000000D+01
0.100048611343D-02 0.000000000000D+00 -.314719388817D-04 0.140685370410D-03 0.000000000000D+00  6 -1 1 25 2 -2 21 2 0.15739085D+00 0.28120171D+00 0.22386698D+06 0.22386698D+06 0.22386698D+06 0.10940848D+01  1  2  3  2  6  2        1 0.189643812582D-03 0.100000000000D+01
-.577629548944D-02 0.000000000000D+00 0.000000000000D+00 0.140685370410D-03 0.000000000000D+00  6 -1 1 25 2 -2 21 2 0.15739085D+00 0.28120171D+00 0.22386698D+06 0.22386698D+06 0.22386698D+06 0.10940848D+01  1  2 15  2  6  2        1 -.109490645049D-02 0.100000000000D+01
-.704496706290D-01 0.000000000000D+00 0.000000000000D+00 0.140685370410D-03 0.000000000000D+00  6 -1 1 25 2 -2 21 2 0.15739085D+00 0.28120171D+00 0.22386698D+06 0.22386698D+06 0.22386698D+06 0.10940848D+01  1  2  4  2  6  2        1 -.133538526462D-01 0.100000000000D+01
-.169956701762D+02 0.000000000000D+00 -.124810440433D+01 0.140685370410D-03 0.000000000000D+00  6 -1 1 25 2 -2 21 2 0.15739085D+00 0.28153528D+00 0.22386698D+06 0.22386698D+06 0.22386698D+06 0.10940848D+01  1  2  5  2  6  2        1 -.321094303979D+01 0.100000000000D+01
0.169971387587D+02 0.000000000000D+00 0.124810352726D+01 0.140685370410D-03 0.000000000000D+00  6 -1 1 25 2 -2 21 2 0.15739085D+00 0.28120171D+00 0.22386698D+06 0.22386698D+06 0.22386698D+06 0.10940848D+01  1  2  6  2  6  2        1 0.322183601944D+01 0.100000000000D+01
0.690750780023D-01 0.000000000000D+00 0.000000000000D+00 0.140685370410D-03 0.310703462804D-04  6 -1 1 25 2 -2 21 2 0.15742584D+00 0.28150916D+00 0.22433082D+06 0.22433082D+06 0.22433082D+06 0.10940165D+01  1  2 11  2  6  2        1 0.130409065992D-01 0.100000000000D+01
0.569156699327D-15 0.000000000000D+00 0.000000000000D+00 0.140685370410D-03 0.000000000000D+00  6 -1 21 25 2 -2 -1 2 0.15739085D+00 0.28154040D+00 0.22433082D+06 0.22433082D+06 0.22433082D+06 0.10940165D+01  1  2 12  6  6  2        1 0.631587717383D-16 0.100000000000D+01
-.377050887067D-02 0.000000000000D+00 -.276941625392D-03 0.140685370410D-03 0.000000000000D+00  6 -1 21 25 2 -2 -1 2 0.15739085D+00 0.28153528D+00 0.22386698D+06 0.22386698D+06 0.22386698D+06 0.10940848D+01  1  2  5  6  6  2        1 -.418609719242D-03 0.100000000000D+01
0.886085566878D-03 0.000000000000D+00 0.000000000000D+00 0.140685370410D-03 0.992619009254D-07  6 -1 21 25 2 -2 -1 2 0.15742584D+00 0.28150916D+00 0.22433082D+06 0.22433082D+06 0.22433082D+06 0.10940165D+01  1  2 11  6  6  2        1 0.983099076409D-04 0.100000000000D+01
  </mgrwgt>
  </event>
  <event>
  5     66 0.18829897E-05 0.31525722E+02 0.75467711E-02 0.90565649E-01
       -1 -1    0    0    0  501 0.00000000E+00 0.00000000E+00 0.53879536E+03 0.53879545E+03 0.32000000E+00 0.0000E+00 0.9000E+01
        1 -1    0    0  502    0 0.00000000E+00 0.00000000E+00 -.22225073E+04 0.22225073E+04 0.32000000E+00 0.0000E+00 0.9000E+01
       25  1    1    2    0    0 0.11618183E+03 -.49972201E+03 -.74329119E+03 0.91177141E+03 0.12500000E+03 0.0000E+00 0.9000E+01
        2  1    1    2  502    0 -.84840532E+02 0.49629523E+03 -.13489166E+04 0.14398204E+04 0.32000000E+00 0.0000E+00 0.9000E+01
       -2  1    1    2    0  501 -.31341299E+02 0.34267818E+01 0.40849588E+03 0.40971088E+03 0.32000000E+00 0.0000E+00 0.9000E+01
#aMCatNLO 1  0  0  2  4 0.55696464D+03 0.00000000D+00  -5  6  0 0.00000000D+00 0.00000000D+00 0.00000000D+00 0.00000000D+00 0.00000000D+00
  <mgrwgt>
 0.6432971065D-02    7    2    0
 0.109429281108407D+04 0.000000000000000D+00 0.000000000000000D+00 0.109429281108407D+04
 0.109429281108407D+04 0.000000000000000D+00 0.000000000000000D+00 -.109429281108407D+04
 0.578578081205967D+03 0.116191923069476D+03 -.499782317772538D+03 -.236314764471681D+03
 0.778882221210130D+03 -.848529685553695D+02 0.496355792287055D+03 -.594212433147992D+03
 0.831125319752038D+03 -.313389545141069D+02 0.342652548548322D+01 0.830527197619674D+03
 0.000000000000000D+00 -.000000000000000D+00 -.000000000000000D+00 -.000000000000000D+00
 0.116209090862754D+04 0.000000000000000D+00 0.000000000000000D+00 0.116209090862754D+04
 0.153482093968018D+04 0.000000000000000D+00 0.000000000000000D+00 -.153482093968018D+04
 0.591169297563973D+03 0.198422322498813D+03 -.488507986023926D+03 -.236314764471681D+03
 0.784390844696550D+03 0.250413308119064D+02 0.511423027724876D+03 -.594212433147992D+03
 0.835174493826584D+03 0.857978749641389D+02 0.194867597137399D+02 0.830527197619674D+03
 0.486177212220613D+03 -.309261528274859D+03 -.424018014146890D+02 -.372730031052631D+03
0.682108089229D-02 0.000000000000D+00 0.000000000000D+00 0.134569873922D-03 0.000000000000D+00  6 -1 1 25 2 -2 21 0 0.82891603D-01 0.34192420D+00 0.28259830D+06 0.28259830D+06 0.28259830D+06 0.10864771D+01  1  2  2  2  6  2        1 0.275786046645D-02 0.100000000000D+01
0.446738716341D-02 0.000000000000D+00 -.261947466582D-04 0.134569873922D-03 0.000000000000D+00  6 -1 1 25 2 -2 21 2 0.82891603D-01 0.34192420D+00 0.28259830D+06 0.28259830D+06 0.28259830D+06 0.10864771D+01  1  2  3  2  6  2        1 0.213213085171D-02 0.100000000000D+01
-.456681958600D-02 0.000000000000D+00 0.000000000000D+00 0.134569873922D-03 0.000000000000D+00  6 -1 1 25 2 -2 21 2 0.82891603D-01 0.34192420D+00 0.28259830D+06 0.28259830D+06 0.28259830D+06 0.10864771D+01  1  2 15  2  6  2        1 -.217958654070D-02 0.100000000000D+01
-.323405781161D-02 0.000000000000D+00 0.000000000000D+00 0.134569873922D-03 0.000000000000D+00  6 -1 1 25 2 -2 21 2 0.82891603D-01 0.34192420D+00 0.28259830D+06 0.28259830D+06 0.28259830D+06 0.10864771D+01  1  2  4  2  6  2        1 -.154350500284D-02 0.100000000000D+01
-.130396869434D-01 0.000000000000D+00 -.402449547233D-02 0.134569873922D-03 0.000000000000D+00  6 -1 1 25 2 -2 21 2 0.82891603D-01 0.48683193D+00 0.28259830D+06 0.28259830D+06 0.28259830D+06 0.10864771D+01  1  2  5  2  6  2        1 -.132499191684D-02 0.100000000000D+01
0.138282479040D-01 0.000000000000D+00 0.378571845663D-02 0.134569873922D-03 0.000000000000D+00  6 -1 1 25 2 -2 21 2 0.82891603D-01 0.34192420D+00 0.28259830D+06 0.28259830D+06 0.28259830D+06 0.10864771D+01  1  2  6  2  6  2        1 0.659974900377D-02 0.100000000000D+01
-.451768095020D-03 0.000000000000D+00 -.175045209867D-03 0.134569873922D-03 0.000000000000D+00  6 -1 21 25 2 -2 -1 2 0.82891603D-01 0.48683193D+00 0.28259830D+06 0.28259830D+06 0.28259830D+06 0.10864771D+01  1  2  5  6  6  2        1 -.868579668173D-05 0.100000000000D+01
  </mgrwgt>
  </event>
  <event>
  5     66 0.18829897E-05 0.27393684E+02 0.75467711E-02 0.94392277E-01
       -1 -1    0    0    0  501 0.00000000E+00 0.00000000E+00 0.42042083E+03 0.42042095E+03 0.32000000E+00 0.0000E+00 0.9000E+01
        1 -1    0    0  502    0 0.00000000E+00 0.00000000E+00 -.15566772E+04 0.15566772E+04 0.32000000E+00 0.0000E+00 0.9000E+01
       25  1    1    2    0    0 0.24277811E+03 0.42604416E+03 -.24586523E+03 0.56260959E+03 0.12500000E+03 0.0000E+00 0.9000E+01
        2  1    1    2  502    0 -.26442230E+03 -.40923691E+03 -.11000098E+04 0.12030859E+04 0.32000000E+00 0.0000E+00 0.9000E+01
       -2  1    1    2    0  501 0.21644194E+02 -.16807253E+02 0.20961873E+03 0.21140263E+03 0.32000000E+00 0.0000E+00 0.9000E+01
#aMCatNLO 1  0  0  1  4 0.21390574D+03 0.00000000D+00  -5  6  0 0.00000000D+00 0.00000000D+00 0.00000000D+00 0.00000000D+00 0.00000000D+00
  <mgrwgt>
 0.1107362369D-01    7    4    0
 0.808986809033760D+03 0.000000000000000D+00 0.000000000000000D+00 0.808986809033760D+03
 0.808986809033760D+03 0.000000000000000D+00 0.000000000000000D+00 -.808986809033760D+03
 0.514928061488206D+03 0.242832108159460D+03 0.426116309571907D+03 0.947806228701483D+02
 0.697657127834188D+03 -.264468505107743D+03 -.409315111585343D+03 -.499242443359740D+03
 0.405388428745126D+03 0.216363969482832D+02 -.168011979865643D+02 0.404461820489591D+03
 0.000000000000000D+00 0.000000000000000D+00 0.000000000000000D+00 0.000000000000000D+00
 0.981681392555055D+03 0.000000000000000D+00 0.000000000000000D+00 0.981681392555055D+03
 0.887895269569417D+03 0.000000000000000D+00 0.000000000000000D+00 -.887895269569417D+03
 0.457685925845477D+03 0.192943491472546D+03 0.384240613865533D+03 0.947806228701483D+02
 0.766600817746162D+03 -.339575180859018D+03 -.472358437060084D+03 -.499242443359740D+03
 0.408264574341933D+03 -.200985804587815D+02 -.518328611248427D+02 0.404461820489591D+03
 0.237025344190900D+03 0.166730269845253D+03 0.139950684319394D+03 0.937861229856374D+02
 0.808986809033760D+03 0.000000000000000D+00 0.000000000000000D+00 0.808986809033760D+03
 0.808986809033760D+03 0.000000000000000D+00 0.000000000000000D+00 -.808986809033760D+03
 0.514928061488206D+03 0.242832108159460D+03 0.426116309571907D+03 0.947806228701483D+02
 0.697657127834188D+03 -.264468505107743D+03 -.409315111585343D+03 -.499242443359740D+03
 0.000000000000000D+00 0.000000000000000D+00 0.000000000000000D+00 0.000000000000000D+00
 0.405388428745126D+03 0.216363969482832D+02 -.168011979865643D+02 0.404461820489591D+03
 0.981681392555055D+03 0.000000000000000D+00 0.000000000000000D+00 0.981681392555055D+03
 0.887895269569417D+03 0.000000000000000D+00 0.000000000000000D+00 -.887895269569417D+03
 0.457685925845477D+03 0.192943491472546D+03 0.384240613865533D+03 0.947806228701483D+02
 0.766600817746162D+03 -.339575180859018D+03 -.472358437060084D+03 -.499242443359740D+03
 0.237025344190900D+03 0.166730269845253D+03 0.139950684319394D+03 0.937861229856374D+02
 0.408264574341933D+03 -.200985804587815D+02 -.518328611248427D+02 0.404461820489591D+03
0.276092359701D-02 0.000000000000D+00 0.000000000000D+00 0.467942530712D-04 0.000000000000D+00  6 -1 1 25 2 -2 21 0 0.64680139D-01 0.23948881D+00 0.26053131D+06 0.26053131D+06 0.26053131D+06 0.10891136D+01  1  2  2  1  6  1       -1 0.510508962404D-02 0.100000000000D+01
0.152766352181D-02 0.000000000000D+00 -.106026735804D-04 0.467942530712D-04 0.000000000000D+00  6 -1 1 25 2 -2 21 2 0.64680139D-01 0.23948881D+00 0.26053131D+06 0.26053131D+06 0.26053131D+06 0.10891136D+01  1  2  3  1  6  1       -1 0.335060333924D-02 0.100000000000D+01
-.170698564405D-02 0.000000000000D+00 0.000000000000D+00 0.467942530712D-04 0.000000000000D+00  6 -1 1 25 2 -2 21 2 0.64680139D-01 0.23948881D+00 0.26053131D+06 0.26053131D+06 0.26053131D+06 0.10891136D+01  1  2 15  1  6  1       -1 -.374390807749D-02 0.100000000000D+01
-.789492677350D-04 0.000000000000D+00 0.000000000000D+00 0.467942530712D-04 0.000000000000D+00  6 -1 1 25 2 -2 21 2 0.64680139D-01 0.23948881D+00 0.26053131D+06 0.26053131D+06 0.26053131D+06 0.10891136D+01  1  2  4  1  6  1       -1 -.173158340385D-03 0.100000000000D+01
-.773549651035D-02 0.000000000000D+00 -.312645434769D-02 0.467942530712D-04 0.000000000000D+00  6 -1 1 25 2 -2 21 2 0.85097312D-01 0.23948881D+00 0.26053131D+06 0.26053131D+06 0.26053131D+06 0.10891136D+01  1  2  5  1  6  1       -1 -.980541341123D-02 0.100000000000D+01
0.838958695065D-02 0.000000000000D+00 0.301238096004D-02 0.467942530712D-04 0.000000000000D+00  6 -1 1 25 2 -2 21 2 0.64680139D-01 0.23948881D+00 0.26053131D+06 0.26053131D+06 0.26053131D+06 0.10891136D+01  1  2  6  1  6  1       -1 0.184007653848D-01 0.100000000000D+01
-.219347175559D-03 0.000000000000D+00 -.113265587671D-03 0.467942530712D-04 0.000000000000D+00  6 21 1 25 2 1 -2 2 0.85097312D-01 0.23948881D+00 0.26053131D+06 0.26053131D+06 0.26053131D+06 0.10891136D+01  3  4  5  5  5  1       -1 -.206035482397D-02 0.100000000000D+01
  </mgrwgt>
  </event>
  <event>
  5     66 -.18829897E-05 0.24298276E+02 0.75467711E-02 0.91312884E-01
       -1 -1    0    0    0  501 0.00000000E+00 0.00000000E+00 0.13787031E+04 0.13787032E+04 0.32000000E+00 0.0000E+00 0.9000E+01
        1 -1    0    0  502    0 0.00000000E+00 0.00000000E+00 -.63795445E+03 0.63795453E+03 0.32000000E+00 0.0000E+00 0.9000E+01
       25  1    1    2    0    0 0.55828665E+03 0.93950594E+02 0.11108136E+04 0.12530134E+04 0.12500000E+03 0.0000E+00 0.9000E+01
        2  1    1    2  502    0 -.57869314E+03 -.10753824E+03 -.40962150E+03 0.71710536E+03 0.32000000E+00 0.0000E+00 0.9000E+01
       -2  1    1    2    0  501 0.20406496E+02 0.13587642E+02 0.39556536E+02 0.46538919E+02 0.32000000E+00 0.0000E+00 0.9000E+01
#aMCatNLO 1  0  0  2  4 0.23678605D+02 0.00000000D+00  -5  6  0 0.00000000D+00 0.00000000D+00 0.00000000D+00 0.00000000D+00 0.00000000D+00
  <mgrwgt>
 -.1215167547D-03    5    2    0
 0.937843224935645D+03 0.000000000000000D+00 0.000000000000000D+00 0.937843224935645D+03
 0.937843224935645D+03 0.000000000000000D+00 0.000000000000000D+00 -.937843224935645D+03
 0.908800658375547D+03 0.558546242988514D+03 0.940757278689019D+02 0.699620960615946D+03
 0.932778392700245D+03 -.578771261220721D+03 -.107542532630271D+03 -.723556466869654D+03
 0.341073987954990D+02 0.202250182322070D+02 0.134668047613689D+02 0.239355062537075D+02
 0.000000000000000D+00 -.000000000000000D+00 -.000000000000000D+00 -.000000000000000D+00
 0.944843342437230D+03 0.000000000000000D+00 0.000000000000000D+00 0.944843342437230D+03
 0.253406846713059D+04 0.000000000000000D+00 0.000000000000000D+00 -.253406846713059D+04
 0.948743906839892D+03 0.610096807889761D+03 0.151004626536297D+03 0.699620960615946D+03
 0.897190698235252D+03 -.527985970705440D+03 -.514587503656716D+02 -.723556466869654D+03
 0.361755570751587D+02 0.221755103743116D+02 0.156207941448439D+02 0.239355062537075D+02
 0.159680164741751D+04 -.104286347558633D+03 -.115166670315469D+03 -.158922512469336D+04
0.388589244942D-04 0.000000000000D+00 0.000000000000D+00 0.405826939133D-06 0.000000000000D+00  6 -1 1 25 2 -2 21 0 0.21210818D+00 0.98146848D-01 0.35582326D+06 0.35582326D+06 0.35582326D+06 0.10791109D+01  1  2  2  2  6  2        1 0.163641111238D-04 0.100000000000D+01
0.130161809232D-04 0.000000000000D+00 -.149228501847D-06 0.405826939133D-06 0.000000000000D+00  6 -1 1 25 2 -2 21 2 0.21210818D+00 0.98146848D-01 0.35582326D+06 0.35582326D+06 0.35582326D+06 0.10791109D+01  1  2  3  2  6  2        1 0.638288998457D-05 0.100000000000D+01
-.276224193649D-04 0.000000000000D+00 0.000000000000D+00 0.405826939133D-06 0.000000000000D+00  6 -1 1 25 2 -2 21 2 0.21210818D+00 0.98146848D-01 0.35582326D+06 0.35582326D+06 0.35582326D+06 0.10791109D+01  1  2 15  2  6  2        1 -.135455142298D-04 0.100000000000D+01
-.164963478810D-02 0.000000000000D+00 -.214587687055D-04 0.405826939133D-06 0.000000000000D+00  6 -1 1 25 2 -2 21 2 0.21210818D+00 0.26560322D+00 0.35582326D+06 0.35582326D+06 0.35582326D+06 0.10791109D+01  1  2  5  2  6  2        1 -.122246675742D-03 0.100000000000D+01
-.182018858748D-03 0.000000000000D+00 -.238394743671D-05 0.405826939133D-06 0.000000000000D+00  6 -1 21 25 2 -2 -1 2 0.21210818D+00 0.26560322D+00 0.35582326D+06 0.35582326D+06 0.35582326D+06 0.10791109D+01  1  2  5  6  6  2        1 -.847156580458D-05 0.100000000000D+01
  </mgrwgt>
  </event>
  <event>
  5     66 0.18829897E-05 0.58565982E+02 0.75467711E-02 0.91490204E-01
       -1 -1    0    0    0  501 0.00000000E+00 0.00000000E+00 0.70793487E+03 0.70793494E+03 0.32000000E+00 0.0000E+00 0.9000E+01
        1 -1    0    0  502    0 -.00000000E+00 -.00000000E+00 -.16152339E+04 0.16152339E+04 0.32000000E+00 0.0000E+00 0.9000E+01
       25  1    1    2    0    0 0.61056080E+03 -.66133353E+01 0.50733875E+02 0.62532164E+03 0.12500000E+03 0.0000E+00 0.9000E+01
        2  1    1    2  502    0 -.55588009E+03 0.27648111E+02 -.12667464E+04 0.13836234E+04 0.32000000E+00 0.0000E+00 0.9000E+01
       -2  1    1    2    0  501 -.54680716E+02 -.21034776E+02 0.30871355E+03 0.31422380E+03 0.32000000E+00 0.0000E+00 0.9000E+01
#aMCatNLO 1  0  0  5  4 0.55885490D+02 0.00000000D+00  -5  6  0 0.00000000D+00 0.00000000D+00 0.00000000D+00 0.00000000D+00 0.00000000D+00
  <mgrwgt>
 0.4471007609D-02    5    2    0
 0.106933647636413D+04 0.000000000000000D+00 0.000000000000000D+00 0.106933647636413D+04
 0.106933647636413D+04 -.000000000000000D+00 -.000000000000000D+00 -.106933647636413D+04
 0.700918115490539D+03 0.610625282347542D+03 -.662332609729012D+01 0.320552804904592D+03
 0.965627022429212D+03 -.555964229735596D+03 0.276505377132159D+02 -.789034073702892D+03
 0.472127814808504D+03 -.546610526119465D+02 -.210272116159258D+02 0.468481268798301D+03
 0.000000000000000D+00 0.000000000000000D+00 0.000000000000000D+00 -.000000000000000D+00
 0.106933647636413D+04 0.000000000000000D+00 0.000000000000000D+00 0.106933647636413D+04
 0.106933647636413D+04 -.000000000000000D+00 -.000000000000000D+00 -.106933647636413D+04
 0.710762715629333D+03 0.607542792951855D+03 -.780910927799648D+01 0.346971771868155D+03
 0.939153247787540D+03 -.560123431202827D+03 0.260505610346542D+02 -.753386974215267D+03
 0.584410470268958D+02 0.443676914298148D+02 -.355068127597313D+02 -.136429535817576D+02
 0.430315942284486D+03 -.917870531788431D+02 0.172653610030736D+02 0.420058155928870D+03
0.153742548276D-01 0.000000000000D+00 0.000000000000D+00 0.315648465329D-04 0.000000000000D+00  6 -1 1 25 2 -2 21 0 0.10891306D+00 0.24849753D+00 0.38349584D+06 0.38349584D+06 0.38349584D+06 0.10767493D+01  1  2  2  4  6  5       -2 0.848430218875D-02 0.100000000000D+01
0.500171926272D-02 0.000000000000D+00 -.590411866724D-04 0.315648465329D-04 0.000000000000D+00  6 -1 1 25 2 -2 21 2 0.10891306D+00 0.24849753D+00 0.38349584D+06 0.38349584D+06 0.38349584D+06 0.10767493D+01  1  2  3  4  6  5       -2 0.320015162617D-02 0.100000000000D+01
-.103245060236D-01 0.000000000000D+00 0.000000000000D+00 0.315648465329D-04 0.000000000000D+00  6 -1 1 25 2 -2 21 2 0.10891306D+00 0.24849753D+00 0.38349584D+06 0.38349584D+06 0.38349584D+06 0.10767493D+01  1  2 15  4  6  5       -2 -.660572555266D-02 0.100000000000D+01
0.335804525838D-09 0.000000000000D+00 0.000000000000D+00 0.315648465329D-04 0.000000000000D+00  6 -1 1 25 2 -2 21 2 0.10891306D+00 0.24849753D+00 0.44306981D+06 0.44306981D+06 0.44306981D+06 0.10722406D+01  1  2 12  4  6  5       -2 0.210920791139D-09 0.100000000000D+01
-.949845353038D-03 0.000000000000D+00 0.000000000000D+00 0.315648465329D-04 0.000000000000D+00  6 -1 1 25 2 -2 21 2 0.10891306D+00 0.24849753D+00 0.38349584D+06 0.38349584D+06 0.38349584D+06 0.10767493D+01  1  2  4  4  6  5       -2 -.607720863863D-03 0.100000000000D+01
  </mgrwgt>
  </event>
  <event>
  6     66 0.18829897E-05 0.55101794E+02 0.75467711E-02 0.93875412E-01
       -1 -1    0    0    0  501 0.00000000E+00 0.00000000E+00 0.90971665E+03 0.90971670E+03 0.32000000E+00 0.0000E+00 0.9000E+01
        1 -1    0    0  502    0 0.00000000E+00 0.00000000E+00 -.63034809E+03 0.63034817E+03 0.32000000E+00 0.0000E+00 0.9000E+01
       25  1    1    2    0    0 0.43863989E+03 -.17984648E+03 -.24923569E+02 0.49091333E+03 0.12500000E+03 0.0000E+00 0.9000E+01
        2  1    1    2  503    0 -.65791256E+01 -.63016256E+02 -.72274453E+02 0.96114683E+02 0.32000000E+00 0.0000E+00 0.9000E+01
       -2  1    1    2    0  501 -.42773765E+03 0.25800945E+03 0.57060100E+03 0.75836270E+03 0.32000000E+00 0.0000E+00 0.9000E+01
       21  1    1    2  502  503 -.43231192E+01 -.15146718E+02 -.19403442E+03 0.19467416E+03 0.75000000E+00 0.0000E+00 0.9000E+01
#aMCatNLO 2  0  0  4  5 0.39896837D+02 0.00000000D+00  -5  6  0 0.00000000D+00 0.00000000D+00 0.00000000D+00 0.00000000D+00 0.00000000D+00
  <mgrwgt>
 0.7590974430D-03    2    2    0
 0.757257058221564D+03 0.000000000000000D+00 0.000000000000000D+00 0.757257058221564D+03
 0.757257058221564D+03 -.000000000000000D+00 -.000000000000000D+00 -.757257058221564D+03
 0.502854348279073D+03 0.438782353340126D+03 -.179032498393318D+03 -.112494028728279D+03
 0.342264802399684D+03 -.111744005649748D+02 -.801243295317146D+02 -.332566413744385D+03
 0.669394965764371D+03 -.427607952775151D+03 0.259156827925032D+03 0.445060442472664D+03
 0.000000000000000D+00 0.000000000000000D+00 0.000000000000000D+00 -.000000000000000D+00
 0.757257058221564D+03 0.000000000000000D+00 0.000000000000000D+00 0.757257058221564D+03
 0.757257058221564D+03 -.000000000000000D+00 -.000000000000000D+00 -.757257058221564D+03
 0.503854214106523D+03 0.438663891032453D+03 -.179881914245369D+03 -.116019639305559D+03
 0.110483619523075D+03 -.654906790053625D+01 -.627576923705962D+02 -.906929541964055D+02
 0.665958311580397D+03 -.427765087656788D+03 0.258030116298404D+03 0.440383879845784D+03
 0.234217971233133D+03 -.434973547512936D+01 -.153905096824388D+02 -.233671286343820D+03
-.652535770943D-08 0.000000000000D+00 0.000000000000D+00 0.403355760799D-05 0.000000000000D+00  6 -1 1 25 2 -2 21 2 0.13995642D+00 0.96976639D-01 0.28567362D+06 0.28567362D+06 0.28567362D+06 0.10861276D+01  1  2 13  3  6  4        2 -.130367924264D-07 0.100000000000D+01
0.379960596102D-03 0.000000000000D+00 0.000000000000D+00 0.403355760799D-05 0.189428830042D-07  6 -1 1 25 2 -2 21 2 0.13995642D+00 0.96976639D-01 0.28567362D+06 0.28567362D+06 0.28567362D+06 0.10861276D+01  1  2  1  3  6  4        2 0.759110479788D-03 0.100000000000D+01
  </mgrwgt>
  </event>
  <event>
  5     66 0.18829897E-05 0.23723857E+02 0.75467711E-02 0.90491507E-01
       -1 -1    0    0    0  501 0.00000000E+00 0.00000000E+00 0.51269363E+03 0.51269373E+03 0.32000000E+00 0.0000E+00 0.9000E+01
        1 -1    0    0  502    0 -.00000000E+00 -.00000000E+00 -.36090800E+04 0.36090800E+04 0.32000000E+00 0.0000E+00 0.9000E+01
       25  1    1    2    0    0 -.64546646E+03 -.16155196E+03 -.15732807E+04 0.17127648E+04 0.12500000E+03 0.0000E+00 0.9000E+01
        2  1    1    2  502    0 0.23039059E+02 0.56535084E+01 -.17335604E+04 0.17337227E+04 0.32000000E+00 0.0000E+00 0.9000E+01
       -2  1    1    2    0  501 0.62242740E+03 0.15589846E+03 0.21045474E+03 0.67528623E+03 0.32000000E+00 0.0000E+00 0.9000E+01
#aMCatNLO 1  0  0  4  5 0.25466732D+02 0.00000000D+00  -5  6  0 0.00000000D+00 0.00000000D+00 0.00000000D+00 0.00000000D+00 0.00000000D+00
  <mgrwgt>
 0.1772140105D-02    6    2    0
 0.136027664316226D+04 0.000000000000000D+00 0.000000000000000D+00 0.136027664316226D+04
 0.136027664316226D+04 -.000000000000000D+00 -.000000000000000D+00 -.136027664316226D+04
 0.804276550128310D+03 -.645463452524139D+03 -.161551205234776D+03 -.434181884270987D+03
 0.653664951209813D+03 0.230403073214161D+02 0.565381539767218D+01 -.653234297208980D+03
 0.126261178498640D+04 0.622423145202722D+03 0.155897389837104D+03 0.108741618147997D+04
 0.000000000000000D+00 0.000000000000000D+00 0.000000000000000D+00 -.000000000000000D+00
 0.136027664316226D+04 0.000000000000000D+00 0.000000000000000D+00 0.136027664316226D+04
 0.136027664316226D+04 -.000000000000000D+00 -.000000000000000D+00 -.136027664316226D+04
 0.807068901179387D+03 -.645271203229289D+03 -.161504029560934D+03 -.439632498764034D+03
 0.248842205641131D+03 0.749520696897215D+02 -.317551053096733D+02 -.235151533791174D+03
 0.125544159378522D+04 0.622723573634174D+03 0.155971111375100D+03 0.107889849321550D+04
 0.409200585718780D+03 -.524044400946077D+02 0.372880234955071D+02 -.404114460660296D+03
0.144502525194D-01 0.000000000000D+00 0.000000000000D+00 0.209579458145D-03 0.000000000000D+00  6 -1 1 25 2 -2 21 0 0.78875951D-01 0.55524308D+00 0.45050067D+06 0.45050067D+06 0.45050067D+06 0.10717249D+01  1  2  2  3  6  4        2 0.578187309103D-03 0.100000000000D+01
0.103033338798D-01 0.000000000000D+00 -.554927745133D-04 0.209579458145D-03 0.000000000000D+00  6 -1 1 25 2 -2 21 2 0.78875951D-01 0.55524308D+00 0.45050067D+06 0.45050067D+06 0.45050067D+06 0.10717249D+01  1  2  3  3  6  4        2 0.473519173424D-03 0.100000000000D+01
-.992256530280D-02 0.000000000000D+00 0.000000000000D+00 0.209579458145D-03 0.000000000000D+00  6 -1 1 25 2 -2 21 2 0.78875951D-01 0.55524308D+00 0.45050067D+06 0.45050067D+06 0.45050067D+06 0.10717249D+01  1  2 15  3  6  4        2 -.456019864566D-03 0.100000000000D+01
-.448006346250D-03 0.000000000000D+00 0.000000000000D+00 0.209579458145D-03 0.000000000000D+00  6 -1 1 25 2 -2 21 2 0.78875951D-01 0.55524308D+00 0.45050067D+06 0.45050067D+06 0.45050067D+06 0.10717249D+01  1  2  4  3  6  4        2 -.205894128289D-04 0.100000000000D+01
-.326317748407D-01 0.000000000000D+00 0.000000000000D+00 0.209579458145D-03 0.000000000000D+00  6 -1 1 25 2 -2 21 2 0.78875951D-01 0.55524308D+00 0.45050067D+06 0.45050067D+06 0.45050067D+06 0.10717249D+01  1  2  5  3  6  4        2 -.149968653159D-02 0.100000000000D+01
0.586783076037D-01 0.000000000000D+00 -.000000000000D+00 0.209579458145D-03 0.000000000000D+00  6 -1 1 25 2 -2 21 2 0.78875951D-01 0.55524308D+00 0.45050067D+06 0.45050067D+06 0.45050067D+06 0.10717249D+01  1  2  6  3  6  4        2 0.269672943134D-02 0.100000000000D+01
  </mgrwgt>
  </event>
  <event>
  5     66 0.18829897E-05 0.25535869E+02 0.75467711E-02 0.92256806E-01
       -1 -1    0    0    0  501 0.00000000E+00 0.00000000E+00 0.32397807E+03 0.32397822E+03 0.32000000E+00 0.0000E+00 0.9000E+01
        1 -1    0    0  502    0 0.00000000E+00 0.00000000E+00 -.15889666E+04 0.15889666E+04 0.32000000E+00 0.0000E+00 0.9000E+01
       25  1    1    2    0    0 0.31323310E+03 -.34114506E+03 -.41298117E+03 0.63298765E+03 0.12500000E+03 0.0000E+00 0.9000E+01
        2  1    1    2  502    0 -.33739652E+03 0.34943718E+03 -.10095652E+04 0.11203413E+04 0.32000000E+00 0.0000E+00 0.9000E+01
       -2  1    1    2    0  501 0.24163424E+02 -.82921131E+01 0.15755786E+03 0.15961582E+03 0.32000000E+00 0.0000E+00 0.9000E+01
#aMCatNLO 1  0  0  1  5 0.79225720D+02 0.00000000D+00  -5  6  0 0.00000000D+00 0.00000000D+00 0.00000000D+00 0.00000000D+00 0.00000000D+00
  <mgrwgt>
 0.1360764217D-01    4    2    0
 0.717489021865092D+03 0.000000000000000D+00 0.000000000000000D+00 0.717489021865092D+03
 0.717489021865092D+03 0.000000000000000D+00 0.000000000000000D+00 -.717489021865092D+03
 0.479870151954704D+03 0.313308672315470D+03 -.341219782359548D+03 0.755636919766519D+01
 0.603581685436745D+03 -.337461919736111D+03 0.349508403130320D+03 -.358153849433416D+03
 0.351526206338734D+03 0.241532474206416D+02 -.828862077077204D+01 0.350597480235751D+03
 0.000000000000000D+00 0.000000000000000D+00 0.000000000000000D+00 -.000000000000000D+00
 0.820939845046384D+03 0.000000000000000D+00 0.000000000000000D+00 0.820939845046384D+03
 0.842811845970767D+03 0.000000000000000D+00 0.000000000000000D+00 -.842811845970767D+03
 0.488081073457011D+03 0.263068280295042D+03 -.391581556580626D+03 0.755636919766519D+01
 0.608791601354675D+03 -.400388756961393D+03 0.286429532895835D+03 -.358153849433416D+03
 0.353690325961227D+03 -.124502033647699D+02 -.449805065231309D+02 0.350597480235751D+03
 0.213188690244237D+03 0.149770680031121D+03 0.150132530207922D+03 -.218720009243826D+02
0.589364955047D-02 0.000000000000D+00 0.000000000000D+00 0.222958928787D-04 0.000000000000D+00  6 -1 1 25 2 -2 21 0 0.49842794D-01 0.24445641D+00 0.24561073D+06 0.24561073D+06 0.24561073D+06 0.10910383D+01  1  2  2  1  6  1       -1 0.169133402538D-01 0.100000000000D+01
0.328708073282D-02 0.000000000000D+00 -.226331661074D-04 0.222958928787D-04 0.000000000000D+00  6 -1 1 25 2 -2 21 2 0.49842794D-01 0.24445641D+00 0.24561073D+06 0.24561073D+06 0.24561073D+06 0.10910383D+01  1  2  3  1  6  1       -1 0.112288541024D-01 0.100000000000D+01
-.384223917253D-02 0.000000000000D+00 0.000000000000D+00 0.222958928787D-04 0.000000000000D+00  6 -1 1 25 2 -2 21 2 0.49842794D-01 0.24445641D+00 0.24561073D+06 0.24561073D+06 0.24561073D+06 0.10910383D+01  1  2 15  1  6  1       -1 -.131253068001D-01 0.100000000000D+01
-.412535713870D-03 0.000000000000D+00 0.000000000000D+00 0.222958928787D-04 0.000000000000D+00  6 -1 1 25 2 -2 21 2 0.49842794D-01 0.24445641D+00 0.24561073D+06 0.24561073D+06 0.24561073D+06 0.10910383D+01  1  2  4  1  6  1       -1 -.140924538202D-02 0.100000000000D+01
  </mgrwgt>
  </event>
  <event>
  5     66 0.18829897E-05 0.25551197E+03 0.75467711E-02 0.91864870E-01
       -1 -1    0    0    0  501 0.00000000E+00 0.00000000E+00 0.88868913E+03 0.88868919E+03 0.32000000E+00 0.0000E+00 0.9000E+01
        1 -1    0    0  502    0 -.00000000E+00 -.00000000E+00 -.26541502E+04 0.26541503E+04 0.32000000E+00 0.0000E+00 0.9000E+01
       25  1    1    2    0    0 -.15298080E+03 0.58124297E+03 -.35793126E+03 0.71062388E+03 0.12500000E+03 0.0000E+00 0.9000E+01
        2  1    1    2  502    0 -.34877728E+02 -.38148688E+03 -.20752874E+04 0.21103475E+04 0.32000000E+00 0.0000E+00 0.9000E+01
       -2  1    1    2    0  501 0.18785853E+03 -.19975609E+03 0.66775752E+03 0.72186809E+03 0.32000000E+00 0.0000E+00 0.9000E+01
#aMCatNLO 1  0  0  4  2 0.49578550D+02 0.00000000D+00  -5  6  0 0.00000000D+00 0.00000000D+00 0.00000000D+00 0.00000000D+00 0.00000000D+00
  <mgrwgt>
 0.5503265758D-03    8    2    0
 0.153581073407208D+04 0.000000000000000D+00 0.000000000000000D+00 0.153581073407208D+04
 0.153581073407208D+04 -.000000000000000D+00 -.000000000000000D+00 -.153581073407208D+04
 0.613937174103870D+03 -.152971361961726D+03 0.581270103810342D+03 -.432233531016351D+01
 0.124132632661177D+04 -.348785531739812D+02 -.381523171936018D+03 -.118072630399421D+04
 0.121635796742853D+04 0.187849915135707D+03 -.199746931874324D+03 0.118504863930438D+04
 0.000000000000000D+00 0.000000000000000D+00 -.000000000000000D+00 0.000000000000000D+00
 0.153581073407208D+04 0.000000000000000D+00 0.000000000000000D+00 0.153581073407208D+04
 0.153581073407208D+04 -.000000000000000D+00 -.000000000000000D+00 -.153581073407208D+04
 0.613678892007748D+03 -.152997599235598D+03 0.580983104292309D+03 -.521053268610773D+01
 0.862667829837945D+03 -.735500794087371D+02 -.259960423581218D+03 -.819272084613990D+03
 0.121472994195906D+04 0.187797956611339D+03 -.200315286327765D+03 0.118328971323505D+04
 0.380544804339413D+03 0.387497220329960D+02 -.120707394383326D+03 -.358807095934954D+03
0.569359662969D-03 0.000000000000D+00 0.000000000000D+00 0.176374678434D-04 0.000000000000D+00  6 -1 1 25 2 -2 21 0 0.13672141D+00 0.40833081D+00 0.40401122D+06 0.40401122D+06 0.40401122D+06 0.10751154D+01  1  2  2  3  6  4        2 0.349296704801D-04 0.100000000000D+01
0.656657343562D-04 0.000000000000D+00 -.218649102164D-05 0.176374678434D-04 0.000000000000D+00  6 -1 1 25 2 -2 21 2 0.13672141D+00 0.40833081D+00 0.40401122D+06 0.40401122D+06 0.40401122D+06 0.10751154D+01  1  2  3  3  6  4        2 0.465646924456D-05 0.100000000000D+01
-.402182744315D-03 0.000000000000D+00 0.000000000000D+00 0.176374678434D-04 0.000000000000D+00  6 -1 1 25 2 -2 21 2 0.13672141D+00 0.40833081D+00 0.40401122D+06 0.40401122D+06 0.40401122D+06 0.10751154D+01  1  2 15  3  6  4        2 -.285194644963D-04 0.100000000000D+01
0.767478561180D-09 0.000000000000D+00 0.000000000000D+00 0.176374678434D-04 0.000000000000D+00  6 -1 1 25 2 -2 21 2 0.13672141D+00 0.40833081D+00 0.41291964D+06 0.41291964D+06 0.41291964D+06 0.10744338D+01  1  2 12  3  6  4        2 0.542378663084D-10 0.100000000000D+01
0.202723475405D-01 0.000000000000D+00 0.000000000000D+00 0.176374678434D-04 0.000000000000D+00  6 -1 1 25 2 -2 21 2 0.13672141D+00 0.40833081D+00 0.41291964D+06 0.41291964D+06 0.41291964D+06 0.10744338D+01  1  2 12  3  6  4        2 0.143265093160D-02 0.100000000000D+01
-.205231651579D-01 0.000000000000D+00 0.000000000000D+00 0.176374678434D-04 0.000000000000D+00  6 -1 1 25 2 -2 21 2 0.13672141D+00 0.40833081D+00 0.40401122D+06 0.40401122D+06 0.40401122D+06 0.10751154D+01  1  2  4  3  6  4        2 -.145533265250D-02 0.100000000000D+01
-.226046006489D-01 0.000000000000D+00 0.000000000000D+00 0.176374678434D-04 0.000000000000D+00  6 -1 1 25 2 -2 21 2 0.13672141D+00 0.40833081D+00 0.40401122D+06 0.40401122D+06 0.40401122D+06 0.10751154D+01  1  2  5  3  6  4        2 -.160293079395D-02 0.100000000000D+01
0.305291253781D-01 0.000000000000D+00 -.000000000000D+00 0.176374678434D-04 0.000000000000D+00  6 -1 1 25 2 -2 21 2 0.13672141D+00 0.40833081D+00 0.40401122D+06 0.40401122D+06 0.40401122D+06 0.10751154D+01  1  2  6  3  6  4        2 0.216487236121D-02 0.100000000000D+01
  </mgrwgt>
  </event>
  <event>
  6     66 0.18829897E-05 0.21053614E+02 0.75467711E-02 0.93863341E-01
       -1 -1    0    0    0  501 0.00000000E+00 0.00000000E+00 0.76137910E+03 0.76137916E+03 0.32000000E+00 0.0000E+00 0.9000E+01
        1 -1    0    0  502    0 -.00000000E+00 -.00000000E+00 -.17596090E+04 0.17596090E+04 0.32000000E+00 0.0000E+00 0.9000E+01
       25  1    1    2    0    0 -.14099026E+03 -.50710385E+03 -.22758311E+03 0.58690002E+03 0.12500000E+03 0.0000E+00 0.9000E+01
        2  1    1    2  502    0 0.12886280E+03 0.47570461E+03 -.13066203E+04 0.13964803E+04 0.32000000E+00 0.0000E+00 0.9000E+01
       -2  1    1    2    0  503 0.80991333E+01 0.57231678E+01 0.52111476E+02 0.53047704E+02 0.32000000E+00 0.0000E+00 0.9000E+01
       21  1    1    2  503  501 0.40283272E+01 0.25676066E+02 0.48386205E+03 0.48456015E+03 0.75000000E+00 0.0000E+00 0.9000E+01
#aMCatNLO 2  0  0  5  4 0.73406149D+01 0.00000000D+00  -5  6  0 0.00000000D+00 0.00000000D+00 0.00000000D+00 0.00000000D+00 0.00000000D+00
  <mgrwgt>
 0.3276880235D-02    2    2    0
 0.115746690740312D+04 0.000000000000000D+00 0.000000000000000D+00 0.115746690740312D+04
 0.115746690740312D+04 -.000000000000000D+00 -.000000000000000D+00 -.115746690740312D+04
 0.541218126956338D+03 -.141047087542315D+03 -.507314916075215D+03 0.541811494479622D+01
 0.957571301704729D+03 0.128920437959019D+03 0.475917781494532D+03 -.820868189042715D+03
 0.816144386145182D+03 0.121266495832965D+02 0.313971345806844D+02 0.815450074097919D+03
 0.000000000000000D+00 0.000000000000000D+00 0.000000000000000D+00 0.000000000000000D+00
 0.115746690740312D+04 0.000000000000000D+00 0.000000000000000D+00 0.115746690740312D+04
 0.115746690740312D+04 -.000000000000000D+00 -.000000000000000D+00 -.115746690740312D+04
 0.541215537711242D+03 -.141045798690342D+03 -.507311579105793D+03 0.550478310731251D+01
 0.957443105027836D+03 0.128922718163504D+03 0.475923685176879D+03 -.820714857910063D+03
 0.807462251066633D+02 0.804647537192369D+01 0.571983751356617D+01 0.801404427357588D+02
 0.735528946960508D+03 0.407660515491534D+01 0.256680564153493D+02 0.735069632066992D+03
-.578810002493D-10 0.000000000000D+00 0.000000000000D+00 0.287178493646D-03 0.000000000000D+00  6 -1 1 25 2 -2 21 2 0.11713525D+00 0.27070909D+00 0.28629246D+06 0.28629246D+06 0.28629246D+06 0.10860578D+01  1  2 13  4  6  5       -2 -.259236331136D-10 0.100000000000D+01
0.731645546720D-02 0.000000000000D+00 0.000000000000D+00 0.287178493646D-03 0.216502288655D-05  6 -1 1 25 2 -2 21 2 0.11713525D+00 0.27070909D+00 0.28629246D+06 0.28629246D+06 0.28629246D+06 0.10860578D+01  1  2  1  4  6  5       -2 0.327688026134D-02 0.100000000000D+01
  </mgrwgt>
  </event>
  <event>
  5     66 0.18829897E-05 0.43302965E+02 0.75467711E-02 0.89689689E-01
       -1 -1    0    0    0  501 0.00000000E+00 0.00000000E+00 0.23628570E+03 0.23628591E+03 0.32000000E+00 0.0000E+00 0.9000E+01
        1 -1    0    0  502    0 0.00000000E+00 0.00000000E+00 -.18617366E+04 0.18617366E+04 0.32000000E+00 0.0000E+00 0.9000E+01
       25  1    1    2    0    0 -.35436179E+03 -.36371516E+03 -.63093706E+03 0.81949227E+03 0.12500000E+03 0.0000E+00 0.9000E+01
        2  1    1    2  502    0 0.42355435E+02 -.89785658E+01 -.71804453E+03 0.71934877E+03 0.32000000E+00 0.0000E+00 0.9000E+01
       -2  1    1    2    0  501 0.31200636E+03 0.37269373E+03 -.27646932E+03 0.55918152E+03 0.32000000E+00 0.0000E+00 0.9000E+01
#aMCatNLO 1  0  0  2  4 0.16854714D+01 0.00000000D+00  -5  6  0 0.00000000D+00 0.00000000D+00 0.00000000D+00 0.00000000D+00 0.00000000D+00
  <mgrwgt>
 0.1657356329D-02    6    2    0
 0.663251073774484D+03 0.000000000000000D+00 0.000000000000000D+00 0.663251073774484D+03
 0.663251073774484D+03 0.000000000000000D+00 0.000000000000000D+00 -.663251073774484D+03
 0.522975890111484D+03 -.354351393802777D+03 -.363694507111323D+03 0.633852072485590D+01
 0.257919030563091D+03 0.423617793510435D+02 -.897922153445234D+01 -.254257899695277D+03
 0.545607226874394D+03 0.311989614451734D+03 0.372673728645775D+03 0.247919378970421D+03
 0.000000000000000D+00 0.000000000000000D+00 -.000000000000000D+00 -.000000000000000D+00
 0.801323861748961D+03 0.000000000000000D+00 0.000000000000000D+00 0.801323861748961D+03
 0.121900385558932D+04 0.000000000000000D+00 0.000000000000000D+00 -.121900385558932D+04
 0.610129208629729D+03 -.525555652083849D+03 -.283520247849921D+03 0.633852072485590D+01
 0.258214066286132D+03 -.356223230226454D+02 0.275404170817276D+02 -.254257899695277D+03
 0.534121138904285D+03 0.148850207336251D+03 0.449071250840317D+03 0.247919378970421D+03
 0.617863303518135D+03 0.412327767770243D+03 -.193091420072123D+03 -.417679993840360D+03
0.285912862647D-03 0.000000000000D+00 0.000000000000D+00 0.433878552591D-05 0.000000000000D+00  6 -1 1 25 2 -2 21 0 0.36351664D-01 0.28642104D+00 0.27681722D+06 0.27681722D+06 0.27681722D+06 0.10871455D+01  1  2  2  2  6  2        1 0.939883784007D-03 0.100000000000D+01
0.946845959339D-04 0.000000000000D+00 -.109798067515D-05 0.433878552591D-05 0.000000000000D+00  6 -1 1 25 2 -2 21 2 0.36351664D-01 0.28642104D+00 0.27681722D+06 0.27681722D+06 0.27681722D+06 0.10871455D+01  1  2  3  2  6  2        1 0.367870648587D-03 0.100000000000D+01
-.166090790982D-03 0.000000000000D+00 0.000000000000D+00 0.433878552591D-05 0.000000000000D+00  6 -1 1 25 2 -2 21 2 0.36351664D-01 0.28642104D+00 0.27681722D+06 0.27681722D+06 0.27681722D+06 0.10871455D+01  1  2 15  2  6  2        1 -.645299548467D-03 0.100000000000D+01
-.219320765271D-03 0.000000000000D+00 -.130429558048D-03 0.433878552591D-05 0.000000000000D+00  6 -1 1 25 2 -2 21 2 0.36351664D-01 0.55005896D+00 0.27681722D+06 0.27681722D+06 0.27681722D+06 0.10871455D+01  1  2  5  2  6  2        1 -.489499761544D-04 0.100000000000D+01
0.268728470712D-03 0.000000000000D+00 0.106858428838D-03 0.433878552591D-05 0.000000000000D+00  6 -1 1 25 2 -2 21 2 0.36351664D-01 0.28642104D+00 0.27681722D+06 0.27681722D+06 0.27681722D+06 0.10871455D+01  1  2  6  2  6  2        1 0.104406969095D-02 0.100000000000D+01
-.799613905151D-05 0.000000000000D+00 -.923692565127D-05 0.433878552591D-05 0.000000000000D+00  6 -1 21 25 2 -2 -1 2 0.36351664D-01 0.55005896D+00 0.27681722D+06 0.27681722D+06 0.27681722D+06 0.10871455D+01  1  2  5  6  6  2        1 -.218269841372D-06 0.100000000000D+01
  </mgrwgt>
  </event>
  <event>
  5     66 0.18829897E-05 0.13753021E+03 0.75467711E-02 0.94785667E-01
       -1 -1    0    0    0  501 0.00000000E+00 0.00000000E+00 0.10950783E+04 0.10950783E+04 0.32000000E+00 0.0000E+00 0.9000E+01
        1 -1    0    0  502    0 0.00000000E+00 0.00000000E+00 -.76817543E+03 0.76817549E+03 0.32000000E+00 0.0000E+00 0.9000E+01
       25  1    1    2    0    0 -.27023333E+03 0.38208495E+03 0.39156266E+03 0.62286538E+03 0.12500000E+03 0.0000E+00 0.9000E+01
        2  1    1    2  502    0 0.12953158E+03 -.46149188E+02 -.58739984E+03 0.60328008E+03 0.32000000E+00 0.0000E+00 0.9000E+01
       -2  1    1    2    0  501 0.14070175E+03 -.33593577E+03 0.52274003E+03 0.63710836E+03 0.32000000E+00 0.0000E+00 0.9000E+01
#aMCatNLO 1  0  0  4  5 0.50252692D+02 0.00000000D+00  -5  6  0 0.00000000D+00 0.00000000D+00 0.00000000D+00 0.00000000D+00 0.00000000D+00
  <mgrwgt>
 0.1609556407D-02    1    2    0
 0.917176280462976D+03 0.000000000000000D+00 0.000000000000000D+00 0.917176280462976D+03
 0.917176280462976D+03 -.000000000000000D+00 -.000000000000000D+00 -.917176280462976D+03
 0.562934748399992D+03 -.270226099425659D+03 0.382025922427160D+03 0.286887749370784D+03
 0.717542394371442D+03 0.129552930912150D+03 -.461583946467453D+02 -.704238971100016D+03
 0.553875418154517D+03 0.140673168513509D+03 -.335867527780415D+03 0.417351221729232D+03
 0.000000000000000D+00 0.000000000000000D+00 0.000000000000000D+00 0.000000000000000D+00
 0.917176280462976D+03 0.000000000000000D+00 0.000000000000000D+00 0.917176280462976D+03
 0.917176280462976D+03 -.000000000000000D+00 -.000000000000000D+00 -.917176280462976D+03
 0.502301565315454D+03 -.250877320315611D+03 0.375132148771820D+03 0.181709393338515D+03
 0.293591972401104D+03 -.986784429304687D+02 0.265236012358389D+03 -.781579740487778D+02
 0.491496862404002D+03 0.159661140556769D+03 -.342632749539145D+03 0.314134182941518D+03
 0.546962160805391D+03 0.189894622689310D+03 -.297735411591064D+03 -.417685602231255D+03
0.183814324742D-02 0.000000000000D+00 0.000000000000D+00 0.927467020236D-05 0.000000000000D+00  6 -1 1 25 2 -2 21 2 0.16847359D+00 0.11818084D+00 0.24305559D+06 0.24305559D+06 0.24305559D+06 0.10913807D+01  1  2 14  3  6  4        2 0.160955640728D-02 0.100000000000D+01
  </mgrwgt>
  </event>
  <event>
  6     66 -.18829897E-05 0.50372387E+02 0.75467711E-02 0.91950151E-01
       -1 -1    0    0    0  501 0.00000000E+00 0.00000000E+00 0.47996092E+03 0.47996103E+03 0.32000000E+00 0.0000E+00 0.9000E+01
        1 -1    0    0  502    0 -.00000000E+00 -.00000000E+00 -.31559810E+04 0.31559810E+04 0.32000000E+00 0.0000E+00 0.9000E+01
       25  1    1    2    0    0 -.39819018E+03 -.43402468E+03 -.10749373E+04 0.12320909E+04 0.12500000E+03 0.0000E+00 0.9000E+01
        2  1    1    2  502    0 -.38687817E+02 0.83933962E+02 -.17867986E+04 0.17891873E+04 0.32000000E+00 0.0000E+00 0.9000E+01
       -2  1    1    2    0  503 0.32900074E+03 0.33834442E+03 0.18282997E+03 0.50610803E+03 0.32000000E+00 0.0000E+00 0.9000E+01
       21  1    1    2  503  501 0.10787725E+03 0.11746305E+02 0.28858696E+01 0.10855583E+03 0.75000000E+00 0.0000E+00 0.9000E+01
#aMCatNLO 2  0  0  5  1 0.60538171D+02 0.00000000D+00  -5  6  0 0.00000000D+00 0.00000000D+00 0.00000000D+00 0.00000000D+00 0.00000000D+00
  <mgrwgt>
 -.2115490403D-02    3    2    0
 0.123075089512837D+04 0.000000000000000D+00 0.000000000000000D+00 0.123075089512837D+04
 0.123075089512837D+04 -.000000000000000D+00 -.000000000000000D+00 -.123075089512837D+04
 0.654011855227766D+03 -.399576498041787D+03 -.435180029079226D+03 -.251124413949998D+03
 0.703820622823310D+03 -.402445516201205D+02 0.827309005321015D+02 -.697781802050924D+03
 0.110366931220566D+04 0.439821049661908D+03 0.352449128547125D+03 0.948906216000922D+03
 0.000000000000000D+00 0.000000000000000D+00 0.000000000000000D+00 0.000000000000000D+00
 0.123075089512837D+04 0.000000000000000D+00 0.000000000000000D+00 0.123075089512837D+04
 0.123075089512837D+04 -.000000000000000D+00 -.000000000000000D+00 -.123075089512837D+04
 0.651182766873416D+03 -.398140373292133D+03 -.434029195309697D+03 -.248025999940602D+03
 0.700575717435952D+03 -.386992737677469D+02 0.839692037757751D+02 -.694447892133031D+03
 0.946194600629459D+03 0.328921284942865D+03 0.338308876470835D+03 0.820147617610950D+03
 0.163548705317911D+03 0.107918362117015D+03 0.117511150630869D+02 0.122326274462683D+03
-.299433940386D-08 0.000000000000D+00 0.000000000000D+00 0.320541262961D-04 0.000000000000D+00  6 -1 1 25 2 -2 21 2 0.73840152D-01 0.48553554D+00 0.40638196D+06 0.40638196D+06 0.40638196D+06 0.10749324D+01  1  2 13  4  6  5       -2 -.370061066685D-09 0.100000000000D+01
-.406354844094D-01 0.000000000000D+00 0.000000000000D+00 0.320541262961D-04 0.000000000000D+00  6 -1 1 25 2 -2 21 2 0.73840152D-01 0.48553554D+00 0.40638196D+06 0.40638196D+06 0.40638196D+06 0.10749324D+01  1  2 13  4  6  5       -2 -.502201276396D-02 0.100000000000D+01
0.235180523584D-01 0.000000000000D+00 0.000000000000D+00 0.320541262961D-04 0.205547620375D-07  6 -1 1 25 2 -2 21 2 0.73840152D-01 0.48553554D+00 0.40638196D+06 0.40638196D+06 0.40638196D+06 0.10749324D+01  1  2  1  4  6  5       -2 0.290652273115D-02 0.100000000000D+01
  </mgrwgt>
  </event>
  <event>
  6     66 0.18829897E-05 0.19449885E+02 0.75467711E-02 0.94744966E-01
       -1 -1    0    0    0  501 0.00000000E+00 0.00000000E+00 0.67405595E+03 0.67405603E+03 0.32000000E+00 0.0000E+00 0.9000E+01
        1 -1    0    0  502    0 -.00000000E+00 -.00000000E+00 -.29491013E+04 0.29491013E+04 0.32000000E+00 0.0000E+00 0.9000E+01
       25  1    1    2    0    0 -.39594296E+02 -.46769131E+03 -.49276427E+03 0.69191365E+03 0.12500000E+03 0.0000E+00 0.9000E+01
        2  1    1    2  502    0 0.13326794E+02 0.47239976E+03 -.23326309E+04 0.23800223E+04 0.32000000E+00 0.0000E+00 0.9000E+01
       -2  1    1    2    0  503 0.52729488E+01 0.55016690E+01 0.13280808E+03 0.13302691E+03 0.32000000E+00 0.0000E+00 0.9000E+01
       21  1    1    2  503  501 0.20994554E+02 -.10210119E+02 0.41754171E+03 0.41819452E+03 0.75000000E+00 0.0000E+00 0.9000E+01
#aMCatNLO 2  0  0  5  4 0.66905650D+01 0.00000000D+00  -5  6  0 0.00000000D+00 0.00000000D+00 0.00000000D+00 0.00000000D+00 0.00000000D+00
  <mgrwgt>
 0.3026977570D-01    2    2    0
 0.140991470253316D+04 0.000000000000000D+00 0.000000000000000D+00 0.140991470253316D+04
 0.140991470253316D+04 -.000000000000000D+00 -.000000000000000D+00 -.140991470253316D+04
 0.491608599139293D+03 -.395979745349988D+02 -.467862259815866D+03 -.747724615110021D+02
 0.117616719698707D+04 0.133331770190190D+02 0.472570225153279D+03 -.107697209061218D+04
 0.115205360893997D+04 0.262647975159803D+02 -.470796533741257D+01 0.115174455212318D+04
 0.000000000000000D+00 0.000000000000000D+00 -.000000000000000D+00 0.000000000000000D+00
 0.140991470253316D+04 0.000000000000000D+00 0.000000000000000D+00 0.140991470253316D+04
 0.140991470253316D+04 -.000000000000000D+00 -.000000000000000D+00 -.140991470253316D+04
 0.491605841515754D+03 -.395975553683536D+02 -.467862334951494D+03 -.747540805240674D+02
 0.117612686941910D+04 0.133341798554008D+02 0.472570045394843D+03 -.107692811496993D+04
 0.280597680962433D+03 0.533561858206714D+01 0.545955252720268D+01 0.280493819935565D+03
 0.871499013169038D+03 0.209277569308862D+02 -.101672629705519D+02 0.871188375558430D+03
-.325341923311D-09 0.000000000000D+00 0.000000000000D+00 0.117489523035D-02 0.000000000000D+00  6 -1 1 25 2 -2 21 2 0.10370092D+00 0.45370790D+00 0.24480121D+06 0.24480121D+06 0.24480121D+06 0.10911464D+01  1  2 13  4  6  5       -2 -.301866711042D-10 0.100000000000D+01
0.326237597381D+00 0.000000000000D+00 0.000000000000D+00 0.117489523035D-02 0.158566176411D-04  6 -1 1 25 2 -2 21 2 0.10370092D+00 0.45370790D+00 0.24480121D+06 0.24480121D+06 0.24480121D+06 0.10911464D+01  1  2  1  4  6  5       -2 0.302697757294D-01 0.100000000000D+01
  </mgrwgt>
  </event>
  <event>
  5     66 -.18829897E-05 0.17653098E+02 0.75467711E-02 0.93649250E-01
       -1 -1    0    0    0  501 0.00000000E+00 0.00000000E+00 0.62949234E+03 0.62949242E+03 0.32000000E+00 0.0000E+00 0.9000E+01
        1 -1    0    0  502    0 0.00000000E+00 0.00000000E+00 -.13653505E+04 0.13653505E+04 0.32000000E+00 0.0000E+00 0.9000E+01
       25  1    1    2    0    0 -.33587526E+03 0.41172870E+03 0.24503326E+01 0.54586053E+03 0.12500000E+03 0.0000E+00 0.9000E+01
        2  1    1    2  502    0 0.13842745E+02 -.10950564E+02 -.90754460E+03 0.90771628E+03 0.32000000E+00 0.0000E+00 0.9000E+01
       -2  1    1    2    0  501 0.32203252E+03 -.40077813E+03 0.16923613E+03 0.54126613E+03 0.32000000E+00 0.0000E+00 0.9000E+01
#aMCatNLO 1  0  0  1  1 0.20493003D+02 0.00000000D+00  -5  6  0 0.00000000D+00 0.00000000D+00 0.00000000D+00 0.00000000D+00 0.00000000D+00
  <mgrwgt>
 -.6899408203D-02    7    4    0
 0.927080250124844D+03 0.000000000000000D+00 0.000000000000000D+00 0.927080250124844D+03
 0.927080250124844D+03 0.000000000000000D+00 0.000000000000000D+00 -.927080250124844D+03
 0.588244721805021D+03 -.335837924937421D+03 0.411681297474647D+03 0.219404307648653D+03
 0.616496781920375D+03 0.138448519477257D+02 -.109522572285504D+02 -.616243985978220D+03
 0.649418996524292D+03 0.321993072989695D+03 -.400729040246097D+03 0.396839678329567D+03
 0.000000000000000D+00 0.000000000000000D+00 -.000000000000000D+00 0.000000000000000D+00
 0.121296648593461D+04 0.000000000000000D+00 0.000000000000000D+00 0.121296648593461D+04
 0.927504192333267D+03 0.000000000000000D+00 0.000000000000000D+00 -.927504192333267D+03
 0.593489450563973D+03 -.341835755390009D+03 0.414264159749409D+03 0.219404307648653D+03
 0.616346016209402D+03 0.758762231794027D+01 -.825768917047509D+01 -.616243985978220D+03
 0.644438278888547D+03 0.315426167547486D+03 -.397901115638576D+03 0.396839678329567D+03
 0.286196932605958D+03 0.188219655245830D+02 -.810535494035795D+01 0.285462293601347D+03
 0.927080250124844D+03 0.000000000000000D+00 0.000000000000000D+00 0.927080250124844D+03
 0.927080250124844D+03 0.000000000000000D+00 0.000000000000000D+00 -.927080250124844D+03
 0.588244721805021D+03 -.335837924937421D+03 0.411681297474647D+03 0.219404307648653D+03
 0.616496781920375D+03 0.138448519477257D+02 -.109522572285504D+02 -.616243985978220D+03
 0.000000000000000D+00 0.000000000000000D+00 -.000000000000000D+00 0.000000000000000D+00
 0.649418996524292D+03 0.321993072989695D+03 -.400729040246097D+03 0.396839678329567D+03
 0.121296648593461D+04 0.000000000000000D+00 0.000000000000000D+00 0.121296648593461D+04
 0.927504192333267D+03 0.000000000000000D+00 0.000000000000000D+00 -.927504192333267D+03
 0.593489450563973D+03 -.341835755390009D+03 0.414264159749409D+03 0.219404307648653D+03
 0.616346016209402D+03 0.758762231794027D+01 -.825768917047509D+01 -.616243985978220D+03
 0.286196932605958D+03 0.188219655245830D+02 -.810535494035795D+01 0.285462293601347D+03
 0.644438278888547D+03 0.315426167547486D+03 -.397901115638576D+03 0.396839678329567D+03
0.203020364398D-04 0.000000000000D+00 0.000000000000D+00 0.513220629663D-04 0.000000000000D+00  6 -1 1 25 2 -2 21 0 0.96844985D-01 0.21005393D+00 0.29025957D+06 0.29025957D+06 0.29025957D+06 0.10856140D+01  1  2  2  1  6  1       -1 0.219924916524D-04 0.100000000000D+01
0.177310916823D-04 0.000000000000D+00 -.779651655780D-07 0.513220629663D-04 0.000000000000D+00  6 -1 1 25 2 -2 21 2 0.96844985D-01 0.21005393D+00 0.29025957D+06 0.29025957D+06 0.29025957D+06 0.10856140D+01  1  2  3  1  6  1       -1 0.226371205446D-04 0.100000000000D+01
-.139123229441D-04 0.000000000000D+00 0.000000000000D+00 0.513220629663D-04 0.000000000000D+00  6 -1 1 25 2 -2 21 2 0.96844985D-01 0.21005393D+00 0.29025957D+06 0.29025957D+06 0.29025957D+06 0.10856140D+01  1  2 15  1  6  1       -1 -.177617338618D-04 0.100000000000D+01
-.754334394460D-02 0.000000000000D+00 0.000000000000D+00 0.513220629663D-04 0.000000000000D+00  6 -1 1 25 2 -2 21 2 0.96844985D-01 0.21005393D+00 0.29025957D+06 0.29025957D+06 0.29025957D+06 0.10856140D+01  1  2  4  1  6  1       -1 -.963051735578D-02 0.100000000000D+01
-.673927885329D-02 0.000000000000D+00 -.225532948234D-04 0.513220629663D-04 0.000000000000D+00  6 -1 1 25 2 -2 21 2 0.12673137D+00 0.21005393D+00 0.29025957D+06 0.29025957D+06 0.29025957D+06 0.10856140D+01  1  2  5  1  6  1       -1 -.455537315070D-02 0.100000000000D+01
0.650927836594D-02 0.000000000000D+00 0.217614440516D-04 0.513220629663D-04 0.000000000000D+00  6 -1 1 25 2 -2 21 2 0.96844985D-01 0.21005393D+00 0.29025957D+06 0.29025957D+06 0.29025957D+06 0.10856140D+01  1  2  6  1  6  1       -1 0.831033540791D-02 0.100000000000D+01
-.240222123220D-03 0.000000000000D+00 -.805338114661D-06 0.513220629663D-04 0.000000000000D+00  6 21 1 25 2 1 -2 2 0.12673137D+00 0.21005393D+00 0.29025957D+06 0.29025957D+06 0.29025957D+06 0.10856140D+01  3  4  5  5  5  1       -1 -.105072098236D-02 0.100000000000D+01
  </mgrwgt>
  </event>
  <event>
  6     66 0.18829897E-05 0.19670719E+03 0.75467711E-02 0.91672090E-01
       -1 -1    0    0    0  501 0.00000000E+00 0.00000000E+00 0.62754812E+03 0.62754821E+03 0.32000000E+00 0.0000E+00 0.9000E+01
        1 -1    0    0  502    0 -.00000000E+00 -.00000000E+00 -.92270110E+03 0.92270115E+03 0.32000000E+00 0.0000E+00 0.9000E+01
       25  1    1    2    0    0 -.62109573E+03 0.51373477E+02 -.13869370E+03 0.65058441E+03 0.12500000E+03 0.0000E+00 0.9000E+01
        2  1    1    2  502    0 0.44451332E+03 -.15143448E+03 -.37511115E+03 0.60102660E+03 0.32000000E+00 0.0000E+00 0.9000E+01
       -2  1    1    2    0  503 0.79638243E+02 0.40027626E+02 0.88621406E+02 0.12569135E+03 0.32000000E+00 0.0000E+00 0.9000E+01
       21  1    1    2  503  501 0.96944162E+02 0.60033373E+02 0.13003047E+03 0.17294699E+03 0.75000000E+00 0.0000E+00 0.9000E+01
#aMCatNLO 2  0  0  5  1 0.66061479D+01 0.00000000D+00  -5  6  0 0.00000000D+00 0.00000000D+00 0.00000000D+00 0.00000000D+00 0.00000000D+00
  <mgrwgt>
 0.4562075216D-04    3    2    0
 0.760946416498028D+03 0.000000000000000D+00 0.000000000000000D+00 0.760946416498028D+03
 0.760946416498028D+03 -.000000000000000D+00 -.000000000000000D+00 -.760946416498028D+03
 0.636010724024374D+03 -.621300286735445D+03 0.515408113567449D+02 -.146335074794454D+02
 0.539902445028468D+03 0.444903644302229D+03 -.151496547463835D+03 -.265714496294145D+03
 0.345979663943214D+03 0.176396642433215D+03 0.999557361070905D+02 0.280348003773591D+03
 0.000000000000000D+00 0.000000000000000D+00 0.000000000000000D+00 0.000000000000000D+00
 0.760946416498028D+03 0.000000000000000D+00 0.000000000000000D+00 0.760946416498028D+03
 0.760946416498028D+03 -.000000000000000D+00 -.000000000000000D+00 -.760946416498028D+03
 0.635957329984888D+03 -.621245092900105D+03 0.515720871246046D+02 -.145457876603791D+02
 0.539896964253198D+03 0.444950499465461D+03 -.151469996831881D+03 -.265640029165422D+03
 0.145206635654171D+03 0.795981906665417D+02 0.400356251403899D+02 0.114657070432810D+03
 0.200831903103798D+03 0.966964027681022D+02 0.598622845668866D+02 0.165528746392991D+03
-.137180127407D-06 0.000000000000D+00 0.000000000000D+00 0.711282795066D-07 0.000000000000D+00  6 -1 1 25 2 -2 21 2 0.96545876D-01 0.14195403D+00 0.42813629D+06 0.42813629D+06 0.42813629D+06 0.10733059D+01  1  2 13  4  6  5       -2 -.355477540198D-06 0.100000000000D+01
-.217133587860D-03 0.000000000000D+00 0.000000000000D+00 0.711282795066D-07 0.000000000000D+00  6 -1 1 25 2 -2 21 2 0.96545876D-01 0.14195403D+00 0.42813629D+06 0.42813629D+06 0.42813629D+06 0.10733059D+01  1  2 13  4  6  5       -2 -.562662501966D-03 0.100000000000D+01
0.234875988812D-03 0.000000000000D+00 0.000000000000D+00 0.711282795066D-07 0.266893393499D-08  6 -1 1 25 2 -2 21 2 0.96545876D-01 0.14195403D+00 0.42813629D+06 0.42813629D+06 0.42813629D+06 0.10733059D+01  1  2  1  4  6  5       -2 0.608638731665D-03 0.100000000000D+01
  </mgrwgt>
  </event>
  <event>
  5     66 0.18829897E-05 0.54655649E+02 0.75467711E-02 0.94412555E-01
       -1 -1    0    0    0  501 0.00000000E+00 0.00000000E+00 0.80936091E+03 0.80936097E+03 0.32000000E+00 0.0000E+00 0.9000E+01
        1 -1    0    0  502    0 -.00000000E+00 -.00000000E+00 -.11274040E+04 0.11274041E+04 0.32000000E+00 0.0000E+00 0.9000E+01
       25  1    1    2    0    0 0.13833060E+03 0.47326991E+03 -.86667347E+01 0.50874343E+03 0.12500000E+03 0.0000E+00 0.9000E+01
        2  1    1    2  502    0 -.10017671E+03 -.43412151E+03 -.80998822E+03 0.92443382E+03 0.32000000E+00 0.0000E+00 0.9000E+01
       -2  1    1    2    0  501 -.38153897E+02 -.39148406E+02 0.50061186E+03 0.50358778E+03 0.32000000E+00 0.0000E+00 0.9000E+01
#aMCatNLO 1  0  0  5  4 0.24769257D+02 0.00000000D+00  -5  6  0 0.00000000D+00 0.00000000D+00 0.00000000D+00 0.00000000D+00 0.00000000D+00
  <mgrwgt>
 0.2018317992D-02    7    2    0
 0.955236535489053D+03 0.000000000000000D+00 0.000000000000000D+00 0.955236535489053D+03
 0.955236535489053D+03 -.000000000000000D+00 -.000000000000000D+00 -.955236535489053D+03
 0.514375883615509D+03 0.138341259406532D+03 0.473331110620614D+03 0.760059557515501D+02
 0.802347601124712D+03 -.100194242293826D+03 -.434189764038699D+03 -.667234618140999D+03
 0.593749586237886D+03 -.381470171127056D+02 -.391413465819144D+02 0.591228662389450D+03
 0.000000000000000D+00 -.000000000000000D+00 0.000000000000000D+00 0.000000000000000D+00
 0.955236535489053D+03 0.000000000000000D+00 0.000000000000000D+00 0.955236535489053D+03
 0.955236535489053D+03 -.000000000000000D+00 -.000000000000000D+00 -.955236535489053D+03
 0.514448435733971D+03 0.138274853795628D+03 0.473262974099646D+03 0.770351555024393D+02
 0.801084707996077D+03 -.100297736058531D+03 -.434295955442903D+03 -.665630600718318D+03
 0.498018266894524D+03 -.724350816210659D+01 -.324138197253645D+02 0.496909518967933D+03
 0.969216603535355D+02 -.307336095749908D+02 -.655319893137854D+01 0.916859262479466D+02
0.475403169164D-03 0.000000000000D+00 0.000000000000D+00 0.895451872472D-04 0.000000000000D+00  6 -1 1 25 2 -2 21 0 0.12451707D+00 0.17344678D+00 0.25451288D+06 0.25451288D+06 0.25451288D+06 0.10898751D+01  1  2  2  4  6  5       -2 0.422726357761D-03 0.100000000000D+01
0.176346759940D-03 0.000000000000D+00 -.182567334612D-05 0.895451872472D-04 0.000000000000D+00  6 -1 1 25 2 -2 21 2 0.12451707D+00 0.17344678D+00 0.25451288D+06 0.25451288D+06 0.25451288D+06 0.10898751D+01  1  2  3  4  6  5       -2 0.186259391045D-03 0.100000000000D+01
-.306498496489D-03 0.000000000000D+00 0.000000000000D+00 0.895451872472D-04 0.000000000000D+00  6 -1 1 25 2 -2 21 2 0.12451707D+00 0.17344678D+00 0.25451288D+06 0.25451288D+06 0.25451288D+06 0.10898751D+01  1  2 15  4  6  5       -2 -.323727089354D-03 0.100000000000D+01
0.814064012278D-09 0.000000000000D+00 0.000000000000D+00 0.895451872472D-04 0.000000000000D+00  6 -1 1 25 2 -2 21 2 0.12451707D+00 0.17344678D+00 0.25959680D+06 0.25959680D+06 0.25959680D+06 0.10892305D+01  1  2 12  4  6  5       -2 0.857733201599D-09 0.100000000000D+01
-.797154092143D-03 0.000000000000D+00 0.000000000000D+00 0.895451872472D-04 0.000000000000D+00  6 -1 1 25 2 -2 21 2 0.12451707D+00 0.17344678D+00 0.25451288D+06 0.25451288D+06 0.25451288D+06 0.10898751D+01  1  2  4  4  6  5       -2 -.841962936107D-03 0.100000000000D+01
-.138245983062D-01 0.000000000000D+00 0.000000000000D+00 0.895451872472D-04 0.000000000000D+00  6 -1 1 25 2 -2 21 2 0.12451707D+00 0.17344678D+00 0.25451288D+06 0.25451288D+06 0.25451288D+06 0.10898751D+01  1  2  5  4  6  5       -2 -.146016930668D-01 0.100000000000D+01
0.162625783733D-01 0.000000000000D+00 -.000000000000D+00 0.895451872472D-04 0.000000000000D+00  6 -1 1 25 2 -2 21 2 0.12451707D+00 0.17344678D+00 0.25451288D+06 0.25451288D+06 0.25451288D+06 0.10898751D+01  1  2  6  4  6  5       -2 0.171767144782D-01 0.100000000000D+01
  </mgrwgt>
  </event>
  <event>
  5     66 0.18829897E-05 0.81247051E+02 0.75467711E-02 0.94486232E-01
       -1 -1    0    0    0  501 0.00000000E+00 0.00000000E+00 0.16278119E+04 0.16278120E+04 0.32000000E+00 0.0000E+00 0.9000E+01
        1 -1    0    0  502    0 0.00000000E+00 0.00000000E+00 -.17699649E+04 0.17699649E+04 0.32000000E+00 0.0000E+00 0.9000E+01
       25  1    1    2    0    0 0.70779128E+02 0.46474082E+03 -.56853023E+02 0.48974584E+03 0.12500000E+03 0.0000E+00 0.9000E+01
        2  1    1    2  502    0 -.10448065E+03 -.39081091E+03 -.14681156E+04 0.15228305E+04 0.32000000E+00 0.0000E+00 0.9000E+01
       -2  1    1    2    0  501 0.33701518E+02 -.73929911E+02 0.13828156E+04 0.13852005E+04 0.32000000E+00 0.0000E+00 0.9000E+01
#aMCatNLO 1  0  0  2  4 0.35330805D+02 0.00000000D+00  -5  6  0 0.00000000D+00 0.00000000D+00 0.00000000D+00 0.00000000D+00 0.00000000D+00
  <mgrwgt>
 0.1058507758D-01   11    2    0
 0.169740099084812D+04 0.000000000000000D+00 0.000000000000000D+00 0.169740099084812D+04
 0.169740099084812D+04 0.000000000000000D+00 0.000000000000000D+00 -.169740099084812D+04
 0.487819447316087D+03 0.707874649069160D+02 0.464769093478038D+03 -.363543359095883D+02
 0.146270178559926D+04 -.104488112675284D+03 -.390841090498321D+03 -.140563935270854D+04
 0.144428074878090D+04 0.337006477683679D+02 -.739280029797171D+02 0.144199368861813D+04
 0.000000000000000D+00 -.000000000000000D+00 0.000000000000000D+00 -.000000000000000D+00
 0.169949146377668D+04 0.000000000000000D+00 0.000000000000000D+00 0.169949146377668D+04
 0.185363929398923D+04 0.000000000000000D+00 0.000000000000000D+00 -.185363929398923D+04
 0.488501204597225D+03 0.758670531306210D+02 0.464683741272264D+03 -.363543359095883D+02
 0.146176204794380D+04 -.892727507750672D+02 -.391096753879414D+03 -.140563935270854D+04
 0.144472257375052D+04 0.487315161891234D+02 -.741805663210571D+02 0.144199368861813D+04
 0.158144931474370D+03 -.353258185446772D+02 0.593578928207149D+00 -.154147830212552D+03
0.183591250251D-01 0.000000000000D+00 0.000000000000D+00 0.147657458738D-02 0.000000000000D+00  6 -1 1 25 2 -2 21 0 0.25043261D+00 0.27230230D+00 0.23633067D+06 0.23633067D+06 0.23633067D+06 0.10923010D+01  1  2  2  2  6  2        1 0.553000519835D-03 0.100000000000D+01
0.608520857453D-02 0.000000000000D+00 -.705038741649D-04 0.147657458738D-02 0.000000000000D+00  6 -1 1 25 2 -2 21 2 0.25043261D+00 0.27230230D+00 0.23633067D+06 0.23633067D+06 0.23633067D+06 0.10923010D+01  1  2  3  2  6  2        1 0.218692391586D-03 0.100000000000D+01
-.136380090237D-01 0.000000000000D+00 0.000000000000D+00 0.147657458738D-02 0.000000000000D+00  6 -1 1 25 2 -2 21 2 0.25043261D+00 0.27230230D+00 0.23633067D+06 0.23633067D+06 0.23633067D+06 0.10923010D+01  1  2 15  2  6  2        1 -.490127622305D-03 0.100000000000D+01
0.315683963528D-09 0.000000000000D+00 0.000000000000D+00 0.147657458738D-02 0.000000000000D+00  6 -1 1 25 2 -2 21 2 0.25043261D+00 0.29752539D+00 0.25623285D+06 0.25623285D+06 0.25623285D+06 0.10896555D+01  1  2 12  2  6  2        1 0.871691216367D-11 0.100000000000D+01
0.985878641146D+00 0.000000000000D+00 0.000000000000D+00 0.147657458738D-02 0.000000000000D+00  6 -1 1 25 2 -2 21 2 0.25043261D+00 0.30742409D+00 0.25623285D+06 0.25623285D+06 0.25623285D+06 0.10896555D+01  1  2 12  2  6  2        1 0.246726488578D-01 0.100000000000D+01
-.720909047247D+00 0.000000000000D+00 0.000000000000D+00 0.147657458738D-02 0.000000000000D+00  6 -1 1 25 2 -2 21 2 0.25043261D+00 0.27230230D+00 0.23633067D+06 0.23633067D+06 0.23633067D+06 0.10923010D+01  1  2  4  2  6  2        1 -.259082859244D-01 0.100000000000D+01
-.147403317238D+01 0.000000000000D+00 -.397648191404D-01 0.147657458738D-02 0.000000000000D+00  6 -1 1 25 2 -2 21 2 0.25043261D+00 0.29749107D+00 0.23633067D+06 0.23633067D+06 0.23633067D+06 0.10923010D+01  1  2  5  2  6  2        1 -.412768272229D-01 0.100000000000D+01
0.147194199885D+01 0.000000000000D+00 0.396097017813D-01 0.147657458738D-02 0.000000000000D+00  6 -1 1 25 2 -2 21 2 0.25043261D+00 0.27230230D+00 0.23633067D+06 0.23633067D+06 0.23633067D+06 0.10923010D+01  1  2  6  2  6  2        1 0.528991754453D-01 0.100000000000D+01
0.474840834984D-11 0.000000000000D+00 0.000000000000D+00 0.147657458738D-02 0.000000000000D+00  6 -1 21 25 2 -2 -1 2 0.25043261D+00 0.29752539D+00 0.25623285D+06 0.25623285D+06 0.25623285D+06 0.10896555D+01  1  2 12  6  6  2        1 0.702994395256D-13 0.100000000000D+01
0.194284721216D-01 0.000000000000D+00 0.000000000000D+00 0.147657458738D-02 0.000000000000D+00  6 -1 21 25 2 -2 -1 2 0.25043261D+00 0.30742409D+00 0.25623285D+06 0.25623285D+06 0.25623285D+06 0.10896555D+01  1  2 12  6  6  2        1 0.247474558052D-03 0.100000000000D+01
-.219367918259D-01 0.000000000000D+00 -.580515304764D-03 0.147657458738D-02 0.000000000000D+00  6 -1 21 25 2 -2 -1 2 0.25043261D+00 0.29749107D+00 0.23633067D+06 0.23633067D+06 0.23633067D+06 0.10923010D+01  1  2  5  6  6  2        1 -.330673430487D-03 0.100000000000D+01
  </mgrwgt>
  </event>
  <event>
  5     66 -.18829897E-05 0.18596786E+02 0.75467711E-02 0.95565277E-01
       -1 -1    0    0    0  501 0.00000000E+00 0.00000000E+00 0.20481585E+03 0.20481610E+03 0.32000000E+00 0.0000E+00 0.9000E+01
        1 -1    0    0  502    0 -.00000000E+00 -.00000000E+00 -.30792863E+04 0.30792863E+04 0.32000000E+00 0.0000E+00 0.9000E+01
       25  1    1    2    0    0 -.43880559E+03 0.10546452E+03 -.10926447E+04 0.11887685E+04 0.12500000E+03 0.0000E+00 0.9000E+01
        2  1    1    2  502    0 0.16266901E+02 -.90083581E+01 -.16388442E+04 0.16389497E+04 0.32000000E+00 0.0000E+00 0.9000E+01
       -2  1    1    2    0  501 0.42253869E+03 -.96456160E+02 -.14298159E+03 0.45638423E+03 0.32000000E+00 0.0000E+00 0.9000E+01
#aMCatNLO 1  0  0  5  4 0.11041782D+02 0.00000000D+00  -5  6  0 0.00000000D+00 0.00000000D+00 0.00000000D+00 0.00000000D+00 0.00000000D+00
  <mgrwgt>
 -.2583401560D-01    6    2    0
 0.794158094521905D+03 0.000000000000000D+00 0.000000000000000D+00 0.794158094521905D+03
 0.794158094521905D+03 -.000000000000000D+00 -.000000000000000D+00 -.794158094521905D+03
 0.480524604803165D+03 -.438794865072063D+03 0.105462613756476D+03 -.107775689778727D+03
 0.422925610158029D+03 0.162687584401019D+02 -.900932557449020D+01 -.422516545568397D+03
 0.684865974082616D+03 0.422526106631961D+03 -.964532881819853D+02 0.530292235347124D+03
 0.000000000000000D+00 0.000000000000000D+00 0.000000000000000D+00 0.000000000000000D+00
 0.794158094521905D+03 0.000000000000000D+00 0.000000000000000D+00 0.794158094521905D+03
 0.794158094521905D+03 -.000000000000000D+00 -.000000000000000D+00 -.794158094521905D+03
 0.479773028610881D+03 -.438190739541226D+03 0.105324705369256D+03 -.107017480822761D+03
 0.422282344966531D+03 0.168004807799165D+02 -.913070592772741D+01 -.421849206382159D+03
 0.499567208859033D+03 0.321044960709505D+03 -.921786831043398D+02 0.371484346576524D+03
 0.186693606607365D+03 0.100345298051804D+03 -.401531633718844D+01 0.157382340628396D+03
0.671450405204D-03 0.000000000000D+00 0.000000000000D+00 0.101159341419D-03 0.000000000000D+00  6 -1 1 25 2 -2 21 0 0.31510151D-01 0.47373637D+00 0.21172626D+06 0.21172626D+06 0.21172626D+06 0.10959300D+01  1  2  2  4  6  5       -2 0.408075848892D-03 0.100000000000D+01
0.466473966742D-03 0.000000000000D+00 -.257854635293D-05 0.101159341419D-03 0.000000000000D+00  6 -1 1 25 2 -2 21 2 0.31510151D-01 0.47373637D+00 0.21172626D+06 0.21172626D+06 0.21172626D+06 0.10959300D+01  1  2  3  4  6  5       -2 0.340502235604D-03 0.100000000000D+01
-.461149497790D-03 0.000000000000D+00 0.000000000000D+00 0.101159341419D-03 0.000000000000D+00  6 -1 1 25 2 -2 21 2 0.31510151D-01 0.47373637D+00 0.21172626D+06 0.21172626D+06 0.21172626D+06 0.10959300D+01  1  2 15  4  6  5       -2 -.336615644474D-03 0.100000000000D+01
-.423787834487D-01 0.000000000000D+00 0.000000000000D+00 0.101159341419D-03 0.000000000000D+00  6 -1 1 25 2 -2 21 2 0.31510151D-01 0.47373637D+00 0.21172626D+06 0.21172626D+06 0.21172626D+06 0.10959300D+01  1  2  4  4  6  5       -2 -.309343533300D-01 0.100000000000D+01
-.208570166606D-01 0.000000000000D+00 0.000000000000D+00 0.101159341419D-03 0.000000000000D+00  6 -1 1 25 2 -2 21 2 0.31510151D-01 0.47373637D+00 0.21172626D+06 0.21172626D+06 0.21172626D+06 0.10959300D+01  1  2  5  4  6  5       -2 -.152245597982D-01 0.100000000000D+01
0.272798967197D-01 0.000000000000D+00 -.000000000000D+00 0.101159341419D-03 0.000000000000D+00  6 -1 1 25 2 -2 21 2 0.31510151D-01 0.47373637D+00 0.21172626D+06 0.21172626D+06 0.21172626D+06 0.10959300D+01  1  2  6  4  6  5       -2 0.199129350883D-01 0.100000000000D+01
  </mgrwgt>
  </event>
  <event>
  5     66 0.18829897E-05 0.22968831E+02 0.75467711E-02 0.93169359E-01
       -1 -1    0    0    0  501 0.00000000E+00 0.00000000E+00 0.37643333E+03 0.37643347E+03 0.32000000E+00 0.0000E+00 0.9000E+01
        1 -1    0    0  502    0 -.00000000E+00 -.00000000E+00 -.34238468E+04 0.34238468E+04 0.32000000E+00 0.0000E+00 0.9000E+01
       25  1    1    2    0    0 0.43344744E+03 -.25823648E+03 -.76682826E+03 0.92639805E+03 0.12500000E+03 0.0000E+00 0.9000E+01
        2  1    1    2  502    0 -.12586602E+02 0.19210280E+02 -.23797214E+04 0.23798322E+04 0.32000000E+00 0.0000E+00 0.9000E+01
       -2  1    1    2    0  501 -.42086083E+03 0.23902620E+03 0.99136140E+02 0.49405004E+03 0.32000000E+00 0.0000E+00 0.9000E+01
#aMCatNLO 1  0  0  4  2 0.51347356D+02 0.00000000D+00  -5  6  0 0.00000000D+00 0.00000000D+00 0.00000000D+00 0.00000000D+00 0.00000000D+00
  <mgrwgt>
 0.2493362665D-02    6    2    0
 0.113527544993690D+04 0.000000000000000D+00 0.000000000000000D+00 0.113527544993690D+04
 0.113527544993690D+04 -.000000000000000D+00 -.000000000000000D+00 -.113527544993690D+04
 0.521319496485584D+03 0.433434051870653D+03 -.258230085327733D+03 -.400145364411867D+02
 0.789305324476308D+03 -.125879528833568D+02 0.192122521562061D+02 -.788971056538796D+03
 0.959926078911918D+03 -.420846098987296D+03 0.239017833171527D+03 0.828985592979982D+03
 0.000000000000000D+00 0.000000000000000D+00 0.000000000000000D+00 0.000000000000000D+00
 0.113527544993690D+04 0.000000000000000D+00 0.000000000000000D+00 0.113527544993690D+04
 0.113527544993690D+04 -.000000000000000D+00 -.000000000000000D+00 -.113527544993690D+04
 0.521778939628819D+03 0.433309580235341D+03 -.258040111591252D+03 -.478160049190818D+02
 0.687490514980662D+03 0.198556954151632D+02 -.531546771232607D+02 -.685144904270533D+03
 0.947820202238550D+03 -.421073747971469D+03 0.239365280427452D+03 0.814717311137227D+03
 0.113461243025778D+03 -.320915276790355D+02 0.718295082870606D+02 -.817564019476123D+02
0.116870761775D-01 0.000000000000D+00 0.000000000000D+00 0.379255848617D-03 0.000000000000D+00  6 -1 1 25 2 -2 21 0 0.57912832D-01 0.52674568D+00 0.26354611D+06 0.26354611D+06 0.26354611D+06 0.10887393D+01  1  2  2  3  6  4        2 0.127949721853D-02 0.100000000000D+01
0.884375027185D-02 0.000000000000D+00 -.448814497996D-04 0.379255848617D-03 0.000000000000D+00  6 -1 1 25 2 -2 21 2 0.57912832D-01 0.52674568D+00 0.26354611D+06 0.26354611D+06 0.26354611D+06 0.10887393D+01  1  2  3  3  6  4        2 0.114767183479D-02 0.100000000000D+01
-.778712798495D-02 0.000000000000D+00 0.000000000000D+00 0.379255848617D-03 0.000000000000D+00  6 -1 1 25 2 -2 21 2 0.57912832D-01 0.52674568D+00 0.26354611D+06 0.26354611D+06 0.26354611D+06 0.10887393D+01  1  2 15  3  6  4        2 -.101055176678D-02 0.100000000000D+01
-.985641372017D-03 0.000000000000D+00 0.000000000000D+00 0.379255848617D-03 0.000000000000D+00  6 -1 1 25 2 -2 21 2 0.57912832D-01 0.52674568D+00 0.26354611D+06 0.26354611D+06 0.26354611D+06 0.10887393D+01  1  2  4  3  6  4        2 -.127908727304D-03 0.100000000000D+01
-.602951196719D-01 0.000000000000D+00 0.000000000000D+00 0.379255848617D-03 0.000000000000D+00  6 -1 1 25 2 -2 21 2 0.57912832D-01 0.52674568D+00 0.26354611D+06 0.26354611D+06 0.26354611D+06 0.10887393D+01  1  2  5  3  6  4        2 -.782462286875D-02 0.100000000000D+01
0.695779649535D-01 0.000000000000D+00 -.000000000000D+00 0.379255848617D-03 0.000000000000D+00  6 -1 1 25 2 -2 21 2 0.57912832D-01 0.52674568D+00 0.26354611D+06 0.26354611D+06 0.26354611D+06 0.10887393D+01  1  2  6  3  6  4        2 0.902927697462D-02 0.100000000000D+01
  </mgrwgt>
  </event>
  <event>
  6     66 0.18829897E-05 0.29113288E+02 0.75467711E-02 0.94531114E-01
       -1 -1    0    0    0  501 0.00000000E+00 0.00000000E+00 0.12854204E+04 0.12854204E+04 0.32000000E+00 0.0000E+00 0.9000E+01
        1 -1    0    0  502    0 -.00000000E+00 -.00000000E+00 -.35122965E+04 0.35122965E+04 0.32000000E+00 0.0000E+00 0.9000E+01
       25  1    1    2    0    0 -.17839878E+03 -.45906039E+03 -.51609846E+03 0.72425492E+03 0.12500000E+03 0.0000E+00 0.9000E+01
        2  1    1    2  502    0 0.11874201E+01 0.26606688E+02 -.28437759E+04 0.28439007E+04 0.32000000E+00 0.0000E+00 0.9000E+01
       -2  1    1    2    0  503 0.17678233E+03 0.35880891E+03 0.89241597E+03 0.97795817E+03 0.32000000E+00 0.0000E+00 0.9000E+01
       21  1    1    2  503  501 0.42902832E+00 0.73644792E+02 0.24058230E+03 0.25160315E+03 0.75000000E+00 0.0000E+00 0.9000E+01
#aMCatNLO 2  0  0  5  1 0.41044317D+01 0.00000000D+00  -5  6  0 0.00000000D+00 0.00000000D+00 0.00000000D+00 0.00000000D+00 0.00000000D+00
  <mgrwgt>
 0.2595061561D-01    1    2    0
 0.212480059729540D+04 0.000000000000000D+00 0.000000000000000D+00 0.212480059729540D+04
 0.212480059729540D+04 -.000000000000000D+00 -.000000000000000D+00 -.212480059729540D+04
 0.547318579498164D+03 -.178421730364544D+03 -.459121721483889D+03 -.203237689563921D+03
 0.172162413769352D+04 0.109876495685368D+01 0.263956531892096D+02 -.172142142826713D+04
 0.198065847739911D+04 0.177322965407690D+03 0.432726068294679D+03 0.192465911783105D+04
 0.000000000000000D+00 0.000000000000000D+00 0.000000000000000D+00 0.000000000000000D+00
 0.212480059729540D+04 0.000000000000000D+00 0.000000000000000D+00 0.212480059729540D+04
 0.212480059729540D+04 -.000000000000000D+00 -.000000000000000D+00 -.212480059729540D+04
 0.547137514197530D+03 -.178393444903026D+03 -.459052695700767D+03 -.202930679858278D+03
 0.172066204692918D+04 0.118772846482034D+01 0.266127532638424D+02 -.172045582053342D+04
 0.157161868914805D+04 0.176779131789433D+03 0.358785747156829D+03 0.151987079394281D+04
 0.410182944316031D+03 0.426584648771936D+00 0.736541952800953D+02 0.403515706448891D+03
0.481182441308D+01 0.000000000000D+00 0.000000000000D+00 0.950037181940D-02 0.420888219054D-04  6 -1 1 25 2 -2 21 2 0.19775698D+00 0.54035331D+00 0.25420758D+06 0.25420758D+06 0.25420758D+06 0.10899142D+01  1  2  1  4  6  5       -2 0.259506156087D-01 0.100000000000D+01
  </mgrwgt>
  </event>
  <event>
  6     66 0.18829897E-05 0.39746299E+02 0.75467711E-02 0.92952738E-01
       -1 -1    0    0    0  501 0.00000000E+00 0.00000000E+00 0.16001598E+04 0.16001598E+04 0.32000000E+00 0.0000E+00 0.9000E+01
        1 -1    0    0  502    0 0.00000000E+00 0.00000000E+00 -.28205129E+03 0.28205147E+03 0.32000000E+00 0.0000E+00 0.9000E+01
       25  1    1    2    0    0 -.49539398E+03 0.26824960E+03 0.11218156E+04 0.12615341E+04 0.12500000E+03 0.0000E+00 0.9000E+01
        2  1    1    2  503    0 0.18448382E+03 -.71279707E+02 0.58827146E+02 0.20633907E+03 0.32000000E+00 0.0000E+00 0.9000E+01
       -2  1    1    2    0  501 0.14319553E+02 0.16542276E+02 0.22126217E+02 0.31118618E+02 0.32000000E+00 0.0000E+00 0.9000E+01
       21  1    1    2  502  503 0.29659060E+03 -.21351217E+03 0.11533957E+03 0.38321953E+03 0.75000000E+00 0.0000E+00 0.9000E+01
#aMCatNLO 2  0  0  4  5 0.15594427D+03 0.00000000D+00  -5  6  0 0.00000000D+00 0.00000000D+00 0.00000000D+00 0.00000000D+00 0.00000000D+00
  <mgrwgt>
 0.1732708348D-02    1    2    0
 0.671809000088033D+03 0.000000000000000D+00 0.000000000000000D+00 0.671809000088033D+03
 0.671809000088033D+03 -.000000000000000D+00 -.000000000000000D+00 -.671809000088033D+03
 0.668593338363096D+03 -.496683443901226D+03 0.269275583540961D+03 0.334945172776980D+03
 0.653452835847230D+03 0.482605692676760D+03 -.285613255351202D+03 -.335436167460309D+03
 0.215718259657402D+02 0.140777512244666D+02 0.163376718102414D+02 0.490994683328907D+00
 0.000000000000000D+00 0.000000000000000D+00 -.000000000000000D+00 0.000000000000000D+00
 0.671809000088033D+03 0.000000000000000D+00 0.000000000000000D+00 0.671809000088033D+03
 0.671809000088033D+03 -.000000000000000D+00 -.000000000000000D+00 -.671809000088033D+03
 0.666835323564862D+03 -.495360998117992D+03 0.268492940379252D+03 0.334026003873808D+03
 0.231111969062406D+03 0.184313946169570D+03 -.711717652149679D+02 -.119898671083081D+03
 0.215799596696869D+02 0.141204834935720D+02 0.163123822152927D+02 0.461293523990918D+00
 0.424090747879110D+03 0.296926568454849D+03 -.213633557379577D+03 -.214588626314718D+03
0.216015684225D-02 0.000000000000D+00 0.000000000000D+00 0.195283565483D-07 0.448007170020D-10  6 -1 1 25 2 -2 21 2 0.24617845D+00 0.43392522D-01 0.33761381D+06 0.33761381D+06 0.33761381D+06 0.10807768D+01  1  2  1  3  6  4        2 0.173270834813D-02 0.100000000000D+01
  </mgrwgt>
  </event>
  <event>
  5     66 -.18829897E-05 0.33719740E+02 0.75467711E-02 0.95229041E-01
       -3 -1    0    0    0  501 0.00000000E+00 0.00000000E+00 0.88944056E+03 0.88944070E+03 0.50000000E+00 0.0000E+00 0.9000E+01
        3 -1    0    0  502    0 0.00000000E+00 0.00000000E+00 -.76276455E+03 0.76276471E+03 0.50000000E+00 0.0000E+00 0.9000E+01
       25  1    1    2    0    0 -.25461976E+03 0.38880105E+03 0.14160037E+03 0.50167035E+03 0.12500000E+03 0.0000E+00 0.9000E+01
        4  1    1    2  502    0 0.27955948E+02 -.18805106E+02 -.49918116E+03 0.50031930E+03 0.15500000E+01 0.0000E+00 0.9000E+01
       -4  1    1    2    0  501 0.22666381E+03 -.36999594E+03 0.48425680E+03 0.65021576E+03 0.15500000E+01 0.0000E+00 0.9000E+01
#aMCatNLO 1  0  0  2  5 0.24916542D+03 0.00000000D+00  -5  6  0 0.00000000D+00 0.00000000D+00 0.00000000D+00 0.00000000D+00 0.00000000D+00
  <mgrwgt>
 -.6526957095D-05    1    2    0
 0.823671038272083D+03 0.000000000000000D+00 0.000000000000000D+00 0.823671038272083D+03
 0.823671038272083D+03 0.000000000000000D+00 0.000000000000000D+00 -.823671038272083D+03
 0.492208450542635D+03 -.254532702126904D+03 0.388638828038239D+03 0.104005402141538D+03
 0.540534746767930D+03 0.279781937672909D+02 -.188213061681419D+02 -.539481965936875D+03
 0.614598879233601D+03 0.226554508359613D+03 -.369817521870097D+03 0.435476563795336D+03
 0.000000000000000D+00 0.000000000000000D+00 0.000000000000000D+00 -.000000000000000D+00
 0.834735383744810D+03 0.000000000000000D+00 0.000000000000000D+00 0.834735383744810D+03
 0.149196175421787D+04 0.000000000000000D+00 0.000000000000000D+00 -.149196175421787D+04
 0.470932845729870D+03 -.270510917358242D+03 0.349513183016912D+03 0.104005402141538D+03
 0.543222313403884D+03 0.999900044132310D+01 -.628467198740475D+02 -.539481965936875D+03
 0.639542879462194D+03 0.205748685757465D+03 -.420764465425584D+03 0.435476563795336D+03
 0.672999099366734D+03 0.547632311594539D+02 0.134098002282720D+03 -.657226370473063D+03
-.660168105461D-04 0.000000000000D+00 0.000000000000D+00 0.631690589136D-04 0.000000000000D+00  6 -3 3 25 4 -4 21 2 0.13683703D+00 0.11734842D+00 0.22491783D+06 0.22491783D+06 0.22491783D+06 0.10939303D+01  1  2 14  2  6  2        3 -.652695709491D-05 0.100000000000D+01
  </mgrwgt>
  </event>
  <event>
  5     66 0.18829897E-05 0.75888925E+02 0.75467711E-02 0.89127985E-01
       -1 -1    0    0    0  501 0.00000000E+00 0.00000000E+00 0.57737296E+03 0.57737305E+03 0.32000000E+00 0.0000E+00 0.9000E+01
        1 -1    0    0  502    0 -.00000000E+00 -.00000000E+00 -.14866341E+04 0.14866341E+04 0.32000000E+00 0.0000E+00 0.9000E+01
       25  1    1    2    0    0 -.23783118E+03 -.59794911E+03 -.47171297E+03 0.80761682E+03 0.12500000E+03 0.0000E+00 0.9000E+01
        2  1    1    2  502    0 0.29861601E+03 0.55247523E+03 -.72494426E+03 0.95913747E+03 0.32000000E+00 0.0000E+00 0.9000E+01
       -2  1    1    2    0  501 -.60784833E+02 0.45473880E+02 0.28739608E+03 0.29725289E+03 0.32000000E+00 0.0000E+00 0.9000E+01
#aMCatNLO 1  0  0  5  2 0.23935484D+03 0.00000000D+00  -5  6  0 0.00000000D+00 0.00000000D+00 0.00000000D+00 0.00000000D+00 0.00000000D+00
  <mgrwgt>
 0.1142673765D-02    4    2    0
 0.926467733013289D+03 0.000000000000000D+00 0.000000000000000D+00 0.926467733013289D+03
 0.926467733013289D+03 -.000000000000000D+00 -.000000000000000D+00 -.926467733013289D+03
 0.668216093871453D+03 -.237886803926660D+03 -.598033801444452D+03 -.129047235368604D+03
 0.712721720378579D+03 0.298652960182006D+03 0.552573893429473D+03 -.336809667875078D+03
 0.471997651776546D+03 -.607661562553461D+02 0.454599080149786D+02 0.465856903243682D+03
 0.000000000000000D+00 0.000000000000000D+00 -.000000000000000D+00 0.000000000000000D+00
 0.926467733013289D+03 0.000000000000000D+00 0.000000000000000D+00 0.926467733013289D+03
 0.926467733013289D+03 -.000000000000000D+00 -.000000000000000D+00 -.926467733013289D+03
 0.650232807790329D+03 -.259114266539205D+03 -.582153275881790D+03 0.336907195358815D+02
 0.654655724186717D+03 0.276637731874588D+03 0.569043756186275D+03 -.168032395862028D+03
 0.232937820393786D+03 0.118546682843045D+02 0.201221447739060D+03 -.116745124007272D+03
 0.315109113655746D+03 -.293781336196879D+02 -.188111928043545D+03 0.251086800333418D+03
0.209822591389D-02 0.000000000000D+00 0.000000000000D+00 0.269372040276D-05 0.000000000000D+00  6 -1 1 25 2 -2 21 0 0.88826619D-01 0.22871295D+00 0.46215735D+06 0.46215735D+06 0.46215735D+06 0.10709345D+01  1  2  2  4  6  5       -2 0.220389214742D-02 0.100000000000D+01
0.622496101876D-03 0.000000000000D+00 -.805773998489D-05 0.269372040276D-05 0.000000000000D+00  6 -1 1 25 2 -2 21 2 0.88826619D-01 0.22871295D+00 0.46215735D+06 0.46215735D+06 0.46215735D+06 0.10709345D+01  1  2  3  4  6  5       -2 0.749895124514D-03 0.100000000000D+01
-.134743427359D-02 0.000000000000D+00 0.000000000000D+00 0.269372040276D-05 0.000000000000D+00  6 -1 1 25 2 -2 21 2 0.88826619D-01 0.22871295D+00 0.46215735D+06 0.46215735D+06 0.46215735D+06 0.10709345D+01  1  2 15  4  6  5       -2 -.162319794344D-02 0.100000000000D+01
-.155990754183D-03 0.000000000000D+00 0.000000000000D+00 0.269372040276D-05 0.000000000000D+00  6 -1 1 25 2 -2 21 2 0.88826619D-01 0.22871295D+00 0.46215735D+06 0.46215735D+06 0.46215735D+06 0.10709345D+01  1  2  4  4  6  5       -2 -.187915563934D-03 0.100000000000D+01
  </mgrwgt>
  </event>
  <event>
  5     66 -.18829897E-05 0.26889390E+02 0.75467711E-02 0.94392354E-01
       -1 -1    0    0    0  501 0.00000000E+00 0.00000000E+00 0.13909300E+04 0.13909300E+04 0.32000000E+00 0.0000E+00 0.9000E+01
        1 -1    0    0  502    0 0.00000000E+00 0.00000000E+00 -.24911459E+04 0.24911459E+04 0.32000000E+00 0.0000E+00 0.9000E+01
       25  1    1    2    0    0 -.41981187E+03 -.27263884E+03 -.95516339E+02 0.52471165E+03 0.12500000E+03 0.0000E+00 0.9000E+01
        2  1    1    2  502    0 0.11300388E+02 0.24397548E+02 -.21323805E+04 0.21325501E+04 0.32000000E+00 0.0000E+00 0.9000E+01
       -2  1    1    2    0  501 0.40851148E+03 0.24824129E+03 0.11276810E+04 0.12248142E+04 0.32000000E+00 0.0000E+00 0.9000E+01
#aMCatNLO 1  0  0  2  1 0.15243496D+03 0.00000000D+00  -5  6  0 0.00000000D+00 0.00000000D+00 0.00000000D+00 0.00000000D+00 0.00000000D+00
  <mgrwgt>
 -.5971559066D-02    1    2    0
 0.186145363130648D+04 0.000000000000000D+00 0.000000000000000D+00 0.186145363130648D+04
 0.186145363130648D+04 0.000000000000000D+00 0.000000000000000D+00 -.186145363130648D+04
 0.518916587889557D+03 -.419804172161908D+03 -.272635353108730D+03 0.555323910674974D+02
 0.159358541178815D+04 0.113011930170140D+02 0.243992280324615D+02 -.159335853635390D+04
 0.161040526293525D+04 0.408502979144894D+03 0.248236125076269D+03 0.153782614528640D+04
 0.000000000000000D+00 -.000000000000000D+00 0.000000000000000D+00 -.000000000000000D+00
 0.204604785933856D+04 0.000000000000000D+00 0.000000000000000D+00 0.204604785933856D+04
 0.271814721074848D+04 0.000000000000000D+00 0.000000000000000D+00 -.271814721074848D+04
 0.556114596346069D+03 -.392142696033482D+03 -.369836049837045D+03 0.555323910674974D+02
 0.161813757865746D+04 0.939415853461881D+02 -.265993940972799D+03 -.159335853635390D+04
 0.161504224750977D+04 0.491496515166926D+03 -.433979687744909D+02 0.153782614528640D+04
 0.974900647573731D+03 -.193295404479632D+03 0.679227959584335D+03 -.672099351409921D+03
-.259261348748D+00 0.000000000000D+00 0.000000000000D+00 0.426640352695D-02 0.000000000000D+00  6 -1 1 25 2 -2 21 2 0.21398923D+00 0.38325322D+00 0.26052776D+06 0.26052776D+06 0.26052776D+06 0.10891140D+01  1  2 14  2  6  2        1 -.597155906641D-02 0.100000000000D+01
  </mgrwgt>
  </event>
  <event>
  5     66 0.18829897E-05 0.89053160E+02 0.75467711E-02 0.94653010E-01
       -1 -1    0    0    0  501 0.00000000E+00 0.00000000E+00 0.11623994E+04 0.11623994E+04 0.32000000E+00 0.0000E+00 0.9000E+01
        1 -1    0    0  502    0 -.00000000E+00 -.00000000E+00 -.11681329E+04 0.11681329E+04 0.32000000E+00 0.0000E+00 0.9000E+01
       25  1    1    2    0    0 -.41423306E+03 0.25316431E+03 -.17365853E+03 0.53053132E+03 0.12500000E+03 0.0000E+00 0.9000E+01
        2  1    1    2  502    0 0.36826291E+03 -.17688834E+03 -.76264510E+03 0.86517900E+03 0.32000000E+00 0.0000E+00 0.9000E+01
       -2  1    1    2    0  501 0.45970152E+02 -.76275968E+02 0.93057014E+03 0.93482200E+03 0.32000000E+00 0.0000E+00 0.9000E+01
#aMCatNLO 1  0  0  4  5 0.59443227D+01 0.00000000D+00  -5  6  0 0.00000000D+00 0.00000000D+00 0.00000000D+00 0.00000000D+00 0.00000000D+00
  <mgrwgt>
 0.4156375735D-02    5    2    0
 0.116526263506692D+04 0.000000000000000D+00 0.000000000000000D+00 0.116526263506692D+04
 0.116526263506692D+04 -.000000000000000D+00 -.000000000000000D+00 -.116526263506692D+04
 0.530128094586728D+03 -.414272294221462D+03 0.253182273465759D+03 -.172302058354946D+03
 0.863331065922027D+03 0.368304497876835D+03 -.176910214376302D+03 -.760522913710749D+03
 0.937066109625085D+03 0.459677963446276D+02 -.762720590894572D+02 0.932824972065695D+03
 0.000000000000000D+00 0.000000000000000D+00 0.000000000000000D+00 0.000000000000000D+00
 0.116526263506692D+04 0.000000000000000D+00 0.000000000000000D+00 0.116526263506692D+04
 0.116526263506692D+04 -.000000000000000D+00 -.000000000000000D+00 -.116526263506692D+04
 0.529861319853661D+03 -.413477571303854D+03 0.252800538780100D+03 -.173943105348334D+03
 0.624435456625047D+01 0.260424708856767D+01 -.370984480777676D+01 0.429498690948951D+01
 0.934307404939232D+03 0.473708513177893D+02 -.769459980652630D+02 0.929927762114590D+03
 0.860112190774697D+03 0.363502472897497D+03 -.172144695907061D+03 -.760279643675745D+03
0.247701756112D-01 0.000000000000D+00 0.000000000000D+00 0.127954463342D-03 0.000000000000D+00  6 -1 1 25 2 -2 21 0 0.17883068D+00 0.17971276D+00 0.24949461D+06 0.24949461D+06 0.24949461D+06 0.10905252D+01  1  2  2  3  6  4        2 0.726999937796D-02 0.100000000000D+01
0.704169644724D-02 0.000000000000D+00 -.951239964842D-04 0.127954463342D-03 0.000000000000D+00  6 -1 1 25 2 -2 21 2 0.17883068D+00 0.17971276D+00 0.24949461D+06 0.24949461D+06 0.24949461D+06 0.10905252D+01  1  2  3  3  6  4        2 0.245784234502D-02 0.100000000000D+01
-.171325569895D-01 0.000000000000D+00 0.000000000000D+00 0.127954463342D-03 0.000000000000D+00  6 -1 1 25 2 -2 21 2 0.17883068D+00 0.17971276D+00 0.24949461D+06 0.24949461D+06 0.24949461D+06 0.10905252D+01  1  2 15  3  6  4        2 -.597996865709D-02 0.100000000000D+01
0.630099366381D-10 0.000000000000D+00 0.000000000000D+00 0.127954463342D-03 0.000000000000D+00  6 -1 1 25 2 -2 21 2 0.17883068D+00 0.17971276D+00 0.24879725D+06 0.24879725D+06 0.24879725D+06 0.10906167D+01  1  2 12  3  6  4        2 0.220015178662D-10 0.100000000000D+01
0.116990682534D-02 0.000000000000D+00 0.000000000000D+00 0.127954463342D-03 0.273507824475D-07  6 -1 1 25 2 -2 21 2 0.17883068D+00 0.17971276D+00 0.24879725D+06 0.24879725D+06 0.24879725D+06 0.10906167D+01  1  2 11  3  6  4        2 0.408502647246D-03 0.100000000000D+01
  </mgrwgt>
  </event>
  <event>
  5     66 0.18829897E-05 0.15896837E+03 0.75467711E-02 0.93411843E-01
       -1 -1    0    0    0  501 0.00000000E+00 0.00000000E+00 0.39230807E+03 0.39230820E+03 0.32000000E+00 0.0000E+00 0.9000E+01
        1 -1    0    0  502    0 -.00000000E+00 -.00000000E+00 -.28428581E+04 0.28428581E+04 0.32000000E+00 0.0000E+00 0.9000E+01
       25  1    1    2    0    0 -.29173494E+03 0.42889153E+03 -.88555366E+03 0.10338702E+04 0.12500000E+03 0.0000E+00 0.9000E+01
        2  1    1    2  502    0 0.32187168E+03 -.27279332E+03 -.18377662E+04 0.18855774E+04 0.32000000E+00 0.0000E+00 0.9000E+01
       -2  1    1    2    0  501 -.30136735E+02 -.15609822E+03 0.27276979E+03 0.31571876E+03 0.32000000E+00 0.0000E+00 0.9000E+01
#aMCatNLO 1  0  0  5  1 0.42392514D+02 0.00000000D+00  -5  6  0 0.00000000D+00 0.00000000D+00 0.00000000D+00 0.00000000D+00 0.00000000D+00
  <mgrwgt>
 0.4456348376D-03    1    2    0
 0.105606648651653D+04 0.000000000000000D+00 0.000000000000000D+00 0.105606648651653D+04
 0.105606648651653D+04 -.000000000000000D+00 -.000000000000000D+00 -.105606648651653D+04
 0.556168693485319D+03 -.291776171714949D+03 0.428921193159404D+03 -.156818019663713D+03
 0.755963958848685D+03 0.321910560643075D+03 -.272835125683573D+03 -.627228899380336D+03
 0.800000320699064D+03 -.301343889281260D+02 -.156086067475831D+03 0.784046919044048D+03
 0.000000000000000D+00 0.000000000000000D+00 0.000000000000000D+00 -.000000000000000D+00
 0.105606648651653D+04 0.000000000000000D+00 0.000000000000000D+00 0.105606648651653D+04
 0.105606648651653D+04 -.000000000000000D+00 -.000000000000000D+00 -.105606648651653D+04
 0.513706472925254D+03 -.297429697527923D+03 0.399637818154693D+03 -.972263618106896D+01
 0.622145303987930D+03 0.314628237868275D+03 -.310555124808801D+03 -.437754915066784D+03
 0.681419101612293D+03 0.205224213934231D+03 -.132218782081819D+03 0.636186456726314D+03
 0.294862094507592D+03 -.222422754274583D+03 0.431360887359274D+02 -.188708905478461D+03
0.136867059080D-02 0.000000000000D+00 0.000000000000D+00 0.981923675918D-05 0.000000000000D+00  6 -1 1 25 2 -2 21 2 0.60355100D-01 0.43736280D+00 0.31055483D+06 0.31055483D+06 0.31055483D+06 0.10834426D+01  1  2 14  4  6  5       -2 0.445634837623D-03 0.100000000000D+01
  </mgrwgt>
  </event>
  <event>
  5     66 0.18829897E-05 0.24527059E+02 0.75467711E-02 0.92821898E-01
       -3 -1    0    0    0  501 0.00000000E+00 0.00000000E+00 0.85845122E+03 0.85845136E+03 0.50000000E+00 0.0000E+00 0.9000E+01
        3 -1    0    0  502    0 0.00000000E+00 0.00000000E+00 -.48983505E+03 0.48983531E+03 0.50000000E+00 0.0000E+00 0.9000E+01
       25  1    1    2    0    0 -.53326938E+03 -.72440187E+02 0.37846521E+03 0.66969002E+03 0.12500000E+03 0.0000E+00 0.9000E+01
        4  1    1    2  502    0 0.59255730E+01 0.23781082E+02 -.13269568E+03 0.13494888E+03 0.15500000E+01 0.0000E+00 0.9000E+01
       -4  1    1    2    0  501 0.52734381E+03 0.48659105E+02 0.12284664E+03 0.54364777E+03 0.15500000E+01 0.0000E+00 0.9000E+01
#aMCatNLO 1  0  0  4  5 0.15261100D+02 0.00000000D+00  -5  6  0 0.00000000D+00 0.00000000D+00 0.00000000D+00 0.00000000D+00 0.00000000D+00
  <mgrwgt>
 0.2174498042D-03    6    2    0
 0.648459533042176D+03 0.000000000000000D+00 0.000000000000000D+00 0.648459533042176D+03
 0.648459533042176D+03 -.000000000000000D+00 -.000000000000000D+00 -.648459533042176D+03
 0.588592547701293D+03 -.533134221102005D+03 -.724439000301330D+02 0.203312495552736D+03
 0.178210010858993D+03 0.593506669114581D+01 0.237981425508618D+02 -.176514110951116D+03
 0.530116507524066D+03 0.527199154410859D+03 0.486457574792710D+02 -.267983846016210D+02
 0.000000000000000D+00 0.000000000000000D+00 0.000000000000000D+00 0.000000000000000D+00
 0.648459533042176D+03 0.000000000000000D+00 0.000000000000000D+00 0.648459533042176D+03
 0.648459533042176D+03 -.000000000000000D+00 -.000000000000000D+00 -.648459533042176D+03
 0.583599294705037D+03 -.532695632236814D+03 -.706852676712721D+02 0.190268476396588D+03
 0.108664828000521D+03 0.370518748713386D+02 -.205940496035077D+02 -.100055427308216D+03
 0.531387391136431D+03 0.527596328127197D+03 0.502383253830103D+02 -.386106807527604D+02
 0.732675522423626D+02 -.319525707617224D+02 0.410409918917695D+02 -.516023683356119D+02
0.807941690863D-03 0.000000000000D+00 0.000000000000D+00 0.938284654701D-06 0.000000000000D+00  6 -3 3 25 4 -4 21 0 0.13206945D+00 0.75359270D-01 0.30599101D+06 0.30599101D+06 0.30599101D+06 0.10839171D+01  1  2  2  3  6  4        4 0.210333951381D-03 0.100000000000D+01
0.350835176785D-03 0.000000000000D+00 -.310270882885D-05 0.938284654701D-06 0.000000000000D+00  6 -3 3 25 4 -4 21 2 0.13206945D+00 0.75359270D-01 0.30599101D+06 0.30599101D+06 0.30599101D+06 0.10839171D+01  1  2  3  3  6  4        4 0.107306154595D-03 0.100000000000D+01
-.552679436520D-03 0.000000000000D+00 0.000000000000D+00 0.938284654701D-06 0.000000000000D+00  6 -3 3 25 4 -4 21 2 0.13206945D+00 0.75359270D-01 0.30599101D+06 0.30599101D+06 0.30599101D+06 0.10839171D+01  1  2 15  3  6  4        4 -.169042071550D-03 0.100000000000D+01
-.313351597067D-03 0.000000000000D+00 0.000000000000D+00 0.938284654701D-06 0.000000000000D+00  6 -3 3 25 4 -4 21 2 0.13206945D+00 0.75359270D-01 0.30599101D+06 0.30599101D+06 0.30599101D+06 0.10839171D+01  1  2  4  3  6  4        4 -.958414581613D-04 0.100000000000D+01
-.633154462045D-03 0.000000000000D+00 0.000000000000D+00 0.938284654701D-06 0.000000000000D+00  6 -3 3 25 4 -4 21 2 0.13206945D+00 0.75359270D-01 0.30599101D+06 0.30599101D+06 0.30599101D+06 0.10839171D+01  1  2  5  3  6  4        4 -.193656095746D-03 0.100000000000D+01
0.117161544751D-02 0.000000000000D+00 -.000000000000D+00 0.938284654701D-06 0.000000000000D+00  6 -3 3 25 4 -4 21 2 0.13206945D+00 0.75359270D-01 0.30599101D+06 0.30599101D+06 0.30599101D+06 0.10839171D+01  1  2  6  3  6  4        4 0.358349323714D-03 0.100000000000D+01
  </mgrwgt>
  </event>
  <event>
  5     66 0.18829897E-05 0.70832995E+02 0.75467711E-02 0.94256772E-01
       -1 -1    0    0    0  501 0.00000000E+00 0.00000000E+00 0.14518367E+04 0.14518367E+04 0.32000000E+00 0.0000E+00 0.9000E+01
        1 -1    0    0  502    0 0.00000000E+00 0.00000000E+00 -.45499482E+03 0.45499494E+03 0.32000000E+00 0.0000E+00 0.9000E+01
       25  1    1    2    0    0 -.16082781E+03 0.42826209E+03 0.83789879E+03 0.96279457E+03 0.12500000E+03 0.0000E+00 0.9000E+01
        2  1    1    2  502    0 0.32472674E+02 -.62935529E+02 -.32022825E+03 0.32796583E+03 0.32000000E+00 0.0000E+00 0.9000E+01
       -2  1    1    2    0  501 0.12835514E+03 -.36532656E+03 0.47917131E+03 0.61607125E+03 0.32000000E+00 0.0000E+00 0.9000E+01
#aMCatNLO 1  0  0  2  4 0.10008726D+03 0.00000000D+00  -5  6  0 0.00000000D+00 0.00000000D+00 0.00000000D+00 0.00000000D+00 0.00000000D+00
  <mgrwgt>
 0.4926477734D-03    4    2    0
 0.812759690670915D+03 0.000000000000000D+00 0.000000000000000D+00 0.812759690670915D+03
 0.812759690670915D+03 0.000000000000000D+00 0.000000000000000D+00 -.812759690670915D+03
 0.615604513416176D+03 -.160793028943848D+03 0.428157688403981D+03 0.392645530525930D+03
 0.581212998817878D+03 0.324789062666505D+02 -.629478659333744D+02 -.576880608806560D+03
 0.428701869107776D+03 0.128314122677197D+03 -.365209822470607D+03 0.184235078280630D+03
 0.000000000000000D+00 0.000000000000000D+00 0.000000000000000D+00 0.000000000000000D+00
 0.989613645505855D+03 0.000000000000000D+00 0.000000000000000D+00 0.989613645505855D+03
 0.828583852472739D+03 0.000000000000000D+00 0.000000000000000D+00 -.828583852472739D+03
 0.624209538742711D+03 -.198765203435978D+03 0.424658014781840D+03 0.392645530525930D+03
 0.580678035691417D+03 -.310669548258263D+01 -.662275830798239D+02 -.576880608806560D+03
 0.423710202516222D+03 0.102207030354326D+03 -.367615960743570D+03 0.184235078280630D+03
 0.189599721028243D+03 0.996648685642348D+02 0.918552904155408D+01 0.161029793033116D+03
0.174582219642D-02 0.000000000000D+00 0.000000000000D+00 0.790599389923D-05 0.000000000000D+00  6 -1 1 25 2 -2 21 0 0.22335950D+00 0.69999215D-01 0.21718272D+06 0.21718272D+06 0.21718272D+06 0.10950868D+01  1  2  2  2  6  2        1 0.996559899843D-03 0.100000000000D+01
0.487490544483D-03 0.000000000000D+00 -.670441691980D-05 0.790599389923D-05 0.000000000000D+00  6 -1 1 25 2 -2 21 2 0.22335950D+00 0.69999215D-01 0.21718272D+06 0.21718272D+06 0.21718272D+06 0.10950868D+01  1  2  3  2  6  2        1 0.333708018325D-03 0.100000000000D+01
-.100773320351D-02 0.000000000000D+00 0.000000000000D+00 0.790599389923D-05 0.000000000000D+00  6 -1 1 25 2 -2 21 2 0.22335950D+00 0.69999215D-01 0.21718272D+06 0.21718272D+06 0.21718272D+06 0.10950868D+01  1  2 15  2  6  2        1 -.689836252516D-03 0.100000000000D+01
-.215887081296D-03 0.000000000000D+00 0.000000000000D+00 0.790599389923D-05 0.000000000000D+00  6 -1 1 25 2 -2 21 2 0.22335950D+00 0.69999215D-01 0.21718272D+06 0.21718272D+06 0.21718272D+06 0.10950868D+01  1  2  4  2  6  2        1 -.147783892214D-03 0.100000000000D+01
  </mgrwgt>
  </event>
  <event>
  5     66 0.18829897E-05 0.10358102E+02 0.75467711E-02 0.91700397E-01
       -1 -1    0    0    0  501 0.00000000E+00 0.00000000E+00 0.20467815E+04 0.20467815E+04 0.32000000E+00 0.0000E+00 0.9000E+01
        1 -1    0    0  502    0 0.00000000E+00 0.00000000E+00 -.72256807E+03 0.72256814E+03 0.32000000E+00 0.0000E+00 0.9000E+01
       25  1    1    2    0    0 -.19468011E+03 -.52287516E+03 0.24354182E+02 0.57229093E+03 0.12500000E+03 0.0000E+00 0.9000E+01
        2  1    1    2  502    0 0.20475579E+03 0.52046999E+03 -.27424803E+03 0.62291735E+03 0.32000000E+00 0.0000E+00 0.9000E+01
       -2  1    1    2    0  501 -.10075679E+02 0.24051704E+01 0.15741072E+04 0.15741414E+04 0.32000000E+00 0.0000E+00 0.9000E+01
#aMCatNLO 1  0  0  5  2 0.47207471D+02 0.00000000D+00  -5  6  0 0.00000000D+00 0.00000000D+00 0.00000000D+00 0.00000000D+00 0.00000000D+00
  <mgrwgt>
 0.3621238562D-02    4    2    0
 0.121611638777386D+04 0.000000000000000D+00 0.000000000000000D+00 0.121611638777386D+04
 0.121611638777386D+04 -.000000000000000D+00 -.000000000000000D+00 -.121611638777386D+04
 0.638389538535171D+03 -.194702717809619D+03 -.522932609352719D+03 -.283810747971693D+03
 0.858592880416125D+03 0.204777745229351D+03 0.520527594543288D+03 -.651382247746297D+03
 0.935250356596420D+03 -.100750274197330D+02 0.240501480943146D+01 0.935192995717990D+03
 0.000000000000000D+00 -.000000000000000D+00 0.000000000000000D+00 0.000000000000000D+00
 0.121611638777386D+04 0.000000000000000D+00 0.000000000000000D+00 0.121611638777386D+04
 0.121611638777386D+04 -.000000000000000D+00 -.000000000000000D+00 -.121611638777386D+04
 0.633213464214628D+03 -.194830655942002D+03 -.522902069177467D+03 -.271935162893332D+03
 0.846558811548621D+03 0.204606187028853D+03 0.520568547286709D+03 -.635457722603112D+03
 0.103908758994554D+03 0.810963701103179D+02 -.120197694762009D+02 0.638430426315799D+02
 0.848551740789912D+03 -.908719011971698D+02 0.143532913669591D+02 0.843549842864864D+03
0.566903918150D-01 0.000000000000D+00 0.000000000000D+00 0.184420435791D-03 0.000000000000D+00  6 -1 1 25 2 -2 21 0 0.31488946D+00 0.11116433D+00 0.32578421D+06 0.32578421D+06 0.32578421D+06 0.10819125D+01  1  2  2  4  6  5       -2 0.264673968463D-02 0.100000000000D+01
0.721336320081D-01 0.000000000000D+00 -.217706031493D-03 0.184420435791D-03 0.000000000000D+00  6 -1 1 25 2 -2 21 2 0.31488946D+00 0.11116433D+00 0.32578421D+06 0.32578421D+06 0.32578421D+06 0.10819125D+01  1  2  3  4  6  5       -2 0.394206543470D-02 0.100000000000D+01
-.368405059554D-01 0.000000000000D+00 0.000000000000D+00 0.184420435791D-03 0.000000000000D+00  6 -1 1 25 2 -2 21 2 0.31488946D+00 0.11116433D+00 0.32578421D+06 0.32578421D+06 0.32578421D+06 0.10819125D+01  1  2 15  4  6  5       -2 -.201331447039D-02 0.100000000000D+01
-.174613207289D-01 0.000000000000D+00 0.000000000000D+00 0.184420435791D-03 0.000000000000D+00  6 -1 1 25 2 -2 21 2 0.31488946D+00 0.11116433D+00 0.32578421D+06 0.32578421D+06 0.32578421D+06 0.10819125D+01  1  2  5  4  6  5       -2 -.954252087044D-03 0.100000000000D+01
  </mgrwgt>
  </event>
  <event>
  5     66 -.18829897E-05 0.17071905E+02 0.75467711E-02 0.90851233E-01
       -1 -1    0    0    0  501 0.00000000E+00 0.00000000E+00 0.25952860E+04 0.25952860E+04 0.32000000E+00 0.0000E+00 0.9000E+01
        1 -1    0    0  502    0 0.00000000E+00 0.00000000E+00 -.17199514E+04 0.17199514E+04 0.32000000E+00 0.0000E+00 0.9000E+01
       25  1    1    2    0    0 -.42297609E+03 0.55472448E+03 0.40280781E+03 0.81517309E+03 0.12500000E+03 0.0000E+00 0.9000E+01
        2  1    1    2  502    0 -.63201335E+01 -.15857690E+02 -.14539737E+04 0.14540739E+04 0.32000000E+00 0.0000E+00 0.9000E+01
       -2  1    1    2    0  501 0.42929622E+03 -.53886680E+03 0.19265004E+04 0.20459904E+04 0.32000000E+00 0.0000E+00 0.9000E+01
#aMCatNLO 1  0  0  1  2 0.15315464D+02 0.00000000D+00  -5  6  0 0.00000000D+00 0.00000000D+00 0.00000000D+00 0.00000000D+00 0.00000000D+00
  <mgrwgt>
 -.8599074915D-03    1    2    0
 0.211276259040306D+04 0.000000000000000D+00 0.000000000000000D+00 0.211276259040306D+04
 0.211276259040306D+04 0.000000000000000D+00 0.000000000000000D+00 -.211276259040306D+04
 0.749047402268679D+03 -.422961421758687D+03 0.554707667610895D+03 0.242590292557238D+03
 0.178618744092829D+04 -.632054172981645D+01 -.158587735143602D+02 -.178610585469754D+04
 0.169029033760916D+04 0.429281963488503D+03 -.538848894096535D+03 0.154351556214030D+04
 0.000000000000000D+00 0.000000000000000D+00 0.000000000000000D+00 0.000000000000000D+00
 0.471224967721389D+04 0.000000000000000D+00 0.000000000000000D+00 0.471224967721389D+04
 0.258413798619424D+04 0.000000000000000D+00 0.000000000000000D+00 -.258413798619424D+04
 0.870701271628588D+03 -.710725953463774D+03 0.422509495095250D+03 0.242590292557238D+03
 0.193319270787986D+04 -.667105578324240D+03 -.319421459804660D+03 -.178610585469754D+04
 0.175750542041151D+04 -.183253393206303D+03 -.820245820522686D+03 0.154351556214030D+04
 0.273498826348817D+04 0.156108492499432D+04 0.717157785232095D+03 0.212811169101965D+04
-.543568231608D+00 0.000000000000D+00 0.000000000000D+00 0.142106066081D-02 0.000000000000D+00  6 -1 1 25 2 -2 21 2 0.39927477D+00 0.26460791D+00 0.50033705D+06 0.50033705D+06 0.50033705D+06 0.10684897D+01  1  2 14  1  6  1       -1 -.859907491483D-03 0.100000000000D+01
  </mgrwgt>
  </event>
  <event>
  5     66 0.18829897E-05 0.25099338E+03 0.75467711E-02 0.94335793E-01
       -1 -1    0    0    0  501 0.00000000E+00 0.00000000E+00 0.81939533E+03 0.81939539E+03 0.32000000E+00 0.0000E+00 0.9000E+01
        1 -1    0    0  502    0 -.00000000E+00 -.00000000E+00 -.26337592E+04 0.26337593E+04 0.32000000E+00 0.0000E+00 0.9000E+01
       25  1    1    2    0    0 -.39171782E+03 -.29282500E+03 -.66008729E+03 0.83098108E+03 0.12500000E+03 0.0000E+00 0.9000E+01
        2  1    1    2  502    0 0.25788153E+03 0.80486541E+02 -.18567009E+04 0.18762514E+04 0.32000000E+00 0.0000E+00 0.9000E+01
       -2  1    1    2    0  501 0.13383629E+03 0.21233846E+03 0.70242433E+03 0.74592212E+03 0.32000000E+00 0.0000E+00 0.9000E+01
#aMCatNLO 1  0  0  5  2 0.47207471D+02 0.00000000D+00  -5  6  0 0.00000000D+00 0.00000000D+00 0.00000000D+00 0.00000000D+00 0.00000000D+00
  <mgrwgt>
 0.8056020480D-03    1    2    0
 0.146904396154105D+04 0.000000000000000D+00 0.000000000000000D+00 0.146904396154105D+04
 0.146904396154105D+04 -.000000000000000D+00 -.000000000000000D+00 -.146904396154105D+04
 0.569025396780199D+03 -.391735178633891D+03 -.292829098580454D+03 -.262601544218795D+03
 0.105862742141846D+04 0.257901116686221D+03 0.804941720792733D+02 -.102357203930763D+04
 0.131043510488344D+04 0.133834061947669D+03 0.212334926501180D+03 0.128617358352642D+04
 0.000000000000000D+00 0.000000000000000D+00 0.000000000000000D+00 0.000000000000000D+00
 0.146904396154105D+04 0.000000000000000D+00 0.000000000000000D+00 0.146904396154105D+04
 0.146904396154105D+04 -.000000000000000D+00 -.000000000000000D+00 -.146904396154105D+04
 0.548314064154692D+03 -.388127228696799D+03 -.287104892249393D+03 -.227928383797286D+03
 0.999648527663051D+03 0.264547401759509D+03 0.910388602700438D+02 -.959699836929199D+03
 0.547156703375134D+03 -.269243009101283D+03 0.177520011761879D+03 0.442012788867577D+03
 0.842968627889224D+03 0.392822836038572D+03 0.185460202174698D+02 0.745615431858909D+03
0.831755410000D-02 0.000000000000D+00 0.000000000000D+00 0.809398388240D-04 0.000000000000D+00  6 -1 1 25 2 -2 21 2 0.12606083D+00 0.40519373D+00 0.26315436D+06 0.26315436D+06 0.26315436D+06 0.10887876D+01  1  2 14  4  6  5       -2 0.805602048039D-03 0.100000000000D+01
  </mgrwgt>
  </event>
  <event>
  6     66 0.18829897E-05 0.14192798E+03 0.75467711E-02 0.91487446E-01
       -1 -1    0    0    0  501 0.00000000E+00 0.00000000E+00 0.31019025E+03 0.31019041E+03 0.32000000E+00 0.0000E+00 0.9000E+01
        1 -1    0    0  502    0 -.00000000E+00 -.00000000E+00 -.18883151E+04 0.18883151E+04 0.32000000E+00 0.0000E+00 0.9000E+01
       25  1    1    2    0    0 -.62768784E+03 0.15450421E+03 -.11266403E+04 0.13049164E+04 0.12500000E+03 0.0000E+00 0.9000E+01
        2  1    1    2  502    0 0.22917832E+03 0.29147837E+02 -.23164135E+03 0.32715458E+03 0.32000000E+00 0.0000E+00 0.9000E+01
       -2  1    1    2    0  503 0.12805817E+02 0.31731548E+01 0.55493353E+02 0.57040972E+02 0.32000000E+00 0.0000E+00 0.9000E+01
       21  1    1    2  503  501 0.38570370E+03 -.18682520E+03 -.27533656E+03 0.50939354E+03 0.75000000E+00 0.0000E+00 0.9000E+01
#aMCatNLO 2  0  0  5  1 0.11263800D+03 0.00000000D+00  -5  6  0 0.00000000D+00 0.00000000D+00 0.00000000D+00 0.00000000D+00 0.00000000D+00
  <mgrwgt>
 0.2288323653D-03    2    2    0
 0.765334657300140D+03 0.000000000000000D+00 0.000000000000000D+00 0.765334657300140D+03
 0.765334657300140D+03 -.000000000000000D+00 -.000000000000000D+00 -.765334657300140D+03
 0.746751207242693D+03 -.655273640049551D+03 0.167126437076285D+03 -.291028480057908D+03
 0.223392543721345D+03 0.220931922391526D+03 0.330387780903540D+02 -.132416047898845D+01
 0.560525563636242D+03 0.434341717658026D+03 -.200165215166639D+03 0.292352640536897D+03
 0.000000000000000D+00 0.000000000000000D+00 -.000000000000000D+00 0.000000000000000D+00
 0.765334657300140D+03 0.000000000000000D+00 0.000000000000000D+00 0.765334657300140D+03
 0.765334657300140D+03 -.000000000000000D+00 -.000000000000000D+00 -.765334657300140D+03
 0.712791711022494D+03 -.627901249309463D+03 0.154511944248707D+03 -.272604298393247D+03
 0.231341136609605D+03 0.229460036107765D+03 0.291086197666707D+02 0.441605848313404D+01
 0.138438246459834D+03 0.125880720251906D+02 0.323568066880519D+01 0.137826771333337D+03
 0.448098220508347D+03 0.385853141176508D+03 -.186856244684183D+03 0.130361468576776D+03
-.639924675309D-06 0.000000000000D+00 0.000000000000D+00 0.250314164067D-08 0.000000000000D+00  6 -1 1 25 2 -2 21 2 0.47721591D-01 0.29051003D+00 0.44330069D+06 0.44330069D+06 0.44330069D+06 0.10722244D+01  1  2 13  4  6  5       -2 -.139963905968D-05 0.100000000000D+01
0.105263667547D-03 0.000000000000D+00 0.000000000000D+00 0.250314164067D-08 0.613874718033D-10  6 -1 1 25 2 -2 21 2 0.47721591D-01 0.29051003D+00 0.44330069D+06 0.44330069D+06 0.44330069D+06 0.10722244D+01  1  2  1  4  6  5       -2 0.230232004403D-03 0.100000000000D+01
  </mgrwgt>
  </event>
  <event>
  5     66 0.18829897E-05 0.46979244E+02 0.75467711E-02 0.92399405E-01
       -1 -1    0    0    0  501 0.00000000E+00 0.00000000E+00 0.38702090E+03 0.38702104E+03 0.32000000E+00 0.0000E+00 0.9000E+01
        1 -1    0    0  502    0 0.00000000E+00 0.00000000E+00 -.12276186E+04 0.12276186E+04 0.32000000E+00 0.0000E+00 0.9000E+01
       25  1    1    2    0    0 0.46188498E+03 -.93608470E+02 -.52083462E+03 0.71343814E+03 0.12500000E+03 0.0000E+00 0.9000E+01
        2  1    1    2  502    0 -.48421055E+03 0.52250851E+02 -.51003349E+03 0.70521221E+03 0.32000000E+00 0.0000E+00 0.9000E+01
       -2  1    1    2    0  501 0.22325563E+02 0.41357620E+02 0.19027041E+03 0.19598932E+03 0.32000000E+00 0.0000E+00 0.9000E+01
#aMCatNLO 1  0  0  2  4 0.45947536D+00 0.00000000D+00  -5  6  0 0.00000000D+00 0.00000000D+00 0.00000000D+00 0.00000000D+00 0.00000000D+00
  <mgrwgt>
 0.3727911584D-02    7    2    0
 0.689285281564902D+03 0.000000000000000D+00 0.000000000000000D+00 0.689285281564902D+03
 0.689285281564902D+03 0.000000000000000D+00 0.000000000000000D+00 -.689285281564902D+03
 0.518098996685340D+03 0.461991826945495D+03 -.936155796890713D+02 -.174932116666434D+03
 0.515044940484366D+03 -.484308119422861D+03 0.522751336245063D+02 -.167284926350750D+03
 0.345426625960098D+03 0.223162924773658D+02 0.413404460645650D+02 0.342217043017183D+03
 0.000000000000000D+00 -.000000000000000D+00 0.000000000000000D+00 -.000000000000000D+00
 0.742256903910439D+03 0.000000000000000D+00 0.000000000000000D+00 0.742256903910439D+03
 0.858031939644804D+03 0.000000000000000D+00 0.000000000000000D+00 -.858031939644804D+03
 0.579396161508590D+03 0.522532860847151D+03 -.128191559255598D+03 -.174932116666434D+03
 0.462263350921840D+03 -.430396943632565D+03 0.214855749995133D+02 -.167284926350750D+03
 0.348082514250942D+03 0.605722793536245D+02 0.194918231507322D+02 0.342217043017183D+03
 0.210546816873870D+03 -.152708196568210D+03 0.872141611053524D+02 -.115775035734365D+03
0.600801350477D-03 0.000000000000D+00 0.000000000000D+00 0.399106166653D-05 0.000000000000D+00  6 -1 1 25 2 -2 21 0 0.59541691D-01 0.18886441D+00 0.26100543D+06 0.26100543D+06 0.26100543D+06 0.10890544D+01  1  2  2  2  6  2        1 0.218173913035D-02 0.100000000000D+01
0.207754492062D-03 0.000000000000D+00 -.230723538046D-05 0.399106166653D-05 0.000000000000D+00  6 -1 1 25 2 -2 21 2 0.59541691D-01 0.18886441D+00 0.26100543D+06 0.26100543D+06 0.26100543D+06 0.10890544D+01  1  2  3  2  6  2        1 0.894790733102D-03 0.100000000000D+01
-.377529968250D-03 0.000000000000D+00 0.000000000000D+00 0.399106166653D-05 0.000000000000D+00  6 -1 1 25 2 -2 21 2 0.59541691D-01 0.18886441D+00 0.26100543D+06 0.26100543D+06 0.26100543D+06 0.10890544D+01  1  2 15  2  6  2        1 -.162600728247D-02 0.100000000000D+01
-.359167287112D-03 0.000000000000D+00 0.000000000000D+00 0.399106166653D-05 0.000000000000D+00  6 -1 1 25 2 -2 21 2 0.59541691D-01 0.18886441D+00 0.26100543D+06 0.26100543D+06 0.26100543D+06 0.10890544D+01  1  2  4  2  6  2        1 -.154691990990D-02 0.100000000000D+01
-.189704079785D-02 0.000000000000D+00 -.560031044547D-03 0.399106166653D-05 0.000000000000D+00  6 -1 1 25 2 -2 21 2 0.59541691D-01 0.24389309D+00 0.26100543D+06 0.26100543D+06 0.26100543D+06 0.10890544D+01  1  2  5  2  6  2        1 -.465927287505D-02 0.100000000000D+01
0.199256789818D-02 0.000000000000D+00 0.542208694244D-03 0.399106166653D-05 0.000000000000D+00  6 -1 1 25 2 -2 21 2 0.59541691D-01 0.18886441D+00 0.26100543D+06 0.26100543D+06 0.26100543D+06 0.10890544D+01  1  2  6  2  6  2        1 0.858191451204D-02 0.100000000000D+01
-.555393511790D-04 0.000000000000D+00 -.192706041448D-04 0.399106166653D-05 0.000000000000D+00  6 -1 21 25 2 -2 -1 2 0.59541691D-01 0.24389309D+00 0.26100543D+06 0.26100543D+06 0.26100543D+06 0.10890544D+01  1  2  5  6  6  2        1 -.983327237827D-04 0.100000000000D+01
  </mgrwgt>
  </event>
  <event>
  6     66 0.18829897E-05 0.95210878E+02 0.75467711E-02 0.91056183E-01
       -1 -1    0    0    0  501 0.00000000E+00 0.00000000E+00 0.18421941E+04 0.18421941E+04 0.32000000E+00 0.0000E+00 0.9000E+01
        1 -1    0    0  503    0 0.00000000E+00 0.00000000E+00 -.12751426E+04 0.12751426E+04 0.32000000E+00 0.0000E+00 0.9000E+01
       25  1    1    2    0    0 0.48629001E+03 -.48216808E+03 0.30791127E+03 0.76118223E+03 0.12500000E+03 0.0000E+00 0.9000E+01
        2  1    1    2  502    0 -.41060135E+03 0.36197703E+03 -.92631030E+03 0.10759515E+04 0.32000000E+00 0.0000E+00 0.9000E+01
       -2  1    1    2    0  501 -.47310751E+02 0.93036173E+02 0.12220573E+04 0.12265065E+04 0.32000000E+00 0.0000E+00 0.9000E+01
       21  1    1    2  503  502 -.28377908E+02 0.27154885E+02 -.36606782E+02 0.53696484E+02 0.75000000E+00 0.0000E+00 0.9000E+01
#aMCatNLO 2  0  0  2  1 0.39277136D+02 0.00000000D+00  -5  6  0 0.00000000D+00 0.00000000D+00 0.00000000D+00 0.00000000D+00 0.00000000D+00
  <mgrwgt>
 0.4746265021D-04    3    2    0
 0.150166122863860D+04 0.000000000000000D+00 0.000000000000000D+00 0.150166122863860D+04
 0.150166122863860D+04 0.000000000000000D+00 0.000000000000000D+00 -.150166122863860D+04
 0.705693856931278D+03 0.479618453559969D+03 -.475777659085714D+03 0.161184918122652D+03
 0.129092687010700D+04 -.422806954957779D+03 0.373654758249328D+03 -.116108078290928D+04
 0.100670173023893D+04 -.568114986021893D+02 0.102122900836386D+03 0.999895864786624D+03
 0.000000000000000D+00 -.000000000000000D+00 0.000000000000000D+00 -.000000000000000D+00
 0.150878576006274D+04 0.000000000000000D+00 0.000000000000000D+00 0.150878576006274D+04
 0.155691637683931D+04 0.000000000000000D+00 0.000000000000000D+00 -.155691637683931D+04
 0.714587837639554D+03 0.486328172540261D+03 -.482198204544374D+03 0.161184918122652D+03
 0.128366378303494D+04 -.410644029928256D+03 0.362016027433373D+03 -.116108078290928D+04
 0.100532765675165D+04 -.473062350911532D+02 0.930272924139763D+02 0.999895864786624D+03
 0.621228594759056D+02 -.283779075208520D+02 0.271548846970252D+02 -.481306167765628D+02
-.106959554118D-09 0.000000000000D+00 0.000000000000D+00 0.489900248283D-04 0.000000000000D+00  6 -1 1 25 2 -2 21 2 0.28207577D+00 0.19661465D+00 0.48111399D+06 0.48111399D+06 0.48111399D+06 0.10696942D+01  1  2 13  2  6  2        1 -.397578147443D-11 0.100000000000D+01
-.177708428289D-02 0.000000000000D+00 0.000000000000D+00 0.489900248283D-04 0.000000000000D+00  6 -1 1 25 2 -2 21 2 0.28207577D+00 0.18921320D+00 0.46796270D+06 0.46796270D+06 0.46796270D+06 0.10705489D+01  1  2  8  2  6  2        1 -.717362842421D-04 0.100000000000D+01
0.327881291660D-02 0.000000000000D+00 0.000000000000D+00 0.489900248283D-04 0.747770772849D-06  6 -1 1 25 2 -2 21 2 0.28341406D+00 0.19617550D+00 0.48111399D+06 0.48111399D+06 0.48111399D+06 0.10696942D+01  1  2  1  2  6  2        1 0.119198938428D-03 0.100000000000D+01
  </mgrwgt>
  </event>
  <event>
  6     66 0.18829897E-05 0.19195105E+03 0.75467711E-02 0.95097486E-01
       -1 -1    0    0    0  501 0.00000000E+00 0.00000000E+00 0.51344774E+03 0.51344784E+03 0.32000000E+00 0.0000E+00 0.9000E+01
        1 -1    0    0  502    0 -.00000000E+00 -.00000000E+00 -.14314660E+04 0.14314660E+04 0.32000000E+00 0.0000E+00 0.9000E+01
       25  1    1    2    0    0 -.33230007E+03 0.32896470E+03 -.55087042E+03 0.73329689E+03 0.12500000E+03 0.0000E+00 0.9000E+01
        2  1    1    2  502    0 0.20742116E+03 -.15688110E+03 -.73777357E+03 0.78226924E+03 0.32000000E+00 0.0000E+00 0.9000E+01
       -2  1    1    2    0  503 0.77026350E+02 -.78284038E+02 0.16302870E+03 0.19657037E+03 0.32000000E+00 0.0000E+00 0.9000E+01
       21  1    1    2  503  501 0.47852558E+02 -.93799557E+02 0.20759702E+03 0.23277738E+03 0.75000000E+00 0.0000E+00 0.9000E+01
#aMCatNLO 2  0  0  5  1 0.20907992D+02 0.00000000D+00  -5  6  0 0.00000000D+00 0.00000000D+00 0.00000000D+00 0.00000000D+00 0.00000000D+00
  <mgrwgt>
 0.9318049639D-03    3    2    0
 0.857311557330998D+03 0.000000000000000D+00 0.000000000000000D+00 0.857311557330998D+03
 0.857311557330998D+03 -.000000000000000D+00 -.000000000000000D+00 -.857311557330998D+03
 0.537088274704303D+03 -.332481165566279D+03 0.329138541229621D+03 -.232299182189198D+03
 0.492794224135012D+03 0.207495739422578D+03 -.156908163278261D+03 -.418534937321782D+03
 0.684740615822681D+03 0.124985426143701D+03 -.172230377951361D+03 0.650834119510980D+03
 0.000000000000000D+00 0.000000000000000D+00 0.000000000000000D+00 0.000000000000000D+00
 0.857311557330998D+03 0.000000000000000D+00 0.000000000000000D+00 0.857311557330998D+03
 0.857311557330998D+03 -.000000000000000D+00 -.000000000000000D+00 -.857311557330998D+03
 0.536814511519561D+03 -.332407466940245D+03 0.329036984251276D+03 -.231915412802126D+03
 0.492553385136116D+03 0.207563360780769D+03 -.157001345759116D+03 -.418182813970476D+03
 0.309941272708479D+03 0.769521538131956D+02 -.782041460102623D+02 0.289872506627427D+03
 0.375313945297839D+03 0.478919523462805D+02 -.938314924818983D+02 0.360225720145175D+03
-.400416081707D-08 0.000000000000D+00 0.000000000000D+00 0.601130236748D-05 0.000000000000D+00  6 -1 1 25 2 -2 21 2 0.78991970D-01 0.22022555D+00 0.23013589D+06 0.23013589D+06 0.23013589D+06 0.10931744D+01  1  2 13  4  6  5       -2 -.729039769170D-08 0.100000000000D+01
-.222084539671D-02 0.000000000000D+00 0.000000000000D+00 0.601130236748D-05 0.000000000000D+00  6 -1 1 25 2 -2 21 2 0.78991970D-01 0.22022555D+00 0.23013589D+06 0.23013589D+06 0.23013589D+06 0.10931744D+01  1  2 13  4  6  5       -2 -.404350546681D-02 0.100000000000D+01
0.273263175945D-02 0.000000000000D+00 0.000000000000D+00 0.601130236748D-05 0.291203870459D-07  6 -1 1 25 2 -2 21 2 0.78991970D-01 0.22022555D+00 0.23013589D+06 0.23013589D+06 0.23013589D+06 0.10931744D+01  1  2  1  4  6  5       -2 0.497531772112D-02 0.100000000000D+01
  </mgrwgt>
  </event>
  <event>
  5     66 0.18829897E-05 0.23490456E+02 0.75467711E-02 0.91590385E-01
       -1 -1    0    0    0  501 0.00000000E+00 0.00000000E+00 0.22786612E+03 0.22786635E+03 0.32000000E+00 0.0000E+00 0.9000E+01
        1 -1    0    0  502    0 0.00000000E+00 0.00000000E+00 -.32357635E+04 0.32357635E+04 0.32000000E+00 0.0000E+00 0.9000E+01
       25  1    1    2    0    0 -.37483042E+03 -.50140103E+03 -.25369336E+04 0.26160195E+04 0.12500000E+03 0.0000E+00 0.9000E+01
        2  1    1    2  502    0 -.23095386E+02 -.51448383E+01 -.10317549E+03 0.10585439E+03 0.32000000E+00 0.0000E+00 0.9000E+01
       -2  1    1    2    0  501 0.39792580E+03 0.50654587E+03 -.36778833E+03 0.74175604E+03 0.32000000E+00 0.0000E+00 0.9000E+01
#aMCatNLO 1  0  0  2  1 0.12485709D+02 0.00000000D+00  -5  6  0 0.00000000D+00 0.00000000D+00 0.00000000D+00 0.00000000D+00 0.00000000D+00
  <mgrwgt>
 0.7667510643D-04    9    2    0
 0.858674152190377D+03 0.000000000000000D+00 0.000000000000000D+00 0.858674152190377D+03
 0.858674152190377D+03 0.000000000000000D+00 0.000000000000000D+00 -.858674152190377D+03
 0.832955054969731D+03 -.375011511787595D+03 -.501435122769975D+03 -.534900277882775D+03
 0.325350380596753D+02 -.229247725571012D+02 -.512409091565445D+01 -.225106018808435D+02
 0.851858211351348D+03 0.397936284344697D+03 0.506559213685630D+03 0.557410879763619D+03
 0.000000000000000D+00 -.000000000000000D+00 -.000000000000000D+00 -.000000000000000D+00
 0.860007743697106D+03 0.000000000000000D+00 0.000000000000000D+00 0.860007743697106D+03
 0.888427027935848D+03 0.000000000000000D+00 0.000000000000000D+00 -.888427027935848D+03
 0.830074587835221D+03 -.368973512126812D+03 -.501137766925970D+03 -.534900277882775D+03
 0.323675962886747D+02 -.226891290820286D+02 -.511248608485766D+01 -.225106018808435D+02
 0.854951507345972D+03 0.404133237325724D+03 0.506864397568945D+03 0.557410879763619D+03
 0.310410801630857D+02 -.124705961168835D+02 -.614144558116528D+00 -.284192842387421D+02
0.152148813417D-04 0.000000000000D+00 0.000000000000D+00 0.192673076474D-06 0.000000000000D+00  6 -1 1 25 2 -2 21 0 0.35056345D-01 0.49780979D+00 0.42652099D+06 0.42652099D+06 0.42652099D+06 0.10734235D+01  1  2  2  2  6  2        1 0.555506289964D-05 0.100000000000D+01
0.565294422023D-05 0.000000000000D+00 -.584291505222D-07 0.192673076474D-06 0.000000000000D+00  6 -1 1 25 2 -2 21 2 0.35056345D-01 0.49780979D+00 0.42652099D+06 0.42652099D+06 0.42652099D+06 0.10734235D+01  1  2  3  2  6  2        1 0.237813940870D-05 0.100000000000D+01
-.109158386042D-04 0.000000000000D+00 0.000000000000D+00 0.192673076474D-06 0.000000000000D+00  6 -1 1 25 2 -2 21 2 0.35056345D-01 0.49780979D+00 0.42652099D+06 0.42652099D+06 0.42652099D+06 0.10734235D+01  1  2 15  2  6  2        1 -.459218859277D-05 0.100000000000D+01
0.689988084016D-07 0.000000000000D+00 0.000000000000D+00 0.192673076474D-06 0.000000000000D+00  6 -1 1 25 2 -2 21 2 0.35056345D-01 0.51543804D+00 0.43477380D+06 0.43477380D+06 0.43477380D+06 0.10728274D+01  1  2 12  2  6  2        1 0.235086260362D-07 0.100000000000D+01
-.358236288710D-05 0.000000000000D+00 0.000000000000D+00 0.192673076474D-06 0.000000000000D+00  6 -1 1 25 2 -2 21 2 0.35056345D-01 0.49780979D+00 0.42652099D+06 0.42652099D+06 0.42652099D+06 0.10734235D+01  1  2  4  2  6  2        1 -.150706570349D-05 0.100000000000D+01
-.951462683961D-03 0.000000000000D+00 -.566926418908D-04 0.192673076474D-06 0.000000000000D+00  6 -1 1 25 2 -2 21 2 0.35056345D-01 0.51525273D+00 0.42652099D+06 0.42652099D+06 0.42652099D+06 0.10734235D+01  1  2  5  2  6  2        1 -.325741939400D-03 0.100000000000D+01
0.952883599875D-03 0.000000000000D+00 0.566590376048D-04 0.192673076474D-06 0.000000000000D+00  6 -1 1 25 2 -2 21 2 0.35056345D-01 0.49780979D+00 0.42652099D+06 0.42652099D+06 0.42652099D+06 0.10734235D+01  1  2  6  2  6  2        1 0.400868990119D-03 0.100000000000D+01
0.190395090303D-08 0.000000000000D+00 0.000000000000D+00 0.192673076474D-06 0.000000000000D+00  6 -1 21 25 2 -2 -1 2 0.35056345D-01 0.51543804D+00 0.43477380D+06 0.43477380D+06 0.43477380D+06 0.10728274D+01  1  2 12  6  6  2        1 0.995084227211D-10 0.100000000000D+01
-.588057345828D-05 0.000000000000D+00 -.347893076157D-06 0.192673076474D-06 0.000000000000D+00  6 -1 21 25 2 -2 -1 2 0.35056345D-01 0.51525273D+00 0.42652099D+06 0.42652099D+06 0.42652099D+06 0.10734235D+01  1  2  5  6  6  2        1 -.309500433205D-06 0.100000000000D+01
  </mgrwgt>
  </event>
  <event>
  5     66 0.18829897E-05 0.23128007E+03 0.75467711E-02 0.92748349E-01
       -1 -1    0    0    0  501 0.00000000E+00 0.00000000E+00 0.20634177E+04 0.20634178E+04 0.32000000E+00 0.0000E+00 0.9000E+01
        1 -1    0    0  502    0 0.00000000E+00 0.00000000E+00 -.16980124E+04 0.16980125E+04 0.32000000E+00 0.0000E+00 0.9000E+01
       25  1    1    2    0    0 0.43208580E+03 -.31155265E+03 0.29502491E+03 0.62163325E+03 0.12500000E+03 0.0000E+00 0.9000E+01
        2  1    1    2  502    0 -.39699565E+03 0.82939475E+02 -.14992910E+04 0.15531768E+04 0.32000000E+00 0.0000E+00 0.9000E+01
       -2  1    1    2    0  501 -.35090156E+02 0.22861318E+03 0.15696714E+04 0.15866202E+04 0.32000000E+00 0.0000E+00 0.9000E+01
#aMCatNLO 1  0  0  5  1 0.18839690D+02 0.00000000D+00  -5  6  0 0.00000000D+00 0.00000000D+00 0.00000000D+00 0.00000000D+00 0.00000000D+00
  <mgrwgt>
 0.7232748640D-03    1    2    0
 0.187181972580664D+04 0.000000000000000D+00 0.000000000000000D+00 0.187181972580664D+04
 0.187181972580664D+04 -.000000000000000D+00 -.000000000000000D+00 -.187181972580664D+04
 0.595839720600347D+03 0.432114771587456D+03 -.311550196346383D+03 0.235824663632858D+03
 0.170691550880891D+04 -.397026201840623D+03 0.829473496773308D+02 -.165802608135273D+04
 0.144088422220402D+04 -.350885697468333D+02 0.228602846669051D+03 0.142220141771987D+04
 0.000000000000000D+00 0.000000000000000D+00 -.000000000000000D+00 0.000000000000000D+00
 0.187181972580664D+04 0.000000000000000D+00 0.000000000000000D+00 0.187181972580664D+04
 0.187181972580664D+04 -.000000000000000D+00 -.000000000000000D+00 -.187181972580664D+04
 0.612658640356716D+03 0.430867512822010D+03 -.303424276527728D+03 0.286378254083546D+03
 0.157603100198240D+04 -.400414442937478D+03 0.105021819099445D+03 -.152069471315243D+04
 0.196822984476228D+03 0.829100095386695D+02 0.134336706194611D+03 -.117553676697966D+03
 0.135812682479794D+04 -.113363079423201D+03 0.640657512336719D+02 0.135187013576685D+04
0.741184422761D-01 0.000000000000D+00 0.000000000000D+00 0.809058627633D-04 0.000000000000D+00  6 -1 1 25 2 -2 21 2 0.31744889D+00 0.26123269D+00 0.35050173D+06 0.35050173D+06 0.35050173D+06 0.10795879D+01  1  2 14  4  6  5       -2 0.723274864012D-03 0.100000000000D+01
  </mgrwgt>
  </event>
  <event>
  5     66 -.18829897E-05 0.28970282E+02 0.75467711E-02 0.93280160E-01
       -1 -1    0    0    0  501 0.00000000E+00 0.00000000E+00 0.43766009E+03 0.43766021E+03 0.32000000E+00 0.0000E+00 0.9000E+01
        1 -1    0    0  502    0 0.00000000E+00 0.00000000E+00 -.11013975E+04 0.11013976E+04 0.32000000E+00 0.0000E+00 0.9000E+01
       25  1    1    2    0    0 0.50602327E+03 -.16281185E+03 -.43995152E+03 0.70124859E+03 0.12500000E+03 0.0000E+00 0.9000E+01
        2  1    1    2  502    0 -.49765131E+03 0.13505940E+03 -.40413118E+03 0.65514882E+03 0.32000000E+00 0.0000E+00 0.9000E+01
       -2  1    1    2    0  501 -.83719622E+01 0.27752450E+02 0.18034526E+03 0.18266035E+03 0.32000000E+00 0.0000E+00 0.9000E+01
#aMCatNLO 1  0  0  2  1 0.10876995D+03 0.00000000D+00  -5  6  0 0.00000000D+00 0.00000000D+00 0.00000000D+00 0.00000000D+00 0.00000000D+00
  <mgrwgt>
 -.5735334084D-02    7    2    0
 0.694289464966325D+03 0.000000000000000D+00 0.000000000000000D+00 0.694289464966325D+03
 0.694289464966325D+03 0.000000000000000D+00 0.000000000000000D+00 -.694289464966325D+03
 0.567023564748668D+03 0.506131261086790D+03 -.162836016837418D+03 -.152336145256162D+03
 0.533069575622994D+03 -.497764336826449D+03 0.135100266952641D+03 -.134691333455160D+03
 0.288485789560989D+03 -.836692426034037D+01 0.277357498847769D+02 0.287027478711322D+03
 0.000000000000000D+00 -.000000000000000D+00 -.000000000000000D+00 -.000000000000000D+00
 0.696907985815249D+03 0.000000000000000D+00 0.000000000000000D+00 0.696907985815249D+03
 0.807957646976289D+03 0.000000000000000D+00 0.000000000000000D+00 -.807957646976289D+03
 0.572897383931635D+03 0.515680246475892D+03 -.153146971105430D+03 -.152336145256162D+03
 0.527177783446339D+03 -.488882767843698D+03 0.144112106906224D+03 -.134691333455160D+03
 0.288899336083591D+03 -.353023612416012D+01 0.326433804479462D+02 0.287027478711322D+03
 0.115891129329973D+03 -.232672425080347D+02 -.236085162487406D+02 -.111049661161040D+03
0.526033157642D-04 0.000000000000D+00 0.000000000000D+00 0.411028017660D-05 0.000000000000D+00  6 -1 1 25 2 -2 21 0 0.67332334D-01 0.16944578D+00 0.29752662D+06 0.29752662D+06 0.29752662D+06 0.10848180D+01  1  2  2  2  6  2        1 0.184937981679D-03 0.100000000000D+01
0.255525990060D-04 0.000000000000D+00 -.202010583306D-06 0.411028017660D-05 0.000000000000D+00  6 -1 1 25 2 -2 21 2 0.67332334D-01 0.16944578D+00 0.29752662D+06 0.29752662D+06 0.29752662D+06 0.10848180D+01  1  2  3  2  6  2        1 0.105721134666D-03 0.100000000000D+01
-.347294101095D-04 0.000000000000D+00 0.000000000000D+00 0.411028017660D-05 0.000000000000D+00  6 -1 1 25 2 -2 21 2 0.67332334D-01 0.16944578D+00 0.29752662D+06 0.29752662D+06 0.29752662D+06 0.10848180D+01  1  2 15  2  6  2        1 -.143689205243D-03 0.100000000000D+01
-.185451226648D-02 0.000000000000D+00 0.000000000000D+00 0.411028017660D-05 0.000000000000D+00  6 -1 1 25 2 -2 21 2 0.67332334D-01 0.16944578D+00 0.29752662D+06 0.29752662D+06 0.29752662D+06 0.10848180D+01  1  2  4  2  6  2        1 -.767284537350D-02 0.100000000000D+01
-.182004294921D-02 0.000000000000D+00 -.781795322885D-04 0.411028017660D-05 0.000000000000D+00  6 -1 1 25 2 -2 21 2 0.67332334D-01 0.19747420D+00 0.29752662D+06 0.29752662D+06 0.29752662D+06 0.10848180D+01  1  2  5  2  6  2        1 -.558236637808D-02 0.100000000000D+01
0.181165065191D-02 0.000000000000D+00 0.772724419378D-04 0.411028017660D-05 0.000000000000D+00  6 -1 1 25 2 -2 21 2 0.67332334D-01 0.16944578D+00 0.29752662D+06 0.29752662D+06 0.29752662D+06 0.10848180D+01  1  2  6  2  6  2        1 0.749551004552D-02 0.100000000000D+01
-.416405574498D-04 0.000000000000D+00 -.181283236536D-05 0.411028017660D-05 0.000000000000D+00  6 -1 21 25 2 -2 -1 2 0.67332334D-01 0.19747420D+00 0.29752662D+06 0.29752662D+06 0.29752662D+06 0.10848180D+01  1  2  5  6  6  2        1 -.122602289052D-03 0.100000000000D+01
  </mgrwgt>
  </event>
  <event>
  5     66 0.18829897E-05 0.45945668E+02 0.75467711E-02 0.90837226E-01
       -1 -1    0    0    0  501 0.00000000E+00 0.00000000E+00 0.36381450E+03 0.36381464E+03 0.32000000E+00 0.0000E+00 0.9000E+01
        1 -1    0    0  502    0 0.00000000E+00 0.00000000E+00 -.32060143E+04 0.32060144E+04 0.32000000E+00 0.0000E+00 0.9000E+01
       25  1    1    2    0    0 -.58160277E+03 0.20742583E+02 -.52249430E+03 0.79203367E+03 0.12500000E+03 0.0000E+00 0.9000E+01
        2  1    1    2  502    0 0.42105336E+02 0.18373604E+02 -.22288271E+04 0.22293005E+04 0.32000000E+00 0.0000E+00 0.9000E+01
       -2  1    1    2    0  501 0.53949744E+03 -.39116187E+02 -.90878446E+02 0.54849481E+03 0.32000000E+00 0.0000E+00 0.9000E+01
#aMCatNLO 1  0  0  2  4 0.18761075D+03 0.00000000D+00  -5  6  0 0.00000000D+00 0.00000000D+00 0.00000000D+00 0.00000000D+00 0.00000000D+00
  <mgrwgt>
 0.6628190122D-02    7    2    0
 0.107999758125544D+04 0.000000000000000D+00 0.000000000000000D+00 0.107999758125544D+04
 0.107999758125544D+04 0.000000000000000D+00 0.000000000000000D+00 -.107999758125544D+04
 0.621474678258378D+03 -.581558676342698D+03 0.207366674405080D+02 0.178788345007010D+03
 0.751675534344046D+03 0.421109264293793D+02 0.183759169884005D+02 -.750270021046757D+03
 0.786844949908462D+03 0.539447749913319D+03 -.391125844289086D+02 0.571481676039747D+03
 0.000000000000000D+00 -.000000000000000D+00 -.000000000000000D+00 -.000000000000000D+00
 0.115035296240778D+04 0.000000000000000D+00 0.000000000000000D+00 0.115035296240778D+04
 0.118133147041696D+04 0.000000000000000D+00 0.000000000000000D+00 -.118133147041696D+04
 0.582262689044240D+03 -.538698094293224D+03 0.352693910853669D+02 0.178788345007010D+03
 0.757251026873547D+03 0.958381533481713D+02 0.365931903822651D+02 -.750270021046757D+03
 0.826596668957876D+03 0.596896366834149D+03 -.196335005348521D+02 0.571481676039747D+03
 0.165574047949081D+03 -.154036425889096D+03 -.522290809327799D+02 -.309785080091800D+02
0.107632931450D-01 0.000000000000D+00 0.000000000000D+00 0.594917077878D-04 0.000000000000D+00  6 -1 1 25 2 -2 21 0 0.55971473D-01 0.49323299D+00 0.34928783D+06 0.34928783D+06 0.34928783D+06 0.10796979D+01  1  2  2  2  6  2        1 0.182135587381D-02 0.100000000000D+01
0.552945652722D-02 0.000000000000D+00 -.413338797171D-04 0.594917077878D-04 0.000000000000D+00  6 -1 1 25 2 -2 21 2 0.55971473D-01 0.49323299D+00 0.34928783D+06 0.34928783D+06 0.34928783D+06 0.10796979D+01  1  2  3  2  6  2        1 0.109077852960D-02 0.100000000000D+01
-.680691484307D-02 0.000000000000D+00 0.000000000000D+00 0.594917077878D-04 0.000000000000D+00  6 -1 1 25 2 -2 21 2 0.55971473D-01 0.49323299D+00 0.34928783D+06 0.34928783D+06 0.34928783D+06 0.10796979D+01  1  2 15  2  6  2        1 -.134277872104D-02 0.100000000000D+01
-.498977164912D-03 0.000000000000D+00 0.000000000000D+00 0.594917077878D-04 0.000000000000D+00  6 -1 1 25 2 -2 21 2 0.55971473D-01 0.49323299D+00 0.34928783D+06 0.34928783D+06 0.34928783D+06 0.10796979D+01  1  2  4  2  6  2        1 -.984316588018D-04 0.100000000000D+01
-.510130937435D-01 0.000000000000D+00 -.135336108530D-01 0.594917077878D-04 0.000000000000D+00  6 -1 1 25 2 -2 21 2 0.55971473D-01 0.54910910D+00 0.34928783D+06 0.34928783D+06 0.34928783D+06 0.10796979D+01  1  2  5  2  6  2        1 -.513813652655D-02 0.100000000000D+01
0.522419045292D-01 0.000000000000D+00 0.134560523809D-01 0.594917077878D-04 0.000000000000D+00  6 -1 1 25 2 -2 21 2 0.55971473D-01 0.49323299D+00 0.34928783D+06 0.34928783D+06 0.34928783D+06 0.10796979D+01  1  2  6  2  6  2        1 0.103055964949D-01 0.100000000000D+01
-.829500947144D-03 0.000000000000D+00 -.233570524317D-03 0.594917077878D-04 0.000000000000D+00  6 -1 21 25 2 -2 -1 2 0.55971473D-01 0.54910910D+00 0.34928783D+06 0.34928783D+06 0.34928783D+06 0.10796979D+01  1  2  5  6  6  2        1 -.101938700875D-04 0.100000000000D+01
  </mgrwgt>
  </event>
  <event>
  6     66 -.18829897E-05 0.14681229E+02 0.75467711E-02 0.91284379E-01
       -1 -1    0    0    0  501 0.00000000E+00 0.00000000E+00 0.27569743E+03 0.27569761E+03 0.32000000E+00 0.0000E+00 0.9000E+01
        1 -1    0    0  503    0 0.00000000E+00 0.00000000E+00 -.20178521E+04 0.20178521E+04 0.32000000E+00 0.0000E+00 0.9000E+01
       25  1    1    2    0    0 -.32883342E+03 -.52706941E+03 -.97718942E+03 0.11646707E+04 0.12500000E+03 0.0000E+00 0.9000E+01
        2  1    1    2  502    0 0.33458661E+03 0.57741795E+03 -.76811009E+03 0.10175229E+04 0.32000000E+00 0.0000E+00 0.9000E+01
       -2  1    1    2    0  501 -.14894081E+02 -.23349112E+02 0.49622371E+02 0.56828661E+02 0.32000000E+00 0.0000E+00 0.9000E+01
       21  1    1    2  503  502 0.91408872E+01 -.26999429E+02 -.46477560E+02 0.54527525E+02 0.75000000E+00 0.0000E+00 0.9000E+01
#aMCatNLO 2  0  0  2  4 0.28504824D+02 0.00000000D+00  -5  6  0 0.00000000D+00 0.00000000D+00 0.00000000D+00 0.00000000D+00 0.00000000D+00
  <mgrwgt>
 -.2044111305D-02    4    2    0
 0.730938969657199D+03 0.000000000000000D+00 0.000000000000000D+00 0.730938969657199D+03
 0.730938969657199D+03 0.000000000000000D+00 0.000000000000000D+00 -.730938969657199D+03
 0.658162368666779D+03 -.324826331185921D+03 -.539288857312679D+03 -.145629964209787D+03
 0.659030523450522D+03 0.338791214245225D+03 0.565266204000706D+03 0.398278851391910D+01
 0.144685047197097D+03 -.139648830593042D+02 -.259773466880268D+02 0.141647175695868D+03
 0.000000000000000D+00 0.000000000000000D+00 -.000000000000000D+00 -.000000000000000D+00
 0.741904509239298D+03 0.000000000000000D+00 0.000000000000000D+00 0.741904509239298D+03
 0.749840145885089D+03 0.000000000000000D+00 0.000000000000000D+00 -.749840145885089D+03
 0.650358432945425D+03 -.328916927267012D+03 -.527206467889680D+03 -.145629964209787D+03
 0.667477290669725D+03 0.334644388562904D+03 0.577514678738826D+03 0.398278851391910D+01
 0.144320093813793D+03 -.148683484805476D+02 -.233087818057260D+02 0.141647175695868D+03
 0.295888376954437D+02 0.914088718465558D+01 -.269994290434202D+02 -.793563664579156D+01
-.167959167036D-06 0.000000000000D+00 0.000000000000D+00 0.441130230139D-06 0.000000000000D+00  6 -1 1 25 2 -2 21 2 0.41787834D-01 0.31266012D+00 0.46067526D+06 0.46067526D+06 0.46067526D+06 0.10710338D+01  1  2 13  2  6  2        1 -.371858626799D-06 0.100000000000D+01
-.102801582112D-02 0.000000000000D+00 0.000000000000D+00 0.441130230139D-06 0.000000000000D+00  6 -1 1 25 2 -2 21 2 0.41787834D-01 0.31536687D+00 0.46067526D+06 0.46067526D+06 0.46067526D+06 0.10710338D+01  1  2 13  2  6  2        1 -.221497301545D-02 0.100000000000D+01
-.202376738077D-03 0.000000000000D+00 0.000000000000D+00 0.441130230139D-06 0.000000000000D+00  6 -1 1 25 2 -2 21 2 0.41787834D-01 0.30261166D+00 0.44246453D+06 0.44246453D+06 0.44246453D+06 0.10722830D+01  1  2  8  2  6  2        1 -.497771362387D-03 0.100000000000D+01
0.303430854913D-03 0.000000000000D+00 0.000000000000D+00 0.441130230139D-06 0.138566902686D-08  6 -1 1 25 2 -2 21 2 0.42414735D-01 0.31043682D+00 0.46067526D+06 0.46067526D+06 0.46067526D+06 0.10710338D+01  1  2  1  2  6  2        1 0.669004931721D-03 0.100000000000D+01
  </mgrwgt>
  </event>
  <event>
  5     66 -.18829897E-05 0.18331001E+03 0.75467711E-02 0.95039507E-01
       -1 -1    0    0    0  501 0.00000000E+00 0.00000000E+00 0.29454747E+03 0.29454764E+03 0.32000000E+00 0.0000E+00 0.9000E+01
        1 -1    0    0  502    0 0.00000000E+00 0.00000000E+00 -.20901709E+04 0.20901710E+04 0.32000000E+00 0.0000E+00 0.9000E+01
       25  1    1    2    0    0 -.23932778E+03 -.38710483E+03 -.60609044E+03 0.76817873E+03 0.12500000E+03 0.0000E+00 0.9000E+01
        2  1    1    2  502    0 0.11320582E+03 0.19916133E+03 -.13303768E+04 0.13499568E+04 0.32000000E+00 0.0000E+00 0.9000E+01
       -2  1    1    2    0  501 0.12612196E+03 0.18794350E+03 0.14084373E+03 0.26658313E+03 0.32000000E+00 0.0000E+00 0.9000E+01
#aMCatNLO 1  0  0  1  5 0.52544704D+02 0.00000000D+00  -5  6  0 0.00000000D+00 0.00000000D+00 0.00000000D+00 0.00000000D+00 0.00000000D+00
  <mgrwgt>
 -.1907241511D-02   11    4    0
 0.784636728997222D+03 0.000000000000000D+00 0.000000000000000D+00 0.784636728997222D+03
 0.784636728997222D+03 0.000000000000000D+00 0.000000000000000D+00 -.784636728997222D+03
 0.473843734540067D+03 -.239334990763286D+03 -.387120621765191D+03 -.419436665463014D+02
 0.529231642151245D+03 0.113228404626887D+03 0.199200025201125D+03 -.477058496832018D+03
 0.566198081303131D+03 0.126106586136399D+03 0.187920596564066D+03 0.519002163378320D+03
 0.000000000000000D+00 0.000000000000000D+00 0.000000000000000D+00 0.000000000000000D+00
 0.130621135031459D+04 0.000000000000000D+00 0.000000000000000D+00 0.130621135031459D+04
 0.786400937571849D+03 0.000000000000000D+00 0.000000000000000D+00 -.786400937571849D+03
 0.485988240612779D+03 -.254479409726158D+03 -.392479972579473D+03 -.419436665463014D+02
 0.523729005848170D+03 0.966145830231836D+02 0.193320677927490D+03 -.477058496832018D+03
 0.560435654347208D+03 0.108330335967532D+03 0.181629885705434D+03 0.519002163378320D+03
 0.522459387078281D+03 0.495344907354417D+02 0.175294089465485D+02 0.519810412742740D+03
 0.784636728997222D+03 0.000000000000000D+00 0.000000000000000D+00 0.784636728997222D+03
 0.784636728997222D+03 0.000000000000000D+00 0.000000000000000D+00 -.784636728997222D+03
 0.473843734540067D+03 -.239334990763286D+03 -.387120621765191D+03 -.419436665463014D+02
 0.529231642151245D+03 0.113228404626887D+03 0.199200025201125D+03 -.477058496832018D+03
 0.000000000000000D+00 0.000000000000000D+00 0.000000000000000D+00 0.000000000000000D+00
 0.566198081303131D+03 0.126106586136399D+03 0.187920596564066D+03 0.519002163378320D+03
 0.130621135031459D+04 0.000000000000000D+00 0.000000000000000D+00 0.130621135031459D+04
 0.786400937571849D+03 0.000000000000000D+00 0.000000000000000D+00 -.786400937571849D+03
 0.485988240612779D+03 -.254479409726158D+03 -.392479972579473D+03 -.419436665463014D+02
 0.523729005848170D+03 0.966145830231836D+02 0.193320677927490D+03 -.477058496832018D+03
 0.522459387078281D+03 0.495344907354417D+02 0.175294089465485D+02 0.519810412742740D+03
 0.560435654347208D+03 0.108330335967532D+03 0.181629885705434D+03 0.519002163378320D+03
0.217073419297D-04 0.000000000000D+00 0.000000000000D+00 0.666842675132D-05 0.000000000000D+00  6 -1 1 25 2 -2 21 0 0.45315010D-01 0.32156478D+00 0.21503028D+06 0.21503028D+06 0.21503028D+06 0.10954166D+01  1  2  2  1  6  1       -1 0.346497193507D-04 0.100000000000D+01
0.193788673224D-05 0.000000000000D+00 -.833619086844D-07 0.666842675132D-05 0.000000000000D+00  6 -1 1 25 2 -2 21 2 0.45315010D-01 0.32156478D+00 0.21503028D+06 0.21503028D+06 0.21503028D+06 0.10954166D+01  1  2  3  1  6  1       -1 0.371176169763D-05 0.100000000000D+01
-.147941852329D-04 0.000000000000D+00 0.000000000000D+00 0.666842675132D-05 0.000000000000D+00  6 -1 1 25 2 -2 21 2 0.45315010D-01 0.32156478D+00 0.21503028D+06 0.21503028D+06 0.21503028D+06 0.10954166D+01  1  2 15  1  6  1       -1 -.283362743453D-04 0.100000000000D+01
0.420365894686D-08 0.000000000000D+00 0.000000000000D+00 0.666842675132D-05 0.000000000000D+00  6 -1 1 25 2 -2 21 2 0.75458797D-01 0.32156478D+00 0.23247864D+06 0.23247864D+06 0.23247864D+06 0.10928411D+01  1  2 12  1  6  1       -1 0.305798353794D-08 0.100000000000D+01
0.181182676109D-02 0.000000000000D+00 0.000000000000D+00 0.666842675132D-05 0.000000000000D+00  6 -1 1 25 2 -2 21 2 0.77455902D-01 0.32156478D+00 0.23247864D+06 0.23247864D+06 0.23247864D+06 0.10928411D+01  1  2 12  1  6  1       -1 0.125058866156D-02 0.100000000000D+01
-.260359305541D-02 0.000000000000D+00 0.000000000000D+00 0.666842675132D-05 0.000000000000D+00  6 -1 1 25 2 -2 21 2 0.45315010D-01 0.32156478D+00 0.21503028D+06 0.21503028D+06 0.21503028D+06 0.10954166D+01  1  2  4  1  6  1       -1 -.498683272789D-02 0.100000000000D+01
-.194650289910D-02 0.000000000000D+00 -.164398010275D-04 0.666842675132D-05 0.000000000000D+00  6 -1 1 25 2 -2 21 2 0.75498516D-01 0.32156478D+00 0.21503028D+06 0.21503028D+06 0.21503028D+06 0.10954166D+01  1  2  5  1  6  1       -1 -.142895928218D-02 0.100000000000D+01
0.172689689888D-02 0.000000000000D+00 0.145081020270D-04 0.666842675132D-05 0.000000000000D+00  6 -1 1 25 2 -2 21 2 0.45315010D-01 0.32156478D+00 0.21503028D+06 0.21503028D+06 0.21503028D+06 0.10954166D+01  1  2  6  1  6  1       -1 0.330763901645D-02 0.100000000000D+01
0.240760715914D-09 0.000000000000D+00 0.000000000000D+00 0.666842675132D-05 0.000000000000D+00  6 21 1 25 2 1 -2 2 0.75458797D-01 0.32156478D+00 0.23247864D+06 0.23247864D+06 0.23247864D+06 0.10928411D+01  3  4 12  5  5  1       -1 0.136293486913D-08 0.100000000000D+01
0.108060080160D-03 0.000000000000D+00 0.000000000000D+00 0.666842675132D-05 0.000000000000D+00  6 21 1 25 2 1 -2 2 0.77455902D-01 0.32156478D+00 0.23247864D+06 0.23247864D+06 0.23247864D+06 0.10928411D+01  3  4 12  5  5  1       -1 0.574673219734D-03 0.100000000000D+01
-.110817400735D-03 0.000000000000D+00 -.942352169684D-06 0.666842675132D-05 0.000000000000D+00  6 21 1 25 2 1 -2 2 0.75498516D-01 0.32156478D+00 0.21503028D+06 0.21503028D+06 0.21503028D+06 0.10954166D+01  3  4  5  5  5  1       -1 -.634380025817D-03 0.100000000000D+01
  </mgrwgt>
  </event>
  <event>
  6     66 -.18829897E-05 0.17181869E+03 0.75467711E-02 0.93509187E-01
       -1 -1    0    0    0  501 0.00000000E+00 0.00000000E+00 0.80962233E+03 0.80962240E+03 0.32000000E+00 0.0000E+00 0.9000E+01
        1 -1    0    0  502    0 -.00000000E+00 -.00000000E+00 -.27043872E+04 0.27043872E+04 0.32000000E+00 0.0000E+00 0.9000E+01
       25  1    1    2    0    0 0.36011191E+03 0.40630650E+03 0.47109439E+03 0.72960296E+03 0.12500000E+03 0.0000E+00 0.9000E+01
        2  1    1    2  503    0 -.11188229E+03 -.89543371E+02 -.12437653E+04 0.12519935E+04 0.32000000E+00 0.0000E+00 0.9000E+01
       -2  1    1    2    0  501 -.10552469E+03 -.16771016E+03 0.14695640E+03 0.24669505E+03 0.32000000E+00 0.0000E+00 0.9000E+01
       21  1    1    2  502  503 -.14270494E+03 -.14905296E+03 -.12690504E+04 0.12857181E+04 0.75000000E+00 0.0000E+00 0.9000E+01
#aMCatNLO 2  0  0  4  2 0.31589035D+02 0.00000000D+00  -5  6  0 0.00000000D+00 0.00000000D+00 0.00000000D+00 0.00000000D+00 0.00000000D+00
  <mgrwgt>
 -.1133707203D-03    3    2    0
 0.147970686275607D+04 0.000000000000000D+00 0.000000000000000D+00 0.147970686275607D+04
 0.147970686275607D+04 -.000000000000000D+00 -.000000000000000D+00 -.147970686275607D+04
 0.116866489532702D+04 0.360180497950144D+03 0.406331866528124D+03 0.102728626035291D+04
 0.140382649076764D+04 -.254750659582226D+03 -.238750435510984D+03 -.135971656868876D+04
 0.386922339417489D+03 -.105429838367919D+03 -.167581431017141D+03 0.332430308335845D+03
 0.000000000000000D+00 0.000000000000000D+00 -.000000000000000D+00 0.000000000000000D+00
 0.147970686275607D+04 0.000000000000000D+00 0.000000000000000D+00 0.147970686275607D+04
 0.147970686275607D+04 -.000000000000000D+00 -.000000000000000D+00 -.147970686275607D+04
 0.116812214828033D+04 0.360078587192746D+03 0.406236356519428D+03 0.102674231771665D+04
 0.690125382871749D+03 -.111861660945824D+03 -.895259795740858D+02 -.675088965896807D+03
 0.386790516820732D+03 -.105463581135966D+03 -.167613054489990D+03 0.332250208308381D+03
 0.714375677539334D+03 -.142753345110956D+03 -.149097322455352D+03 -.683903560128224D+03
-.261700165208D-08 0.000000000000D+00 0.000000000000D+00 0.413967798239D-05 0.000000000000D+00  6 -1 1 25 2 -2 21 2 0.12455729D+00 0.41605957D+00 0.30513499D+06 0.30513499D+06 0.30513499D+06 0.10840070D+01  1  2 13  3  6  4        2 -.227549017422D-09 0.100000000000D+01
-.510164932186D-02 0.000000000000D+00 0.000000000000D+00 0.413967798239D-05 0.000000000000D+00  6 -1 1 25 2 -2 21 2 0.12455729D+00 0.41605957D+00 0.30513499D+06 0.30513499D+06 0.30513499D+06 0.10840070D+01  1  2 13  3  6  4        2 -.443589819478D-03 0.100000000000D+01
0.379779501279D-02 0.000000000000D+00 0.000000000000D+00 0.413967798239D-05 0.578197961256D-08  6 -1 1 25 2 -2 21 2 0.12455729D+00 0.41605957D+00 0.30513499D+06 0.30513499D+06 0.30513499D+06 0.10840070D+01  1  2  1  3  6  4        2 0.330219326702D-03 0.100000000000D+01
  </mgrwgt>
  </event>
  <event>
  5     66 0.18829897E-05 0.22948276E+02 0.75467711E-02 0.94204316E-01
       -1 -1    0    0    0  501 0.00000000E+00 0.00000000E+00 0.84202682E+03 0.84202688E+03 0.32000000E+00 0.0000E+00 0.9000E+01
        1 -1    0    0  502    0 -.00000000E+00 -.00000000E+00 -.11090327E+04 0.11090327E+04 0.32000000E+00 0.0000E+00 0.9000E+01
       25  1    1    2    0    0 -.77129191E+02 0.45413428E+03 0.18737516E+03 0.51275852E+03 0.12500000E+03 0.0000E+00 0.9000E+01
        2  1    1    2  502    0 0.97616136E+02 -.46448871E+03 -.88650409E+03 0.10055686E+04 0.32000000E+00 0.0000E+00 0.9000E+01
       -2  1    1    2    0  501 -.20486945E+02 0.10354436E+02 0.43212306E+03 0.43273245E+03 0.32000000E+00 0.0000E+00 0.9000E+01
#aMCatNLO 1  0  0  5  4 0.15362947D+03 0.00000000D+00  -5  6  0 0.00000000D+00 0.00000000D+00 0.00000000D+00 0.00000000D+00 0.00000000D+00
  <mgrwgt>
 0.1465759576D-01    4    2    0
 0.966351575605316D+03 0.000000000000000D+00 0.000000000000000D+00 0.966351575605316D+03
 0.966351575605316D+03 -.000000000000000D+00 -.000000000000000D+00 -.966351575605316D+03
 0.543638624948639D+03 -.771490638362841D+02 0.454209169362324D+03 0.260115372387754D+03
 0.892667863228845D+03 0.976300613013969D+02 -.464560599686373D+03 -.755981305582932D+03
 0.496396663033148D+03 -.204809974651125D+02 0.103514303240494D+02 0.495865933195178D+03
 0.000000000000000D+00 0.000000000000000D+00 0.000000000000000D+00 -.000000000000000D+00
 0.966351575605316D+03 0.000000000000000D+00 0.000000000000000D+00 0.966351575605316D+03
 0.966351575605316D+03 -.000000000000000D+00 -.000000000000000D+00 -.966351575605316D+03
 0.617615306990547D+03 -.824180847126791D+02 0.456872218492176D+03 0.387683766375842D+03
 0.743341528748347D+03 0.902069065518484D+02 -.460808816146266D+03 -.576259123428126D+03
 0.192116521529105D+03 0.385621640489002D+02 -.894203297454528D+01 -.187994035529298D+03
 0.379629793942634D+03 -.463509858880692D+02 0.128786306286356D+02 0.376569392581582D+03
0.184773831332D-01 0.000000000000D+00 0.000000000000D+00 0.186550849144D-03 0.000000000000D+00  6 -1 1 25 2 -2 21 0 0.12954260D+00 0.17062042D+00 0.23766974D+06 0.23766974D+06 0.23766974D+06 0.10921155D+01  1  2  2  4  6  5       -2 0.153863007669D-01 0.100000000000D+01
0.113564063571D-01 0.000000000000D+00 -.709580164383D-04 0.186550849144D-03 0.000000000000D+00  6 -1 1 25 2 -2 21 2 0.12954260D+00 0.17062042D+00 0.23766974D+06 0.23766974D+06 0.23766974D+06 0.10921155D+01  1  2  3  4  6  5       -2 0.112790311012D-01 0.100000000000D+01
-.119212036539D-01 0.000000000000D+00 0.000000000000D+00 0.186550849144D-03 0.000000000000D+00  6 -1 1 25 2 -2 21 2 0.12954260D+00 0.17062042D+00 0.23766974D+06 0.23766974D+06 0.23766974D+06 0.10921155D+01  1  2 15  4  6  5       -2 -.118399802321D-01 0.100000000000D+01
-.168906694647D-03 0.000000000000D+00 0.000000000000D+00 0.186550849144D-03 0.000000000000D+00  6 -1 1 25 2 -2 21 2 0.12954260D+00 0.17062042D+00 0.23766974D+06 0.23766974D+06 0.23766974D+06 0.10921155D+01  1  2  4  4  6  5       -2 -.167755872960D-03 0.100000000000D+01
  </mgrwgt>
  </event>
  <event>
  5     66 0.18829897E-05 0.14450365E+02 0.75467711E-02 0.94717110E-01
       -1 -1    0    0    0  501 0.00000000E+00 0.00000000E+00 0.13621234E+04 0.13621234E+04 0.32000000E+00 0.0000E+00 0.9000E+01
        1 -1    0    0  502    0 0.00000000E+00 0.00000000E+00 -.77640009E+03 0.77640015E+03 0.32000000E+00 0.0000E+00 0.9000E+01
       25  1    1    2    0    0 0.14466480E+03 0.43947586E+03 0.60118461E+03 0.76883995E+03 0.12500000E+03 0.0000E+00 0.9000E+01
        2  1    1    2  502    0 -.15393331E+03 -.45056940E+03 -.61063868E+03 0.77433064E+03 0.32000000E+00 0.0000E+00 0.9000E+01
       -2  1    1    2    0  501 0.92685147E+01 0.11093541E+02 0.59517737E+03 0.59535299E+03 0.32000000E+00 0.0000E+00 0.9000E+01
#aMCatNLO 1  0  0  1  4 0.21901003D+02 0.00000000D+00  -5  6  0 0.00000000D+00 0.00000000D+00 0.00000000D+00 0.00000000D+00 0.00000000D+00
  <mgrwgt>
 0.3057173538D-01    7    4    0
 0.102837387593493D+04 0.000000000000000D+00 0.000000000000000D+00 0.102837387593493D+04
 0.102837387593493D+04 0.000000000000000D+00 0.000000000000000D+00 -.102837387593493D+04
 0.628356457807795D+03 0.144690854318789D+03 0.439546936300952D+03 0.406287934270395D+03
 0.979033716819588D+03 -.153955843080941D+03 -.450636257414906D+03 -.855413105203503D+03
 0.449357577242473D+03 0.926498876215173D+01 0.110893211139539D+02 0.449125170933109D+03
 0.000000000000000D+00 0.000000000000000D+00 0.000000000000000D+00 0.000000000000000D+00
 0.132786396831167D+04 0.000000000000000D+00 0.000000000000000D+00 0.132786396831167D+04
 0.102883264684777D+04 0.000000000000000D+00 0.000000000000000D+00 -.102883264684777D+04
 0.623512783223387D+03 0.143510829175025D+03 0.432987236785066D+03 0.406287934270395D+03
 0.984102202692644D+03 -.155806315693994D+03 -.460922940175988D+03 -.855413105203503D+03
 0.449249367592053D+03 0.841795238286288D+01 0.638068913562670D+01 0.449125170933109D+03
 0.299832261651356D+03 0.387753413610633D+01 0.215550142552962D+02 0.299031321463897D+03
 0.102837387593493D+04 0.000000000000000D+00 0.000000000000000D+00 0.102837387593493D+04
 0.102837387593493D+04 0.000000000000000D+00 0.000000000000000D+00 -.102837387593493D+04
 0.628356457807795D+03 0.144690854318789D+03 0.439546936300952D+03 0.406287934270395D+03
 0.979033716819588D+03 -.153955843080941D+03 -.450636257414906D+03 -.855413105203503D+03
 0.000000000000000D+00 0.000000000000000D+00 0.000000000000000D+00 0.000000000000000D+00
 0.449357577242473D+03 0.926498876215173D+01 0.110893211139539D+02 0.449125170933109D+03
 0.132786396831167D+04 0.000000000000000D+00 0.000000000000000D+00 0.132786396831167D+04
 0.102883264684777D+04 0.000000000000000D+00 0.000000000000000D+00 -.102883264684777D+04
 0.623512783223387D+03 0.143510829175025D+03 0.432987236785066D+03 0.406287934270395D+03
 0.984102202692644D+03 -.155806315693994D+03 -.460922940175988D+03 -.855413105203503D+03
 0.299832261651356D+03 0.387753413610633D+01 0.215550142552962D+02 0.299031321463897D+03
 0.449249367592053D+03 0.841795238286288D+01 0.638068913562670D+01 0.449125170933109D+03
0.472611018709D-03 0.000000000000D+00 0.000000000000D+00 0.266949323999D-03 0.000000000000D+00  6 -1 1 25 2 -2 21 0 0.20955745D+00 0.11944618D+00 0.23522244D+06 0.23522244D+06 0.23522244D+06 0.10924554D+01  1  2  2  1  6  1       -1 0.159240285509D-03 0.100000000000D+01
0.353743874541D-03 0.000000000000D+00 -.181495075318D-05 0.266949323999D-03 0.000000000000D+00  6 -1 1 25 2 -2 21 2 0.20955745D+00 0.11944618D+00 0.23522244D+06 0.23522244D+06 0.23522244D+06 0.10924554D+01  1  2  3  1  6  1       -1 0.142247763868D-03 0.100000000000D+01
-.359607046457D-03 0.000000000000D+00 0.000000000000D+00 0.266949323999D-03 0.000000000000D+00  6 -1 1 25 2 -2 21 2 0.20955745D+00 0.11944618D+00 0.23522244D+06 0.23522244D+06 0.23522244D+06 0.10924554D+01  1  2 15  1  6  1       -1 -.144605467150D-03 0.100000000000D+01
-.367678612893D-02 0.000000000000D+00 0.000000000000D+00 0.266949323999D-03 0.000000000000D+00  6 -1 1 25 2 -2 21 2 0.20955745D+00 0.11944618D+00 0.23522244D+06 0.23522244D+06 0.23522244D+06 0.10924554D+01  1  2  4  1  6  1       -1 -.147851211767D-02 0.100000000000D+01
-.139102119441D+00 0.000000000000D+00 -.478583330544D-03 0.266949323999D-03 0.000000000000D+00  6 -1 1 25 2 -2 21 2 0.27062473D+00 0.11944618D+00 0.23522244D+06 0.23522244D+06 0.23522244D+06 0.10924554D+01  1  2  5  1  6  1       -1 -.175655152728D-01 0.100000000000D+01
0.134807431783D+00 0.000000000000D+00 0.463348952265D-03 0.266949323999D-03 0.000000000000D+00  6 -1 1 25 2 -2 21 2 0.20955745D+00 0.11944618D+00 0.23522244D+06 0.23522244D+06 0.23522244D+06 0.10924554D+01  1  2  6  1  6  1       -1 0.542088700440D-01 0.100000000000D+01
-.477864049866D-02 0.000000000000D+00 -.164696344397D-04 0.266949323999D-03 0.000000000000D+00  6 21 1 25 2 1 -2 2 0.27062473D+00 0.11944618D+00 0.23522244D+06 0.23522244D+06 0.23522244D+06 0.10924554D+01  3  4  5  5  5  1       -1 -.474998985811D-02 0.100000000000D+01
  </mgrwgt>
  </event>
  <event>
  5     66 0.18829897E-05 0.10588619E+03 0.75467711E-02 0.87281016E-01
       -1 -1    0    0    0  501 0.00000000E+00 0.00000000E+00 0.13273949E+04 0.13273950E+04 0.32000000E+00 0.0000E+00 0.9000E+01
        1 -1    0    0  502    0 0.00000000E+00 0.00000000E+00 -.11732179E+04 0.11732179E+04 0.32000000E+00 0.0000E+00 0.9000E+01
       25  1    1    2    0    0 -.38055911E+03 -.50703478E+03 0.63555279E+03 0.90634532E+03 0.12500000E+03 0.0000E+00 0.9000E+01
        2  1    1    2  502    0 -.42879451E+02 -.96802721E+02 -.78834629E+03 0.79542403E+03 0.32000000E+00 0.0000E+00 0.9000E+01
       -2  1    1    2    0  501 0.42343856E+03 0.60383750E+03 0.30697054E+03 0.79884351E+03 0.32000000E+00 0.0000E+00 0.9000E+01
#aMCatNLO 1  0  0  1  4 0.21901003D+02 0.00000000D+00  -5  6  0 0.00000000D+00 0.00000000D+00 0.00000000D+00 0.00000000D+00 0.00000000D+00
  <mgrwgt>
 0.5432571377D-03    7    4    0
 0.124792769347013D+04 0.000000000000000D+00 0.000000000000000D+00 0.124792769347013D+04
 0.124792769347013D+04 0.000000000000000D+00 0.000000000000000D+00 -.124792769347013D+04
 0.868820778535760D+03 -.380495457101756D+03 -.506939785097285D+03 0.580912907952585D+03
 0.845740040194290D+03 -.428840178600369D+02 -.968134592071891D+02 -.839085413242513D+03
 0.781294568210211D+03 0.423379474961793D+03 0.603753244304474D+03 0.258172505289928D+03
 0.000000000000000D+00 0.000000000000000D+00 0.000000000000000D+00 0.000000000000000D+00
 0.154576617136459D+04 0.000000000000000D+00 0.000000000000000D+00 0.154576617136459D+04
 0.139876040694669D+04 0.000000000000000D+00 0.000000000000000D+00 -.139876040694669D+04
 0.955228921740642D+03 -.519153304620024D+03 -.538384001067983D+03 0.580912907952585D+03
 0.865997665651326D+03 -.173004302286741D+03 -.126321564221894D+03 -.839085413242513D+03
 0.705142217990122D+03 0.310385774617292D+03 0.578129030597473D+03 0.258172505289928D+03
 0.418157772929187D+03 0.381771832289473D+03 0.865765346924040D+02 0.147005764417901D+03
 0.124792769347013D+04 0.000000000000000D+00 0.000000000000000D+00 0.124792769347013D+04
 0.124792769347013D+04 0.000000000000000D+00 0.000000000000000D+00 -.124792769347013D+04
 0.868820778535760D+03 -.380495457101756D+03 -.506939785097285D+03 0.580912907952585D+03
 0.845740040194290D+03 -.428840178600369D+02 -.968134592071891D+02 -.839085413242513D+03
 0.000000000000000D+00 0.000000000000000D+00 0.000000000000000D+00 0.000000000000000D+00
 0.781294568210211D+03 0.423379474961793D+03 0.603753244304474D+03 0.258172505289928D+03
 0.154576617136459D+04 0.000000000000000D+00 0.000000000000000D+00 0.154576617136459D+04
 0.139876040694669D+04 0.000000000000000D+00 0.000000000000000D+00 -.139876040694669D+04
 0.955228921740642D+03 -.519153304620024D+03 -.538384001067983D+03 0.580912907952585D+03
 0.865997665651326D+03 -.173004302286741D+03 -.126321564221894D+03 -.839085413242513D+03
 0.418157772929187D+03 0.381771832289473D+03 0.865765346924040D+02 0.147005764417901D+03
 0.705142217990122D+03 0.310385774617292D+03 0.578129030597473D+03 0.258172505289928D+03
0.153562512161D-02 0.000000000000D+00 0.000000000000D+00 0.149353643937D-05 0.000000000000D+00  6 -1 1 25 2 -2 21 0 0.20421461D+00 0.18049506D+00 0.55454058D+06 0.55454058D+06 0.55454058D+06 0.10653471D+01  1  2  2  1  6  1       -1 0.260958569963D-03 0.100000000000D+01
0.427976200308D-03 0.000000000000D+00 -.589720480637D-05 0.149353643937D-05 0.000000000000D+00  6 -1 1 25 2 -2 21 2 0.20421461D+00 0.18049506D+00 0.55454058D+06 0.55454058D+06 0.55454058D+06 0.10653471D+01  1  2  3  1  6  1       -1 0.825445117249D-04 0.100000000000D+01
-.970308270946D-03 0.000000000000D+00 0.000000000000D+00 0.149353643937D-05 0.000000000000D+00  6 -1 1 25 2 -2 21 2 0.20421461D+00 0.18049506D+00 0.55454058D+06 0.55454058D+06 0.55454058D+06 0.10653471D+01  1  2 15  1  6  1       -1 -.187145038416D-03 0.100000000000D+01
-.478052279401D-03 0.000000000000D+00 0.000000000000D+00 0.149353643937D-05 0.000000000000D+00  6 -1 1 25 2 -2 21 2 0.20421461D+00 0.18049506D+00 0.55454058D+06 0.55454058D+06 0.55454058D+06 0.10653471D+01  1  2  4  1  6  1       -1 -.922027719151D-04 0.100000000000D+01
-.334760863886D-02 0.000000000000D+00 -.147991351891D-02 0.149353643937D-05 0.000000000000D+00  6 -1 1 25 2 -2 21 2 0.26865267D+00 0.18049506D+00 0.55454058D+06 0.55454058D+06 0.55454058D+06 0.10653471D+01  1  2  5  1  6  1       -1 -.188722382971D-03 0.100000000000D+01
0.366860480659D-02 0.000000000000D+00 0.142595227551D-02 0.149353643937D-05 0.000000000000D+00  6 -1 1 25 2 -2 21 2 0.20421461D+00 0.18049506D+00 0.55454058D+06 0.55454058D+06 0.55454058D+06 0.10653471D+01  1  2  6  1  6  1       -1 0.707570169213D-03 0.100000000000D+01
-.924382329891D-04 0.000000000000D+00 -.536012026794D-04 0.149353643937D-05 0.000000000000D+00  6 21 1 25 2 1 -2 2 0.26865267D+00 0.18049506D+00 0.55454058D+06 0.55454058D+06 0.55454058D+06 0.10653471D+01  3  4  5  5  5  1       -1 -.397459198754D-04 0.100000000000D+01
  </mgrwgt>
  </event>
  <event>
  6     66 0.18829897E-05 0.17831615E+03 0.75467711E-02 0.93718651E-01
       -1 -1    0    0    0  501 0.00000000E+00 0.00000000E+00 0.68365161E+03 0.68365168E+03 0.32000000E+00 0.0000E+00 0.9000E+01
        1 -1    0    0  502    0 -.00000000E+00 -.00000000E+00 -.72521956E+03 0.72521963E+03 0.32000000E+00 0.0000E+00 0.9000E+01
       25  1    1    2    0    0 -.46029794E+03 0.24099836E+03 -.58978545E+02 0.53764103E+03 0.12500000E+03 0.0000E+00 0.9000E+01
        2  1    1    2  502    0 0.11026754E+03 -.15287143E+03 -.32329257E+03 0.37422826E+03 0.32000000E+00 0.0000E+00 0.9000E+01
       -2  1    1    2    0  503 0.13843221E+03 -.42588476E+02 0.12307405E+03 0.19006467E+03 0.32000000E+00 0.0000E+00 0.9000E+01
       21  1    1    2  503  501 0.21159818E+03 -.45538456E+02 0.21762912E+03 0.30693735E+03 0.75000000E+00 0.0000E+00 0.9000E+01
#aMCatNLO 2  0  0  5  1 0.12294858D+02 0.00000000D+00  -5  6  0 0.00000000D+00 0.00000000D+00 0.00000000D+00 0.00000000D+00 0.00000000D+00
  <mgrwgt>
 0.1316999531D-03    3    2    0
 0.704128978863700D+03 0.000000000000000D+00 0.000000000000000D+00 0.704128978863700D+03
 0.704128978863700D+03 -.000000000000000D+00 -.000000000000000D+00 -.704128978863700D+03
 0.536248887062109D+03 -.460398985141592D+03 0.241115477691816D+03 -.428248733026683D+02
 0.365235907463968D+03 0.110276060512226D+03 -.152965250612024D+03 -.312790809782085D+03
 0.506773163201324D+03 0.350122924629366D+03 -.881502270797923D+02 0.355615683084753D+03
 0.000000000000000D+00 0.000000000000000D+00 0.000000000000000D+00 0.000000000000000D+00
 0.704128978863700D+03 0.000000000000000D+00 0.000000000000000D+00 0.704128978863700D+03
 0.704128978863700D+03 -.000000000000000D+00 -.000000000000000D+00 -.704128978863700D+03
 0.536073824259783D+03 -.460232689215980D+03 0.241073609471903D+03 -.426559685123199D+02
 0.365183555141725D+03 0.110389334043912D+03 -.152993769417386D+03 -.312675759205523D+03
 0.193590014751462D+03 0.138290229731858D+03 -.425338277037937D+02 0.128622625043361D+03
 0.313410563574430D+03 0.211553125440210D+03 -.455460123507231D+02 0.226709102674482D+03
-.458969247281D-07 0.000000000000D+00 0.000000000000D+00 0.466485029553D-06 0.000000000000D+00  6 -1 1 25 2 -2 21 2 0.10517718D+00 0.11157225D+00 0.29382840D+06 0.29382840D+06 0.29382840D+06 0.10852204D+01  1  2 13  4  6  5       -2 -.150679894578D-06 0.100000000000D+01
-.536540412487D-03 0.000000000000D+00 0.000000000000D+00 0.466485029553D-06 0.000000000000D+00  6 -1 1 25 2 -2 21 2 0.10517718D+00 0.11157225D+00 0.29382840D+06 0.29382840D+06 0.29382840D+06 0.10852204D+01  1  2 13  4  6  5       -2 -.176146557246D-02 0.100000000000D+01
0.576701965532D-03 0.000000000000D+00 0.000000000000D+00 0.466485029553D-06 0.455077301703D-08  6 -1 1 25 2 -2 21 2 0.10517718D+00 0.11157225D+00 0.29382840D+06 0.29382840D+06 0.29382840D+06 0.10852204D+01  1  2  1  4  6  5       -2 0.189331620548D-02 0.100000000000D+01
  </mgrwgt>
  </event>
  <event>
  5     66 0.18829897E-05 0.19835124E+02 0.75467711E-02 0.94855395E-01
       -1 -1    0    0    0  501 0.00000000E+00 0.00000000E+00 0.33482866E+03 0.33482881E+03 0.32000000E+00 0.0000E+00 0.9000E+01
        1 -1    0    0  502    0 -.00000000E+00 -.00000000E+00 -.30164041E+04 0.30164041E+04 0.32000000E+00 0.0000E+00 0.9000E+01
       25  1    1    2    0    0 -.33109453E+03 -.32378508E+03 -.20085787E+04 0.20650602E+04 0.12500000E+03 0.0000E+00 0.9000E+01
        2  1    1    2  502    0 0.33595991E+03 0.34301609E+03 -.92033026E+03 0.10380448E+04 0.32000000E+00 0.0000E+00 0.9000E+01
       -2  1    1    2    0  501 -.48653819E+01 -.19231006E+02 0.24733350E+03 0.24812792E+03 0.32000000E+00 0.0000E+00 0.9000E+01
#aMCatNLO 1  0  0  5  1 0.15668306D+01 0.00000000D+00  -5  6  0 0.00000000D+00 0.00000000D+00 0.00000000D+00 0.00000000D+00 0.00000000D+00
  <mgrwgt>
 0.1080738992D-01    7    2    0
 0.100497702235060D+04 0.000000000000000D+00 0.000000000000000D+00 0.100497702235060D+04
 0.100497702235060D+04 -.000000000000000D+00 -.000000000000000D+00 -.100497702235060D+04
 0.763395361970506D+03 -.331138975923931D+03 -.323829639772545D+03 -.593825581889930D+03
 0.502938601558875D+03 0.336003916543394D+03 0.343058901480733D+03 -.149529913797637D+03
 0.743620081171819D+03 -.486494061946304D+01 -.192292617081888D+02 0.743355495687568D+03
 0.000000000000000D+00 0.000000000000000D+00 0.000000000000000D+00 0.000000000000000D+00
 0.100497702235060D+04 0.000000000000000D+00 0.000000000000000D+00 0.100497702235060D+04
 0.100497702235060D+04 -.000000000000000D+00 -.000000000000000D+00 -.100497702235060D+04
 0.763391483561589D+03 -.331139009144469D+03 -.323829771080708D+03 -.593820505842462D+03
 0.502937533667683D+03 0.336003894657074D+03 0.343058814972424D+03 -.149526569601279D+03
 0.107297855406336D+03 -.211862973249172D+01 -.344298115500003D+01 0.107221672546281D+03
 0.636327172065592D+03 -.274625578011268D+01 -.157860627367158D+02 0.636125402897460D+03
0.263602590896D-03 0.000000000000D+00 0.000000000000D+00 0.195436329528D-04 0.000000000000D+00  6 -1 1 25 2 -2 21 0 0.51512115D-01 0.46406218D+00 0.23998431D+06 0.23998431D+06 0.23998431D+06 0.10917975D+01  1  2  2  4  6  5       -2 0.746959233498D-04 0.100000000000D+01
0.211836150621D-03 0.000000000000D+00 -.101230335720D-05 0.195436329528D-04 0.000000000000D+00  6 -1 1 25 2 -2 21 2 0.51512115D-01 0.46406218D+00 0.23998431D+06 0.23998431D+06 0.23998431D+06 0.10917975D+01  1  2  3  4  6  5       -2 0.715535995785D-04 0.100000000000D+01
-.182728595588D-03 0.000000000000D+00 0.000000000000D+00 0.195436329528D-04 0.000000000000D+00  6 -1 1 25 2 -2 21 2 0.51512115D-01 0.46406218D+00 0.23998431D+06 0.23998431D+06 0.23998431D+06 0.10917975D+01  1  2 15  4  6  5       -2 -.617217067147D-04 0.100000000000D+01
0.290538317562D-10 0.000000000000D+00 0.000000000000D+00 0.195436329528D-04 0.000000000000D+00  6 -1 1 25 2 -2 21 2 0.51512115D-01 0.46406218D+00 0.24009733D+06 0.24009733D+06 0.24009733D+06 0.10917821D+01  1  2 12  4  6  5       -2 0.981310180998D-11 0.100000000000D+01
0.713780586502D-04 0.000000000000D+00 0.000000000000D+00 0.195436329528D-04 0.000000000000D+00  6 -1 1 25 2 -2 21 2 0.51512115D-01 0.46406218D+00 0.24009733D+06 0.24009733D+06 0.24009733D+06 0.10917821D+01  1  2 12  4  6  5       -2 0.241083572869D-04 0.100000000000D+01
-.284076055612D+00 0.000000000000D+00 0.000000000000D+00 0.195436329528D-04 0.000000000000D+00  6 -1 1 25 2 -2 21 2 0.51512115D-01 0.46406218D+00 0.23998431D+06 0.23998431D+06 0.23998431D+06 0.10917975D+01  1  2  5  4  6  5       -2 -.959546530347D-01 0.100000000000D+01
0.315770711082D+00 0.000000000000D+00 0.000000000000D+00 0.195436329528D-04 0.418876720333D-05  6 -1 1 25 2 -2 21 2 0.51512115D-01 0.46406218D+00 0.24009733D+06 0.24009733D+06 0.24009733D+06 0.10917821D+01  1  2 11  4  6  5       -2 0.106653406768D+00 0.100000000000D+01
  </mgrwgt>
  </event>
  <event>
  6     66 0.18829897E-05 0.31838697E+02 0.75467711E-02 0.90133296E-01
       -1 -1    0    0    0  501 0.00000000E+00 0.00000000E+00 0.14866412E+04 0.14866412E+04 0.32000000E+00 0.0000E+00 0.9000E+01
        1 -1    0    0  502    0 -.00000000E+00 -.00000000E+00 -.19429770E+04 0.19429770E+04 0.32000000E+00 0.0000E+00 0.9000E+01
       25  1    1    2    0    0 0.68311531E+03 -.18505737E+03 0.31629160E+03 0.78521215E+03 0.12500000E+03 0.0000E+00 0.9000E+01
        2  1    1    2  502    0 -.71634404E+03 0.21513569E+03 -.16257575E+04 0.17895585E+04 0.32000000E+00 0.0000E+00 0.9000E+01
       -2  1    1    2    0  503 0.21704481E+02 -.30715038E+02 0.76983920E+03 0.77075742E+03 0.32000000E+00 0.0000E+00 0.9000E+01
       21  1    1    2  503  501 0.11524249E+02 0.63671492E+00 0.83290921E+02 0.84090153E+02 0.75000000E+00 0.0000E+00 0.9000E+01
#aMCatNLO 2  0  0  5  4 0.90215365D+01 0.00000000D+00  -5  6  0 0.00000000D+00 0.00000000D+00 0.00000000D+00 0.00000000D+00 0.00000000D+00
  <mgrwgt>
 0.3159870370D-02    5    2    0
 0.169956163903966D+04 0.000000000000000D+00 0.000000000000000D+00 0.169956163903966D+04
 0.169956163903966D+04 -.000000000000000D+00 -.000000000000000D+00 -.169956163903966D+04
 0.835057484829132D+03 0.683346496519978D+03 -.185131614420727D+03 0.424805666163957D+03
 0.158759897469830D+04 -.716571473064974D+03 0.215206539105981D+03 -.140024354095230D+04
 0.976466818551881D+03 0.332249765449960D+02 -.300749246852543D+02 0.975437874788340D+03
 0.000000000000000D+00 0.000000000000000D+00 0.000000000000000D+00 0.000000000000000D+00
 0.169956163903966D+04 0.000000000000000D+00 0.000000000000000D+00 0.169956163903966D+04
 0.169956163903966D+04 -.000000000000000D+00 -.000000000000000D+00 -.169956163903966D+04
 0.835120535747742D+03 0.683350448175904D+03 -.185135191421126D+03 0.424921681140007D+03
 0.158740014818232D+04 -.716563960989049D+03 0.215199739248129D+03 -.140002299712843D+04
 0.880974500041813D+03 0.216968032437526D+02 -.307161113404373D+02 0.880171482699279D+03
 0.956280941074445D+02 0.115167095693930D+02 0.651563513434432D+00 0.949298332891429D+02
-.126184971433D-08 0.000000000000D+00 0.000000000000D+00 0.205925829719D-03 0.000000000000D+00  6 -1 1 25 2 -2 21 2 0.22871404D+00 0.29891954D+00 0.57475931D+06 0.57475931D+06 0.57475931D+06 0.10642596D+01  1  2 13  4  6  5       -2 -.454845433469D-10 0.100000000000D+01
-.386267157426D-01 0.000000000000D+00 0.000000000000D+00 0.205925829719D-03 0.000000000000D+00  6 -1 1 25 2 -2 21 2 0.22871404D+00 0.29891954D+00 0.57148755D+06 0.57148755D+06 0.57148755D+06 0.10644327D+01  1  2  8  4  6  5       -2 -.139360297597D-02 0.100000000000D+01
-.346173703062D+00 0.000000000000D+00 0.000000000000D+00 0.205925829719D-03 0.000000000000D+00  6 -1 1 25 2 -2 21 2 0.22871404D+00 0.29891954D+00 0.57148755D+06 0.57148755D+06 0.57148755D+06 0.10644327D+01  1  2  9  4  6  5       -2 -.124895087122D-01 0.100000000000D+01
0.381726718216D+00 0.000000000000D+00 0.000000000000D+00 0.205925829719D-03 0.000000000000D+00  6 -1 1 25 2 -2 21 2 0.22871404D+00 0.29891954D+00 0.57148755D+06 0.57148755D+06 0.57148755D+06 0.10644327D+01  1  2 10  4  6  5       -2 0.137722164644D-01 0.100000000000D+01
0.907388396939D-01 0.000000000000D+00 0.000000000000D+00 0.205925829719D-03 0.153062928737D-05  6 -1 1 25 2 -2 21 2 0.22871404D+00 0.29891954D+00 0.57475931D+06 0.57475931D+06 0.57475931D+06 0.10642596D+01  1  2  1  4  6  5       -2 0.327076563906D-02 0.100000000000D+01
  </mgrwgt>
  </event>
  <event>
  5     66 0.18829897E-05 0.22844571E+02 0.75467711E-02 0.91882114E-01
       -1 -1    0    0    0  501 0.00000000E+00 0.00000000E+00 0.93841183E+03 0.93841189E+03 0.32000000E+00 0.0000E+00 0.9000E+01
        1 -1    0    0  502    0 -.00000000E+00 -.00000000E+00 -.17746443E+04 0.17746443E+04 0.32000000E+00 0.0000E+00 0.9000E+01
       25  1    1    2    0    0 -.51692981E+03 -.15402127E+03 -.23865830E+01 0.55368735E+03 0.12500000E+03 0.0000E+00 0.9000E+01
        2  1    1    2  502    0 -.22628455E+02 -.31179182E+01 -.13773668E+04 0.13775563E+04 0.32000000E+00 0.0000E+00 0.9000E+01
       -2  1    1    2    0  501 0.53955827E+03 0.15713919E+03 0.54352093E+03 0.78181261E+03 0.32000000E+00 0.0000E+00 0.9000E+01
#aMCatNLO 1  0  0  4  1 0.15437922D+03 0.00000000D+00  -5  6  0 0.00000000D+00 0.00000000D+00 0.00000000D+00 0.00000000D+00 0.00000000D+00
  <mgrwgt>
 0.1358041250D-01    4    2    0
 0.129048336775316D+04 0.000000000000000D+00 0.000000000000000D+00 0.129048336775316D+04
 0.129048336775316D+04 -.000000000000000D+00 -.000000000000000D+00 -.129048336775316D+04
 0.581250790996133D+03 -.516895118529996D+03 -.154011527868705D+03 0.176995389084117D+03
 0.100185083645574D+04 -.226307560222165D+02 -.311822499281269D+01 -.100159034742844D+04
 0.997865108054452D+03 0.539525874552211D+03 0.157129752861518D+03 0.824594958344322D+03
 0.000000000000000D+00 0.000000000000000D+00 0.000000000000000D+00 0.000000000000000D+00
 0.129048336775316D+04 0.000000000000000D+00 0.000000000000000D+00 0.129048336775316D+04
 0.129048336775316D+04 -.000000000000000D+00 -.000000000000000D+00 -.129048336775316D+04
 0.564451966803743D+03 -.518608547037800D+03 -.154247616119190D+03 0.101162595308266D+03
 0.952747138540580D+03 -.376195080463677D+02 -.801819298113090D+02 -.948621494982771D+03
 0.895326880734643D+03 0.536694556304741D+03 0.156739633887445D+03 0.699286682103780D+03
 0.168440749427357D+03 0.195334987794246D+02 0.776899120430533D+02 0.148172217570725D+03
0.626708655596D-01 0.000000000000D+00 0.000000000000D+00 0.291066748892D-03 0.000000000000D+00  6 -1 1 25 2 -2 21 0 0.14437106D+00 0.27302221D+00 0.32400736D+06 0.32400736D+06 0.32400736D+06 0.10820869D+01  1  2  2  3  6  4        2 0.133753369755D-01 0.100000000000D+01
0.532105044030D-01 0.000000000000D+00 -.240672625367D-03 0.291066748892D-03 0.000000000000D+00  6 -1 1 25 2 -2 21 2 0.14437106D+00 0.27302221D+00 0.32400736D+06 0.32400736D+06 0.32400736D+06 0.10820869D+01  1  2  3  3  6  4        2 0.132972159310D-01 0.100000000000D+01
-.394017294340D-01 0.000000000000D+00 0.000000000000D+00 0.291066748892D-03 0.000000000000D+00  6 -1 1 25 2 -2 21 2 0.14437106D+00 0.27302221D+00 0.32400736D+06 0.32400736D+06 0.32400736D+06 0.10820869D+01  1  2 15  3  6  4        2 -.984642619383D-02 0.100000000000D+01
-.129881391210D-01 0.000000000000D+00 0.000000000000D+00 0.291066748892D-03 0.000000000000D+00  6 -1 1 25 2 -2 21 2 0.14437106D+00 0.27302221D+00 0.32400736D+06 0.32400736D+06 0.32400736D+06 0.10820869D+01  1  2  4  3  6  4        2 -.324571421323D-02 0.100000000000D+01
  </mgrwgt>
  </event>
  <event>
  5     66 0.18829897E-05 0.12275768E+03 0.75467711E-02 0.90670784E-01
       -1 -1    0    0    0  501 0.00000000E+00 0.00000000E+00 0.85245625E+03 0.85245631E+03 0.32000000E+00 0.0000E+00 0.9000E+01
        1 -1    0    0  502    0 -.00000000E+00 -.00000000E+00 -.18081680E+04 0.18081680E+04 0.32000000E+00 0.0000E+00 0.9000E+01
       25  1    1    2    0    0 0.47386065E+03 0.19900132E+03 -.35504959E+03 0.63704839E+03 0.12500000E+03 0.0000E+00 0.9000E+01
        2  1    1    2  502    0 -.53813925E+02 -.11032094E+03 -.12440598E+04 0.12501006E+04 0.32000000E+00 0.0000E+00 0.9000E+01
       -2  1    1    2    0  501 -.42004673E+03 -.88680390E+02 0.64339765E+03 0.77347534E+03 0.32000000E+00 0.0000E+00 0.9000E+01
#aMCatNLO 1  0  0  4  1 0.30665713D+01 0.00000000D+00  -5  6  0 0.00000000D+00 0.00000000D+00 0.00000000D+00 0.00000000D+00 0.00000000D+00
  <mgrwgt>
 0.1185831969D-02    4    2    0
 0.124152496285135D+04 0.000000000000000D+00 0.000000000000000D+00 0.124152496285135D+04
 0.124152496285135D+04 -.000000000000000D+00 -.000000000000000D+00 -.124152496285135D+04
 0.545930705125771D+03 0.473855544356924D+03 0.199008924775467D+03 -.135172873539912D+03
 0.860716848809120D+03 -.538196676660843D+02 -.110330825938589D+03 -.851917863437504D+03
 0.107640237176782D+04 -.420035876690840D+03 -.886780988368787D+02 0.987090736977417D+03
 0.000000000000000D+00 0.000000000000000D+00 0.000000000000000D+00 0.000000000000000D+00
 0.124152496285135D+04 0.000000000000000D+00 0.000000000000000D+00 0.124152496285135D+04
 0.124152496285135D+04 -.000000000000000D+00 -.000000000000000D+00 -.124152496285135D+04
 0.554816549642389D+03 0.470872314712678D+03 0.192893275889334D+03 -.182394767224532D+03
 0.695501151154317D+03 -.254167044401959D+03 -.129980479209821D+02 -.647265027285730D+03
 0.998871035223100D+03 -.425660253332101D+03 -.100208123958366D+03 0.898061816153913D+03
 0.233861189682903D+03 0.208954983021381D+03 -.796871040099864D+02 -.684020216436505D+02
0.118201260040D-01 0.000000000000D+00 0.000000000000D+00 0.655302237568D-04 0.000000000000D+00  6 -1 1 25 2 -2 21 0 0.13114712D+00 0.27817970D+00 0.29213159D+06 0.29213159D+06 0.29213159D+06 0.10854069D+01  1  2  2  3  6  4        2 0.313145837138D-02 0.100000000000D+01
0.234819348190D-02 0.000000000000D+00 -.453923961661D-04 0.655302237568D-04 0.000000000000D+00  6 -1 1 25 2 -2 21 2 0.13114712D+00 0.27817970D+00 0.29213159D+06 0.29213159D+06 0.29213159D+06 0.10854069D+01  1  2  3  3  6  4        2 0.732898033762D-03 0.100000000000D+01
-.824073202694D-02 0.000000000000D+00 0.000000000000D+00 0.655302237568D-04 0.000000000000D+00  6 -1 1 25 2 -2 21 2 0.13114712D+00 0.27817970D+00 0.29213159D+06 0.29213159D+06 0.29213159D+06 0.10854069D+01  1  2 15  3  6  4        2 -.257202668599D-02 0.100000000000D+01
-.341217075374D-03 0.000000000000D+00 0.000000000000D+00 0.655302237568D-04 0.000000000000D+00  6 -1 1 25 2 -2 21 2 0.13114712D+00 0.27817970D+00 0.29213159D+06 0.29213159D+06 0.29213159D+06 0.10854069D+01  1  2  4  3  6  4        2 -.106497750529D-03 0.100000000000D+01
  </mgrwgt>
  </event>
  <event>
  5     66 0.18829897E-05 0.38058389E+02 0.75467711E-02 0.90412582E-01
       -1 -1    0    0    0  501 0.00000000E+00 0.00000000E+00 0.45560792E+03 0.45560804E+03 0.32000000E+00 0.0000E+00 0.9000E+01
        1 -1    0    0  502    0 0.00000000E+00 0.00000000E+00 -.33835109E+04 0.33835109E+04 0.32000000E+00 0.0000E+00 0.9000E+01
       25  1    1    2    0    0 0.50020098E+03 -.19378915E+03 -.14908916E+04 0.15893829E+04 0.12500000E+03 0.0000E+00 0.9000E+01
        2  1    1    2  502    0 0.34047722E+02 0.17005832E+02 -.16482261E+04 0.16486655E+04 0.32000000E+00 0.0000E+00 0.9000E+01
       -2  1    1    2    0  501 -.53424870E+03 0.17678332E+03 0.21121476E+03 0.60107054E+03 0.32000000E+00 0.0000E+00 0.9000E+01
#aMCatNLO 1  0  0  2  1 0.11583856D+03 0.00000000D+00  -5  6  0 0.00000000D+00 0.00000000D+00 0.00000000D+00 0.00000000D+00 0.00000000D+00
  <mgrwgt>
 0.2195236389D-01    7    2    0
 0.124159357235089D+04 0.000000000000000D+00 0.000000000000000D+00 0.124159357235089D+04
 0.124159357235089D+04 0.000000000000000D+00 0.000000000000000D+00 -.124159357235089D+04
 0.699360341996227D+03 0.500201021866626D+03 -.193789221480533D+03 -.430957727995021D+03
 0.605503582980030D+03 0.340476042924281D+02 0.170059280523220D+02 -.604306336268850D+03
 0.117832321972552D+04 -.534248626159054D+03 0.176783293428211D+03 0.103526406426387D+04
 0.000000000000000D+00 -.000000000000000D+00 0.000000000000000D+00 -.000000000000000D+00
 0.136255416746983D+04 0.000000000000000D+00 0.000000000000000D+00 0.136255416746983D+04
 0.146574427467531D+04 0.000000000000000D+00 0.000000000000000D+00 -.146574427467531D+04
 0.767446185130440D+03 0.568470123866716D+03 -.253901165857101D+03 -.430957727995021D+03
 0.611961068747859D+03 0.907116679935416D+02 -.328876101012519D+02 -.604306336268850D+03
 0.112295283378131D+04 -.427141078761528D+03 0.824735289396958D+02 0.103526406426387D+04
 0.325938354485537D+03 -.232040713098729D+03 0.204315247018658D+03 -.103190107205477D+03
0.113612080325D+00 0.000000000000D+00 0.000000000000D+00 0.177849799007D-03 0.000000000000D+00  6 -1 1 25 2 -2 21 0 0.70093536D-01 0.52054014D+00 0.33154333D+06 0.33154333D+06 0.33154333D+06 0.10813541D+01  1  2  2  2  6  2        1 0.910060686027D-02 0.100000000000D+01
0.525761625646D-01 0.000000000000D+00 -.436300303195D-03 0.177849799007D-03 0.000000000000D+00  6 -1 1 25 2 -2 21 2 0.70093536D-01 0.52054014D+00 0.33154333D+06 0.33154333D+06 0.33154333D+06 0.10813541D+01  1  2  3  2  6  2        1 0.492459558269D-02 0.100000000000D+01
-.813118226884D-01 0.000000000000D+00 0.000000000000D+00 0.177849799007D-03 0.000000000000D+00  6 -1 1 25 2 -2 21 2 0.70093536D-01 0.52054014D+00 0.33154333D+06 0.33154333D+06 0.33154333D+06 0.10813541D+01  1  2 15  2  6  2        1 -.761614814204D-02 0.100000000000D+01
-.186977658083D-02 0.000000000000D+00 0.000000000000D+00 0.177849799007D-03 0.000000000000D+00  6 -1 1 25 2 -2 21 2 0.70093536D-01 0.52054014D+00 0.33154333D+06 0.33154333D+06 0.33154333D+06 0.10813541D+01  1  2  4  2  6  2        1 -.175134377281D-03 0.100000000000D+01
-.205812018941D+00 0.000000000000D+00 -.819884275598D-01 0.177849799007D-03 0.000000000000D+00  6 -1 1 25 2 -2 21 2 0.70093536D-01 0.62691212D+00 0.33154333D+06 0.33154333D+06 0.33154333D+06 0.10813541D+01  1  2  5  2  6  2        1 -.482091991017D-02 0.100000000000D+01
0.219373546655D+00 0.000000000000D+00 0.817876236587D-01 0.177849799007D-03 0.000000000000D+00  6 -1 1 25 2 -2 21 2 0.70093536D-01 0.52054014D+00 0.33154333D+06 0.33154333D+06 0.33154333D+06 0.10813541D+01  1  2  6  2  6  2        1 0.205478290183D-01 0.100000000000D+01
-.473498538040D-02 0.000000000000D+00 -.221781023847D-02 0.177849799007D-03 0.000000000000D+00  6 -1 21 25 2 -2 -1 2 0.70093536D-01 0.62691212D+00 0.33154333D+06 0.33154333D+06 0.33154333D+06 0.10813541D+01  1  2  5  6  6  2        1 -.846513814463D-05 0.100000000000D+01
  </mgrwgt>
  </event>
  <event>
  5     66 0.18829897E-05 0.20212089E+02 0.75467711E-02 0.95377925E-01
       -1 -1    0    0    0  501 0.00000000E+00 0.00000000E+00 0.21960990E+03 0.21961013E+03 0.32000000E+00 0.0000E+00 0.9000E+01
        1 -1    0    0  502    0 0.00000000E+00 0.00000000E+00 -.25462549E+04 0.25462550E+04 0.32000000E+00 0.0000E+00 0.9000E+01
       25  1    1    2    0    0 -.37509198E+03 -.26564717E+03 -.28882107E+03 0.55705029E+03 0.12500000E+03 0.0000E+00 0.9000E+01
        2  1    1    2  502    0 0.36038013E+03 0.25175722E+03 -.20989159E+04 0.21444588E+04 0.32000000E+00 0.0000E+00 0.9000E+01
       -2  1    1    2    0  501 0.14711844E+02 0.13889955E+02 0.61091924E+02 0.64356000E+02 0.32000000E+00 0.0000E+00 0.9000E+01
#aMCatNLO 1  0  0  2  4 0.29935939D+02 0.00000000D+00  -5  6  0 0.00000000D+00 0.00000000D+00 0.00000000D+00 0.00000000D+00 0.00000000D+00
  <mgrwgt>
 0.1154119252D-01    7    2    0
 0.747785491771330D+03 0.000000000000000D+00 0.000000000000000D+00 0.747785491771330D+03
 0.747785491771330D+03 0.000000000000000D+00 0.000000000000000D+00 -.747785491771330D+03
 0.581050766321899D+03 -.375155295375383D+03 -.265688341338662D+03 0.332660792206995D+03
 0.700682162051507D+03 0.360458564807805D+03 0.251812656167978D+03 -.545541475478721D+03
 0.213838055169253D+03 0.146967305675776D+02 0.138756851706842D+02 0.212880683271725D+03
 0.000000000000000D+00 -.000000000000000D+00 -.000000000000000D+00 -.000000000000000D+00
 0.850409977773489D+03 0.000000000000000D+00 0.000000000000000D+00 0.850409977773489D+03
 0.113268317794465D+04 0.000000000000000D+00 0.000000000000000D+00 -.113268317794465D+04
 0.529864434682927D+03 -.367796568088826D+03 -.138541693984712D+03 0.332660792206995D+03
 0.782593491356356D+03 0.370283816109026D+03 0.421576762610997D+03 -.545541475478721D+03
 0.222949741012733D+03 0.175900227570194D+02 0.638669930935821D+02 0.212880683271725D+03
 0.447685488666120D+03 -.200772707772189D+02 -.346902061719867D+03 -.282273200171158D+03
0.463099663269D-02 0.000000000000D+00 0.000000000000D+00 0.420626742918D-04 0.000000000000D+00  6 -1 1 25 2 -2 21 0 0.33786158D-01 0.39173155D+00 0.21917208D+06 0.21917208D+06 0.21917208D+06 0.10947851D+01  1  2  2  2  6  2        1 0.604222839735D-02 0.100000000000D+01
0.217809712530D-02 0.000000000000D+00 -.177842464389D-04 0.420626742918D-04 0.000000000000D+00  6 -1 1 25 2 -2 21 2 0.33786158D-01 0.39173155D+00 0.21917208D+06 0.21917208D+06 0.21917208D+06 0.10947851D+01  1  2  3  2  6  2        1 0.340610197755D-02 0.100000000000D+01
-.304620080212D-02 0.000000000000D+00 0.000000000000D+00 0.420626742918D-04 0.000000000000D+00  6 -1 1 25 2 -2 21 2 0.33786158D-01 0.39173155D+00 0.21917208D+06 0.21917208D+06 0.21917208D+06 0.10947851D+01  1  2 15  2  6  2        1 -.476363999363D-02 0.100000000000D+01
-.402385929973D-03 0.000000000000D+00 0.000000000000D+00 0.420626742918D-04 0.000000000000D+00  6 -1 1 25 2 -2 21 2 0.33786158D-01 0.39173155D+00 0.21917208D+06 0.21917208D+06 0.21917208D+06 0.10947851D+01  1  2  4  2  6  2        1 -.629249952124D-03 0.100000000000D+01
-.448724107782D-02 0.000000000000D+00 -.217939680391D-02 0.420626742918D-04 0.000000000000D+00  6 -1 1 25 2 -2 21 2 0.33786158D-01 0.60875627D+00 0.21917208D+06 0.21917208D+06 0.21917208D+06 0.10947851D+01  1  2  5  2  6  2        1 -.545380227228D-03 0.100000000000D+01
0.513662553833D-02 0.000000000000D+00 0.198351589751D-02 0.420626742918D-04 0.000000000000D+00  6 -1 1 25 2 -2 21 2 0.33786158D-01 0.39173155D+00 0.21917208D+06 0.21917208D+06 0.21917208D+06 0.10947851D+01  1  2  6  2  6  2        1 0.803264014298D-02 0.100000000000D+01
-.145070876472D-03 0.000000000000D+00 -.111506609236D-03 0.420626742918D-04 0.000000000000D+00  6 -1 21 25 2 -2 -1 2 0.33786158D-01 0.60875627D+00 0.21917208D+06 0.21917208D+06 0.21917208D+06 0.10947851D+01  1  2  5  6  6  2        1 -.150782577331D-05 0.100000000000D+01
  </mgrwgt>
  </event>
  <event>
  5     66 0.18829897E-05 0.22841628E+03 0.75467711E-02 0.90238939E-01
       -1 -1    0    0    0  501 0.00000000E+00 0.00000000E+00 0.14277388E+04 0.14277388E+04 0.32000000E+00 0.0000E+00 0.9000E+01
        1 -1    0    0  502    0 0.00000000E+00 0.00000000E+00 -.50143082E+03 0.50143093E+03 0.32000000E+00 0.0000E+00 0.9000E+01
       25  1    1    2    0    0 -.38362955E+03 -.43098295E+03 0.43270839E+03 0.73196959E+03 0.12500000E+03 0.0000E+00 0.9000E+01
        2  1    1    2  502    0 0.11437853E+03 -.19769259E+03 -.13750728E+03 0.26659550E+03 0.32000000E+00 0.0000E+00 0.9000E+01
       -2  1    1    2    0  501 0.26925102E+03 0.62867554E+03 0.63110686E+03 0.93060465E+03 0.32000000E+00 0.0000E+00 0.9000E+01
#aMCatNLO 1  0  0  4  2 0.30650101D+02 0.00000000D+00  -5  6  0 0.00000000D+00 0.00000000D+00 0.00000000D+00 0.00000000D+00 0.00000000D+00
  <mgrwgt>
 0.3446428291D-03    8    2    0
 0.846116049355915D+03 0.000000000000000D+00 0.000000000000000D+00 0.846116049355915D+03
 0.846116049355915D+03 -.000000000000000D+00 -.000000000000000D+00 -.846116049355915D+03
 0.597581107650918D+03 -.383636161787489D+03 -.430945168034027D+03 0.926700476874098D+02
 0.379236183227236D+03 0.114395593503920D+03 -.197705961260220D+03 -.302731041913148D+03
 0.715414807833677D+03 0.269240568283569D+03 0.628651129294247D+03 0.210060994225738D+03
 0.000000000000000D+00 0.000000000000000D+00 -.000000000000000D+00 0.000000000000000D+00
 0.846116049355915D+03 0.000000000000000D+00 0.000000000000000D+00 0.846116049355915D+03
 0.846116049355915D+03 -.000000000000000D+00 -.000000000000000D+00 -.846116049355915D+03
 0.597752532383495D+03 -.382786498130953D+03 -.432413612445371D+03 0.904215383161994D+02
 0.304527877126095D+03 0.939625020277060D+02 -.131945029549956D+03 -.257873584022638D+03
 0.713470652229720D+03 0.270256244580216D+03 0.626895770959129D+03 0.207373156922635D+03
 0.764810369725208D+02 0.185677515230309D+02 -.625371289638019D+02 -.399211112161960D+02
0.892448076454D-04 0.000000000000D+00 0.000000000000D+00 0.162961080899D-07 0.000000000000D+00  6 -1 1 25 2 -2 21 0 0.21965213D+00 0.77143214D-01 0.56448842D+06 0.56448842D+06 0.56448842D+06 0.10648067D+01  1  2  2  3  6  4        2 0.448023169231D-04 0.100000000000D+01
0.399406866193D-05 0.000000000000D+00 -.342723560056D-06 0.162961080899D-07 0.000000000000D+00  6 -1 1 25 2 -2 21 2 0.21965213D+00 0.77143214D-01 0.56448842D+06 0.56448842D+06 0.56448842D+06 0.10648067D+01  1  2  3  3  6  4        2 0.227339340900D-05 0.100000000000D+01
-.507250955987D-04 0.000000000000D+00 0.000000000000D+00 0.162961080899D-07 0.000000000000D+00  6 -1 1 25 2 -2 21 2 0.21965213D+00 0.77143214D-01 0.56448842D+06 0.56448842D+06 0.56448842D+06 0.10648067D+01  1  2 15  3  6  4        2 -.288723373997D-04 0.100000000000D+01
0.493374821025D-06 0.000000000000D+00 0.000000000000D+00 0.162961080899D-07 0.000000000000D+00  6 -1 1 25 2 -2 21 2 0.21965213D+00 0.77143214D-01 0.56307091D+06 0.56307091D+06 0.56307091D+06 0.10648831D+01  1  2 12  3  6  4        2 0.280911592032D-06 0.100000000000D+01
0.753131774908D-03 0.000000000000D+00 0.000000000000D+00 0.162961080899D-07 0.000000000000D+00  6 -1 1 25 2 -2 21 2 0.21965213D+00 0.77143214D-01 0.56307091D+06 0.56307091D+06 0.56307091D+06 0.10648831D+01  1  2 12  3  6  4        2 0.428808761379D-03 0.100000000000D+01
-.383075252984D-03 0.000000000000D+00 0.000000000000D+00 0.162961080899D-07 0.000000000000D+00  6 -1 1 25 2 -2 21 2 0.21965213D+00 0.77143214D-01 0.56448842D+06 0.56448842D+06 0.56448842D+06 0.10648067D+01  1  2  4  3  6  4        2 -.218043511266D-03 0.100000000000D+01
-.816020827347D-03 0.000000000000D+00 0.000000000000D+00 0.162961080899D-07 0.000000000000D+00  6 -1 1 25 2 -2 21 2 0.21965213D+00 0.77143214D-01 0.56448842D+06 0.56448842D+06 0.56448842D+06 0.10648067D+01  1  2  5  3  6  4        2 -.464472828968D-03 0.100000000000D+01
0.101875245287D-02 0.000000000000D+00 -.000000000000D+00 0.162961080899D-07 0.000000000000D+00  6 -1 1 25 2 -2 21 2 0.21965213D+00 0.77143214D-01 0.56448842D+06 0.56448842D+06 0.56448842D+06 0.10648067D+01  1  2  6  3  6  4        2 0.579866123441D-03 0.100000000000D+01
  </mgrwgt>
  </event>
  <event>
  5     66 0.18829897E-05 0.11886267E+02 0.75467711E-02 0.95220573E-01
       -1 -1    0    0    0  501 0.00000000E+00 0.00000000E+00 0.22218565E+03 0.22218588E+03 0.32000000E+00 0.0000E+00 0.9000E+01
        1 -1    0    0  502    0 -.00000000E+00 -.00000000E+00 -.29314654E+04 0.29314654E+04 0.32000000E+00 0.0000E+00 0.9000E+01
       25  1    1    2    0    0 0.13256550E+03 -.43534414E+03 -.72784615E+03 0.86745786E+03 0.12500000E+03 0.0000E+00 0.9000E+01
        2  1    1    2  502    0 -.12950574E+03 0.44683308E+03 -.21081744E+04 0.21588957E+04 0.32000000E+00 0.0000E+00 0.9000E+01
       -2  1    1    2    0  501 -.30597569E+01 -.11488940E+02 0.12674081E+03 0.12729766E+03 0.32000000E+00 0.0000E+00 0.9000E+01
#aMCatNLO 1  0  0  4  2 0.37599333D+02 0.00000000D+00  -5  6  0 0.00000000D+00 0.00000000D+00 0.00000000D+00 0.00000000D+00 0.00000000D+00
  <mgrwgt>
 0.2889078605D-01    6    2    0
 0.807050142514082D+03 0.000000000000000D+00 0.000000000000000D+00 0.807050142514082D+03
 0.807050142514082D+03 -.000000000000000D+00 -.000000000000000D+00 -.807050142514082D+03
 0.473244568095426D+03 0.132588506389219D+03 -.435426764306063D+03 0.340476450177419D+02
 0.679526118994268D+03 -.129529555909318D+03 0.446912675984063D+03 -.495224091282028D+03
 0.461329597938469D+03 -.305895047990072D+01 -.114859116780001D+02 0.461176446264286D+03
 0.000000000000000D+00 -.000000000000000D+00 0.000000000000000D+00 0.000000000000000D+00
 0.807050142514082D+03 0.000000000000000D+00 0.000000000000000D+00 0.807050142514082D+03
 0.807050142514082D+03 -.000000000000000D+00 -.000000000000000D+00 -.807050142514082D+03
 0.436057223403823D+03 0.122162430767542D+03 -.399453929199937D+03 -.581386604153435D+01
 0.376792085256359D+03 0.183258567748812D+03 0.183847132592292D+03 -.273109510446050D+03
 0.423257991437086D+03 -.132016524816416D+02 0.235092063202455D+02 0.422398343871401D+03
 0.377992984930896D+03 -.292219346034713D+03 0.192097590287400D+03 -.143474967383817D+03
0.276806882051D-01 0.000000000000D+00 0.000000000000D+00 0.850859335033D-04 0.000000000000D+00  6 -1 1 25 2 -2 21 0 0.34182427D-01 0.45099469D+00 0.22524970D+06 0.22524970D+06 0.22524970D+06 0.10938816D+01  1  2  2  3  6  4        2 0.187784191104D-01 0.100000000000D+01
0.262879322038D-01 0.000000000000D+00 -.106301131200D-03 0.850859335033D-04 0.000000000000D+00  6 -1 1 25 2 -2 21 2 0.34182427D-01 0.45099469D+00 0.22524970D+06 0.22524970D+06 0.22524970D+06 0.10938816D+01  1  2  3  3  6  4        2 0.213392535083D-01 0.100000000000D+01
-.196563974042D-01 0.000000000000D+00 0.000000000000D+00 0.850859335033D-04 0.000000000000D+00  6 -1 1 25 2 -2 21 2 0.34182427D-01 0.45099469D+00 0.22524970D+06 0.22524970D+06 0.22524970D+06 0.10938816D+01  1  2 15  3  6  4        2 -.159560989437D-01 0.100000000000D+01
-.970963355439D-03 0.000000000000D+00 0.000000000000D+00 0.850859335033D-04 0.000000000000D+00  6 -1 1 25 2 -2 21 2 0.34182427D-01 0.45099469D+00 0.22524970D+06 0.22524970D+06 0.22524970D+06 0.10938816D+01  1  2  4  3  6  4        2 -.788180410248D-03 0.100000000000D+01
-.101298796855D-01 0.000000000000D+00 0.000000000000D+00 0.850859335033D-04 0.000000000000D+00  6 -1 1 25 2 -2 21 2 0.34182427D-01 0.45099469D+00 0.22524970D+06 0.22524970D+06 0.22524970D+06 0.10938816D+01  1  2  5  3  6  4        2 -.822293929176D-02 0.100000000000D+01
0.169267832153D-01 0.000000000000D+00 -.000000000000D+00 0.850859335033D-04 0.000000000000D+00  6 -1 1 25 2 -2 21 2 0.34182427D-01 0.45099469D+00 0.22524970D+06 0.22524970D+06 0.22524970D+06 0.10938816D+01  1  2  6  3  6  4        2 0.137403320775D-01 0.100000000000D+01
  </mgrwgt>
  </event>
  <event>
  5     66 0.18829897E-05 0.32080273E+03 0.75467711E-02 0.85619223E-01
       -1 -1    0    0    0  501 0.00000000E+00 0.00000000E+00 0.17946059E+04 0.17946059E+04 0.32000000E+00 0.0000E+00 0.9000E+01
        1 -1    0    0  502    0 0.00000000E+00 0.00000000E+00 -.28376067E+04 0.28376067E+04 0.32000000E+00 0.0000E+00 0.9000E+01
       25  1    1    2    0    0 -.12573587E+03 -.64215894E+03 -.54151453E+02 0.66838237E+03 0.12500000E+03 0.0000E+00 0.9000E+01
        2  1    1    2  502    0 -.37031279E+02 0.36570550E+03 -.24451439E+04 0.24726182E+04 0.32000000E+00 0.0000E+00 0.9000E+01
       -2  1    1    2    0  501 0.16276714E+03 0.27645344E+03 0.14562946E+04 0.14912121E+04 0.32000000E+00 0.0000E+00 0.9000E+01
#aMCatNLO 1  0  0  2  4 0.86986705D-02 0.00000000D+00  -5  6  0 0.00000000D+00 0.00000000D+00 0.00000000D+00 0.00000000D+00 0.00000000D+00
  <mgrwgt>
 0.1328310967D-03    7    2    0
 0.225663153627818D+04 0.000000000000000D+00 0.000000000000000D+00 0.225663153627818D+04
 0.225663153627818D+04 0.000000000000000D+00 0.000000000000000D+00 -.225663153627818D+04
 0.673508166572824D+03 -.125730029687360D+03 -.642175509613531D+03 0.989485974014012D+02
 0.197274369096867D+04 -.370329583706612D+02 0.365729131998666D+03 -.193819205247017D+04
 0.186701121501486D+04 0.162762988058021D+03 0.276446377614865D+03 0.183924345506877D+04
 0.000000000000000D+00 0.000000000000000D+00 -.000000000000000D+00 -.000000000000000D+00
 0.239815020813033D+04 0.000000000000000D+00 0.000000000000000D+00 0.239815020813033D+04
 0.308812489948085D+04 0.000000000000000D+00 0.000000000000000D+00 -.308812489948085D+04
 0.591747296531518D+03 -.128452503716374D+03 -.555201758204754D+03 0.989485974014012D+02
 0.204217341842628D+04 -.456719311929205D+02 0.641714822463583D+03 -.193819205247017D+04
 0.192223916248210D+04 0.154609586596424D+03 0.536919720720955D+03 0.183924345506877D+04
 0.930115230171281D+03 0.195148483128709D+02 -.623432784979784D+03 -.689974691350524D+03
0.253635331840D-01 0.000000000000D+00 0.000000000000D+00 0.809598375294D-04 0.000000000000D+00  6 -1 1 25 2 -2 21 0 0.27609322D+00 0.43655488D+00 0.45873665D+06 0.45873665D+06 0.45873665D+06 0.10711642D+01  1  2  2  2  6  2        1 0.796181171852D-04 0.100000000000D+01
0.331960298380D-02 0.000000000000D+00 -.974026457982D-04 0.809598375294D-04 0.000000000000D+00  6 -1 1 25 2 -2 21 2 0.27609322D+00 0.43655488D+00 0.45873665D+06 0.45873665D+06 0.45873665D+06 0.10711642D+01  1  2  3  2  6  2        1 0.119563983389D-04 0.100000000000D+01
-.171404742596D-01 0.000000000000D+00 0.000000000000D+00 0.809598375294D-04 0.000000000000D+00  6 -1 1 25 2 -2 21 2 0.27609322D+00 0.43655488D+00 0.45873665D+06 0.45873665D+06 0.45873665D+06 0.10711642D+01  1  2 15  2  6  2        1 -.617357976137D-04 0.100000000000D+01
-.836530543414D-03 0.000000000000D+00 0.000000000000D+00 0.809598375294D-04 0.000000000000D+00  6 -1 1 25 2 -2 21 2 0.27609322D+00 0.43655488D+00 0.45873665D+06 0.45873665D+06 0.45873665D+06 0.10711642D+01  1  2  4  2  6  2        1 -.301297849427D-05 0.100000000000D+01
-.300273846254D-01 0.000000000000D+00 -.136103046081D-01 0.809598375294D-04 0.000000000000D+00  6 -1 1 25 2 -2 21 2 0.27609322D+00 0.60435639D+00 0.45873665D+06 0.45873665D+06 0.45873665D+06 0.10711642D+01  1  2  5  2  6  2        1 -.141255342031D-04 0.100000000000D+01
0.333632909941D-01 0.000000000000D+00 0.129208271397D-01 0.809598375294D-04 0.000000000000D+00  6 -1 1 25 2 -2 21 2 0.27609322D+00 0.43655488D+00 0.45873665D+06 0.45873665D+06 0.45873665D+06 0.10711642D+01  1  2  6  2  6  2        1 0.120166417180D-03 0.100000000000D+01
-.885088651759D-03 0.000000000000D+00 -.557680720238D-03 0.809598375294D-04 0.000000000000D+00  6 -1 21 25 2 -2 -1 2 0.27609322D+00 0.60435639D+00 0.45873665D+06 0.45873665D+06 0.45873665D+06 0.10711642D+01  1  2  5  6  6  2        1 -.355256804844D-07 0.100000000000D+01
  </mgrwgt>
  </event>
  <event>
  5     66 0.18829897E-05 0.68348591E+02 0.75467711E-02 0.89511494E-01
       -3 -1    0    0    0  501 0.00000000E+00 0.00000000E+00 0.20368856E+03 0.20368918E+03 0.50000000E+00 0.0000E+00 0.9000E+01
        3 -1    0    0  502    0 0.00000000E+00 0.00000000E+00 -.52047819E+04 0.52047819E+04 0.50000000E+00 0.0000E+00 0.9000E+01
       25  1    1    2    0    0 0.12348952E+03 -.70707622E+03 -.15590173E+04 0.17208621E+04 0.12500000E+03 0.0000E+00 0.9000E+01
        4  1    1    2  502    0 0.19150990E+02 0.65562748E+02 -.26817883E+04 0.26826584E+04 0.15500000E+01 0.0000E+00 0.9000E+01
       -4  1    1    2    0  501 -.14264051E+03 0.64151347E+03 -.76028773E+03 0.10049506E+04 0.15500000E+01 0.0000E+00 0.9000E+01
#aMCatNLO 1  0  0  2  1 0.12112652D+03 0.00000000D+00  -5  6  0 0.00000000D+00 0.00000000D+00 0.00000000D+00 0.00000000D+00 0.00000000D+00
  <mgrwgt>
 0.1562502459D-04    7    2    0
 0.102963890464915D+04 0.000000000000000D+00 0.000000000000000D+00 0.102963890464915D+04
 0.102963890464915D+04 0.000000000000000D+00 0.000000000000000D+00 -.102963890464915D+04
 0.733361801630329D+03 0.123428880786463D+03 -.706896173660387D+03 0.851918020855746D+02
 0.533210619003913D+03 0.191616180185787D+02 0.656076393030904D+02 -.528811908223067D+03
 0.792705388664061D+03 -.142590498805041D+03 0.641288534357296D+03 0.443620106137492D+03
 0.000000000000000D+00 0.000000000000000D+00 -.000000000000000D+00 -.000000000000000D+00
 0.107169394778657D+04 0.000000000000000D+00 0.000000000000000D+00 0.107169394778657D+04
 0.112508821458535D+04 0.000000000000000D+00 0.000000000000000D+00 -.112508821458535D+04
 0.692194584595339D+03 0.111221182286017D+03 -.666243610409456D+03 0.851918020855746D+02
 0.537573607795113D+03 0.999199756294421D+01 0.961431719054158D+02 -.528811908223067D+03
 0.833164166653894D+03 -.156513571595537D+03 0.687653424286571D+03 0.443620106137492D+03
 0.133849803327568D+03 0.353003917465753D+02 -.117552985782531D+03 -.533942667987780D+02
0.836428817628D-02 0.000000000000D+00 0.000000000000D+00 0.551119668316D-05 0.000000000000D+00  6 -3 3 25 4 -4 21 0 0.31336751D-01 0.80073573D+00 0.52830742D+06 0.52830742D+06 0.52830742D+06 0.10668242D+01  1  2  2  2  6  2        3 0.394050261326D-05 0.100000000000D+01
0.299256304505D-02 0.000000000000D+00 -.321210689646D-04 0.551119668316D-05 0.000000000000D+00  6 -3 3 25 4 -4 21 2 0.31336751D-01 0.80073573D+00 0.52830742D+06 0.52830742D+06 0.52830742D+06 0.10668242D+01  1  2  3  2  6  2        3 0.160454406323D-05 0.100000000000D+01
-.545089484779D-02 0.000000000000D+00 0.000000000000D+00 0.551119668316D-05 0.000000000000D+00  6 -3 3 25 4 -4 21 2 0.31336751D-01 0.80073573D+00 0.52830742D+06 0.52830742D+06 0.52830742D+06 0.10668242D+01  1  2 15  2  6  2        3 -.292264551679D-05 0.100000000000D+01
-.294221061221D-03 0.000000000000D+00 0.000000000000D+00 0.551119668316D-05 0.000000000000D+00  6 -3 3 25 4 -4 21 2 0.31336751D-01 0.80073573D+00 0.52830742D+06 0.52830742D+06 0.52830742D+06 0.10668242D+01  1  2  4  2  6  2        3 -.157754623697D-06 0.100000000000D+01
-.241255859543D-01 0.000000000000D+00 -.482134303479D-02 0.551119668316D-05 0.000000000000D+00  6 -3 3 25 4 -4 21 2 0.31336751D-01 0.87717392D+00 0.52830742D+06 0.52830742D+06 0.52830742D+06 0.10668242D+01  1  2  5  2  6  2        3 -.258037932572D-05 0.100000000000D+01
0.293609280450D-01 0.000000000000D+00 0.673306204745D-02 0.551119668316D-05 0.000000000000D+00  6 -3 3 25 4 -4 21 2 0.31336751D-01 0.80073573D+00 0.52830742D+06 0.52830742D+06 0.52830742D+06 0.10668242D+01  1  2  6  2  6  2        3 0.157426600798D-04 0.100000000000D+01
-.348240150892D-03 0.000000000000D+00 -.722660827232D-04 0.551119668316D-05 0.000000000000D+00  6 -3 21 25 4 -4 -3 2 0.31336751D-01 0.87717392D+00 0.52830742D+06 0.52830742D+06 0.52830742D+06 0.10668242D+01  1  2  5  6  6  2        3 -.190270246766D-08 0.100000000000D+01
  </mgrwgt>
  </event>
  <event>
  5     66 0.18829897E-05 0.16528036E+03 0.75467711E-02 0.94665871E-01
       -1 -1    0    0    0  501 0.00000000E+00 0.00000000E+00 0.10147769E+04 0.10147770E+04 0.32000000E+00 0.0000E+00 0.9000E+01
        1 -1    0    0  502    0 0.00000000E+00 0.00000000E+00 -.89505123E+03 0.89505129E+03 0.32000000E+00 0.0000E+00 0.9000E+01
       25  1    1    2    0    0 -.17933408E+03 -.45425270E+03 -.33936404E+03 0.60769991E+03 0.12500000E+03 0.0000E+00 0.9000E+01
        2  1    1    2  502    0 0.87047769E+02 0.14047971E+03 -.37305223E+03 0.40801952E+03 0.32000000E+00 0.0000E+00 0.9000E+01
       -2  1    1    2    0  501 0.92286310E+02 0.31377299E+03 0.83214197E+03 0.89410884E+03 0.32000000E+00 0.0000E+00 0.9000E+01
#aMCatNLO 1  0  0  2  1 0.12112652D+03 0.00000000D+00  -5  6  0 0.00000000D+00 0.00000000D+00 0.00000000D+00 0.00000000D+00 0.00000000D+00
  <mgrwgt>
 0.2957186837D-03    1    2    0
 0.953035908445776D+03 0.000000000000000D+00 0.000000000000000D+00 0.953035908445776D+03
 0.953035908445776D+03 0.000000000000000D+00 0.000000000000000D+00 -.953035908445776D+03
 0.630192046568180D+03 -.179340538745482D+03 -.454261724418892D+03 -.378153768258689D+03
 0.432294874730045D+03 0.870560673850819D+02 0.140494982306911D+03 -.399451198265683D+03
 0.843584895593327D+03 0.922844713604005D+02 0.313766742111981D+03 0.777604966524372D+03
 0.000000000000000D+00 0.000000000000000D+00 0.000000000000000D+00 -.000000000000000D+00
 0.122569399698190D+04 0.000000000000000D+00 0.000000000000000D+00 0.122569399698190D+04
 0.259238212369371D+04 0.000000000000000D+00 0.000000000000000D+00 -.259238212369371D+04
 0.827323579370546D+03 -.527226868995078D+03 -.497866308504494D+03 -.378153768258689D+03
 0.432364389372737D+03 -.119324662228913D+03 0.114626918242293D+03 -.399451198265683D+03
 0.880523237396139D+03 -.319233347498581D+03 0.262186493694960D+03 0.777604966524372D+03
 0.167786491453619D+04 0.965784878722573D+03 0.121052896567241D+03 -.136668812671181D+04
0.343445101231D-03 0.000000000000D+00 0.000000000000D+00 0.737296257729D-05 0.000000000000D+00  6 -1 1 25 2 -2 21 2 0.15611954D+00 0.13770020D+00 0.24823396D+06 0.24823396D+06 0.24823396D+06 0.10906908D+01  1  2 14  2  6  2        1 0.295718683731D-03 0.100000000000D+01
  </mgrwgt>
  </event>
  <event>
  5     66 0.18829897E-05 0.24263734E+03 0.75467711E-02 0.92180406E-01
       -1 -1    0    0    0  501 0.00000000E+00 0.00000000E+00 0.24258813E+03 0.24258835E+03 0.32000000E+00 0.0000E+00 0.9000E+01
        1 -1    0    0  502    0 -.00000000E+00 -.00000000E+00 -.18685785E+04 0.18685785E+04 0.32000000E+00 0.0000E+00 0.9000E+01
       25  1    1    2    0    0 0.55146036E+03 -.27474775E+03 -.90762200E+03 0.11040822E+04 0.12500000E+03 0.0000E+00 0.9000E+01
        2  1    1    2  502    0 -.24071778E+03 0.29835076E+02 -.49864908E+03 0.55451438E+03 0.32000000E+00 0.0000E+00 0.9000E+01
       -2  1    1    2    0  501 -.31074258E+03 0.24491268E+03 -.21971924E+03 0.45257024E+03 0.32000000E+00 0.0000E+00 0.9000E+01
#aMCatNLO 1  0  0  4  4 0.48909246D+02 0.00000000D+00  -5  6  0 0.00000000D+00 0.00000000D+00 0.00000000D+00 0.00000000D+00 0.00000000D+00
  <mgrwgt>
 0.1113892623D-04    4    2    0
 0.673272022486984D+03 0.000000000000000D+00 0.000000000000000D+00 0.673272022486984D+03
 0.673272022486984D+03 -.000000000000000D+00 -.000000000000000D+00 -.673272022486984D+03
 0.635033299247115D+03 0.551474317077339D+03 -.274726685119025D+03 -.896862154417892D+02
 0.267357162624769D+03 -.240792718878695D+03 0.298620715854673D+02 -.112280789195646D+03
 0.444153583102084D+03 -.310681598198643D+03 0.244864613533558D+03 0.201967004637435D+03
 0.000000000000000D+00 0.000000000000000D+00 -.000000000000000D+00 0.000000000000000D+00
 0.673272022486984D+03 0.000000000000000D+00 0.000000000000000D+00 0.673272022486984D+03
 0.673272022486984D+03 -.000000000000000D+00 -.000000000000000D+00 -.673272022486984D+03
 0.607080561153596D+03 0.518298142869031D+03 -.270612319478096D+03 -.105156147589022D+03
 0.526858450243484D+02 0.100670807690845D+02 0.379400590318890D+02 0.351426247081115D+02
 0.458134766333832D+03 -.334781220963786D+03 0.247853344519888D+03 0.190729436176111D+03
 0.228642872462191D+03 -.193584002674329D+03 -.151810840736811D+02 -.120715913295201D+03
0.216975855628D-04 0.000000000000D+00 0.000000000000D+00 0.996266730873D-08 0.000000000000D+00  6 -1 1 25 2 -2 21 0 0.37321270D-01 0.28747363D+00 0.40124828D+06 0.40124828D+06 0.40124828D+06 0.10753301D+01  1  2  2  3  6  4        2 0.662036285330D-04 0.100000000000D+01
0.354094775270D-06 0.000000000000D+00 -.833244416666D-07 0.996266730873D-08 0.000000000000D+00  6 -1 1 25 2 -2 21 2 0.37321270D-01 0.28747363D+00 0.40124828D+06 0.40124828D+06 0.40124828D+06 0.10753301D+01  1  2  3  3  6  4        2 0.124931943370D-05 0.100000000000D+01
-.134416810766D-04 0.000000000000D+00 0.000000000000D+00 0.996266730873D-08 0.000000000000D+00  6 -1 1 25 2 -2 21 2 0.37321270D-01 0.28747363D+00 0.40124828D+06 0.40124828D+06 0.40124828D+06 0.10753301D+01  1  2 15  3  6  4        2 -.474250244944D-04 0.100000000000D+01
-.251940968584D-05 0.000000000000D+00 0.000000000000D+00 0.996266730873D-08 0.000000000000D+00  6 -1 1 25 2 -2 21 2 0.37321270D-01 0.28747363D+00 0.40124828D+06 0.40124828D+06 0.40124828D+06 0.10753301D+01  1  2  4  3  6  4        2 -.888899724535D-05 0.100000000000D+01
  </mgrwgt>
  </event>
  <event>
  5     66 0.18829897E-05 0.36825266E+02 0.75467711E-02 0.93344475E-01
       -1 -1    0    0    0  501 0.00000000E+00 0.00000000E+00 0.22503131E+03 0.22503154E+03 0.32000000E+00 0.0000E+00 0.9000E+01
        1 -1    0    0  502    0 -.00000000E+00 -.00000000E+00 -.20519838E+04 0.20519838E+04 0.32000000E+00 0.0000E+00 0.9000E+01
       25  1    1    2    0    0 0.36942285E+03 0.35613007E+03 -.65646876E+03 0.84254264E+03 0.12500000E+03 0.0000E+00 0.9000E+01
        2  1    1    2  502    0 -.40624493E+03 -.35774521E+03 -.12415461E+04 0.13544200E+04 0.32000000E+00 0.0000E+00 0.9000E+01
       -2  1    1    2    0  501 0.36822085E+02 0.16151387E+01 0.71062402E+02 0.80052745E+02 0.32000000E+00 0.0000E+00 0.9000E+01
#aMCatNLO 1  0  0  5  4 0.20532701D+02 0.00000000D+00  -5  6  0 0.00000000D+00 0.00000000D+00 0.00000000D+00 0.00000000D+00 0.00000000D+00
  <mgrwgt>
 0.2091571475D-02    7    2    0
 0.679529905619288D+03 0.000000000000000D+00 0.000000000000000D+00 0.679529905619288D+03
 0.679529905619288D+03 -.000000000000000D+00 -.000000000000000D+00 -.679529905619288D+03
 0.529288283948509D+03 0.369532890270942D+03 0.356212809726687D+03 0.328475983867898D+02
 0.600321888685355D+03 -.406322781873104D+03 -.357826536283927D+03 -.259322842990550D+03
 0.229449638604713D+03 0.367898916021617D+02 0.161372655723973D+01 0.226475244603760D+03
 0.000000000000000D+00 0.000000000000000D+00 0.000000000000000D+00 0.000000000000000D+00
 0.679529905619288D+03 0.000000000000000D+00 0.000000000000000D+00 0.679529905619288D+03
 0.679529905619288D+03 -.000000000000000D+00 -.000000000000000D+00 -.679529905619288D+03
 0.529551899566761D+03 0.369768659266384D+03 0.356223151336101D+03 0.342989709945172D+02
 0.599425345583395D+03 -.406055637497011D+03 -.357814818446349D+03 -.257678326377822D+03
 0.130950240394225D+03 0.358025492191104D+02 0.146259234633640D+02 0.125108853769677D+03
 0.991323256941952D+02 0.484429011516593D+00 -.130342563531162D+02 0.982705016136279D+02
0.275754904764D-03 0.000000000000D+00 0.000000000000D+00 0.371991073780D-05 0.000000000000D+00  6 -1 1 25 2 -2 21 0 0.34620221D-01 0.31568983D+00 0.30609416D+06 0.30609416D+06 0.30609416D+06 0.10839063D+01  1  2  2  4  6  5       -2 0.733058845440D-03 0.100000000000D+01
0.100641672830D-03 0.000000000000D+00 -.105897144223D-05 0.371991073780D-05 0.000000000000D+00  6 -1 1 25 2 -2 21 2 0.34620221D-01 0.31568983D+00 0.30609416D+06 0.30609416D+06 0.30609416D+06 0.10839063D+01  1  2  3  4  6  5       -2 0.314323545941D-03 0.100000000000D+01
-.188049651742D-03 0.000000000000D+00 0.000000000000D+00 0.371991073780D-05 0.000000000000D+00  6 -1 1 25 2 -2 21 2 0.34620221D-01 0.31568983D+00 0.30609416D+06 0.30609416D+06 0.30609416D+06 0.10839063D+01  1  2 15  4  6  5       -2 -.587315688289D-03 0.100000000000D+01
0.176468165661D-07 0.000000000000D+00 0.000000000000D+00 0.371991073780D-05 0.000000000000D+00  6 -1 1 25 2 -2 21 2 0.34620221D-01 0.31568983D+00 0.31436882D+06 0.31436882D+06 0.31436882D+06 0.10830518D+01  1  2 12  4  6  5       -2 0.549519053929D-07 0.100000000000D+01
-.765745081792D-03 0.000000000000D+00 0.000000000000D+00 0.371991073780D-05 0.000000000000D+00  6 -1 1 25 2 -2 21 2 0.34620221D-01 0.31568983D+00 0.30609416D+06 0.30609416D+06 0.30609416D+06 0.10839063D+01  1  2  4  4  6  5       -2 -.239157103244D-02 0.100000000000D+01
-.167573548860D-02 0.000000000000D+00 0.000000000000D+00 0.371991073780D-05 0.000000000000D+00  6 -1 1 25 2 -2 21 2 0.34620221D-01 0.31568983D+00 0.30609416D+06 0.30609416D+06 0.30609416D+06 0.10839063D+01  1  2  5  4  6  5       -2 -.523364830914D-02 0.100000000000D+01
0.296384627020D-02 0.000000000000D+00 -.000000000000D+00 0.371991073780D-05 0.000000000000D+00  6 -1 1 25 2 -2 21 2 0.34620221D-01 0.31568983D+00 0.30609416D+06 0.30609416D+06 0.30609416D+06 0.10839063D+01  1  2  6  4  6  5       -2 0.925666916177D-02 0.100000000000D+01
  </mgrwgt>
  </event>
  <event>
  5     66 0.18829897E-05 0.69070494E+02 0.75467711E-02 0.93602786E-01
       -1 -1    0    0    0  501 0.00000000E+00 0.00000000E+00 0.35659737E+03 0.35659751E+03 0.32000000E+00 0.0000E+00 0.9000E+01
        1 -1    0    0  502    0 0.00000000E+00 0.00000000E+00 -.19631492E+04 0.19631492E+04 0.32000000E+00 0.0000E+00 0.9000E+01
       25  1    1    2    0    0 -.49630020E+03 -.65388072E+02 -.87765817E+03 0.10180856E+04 0.12500000E+03 0.0000E+00 0.9000E+01
        2  1    1    2  502    0 0.44510556E+03 0.11177159E+03 -.95806219E+03 0.10623065E+04 0.32000000E+00 0.0000E+00 0.9000E+01
       -2  1    1    2    0  501 0.51194638E+02 -.46383520E+02 0.22916852E+03 0.23935462E+03 0.32000000E+00 0.0000E+00 0.9000E+01
#aMCatNLO 1  0  0  1  1 0.70732741D+02 0.00000000D+00  -5  6  0 0.00000000D+00 0.00000000D+00 0.00000000D+00 0.00000000D+00 0.00000000D+00
  <mgrwgt>
 0.2962266457D-02    7    4    0
 0.836692324308519D+03 0.000000000000000D+00 0.000000000000000D+00 0.836692324308519D+03
 0.836692324308519D+03 0.000000000000000D+00 0.000000000000000D+00 -.836692324308519D+03
 0.568764447264878D+03 -.496373079787792D+03 -.654079554547858D+02 -.239172660431181D+03
 0.552888512343734D+03 0.445186963686256D+03 0.111783753874278D+03 -.308218537429622D+03
 0.551731689008425D+03 0.511861161015360D+02 -.463757984194923D+02 0.547391197860803D+03
 0.000000000000000D+00 0.000000000000000D+00 -.000000000000000D+00 0.000000000000000D+00
 0.996647725297194D+03 0.000000000000000D+00 0.000000000000000D+00 0.996647725297194D+03
 0.845295696802222D+03 0.000000000000000D+00 0.000000000000000D+00 -.845295696802222D+03
 0.580193646379228D+03 -.511507710226878D+03 -.464324044127830D+02 -.239172660431181D+03
 0.545342505676727D+03 0.430720534765629D+03 0.129921524828362D+03 -.308218537429622D+03
 0.549342739957024D+03 0.366822323998545D+02 -.281910672761562D+02 0.547391197860803D+03
 0.167064530086437D+03 0.441049430613940D+02 -.552980531394231D+02 0.151352028494971D+03
 0.836692324308519D+03 0.000000000000000D+00 0.000000000000000D+00 0.836692324308519D+03
 0.836692324308519D+03 0.000000000000000D+00 0.000000000000000D+00 -.836692324308519D+03
 0.568764447264878D+03 -.496373079787792D+03 -.654079554547858D+02 -.239172660431181D+03
 0.552888512343734D+03 0.445186963686256D+03 0.111783753874278D+03 -.308218537429622D+03
 0.000000000000000D+00 0.000000000000000D+00 -.000000000000000D+00 0.000000000000000D+00
 0.551731689008425D+03 0.511861161015360D+02 -.463757984194923D+02 0.547391197860803D+03
 0.996647725297194D+03 0.000000000000000D+00 0.000000000000000D+00 0.996647725297194D+03
 0.845295696802222D+03 0.000000000000000D+00 0.000000000000000D+00 -.845295696802222D+03
 0.580193646379228D+03 -.511507710226878D+03 -.464324044127830D+02 -.239172660431181D+03
 0.545342505676727D+03 0.430720534765629D+03 0.129921524828362D+03 -.308218537429622D+03
 0.167064530086437D+03 0.441049430613940D+02 -.552980531394231D+02 0.151352028494971D+03
 0.549342739957024D+03 0.366822323998545D+02 -.281910672761562D+02 0.547391197860803D+03
0.690101536916D-03 0.000000000000D+00 0.000000000000D+00 0.102007931453D-04 0.000000000000D+00  6 -1 1 25 2 -2 21 0 0.54861147D-01 0.30202297D+00 0.27254115D+06 0.27254115D+06 0.27254115D+06 0.10876498D+01  1  2  2  1  6  1       -1 0.932253557201D-03 0.100000000000D+01
0.211699608476D-03 0.000000000000D+00 -.265017160966D-05 0.102007931453D-04 0.000000000000D+00  6 -1 1 25 2 -2 21 2 0.54861147D-01 0.30202297D+00 0.27254115D+06 0.27254115D+06 0.27254115D+06 0.10876498D+01  1  2  3  1  6  1       -1 0.338313432376D-03 0.100000000000D+01
-.413010922058D-03 0.000000000000D+00 0.000000000000D+00 0.102007931453D-04 0.000000000000D+00  6 -1 1 25 2 -2 21 2 0.54861147D-01 0.30202297D+00 0.27254115D+06 0.27254115D+06 0.27254115D+06 0.10876498D+01  1  2 15  1  6  1       -1 -.660025512829D-03 0.100000000000D+01
-.266380421448D-03 0.000000000000D+00 0.000000000000D+00 0.102007931453D-04 0.000000000000D+00  6 -1 1 25 2 -2 21 2 0.54861147D-01 0.30202297D+00 0.27254115D+06 0.27254115D+06 0.27254115D+06 0.10876498D+01  1  2  4  1  6  1       -1 -.425697880815D-03 0.100000000000D+01
-.121966871217D-01 0.000000000000D+00 -.112292504016D-02 0.102007931453D-04 0.000000000000D+00  6 -1 1 25 2 -2 21 2 0.65719714D-01 0.30202297D+00 0.27254115D+06 0.27254115D+06 0.27254115D+06 0.10876498D+01  1  2  5  1  6  1       -1 -.138571289052D-01 0.100000000000D+01
0.122177687007D-01 0.000000000000D+00 0.110485906690D-02 0.102007931453D-04 0.000000000000D+00  6 -1 1 25 2 -2 21 2 0.54861147D-01 0.30202297D+00 0.27254115D+06 0.27254115D+06 0.27254115D+06 0.10876498D+01  1  2  6  1  6  1       -1 0.195250019350D-01 0.100000000000D+01
-.311670312593D-03 0.000000000000D+00 -.296922527049D-04 0.102007931453D-04 0.000000000000D+00  6 21 1 25 2 1 -2 2 0.65719714D-01 0.30202297D+00 0.27254115D+06 0.27254115D+06 0.27254115D+06 0.10876498D+01  3  4  5  5  5  1       -1 -.289045016878D-02 0.100000000000D+01
  </mgrwgt>
  </event>
  <event>
  5     66 0.18829897E-05 0.15803367E+02 0.75467711E-02 0.94673121E-01
       -1 -1    0    0    0  501 0.00000000E+00 0.00000000E+00 0.34716889E+03 0.34716904E+03 0.32000000E+00 0.0000E+00 0.9000E+01
        1 -1    0    0  502    0 0.00000000E+00 0.00000000E+00 -.12374698E+04 0.12374698E+04 0.32000000E+00 0.0000E+00 0.9000E+01
       25  1    1    2    0    0 -.29825948E+03 -.38775302E+03 -.65439681E+03 0.82654178E+03 0.12500000E+03 0.0000E+00 0.9000E+01
        2  1    1    2  502    0 0.14210151E+02 0.69180299E+01 -.28046719E+03 0.28091232E+03 0.32000000E+00 0.0000E+00 0.9000E+01
       -2  1    1    2    0  501 0.28404933E+03 0.38083499E+03 0.44563116E+02 0.47718475E+03 0.32000000E+00 0.0000E+00 0.9000E+01
#aMCatNLO 1  0  0  1  5 0.83974123D+01 0.00000000D+00  -5  6  0 0.00000000D+00 0.00000000D+00 0.00000000D+00 0.00000000D+00 0.00000000D+00
  <mgrwgt>
 0.4493470882D-02    7    4    0
 0.655447295974213D+03 0.000000000000000D+00 0.000000000000000D+00 0.655447295974213D+03
 0.655447295974213D+03 0.000000000000000D+00 0.000000000000000D+00 -.655447295974213D+03
 0.554721280928045D+03 -.298261860132019D+03 -.387757433331393D+03 -.229727523821784D+03
 0.149068743539785D+03 0.142089159226806D+02 0.691759452993222D+01 -.148228687826452D+03
 0.607104567480597D+03 0.284052944209339D+03 0.380839838801461D+03 0.377956211648236D+03
 0.000000000000000D+00 0.000000000000000D+00 -.000000000000000D+00 0.000000000000000D+00
 0.853992474511650D+03 0.000000000000000D+00 0.000000000000000D+00 0.853992474511650D+03
 0.784875792220621D+03 0.000000000000000D+00 0.000000000000000D+00 -.784875792220621D+03
 0.516832269728781D+03 -.345749768535191D+03 -.281376895621472D+03 -.229727523821784D+03
 0.152750338124702D+03 0.833236381861695D+00 0.368812638014322D+02 -.148228687826452D+03
 0.672671922433750D+03 0.227337245127075D+03 0.507892108902337D+03 0.377956211648236D+03
 0.296613736445038D+03 0.117579287026254D+03 -.263396477082297D+03 0.691166822910290D+02
 0.655447295974213D+03 0.000000000000000D+00 0.000000000000000D+00 0.655447295974213D+03
 0.655447295974213D+03 0.000000000000000D+00 0.000000000000000D+00 -.655447295974213D+03
 0.554721280928045D+03 -.298261860132019D+03 -.387757433331393D+03 -.229727523821784D+03
 0.149068743539785D+03 0.142089159226806D+02 0.691759452993222D+01 -.148228687826452D+03
 0.000000000000000D+00 0.000000000000000D+00 -.000000000000000D+00 0.000000000000000D+00
 0.607104567480597D+03 0.284052944209339D+03 0.380839838801461D+03 0.377956211648236D+03
 0.853992474511650D+03 0.000000000000000D+00 0.000000000000000D+00 0.853992474511650D+03
 0.784875792220621D+03 0.000000000000000D+00 0.000000000000000D+00 -.784875792220621D+03
 0.516832269728781D+03 -.345749768535191D+03 -.281376895621472D+03 -.229727523821784D+03
 0.152750338124702D+03 0.833236381861695D+00 0.368812638014322D+02 -.148228687826452D+03
 0.296613736445038D+03 0.117579287026254D+03 -.263396477082297D+03 0.691166822910290D+02
 0.672671922433750D+03 0.227337245127075D+03 0.507892108902337D+03 0.377956211648236D+03
0.538119961726D-03 0.000000000000D+00 0.000000000000D+00 0.116963551538D-04 0.000000000000D+00  6 -1 1 25 2 -2 21 0 0.53410613D-01 0.19037998D+00 0.24791709D+06 0.24791709D+06 0.24791709D+06 0.10907326D+01  1  2  2  1  6  1       -1 0.235982230476D-02 0.100000000000D+01
0.284198952865D-03 0.000000000000D+00 -.206652234327D-05 0.116963551538D-04 0.000000000000D+00  6 -1 1 25 2 -2 21 2 0.53410613D-01 0.19037998D+00 0.24791709D+06 0.24791709D+06 0.24791709D+06 0.10907326D+01  1  2  3  1  6  1       -1 0.148272028779D-02 0.100000000000D+01
-.342541883560D-03 0.000000000000D+00 0.000000000000D+00 0.116963551538D-04 0.000000000000D+00  6 -1 1 25 2 -2 21 2 0.53410613D-01 0.19037998D+00 0.24791709D+06 0.24791709D+06 0.24791709D+06 0.10907326D+01  1  2 15  1  6  1       -1 -.178710651483D-02 0.100000000000D+01
-.212332528235D-04 0.000000000000D+00 0.000000000000D+00 0.116963551538D-04 0.000000000000D+00  6 -1 1 25 2 -2 21 2 0.53410613D-01 0.19037998D+00 0.24791709D+06 0.24791709D+06 0.24791709D+06 0.10907326D+01  1  2  4  1  6  1       -1 -.110777940664D-03 0.100000000000D+01
-.710715893557D-03 0.000000000000D+00 -.447116960395D-03 0.116963551538D-04 0.000000000000D+00  6 -1 1 25 2 -2 21 2 0.81993282D-01 0.19037998D+00 0.24791709D+06 0.24791709D+06 0.24791709D+06 0.10907326D+01  1  2  5  1  6  1       -1 -.161626193956D-02 0.100000000000D+01
0.860267459030D-03 0.000000000000D+00 0.408969900399D-03 0.116963551538D-04 0.000000000000D+00  6 -1 1 25 2 -2 21 2 0.53410613D-01 0.19037998D+00 0.24791709D+06 0.24791709D+06 0.24791709D+06 0.10907326D+01  1  2  6  1  6  1       -1 0.448817985277D-02 0.100000000000D+01
-.188793689408D-04 0.000000000000D+00 -.223994534550D-04 0.116963551538D-04 0.000000000000D+00  6 21 1 25 2 1 -2 2 0.81993282D-01 0.19037998D+00 0.24791709D+06 0.24791709D+06 0.24791709D+06 0.10907326D+01  3  4  5  5  5  1       -1 -.323105168458D-03 0.100000000000D+01
  </mgrwgt>
  </event>
  <event>
  5     66 0.18829897E-05 0.15352476E+03 0.75467711E-02 0.90120465E-01
       -1 -1    0    0    0  501 0.00000000E+00 0.00000000E+00 0.15854319E+04 0.15854320E+04 0.32000000E+00 0.0000E+00 0.9000E+01
        1 -1    0    0  502    0 0.00000000E+00 0.00000000E+00 -.56401040E+03 0.56401050E+03 0.32000000E+00 0.0000E+00 0.9000E+01
       25  1    1    2    0    0 -.60094594E+03 0.17936955E+03 0.30113797E+03 0.70683699E+03 0.12500000E+03 0.0000E+00 0.9000E+01
        2  1    1    2  502    0 0.52014103E+03 -.30995803E+03 -.95075144E+02 0.61291113E+03 0.32000000E+00 0.0000E+00 0.9000E+01
       -2  1    1    2    0  501 0.80804907E+02 0.13058848E+03 0.81535869E+03 0.82969433E+03 0.32000000E+00 0.0000E+00 0.9000E+01
#aMCatNLO 1  0  0  1  2 0.12296445D+03 0.00000000D+00  -5  6  0 0.00000000D+00 0.00000000D+00 0.00000000D+00 0.00000000D+00 0.00000000D+00
  <mgrwgt>
 0.7918875825D-03    9    4    0
 0.945621612934191D+03 0.000000000000000D+00 0.000000000000000D+00 0.945621612934191D+03
 0.945621612934191D+03 0.000000000000000D+00 0.000000000000000D+00 -.945621612934191D+03
 0.640778626127328D+03 -.601018075358318D+03 0.179435471106956D+03 -.394009200759764D+02
 0.747993827989405D+03 0.520235327025947D+03 -.309988139850834D+03 -.439041369777688D+03
 0.502470771751649D+03 0.807827483323716D+02 0.130552668743878D+03 0.478442289853665D+03
 0.000000000000000D+00 0.000000000000000D+00 -.000000000000000D+00 0.000000000000000D+00
 0.123045909051777D+04 0.000000000000000D+00 0.000000000000000D+00 0.123045909051777D+04
 0.960982854642864D+03 0.000000000000000D+00 0.000000000000000D+00 -.960982854642864D+03
 0.681674537399802D+03 -.637915351242889D+03 0.201411884170379D+03 -.394009200759764D+02
 0.710199139697834D+03 0.479550825142949D+03 -.285756014382886D+03 -.439041369777688D+03
 0.503362770996424D+03 0.527193592126033D+02 0.147267524149058D+03 0.478442289853665D+03
 0.296205497066571D+03 0.105645166887337D+03 -.629233939365505D+02 0.269476235874904D+03
 0.945621612934191D+03 0.000000000000000D+00 0.000000000000000D+00 0.945621612934191D+03
 0.945621612934191D+03 0.000000000000000D+00 0.000000000000000D+00 -.945621612934191D+03
 0.640778626127328D+03 -.601018075358318D+03 0.179435471106956D+03 -.394009200759764D+02
 0.747993827989405D+03 0.520235327025947D+03 -.309988139850834D+03 -.439041369777688D+03
 0.000000000000000D+00 0.000000000000000D+00 -.000000000000000D+00 0.000000000000000D+00
 0.502470771751649D+03 0.807827483323716D+02 0.130552668743878D+03 0.478442289853665D+03
 0.123045909051777D+04 0.000000000000000D+00 0.000000000000000D+00 0.123045909051777D+04
 0.960982854642864D+03 0.000000000000000D+00 0.000000000000000D+00 -.960982854642864D+03
 0.681674537399802D+03 -.637915351242889D+03 0.201411884170379D+03 -.394009200759764D+02
 0.710199139697834D+03 0.479550825142949D+03 -.285756014382886D+03 -.439041369777688D+03
 0.296205497066571D+03 0.105645166887337D+03 -.629233939365505D+02 0.269476235874904D+03
 0.503362770996424D+03 0.527193592126033D+02 0.147267524149058D+03 0.478442289853665D+03
0.426918258269D-03 0.000000000000D+00 0.000000000000D+00 0.554927166880D-06 0.000000000000D+00  6 -1 1 25 2 -2 21 0 0.24391261D+00 0.86770841D-01 0.48907600D+06 0.48907600D+06 0.48907600D+06 0.10691891D+01  1  2  2  1  6  1       -1 0.115470329399D-03 0.100000000000D+01
0.593785449389D-04 0.000000000000D+00 -.163947852191D-05 0.554927166880D-06 0.000000000000D+00  6 -1 1 25 2 -2 21 2 0.24391261D+00 0.86770841D-01 0.48907600D+06 0.48907600D+06 0.48907600D+06 0.10691891D+01  1  2  3  1  6  1       -1 0.183596441468D-04 0.100000000000D+01
-.257495114785D-03 0.000000000000D+00 0.000000000000D+00 0.554927166880D-06 0.000000000000D+00  6 -1 1 25 2 -2 21 2 0.24391261D+00 0.86770841D-01 0.48907600D+06 0.48907600D+06 0.48907600D+06 0.10691891D+01  1  2 15  1  6  1       -1 -.796166137427D-04 0.100000000000D+01
0.478666617131D-07 0.000000000000D+00 0.000000000000D+00 0.554927166880D-06 0.000000000000D+00  6 -1 1 25 2 -2 21 2 0.31894172D+00 0.86770841D-01 0.57619720D+06 0.57619720D+06 0.57619720D+06 0.10641838D+01  1  2 12  1  6  1       -1 0.319066778742D-08 0.100000000000D+01
-.413346178689D-03 0.000000000000D+00 0.000000000000D+00 0.554927166880D-06 0.000000000000D+00  6 -1 1 25 2 -2 21 2 0.24391261D+00 0.86770841D-01 0.48907600D+06 0.48907600D+06 0.48907600D+06 0.10691891D+01  1  2  4  1  6  1       -1 -.127805232648D-03 0.100000000000D+01
-.399909419664D-02 0.000000000000D+00 -.397644252072D-03 0.554927166880D-06 0.000000000000D+00  6 -1 1 25 2 -2 21 2 0.31901903D+00 0.86770841D-01 0.48907600D+06 0.48907600D+06 0.48907600D+06 0.10691891D+01  1  2  5  1  6  1       -1 -.272490505374D-03 0.100000000000D+01
0.397564190742D-02 0.000000000000D+00 0.383734972379D-03 0.554927166880D-06 0.000000000000D+00  6 -1 1 25 2 -2 21 2 0.24391261D+00 0.86770841D-01 0.48907600D+06 0.48907600D+06 0.48907600D+06 0.10691891D+01  1  2  6  1  6  1       -1 0.122925495649D-02 0.100000000000D+01
0.170570574075D-08 0.000000000000D+00 0.000000000000D+00 0.554927166880D-06 0.000000000000D+00  6 21 1 25 2 1 -2 2 0.31894172D+00 0.86770841D-01 0.57619720D+06 0.57619720D+06 0.57619720D+06 0.10641838D+01  3  4 12  5  5  1       -1 0.112213691681D-08 0.100000000000D+01
-.135119894409D-03 0.000000000000D+00 -.141792173216D-04 0.554927166880D-06 0.000000000000D+00  6 21 1 25 2 1 -2 2 0.31901903D+00 0.86770841D-01 0.48907600D+06 0.48907600D+06 0.48907600D+06 0.10691891D+01  3  4  5  5  5  1       -1 -.912893085960D-04 0.100000000000D+01
  </mgrwgt>
  </event>
  <event>
  5     66 0.18829897E-05 0.89026606E+02 0.75467711E-02 0.94848675E-01
       -1 -1    0    0    0  501 0.00000000E+00 0.00000000E+00 0.24238113E+03 0.24238134E+03 0.32000000E+00 0.0000E+00 0.9000E+01
        1 -1    0    0  502    0 -.00000000E+00 -.00000000E+00 -.30077349E+04 0.30077349E+04 0.32000000E+00 0.0000E+00 0.9000E+01
       25  1    1    2    0    0 -.23197879E+03 -.41844368E+03 -.72982828E+03 0.88158016E+03 0.12500000E+03 0.0000E+00 0.9000E+01
        2  1    1    2  502    0 0.11336255E+02 0.88287624E+02 -.19628205E+04 0.19648378E+04 0.32000000E+00 0.0000E+00 0.9000E+01
       -2  1    1    2    0  501 0.22064254E+03 0.33015606E+03 -.72704956E+02 0.40369823E+03 0.32000000E+00 0.0000E+00 0.9000E+01
#aMCatNLO 1  0  0  5  1 0.51584605D+03 0.00000000D+00  -5  6  0 0.00000000D+00 0.00000000D+00 0.00000000D+00 0.00000000D+00 0.00000000D+00
  <mgrwgt>
 0.3037422402D-03    1    2    0
 0.853825821634195D+03 0.000000000000000D+00 0.000000000000000D+00 0.853825821634195D+03
 0.853825821634195D+03 -.000000000000000D+00 -.000000000000000D+00 -.853825821634195D+03
 0.495993805208771D+03 -.231961867175249D+03 -.418428807415824D+03 0.386766092957977D+02
 0.561107095927037D+03 0.113386085677957D+02 0.883016000795327D+02 -.553999491406638D+03
 0.650550742132581D+03 0.220623258607453D+03 0.330127207336292D+03 0.515322882110840D+03
 0.000000000000000D+00 0.000000000000000D+00 0.000000000000000D+00 0.000000000000000D+00
 0.853825821634195D+03 0.000000000000000D+00 0.000000000000000D+00 0.853825821634195D+03
 0.853825821634195D+03 -.000000000000000D+00 -.000000000000000D+00 -.853825821634195D+03
 0.487653930069289D+03 -.226446972922651D+03 -.410176655535480D+03 0.515580761852061D+02
 0.548509167631747D+03 0.175597547515560D+02 0.976105443360846D+02 -.539468389827940D+03
 0.214053309739078D+03 -.552642046124001D+02 0.988989457093880D+02 0.181614111886671D+03
 0.457435235828275D+03 0.264151422783495D+03 0.213667165490008D+03 0.306296201756063D+03
0.499063324686D-03 0.000000000000D+00 0.000000000000D+00 0.244040155952D-04 0.000000000000D+00  6 -1 1 25 2 -2 21 2 0.37289421D-01 0.46272846D+00 0.24038066D+06 0.24038066D+06 0.24038066D+06 0.10917434D+01  1  2 14  4  6  5       -2 0.303742240183D-03 0.100000000000D+01
  </mgrwgt>
  </event>
  <event>
  5     66 0.18829897E-05 0.11325282E+02 0.75467711E-02 0.92823363E-01
       -1 -1    0    0    0  501 0.00000000E+00 0.00000000E+00 0.12990292E+04 0.12990293E+04 0.32000000E+00 0.0000E+00 0.9000E+01
        1 -1    0    0  502    0 -.00000000E+00 -.00000000E+00 -.21892761E+04 0.21892761E+04 0.32000000E+00 0.0000E+00 0.9000E+01
       25  1    1    2    0    0 -.39195744E+03 -.35970106E+03 -.66510862E+03 0.86081935E+03 0.12500000E+03 0.0000E+00 0.9000E+01
        2  1    1    2  502    0 0.38482289E+03 0.35090535E+03 -.13787441E+04 0.14738245E+04 0.32000000E+00 0.0000E+00 0.9000E+01
       -2  1    1    2    0  501 0.71345475E+01 0.87957086E+01 0.11536059E+04 0.11536615E+04 0.32000000E+00 0.0000E+00 0.9000E+01
#aMCatNLO 1  0  0  5  1 0.78992593D+02 0.00000000D+00  -5  6  0 0.00000000D+00 0.00000000D+00 0.00000000D+00 0.00000000D+00 0.00000000D+00
  <mgrwgt>
 0.5225065645D-02    6    2    0
 0.168639666762598D+04 0.000000000000000D+00 0.000000000000000D+00 0.168639666762598D+04
 0.168639666762598D+04 -.000000000000000D+00 -.000000000000000D+00 -.168639666762598D+04
 0.714759418523273D+03 -.391983524285864D+03 -.359724868274072D+03 -.460654927468883D+03
 0.116039286833202D+04 0.384849095154672D+03 0.350929305629717D+03 -.103694329897285D+04
 0.149764104839667D+04 0.713442913117952D+01 0.879556264434016D+01 0.149759822644173D+04
 0.000000000000000D+00 0.000000000000000D+00 0.000000000000000D+00 0.000000000000000D+00
 0.168639666762598D+04 0.000000000000000D+00 0.000000000000000D+00 0.168639666762598D+04
 0.168639666762598D+04 -.000000000000000D+00 -.000000000000000D+00 -.168639666762598D+04
 0.714090289394357D+03 -.391978617465740D+03 -.359718818982252D+03 -.459624929836250D+03
 0.115890471067538D+04 0.384857059866405D+03 0.350939124792499D+03 -.103527141493738D+04
 0.114205799767911D+04 0.315390188150285D+02 0.509167613472612D+02 0.114048640665678D+04
 0.357740337503119D+03 -.244174612157068D+02 -.421370671575238D+02 0.354409938116847D+03
0.769105874679D-02 0.000000000000D+00 0.000000000000D+00 0.120263333149D-02 0.000000000000D+00  6 -1 1 25 2 -2 21 0 0.19985066D+00 0.33681171D+00 0.29088020D+06 0.29088020D+06 0.29088020D+06 0.10855452D+01  1  2  2  4  6  5       -2 0.308375691567D-03 0.100000000000D+01
0.972415187460D-02 0.000000000000D+00 -.295356906900D-04 0.120263333149D-02 0.000000000000D+00  6 -1 1 25 2 -2 21 2 0.19985066D+00 0.33681171D+00 0.29088020D+06 0.29088020D+06 0.29088020D+06 0.10855452D+01  1  2  3  4  6  5       -2 0.459453480034D-03 0.100000000000D+01
-.516520746227D-02 0.000000000000D+00 0.000000000000D+00 0.120263333149D-02 0.000000000000D+00  6 -1 1 25 2 -2 21 2 0.19985066D+00 0.33681171D+00 0.29088020D+06 0.29088020D+06 0.29088020D+06 0.10855452D+01  1  2 15  4  6  5       -2 -.244049308798D-03 0.100000000000D+01
-.544568579449D-03 0.000000000000D+00 0.000000000000D+00 0.120263333149D-02 0.000000000000D+00  6 -1 1 25 2 -2 21 2 0.19985066D+00 0.33681171D+00 0.29088020D+06 0.29088020D+06 0.29088020D+06 0.10855452D+01  1  2  4  4  6  5       -2 -.257301543797D-04 0.100000000000D+01
-.375591386153D+00 0.000000000000D+00 0.000000000000D+00 0.120263333149D-02 0.000000000000D+00  6 -1 1 25 2 -2 21 2 0.19985066D+00 0.33681171D+00 0.29088020D+06 0.29088020D+06 0.29088020D+06 0.10855452D+01  1  2  5  4  6  5       -2 -.177462026164D-01 0.100000000000D+01
0.475636815938D+00 0.000000000000D+00 -.000000000000D+00 0.120263333149D-02 0.000000000000D+00  6 -1 1 25 2 -2 21 2 0.19985066D+00 0.33681171D+00 0.29088020D+06 0.29088020D+06 0.29088020D+06 0.10855452D+01  1  2  6  4  6  5       -2 0.224732185525D-01 0.100000000000D+01
  </mgrwgt>
  </event>
  <event>
  5     66 -.18829897E-05 0.14706726E+03 0.75467711E-02 0.90419721E-01
       -1 -1    0    0    0  501 0.00000000E+00 0.00000000E+00 0.12828401E+04 0.12828401E+04 0.32000000E+00 0.0000E+00 0.9000E+01
        1 -1    0    0  502    0 0.00000000E+00 0.00000000E+00 -.12346581E+04 0.12346581E+04 0.32000000E+00 0.0000E+00 0.9000E+01
       25  1    1    2    0    0 -.56024223E+03 -.43032502E+03 0.56140129E+02 0.71960245E+03 0.12500000E+03 0.0000E+00 0.9000E+01
        2  1    1    2  502    0 0.41368511E+03 0.41784588E+03 -.79970508E+03 0.99260207E+03 0.32000000E+00 0.0000E+00 0.9000E+01
       -2  1    1    2    0  501 0.14655712E+03 0.12479133E+02 0.79174695E+03 0.80529376E+03 0.32000000E+00 0.0000E+00 0.9000E+01
#aMCatNLO 1  0  0  1  5 0.32808090D+02 0.00000000D+00  -5  6  0 0.00000000D+00 0.00000000D+00 0.00000000D+00 0.00000000D+00 0.00000000D+00
  <mgrwgt>
 -.7994045073D-03   11    4    0
 0.125851858601052D+04 0.000000000000000D+00 0.000000000000000D+00 0.125851858601052D+04
 0.125851858601052D+04 0.000000000000000D+00 0.000000000000000D+00 -.125851858601052D+04
 0.718722788426420D+03 -.560278116531655D+03 -.430373034445801D+03 0.424844672922090D+02
 0.100813756784812D+04 0.413741118768869D+03 0.417895614693738D+03 -.818854625416722D+03
 0.790176815746502D+03 0.146536997762786D+03 0.124774197520634D+02 0.776370158124513D+03
 0.000000000000000D+00 0.000000000000000D+00 0.000000000000000D+00 0.000000000000000D+00
 0.184628671049584D+04 0.000000000000000D+00 0.000000000000000D+00 0.184628671049584D+04
 0.125908339444158D+04 0.000000000000000D+00 0.000000000000000D+00 -.125908339444158D+04
 0.727670546501142D+03 -.565986778947929D+03 -.437873794991566D+03 0.424844672922090D+02
 0.100062267504943D+04 0.405812892175853D+03 0.407478510845162D+03 -.818854625416722D+03
 0.788957758410266D+03 0.140304428809350D+03 0.428828473307329D+01 0.776370158124513D+03
 0.588119124976584D+03 0.198694579627267D+02 0.261069994133312D+02 0.587203316054262D+03
 0.125851858601052D+04 0.000000000000000D+00 0.000000000000000D+00 0.125851858601052D+04
 0.125851858601052D+04 0.000000000000000D+00 0.000000000000000D+00 -.125851858601052D+04
 0.718722788426420D+03 -.560278116531655D+03 -.430373034445801D+03 0.424844672922090D+02
 0.100813756784812D+04 0.413741118768869D+03 0.417895614693738D+03 -.818854625416722D+03
 0.000000000000000D+00 0.000000000000000D+00 0.000000000000000D+00 0.000000000000000D+00
 0.790176815746502D+03 0.146536997762786D+03 0.124774197520634D+02 0.776370158124513D+03
 0.184628671049584D+04 0.000000000000000D+00 0.000000000000000D+00 0.184628671049584D+04
 0.125908339444158D+04 0.000000000000000D+00 0.000000000000000D+00 -.125908339444158D+04
 0.727670546501142D+03 -.565986778947929D+03 -.437873794991566D+03 0.424844672922090D+02
 0.100062267504943D+04 0.405812892175853D+03 0.407478510845162D+03 -.818854625416722D+03
 0.588119124976584D+03 0.198694579627267D+02 0.261069994133312D+02 0.587203316054262D+03
 0.788957758410266D+03 0.140304428809350D+03 0.428828473307329D+01 0.776370158124513D+03
0.352125375820D-04 0.000000000000D+00 0.000000000000D+00 0.574701827566D-05 0.000000000000D+00  6 -1 1 25 2 -2 21 0 0.19736002D+00 0.18994741D+00 0.52750922D+06 0.52750922D+06 0.52750922D+06 0.10668704D+01  1  2  2  1  6  1       -1 0.617404315091D-05 0.100000000000D+01
0.698091250362D-05 0.000000000000D+00 -.135225415989D-06 0.574701827566D-05 0.000000000000D+00  6 -1 1 25 2 -2 21 2 0.19736002D+00 0.18994741D+00 0.52750922D+06 0.52750922D+06 0.52750922D+06 0.10668704D+01  1  2  3  1  6  1       -1 0.139318196058D-05 0.100000000000D+01
-.262616855401D-04 0.000000000000D+00 0.000000000000D+00 0.574701827566D-05 0.000000000000D+00  6 -1 1 25 2 -2 21 2 0.19736002D+00 0.18994741D+00 0.52750922D+06 0.52750922D+06 0.52750922D+06 0.10668704D+01  1  2 15  1  6  1       -1 -.524104929404D-05 0.100000000000D+01
0.384912637601D-08 0.000000000000D+00 0.000000000000D+00 0.574701827566D-05 0.000000000000D+00  6 -1 1 25 2 -2 21 2 0.28956149D+00 0.18994741D+00 0.54367941D+06 0.54367941D+06 0.54367941D+06 0.10659492D+01  1  2 12  1  6  1       -1 0.129514827329D-09 0.100000000000D+01
0.104347582406D-01 0.000000000000D+00 0.000000000000D+00 0.574701827566D-05 0.000000000000D+00  6 -1 1 25 2 -2 21 2 0.29881236D+00 0.18994741D+00 0.54367941D+06 0.54367941D+06 0.54367941D+06 0.10659492D+01  1  2 12  1  6  1       -1 0.290466473588D-03 0.100000000000D+01
-.142473663466D-01 0.000000000000D+00 0.000000000000D+00 0.574701827566D-05 0.000000000000D+00  6 -1 1 25 2 -2 21 2 0.19736002D+00 0.18994741D+00 0.52750922D+06 0.52750922D+06 0.52750922D+06 0.10668704D+01  1  2  4  1  6  1       -1 -.284334945747D-02 0.100000000000D+01
-.116935081181D-01 0.000000000000D+00 -.266887552940D-04 0.574701827566D-05 0.000000000000D+00  6 -1 1 25 2 -2 21 2 0.28957091D+00 0.18994741D+00 0.52750922D+06 0.52750922D+06 0.52750922D+06 0.10668704D+01  1  2  5  1  6  1       -1 -.395240002865D-03 0.100000000000D+01
0.108950912307D-01 0.000000000000D+00 0.248408222063D-04 0.574701827566D-05 0.000000000000D+00  6 -1 1 25 2 -2 21 2 0.19736002D+00 0.18994741D+00 0.52750922D+06 0.52750922D+06 0.52750922D+06 0.10668704D+01  1  2  6  1  6  1       -1 0.217433531128D-02 0.100000000000D+01
0.177606406244D-09 0.000000000000D+00 0.000000000000D+00 0.574701827566D-05 0.000000000000D+00  6 21 1 25 2 1 -2 2 0.28956149D+00 0.18994741D+00 0.54367941D+06 0.54367941D+06 0.54367941D+06 0.10659492D+01  3  4 12  5  5  1       -1 0.500810190812D-10 0.100000000000D+01
0.510156853612D-03 0.000000000000D+00 0.000000000000D+00 0.574701827566D-05 0.000000000000D+00  6 21 1 25 2 1 -2 2 0.29881236D+00 0.18994741D+00 0.54367941D+06 0.54367941D+06 0.54367941D+06 0.10659492D+01  3  4 12  5  5  1       -1 0.124783320221D-03 0.100000000000D+01
-.538735920957D-03 0.000000000000D+00 -.123154878907D-05 0.574701827566D-05 0.000000000000D+00  6 21 1 25 2 1 -2 2 0.28957091D+00 0.18994741D+00 0.52750922D+06 0.52750922D+06 0.52750922D+06 0.10668704D+01  3  4  5  5  5  1       -1 -.152726507416D-03 0.100000000000D+01
  </mgrwgt>
  </event>
  <event>
  6     66 -.18829897E-05 0.11165574E+03 0.75467711E-02 0.95534531E-01
       -1 -1    0    0    0  501 0.00000000E+00 0.00000000E+00 0.42397355E+03 0.42397367E+03 0.32000000E+00 0.0000E+00 0.9000E+01
        1 -1    0    0  502    0 -.00000000E+00 -.00000000E+00 -.16873354E+04 0.16873354E+04 0.32000000E+00 0.0000E+00 0.9000E+01
       25  1    1    2    0    0 -.20880050E+03 0.40127111E+03 -.12095122E+03 0.48463424E+03 0.12500000E+03 0.0000E+00 0.9000E+01
        2  1    1    2  503    0 0.43007991E+02 -.60045039E+02 -.88055826E+03 0.88365041E+03 0.32000000E+00 0.0000E+00 0.9000E+01
       -2  1    1    2    0  501 0.13719110E+03 -.30503195E+03 0.12229169E+03 0.35611971E+03 0.32000000E+00 0.0000E+00 0.9000E+01
       21  1    1    2  502  503 0.28601414E+02 -.36194122E+02 -.38414402E+03 0.38690470E+03 0.75000000E+00 0.0000E+00 0.9000E+01
#aMCatNLO 2  0  0  4  2 0.97428193D+01 0.00000000D+00  -5  6  0 0.00000000D+00 0.00000000D+00 0.00000000D+00 0.00000000D+00 0.00000000D+00
  <mgrwgt>
 -.7661699681D-02    3    2    0
 0.845804774909872D+03 0.000000000000000D+00 0.000000000000000D+00 0.845804774909872D+03
 0.845804774909872D+03 -.000000000000000D+00 -.000000000000000D+00 -.845804774909872D+03
 0.514621323323553D+03 -.208804115565139D+03 0.401261769067120D+03 0.211186979777330D+03
 0.641173912925205D+03 0.716421393482633D+02 -.962837103343073D+02 -.629841914776781D+03
 0.535814313570987D+03 0.137161976216876D+03 -.304978058732813D+03 0.418654934999451D+03
 0.000000000000000D+00 0.000000000000000D+00 0.000000000000000D+00 0.000000000000000D+00
 0.845804774909872D+03 0.000000000000000D+00 0.000000000000000D+00 0.845804774909872D+03
 0.845804774909872D+03 -.000000000000000D+00 -.000000000000000D+00 -.845804774909872D+03
 0.514561321117858D+03 -.208792259356306D+03 0.401245834872700D+03 0.211082745909642D+03
 0.445188317953033D+03 0.429968170978839D+02 -.600323617340681D+02 -.439021671111953D+03
 0.535742127431393D+03 0.137174320572866D+03 -.304994648974355D+03 0.418546409585721D+03
 0.196117783317460D+03 0.286211216855561D+02 -.362188241642779D+02 -.190607484383411D+03
-.782185172582D-08 0.000000000000D+00 0.000000000000D+00 0.158329997414D-04 0.000000000000D+00  6 -1 1 25 2 -2 21 2 0.65226711D-01 0.25959007D+00 0.21330553D+06 0.21330553D+06 0.21330553D+06 0.10956835D+01  1  2 13  3  6  4        2 -.141450066813D-07 0.100000000000D+01
-.114235931048D-01 0.000000000000D+00 0.000000000000D+00 0.158329997414D-04 0.000000000000D+00  6 -1 1 25 2 -2 21 2 0.65226711D-01 0.25959007D+00 0.21330553D+06 0.21330553D+06 0.21330553D+06 0.10956835D+01  1  2 13  3  6  4        2 -.206583819863D-01 0.100000000000D+01
0.718686352365D-02 0.000000000000D+00 0.000000000000D+00 0.158329997414D-04 0.334720387161D-06  6 -1 1 25 2 -2 21 2 0.65226711D-01 0.25959007D+00 0.21330553D+06 0.21330553D+06 0.21330553D+06 0.10956835D+01  1  2  1  3  6  4        2 0.129966964503D-01 0.100000000000D+01
  </mgrwgt>
  </event>
  <event>
  5     66 0.18829897E-05 0.26065492E+02 0.75467711E-02 0.93118654E-01
       -1 -1    0    0    0  501 0.00000000E+00 0.00000000E+00 0.87369063E+03 0.87369069E+03 0.32000000E+00 0.0000E+00 0.9000E+01
        1 -1    0    0  502    0 -.00000000E+00 -.00000000E+00 -.10397856E+04 0.10397856E+04 0.32000000E+00 0.0000E+00 0.9000E+01
       25  1    1    2    0    0 -.46419690E+03 -.26654836E+03 0.17252042E+03 0.57612072E+03 0.12500000E+03 0.0000E+00 0.9000E+01
        2  1    1    2  502    0 0.43983437E+03 0.27584026E+03 -.75712698E+03 0.91803240E+03 0.32000000E+00 0.0000E+00 0.9000E+01
       -2  1    1    2    0  501 0.24362534E+02 -.92918948E+01 0.41851161E+03 0.41932320E+03 0.32000000E+00 0.0000E+00 0.9000E+01
#aMCatNLO 1  0  0  5  1 0.18549167D+03 0.00000000D+00  -5  6  0 0.00000000D+00 0.00000000D+00 0.00000000D+00 0.00000000D+00 0.00000000D+00
  <mgrwgt>
 0.1829525207D-02    4    2    0
 0.953126970788572D+03 0.000000000000000D+00 0.000000000000000D+00 0.953126970788572D+03
 0.953126970788572D+03 -.000000000000000D+00 -.000000000000000D+00 -.953126970788572D+03
 0.593456988607217D+03 -.464260993886739D+03 -.266594753619441D+03 0.223506519423109D+03
 0.855575168495172D+03 0.439906748041078D+03 0.275883487118938D+03 -.679984722996451D+03
 0.457221784474757D+03 0.243542458456622D+02 -.928873349949721D+01 0.456478203573342D+03
 0.000000000000000D+00 0.000000000000000D+00 0.000000000000000D+00 0.000000000000000D+00
 0.953126970788572D+03 0.000000000000000D+00 0.000000000000000D+00 0.953126970788572D+03
 0.953126970788572D+03 -.000000000000000D+00 -.000000000000000D+00 -.953126970788572D+03
 0.597252453867563D+03 -.463685732689715D+03 -.266814158810044D+03 0.234288795313212D+03
 0.843723370228910D+03 0.440727721216076D+03 0.275570367136446D+03 -.664597001180716D+03
 0.437735746953253D+03 0.354596707521228D+02 -.328334088196117D+02 0.435059953542219D+03
 0.275423705274193D+02 -.125016592784835D+02 0.240772004932094D+02 -.475174767471486D+01
0.275761841516D-02 0.000000000000D+00 0.000000000000D+00 0.884460671991D-04 0.000000000000D+00  6 -1 1 25 2 -2 21 0 0.13441395D+00 0.15996702D+00 0.29980236D+06 0.29980236D+06 0.29980236D+06 0.10845730D+01  1  2  2  4  6  5       -2 0.231215314416D-02 0.100000000000D+01
0.162159066921D-02 0.000000000000D+00 -.105899808118D-04 0.884460671991D-04 0.000000000000D+00  6 -1 1 25 2 -2 21 2 0.13441395D+00 0.15996702D+00 0.29980236D+06 0.29980236D+06 0.29980236D+06 0.10845730D+01  1  2  3  4  6  5       -2 0.159934174350D-02 0.100000000000D+01
-.190135240010D-02 0.000000000000D+00 0.000000000000D+00 0.884460671991D-04 0.000000000000D+00  6 -1 1 25 2 -2 21 2 0.13441395D+00 0.15996702D+00 0.29980236D+06 0.29980236D+06 0.29980236D+06 0.10845730D+01  1  2 15  4  6  5       -2 -.187526502238D-02 0.100000000000D+01
-.209580189244D-03 0.000000000000D+00 0.000000000000D+00 0.884460671991D-04 0.000000000000D+00  6 -1 1 25 2 -2 21 2 0.13441395D+00 0.15996702D+00 0.29980236D+06 0.29980236D+06 0.29980236D+06 0.10845730D+01  1  2  4  4  6  5       -2 -.206704658354D-03 0.100000000000D+01
  </mgrwgt>
  </event>
  <event>
  5     66 -.18829897E-05 0.21439708E+03 0.75467711E-02 0.88460862E-01
       -1 -1    0    0    0  501 0.00000000E+00 0.00000000E+00 0.24036532E+03 0.24036553E+03 0.32000000E+00 0.0000E+00 0.9000E+01
        1 -1    0    0  502    0 0.00000000E+00 0.00000000E+00 -.34031069E+04 0.34031069E+04 0.32000000E+00 0.0000E+00 0.9000E+01
       25  1    1    2    0    0 0.11609231E+03 -.49794416E+03 -.36576718E+03 0.64096525E+03 0.12500000E+03 0.0000E+00 0.9000E+01
        2  1    1    2  502    0 0.93611037E+02 0.54318443E+03 -.27189091E+04 0.27742169E+04 0.32000000E+00 0.0000E+00 0.9000E+01
       -2  1    1    2    0  501 -.20970335E+03 -.45240269E+02 -.78065252E+02 0.22829030E+03 0.32000000E+00 0.0000E+00 0.9000E+01
#aMCatNLO 1  0  0  1  5 0.35132102D+02 0.00000000D+00  -5  6  0 0.00000000D+00 0.00000000D+00 0.00000000D+00 0.00000000D+00 0.00000000D+00
  <mgrwgt>
 -.3491841508D-04    5    4    0
 0.904427601846280D+03 0.000000000000000D+00 0.000000000000000D+00 0.904427601846280D+03
 0.904427601846280D+03 0.000000000000000D+00 0.000000000000000D+00 -.904427601846280D+03
 0.651672315425049D+03 0.115975756423010D+03 -.498059374896194D+03 0.384107133091235D+03
 0.834043404334235D+03 0.935998117428272D+02 0.543272076852535D+03 -.625877724533698D+03
 0.323139483933277D+03 -.209575568165837D+03 -.452127019563415D+02 0.241770591442463D+03
 0.000000000000000D+00 0.000000000000000D+00 0.000000000000000D+00 0.000000000000000D+00
 0.233905220282727D+04 0.000000000000000D+00 0.000000000000000D+00 0.233905220282727D+04
 0.975225934078094D+03 0.000000000000000D+00 0.000000000000000D+00 -.975225934078094D+03
 0.783378908454000D+03 0.461461097446194D+02 -.669619116419514D+03 0.384107133091235D+03
 0.720944323235572D+03 0.179340502713156D+02 0.357373979157665D+03 -.625877724533698D+03
 0.365823767641494D+03 -.243100545972424D+03 -.127577955121128D+03 0.241770591442463D+03
 0.144413113757429D+04 0.179020385956489D+03 0.439823092382977D+03 0.136382626874917D+04
 0.904427601846280D+03 0.000000000000000D+00 0.000000000000000D+00 0.904427601846280D+03
 0.904427601846280D+03 0.000000000000000D+00 0.000000000000000D+00 -.904427601846280D+03
 0.651672315425049D+03 0.115975756423010D+03 -.498059374896194D+03 0.384107133091235D+03
 0.834043404334235D+03 0.935998117428272D+02 0.543272076852535D+03 -.625877724533698D+03
 0.000000000000000D+00 0.000000000000000D+00 0.000000000000000D+00 0.000000000000000D+00
 0.323139483933277D+03 -.209575568165837D+03 -.452127019563415D+02 0.241770591442463D+03
 0.233905220282727D+04 0.000000000000000D+00 0.000000000000000D+00 0.233905220282727D+04
 0.975225934078094D+03 0.000000000000000D+00 0.000000000000000D+00 -.975225934078094D+03
 0.783378908454000D+03 0.461461097446194D+02 -.669619116419514D+03 0.384107133091235D+03
 0.720944323235572D+03 0.179340502713156D+02 0.357373979157665D+03 -.625877724533698D+03
 0.144413113757429D+04 0.179020385956489D+03 0.439823092382977D+03 0.136382626874917D+04
 0.365823767641494D+03 -.243100545972424D+03 -.127577955121128D+03 0.241770591442463D+03
0.165681047235D-03 0.000000000000D+00 0.000000000000D+00 0.972556604281D-07 0.000000000000D+00  6 -1 1 25 2 -2 21 0 0.36979297D-01 0.52355492D+00 0.41738885D+06 0.41738885D+06 0.41738885D+06 0.10740979D+01  1  2  2  1  6  1       -1 0.406821540932D-04 0.100000000000D+01
0.656984562834D-05 0.000000000000D+00 -.636258846205D-06 0.972556604281D-07 0.000000000000D+00  6 -1 1 25 2 -2 21 2 0.36979297D-01 0.52355492D+00 0.41738885D+06 0.41738885D+06 0.41738885D+06 0.10740979D+01  1  2  3  1  6  1       -1 0.186111837810D-05 0.100000000000D+01
-.114757726462D-03 0.000000000000D+00 0.000000000000D+00 0.972556604281D-07 0.000000000000D+00  6 -1 1 25 2 -2 21 2 0.36979297D-01 0.52355492D+00 0.41738885D+06 0.41738885D+06 0.41738885D+06 0.10740979D+01  1  2 15  1  6  1       -1 -.325087872425D-04 0.100000000000D+01
-.651933756324D-03 0.000000000000D+00 -.109117725517D-03 0.972556604281D-07 0.000000000000D+00  6 -1 1 25 2 -2 21 2 0.10105612D+00 0.52355492D+00 0.41738885D+06 0.41738885D+06 0.41738885D+06 0.10740979D+01  1  2  5  1  6  1       -1 -.263565198492D-04 0.100000000000D+01
-.669992103301D-04 0.000000000000D+00 -.122634711139D-04 0.972556604281D-07 0.000000000000D+00  6 21 1 25 2 1 -2 2 0.10105612D+00 0.52355492D+00 0.41738885D+06 0.41738885D+06 0.41738885D+06 0.10740979D+01  3  4  5  5  5  1       -1 -.185963804619D-04 0.100000000000D+01
  </mgrwgt>
  </event>
  <event>
  6     66 0.18829897E-05 0.87539615E+01 0.75467711E-02 0.94388460E-01
       -1 -1    0    0    0  503 0.00000000E+00 0.00000000E+00 0.24041930E+04 0.24041930E+04 0.32000000E+00 0.0000E+00 0.9000E+01
        1 -1    0    0  502    0 0.00000000E+00 0.00000000E+00 -.58789941E+03 0.58789950E+03 0.32000000E+00 0.0000E+00 0.9000E+01
       25  1    1    2    0    0 -.46375508E+03 0.18426346E+03 0.54533125E+03 0.74968858E+03 0.12500000E+03 0.0000E+00 0.9000E+01
        2  1    1    2  502    0 0.44860155E+01 -.92352874E+01 -.45023443E+03 0.45035159E+03 0.32000000E+00 0.0000E+00 0.9000E+01
       -2  1    1    2    0  501 0.46034767E+03 -.17785826E+03 0.16867308E+04 0.17574454E+04 0.32000000E+00 0.0000E+00 0.9000E+01
       21  1    1    2  501  503 -.10786044E+01 0.28300867E+01 0.34465985E+02 0.34606927E+02 0.75000000E+00 0.0000E+00 0.9000E+01
#aMCatNLO 2  0  0  1  5 0.95832913D+01 0.00000000D+00  -5  6  0 0.00000000D+00 0.00000000D+00 0.00000000D+00 0.00000000D+00 0.00000000D+00
  <mgrwgt>
 0.1072285094D+00    1    2    0
 0.118023326359966D+04 0.000000000000000D+00 0.000000000000000D+00 0.118023326359966D+04
 0.118023326359966D+04 0.000000000000000D+00 0.000000000000000D+00 -.118023326359966D+04
 0.528082283957363D+03 -.463969931655913D+03 0.184886951966952D+03 0.117450483784450D+03
 0.904166018016037D+03 0.407338063232487D+01 -.815221651253555D+01 -.904120089961026D+03
 0.928218225225913D+03 0.459896551023588D+03 -.176734735454416D+03 0.786669606176576D+03
 0.000000000000000D+00 -.000000000000000D+00 0.000000000000000D+00 0.000000000000000D+00
 0.119742727864043D+04 0.000000000000000D+00 0.000000000000000D+00 0.119742727864043D+04
 0.118036761430987D+04 0.000000000000000D+00 0.000000000000000D+00 -.118036761430987D+04
 0.527649039077272D+03 -.463728725960074D+03 0.184254066488134D+03 0.117450483784450D+03
 0.904178397704721D+03 0.448653780934021D+01 -.923627539801254D+01 -.904120089961026D+03
 0.928641033417652D+03 0.460320792513620D+03 -.177847877818732D+03 0.786669606176576D+03
 0.173264227506608D+02 -.107860436288674D+01 0.283008672861129D+01 0.170596643305640D+02
0.459690033861D+01 0.000000000000D+00 0.000000000000D+00 0.432454273631D-03 0.196276897901D-03  6 -1 1 25 2 -2 21 2 0.36987331D+00 0.90445450D-01 0.26070765D+06 0.26070765D+06 0.26070765D+06 0.10890915D+01  1  2  1  1  6  1       -1 0.107228509387D+00 0.100000000000D+01
  </mgrwgt>
  </event>
  <event>
  6     66 -.18829897E-05 0.21371029E+03 0.75467711E-02 0.92353142E-01
       -1 -1    0    0    0  501 0.00000000E+00 0.00000000E+00 0.10702069E+04 0.10702070E+04 0.32000000E+00 0.0000E+00 0.9000E+01
        1 -1    0    0  502    0 -.00000000E+00 -.00000000E+00 -.11019528E+04 0.11019528E+04 0.32000000E+00 0.0000E+00 0.9000E+01
       25  1    1    2    0    0 0.42175564E+03 0.39241338E+03 0.28823330E+01 0.58949079E+03 0.12500000E+03 0.0000E+00 0.9000E+01
        2  1    1    2  503    0 -.86196627E+02 -.24451538E+03 -.62255804E+03 0.67438583E+03 0.32000000E+00 0.0000E+00 0.9000E+01
       -2  1    1    2    0  501 -.25571194E+03 -.64363011E+02 0.69956284E+03 0.74760916E+03 0.32000000E+00 0.0000E+00 0.9000E+01
       21  1    1    2  502  503 -.79847081E+02 -.83534997E+02 -.11163300E+03 0.16067402E+03 0.75000000E+00 0.0000E+00 0.9000E+01
#aMCatNLO 2  0  0  4  2 0.59369892D+02 0.00000000D+00  -5  6  0 0.00000000D+00 0.00000000D+00 0.00000000D+00 0.00000000D+00 0.00000000D+00
  <mgrwgt>
 -.7143989735D-03    3    2    0
 0.108596390358581D+04 0.000000000000000D+00 0.000000000000000D+00 0.108596390358581D+04
 0.108596390358581D+04 -.000000000000000D+00 -.000000000000000D+00 -.108596390358581D+04
 0.591295419178916D+03 0.422546962605860D+03 0.393997833699178D+03 0.150014724239778D+02
 0.819132428402072D+03 -.167868393019561D+03 -.331646733812179D+03 -.729937382133987D+03
 0.761499959590623D+03 -.254678569586299D+03 -.623510998869987D+02 0.714935909710010D+03
 0.000000000000000D+00 -.000000000000000D+00 0.000000000000000D+00 0.000000000000000D+00
 0.108596390358581D+04 0.000000000000000D+00 0.000000000000000D+00 0.108596390358581D+04
 0.108596390358581D+04 -.000000000000000D+00 -.000000000000000D+00 -.108596390358581D+04
 0.589613164162548D+03 0.421756603661916D+03 0.392436372618962D+03 0.115647769978078D+02
 0.665268332157575D+03 -.861530581323434D+02 -.244474167849148D+03 -.612692407004227D+03
 0.757860723796385D+03 -.255695447879955D+03 -.643600806052228D+02 0.710514246606737D+03
 0.159185587055102D+03 -.799080976496174D+02 -.836021241645912D+02 -.109386616600319D+03
-.368259367127D-08 0.000000000000D+00 0.000000000000D+00 0.291883286028D-05 0.000000000000D+00  6 -1 1 25 2 -2 21 2 0.16464723D+00 0.16953121D+00 0.37701422D+06 0.37701422D+06 0.37701422D+06 0.10772854D+01  1  2 13  3  6  4        2 -.177318512662D-08 0.100000000000D+01
-.236898238511D-02 0.000000000000D+00 0.000000000000D+00 0.291883286028D-05 0.000000000000D+00  6 -1 1 25 2 -2 21 2 0.16464723D+00 0.16953121D+00 0.37701422D+06 0.37701422D+06 0.37701422D+06 0.10772854D+01  1  2 13  3  6  4        2 -.114067548730D-02 0.100000000000D+01
0.885305035706D-03 0.000000000000D+00 0.000000000000D+00 0.291883286028D-05 0.101610593446D-08  6 -1 1 25 2 -2 21 2 0.16464723D+00 0.16953121D+00 0.37701422D+06 0.37701422D+06 0.37701422D+06 0.10772854D+01  1  2  1  3  6  4        2 0.426278286980D-03 0.100000000000D+01
  </mgrwgt>
  </event>
  <event>
  5     66 -.18829897E-05 0.21510558E+02 0.75467711E-02 0.91034853E-01
       -1 -1    0    0    0  501 0.00000000E+00 0.00000000E+00 0.45844966E+03 0.45844977E+03 0.32000000E+00 0.0000E+00 0.9000E+01
        1 -1    0    0  502    0 -.00000000E+00 -.00000000E+00 -.14476760E+04 0.14476761E+04 0.32000000E+00 0.0000E+00 0.9000E+01
       25  1    1    2    0    0 0.31570663E+02 0.67920506E+03 -.27535942E+03 0.74415323E+03 0.12500000E+03 0.0000E+00 0.9000E+01
        2  1    1    2  502    0 -.21427731E+02 -.18563585E+01 -.42497618E+03 0.42552021E+03 0.32000000E+00 0.0000E+00 0.9000E+01
       -2  1    1    2    0  501 -.10142931E+02 -.67734870E+03 -.28889078E+03 0.73645240E+03 0.32000000E+00 0.0000E+00 0.9000E+01
#aMCatNLO 1  0  0  5  1 0.33761148D+01 0.00000000D+00  -5  6  0 0.00000000D+00 0.00000000D+00 0.00000000D+00 0.00000000D+00 0.00000000D+00
  <mgrwgt>
 -.1975787308D-02    4    2    0
 0.814669700131023D+03 0.000000000000000D+00 0.000000000000000D+00 0.814669700131023D+03
 0.814669700131023D+03 -.000000000000000D+00 -.000000000000000D+00 -.814669700131023D+03
 0.703370498593125D+03 0.315727794009895D+02 0.679177913030458D+03 0.129713454751728D+03
 0.239833903152058D+03 -.214302622965161D+02 -.185686726467077D+01 -.238867320918988D+03
 0.686134998516862D+03 -.101425171044734D+02 -.677321045765788D+03 0.109153866167261D+03
 0.000000000000000D+00 0.000000000000000D+00 0.000000000000000D+00 0.000000000000000D+00
 0.814669700131023D+03 0.000000000000000D+00 0.000000000000000D+00 0.814669700131023D+03
 0.814669700131023D+03 -.000000000000000D+00 -.000000000000000D+00 -.814669700131023D+03
 0.702732585250783D+03 0.315625791215801D+02 0.678496734596597D+03 0.129823230256373D+03
 0.239798831587752D+03 -.214337416914228D+02 -.208922254418964D+01 -.238829875637696D+03
 0.151833978033135D+03 -.204475718058160D+02 -.149451783857314D+03 0.173094770134544D+02
 0.534974005390375D+03 0.103187343756587D+02 -.526955728195093D+03 0.916971683678687D+02
0.784393005269D-04 0.000000000000D+00 0.000000000000D+00 0.218446630461D-05 0.000000000000D+00  6 -1 1 25 2 -2 21 0 0.70530728D-01 0.22271940D+00 0.48317367D+06 0.48317367D+06 0.48317367D+06 0.10695627D+01  1  2  2  4  6  5       -2 0.140330000777D-03 0.100000000000D+01
0.465815831415D-04 0.000000000000D+00 -.301227567565D-06 0.218446630461D-05 0.000000000000D+00  6 -1 1 25 2 -2 21 2 0.70530728D-01 0.22271940D+00 0.48317367D+06 0.48317367D+06 0.48317367D+06 0.10695627D+01  1  2  3  4  6  5       -2 0.953330628284D-04 0.100000000000D+01
-.526841825591D-04 0.000000000000D+00 0.000000000000D+00 0.218446630461D-05 0.000000000000D+00  6 -1 1 25 2 -2 21 2 0.70530728D-01 0.22271940D+00 0.48317367D+06 0.48317367D+06 0.48317367D+06 0.10695627D+01  1  2 15  4  6  5       -2 -.107822537304D-03 0.100000000000D+01
-.102787335196D-02 0.000000000000D+00 0.000000000000D+00 0.218446630461D-05 0.000000000000D+00  6 -1 1 25 2 -2 21 2 0.70530728D-01 0.22271940D+00 0.48317367D+06 0.48317367D+06 0.48317367D+06 0.10695627D+01  1  2  5  4  6  5       -2 -.210362783386D-02 0.100000000000D+01
  </mgrwgt>
  </event>
  <event>
  5     66 -.18829897E-05 0.50736881E+02 0.75467711E-02 0.94211277E-01
       -1 -1    0    0    0  501 0.00000000E+00 0.00000000E+00 0.46538310E+03 0.46538321E+03 0.32000000E+00 0.0000E+00 0.9000E+01
        1 -1    0    0  502    0 -.00000000E+00 -.00000000E+00 -.12129869E+04 0.12129869E+04 0.32000000E+00 0.0000E+00 0.9000E+01
       25  1    1    2    0    0 0.17907010E+03 -.46964087E+03 -.12837126E+03 0.53360363E+03 0.12500000E+03 0.0000E+00 0.9000E+01
        2  1    1    2  502    0 -.46656828E+02 0.19911377E+02 -.67116669E+03 0.67308109E+03 0.32000000E+00 0.0000E+00 0.9000E+01
       -2  1    1    2    0  501 -.13241328E+03 0.44972950E+03 0.51934153E+02 0.47168544E+03 0.32000000E+00 0.0000E+00 0.9000E+01
#aMCatNLO 1  0  0  4  2 0.12162080D+01 0.00000000D+00  -5  6  0 0.00000000D+00 0.00000000D+00 0.00000000D+00 0.00000000D+00 0.00000000D+00
  <mgrwgt>
 -.9528346820D-02    9    2    0
 0.751334637360366D+03 0.000000000000000D+00 0.000000000000000D+00 0.751334637360366D+03
 0.751334637360366D+03 -.000000000000000D+00 -.000000000000000D+00 -.751334637360366D+03
 0.532110790034031D+03 0.179062992570917D+03 -.469593454819377D+03 0.122210166324207D+03
 0.417945970849955D+03 -.466648559227649D+02 0.199153779441873D+02 -.414854918607408D+03
 0.552612513836746D+03 -.132398136648153D+03 0.449678076875190D+03 0.292644752283201D+03
 0.000000000000000D+00 0.000000000000000D+00 0.000000000000000D+00 -.000000000000000D+00
 0.751334637360366D+03 0.000000000000000D+00 0.000000000000000D+00 0.751334637360366D+03
 0.751334637360366D+03 -.000000000000000D+00 -.000000000000000D+00 -.751334637360366D+03
 0.532107363710402D+03 0.179061748830915D+03 -.469592924022662D+03 0.122199109359662D+03
 0.392932832084413D+03 -.449995338165136D+02 0.191543747837048D+02 -.389877368428612D+03
 0.552607190977513D+03 -.132399428306215D+03 0.449678628122118D+03 0.292633269322638D+03
 0.250218879484033D+02 -.166278670818688D+01 0.759921116839777D+00 -.249550102536887D+02
0.402555324336D-05 0.000000000000D+00 0.000000000000D+00 0.102421202685D-04 0.000000000000D+00  6 -1 1 25 2 -2 21 0 0.71597412D-01 0.18661338D+00 0.26904319D+06 0.26904319D+06 0.26904319D+06 0.10880687D+01  1  2  2  3  6  4        2 0.104787767313D-04 0.100000000000D+01
0.145256833792D-05 0.000000000000D+00 -.154591844070D-07 0.102421202685D-04 0.000000000000D+00  6 -1 1 25 2 -2 21 2 0.71597412D-01 0.18661338D+00 0.26904319D+06 0.26904319D+06 0.26904319D+06 0.10880687D+01  1  2  3  3  6  4        2 0.447645507897D-05 0.100000000000D+01
-.270266890639D-05 0.000000000000D+00 0.000000000000D+00 0.102421202685D-04 0.000000000000D+00  6 -1 1 25 2 -2 21 2 0.71597412D-01 0.18661338D+00 0.26904319D+06 0.26904319D+06 0.26904319D+06 0.10880687D+01  1  2 15  3  6  4        2 -.832895474653D-05 0.100000000000D+01
0.259560543099D-12 0.000000000000D+00 0.000000000000D+00 0.102421202685D-04 0.000000000000D+00  6 -1 1 25 2 -2 21 2 0.71597412D-01 0.18661338D+00 0.26904206D+06 0.26904206D+06 0.26904206D+06 0.10880688D+01  1  2 12  3  6  4        2 0.799901534119D-12 0.100000000000D+01
0.115477542950D-06 0.000000000000D+00 0.000000000000D+00 0.102421202685D-04 0.000000000000D+00  6 -1 1 25 2 -2 21 2 0.71597412D-01 0.18661338D+00 0.26904206D+06 0.26904206D+06 0.26904206D+06 0.10880688D+01  1  2 12  3  6  4        2 0.355873287438D-06 0.100000000000D+01
-.377055663988D-01 0.000000000000D+00 0.000000000000D+00 0.102421202685D-04 0.000000000000D+00  6 -1 1 25 2 -2 21 2 0.71597412D-01 0.18661338D+00 0.26904319D+06 0.26904319D+06 0.26904319D+06 0.10880687D+01  1  2  4  3  6  4        2 -.116199196833D+00 0.100000000000D+01
-.137407887943D-01 0.000000000000D+00 0.000000000000D+00 0.102421202685D-04 0.000000000000D+00  6 -1 1 25 2 -2 21 2 0.71597412D-01 0.18661338D+00 0.26904319D+06 0.26904319D+06 0.26904319D+06 0.10880687D+01  1  2  5  3  6  4        2 -.423457004959D-01 0.100000000000D+01
0.145880106011D-01 0.000000000000D+00 -.000000000000D+00 0.102421202685D-04 0.000000000000D+00  6 -1 1 25 2 -2 21 2 0.71597412D-01 0.18661338D+00 0.26904319D+06 0.26904319D+06 0.26904319D+06 0.10880687D+01  1  2  6  3  6  4        2 0.449566278176D-01 0.100000000000D+01
0.337642029746D-01 0.000000000000D+00 0.000000000000D+00 0.102421202685D-04 0.107808801425D-03  6 -1 1 25 2 -2 21 2 0.71597412D-01 0.18661338D+00 0.26904206D+06 0.26904206D+06 0.26904206D+06 0.10880688D+01  1  2 11  3  6  4        2 0.104052940540D+00 0.100000000000D+01
  </mgrwgt>
  </event>
  <event>
  5     66 0.18829897E-05 0.27486638E+03 0.75467711E-02 0.93931270E-01
       -1 -1    0    0    0  501 0.00000000E+00 0.00000000E+00 0.14594300E+04 0.14594300E+04 0.32000000E+00 0.0000E+00 0.9000E+01
        1 -1    0    0  502    0 0.00000000E+00 0.00000000E+00 -.15688765E+04 0.15688765E+04 0.32000000E+00 0.0000E+00 0.9000E+01
       25  1    1    2    0    0 0.29920689E+03 -.37498197E+03 0.58042128E+03 0.76331521E+03 0.12500000E+03 0.0000E+00 0.9000E+01
        2  1    1    2  502    0 -.27499735E+03 0.10113764E+03 -.14382084E+04 0.14677520E+04 0.32000000E+00 0.0000E+00 0.9000E+01
       -2  1    1    2    0  501 -.24209547E+02 0.27384433E+03 0.74834060E+03 0.79723934E+03 0.32000000E+00 0.0000E+00 0.9000E+01
#aMCatNLO 1  0  0  2  1 0.12019600D+03 0.00000000D+00  -5  6  0 0.00000000D+00 0.00000000D+00 0.00000000D+00 0.00000000D+00 0.00000000D+00
  <mgrwgt>
 0.1795460210D-02    1    2    0
 0.151316406378940D+04 0.000000000000000D+00 0.000000000000000D+00 0.151316406378940D+04
 0.151316406378940D+04 0.000000000000000D+00 0.000000000000000D+00 -.151316406378940D+04
 0.784915616638507D+03 0.299230773198301D+03 -.374947950311778D+03 0.608557724600675D+03
 0.141672648796805D+04 -.275025277644728D+03 0.101149443742912D+03 -.138608940130038D+04
 0.824686022972248D+03 -.242054955535730D+02 0.273798506568866D+03 0.777531676699700D+03
 0.000000000000000D+00 -.000000000000000D+00 -.000000000000000D+00 0.000000000000000D+00
 0.339780469991596D+04 0.000000000000000D+00 0.000000000000000D+00 0.339780469991596D+04
 0.226518132027799D+04 0.000000000000000D+00 0.000000000000000D+00 -.226518132027799D+04
 0.717184323657356D+03 0.356473881226551D+03 0.362246039590206D+02 0.608557724600675D+03
 0.168830718084572D+04 -.156696414852650D+03 0.951095968906556D+03 -.138608940130038D+04
 0.112137901381901D+04 0.499565546154053D+02 0.806498435840515D+03 0.777531676699700D+03
 0.213611550187187D+04 -.249734020989306D+03 -.179381900870609D+04 0.113262337963796D+04
0.231650590149D-01 0.000000000000D+00 0.000000000000D+00 0.235990076862D-04 0.000000000000D+00  6 -1 1 25 2 -2 21 2 0.22452769D+00 0.24136562D+00 0.28282943D+06 0.28282943D+06 0.28282943D+06 0.10864507D+01  1  2 14  2  6  2        1 0.179546021024D-02 0.100000000000D+01
  </mgrwgt>
  </event>
  <event>
  6     66 0.18829897E-05 0.43556537E+02 0.75467711E-02 0.93993876E-01
       -1 -1    0    0    0  501 0.00000000E+00 0.00000000E+00 0.51458789E+03 0.51458799E+03 0.32000000E+00 0.0000E+00 0.9000E+01
        1 -1    0    0  502    0 -.00000000E+00 -.00000000E+00 -.12022232E+04 0.12022233E+04 0.32000000E+00 0.0000E+00 0.9000E+01
       25  1    1    2    0    0 0.48611212E+03 -.19486809E+02 -.11923295E+03 0.51626178E+03 0.12500000E+03 0.0000E+00 0.9000E+01
        2  1    1    2  503    0 -.38399620E+03 0.61296917E+02 -.58719164E+03 0.70427588E+03 0.32000000E+00 0.0000E+00 0.9000E+01
       -2  1    1    2    0  501 0.48935667E+01 -.57970506E+02 0.24163391E+03 0.24853888E+03 0.32000000E+00 0.0000E+00 0.9000E+01
       21  1    1    2  502  503 -.10700948E+03 0.16160399E+02 -.22284464E+03 0.24773470E+03 0.75000000E+00 0.0000E+00 0.9000E+01
#aMCatNLO 2  0  0  4  2 0.24090277D+02 0.00000000D+00  -5  6  0 0.00000000D+00 0.00000000D+00 0.00000000D+00 0.00000000D+00 0.00000000D+00
  <mgrwgt>
 0.5442494244D-02    3    2    0
 0.786542830632447D+03 0.000000000000000D+00 0.000000000000000D+00 0.786542830632447D+03
 0.786542830632447D+03 -.000000000000000D+00 -.000000000000000D+00 -.786542830632447D+03
 0.512000676059942D+03 0.486717091516006D+03 -.195938392726510D+02 0.961366037188471D+02
 0.683958141004322D+03 -.491997232682480D+03 0.776064867396521D+02 -.468737341050186D+03
 0.377126844200629D+03 0.528014116647348D+01 -.580126474670011D+02 0.372600737331339D+03
 0.000000000000000D+00 0.000000000000000D+00 0.000000000000000D+00 -.000000000000000D+00
 0.786542830632447D+03 0.000000000000000D+00 0.000000000000000D+00 0.786542830632447D+03
 0.786542830632447D+03 -.000000000000000D+00 -.000000000000000D+00 -.786542830632447D+03
 0.511402080544253D+03 0.486189793366144D+03 -.195106645022321D+02 0.956342343633137D+02
 0.511853616383293D+03 -.383977898926897D+03 0.612888789291650D+02 -.332864493540460D+03
 0.376746554665187D+03 0.489171535279770D+01 -.579513780923869D+02 0.372230674918376D+03
 0.173083409672160D+03 -.107103609792045D+03 0.161731636654540D+02 -.135000415741229D+03
-.597091858107D-08 0.000000000000D+00 0.000000000000D+00 0.122136505292D-04 0.000000000000D+00  6 -1 1 25 2 -2 21 2 0.79167378D-01 0.18495743D+00 0.27967930D+06 0.27967930D+06 0.27967930D+06 0.10868127D+01  1  2 13  3  6  4        2 -.152428411588D-07 0.100000000000D+01
-.501550728626D-02 0.000000000000D+00 0.000000000000D+00 0.122136505292D-04 0.000000000000D+00  6 -1 1 25 2 -2 21 2 0.79167378D-01 0.18495743D+00 0.27967930D+06 0.27967930D+06 0.27967930D+06 0.10868127D+01  1  2 13  3  6  4        2 -.128038223696D-01 0.100000000000D+01
0.714744454666D-02 0.000000000000D+00 0.000000000000D+00 0.122136505292D-04 0.109689108764D-06  6 -1 1 25 2 -2 21 2 0.79167378D-01 0.18495743D+00 0.27967930D+06 0.27967930D+06 0.27967930D+06 0.10868127D+01  1  2  1  3  6  4        2 0.182463318561D-01 0.100000000000D+01
  </mgrwgt>
  </event>
  <event>
  5     66 0.18829897E-05 0.24994759E+02 0.75467711E-02 0.93957810E-01
       -1 -1    0    0    0  501 0.00000000E+00 0.00000000E+00 0.23289566E+03 0.23289588E+03 0.32000000E+00 0.0000E+00 0.9000E+01
        1 -1    0    0  502    0 -.00000000E+00 -.00000000E+00 -.14466002E+04 0.14466002E+04 0.32000000E+00 0.0000E+00 0.9000E+01
       25  1    1    2    0    0 -.31407126E+02 -.48808789E+03 -.66059999E+03 0.83140456E+03 0.12500000E+03 0.0000E+00 0.9000E+01
        2  1    1    2  502    0 -.21189633E+02 0.13257609E+02 -.31193413E+03 0.31293413E+03 0.32000000E+00 0.0000E+00 0.9000E+01
       -2  1    1    2    0  501 0.52596759E+02 0.47483028E+03 -.24117042E+03 0.53515744E+03 0.32000000E+00 0.0000E+00 0.9000E+01
#aMCatNLO 1  0  0  4  2 0.24090277D+02 0.00000000D+00  -5  6  0 0.00000000D+00 0.00000000D+00 0.00000000D+00 0.00000000D+00 0.00000000D+00
  <mgrwgt>
 0.9224248900D-02    6    2    0
 0.580437016055221D+03 0.000000000000000D+00 0.000000000000000D+00 0.580437016055221D+03
 0.580437016055221D+03 -.000000000000000D+00 -.000000000000000D+00 -.580437016055221D+03
 0.512175772820984D+03 -.314080070177954D+02 -.488090281241382D+03 -.864895179640322D+02
 0.126601825221319D+03 -.211890206367896D+02 0.132575784477258D+02 -.124109968042561D+03
 0.522096434068140D+03 0.525970276545849D+02 0.474832702793657D+03 0.210599486006593D+03
 0.000000000000000D+00 0.000000000000000D+00 0.000000000000000D+00 -.000000000000000D+00
 0.580437016055221D+03 0.000000000000000D+00 0.000000000000000D+00 0.580437016055221D+03
 0.580437016055221D+03 -.000000000000000D+00 -.000000000000000D+00 -.580437016055221D+03
 0.513268002030258D+03 -.334845923251408D+02 -.486791000208651D+03 -.986526537950868D+02
 0.537561112589180D+02 -.373028804376866D+02 -.196260908585127D+02 -.333621217302833D+02
 0.518242995974532D+03 0.504902777497526D+02 0.476150857257321D+03 0.198259667765611D+03
 0.756069228467341D+02 0.202971950130747D+02 0.302662338098435D+02 -.662448922402407D+02
0.185582024070D-02 0.000000000000D+00 0.000000000000D+00 0.260599123594D-05 0.000000000000D+00  6 -1 1 25 2 -2 21 0 0.35830122D-01 0.22255390D+00 0.25379026D+06 0.25379026D+06 0.25379026D+06 0.10899678D+01  1  2  2  3  6  4        2 0.118746509649D-01 0.100000000000D+01
0.693176682927D-03 0.000000000000D+00 -.712683837298D-05 0.260599123594D-05 0.000000000000D+00  6 -1 1 25 2 -2 21 2 0.35830122D-01 0.22255390D+00 0.25379026D+06 0.25379026D+06 0.25379026D+06 0.10899678D+01  1  2  3  3  6  4        2 0.526934032750D-02 0.100000000000D+01
-.113018637645D-02 0.000000000000D+00 0.000000000000D+00 0.260599123594D-05 0.000000000000D+00  6 -1 1 25 2 -2 21 2 0.35830122D-01 0.22255390D+00 0.25379026D+06 0.25379026D+06 0.25379026D+06 0.10899678D+01  1  2 15  3  6  4        2 -.859136897948D-02 0.100000000000D+01
-.956826647061D-03 0.000000000000D+00 0.000000000000D+00 0.260599123594D-05 0.000000000000D+00  6 -1 1 25 2 -2 21 2 0.35830122D-01 0.22255390D+00 0.25379026D+06 0.25379026D+06 0.25379026D+06 0.10899678D+01  1  2  4  3  6  4        2 -.727353553858D-02 0.100000000000D+01
-.664302162916D-03 0.000000000000D+00 0.000000000000D+00 0.260599123594D-05 0.000000000000D+00  6 -1 1 25 2 -2 21 2 0.35830122D-01 0.22255390D+00 0.25379026D+06 0.25379026D+06 0.25379026D+06 0.10899678D+01  1  2  5  3  6  4        2 -.504984409158D-02 0.100000000000D+01
0.170948064542D-02 0.000000000000D+00 -.000000000000D+00 0.260599123594D-05 0.000000000000D+00  6 -1 1 25 2 -2 21 2 0.35830122D-01 0.22255390D+00 0.25379026D+06 0.25379026D+06 0.25379026D+06 0.10899678D+01  1  2  6  3  6  4        2 0.129950062168D-01 0.100000000000D+01
  </mgrwgt>
  </event>
  <event>
  5     66 0.18829897E-05 0.61988666E+02 0.75467711E-02 0.93132405E-01
       -1 -1    0    0    0  501 0.00000000E+00 0.00000000E+00 0.10999262E+04 0.10999263E+04 0.32000000E+00 0.0000E+00 0.9000E+01
        1 -1    0    0  502    0 0.00000000E+00 0.00000000E+00 -.38432725E+03 0.38432738E+03 0.32000000E+00 0.0000E+00 0.9000E+01
       25  1    1    2    0    0 -.12729794E+03 -.52728937E+03 0.32559463E+03 0.64488426E+03 0.12500000E+03 0.0000E+00 0.9000E+01
        2  1    1    2  502    0 0.14640187E+03 0.46825301E+03 0.49318663E+02 0.49307892E+03 0.32000000E+00 0.0000E+00 0.9000E+01
       -2  1    1    2    0  501 -.19103936E+02 0.59036361E+02 0.34068566E+03 0.34629045E+03 0.32000000E+00 0.0000E+00 0.9000E+01
#aMCatNLO 1  0  0  2  4 0.32261067D+02 0.00000000D+00  -5  6  0 0.00000000D+00 0.00000000D+00 0.00000000D+00 0.00000000D+00 0.00000000D+00
  <mgrwgt>
 0.7540076729D-03   11    2    0
 0.650178239471609D+03 0.000000000000000D+00 0.000000000000000D+00 0.650178239471609D+03
 0.650178239471609D+03 0.000000000000000D+00 0.000000000000000D+00 -.650178239471609D+03
 0.556997311587376D+03 -.127343719003823D+03 -.527369205834759D+03 0.169204929909207D+02
 0.535785768559095D+03 0.146428647704297D+03 0.468391581517811D+03 -.215021783280660D+03
 0.207573398796745D+03 -.190849287004741D+02 0.589776243169476D+02 0.198101290289739D+03
 0.000000000000000D+00 -.000000000000000D+00 -.000000000000000D+00 -.000000000000000D+00
 0.651108566526164D+03 0.000000000000000D+00 0.000000000000000D+00 0.651108566526164D+03
 0.100668004216978D+04 0.000000000000000D+00 0.000000000000000D+00 -.100668004216978D+04
 0.549480225090216D+03 -.114554259921910D+03 -.522393085918911D+03 0.169204929909207D+02
 0.543549815911579D+03 0.158904380681841D+03 0.473245636950238D+03 -.215021783280660D+03
 0.207726565280105D+03 -.142845945579216D+02 0.608453372652819D+02 0.198101290289739D+03
 0.357032002414041D+03 -.300655262020098D+02 -.116978882966090D+02 -.355571475643612D+03
0.310125754555D-04 0.000000000000D+00 0.000000000000D+00 0.101560571786D-05 0.000000000000D+00  6 -1 1 25 2 -2 21 0 0.16921943D+00 0.59127283D-01 0.30773386D+06 0.30773386D+06 0.30773386D+06 0.10837350D+01  1  2  2  2  6  2        1 0.599573881688D-04 0.100000000000D+01
0.666451668108D-05 0.000000000000D+00 -.119096455548D-06 0.101560571786D-05 0.000000000000D+00  6 -1 1 25 2 -2 21 2 0.16921943D+00 0.59127283D-01 0.30773386D+06 0.30773386D+06 0.30773386D+06 0.10837350D+01  1  2  3  2  6  2        1 0.151328148898D-04 0.100000000000D+01
-.206807764553D-04 0.000000000000D+00 0.000000000000D+00 0.101560571786D-05 0.000000000000D+00  6 -1 1 25 2 -2 21 2 0.16921943D+00 0.59127283D-01 0.30773386D+06 0.30773386D+06 0.30773386D+06 0.10837350D+01  1  2 15  2  6  2        1 -.469588984247D-04 0.100000000000D+01
0.318757183900D-06 0.000000000000D+00 0.000000000000D+00 0.101560571786D-05 0.000000000000D+00  6 -1 1 25 2 -2 21 2 0.16921943D+00 0.91570819D-01 0.32672185D+06 0.32672185D+06 0.32672185D+06 0.10818208D+01  1  2 12  2  6  2        1 0.390259287371D-06 0.100000000000D+01
0.357131890006D-02 0.000000000000D+00 0.000000000000D+00 0.101560571786D-05 0.000000000000D+00  6 -1 1 25 2 -2 21 2 0.16921943D+00 0.91727384D-01 0.32672185D+06 0.32672185D+06 0.32672185D+06 0.10818208D+01  1  2 12  2  6  2        1 0.436154837015D-02 0.100000000000D+01
-.293611995360D-02 0.000000000000D+00 0.000000000000D+00 0.101560571786D-05 0.000000000000D+00  6 -1 1 25 2 -2 21 2 0.16921943D+00 0.59127283D-01 0.30773386D+06 0.30773386D+06 0.30773386D+06 0.10837350D+01  1  2  4  2  6  2        1 -.666691402818D-02 0.100000000000D+01
-.360138080779D-02 0.000000000000D+00 -.226753056223D-04 0.101560571786D-05 0.000000000000D+00  6 -1 1 25 2 -2 21 2 0.16921943D+00 0.91595238D-01 0.30773386D+06 0.30773386D+06 0.30773386D+06 0.10837350D+01  1  2  5  2  6  2        1 -.443861802511D-02 0.100000000000D+01
0.329284445633D-02 0.000000000000D+00 0.206641882001D-04 0.101560571786D-05 0.000000000000D+00  6 -1 1 25 2 -2 21 2 0.16921943D+00 0.59127283D-01 0.30773386D+06 0.30773386D+06 0.30773386D+06 0.10837350D+01  1  2  6  2  6  2        1 0.747691213080D-02 0.100000000000D+01
0.162136095116D-07 0.000000000000D+00 0.000000000000D+00 0.101560571786D-05 0.000000000000D+00  6 -1 21 25 2 -2 -1 2 0.16921943D+00 0.91570819D-01 0.32672185D+06 0.32672185D+06 0.32672185D+06 0.10818208D+01  1  2 12  6  6  2        1 0.479831767043D-07 0.100000000000D+01
0.182188392372D-03 0.000000000000D+00 0.000000000000D+00 0.101560571786D-05 0.000000000000D+00  6 -1 21 25 2 -2 -1 2 0.16921943D+00 0.91727384D-01 0.32672185D+06 0.32672185D+06 0.32672185D+06 0.10818208D+01  1  2 12  6  6  2        1 0.536853211180D-03 0.100000000000D+01
-.182397068133D-03 0.000000000000D+00 -.115390934805D-05 0.101560571786D-05 0.000000000000D+00  6 -1 21 25 2 -2 -1 2 0.16921943D+00 0.91595238D-01 0.30773386D+06 0.30773386D+06 0.30773386D+06 0.10837350D+01  1  2  5  6  6  2        1 -.544343533016D-03 0.100000000000D+01
  </mgrwgt>
  </event>
  <event>
  5     66 0.18829897E-05 0.64102106E+02 0.75467711E-02 0.81972738E-01
       -1 -1    0    0    0  501 0.00000000E+00 0.00000000E+00 0.13257369E+04 0.13257369E+04 0.32000000E+00 0.0000E+00 0.9000E+01
        1 -1    0    0  502    0 0.00000000E+00 0.00000000E+00 -.80735187E+03 0.80735194E+03 0.32000000E+00 0.0000E+00 0.9000E+01
       25  1    1    2    0    0 -.26173954E+03 0.46031340E+03 0.29555996E+03 0.61917421E+03 0.12500000E+03 0.0000E+00 0.9000E+01
        2  1    1    2  502    0 0.24472672E+03 -.39849732E+03 -.55936814E+03 0.72909814E+03 0.32000000E+00 0.0000E+00 0.9000E+01
       -2  1    1    2    0  501 0.17012817E+02 -.61816081E+02 0.78219319E+03 0.78481651E+03 0.32000000E+00 0.0000E+00 0.9000E+01
#aMCatNLO 1  0  0  1  2 0.79156862D+02 0.00000000D+00  -5  6  0 0.00000000D+00 0.00000000D+00 0.00000000D+00 0.00000000D+00 0.00000000D+00
  <mgrwgt>
 0.1017148368D-02    5    4    0
 0.103457057191367D+04 0.000000000000000D+00 0.000000000000000D+00 0.103457057191367D+04
 0.103457057191367D+04 0.000000000000000D+00 0.000000000000000D+00 -.103457057191367D+04
 0.564347615941265D+03 -.261772092260512D+03 0.460361620237177D+03 0.149685610346302D+03
 0.891804153331818D+03 0.244762553347893D+03 -.398557449371943D+03 -.759314098333906D+03
 0.612989374554250D+03 0.170095389126188D+02 -.618041708652346D+02 0.609628487987604D+03
 0.000000000000000D+00 -.000000000000000D+00 -.000000000000000D+00 0.000000000000000D+00
 0.431547012585869D+04 0.000000000000000D+00 0.000000000000000D+00 0.431547012585869D+04
 0.151267576849283D+04 0.000000000000000D+00 0.000000000000000D+00 -.151267576849283D+04
 0.518748334281509D+03 0.105588261450019D+03 0.468956470708164D+03 0.149685610346302D+03
 0.130429223437193D+04 0.989626150708154D+03 -.381130442957316D+03 -.759314098333906D+03
 0.784390163193869D+03 0.490967401232593D+03 -.507153396534738D+02 0.609628487987604D+03
 0.322071516250421D+04 -.158618181339077D+04 -.371106880973745D+02 0.280279435736585D+04
 0.103457057191367D+04 0.000000000000000D+00 0.000000000000000D+00 0.103457057191367D+04
 0.103457057191367D+04 0.000000000000000D+00 0.000000000000000D+00 -.103457057191367D+04
 0.564347615941265D+03 -.261772092260512D+03 0.460361620237177D+03 0.149685610346302D+03
 0.891804153331818D+03 0.244762553347893D+03 -.398557449371943D+03 -.759314098333906D+03
 0.000000000000000D+00 -.000000000000000D+00 -.000000000000000D+00 0.000000000000000D+00
 0.612989374554250D+03 0.170095389126188D+02 -.618041708652346D+02 0.609628487987604D+03
 0.431547012585869D+04 0.000000000000000D+00 0.000000000000000D+00 0.431547012585869D+04
 0.151267576849283D+04 0.000000000000000D+00 0.000000000000000D+00 -.151267576849283D+04
 0.518748334281509D+03 0.105588261450019D+03 0.468956470708164D+03 0.149685610346302D+03
 0.130429223437193D+04 0.989626150708154D+03 -.381130442957316D+03 -.759314098333906D+03
 0.322071516250421D+04 -.158618181339077D+04 -.371106880973745D+02 0.280279435736585D+04
 0.784390163193869D+03 0.490967401232593D+03 -.507153396534738D+02 0.609628487987604D+03
0.529030035777D-02 0.000000000000D+00 0.000000000000D+00 0.765229592595D-04 0.000000000000D+00  6 -1 1 25 2 -2 21 0 0.20395953D+00 0.12420799D+00 0.28941768D+06 0.28941768D+06 0.28941768D+06 0.10857076D+01  1  2  2  1  6  1       -1 0.183113192314D-02 0.100000000000D+01
0.174584789914D-02 0.000000000000D+00 -.203161463419D-04 0.765229592595D-04 0.000000000000D+00  6 -1 1 25 2 -2 21 2 0.20395953D+00 0.12420799D+00 0.28941768D+06 0.28941768D+06 0.28941768D+06 0.10857076D+01  1  2  3  1  6  1       -1 0.712314013337D-03 0.100000000000D+01
-.374143444980D-02 0.000000000000D+00 0.000000000000D+00 0.765229592595D-04 0.000000000000D+00  6 -1 1 25 2 -2 21 2 0.20395953D+00 0.12420799D+00 0.28941768D+06 0.28941768D+06 0.28941768D+06 0.10857076D+01  1  2 15  1  6  1       -1 -.152652255096D-02 0.100000000000D+01
0.153011969568D-02 0.000000000000D+00 -.345954414291D-02 0.765229592595D-04 0.000000000000D+00  6 -1 1 25 2 -2 21 2 0.86805730D+00 0.12420799D+00 0.28941768D+06 0.28941768D+06 0.28941768D+06 0.10857076D+01  1  2  5  1  6  1       -1 0.224064027799D-06 0.100000000000D+01
0.270448843340D-03 0.000000000000D+00 -.602434167948D-03 0.765229592595D-04 0.000000000000D+00  6 21 1 25 2 1 -2 2 0.86805730D+00 0.12420799D+00 0.28941768D+06 0.28941768D+06 0.28941768D+06 0.10857076D+01  3  4  5  5  5  1       -1 0.918695079102D-09 0.100000000000D+01
  </mgrwgt>
  </event>
  <event>
  6     66 0.18829897E-05 0.12484357E+03 0.75467711E-02 0.94825076E-01
       -1 -1    0    0    0  503 0.00000000E+00 0.00000000E+00 0.45180141E+03 0.45180153E+03 0.32000000E+00 0.0000E+00 0.9000E+01
        1 -1    0    0  502    0 0.00000000E+00 0.00000000E+00 -.15869551E+04 0.15869551E+04 0.32000000E+00 0.0000E+00 0.9000E+01
       25  1    1    2    0    0 -.80390967E+02 -.44599051E+03 -.75552825E+03 0.88984166E+03 0.12500000E+03 0.0000E+00 0.9000E+01
        2  1    1    2  502    0 -.80545475E+02 0.11301029E+03 -.66014274E+03 0.67457204E+03 0.32000000E+00 0.0000E+00 0.9000E+01
       -2  1    1    2    0  501 0.16249379E+03 0.30406857E+03 0.22489230E+03 0.41162918E+03 0.32000000E+00 0.0000E+00 0.9000E+01
       21  1    1    2  501  503 -.15573472E+01 0.28911642E+02 0.55625032E+02 0.62713755E+02 0.75000000E+00 0.0000E+00 0.9000E+01
#aMCatNLO 2  0  0  1  2 0.39292361D+02 0.00000000D+00  -5  6  0 0.00000000D+00 0.00000000D+00 0.00000000D+00 0.00000000D+00 0.00000000D+00
  <mgrwgt>
 0.2298966763D-01    1    2    0
 0.788345298932659D+03 0.000000000000000D+00 0.000000000000000D+00 0.788345298932659D+03
 0.788345298932659D+03 0.000000000000000D+00 0.000000000000000D+00 -.788345298932659D+03
 0.536504446204799D+03 -.809159732696086D+02 -.436086733986544D+03 -.274759870629426D+03
 0.349050053194055D+03 -.808943673427999D+02 0.119403324604180D+03 -.317859854401983D+03
 0.691136098466463D+03 0.161810340612409D+03 0.316683409382364D+03 0.592619725031409D+03
 0.000000000000000D+00 -.000000000000000D+00 0.000000000000000D+00 0.000000000000000D+00
 0.907300012390067D+03 0.000000000000000D+00 0.000000000000000D+00 0.907300012390067D+03
 0.790242003138128D+03 0.000000000000000D+00 0.000000000000000D+00 -.790242003138128D+03
 0.544511460361242D+03 -.803821414471369D+02 -.445997147180120D+03 -.274759870629426D+03
 0.346839510636769D+03 -.805507202310021D+02 0.113023628364031D+03 -.317859854401983D+03
 0.685605448747662D+03 0.162490208914769D+03 0.304061876701132D+03 0.592619725031409D+03
 0.120585595782522D+03 -.155734723663022D+01 0.289116421149563D+02 0.117058009251939D+03
0.125134956895D-01 0.000000000000D+00 0.000000000000D+00 0.329359017308D-05 0.664732427417D-07  6 -1 1 25 2 -2 21 2 0.69507819D-01 0.24414659D+00 0.24137863D+06 0.24137863D+06 0.24137863D+06 0.10916076D+01  1  2  1  1  6  1       -1 0.229896676287D-01 0.100000000000D+01
  </mgrwgt>
  </event>
  <event>
  5     66 -.18829897E-05 0.25497285E+02 0.75467711E-02 0.94704070E-01
       -1 -1    0    0    0  501 0.00000000E+00 0.00000000E+00 0.26630284E+04 0.26630284E+04 0.32000000E+00 0.0000E+00 0.9000E+01
        1 -1    0    0  502    0 0.00000000E+00 0.00000000E+00 -.10147352E+04 0.10147352E+04 0.32000000E+00 0.0000E+00 0.9000E+01
       25  1    1    2    0    0 -.43656813E+03 -.20951855E+03 0.22711769E+03 0.54926970E+03 0.12500000E+03 0.0000E+00 0.9000E+01
        2  1    1    2  502    0 0.42636241E+03 0.18615198E+03 -.79019499E+03 0.91697638E+03 0.32000000E+00 0.0000E+00 0.9000E+01
       -2  1    1    2    0  501 0.10205722E+02 0.23366565E+02 0.22113706E+04 0.22115176E+04 0.32000000E+00 0.0000E+00 0.9000E+01
#aMCatNLO 1  0  0  2  4 0.59862708D+01 0.00000000D+00  -5  6  0 0.00000000D+00 0.00000000D+00 0.00000000D+00 0.00000000D+00 0.00000000D+00
  <mgrwgt>
 -.7753954801D-02   13    2    0
 0.164385787443272D+04 0.000000000000000D+00 0.000000000000000D+00 0.164385787443272D+04
 0.164385787443272D+04 0.000000000000000D+00 0.000000000000000D+00 -.164385787443272D+04
 0.500602556434355D+03 -.436602020281435D+03 -.209533030035593D+03 -.212721583033787D+02
 0.142193800383474D+04 0.426396624534184D+03 0.186167212752074D+03 -.134366490399634D+04
 0.136517518859635D+04 0.102053957472510D+02 0.233658172835185D+02 0.136493706229972D+04
 0.000000000000000D+00 0.000000000000000D+00 0.000000000000000D+00 -.000000000000000D+00
 0.164387382832878D+04 0.000000000000000D+00 0.000000000000000D+00 0.164387382832878D+04
 0.232107688361686D+04 0.000000000000000D+00 0.000000000000000D+00 -.232107688361686D+04
 0.501309514969208D+03 -.437024185948070D+03 -.210341593547747D+03 -.212721583033787D+02
 0.142128054591990D+04 0.425198605976764D+03 0.183872677291302D+03 -.134366490399634D+04
 0.136513113787091D+04 0.905495388380967D+01 0.211624042939016D+02 0.136493706229972D+04
 0.677229513185623D+03 0.277062608749659D+01 0.530651196254301D+01 -.677203055288080D+03
0.327658438977D-02 0.000000000000D+00 0.000000000000D+00 0.280114678864D-02 0.000000000000D+00  6 -1 1 25 2 -2 21 0 0.40969669D+00 0.15611311D+00 0.24547741D+06 0.24547741D+06 0.24547741D+06 0.10910561D+01  1  2  2  2  6  2        1 0.123927457787D-04 0.100000000000D+01
0.252992426365D-02 0.000000000000D+00 -.125829468012D-04 0.280114678864D-02 0.000000000000D+00  6 -1 1 25 2 -2 21 2 0.40969669D+00 0.15611311D+00 0.24547741D+06 0.24547741D+06 0.24547741D+06 0.10910561D+01  1  2  3  2  6  2        1 0.113906324821D-04 0.100000000000D+01
-.223084728731D-02 0.000000000000D+00 0.000000000000D+00 0.280114678864D-02 0.000000000000D+00  6 -1 1 25 2 -2 21 2 0.40969669D+00 0.15611311D+00 0.24547741D+06 0.24547741D+06 0.24547741D+06 0.10910561D+01  1  2 15  2  6  2        1 -.100440799507D-04 0.100000000000D+01
0.486011990600D-08 0.000000000000D+00 0.000000000000D+00 0.280114678864D-02 0.000000000000D+00  6 -1 1 25 2 -2 21 2 0.40969669D+00 0.22042744D+00 0.24656943D+06 0.24656943D+06 0.24656943D+06 0.10909108D+01  1  2 12  2  6  2        1 0.110504074579D-10 0.100000000000D+01
0.355445855177D+02 0.000000000000D+00 0.000000000000D+00 0.280114678864D-02 0.000000000000D+00  6 -1 1 25 2 -2 21 2 0.40969669D+00 0.22046380D+00 0.24656943D+06 0.24656943D+06 0.24656943D+06 0.10909108D+01  1  2 12  2  6  2        1 0.807876085755D-01 0.100000000000D+01
-.452851486068D+02 0.000000000000D+00 0.000000000000D+00 0.280114678864D-02 0.000000000000D+00  6 -1 1 25 2 -2 21 2 0.40969669D+00 0.15611311D+00 0.24547741D+06 0.24547741D+06 0.24547741D+06 0.10910561D+01  1  2  4  2  6  2        1 -.203890089552D+00 0.100000000000D+01
-.457172371541D+02 0.000000000000D+00 -.252198009551D-02 0.280114678864D-02 0.000000000000D+00  6 -1 1 25 2 -2 21 2 0.40969669D+00 0.22042761D+00 0.24547741D+06 0.24547741D+06 0.24547741D+06 0.10910561D+01  1  2  5  2  6  2        1 -.104030741876D+00 0.100000000000D+01
0.431263111667D+02 0.000000000000D+00 0.237899958782D-02 0.280114678864D-02 0.000000000000D+00  6 -1 1 25 2 -2 21 2 0.40969669D+00 0.15611311D+00 0.24547741D+06 0.24547741D+06 0.24547741D+06 0.10910561D+01  1  2  6  2  6  2        1 0.194170223933D+00 0.100000000000D+01
0.110685575546D+02 0.000000000000D+00 0.000000000000D+00 0.280114678864D-02 0.571818162349D-03  6 -1 1 25 2 -2 21 2 0.40970066D+00 0.22042692D+00 0.24656943D+06 0.24656943D+06 0.24656943D+06 0.10909108D+01  1  2 11  2  6  2        1 0.251645823380D-01 0.100000000000D+01
0.207781091622D-09 0.000000000000D+00 0.000000000000D+00 0.280114678864D-02 0.000000000000D+00  6 -1 21 25 2 -2 -1 2 0.40969669D+00 0.22042744D+00 0.24656943D+06 0.24656943D+06 0.24656943D+06 0.10909108D+01  1  2 12  6  6  2        1 0.393540781179D-12 0.100000000000D+01
0.151961122832D+01 0.000000000000D+00 0.000000000000D+00 0.280114678864D-02 0.000000000000D+00  6 -1 21 25 2 -2 -1 2 0.40969669D+00 0.22046380D+00 0.24656943D+06 0.24656943D+06 0.24656943D+06 0.10909108D+01  1  2 12  6  6  2        1 0.287645247250D-02 0.100000000000D+01
-.195441837331D+01 0.000000000000D+00 -.107818859228D-03 0.280114678864D-02 0.000000000000D+00  6 -1 21 25 2 -2 -1 2 0.40969669D+00 0.22042761D+00 0.24547741D+06 0.24547741D+06 0.24547741D+06 0.10910561D+01  1  2  5  6  6  2        1 -.370538426755D-02 0.100000000000D+01
0.453911610125D+00 0.000000000000D+00 0.000000000000D+00 0.280114678864D-02 0.234488939831D-04  6 -1 21 25 2 -2 -1 2 0.40970066D+00 0.22042692D+00 0.24656943D+06 0.24656943D+06 0.24656943D+06 0.10909108D+01  1  2 11  6  6  2        1 0.859654265291D-03 0.100000000000D+01
  </mgrwgt>
  </event>
  <event>
  5     66 0.18829897E-05 0.17266538E+03 0.75467711E-02 0.93302399E-01
       -1 -1    0    0    0  501 0.00000000E+00 0.00000000E+00 0.38336242E+03 0.38336256E+03 0.32000000E+00 0.0000E+00 0.9000E+01
        1 -1    0    0  502    0 -.00000000E+00 -.00000000E+00 -.12447906E+04 0.12447906E+04 0.32000000E+00 0.0000E+00 0.9000E+01
       25  1    1    2    0    0 -.13108734E+03 0.47740061E+03 -.80042850E+02 0.51684339E+03 0.12500000E+03 0.0000E+00 0.9000E+01
        2  1    1    2  502    0 0.26143166E+03 -.36393080E+03 -.81980396E+03 0.93427554E+03 0.32000000E+00 0.0000E+00 0.9000E+01
       -2  1    1    2    0  501 -.13034432E+03 -.11346981E+03 0.38418630E+02 0.17703428E+03 0.32000000E+00 0.0000E+00 0.9000E+01
#aMCatNLO 1  0  0  5  1 0.29781908D+02 0.00000000D+00  -5  6  0 0.00000000D+00 0.00000000D+00 0.00000000D+00 0.00000000D+00 0.00000000D+00
  <mgrwgt>
 0.3607143173D-03    8    2    0
 0.690801046382329D+03 0.000000000000000D+00 0.000000000000000D+00 0.690801046382329D+03
 0.690801046382329D+03 -.000000000000000D+00 -.000000000000000D+00 -.690801046382329D+03
 0.559275340167414D+03 -.131229786139319D+03 0.477410022269122D+03 0.228084019576562D+03
 0.589947822333708D+03 0.261461224665924D+03 -.364038480868511D+03 -.383604543142317D+03
 0.232378930263537D+03 -.130231438526605D+03 -.113371541400611D+03 0.155520523565755D+03
 0.000000000000000D+00 -.000000000000000D+00 0.000000000000000D+00 0.000000000000000D+00
 0.690801046382329D+03 0.000000000000000D+00 0.000000000000000D+00 0.690801046382329D+03
 0.690801046382329D+03 -.000000000000000D+00 -.000000000000000D+00 -.690801046382329D+03
 0.559240925860018D+03 -.133544605151180D+03 0.475394882127792D+03 0.230848343373930D+03
 0.588297299759224D+03 0.259022794137828D+03 -.366161229650957D+03 -.380692604238020D+03
 0.624201818047074D+02 -.113525188947724D+02 -.196194046293397D+02 0.581590781672717D+02
 0.171643685340710D+03 -.114125670091875D+03 -.896142478474952D+02 0.916851826968176D+02
0.551104157145D-04 0.000000000000D+00 0.000000000000D+00 0.826946776178D-07 0.000000000000D+00  6 -1 1 25 2 -2 21 0 0.58978848D-01 0.19150626D+00 0.32008525D+06 0.32008525D+06 0.32008525D+06 0.10824757D+01  1  2  2  4  6  5       -2 0.196313982621D-03 0.100000000000D+01
0.264367884075D-05 0.000000000000D+00 -.211638507249D-06 0.826946776178D-07 0.000000000000D+00  6 -1 1 25 2 -2 21 2 0.58978848D-01 0.19150626D+00 0.32008525D+06 0.32008525D+06 0.32008525D+06 0.10824757D+01  1  2  3  4  6  5       -2 0.110347522414D-04 0.100000000000D+01
-.346415709049D-04 0.000000000000D+00 0.000000000000D+00 0.826946776178D-07 0.000000000000D+00  6 -1 1 25 2 -2 21 2 0.58978848D-01 0.19150626D+00 0.32008525D+06 0.32008525D+06 0.32008525D+06 0.10824757D+01  1  2 15  4  6  5       -2 -.144594398644D-03 0.100000000000D+01
0.273704312200D-07 0.000000000000D+00 0.000000000000D+00 0.826946776178D-07 0.000000000000D+00  6 -1 1 25 2 -2 21 2 0.58978848D-01 0.19150626D+00 0.31677750D+06 0.31677750D+06 0.31677750D+06 0.10828077D+01  1  2 12  4  6  5       -2 0.114368266804D-06 0.100000000000D+01
0.496560894374D-04 0.000000000000D+00 0.000000000000D+00 0.826946776178D-07 0.000000000000D+00  6 -1 1 25 2 -2 21 2 0.58978848D-01 0.19150626D+00 0.31677750D+06 0.31677750D+06 0.31677750D+06 0.10828077D+01  1  2 12  4  6  5       -2 0.207489638711D-03 0.100000000000D+01
-.468839682111D-04 0.000000000000D+00 0.000000000000D+00 0.826946776178D-07 0.000000000000D+00  6 -1 1 25 2 -2 21 2 0.58978848D-01 0.19150626D+00 0.32008525D+06 0.32008525D+06 0.32008525D+06 0.10824757D+01  1  2  4  4  6  5       -2 -.195694335229D-03 0.100000000000D+01
-.482555689068D-04 0.000000000000D+00 0.000000000000D+00 0.826946776178D-07 0.000000000000D+00  6 -1 1 25 2 -2 21 2 0.58978848D-01 0.19150626D+00 0.32008525D+06 0.32008525D+06 0.32008525D+06 0.10824757D+01  1  2  5  4  6  5       -2 -.201419415605D-03 0.100000000000D+01
0.116786799487D-03 0.000000000000D+00 -.000000000000D+00 0.826946776178D-07 0.000000000000D+00  6 -1 1 25 2 -2 21 2 0.58978848D-01 0.19150626D+00 0.32008525D+06 0.32008525D+06 0.32008525D+06 0.10824757D+01  1  2  6  4  6  5       -2 0.487469724966D-03 0.100000000000D+01
  </mgrwgt>
  </event>
  <event>
  5     66 0.18829897E-05 0.22994152E+02 0.75467711E-02 0.92607251E-01
       -1 -1    0    0    0  501 0.00000000E+00 0.00000000E+00 0.11383315E+04 0.11383315E+04 0.32000000E+00 0.0000E+00 0.9000E+01
        1 -1    0    0  502    0 0.00000000E+00 0.00000000E+00 -.88535241E+03 0.88535246E+03 0.32000000E+00 0.0000E+00 0.9000E+01
       25  1    1    2    0    0 -.13925720E+03 0.46281300E+03 0.74188542E+01 0.49926794E+03 0.12500000E+03 0.0000E+00 0.9000E+01
        2  1    1    2  502    0 0.16217386E+03 -.46089389E+03 -.54590162E+03 0.73262011E+03 0.32000000E+00 0.0000E+00 0.9000E+01
       -2  1    1    2    0  501 -.22916656E+02 -.19191097E+01 0.79146182E+03 0.79179591E+03 0.32000000E+00 0.0000E+00 0.9000E+01
#aMCatNLO 1  0  0  5  1 0.77053465D+01 0.00000000D+00  -5  6  0 0.00000000D+00 0.00000000D+00 0.00000000D+00 0.00000000D+00 0.00000000D+00
  <mgrwgt>
 0.3070793545D-02    6    2    0
 0.100390467511153D+04 0.000000000000000D+00 0.000000000000000D+00 0.100390467511153D+04
 0.100390467511153D+04 -.000000000000000D+00 -.000000000000000D+00 -.100390467511153D+04
 0.502339224938877D+03 -.139280851454481D+03 0.462876857279388D+03 -.553674663088625D+02
 0.807218826735844D+03 0.162194797741760D+03 -.460957974540310D+03 -.642505118679996D+03
 0.698251298548349D+03 -.229139462872788D+02 -.191888273907763D+01 0.697872584988859D+03
 0.000000000000000D+00 0.000000000000000D+00 0.000000000000000D+00 0.000000000000000D+00
 0.100390467511153D+04 0.000000000000000D+00 0.000000000000000D+00 0.100390467511153D+04
 0.100390467511153D+04 -.000000000000000D+00 -.000000000000000D+00 -.100390467511153D+04
 0.500678624397374D+03 -.139929043005189D+03 0.462822575770534D+03 -.356259906420437D+02
 0.782383868813316D+03 0.161167530842252D+03 -.461044000958335D+03 -.611218434245756D+03
 0.623125023271568D+03 -.115024807734856D+03 0.164056640272436D+02 0.612196816735090D+03
 0.101621833740811D+03 0.937863198977936D+02 -.181842388394431D+02 0.346476081527104D+02
0.462257674697D-02 0.000000000000D+00 0.000000000000D+00 0.172479400305D-03 0.000000000000D+00  6 -1 1 25 2 -2 21 0 0.17512792D+00 0.13620807D+00 0.25549669D+06 0.25549669D+06 0.25549669D+06 0.10897493D+01  1  2  2  4  6  5       -2 0.237832544867D-02 0.100000000000D+01
0.343965086657D-02 0.000000000000D+00 -.177519118608D-04 0.172479400305D-03 0.000000000000D+00  6 -1 1 25 2 -2 21 2 0.17512792D+00 0.13620807D+00 0.25549669D+06 0.25549669D+06 0.25549669D+06 0.10897493D+01  1  2  3  4  6  5       -2 0.210162234211D-02 0.100000000000D+01
-.303434765551D-02 0.000000000000D+00 0.000000000000D+00 0.172479400305D-03 0.000000000000D+00  6 -1 1 25 2 -2 21 2 0.17512792D+00 0.13620807D+00 0.25549669D+06 0.25549669D+06 0.25549669D+06 0.10897493D+01  1  2 15  4  6  5       -2 -.185398259123D-02 0.100000000000D+01
-.614204295757D-03 0.000000000000D+00 0.000000000000D+00 0.172479400305D-03 0.000000000000D+00  6 -1 1 25 2 -2 21 2 0.17512792D+00 0.13620807D+00 0.25549669D+06 0.25549669D+06 0.25549669D+06 0.10897493D+01  1  2  4  4  6  5       -2 -.375278050201D-03 0.100000000000D+01
-.860417596407D-02 0.000000000000D+00 0.000000000000D+00 0.172479400305D-03 0.000000000000D+00  6 -1 1 25 2 -2 21 2 0.17512792D+00 0.13620807D+00 0.25549669D+06 0.25549669D+06 0.25549669D+06 0.10897493D+01  1  2  5  4  6  5       -2 -.525714066426D-02 0.100000000000D+01
0.994641506141D-02 0.000000000000D+00 -.000000000000D+00 0.172479400305D-03 0.000000000000D+00  6 -1 1 25 2 -2 21 2 0.17512792D+00 0.13620807D+00 0.25549669D+06 0.25549669D+06 0.25549669D+06 0.10897493D+01  1  2  6  4  6  5       -2 0.607724706019D-02 0.100000000000D+01
  </mgrwgt>
  </event>
  <event>
  5     66 -.18829897E-05 0.21957169E+03 0.75467711E-02 0.94288615E-01
       -1 -1    0    0    0  501 0.00000000E+00 0.00000000E+00 0.85515774E+03 0.85515780E+03 0.32000000E+00 0.0000E+00 0.9000E+01
        1 -1    0    0  502    0 -.00000000E+00 -.00000000E+00 -.11186008E+04 0.11186009E+04 0.32000000E+00 0.0000E+00 0.9000E+01
       25  1    1    2    0    0 0.21607925E+03 -.43893370E+03 -.38227507E+03 0.63333424E+03 0.12500000E+03 0.0000E+00 0.9000E+01
        2  1    1    2  502    0 -.16783139E+03 0.14153672E+03 -.55796049E+03 0.59959990E+03 0.32000000E+00 0.0000E+00 0.9000E+01
       -2  1    1    2    0  501 -.48247854E+02 0.29739697E+03 0.67679248E+03 0.74082453E+03 0.32000000E+00 0.0000E+00 0.9000E+01
#aMCatNLO 1  0  0  5  4 0.73898110D+02 0.00000000D+00  -5  6  0 0.00000000D+00 0.00000000D+00 0.00000000D+00 0.00000000D+00 0.00000000D+00
  <mgrwgt>
 -.1094968079D-02    5    2    0
 0.978049208120709D+03 0.000000000000000D+00 0.000000000000000D+00 0.978049208120709D+03
 0.978049208120709D+03 -.000000000000000D+00 -.000000000000000D+00 -.978049208120709D+03
 0.587550224649639D+03 0.216095749300550D+03 -.438944140275043D+03 -.300367999857306D+03
 0.529913217385488D+03 -.167849438634795D+03 0.141556679034148D+03 -.482282376342581D+03
 0.838634974206291D+03 -.482463106657552D+02 0.297387461240895D+03 0.782650376199887D+03
 0.000000000000000D+00 0.000000000000000D+00 0.000000000000000D+00 0.000000000000000D+00
 0.978049208120709D+03 0.000000000000000D+00 0.000000000000000D+00 0.978049208120709D+03
 0.978049208120709D+03 -.000000000000000D+00 -.000000000000000D+00 -.978049208120709D+03
 0.583963697125375D+03 0.215824791110255D+03 -.437273969702366D+03 -.295972523257287D+03
 0.526792550520605D+03 -.168093842971119D+03 0.143063173190753D+03 -.478317655659706D+03
 0.252872531825278D+03 -.581393696015957D+02 0.140141765921621D+03 0.202298335382240D+03
 0.592469636770160D+03 0.104084214624593D+02 0.154069030589993D+03 0.571991843534753D+03
0.573210795490D-03 0.000000000000D+00 0.000000000000D+00 0.590312908474D-05 0.000000000000D+00  6 -1 1 25 2 -2 21 0 0.13156274D+00 0.17209244D+00 0.26307511D+06 0.26307511D+06 0.26307511D+06 0.10887974D+01  1  2  2  4  6  5       -2 0.448314774165D-03 0.100000000000D+01
0.443167310206D-04 0.000000000000D+00 -.220128038455D-05 0.590312908474D-05 0.000000000000D+00  6 -1 1 25 2 -2 21 2 0.13156274D+00 0.17209244D+00 0.26307511D+06 0.26307511D+06 0.26307511D+06 0.10887974D+01  1  2  3  4  6  5       -2 0.410894749023D-04 0.100000000000D+01
-.385043980953D-03 0.000000000000D+00 0.000000000000D+00 0.590312908474D-05 0.000000000000D+00  6 -1 1 25 2 -2 21 2 0.13156274D+00 0.17209244D+00 0.26307511D+06 0.26307511D+06 0.26307511D+06 0.10887974D+01  1  2 15  4  6  5       -2 -.357004107191D-03 0.100000000000D+01
0.130686359205D-08 0.000000000000D+00 0.000000000000D+00 0.590312908474D-05 0.000000000000D+00  6 -1 1 25 2 -2 21 2 0.13156274D+00 0.17209244D+00 0.26536798D+06 0.26536798D+06 0.26536798D+06 0.10885154D+01  1  2 12  4  6  5       -2 0.121038457706D-08 0.100000000000D+01
-.132376967771D-02 0.000000000000D+00 0.000000000000D+00 0.590312908474D-05 0.000000000000D+00  6 -1 1 25 2 -2 21 2 0.13156274D+00 0.17209244D+00 0.26307511D+06 0.26307511D+06 0.26307511D+06 0.10887974D+01  1  2  5  4  6  5       -2 -.122736943127D-02 0.100000000000D+01
  </mgrwgt>
  </event>
  <event>
  5     66 0.18829897E-05 0.81296652E+02 0.75467711E-02 0.95208816E-01
       -1 -1    0    0    0  501 0.00000000E+00 0.00000000E+00 0.39686704E+03 0.39686717E+03 0.32000000E+00 0.0000E+00 0.9000E+01
        1 -1    0    0  502    0 -.00000000E+00 -.00000000E+00 -.13162127E+04 0.13162127E+04 0.32000000E+00 0.0000E+00 0.9000E+01
       25  1    1    2    0    0 -.36189497E+03 0.29083113E+03 -.77812746E+03 0.91469014E+03 0.12500000E+03 0.0000E+00 0.9000E+01
        2  1    1    2  502    0 0.76285979E+02 -.28090938E+02 -.34889216E+03 0.35823804E+03 0.32000000E+00 0.0000E+00 0.9000E+01
       -2  1    1    2    0  501 0.28560899E+03 -.26274019E+03 0.20767400E+03 0.44015168E+03 0.32000000E+00 0.0000E+00 0.9000E+01
#aMCatNLO 1  0  0  5  4 0.73898110D+02 0.00000000D+00  -5  6  0 0.00000000D+00 0.00000000D+00 0.00000000D+00 0.00000000D+00 0.00000000D+00
  <mgrwgt>
 0.5038534076D-03    1    2    0
 0.722745847591052D+03 0.000000000000000D+00 0.000000000000000D+00 0.722745847591052D+03
 0.722745847591052D+03 -.000000000000000D+00 -.000000000000000D+00 -.722745847591052D+03
 0.589115607644336D+03 -.361896356998666D+03 0.290831260246518D+03 -.340412109104056D+03
 0.202664564819735D+03 0.762887131187584D+02 -.280923091196099D+02 -.185644230323985D+03
 0.653711522718033D+03 0.285607643879907D+03 -.262738951126908D+03 0.526056339428041D+03
 0.000000000000000D+00 -.000000000000000D+00 0.000000000000000D+00 0.000000000000000D+00
 0.722745847591052D+03 0.000000000000000D+00 0.000000000000000D+00 0.722745847591052D+03
 0.722745847591052D+03 -.000000000000000D+00 -.000000000000000D+00 -.722745847591052D+03
 0.476322097460748D+03 -.308022013588022D+03 0.241270652245721D+03 -.241181782146809D+03
 0.183586818850127D+03 0.958196904691554D+02 -.460594350473894D+02 -.149670422652640D+03
 0.549618624918205D+03 0.393603158889692D+03 -.277796607528989D+03 0.264549108889861D+03
 0.235964153953025D+03 -.181400835770825D+03 0.825853903306572D+02 0.126303095909587D+03
0.139211591296D-03 0.000000000000D+00 0.000000000000D+00 0.340653479694D-05 0.000000000000D+00  6 -1 1 25 2 -2 21 2 0.61056480D-01 0.20249427D+00 0.22571135D+06 0.22571135D+06 0.22571135D+06 0.10938141D+01  1  2 14  4  6  5       -2 0.503853407576D-03 0.100000000000D+01
  </mgrwgt>
  </event>
  <event>
  5     66 -.18829897E-05 0.18288260E+02 0.75467711E-02 0.94444886E-01
       -1 -1    0    0    0  501 0.00000000E+00 0.00000000E+00 0.21053336E+03 0.21053360E+03 0.32000000E+00 0.0000E+00 0.9000E+01
        1 -1    0    0  502    0 -.00000000E+00 -.00000000E+00 -.27586103E+04 0.27586104E+04 0.32000000E+00 0.0000E+00 0.9000E+01
       25  1    1    2    0    0 -.12217324E+03 -.48404797E+03 -.52210849E+03 0.73311050E+03 0.12500000E+03 0.0000E+00 0.9000E+01
        2  1    1    2  502    0 0.11996015E+03 0.46588164E+03 -.21027605E+04 0.21570902E+04 0.32000000E+00 0.0000E+00 0.9000E+01
       -2  1    1    2    0  501 0.22130942E+01 0.18166330E+02 0.76792055E+02 0.78943242E+02 0.32000000E+00 0.0000E+00 0.9000E+01
#aMCatNLO 1  0  0  4  2 0.38567062D+02 0.00000000D+00  -5  6  0 0.00000000D+00 0.00000000D+00 0.00000000D+00 0.00000000D+00 0.00000000D+00
  <mgrwgt>
 -.5306829834D-02    6    2    0
 0.762089153478190D+03 0.000000000000000D+00 0.000000000000000D+00 0.762089153478190D+03
 0.762089153478190D+03 -.000000000000000D+00 -.000000000000000D+00 -.762089153478190D+03
 0.555415570408653D+03 -.122196533030298D+03 -.484133664653843D+03 0.208672130186531D+03
 0.686791289110854D+03 0.119984935698105D+03 0.465979621341110D+03 -.490049877562341D+03
 0.281971447436873D+03 0.221159733219367D+01 0.181540433127323D+02 0.281377747375810D+03
 0.000000000000000D+00 0.000000000000000D+00 0.000000000000000D+00 -.000000000000000D+00
 0.762089153478190D+03 0.000000000000000D+00 0.000000000000000D+00 0.762089153478190D+03
 0.762089153478190D+03 -.000000000000000D+00 -.000000000000000D+00 -.762089153478190D+03
 0.554721490581039D+03 -.122061470089898D+03 -.483609127323730D+03 0.208120497791838D+03
 0.591688833985601D+03 0.121672782628646D+03 0.399388985921357D+03 -.419261073980583D+03
 0.281709778551005D+03 0.228017665136559D+01 0.184203814575471D+02 0.281097651489039D+03
 0.960582038387350D+02 -.189148919011293D+01 0.657997599448258D+02 -.699570753002936D+02
0.638034777995D-04 0.000000000000D+00 0.000000000000D+00 0.378979045047D-04 0.000000000000D+00  6 -1 1 25 2 -2 21 0 0.32389767D-01 0.42440161D+00 0.25714685D+06 0.25714685D+06 0.25714685D+06 0.10895394D+01  1  2  2  3  6  4        2 0.627478750562D-04 0.100000000000D+01
0.392372916041D-04 0.000000000000D+00 -.245022154592D-06 0.378979045047D-04 0.000000000000D+00  6 -1 1 25 2 -2 21 2 0.32389767D-01 0.42440161D+00 0.25714685D+06 0.25714685D+06 0.25714685D+06 0.10895394D+01  1  2  3  3  6  4        2 0.458078145989D-04 0.100000000000D+01
-.467552478300D-04 0.000000000000D+00 0.000000000000D+00 0.378979045047D-04 0.000000000000D+00  6 -1 1 25 2 -2 21 2 0.32389767D-01 0.42440161D+00 0.25714685D+06 0.25714685D+06 0.25714685D+06 0.10895394D+01  1  2 15  3  6  4        2 -.545846982950D-04 0.100000000000D+01
-.526358066114D-02 0.000000000000D+00 0.000000000000D+00 0.378979045047D-04 0.000000000000D+00  6 -1 1 25 2 -2 21 2 0.32389767D-01 0.42440161D+00 0.25714685D+06 0.25714685D+06 0.25714685D+06 0.10895394D+01  1  2  4  3  6  4        2 -.614499923911D-02 0.100000000000D+01
-.449198802153D-02 0.000000000000D+00 0.000000000000D+00 0.378979045047D-04 0.000000000000D+00  6 -1 1 25 2 -2 21 2 0.32389767D-01 0.42440161D+00 0.25714685D+06 0.25714685D+06 0.25714685D+06 0.10895394D+01  1  2  5  3  6  4        2 -.524419872164D-02 0.100000000000D+01
0.516370358137D-02 0.000000000000D+00 -.000000000000D+00 0.378979045047D-04 0.000000000000D+00  6 -1 1 25 2 -2 21 2 0.32389767D-01 0.42440161D+00 0.25714685D+06 0.25714685D+06 0.25714685D+06 0.10895394D+01  1  2  6  3  6  4        2 0.602839713520D-02 0.100000000000D+01
  </mgrwgt>
  </event>
  <event>
  6     66 -.18829897E-05 0.44359659E+02 0.75467711E-02 0.92802179E-01
       -1 -1    0    0    0  501 0.00000000E+00 0.00000000E+00 0.53689303E+03 0.53689313E+03 0.32000000E+00 0.0000E+00 0.9000E+01
        1 -1    0    0  502    0 -.00000000E+00 -.00000000E+00 -.73640692E+03 0.73640699E+03 0.32000000E+00 0.0000E+00 0.9000E+01
       25  1    1    2    0    0 -.39462319E+03 -.37336107E+03 -.12391731E+03 0.57105731E+03 0.12500000E+03 0.0000E+00 0.9000E+01
        2  1    1    2  502    0 0.37486831E+03 0.40060472E+03 -.15934984E+03 0.57131678E+03 0.32000000E+00 0.0000E+00 0.9000E+01
       -2  1    1    2    0  503 0.12235634E+02 -.47888788E+02 0.94355729E+02 0.10651832E+03 0.32000000E+00 0.0000E+00 0.9000E+01
       21  1    1    2  503  501 0.75192461E+01 0.20645135E+02 -.10602472E+02 0.24407695E+02 0.75000000E+00 0.0000E+00 0.9000E+01
#aMCatNLO 2  0  0  5  4 0.20632313D+02 0.00000000D+00  -5  6  0 0.00000000D+00 0.00000000D+00 0.00000000D+00 0.00000000D+00 0.00000000D+00
  <mgrwgt>
 -.6891611292D-02    3    2    0
 0.628786009371830D+03 0.000000000000000D+00 0.000000000000000D+00 0.628786009371830D+03
 0.628786009371830D+03 -.000000000000000D+00 -.000000000000000D+00 -.628786009371830D+03
 0.559534271501476D+03 -.397694426677524D+03 -.369917915701194D+03 -.495326116574419D+02
 0.556582266783995D+03 0.372475232324699D+03 0.404697321803086D+03 -.852414143974742D+02
 0.141455480458189D+03 0.252191943528259D+02 -.347794061018916D+02 0.134774026054916D+03
 0.000000000000000D+00 0.000000000000000D+00 0.000000000000000D+00 0.000000000000000D+00
 0.628786009371830D+03 0.000000000000000D+00 0.000000000000000D+00 0.628786009371830D+03
 0.628786009371830D+03 -.000000000000000D+00 -.000000000000000D+00 -.628786009371830D+03
 0.558990372538048D+03 -.394875635816292D+03 -.373805267164827D+03 -.344686969399410D+02
 0.553572433529375D+03 0.375272930113900D+03 0.400839059473222D+03 -.702902232745341D+02
 0.121967720454463D+03 0.120652162363474D+02 -.477045327606911D+02 0.111601222861187D+03
 0.230414922217747D+02 0.753748946604452D+01 0.206707404522956D+02 -.684230264671196D+01
-.198245938712D-06 0.000000000000D+00 0.000000000000D+00 0.439145575359D-06 0.000000000000D+00  6 -1 1 25 2 -2 21 2 0.82598940D-01 0.11329338D+00 0.34705479D+06 0.34705479D+06 0.34705479D+06 0.10799012D+01  1  2 13  4  6  5       -2 -.105777580072D-05 0.100000000000D+01
-.244716806429D-02 0.000000000000D+00 0.000000000000D+00 0.439145575359D-06 0.000000000000D+00  6 -1 1 25 2 -2 21 2 0.82598940D-01 0.11329338D+00 0.33080572D+06 0.33080572D+06 0.33080572D+06 0.10814250D+01  1  2  8  4  6  5       -2 -.131194993694D-01 0.100000000000D+01
0.116741488786D-02 0.000000000000D+00 0.000000000000D+00 0.439145575359D-06 0.154796718949D-07  6 -1 1 25 2 -2 21 2 0.82598940D-01 0.11329338D+00 0.34705479D+06 0.34705479D+06 0.34705479D+06 0.10799012D+01  1  2  1  4  6  5       -2 0.622894585280D-02 0.100000000000D+01
  </mgrwgt>
  </event>
  <event>
  6     66 0.18829897E-05 0.15321305E+03 0.75467711E-02 0.90773298E-01
       21 -1    0    0  503  501 0.00000000E+00 0.00000000E+00 0.10926070E+04 0.10926073E+04 0.75000000E+00 0.0000E+00 0.9000E+01
        1 -1    0    0  502    0 0.00000000E+00 0.00000000E+00 -.11569092E+04 0.11569092E+04 0.32000000E+00 0.0000E+00 0.9000E+01
       25  1    1    2    0    0 -.23360697E+03 0.54480020E+03 -.31782613E+03 0.68411835E+03 0.12500000E+03 0.0000E+00 0.9000E+01
        2  1    1    2  502    0 -.26816692E+02 0.36274905E+02 -.45190037E+03 0.45414651E+03 0.32000000E+00 0.0000E+00 0.9000E+01
        1  1    1    2  503    0 0.17539453E+03 0.11479963E+02 0.40494283E+03 0.44144516E+03 0.32000000E+00 0.0000E+00 0.9000E+01
       -2  1    1    2    0  501 0.85029128E+02 -.59255507E+03 0.30048154E+03 0.66980648E+03 0.32000000E+00 0.0000E+00 0.9000E+01
#aMCatNLO 2  0  0  1  2 0.12446781D+03 0.00000000D+00  -5  6  0 0.00000000D+00 0.00000000D+00 0.00000000D+00 0.00000000D+00 0.00000000D+00
  <mgrwgt>
 0.5251159765D-03    1    2    0
 0.868624787732518D+03 0.000000000000000D+00 0.000000000000000D+00 0.868624787732518D+03
 0.868624787732518D+03 0.000000000000000D+00 0.000000000000000D+00 -.868624787732518D+03
 0.606159405152200D+03 -.171715283908687D+03 0.548842292858540D+03 -.145224733762570D+03
 0.348155757389075D+03 0.827666732111612D+01 0.385737145607146D+02 -.345913279198999D+03
 0.000000000000000D+00 0.000000000000000D+00 0.000000000000000D+00 0.000000000000000D+00
 0.782934412923761D+03 0.163438616587571D+03 -.587416007419254D+03 0.491138012961568D+03
 0.142499577351040D+04 0.000000000000000D+00 0.000000000000000D+00 0.142499577351040D+04
 0.887053365999148D+03 0.000000000000000D+00 0.000000000000000D+00 -.887053365999148D+03
 0.622963807871504D+03 -.233604084153517D+03 0.544791533054756D+03 -.145224733762570D+03
 0.348842699615777D+03 -.268185923074205D+02 0.362766516600887D+02 -.345913279198999D+03
 0.565930266172355D+03 0.175394534756791D+03 0.114799629074339D+02 0.537942407511255D+03
 0.774312365849914D+03 0.850281417041468D+02 -.592548147622278D+03 0.491138012961568D+03
0.216108773379D-03 0.000000000000D+00 0.000000000000D+00 0.118341930809D-04 0.110303920771D-09  6 21 1 25 2 1 -2 2 0.16809340D+00 0.17798604D+00 0.50787078D+06 0.50787078D+06 0.50787078D+06 0.10680313D+01  1  2  1  5  5  1       -1 0.525115976483D-03 0.100000000000D+01
  </mgrwgt>
  </event>
  <event>
  5     66 0.18829897E-05 0.10709995E+03 0.75467711E-02 0.90730366E-01
       -1 -1    0    0    0  501 0.00000000E+00 0.00000000E+00 0.14703871E+04 0.14703872E+04 0.32000000E+00 0.0000E+00 0.9000E+01
        1 -1    0    0  502    0 0.00000000E+00 0.00000000E+00 -.17043891E+04 0.17043891E+04 0.32000000E+00 0.0000E+00 0.9000E+01
       25  1    1    2    0    0 -.48861037E+03 0.26358820E+02 -.34148918E+03 0.60965133E+03 0.12500000E+03 0.0000E+00 0.9000E+01
        2  1    1    2  502    0 0.39259133E+03 0.21087275E+02 -.11951173E+04 0.12581248E+04 0.32000000E+00 0.0000E+00 0.9000E+01
       -2  1    1    2    0  501 0.96019045E+02 -.47446094E+02 0.13026045E+04 0.13070001E+04 0.32000000E+00 0.0000E+00 0.9000E+01
#aMCatNLO 1  0  0  1  2 0.12446781D+03 0.00000000D+00  -5  6  0 0.00000000D+00 0.00000000D+00 0.00000000D+00 0.00000000D+00 0.00000000D+00
  <mgrwgt>
 0.1024916205D-01    7    4    0
 0.158307039367386D+04 0.000000000000000D+00 0.000000000000000D+00 0.158307039367386D+04
 0.158307039367386D+04 0.000000000000000D+00 0.000000000000000D+00 -.158307039367386D+04
 0.586081913043893D+03 -.488637742321815D+03 0.263573099099570D+02 -.297330553072064D+03
 0.117324548904928D+04 0.392620329057714D+03 0.210879783364598D+02 -.110540017729091D+04
 0.140681338525455D+04 0.960174132641010D+02 -.474452882464168D+02 0.140273073036298D+04
 0.000000000000000D+00 0.000000000000000D+00 0.000000000000000D+00 0.000000000000000D+00
 0.298319961515144D+04 0.000000000000000D+00 0.000000000000000D+00 0.298319961515144D+04
 0.161346164369009D+04 0.000000000000000D+00 0.000000000000000D+00 -.161346164369009D+04
 0.603910416151422D+03 -.509402388968383D+03 -.344461762660025D+02 -.297330553072064D+03
 0.116420275407096D+04 0.351833270492510D+03 -.983455662761250D+02 -.110540017729091D+04
 0.141654178418218D+04 0.467515726256508D+02 -.191706585401798D+03 0.140273073036298D+04
 0.141200630443697D+04 0.110817545850222D+03 0.324498327943926D+03 0.136973797146136D+04
 0.158307039367386D+04 0.000000000000000D+00 0.000000000000000D+00 0.158307039367386D+04
 0.158307039367386D+04 0.000000000000000D+00 0.000000000000000D+00 -.158307039367386D+04
 0.586081913043893D+03 -.488637742321815D+03 0.263573099099570D+02 -.297330553072064D+03
 0.117324548904928D+04 0.392620329057714D+03 0.210879783364598D+02 -.110540017729091D+04
 0.000000000000000D+00 0.000000000000000D+00 0.000000000000000D+00 0.000000000000000D+00
 0.140681338525455D+04 0.960174132641010D+02 -.474452882464168D+02 0.140273073036298D+04
 0.298319961515144D+04 0.000000000000000D+00 0.000000000000000D+00 0.298319961515144D+04
 0.161346164369009D+04 0.000000000000000D+00 0.000000000000000D+00 -.161346164369009D+04
 0.603910416151422D+03 -.509402388968383D+03 -.344461762660025D+02 -.297330553072064D+03
 0.116420275407096D+04 0.351833270492510D+03 -.983455662761250D+02 -.110540017729091D+04
 0.141200630443697D+04 0.110817545850222D+03 0.324498327943926D+03 0.136973797146136D+04
 0.141654178418218D+04 0.467515726256508D+02 -.191706585401798D+03 0.140273073036298D+04
0.216868544831D-01 0.000000000000D+00 0.000000000000D+00 0.437745309312D-03 0.000000000000D+00  6 -1 1 25 2 -2 21 0 0.22621341D+00 0.26221371D+00 0.25268072D+06 0.25268072D+06 0.25268072D+06 0.10901108D+01  1  2  2  1  6  1       -1 0.113332978627D-02 0.100000000000D+01
0.566308851760D-02 0.000000000000D+00 -.832832314948D-04 0.437745309312D-03 0.000000000000D+00  6 -1 1 25 2 -2 21 2 0.22621341D+00 0.26221371D+00 0.25268072D+06 0.25268072D+06 0.25268072D+06 0.10901108D+01  1  2  3  1  6  1       -1 0.351685432151D-03 0.100000000000D+01
-.150900302227D-01 0.000000000000D+00 0.000000000000D+00 0.437745309312D-03 0.000000000000D+00  6 -1 1 25 2 -2 21 2 0.22621341D+00 0.26221371D+00 0.25268072D+06 0.25268072D+06 0.25268072D+06 0.10901108D+01  1  2 15  1  6  1       -1 -.937111221826D-03 0.100000000000D+01
-.436788226109D-02 0.000000000000D+00 0.000000000000D+00 0.437745309312D-03 0.000000000000D+00  6 -1 1 25 2 -2 21 2 0.22621341D+00 0.26221371D+00 0.25268072D+06 0.25268072D+06 0.25268072D+06 0.10901108D+01  1  2  4  1  6  1       -1 -.271251377372D-03 0.100000000000D+01
-.192935084269D+00 0.000000000000D+00 -.120568753376D-01 0.437745309312D-03 0.000000000000D+00  6 -1 1 25 2 -2 21 2 0.42799026D+00 0.26221371D+00 0.25268072D+06 0.25268072D+06 0.25268072D+06 0.10901108D+01  1  2  5  1  6  1       -1 -.195953764210D-03 0.100000000000D+01
0.167498861680D+00 0.000000000000D+00 0.996220403934D-02 0.437745309312D-03 0.000000000000D+00  6 -1 1 25 2 -2 21 2 0.22621341D+00 0.26221371D+00 0.25268072D+06 0.25268072D+06 0.25268072D+06 0.10901108D+01  1  2  6  1  6  1       -1 0.104019051391D-01 0.100000000000D+01
-.126891074059D-01 0.000000000000D+00 -.835782322969D-03 0.437745309312D-03 0.000000000000D+00  6 21 1 25 2 1 -2 2 0.42799026D+00 0.26221371D+00 0.25268072D+06 0.25268072D+06 0.25268072D+06 0.10901108D+01  3  4  5  5  5  1       -1 -.233441941448D-03 0.100000000000D+01
  </mgrwgt>
  </event>
  <event>
  5     66 0.18829897E-05 0.11298580E+03 0.75467711E-02 0.93447577E-01
       -1 -1    0    0    0  501 0.00000000E+00 0.00000000E+00 0.43123914E+03 0.43123925E+03 0.32000000E+00 0.0000E+00 0.9000E+01
        1 -1    0    0  502    0 -.00000000E+00 -.00000000E+00 -.42897104E+04 0.42897104E+04 0.32000000E+00 0.0000E+00 0.9000E+01
       25  1    1    2    0    0 -.33227715E+03 0.43423660E+03 -.50127112E+03 0.75224150E+03 0.12500000E+03 0.0000E+00 0.9000E+01
        2  1    1    2  502    0 0.86293294E+02 -.72914384E+02 -.35053559E+04 0.35071759E+04 0.32000000E+00 0.0000E+00 0.9000E+01
       -2  1    1    2    0  501 0.24598386E+03 -.36132222E+03 0.14815572E+03 0.46153226E+03 0.32000000E+00 0.0000E+00 0.9000E+01
#aMCatNLO 1  0  0  5  1 0.56911060D+01 0.00000000D+00  -5  6  0 0.00000000D+00 0.00000000D+00 0.00000000D+00 0.00000000D+00 0.00000000D+00
  <mgrwgt>
 0.3710912705D-03    9    2    0
 0.136010709950897D+04 0.000000000000000D+00 0.000000000000000D+00 0.136010709950897D+04
 0.136010709950897D+04 -.000000000000000D+00 -.000000000000000D+00 -.136010709950897D+04
 0.594515504603794D+03 -.332269173240828D+03 0.434219341099759D+03 0.197166035470239D+03
 0.111462649505327D+04 0.863024944702041D+02 -.729223549240999D+02 -.110888522087513D+04
 0.101107219936087D+04 0.245966678770624D+03 -.361296986175659D+03 0.911719185404891D+03
 0.000000000000000D+00 0.000000000000000D+00 0.000000000000000D+00 0.000000000000000D+00
 0.136010709950897D+04 0.000000000000000D+00 0.000000000000000D+00 0.136010709950897D+04
 0.136010709950897D+04 -.000000000000000D+00 -.000000000000000D+00 -.136010709950897D+04
 0.594509548729070D+03 -.332254366167967D+03 0.434197591199222D+03 0.197220920515947D+03
 0.111452894655863D+04 0.863302544126457D+02 -.729631311121214D+02 -.110878232371753D+04
 0.949096807582875D+03 0.226479785252914D+03 -.336364045804936D+03 0.858108900854392D+03
 0.620788961473634D+02 0.194443265024077D+02 -.248704142821641D+02 0.534525023471907D+02
0.274950937779D-03 0.000000000000D+00 0.000000000000D+00 0.106389560663D-03 0.000000000000D+00  6 -1 1 25 2 -2 21 0 0.66344492D-01 0.65995546D+00 0.30854171D+06 0.30854171D+06 0.30854171D+06 0.10836510D+01  1  2  2  4  6  5       -2 0.380114155324D-05 0.100000000000D+01
0.700315108355D-04 0.000000000000D+00 -.105588399732D-05 0.106389560663D-03 0.000000000000D+00  6 -1 1 25 2 -2 21 2 0.66344492D-01 0.65995546D+00 0.30854171D+06 0.30854171D+06 0.30854171D+06 0.10836510D+01  1  2  3  4  6  5       -2 0.113692330256D-05 0.100000000000D+01
-.196823967166D-03 0.000000000000D+00 0.000000000000D+00 0.106389560663D-03 0.000000000000D+00  6 -1 1 25 2 -2 21 2 0.66344492D-01 0.65995546D+00 0.30854171D+06 0.30854171D+06 0.30854171D+06 0.10836510D+01  1  2 15  4  6  5       -2 -.319532953243D-05 0.100000000000D+01
0.631017222998D-09 0.000000000000D+00 0.000000000000D+00 0.106389560663D-03 0.000000000000D+00  6 -1 1 25 2 -2 21 2 0.66344492D-01 0.65995546D+00 0.30855282D+06 0.30855282D+06 0.30855282D+06 0.10836498D+01  1  2 12  4  6  5       -2 0.102441578317D-10 0.100000000000D+01
0.640245385249D-01 0.000000000000D+00 0.000000000000D+00 0.106389560663D-03 0.000000000000D+00  6 -1 1 25 2 -2 21 2 0.66344492D-01 0.65995546D+00 0.30855282D+06 0.30855282D+06 0.30855282D+06 0.10836498D+01  1  2 12  4  6  5       -2 0.103939710969D-02 0.100000000000D+01
-.102421092977D+00 0.000000000000D+00 0.000000000000D+00 0.106389560663D-03 0.000000000000D+00  6 -1 1 25 2 -2 21 2 0.66344492D-01 0.65995546D+00 0.30854171D+06 0.30854171D+06 0.30854171D+06 0.10836510D+01  1  2  4  4  6  5       -2 -.166275046603D-02 0.100000000000D+01
-.139650433475D+00 0.000000000000D+00 0.000000000000D+00 0.106389560663D-03 0.000000000000D+00  6 -1 1 25 2 -2 21 2 0.66344492D-01 0.65995546D+00 0.30854171D+06 0.30854171D+06 0.30854171D+06 0.10836510D+01  1  2  5  4  6  5       -2 -.226714846126D-02 0.100000000000D+01
0.148487543448D+00 0.000000000000D+00 -.000000000000D+00 0.106389560663D-03 0.000000000000D+00  6 -1 1 25 2 -2 21 2 0.66344492D-01 0.65995546D+00 0.30854171D+06 0.30854171D+06 0.30854171D+06 0.10836510D+01  1  2  6  4  6  5       -2 0.241061411173D-02 0.100000000000D+01
0.523110534671D-01 0.000000000000D+00 0.000000000000D+00 0.106389560663D-03 0.127515509976D-04  6 -1 1 25 2 -2 21 2 0.66344492D-01 0.65995546D+00 0.30855282D+06 0.30855282D+06 0.30855282D+06 0.10836498D+01  1  2 11  4  6  5       -2 0.849236230850D-03 0.100000000000D+01
  </mgrwgt>
  </event>
  <event>
  5     66 0.18829897E-05 0.21474748E+02 0.75467711E-02 0.94759046E-01
       -1 -1    0    0    0  501 0.00000000E+00 0.00000000E+00 0.44205713E+03 0.44205724E+03 0.32000000E+00 0.0000E+00 0.9000E+01
        1 -1    0    0  502    0 0.00000000E+00 0.00000000E+00 -.25239734E+04 0.25239734E+04 0.32000000E+00 0.0000E+00 0.9000E+01
       25  1    1    2    0    0 -.37281805E+03 -.29937218E+03 -.69149276E+03 0.84994367E+03 0.12500000E+03 0.0000E+00 0.9000E+01
        2  1    1    2  502    0 0.20321037E+02 0.69378523E+01 -.16086169E+04 0.16087602E+04 0.32000000E+00 0.0000E+00 0.9000E+01
       -2  1    1    2    0  501 0.35249701E+03 0.29243433E+03 0.21819339E+03 0.50732676E+03 0.32000000E+00 0.0000E+00 0.9000E+01
#aMCatNLO 1  0  0  2  1 0.12487544D+02 0.00000000D+00  -5  6  0 0.00000000D+00 0.00000000D+00 0.00000000D+00 0.00000000D+00 0.00000000D+00
  <mgrwgt>
 0.1809443507D-01    9    2    0
 0.105628623817165D+04 0.000000000000000D+00 0.000000000000000D+00 0.105628623817165D+04
 0.105628623817165D+04 0.000000000000000D+00 0.000000000000000D+00 -.105628623817165D+04
 0.511829140799135D+03 -.372811820145906D+03 -.299366138911296D+03 -.133174062805113D+03
 0.673455945359286D+03 0.203229270337004D+02 0.693854748404198D+01 -.673113471515289D+03
 0.927287390184880D+03 0.352488893112206D+03 0.292427591427254D+03 0.806287534320402D+03
 0.000000000000000D+00 0.000000000000000D+00 -.000000000000000D+00 -.000000000000000D+00
 0.105861853771580D+04 0.000000000000000D+00 0.000000000000000D+00 0.105861853771580D+04
 0.107315312762343D+04 0.000000000000000D+00 0.000000000000000D+00 -.107315312762343D+04
 0.510535885759006D+03 -.373405382398636D+03 -.296403407604300D+03 -.133174062805113D+03
 0.673484327518934D+03 0.195409236573193D+02 0.108418716505036D+02 -.673113471515289D+03
 0.928589170056122D+03 0.351411412717953D+03 0.297805771865855D+03 0.806287534320402D+03
 0.191622820051749D+02 0.245304602336341D+01 -.122442359120589D+02 -.145345899076293D+02
0.561885569283D-02 0.000000000000D+00 0.000000000000D+00 0.368270556946D-03 0.000000000000D+00  6 -1 1 25 2 -2 21 0 0.68008799D-01 0.38830360D+00 0.23700978D+06 0.23700978D+06 0.23700978D+06 0.10922068D+01  1  2  2  2  6  2        1 0.213078521572D-02 0.100000000000D+01
0.409327772128D-02 0.000000000000D+00 -.215778853392D-04 0.368270556946D-03 0.000000000000D+00  6 -1 1 25 2 -2 21 2 0.68008799D-01 0.38830360D+00 0.23700978D+06 0.23700978D+06 0.23700978D+06 0.10922068D+01  1  2  3  2  6  2        1 0.185170893852D-02 0.100000000000D+01
-.352167953824D-02 0.000000000000D+00 0.000000000000D+00 0.368270556946D-03 0.000000000000D+00  6 -1 1 25 2 -2 21 2 0.68008799D-01 0.38830360D+00 0.23700978D+06 0.23700978D+06 0.23700978D+06 0.10922068D+01  1  2 15  2  6  2        1 -.159313047479D-02 0.100000000000D+01
0.859904725898D-10 0.000000000000D+00 0.000000000000D+00 0.368270556946D-03 0.000000000000D+00  6 -1 1 25 2 -2 21 2 0.68008799D-01 0.39492880D+00 0.24419577D+06 0.24419577D+06 0.24419577D+06 0.10912274D+01  1  2 12  2  6  2        1 0.361616625427D-10 0.100000000000D+01
-.387290327747D-04 0.000000000000D+00 0.000000000000D+00 0.368270556946D-03 0.000000000000D+00  6 -1 1 25 2 -2 21 2 0.68008799D-01 0.38830360D+00 0.23700978D+06 0.23700978D+06 0.23700978D+06 0.10922068D+01  1  2  4  2  6  2        1 -.175201638033D-04 0.100000000000D+01
-.528251581236D+00 0.000000000000D+00 -.525566328349D-01 0.368270556946D-03 0.000000000000D+00  6 -1 1 25 2 -2 21 2 0.68008799D-01 0.39478560D+00 0.23700978D+06 0.23700978D+06 0.23700978D+06 0.10922068D+01  1  2  5  2  6  2        1 -.223391363719D+00 0.100000000000D+01
0.529056371214D+00 0.000000000000D+00 0.525494313370D-01 0.368270556946D-03 0.000000000000D+00  6 -1 1 25 2 -2 21 2 0.68008799D-01 0.38830360D+00 0.23700978D+06 0.23700978D+06 0.23700978D+06 0.10922068D+01  1  2  6  2  6  2        1 0.239333482423D+00 0.100000000000D+01
0.587228479433D-11 0.000000000000D+00 0.000000000000D+00 0.368270556946D-03 0.000000000000D+00  6 -1 21 25 2 -2 -1 2 0.68008799D-01 0.39492880D+00 0.24419577D+06 0.24419577D+06 0.24419577D+06 0.10912274D+01  1  2 12  6  6  2        1 0.802137110426D-12 0.100000000000D+01
-.159449265023D-02 0.000000000000D+00 -.159165113013D-03 0.368270556946D-03 0.000000000000D+00  6 -1 21 25 2 -2 -1 2 0.68008799D-01 0.39478560D+00 0.23700978D+06 0.23700978D+06 0.23700978D+06 0.10922068D+01  1  2  5  6  6  2        1 -.219527188653D-03 0.100000000000D+01
  </mgrwgt>
  </event>
  <event>
  5     66 -.18829897E-05 0.51571290E+02 0.75467711E-02 0.93614611E-01
       -1 -1    0    0    0  501 0.00000000E+00 0.00000000E+00 0.13260566E+04 0.13260567E+04 0.32000000E+00 0.0000E+00 0.9000E+01
        1 -1    0    0  502    0 0.00000000E+00 0.00000000E+00 -.43038003E+03 0.43038015E+03 0.32000000E+00 0.0000E+00 0.9000E+01
       25  1    1    2    0    0 0.50654244E+03 -.60919360E+02 0.48977602E+02 0.52756063E+03 0.12500000E+03 0.0000E+00 0.9000E+01
        2  1    1    2  502    0 0.11501950E+02 0.50274872E+02 -.12080705E+03 0.13135564E+03 0.32000000E+00 0.0000E+00 0.9000E+01
       -2  1    1    2    0  501 -.51804439E+03 0.10644488E+02 0.96750604E+03 0.10975205E+04 0.32000000E+00 0.0000E+00 0.9000E+01
#aMCatNLO 1  0  0  5  2 0.57803507D+02 0.00000000D+00  -5  6  0 0.00000000D+00 0.00000000D+00 0.00000000D+00 0.00000000D+00 0.00000000D+00
  <mgrwgt>
 -.6014823108D-02    6    2    0
 0.755452463179409D+03 0.000000000000000D+00 0.000000000000000D+00 0.755452463179409D+03
 0.755452463179409D+03 -.000000000000000D+00 -.000000000000000D+00 -.755452463179409D+03
 0.584269030690068D+03 0.506546176808776D+03 -.609169568308974D+02 -.255822976595899D+03
 0.224302159023977D+03 0.115014598080443D+02 0.502724020211299D+02 -.218293061181814D+03
 0.702333736644773D+03 -.518047636616821D+03 0.106445548097675D+02 0.474116037777713D+03
 0.000000000000000D+00 0.000000000000000D+00 0.000000000000000D+00 0.000000000000000D+00
 0.755452463179409D+03 0.000000000000000D+00 0.000000000000000D+00 0.755452463179409D+03
 0.755452463179409D+03 -.000000000000000D+00 -.000000000000000D+00 -.755452463179409D+03
 0.580773561555054D+03 0.503792326240202D+03 -.608603722405178D+02 -.253302658717931D+03
 0.223312806580888D+03 0.104434171787547D+02 0.502941420928193D+02 -.217324742935109D+03
 0.394388568187699D+03 -.316200694501852D+03 0.447975113779222D+02 0.231414447448803D+03
 0.312429990035177D+03 -.198035048917105D+03 -.342312812302236D+02 0.239212954204237D+03
0.483547762421D-03 0.000000000000D+00 0.000000000000D+00 0.499855438100D-05 0.000000000000D+00  6 -1 1 25 2 -2 21 0 0.20400872D+00 0.66212324D-01 0.29976382D+06 0.29976382D+06 0.29976382D+06 0.10845772D+01  1  2  2  4  6  5       -2 0.418869995093D-03 0.100000000000D+01
0.120078364817D-03 0.000000000000D+00 -.185695072875D-05 0.499855438100D-05 0.000000000000D+00  6 -1 1 25 2 -2 21 2 0.20400872D+00 0.66212324D-01 0.29976382D+06 0.29976382D+06 0.29976382D+06 0.10845772D+01  1  2  3  4  6  5       -2 0.122356080943D-03 0.100000000000D+01
-.349040322346D-03 0.000000000000D+00 0.000000000000D+00 0.499855438100D-05 0.000000000000D+00  6 -1 1 25 2 -2 21 2 0.20400872D+00 0.66212324D-01 0.29976382D+06 0.29976382D+06 0.29976382D+06 0.10845772D+01  1  2 15  4  6  5       -2 -.355661121788D-03 0.100000000000D+01
-.788370622416D-02 0.000000000000D+00 0.000000000000D+00 0.499855438100D-05 0.000000000000D+00  6 -1 1 25 2 -2 21 2 0.20400872D+00 0.66212324D-01 0.29976382D+06 0.29976382D+06 0.29976382D+06 0.10845772D+01  1  2  4  4  6  5       -2 -.803324894009D-02 0.100000000000D+01
-.340140991326D-02 0.000000000000D+00 0.000000000000D+00 0.499855438100D-05 0.000000000000D+00  6 -1 1 25 2 -2 21 2 0.20400872D+00 0.66212324D-01 0.29976382D+06 0.29976382D+06 0.29976382D+06 0.10845772D+01  1  2  5  4  6  5       -2 -.346592983092D-02 0.100000000000D+01
0.520015122195D-02 0.000000000000D+00 -.000000000000D+00 0.499855438100D-05 0.000000000000D+00  6 -1 1 25 2 -2 21 2 0.20400872D+00 0.66212324D-01 0.29976382D+06 0.29976382D+06 0.29976382D+06 0.10845772D+01  1  2  6  4  6  5       -2 0.529879070887D-02 0.100000000000D+01
  </mgrwgt>
  </event>
  <event>
  5     66 0.18829897E-05 0.47556137E+02 0.75467711E-02 0.92419668E-01
       -1 -1    0    0    0  501 0.00000000E+00 0.00000000E+00 0.19787812E+04 0.19787812E+04 0.32000000E+00 0.0000E+00 0.9000E+01
        1 -1    0    0  502    0 0.00000000E+00 0.00000000E+00 -.24643876E+04 0.24643876E+04 0.32000000E+00 0.0000E+00 0.9000E+01
       25  1    1    2    0    0 -.12302061E+03 0.53037205E+03 -.43754485E+02 0.56032851E+03 0.12500000E+03 0.0000E+00 0.9000E+01
        2  1    1    2  502    0 -.24310556E+02 -.40869561E+02 -.21241026E+04 0.21246349E+04 0.32000000E+00 0.0000E+00 0.9000E+01
       -2  1    1    2    0  501 0.14733116E+03 -.48950249E+03 0.16822507E+04 0.17582055E+04 0.32000000E+00 0.0000E+00 0.9000E+01
#aMCatNLO 1  0  0  2  1 0.14316305D+03 0.00000000D+00  -5  6  0 0.00000000D+00 0.00000000D+00 0.00000000D+00 0.00000000D+00 0.00000000D+00
  <mgrwgt>
 0.1878221860D-01    7    2    0
 0.220827625751125D+04 0.000000000000000D+00 0.000000000000000D+00 0.220827625751125D+04
 0.220827625751125D+04 0.000000000000000D+00 0.000000000000000D+00 -.220827625751125D+04
 0.558891029644903D+03 -.123017079880152D+03 0.530367272598920D+03 0.176504173118717D+02
 0.190392285997822D+04 -.243119262892175D+02 -.408719517524136D+02 -.190332883930962D+04
 0.195373862539936D+04 0.147329006169369D+03 -.489495320846506D+03 0.188567842199775D+04
 0.000000000000000D+00 -.000000000000000D+00 -.000000000000000D+00 -.000000000000000D+00
 0.224353968482072D+04 0.000000000000000D+00 0.000000000000000D+00 0.224353968482072D+04
 0.235968181502092D+04 0.000000000000000D+00 0.000000000000000D+00 -.235968181502092D+04
 0.567587998391658D+03 -.109345274396618D+03 0.542460330028006D+03 0.176504173118717D+02
 0.190345479651873D+04 0.218973021353088D+02 0.127847051467000D-02 -.190332883930962D+04
 0.194782943419568D+04 0.194681400900167D+03 -.447610931138506D+03 0.188567842199775D+04
 0.184349270735574D+03 -.107233428638858D+03 -.948506773600154D+02 -.116142130200196D+03
0.139945022033D+01 0.000000000000D+00 0.000000000000D+00 0.459541028148D-02 0.000000000000D+00  6 -1 1 25 2 -2 21 0 0.30442788D+00 0.37913656D+00 0.31212041D+06 0.31212041D+06 0.31212041D+06 0.10832816D+01  1  2  2  2  6  2        1 0.477758102046D-02 0.100000000000D+01
0.800533222463D+00 0.000000000000D+00 -.537425732976D-02 0.459541028148D-02 0.000000000000D+00  6 -1 1 25 2 -2 21 2 0.30442788D+00 0.37913656D+00 0.31212041D+06 0.31212041D+06 0.31212041D+06 0.10832816D+01  1  2  3  2  6  2        1 0.320710119912D-02 0.100000000000D+01
-.101634073884D+01 0.000000000000D+00 0.000000000000D+00 0.459541028148D-02 0.000000000000D+00  6 -1 1 25 2 -2 21 2 0.30442788D+00 0.37913656D+00 0.31212041D+06 0.31212041D+06 0.31212041D+06 0.10832816D+01  1  2 15  2  6  2        1 -.407167062000D-02 0.100000000000D+01
-.186190329498D-01 0.000000000000D+00 0.000000000000D+00 0.459541028148D-02 0.000000000000D+00  6 -1 1 25 2 -2 21 2 0.30442788D+00 0.37913656D+00 0.31212041D+06 0.31212041D+06 0.31212041D+06 0.10832816D+01  1  2  4  2  6  2        1 -.745916861714D-04 0.100000000000D+01
-.140210366403D+02 0.000000000000D+00 -.316844902433D+01 0.459541028148D-02 0.000000000000D+00  6 -1 1 25 2 -2 21 2 0.30442788D+00 0.40724271D+00 0.31212041D+06 0.31212041D+06 0.31212041D+06 0.10832816D+01  1  2  5  2  6  2        1 -.418747802065D-01 0.100000000000D+01
0.142193312509D+02 0.000000000000D+00 0.316036437919D+01 0.459541028148D-02 0.000000000000D+00  6 -1 1 25 2 -2 21 2 0.30442788D+00 0.37913656D+00 0.31212041D+06 0.31212041D+06 0.31212041D+06 0.10832816D+01  1  2  6  2  6  2        1 0.569655737275D-01 0.100000000000D+01
-.163863985886D+00 0.000000000000D+00 -.382832677618D-01 0.459541028148D-02 0.000000000000D+00  6 -1 21 25 2 -2 -1 2 0.30442788D+00 0.40724271D+00 0.31212041D+06 0.31212041D+06 0.31212041D+06 0.10832816D+01  1  2  5  6  6  2        1 -.146994835326D-03 0.100000000000D+01
  </mgrwgt>
  </event>
  <event>
  5     66 0.18829897E-05 0.14189554E+03 0.75467711E-02 0.93001143E-01
       -1 -1    0    0    0  501 0.00000000E+00 0.00000000E+00 0.83155798E+03 0.83155804E+03 0.32000000E+00 0.0000E+00 0.9000E+01
        1 -1    0    0  502    0 -.00000000E+00 -.00000000E+00 -.25389687E+04 0.25389687E+04 0.32000000E+00 0.0000E+00 0.9000E+01
       25  1    1    2    0    0 -.51424593E+03 0.35788869E+02 -.47456073E+02 0.53254746E+03 0.12500000E+03 0.0000E+00 0.9000E+01
        2  1    1    2  502    0 0.14118166E+03 -.14069813E+02 -.21871638E+04 0.21917609E+04 0.32000000E+00 0.0000E+00 0.9000E+01
       -2  1    1    2    0  501 0.37306428E+03 -.21719055E+02 0.52720913E+03 0.64621842E+03 0.32000000E+00 0.0000E+00 0.9000E+01
#aMCatNLO 1  0  0  5  1 0.33579285D+01 0.00000000D+00  -5  6  0 0.00000000D+00 0.00000000D+00 0.00000000D+00 0.00000000D+00 0.00000000D+00
  <mgrwgt>
 0.1801610479D-02    6    2    0
 0.145303124679621D+04 0.000000000000000D+00 0.000000000000000D+00 0.145303124679621D+04
 0.145303124679621D+04 -.000000000000000D+00 -.000000000000000D+00 -.145303124679621D+04
 0.589817288411000D+03 -.514233561644765D+03 0.357887228050411D+02 0.257958223568523D+03
 0.125706723033303D+04 0.141196125136570D+03 -.140712301144741D+02 -.124903309656176D+04
 0.105917797484838D+04 0.373037436508196D+03 -.217174926905670D+02 0.991074872993233D+03
 0.000000000000000D+00 0.000000000000000D+00 0.000000000000000D+00 0.000000000000000D+00
 0.145303124679621D+04 0.000000000000000D+00 0.000000000000000D+00 0.145303124679621D+04
 0.145303124679621D+04 -.000000000000000D+00 -.000000000000000D+00 -.145303124679621D+04
 0.597240375740901D+03 -.496051055892753D+03 0.347301737235823D+02 0.306264969260193D+03
 0.116434018955025D+04 0.178285523292680D+03 -.162305006179726D+02 -.115049507605894D+04
 0.836287337398730D+03 0.411369136733730D+02 -.152412030250296D+03 0.821251994251381D+03
 0.308194590902532D+03 0.276628618926701D+03 0.133912357144686D+03 0.229781125473674D+02
0.254906264264D-01 0.000000000000D+00 0.000000000000D+00 0.146793723411D-03 0.000000000000D+00  6 -1 1 25 2 -2 21 0 0.12793200D+00 0.39061057D+00 0.27351929D+06 0.27351929D+06 0.27351929D+06 0.10875336D+01  1  2  2  4  6  5       -2 0.232813003869D-02 0.100000000000D+01
0.504258784382D-02 0.000000000000D+00 -.978907173134D-04 0.146793723411D-03 0.000000000000D+00  6 -1 1 25 2 -2 21 2 0.12793200D+00 0.39061057D+00 0.27351929D+06 0.27351929D+06 0.27351929D+06 0.10875336D+01  1  2  3  4  6  5       -2 0.544710322379D-03 0.100000000000D+01
-.154664093005D-01 0.000000000000D+00 0.000000000000D+00 0.146793723411D-03 0.000000000000D+00  6 -1 1 25 2 -2 21 2 0.12793200D+00 0.39061057D+00 0.27351929D+06 0.27351929D+06 0.27351929D+06 0.10875336D+01  1  2 15  4  6  5       -2 -.167071215357D-02 0.100000000000D+01
-.408310616061D-03 0.000000000000D+00 0.000000000000D+00 0.146793723411D-03 0.000000000000D+00  6 -1 1 25 2 -2 21 2 0.12793200D+00 0.39061057D+00 0.27351929D+06 0.27351929D+06 0.27351929D+06 0.10875336D+01  1  2  4  4  6  5       -2 -.441065211344D-04 0.100000000000D+01
-.180039937318D-01 0.000000000000D+00 0.000000000000D+00 0.146793723411D-03 0.000000000000D+00  6 -1 1 25 2 -2 21 2 0.12793200D+00 0.39061057D+00 0.27351929D+06 0.27351929D+06 0.27351929D+06 0.10875336D+01  1  2  5  4  6  5       -2 -.194482704784D-02 0.100000000000D+01
0.239619366785D-01 0.000000000000D+00 -.000000000000D+00 0.146793723411D-03 0.000000000000D+00  6 -1 1 25 2 -2 21 2 0.12793200D+00 0.39061057D+00 0.27351929D+06 0.27351929D+06 0.27351929D+06 0.10875336D+01  1  2  6  4  6  5       -2 0.258841584068D-02 0.100000000000D+01
  </mgrwgt>
  </event>
  <event>
  5     66 0.18829897E-05 0.38054949E+02 0.75467711E-02 0.94400202E-01
       -1 -1    0    0    0  501 0.00000000E+00 0.00000000E+00 0.82200639E+03 0.82200645E+03 0.32000000E+00 0.0000E+00 0.9000E+01
        1 -1    0    0  502    0 0.00000000E+00 0.00000000E+00 -.87829690E+03 0.87829696E+03 0.32000000E+00 0.0000E+00 0.9000E+01
       25  1    1    2    0    0 0.45043968E+03 -.10233802E+03 0.21851184E+03 0.52606216E+03 0.12500000E+03 0.0000E+00 0.9000E+01
        2  1    1    2  502    0 -.43414284E+03 0.67932336E+02 -.65686018E+03 0.79029122E+03 0.32000000E+00 0.0000E+00 0.9000E+01
       -2  1    1    2    0  501 -.16296836E+02 0.34405680E+02 0.38205783E+03 0.38395003E+03 0.32000000E+00 0.0000E+00 0.9000E+01
#aMCatNLO 1  0  0  1  1 0.79916479D+03 0.00000000D+00  -5  6  0 0.00000000D+00 0.00000000D+00 0.00000000D+00 0.00000000D+00 0.00000000D+00
  <mgrwgt>
 0.7302429879D-02    7    4    0
 0.849685685778901D+03 0.000000000000000D+00 0.000000000000000D+00 0.849685685778901D+03
 0.849685685778901D+03 0.000000000000000D+00 0.000000000000000D+00 -.849685685778901D+03
 0.533713629876861D+03 0.450512252617421D+03 -.102339423426647D+03 0.236200320428684D+03
 0.769000479514253D+03 -.434221931133439D+03 0.679474973518284D+02 -.631027883393057D+03
 0.396657262166689D+03 -.162903214839824D+02 0.343919260748190D+02 0.394827562964373D+03
 0.000000000000000D+00 -.000000000000000D+00 -.000000000000000D+00 0.000000000000000D+00
 0.918320897435453D+03 0.000000000000000D+00 0.000000000000000D+00 0.918320897435453D+03
 0.860362628170175D+03 0.000000000000000D+00 0.000000000000000D+00 -.860362628170175D+03
 0.532485588338356D+03 0.452496965437673D+03 -.858592259872479D+02 0.236200320428684D+03
 0.769857400999613D+03 -.431357371760460D+03 0.917335602833858D+02 -.631027883393057D+03
 0.397852378383649D+03 -.148113544743708D+02 0.466726288929043D+02 0.394827562964373D+03
 0.784881578840108D+02 -.632823920284279D+01 -.525469631890422D+02 0.579582692652778D+02
 0.849685685778901D+03 0.000000000000000D+00 0.000000000000000D+00 0.849685685778901D+03
 0.849685685778901D+03 0.000000000000000D+00 0.000000000000000D+00 -.849685685778901D+03
 0.533713629876861D+03 0.450512252617421D+03 -.102339423426647D+03 0.236200320428684D+03
 0.769000479514253D+03 -.434221931133439D+03 0.679474973518284D+02 -.631027883393057D+03
 0.000000000000000D+00 -.000000000000000D+00 -.000000000000000D+00 0.000000000000000D+00
 0.396657262166689D+03 -.162903214839824D+02 0.343919260748190D+02 0.394827562964373D+03
 0.918320897435453D+03 0.000000000000000D+00 0.000000000000000D+00 0.918320897435453D+03
 0.860362628170175D+03 0.000000000000000D+00 0.000000000000000D+00 -.860362628170175D+03
 0.532485588338356D+03 0.452496965437673D+03 -.858592259872479D+02 0.236200320428684D+03
 0.769857400999613D+03 -.431357371760460D+03 0.917335602833858D+02 -.631027883393057D+03
 0.784881578840108D+02 -.632823920284279D+01 -.525469631890422D+02 0.579582692652778D+02
 0.397852378383649D+03 -.148113544743708D+02 0.466726288929043D+02 0.394827562964373D+03
0.141597883084D-02 0.000000000000D+00 0.000000000000D+00 0.754696957042D-04 0.000000000000D+00  6 -1 1 25 2 -2 21 0 0.12646253D+00 0.13512261D+00 0.22856180D+06 0.22856180D+06 0.22856180D+06 0.10934004D+01  1  2  2  1  6  1       -1 0.189057207028D-02 0.100000000000D+01
0.555563286032D-03 0.000000000000D+00 -.543773154621D-05 0.754696957042D-04 0.000000000000D+00  6 -1 1 25 2 -2 21 2 0.12646253D+00 0.13512261D+00 0.22856180D+06 0.22856180D+06 0.22856180D+06 0.10934004D+01  1  2  3  1  6  1       -1 0.886805727140D-03 0.100000000000D+01
-.971668799392D-03 0.000000000000D+00 0.000000000000D+00 0.754696957042D-04 0.000000000000D+00  6 -1 1 25 2 -2 21 2 0.12646253D+00 0.13512261D+00 0.22856180D+06 0.22856180D+06 0.22856180D+06 0.10934004D+01  1  2 15  1  6  1       -1 -.155100503912D-02 0.100000000000D+01
-.136597072618D-03 0.000000000000D+00 0.000000000000D+00 0.754696957042D-04 0.000000000000D+00  6 -1 1 25 2 -2 21 2 0.12646253D+00 0.13512261D+00 0.22856180D+06 0.22856180D+06 0.22856180D+06 0.10934004D+01  1  2  4  1  6  1       -1 -.218040085357D-03 0.100000000000D+01
-.287763735281D-01 0.000000000000D+00 -.428938335854D-02 0.754696957042D-04 0.000000000000D+00  6 -1 1 25 2 -2 21 2 0.13760831D+00 0.13512261D+00 0.22856180D+06 0.22856180D+06 0.22856180D+06 0.10934004D+01  1  2  5  1  6  1       -1 -.368563376315D-01 0.100000000000D+01
0.290502437849D-01 0.000000000000D+00 0.427412765787D-02 0.754696957042D-04 0.000000000000D+00  6 -1 1 25 2 -2 21 2 0.12646253D+00 0.13512261D+00 0.22856180D+06 0.22856180D+06 0.22856180D+06 0.10934004D+01  1  2  6  1  6  1       -1 0.463708153706D-01 0.100000000000D+01
-.393003733469D-03 0.000000000000D+00 -.601163159446D-04 0.754696957042D-04 0.000000000000D+00  6 21 1 25 2 1 -2 2 0.13760831D+00 0.13512261D+00 0.22856180D+06 0.22856180D+06 0.22856180D+06 0.10934004D+01  3  4  5  5  5  1       -1 -.322038053280D-02 0.100000000000D+01
  </mgrwgt>
  </event>
  <event>
  5     66 0.18829897E-05 0.21198488E+03 0.75467711E-02 0.92946599E-01
       -1 -1    0    0    0  501 0.00000000E+00 0.00000000E+00 0.27313885E+04 0.27313886E+04 0.32000000E+00 0.0000E+00 0.9000E+01
        1 -1    0    0  502    0 0.00000000E+00 0.00000000E+00 -.10427245E+04 0.10427245E+04 0.32000000E+00 0.0000E+00 0.9000E+01
       25  1    1    2    0    0 0.26559253E+03 -.46099997E+03 0.72466739E+03 0.90764982E+03 0.12500000E+03 0.0000E+00 0.9000E+01
        2  1    1    2  502    0 -.31059508E+03 0.25383021E+03 -.90267782E+03 0.98778866E+03 0.32000000E+00 0.0000E+00 0.9000E+01
       -2  1    1    2    0  501 0.45002547E+02 0.20716976E+03 0.18666745E+04 0.18786746E+04 0.32000000E+00 0.0000E+00 0.9000E+01
#aMCatNLO 1  0  0  5  1 0.19808373D+02 0.00000000D+00  -5  6  0 0.00000000D+00 0.00000000D+00 0.00000000D+00 0.00000000D+00 0.00000000D+00
  <mgrwgt>
 0.7446553375D-03    8    2    0
 0.168762727877170D+04 0.000000000000000D+00 0.000000000000000D+00 0.168762727877170D+04
 0.168762727877170D+04 -.000000000000000D+00 -.000000000000000D+00 -.168762727877170D+04
 0.652423423360667D+03 0.265622803435886D+03 -.461007838422521D+03 0.356297098721710D+03
 0.155615183148842D+04 -.310621870665592D+03 0.253854098922156D+03 -.150355600912283D+04
 0.116667930269432D+04 0.449990672297066D+02 0.207153739500365D+03 0.114725891040112D+04
 0.000000000000000D+00 0.000000000000000D+00 0.000000000000000D+00 0.000000000000000D+00
 0.168762727877170D+04 0.000000000000000D+00 0.000000000000000D+00 0.168762727877170D+04
 0.168762727877170D+04 -.000000000000000D+00 -.000000000000000D+00 -.168762727877170D+04
 0.652601211739743D+03 0.265638843156187D+03 -.460933999379948D+03 0.356706034132351D+03
 0.155523094606302D+04 -.310583629464499D+03 0.254030142744775D+03 -.150258104316466D+04
 0.106667448237747D+04 0.248226521669713D+02 0.178434733710069D+03 0.105135119398822D+04
 0.100747917363168D+03 0.201221341413409D+02 0.284691229251035D+02 0.945238150440875D+02
0.545697434509D-02 0.000000000000D+00 0.000000000000D+00 0.577072997194D-04 0.000000000000D+00  6 -1 1 25 2 -2 21 0 0.42021363D+00 0.16041916D+00 0.33621762D+06 0.33621762D+06 0.33621762D+06 0.10809086D+01  1  2  2  4  6  5       -2 0.152563041603D-04 0.100000000000D+01
0.636371993579D-03 0.000000000000D+00 -.209562183395D-04 0.577072997194D-04 0.000000000000D+00  6 -1 1 25 2 -2 21 2 0.42021363D+00 0.16041916D+00 0.33621762D+06 0.33621762D+06 0.33621762D+06 0.10809086D+01  1  2  3  4  6  5       -2 0.207867415982D-05 0.100000000000D+01
-.360292871142D-02 0.000000000000D+00 0.000000000000D+00 0.577072997194D-04 0.000000000000D+00  6 -1 1 25 2 -2 21 2 0.42021363D+00 0.16041916D+00 0.33621762D+06 0.33621762D+06 0.33621762D+06 0.10809086D+01  1  2 15  4  6  5       -2 -.117687687196D-04 0.100000000000D+01
0.309096750746D-08 0.000000000000D+00 0.000000000000D+00 0.577072997194D-04 0.000000000000D+00  6 -1 1 25 2 -2 21 2 0.42021363D+00 0.16041916D+00 0.33799310D+06 0.33799310D+06 0.33799310D+06 0.10807411D+01  1  2 12  4  6  5       -2 0.100873058260D-10 0.100000000000D+01
0.291934354670D+00 0.000000000000D+00 0.000000000000D+00 0.577072997194D-04 0.000000000000D+00  6 -1 1 25 2 -2 21 2 0.42021363D+00 0.16041916D+00 0.33799310D+06 0.33799310D+06 0.33799310D+06 0.10807411D+01  1  2 12  4  6  5       -2 0.952721472992D-03 0.100000000000D+01
-.107394849746D+00 0.000000000000D+00 0.000000000000D+00 0.577072997194D-04 0.000000000000D+00  6 -1 1 25 2 -2 21 2 0.42021363D+00 0.16041916D+00 0.33621762D+06 0.33621762D+06 0.33621762D+06 0.10809086D+01  1  2  4  4  6  5       -2 -.350799377279D-03 0.100000000000D+01
-.466234859119D+00 0.000000000000D+00 0.000000000000D+00 0.577072997194D-04 0.000000000000D+00  6 -1 1 25 2 -2 21 2 0.42021363D+00 0.16041916D+00 0.33621762D+06 0.33621762D+06 0.33621762D+06 0.10809086D+01  1  2  5  4  6  5       -2 -.152293055608D-02 0.100000000000D+01
0.508227612489D+00 0.000000000000D+00 -.000000000000D+00 0.577072997194D-04 0.000000000000D+00  6 -1 1 25 2 -2 21 2 0.42021363D+00 0.16041916D+00 0.33621762D+06 0.33621762D+06 0.33621762D+06 0.10809086D+01  1  2  6  4  6  5       -2 0.166009757822D-02 0.100000000000D+01
  </mgrwgt>
  </event>
  <event>
  5     66 0.18829897E-05 0.10791461E+02 0.75467711E-02 0.93510202E-01
       -1 -1    0    0    0  501 0.00000000E+00 0.00000000E+00 0.27932138E+03 0.27932156E+03 0.32000000E+00 0.0000E+00 0.9000E+01
        1 -1    0    0  502    0 0.00000000E+00 0.00000000E+00 -.30835820E+04 0.30835820E+04 0.32000000E+00 0.0000E+00 0.9000E+01
       25  1    1    2    0    0 -.49010392E+03 0.21695501E+03 -.24808365E+03 0.60369017E+03 0.12500000E+03 0.0000E+00 0.9000E+01
        2  1    1    2  502    0 0.49356345E+03 -.22718758E+03 -.26295249E+04 0.26850736E+04 0.32000000E+00 0.0000E+00 0.9000E+01
       -2  1    1    2    0  501 -.34595251E+01 0.10232568E+02 0.73347967E+02 0.74139736E+02 0.32000000E+00 0.0000E+00 0.9000E+01
#aMCatNLO 1  0  0  1  5 0.56457138D+01 0.00000000D+00  -5  6  0 0.00000000D+00 0.00000000D+00 0.00000000D+00 0.00000000D+00 0.00000000D+00
  <mgrwgt>
 0.7453504610D-02    5    4    0
 0.928068259560136D+03 0.000000000000000D+00 0.000000000000000D+00 0.928068259560136D+03
 0.928068259560136D+03 0.000000000000000D+00 0.000000000000000D+00 -.928068259560136D+03
 0.719144943438945D+03 -.490190587481579D+03 0.217001696578231D+03 0.462782779822712D+03
 0.892081955926377D+03 0.493646877321512D+03 -.227224695069614D+03 -.707454531790328D+03
 0.244909619754951D+03 -.345628983993324D+01 0.102229984913830D+02 0.244671751967615D+03
 0.000000000000000D+00 -.000000000000000D+00 0.000000000000000D+00 0.000000000000000D+00
 0.146385466808341D+04 0.000000000000000D+00 0.000000000000000D+00 0.146385466808341D+04
 0.119586854870049D+04 0.000000000000000D+00 0.000000000000000D+00 -.119586854870049D+04
 0.589434871368280D+03 -.338005593286400D+03 0.582476196218592D+02 0.462782779822712D+03
 0.111882947831241D+04 0.727511515522226D+03 -.471184127250388D+03 -.707454531790328D+03
 0.255765918845205D+03 0.547711893503657D+02 -.505178765287711D+02 0.244671751967615D+03
 0.695692948257999D+03 -.444277111586192D+03 0.463454384157300D+03 0.267986119382917D+03
 0.928068259560136D+03 0.000000000000000D+00 0.000000000000000D+00 0.928068259560136D+03
 0.928068259560136D+03 0.000000000000000D+00 0.000000000000000D+00 -.928068259560136D+03
 0.719144943438945D+03 -.490190587481579D+03 0.217001696578231D+03 0.462782779822712D+03
 0.892081955926377D+03 0.493646877321512D+03 -.227224695069614D+03 -.707454531790328D+03
 0.000000000000000D+00 -.000000000000000D+00 0.000000000000000D+00 0.000000000000000D+00
 0.244909619754951D+03 -.345628983993324D+01 0.102229984913830D+02 0.244671751967615D+03
 0.146385466808341D+04 0.000000000000000D+00 0.000000000000000D+00 0.146385466808341D+04
 0.119586854870049D+04 0.000000000000000D+00 0.000000000000000D+00 -.119586854870049D+04
 0.589434871368280D+03 -.338005593286400D+03 0.582476196218592D+02 0.462782779822712D+03
 0.111882947831241D+04 0.727511515522226D+03 -.471184127250388D+03 -.707454531790328D+03
 0.695692948257999D+03 -.444277111586192D+03 0.463454384157300D+03 0.267986119382917D+03
 0.255765918845205D+03 0.547711893503657D+02 -.505178765287711D+02 0.244671751967615D+03
0.178361795027D-01 0.000000000000D+00 0.000000000000D+00 0.581944478150D-04 0.000000000000D+00  6 -1 1 25 2 -2 21 0 0.42972535D-01 0.47439724D+00 0.30507903D+06 0.30507903D+06 0.30507903D+06 0.10840129D+01  1  2  2  1  6  1       -1 0.611997259643D-02 0.100000000000D+01
0.134630544912D-01 0.000000000000D+00 -.684956256642D-04 0.581944478150D-04 0.000000000000D+00  6 -1 1 25 2 -2 21 2 0.42972535D-01 0.47439724D+00 0.30507903D+06 0.30507903D+06 0.30507903D+06 0.10840129D+01  1  2  3  1  6  1       -1 0.542825333521D-02 0.100000000000D+01
-.122004076706D-01 0.000000000000D+00 0.000000000000D+00 0.581944478150D-04 0.000000000000D+00  6 -1 1 25 2 -2 21 2 0.42972535D-01 0.47439724D+00 0.30507903D+06 0.30507903D+06 0.30507903D+06 0.10840129D+01  1  2 15  1  6  1       -1 -.491915884855D-02 0.100000000000D+01
0.331896718807D-02 0.000000000000D+00 -.115528529497D-01 0.581944478150D-04 0.000000000000D+00  6 -1 1 25 2 -2 21 2 0.99362716D-01 0.47439724D+00 0.30507903D+06 0.30507903D+06 0.30507903D+06 0.10840129D+01  1  2  5  1  6  1       -1 0.260061506935D-03 0.100000000000D+01
0.103357386632D-02 0.000000000000D+00 -.105451590220D-02 0.581944478150D-04 0.000000000000D+00  6 21 1 25 2 1 -2 2 0.99362716D-01 0.47439724D+00 0.30507903D+06 0.30507903D+06 0.30507903D+06 0.10840129D+01  3  4  5  5  5  1       -1 0.564376019658D-03 0.100000000000D+01
  </mgrwgt>
  </event>
  <event>
  5     66 0.18829897E-05 0.18652512E+03 0.75467711E-02 0.93288313E-01
       -3 -1    0    0    0  501 0.00000000E+00 0.00000000E+00 0.10269678E+04 0.10269679E+04 0.50000000E+00 0.0000E+00 0.9000E+01
        3 -1    0    0  502    0 0.00000000E+00 0.00000000E+00 -.55042333E+03 0.55042356E+03 0.50000000E+00 0.0000E+00 0.9000E+01
       25  1    1    2    0    0 -.33218977E+03 0.30893715E+03 0.19295974E+03 0.50857710E+03 0.12500000E+03 0.0000E+00 0.9000E+01
        4  1    1    2  502    0 0.14172419E+03 0.12107357E+03 -.27899961E+03 0.33554097E+03 0.15500000E+01 0.0000E+00 0.9000E+01
       -4  1    1    2    0  501 0.19046558E+03 -.43001072E+03 0.56258429E+03 0.73327337E+03 0.15500000E+01 0.0000E+00 0.9000E+01
#aMCatNLO 1  0  0  5  4 0.13698240D+03 0.00000000D+00  -5  6  0 0.00000000D+00 0.00000000D+00 0.00000000D+00 0.00000000D+00 0.00000000D+00
  <mgrwgt>
 0.1006119872D-04    7    2    0
 0.751842596173791D+03 0.000000000000000D+00 0.000000000000000D+00 0.751842596173791D+03
 0.751842596173791D+03 -.000000000000000D+00 -.000000000000000D+00 -.751842596173791D+03
 0.472284318275799D+03 -.332239495695681D+03 0.308724063898479D+03 0.416394903802118D+02
 0.440699293340091D+03 0.141844754295811D+03 0.121126734502003D+03 -.399279660160767D+03
 0.590701580731692D+03 0.190394741399870D+03 -.429850798400482D+03 0.357640169780555D+03
 0.000000000000000D+00 0.000000000000000D+00 0.000000000000000D+00 0.000000000000000D+00
 0.751842596173791D+03 0.000000000000000D+00 0.000000000000000D+00 0.751842596173791D+03
 0.751842596173791D+03 -.000000000000000D+00 -.000000000000000D+00 -.751842596173791D+03
 0.451916628519269D+03 -.321790335863465D+03 0.285133182850672D+03 0.612673397051536D+02
 0.421824797066560D+03 0.151596585984633D+03 0.991101987169957D+02 -.380961681863578D+03
 0.474260311555459D+03 0.931336785421959D+02 -.264441987147007D+03 0.382517184544201D+03
 0.155683455206294D+03 0.770600713366354D+02 -.119801394420661D+03 -.628228423857771D+02
0.191095279624D-03 0.000000000000D+00 0.000000000000D+00 0.374203353265D-06 0.000000000000D+00  6 -3 3 25 4 -4 21 0 0.15799507D+00 0.84680540D-01 0.31758854D+06 0.31758854D+06 0.31758854D+06 0.10827260D+01  1  2  2  4  6  5       -4 0.213610386484D-04 0.100000000000D+01
0.142215210658D-04 0.000000000000D+00 -.733856190299D-06 0.374203353265D-06 0.000000000000D+00  6 -3 3 25 4 -4 21 2 0.15799507D+00 0.84680540D-01 0.31758854D+06 0.31758854D+06 0.31758854D+06 0.10827260D+01  1  2  3  4  6  5       -4 0.186361225135D-05 0.100000000000D+01
-.131736708590D-03 0.000000000000D+00 0.000000000000D+00 0.374203353265D-06 0.000000000000D+00  6 -3 3 25 4 -4 21 2 0.15799507D+00 0.84680540D-01 0.31758854D+06 0.31758854D+06 0.31758854D+06 0.10827260D+01  1  2 15  4  6  5       -4 -.172630018228D-04 0.100000000000D+01
0.831819701334D-08 0.000000000000D+00 0.000000000000D+00 0.374203353265D-06 0.000000000000D+00  6 -3 3 25 4 -4 21 2 0.15799507D+00 0.84680540D-01 0.27650364D+06 0.27650364D+06 0.27650364D+06 0.10871822D+01  1  2 12  4  6  5       -4 0.110571988270D-08 0.100000000000D+01
-.233402270026D-04 0.000000000000D+00 0.000000000000D+00 0.374203353265D-06 0.000000000000D+00  6 -3 3 25 4 -4 21 2 0.15799507D+00 0.84680540D-01 0.31758854D+06 0.31758854D+06 0.31758854D+06 0.10827260D+01  1  2  4  4  6  5       -4 -.305854294981D-05 0.100000000000D+01
-.184063778075D-03 0.000000000000D+00 0.000000000000D+00 0.374203353265D-06 0.000000000000D+00  6 -3 3 25 4 -4 21 2 0.15799507D+00 0.84680540D-01 0.31758854D+06 0.31758854D+06 0.31758854D+06 0.10827260D+01  1  2  5  4  6  5       -4 -.241200297960D-04 0.100000000000D+01
0.238679881588D-03 0.000000000000D+00 -.000000000000D+00 0.374203353265D-06 0.000000000000D+00  6 -3 3 25 4 -4 21 2 0.15799507D+00 0.84680540D-01 0.31758854D+06 0.31758854D+06 0.31758854D+06 0.10827260D+01  1  2  6  4  6  5       -4 0.312770166722D-04 0.100000000000D+01
  </mgrwgt>
  </event>
  <event>
  5     66 0.18829897E-05 0.23831917E+02 0.75467711E-02 0.89563168E-01
       -1 -1    0    0    0  501 0.00000000E+00 0.00000000E+00 0.12147234E+04 0.12147235E+04 0.32000000E+00 0.0000E+00 0.9000E+01
        1 -1    0    0  502    0 0.00000000E+00 0.00000000E+00 -.69929373E+03 0.69929380E+03 0.32000000E+00 0.0000E+00 0.9000E+01
       25  1    1    2    0    0 -.41501913E+03 0.42488397E+03 -.27587791E+03 0.66670899E+03 0.12500000E+03 0.0000E+00 0.9000E+01
        2  1    1    2  502    0 -.13208612E+02 -.19841384E+02 -.14170718E+03 0.14369821E+03 0.32000000E+00 0.0000E+00 0.9000E+01
       -2  1    1    2    0  501 0.42822774E+03 -.40504258E+03 0.93301478E+03 0.11036101E+04 0.32000000E+00 0.0000E+00 0.9000E+01
#aMCatNLO 1  0  0  2  4 0.36112409D+03 0.00000000D+00  -5  6  0 0.00000000D+00 0.00000000D+00 0.00000000D+00 0.00000000D+00 0.00000000D+00
  <mgrwgt>
 0.5829541230D-02    7    2    0
 0.921655348657741D+03 0.000000000000000D+00 0.000000000000000D+00 0.921655348657741D+03
 0.921655348657741D+03 0.000000000000000D+00 0.000000000000000D+00 -.921655348657741D+03
 0.769462138155219D+03 -.415026068825348D+03 0.424885173743220D+03 -.472940729249419D+03
 0.188787247831024D+03 -.132063663386301D+02 -.198381495714202D+02 -.187276973099536D+03
 0.885061311329240D+03 0.428232435163978D+03 -.405047024171800D+03 0.660217702348955D+03
 0.000000000000000D+00 -.000000000000000D+00 -.000000000000000D+00 -.000000000000000D+00
 0.983140742334520D+03 0.000000000000000D+00 0.000000000000000D+00 0.983140742334520D+03
 0.168073651492988D+04 0.000000000000000D+00 0.000000000000000D+00 -.168073651492988D+04
 0.854145791006759D+03 -.391318748423117D+03 0.580634769923534D+03 -.472940729249419D+03
 0.188144472272793D+03 -.770254925461449D+01 0.163201877582219D+02 -.187276973099536D+03
 0.836061391132280D+03 0.453363630094682D+03 -.239943022725149D+03 0.660217702348955D+03
 0.785525602852569D+03 -.543423324169506D+02 -.357011934956606D+03 -.697595772595360D+03
0.375043437627D-02 0.000000000000D+00 0.000000000000D+00 0.163421324459D-04 0.000000000000D+00  6 -1 1 25 2 -2 21 0 0.18688054D+00 0.10758366D+00 0.37224420D+06 0.37224420D+06 0.37224420D+06 0.10776864D+01  1  2  2  2  6  2        1 0.219722133030D-02 0.100000000000D+01
0.159980146513D-02 0.000000000000D+00 -.144026555169D-04 0.163421324459D-04 0.000000000000D+00  6 -1 1 25 2 -2 21 2 0.18688054D+00 0.10758366D+00 0.37224420D+06 0.37224420D+06 0.37224420D+06 0.10776864D+01  1  2  3  2  6  2        1 0.108853678461D-02 0.100000000000D+01
-.251677337362D-02 0.000000000000D+00 0.000000000000D+00 0.163421324459D-04 0.000000000000D+00  6 -1 1 25 2 -2 21 2 0.18688054D+00 0.10758366D+00 0.37224420D+06 0.37224420D+06 0.37224420D+06 0.10776864D+01  1  2 15  2  6  2        1 -.171246273705D-02 0.100000000000D+01
-.396195899387D-04 0.000000000000D+00 0.000000000000D+00 0.163421324459D-04 0.000000000000D+00  6 -1 1 25 2 -2 21 2 0.18688054D+00 0.10758366D+00 0.37224420D+06 0.37224420D+06 0.37224420D+06 0.10776864D+01  1  2  4  2  6  2        1 -.269579582089D-04 0.100000000000D+01
-.100905260995D-01 0.000000000000D+00 -.217059934507D-02 0.163421324459D-04 0.000000000000D+00  6 -1 1 25 2 -2 21 2 0.18688054D+00 0.20131041D+00 0.37224420D+06 0.37224420D+06 0.37224420D+06 0.10776864D+01  1  2  5  2  6  2        1 -.228252389983D-02 0.100000000000D+01
0.982415310385D-02 0.000000000000D+00 0.180461034899D-02 0.163421324459D-04 0.000000000000D+00  6 -1 1 25 2 -2 21 2 0.18688054D+00 0.10758366D+00 0.37224420D+06 0.37224420D+06 0.37224420D+06 0.10776864D+01  1  2  6  2  6  2        1 0.668454946710D-02 0.100000000000D+01
-.566705396475D-03 0.000000000000D+00 -.148089689775D-03 0.163421324459D-04 0.000000000000D+00  6 -1 21 25 2 -2 -1 2 0.18688054D+00 0.20131041D+00 0.37224420D+06 0.37224420D+06 0.37224420D+06 0.10776864D+01  1  2  5  6  6  2        1 -.118821757210D-03 0.100000000000D+01
  </mgrwgt>
  </event>
  <event>
  6     66 0.18829897E-05 0.49202804E+02 0.75467711E-02 0.93118373E-01
       -1 -1    0    0    0  501 0.00000000E+00 0.00000000E+00 0.11984794E+04 0.11984794E+04 0.32000000E+00 0.0000E+00 0.9000E+01
        1 -1    0    0  502    0 0.00000000E+00 0.00000000E+00 -.11553959E+04 0.11553960E+04 0.32000000E+00 0.0000E+00 0.9000E+01
       25  1    1    2    0    0 -.49318951E+03 -.18702333E+03 0.19115672E+03 0.57478649E+03 0.12500000E+03 0.0000E+00 0.9000E+01
        2  1    1    2  502    0 0.11355315E+02 -.57761995E+02 -.86737465E+03 0.86937004E+03 0.32000000E+00 0.0000E+00 0.9000E+01
       -2  1    1    2    0  503 0.37165071E+03 0.15848921E+03 0.44031942E+03 0.59759885E+03 0.32000000E+00 0.0000E+00 0.9000E+01
       21  1    1    2  503  501 0.11018348E+03 0.86296109E+02 0.27898197E+03 0.31212004E+03 0.75000000E+00 0.0000E+00 0.9000E+01
#aMCatNLO 2  0  0  5  4 0.63779695D+02 0.00000000D+00  -5  6  0 0.00000000D+00 0.00000000D+00 0.00000000D+00 0.00000000D+00 0.00000000D+00
  <mgrwgt>
 0.1036610795D-01    1    2    0
 0.117674055403712D+04 0.000000000000000D+00 0.000000000000000D+00 0.117674055403712D+04
 0.117674055403712D+04 -.000000000000000D+00 -.000000000000000D+00 -.117674055403712D+04
 0.572148785755228D+03 -.494406379877763D+03 -.187613692023242D+03 0.179144263493853D+03
 0.888719270189825D+03 0.927587307655131D+01 -.588462493745280D+02 -.886720372112851D+03
 0.892613052129195D+03 0.485130506801211D+03 0.246459941397770D+03 0.707576108618999D+03
 0.000000000000000D+00 0.000000000000000D+00 0.000000000000000D+00 0.000000000000000D+00
 0.117674055403712D+04 0.000000000000000D+00 0.000000000000000D+00 0.117674055403712D+04
 0.117674055403712D+04 -.000000000000000D+00 -.000000000000000D+00 -.117674055403712D+04
 0.571382218106811D+03 -.493062561750299D+03 -.186930994620583D+03 0.181104258975465D+03
 0.885639451619099D+03 0.113610071104671D+02 -.577869426424203D+02 -.883679147112603D+03
 0.589250824269063D+03 0.371443320625099D+03 0.158381127651486D+03 0.429140783273524D+03
 0.307208614079274D+03 0.110258234014732D+03 0.863368096115169D+02 0.273434104863613D+03
0.334851991800D-01 0.000000000000D+00 0.000000000000D+00 0.810686484437D-04 0.109559592441D-06  6 -1 1 25 2 -2 21 2 0.18438145D+00 0.17775323D+00 0.32755818D+06 0.32755818D+06 0.32755818D+06 0.10817393D+01  1  2  1  4  6  5       -2 0.103661079471D-01 0.100000000000D+01
  </mgrwgt>
  </event>
  <event>
  5     66 0.18829897E-05 0.18720417E+02 0.75467711E-02 0.92320011E-01
       -1 -1    0    0    0  501 0.00000000E+00 0.00000000E+00 0.89099487E+03 0.89099493E+03 0.32000000E+00 0.0000E+00 0.9000E+01
        1 -1    0    0  502    0 0.00000000E+00 0.00000000E+00 -.87981621E+03 0.87981627E+03 0.32000000E+00 0.0000E+00 0.9000E+01
       25  1    1    2    0    0 -.31018580E+03 -.44019722E+03 0.31757154E+03 0.63754647E+03 0.12500000E+03 0.0000E+00 0.9000E+01
        2  1    1    2  502    0 0.29588462E+03 0.42809913E+03 -.62546218E+03 0.81364588E+03 0.32000000E+00 0.0000E+00 0.9000E+01
       -2  1    1    2    0  501 0.14301187E+02 0.12098094E+02 0.31906930E+03 0.31961885E+03 0.32000000E+00 0.0000E+00 0.9000E+01
#aMCatNLO 1  0  0  5  4 0.63779695D+02 0.00000000D+00  -5  6  0 0.00000000D+00 0.00000000D+00 0.00000000D+00 0.00000000D+00 0.00000000D+00
  <mgrwgt>
 0.8036650695D-03    6    2    0
 0.885387958802878D+03 0.000000000000000D+00 0.000000000000000D+00 0.885387958802878D+03
 0.885387958802878D+03 -.000000000000000D+00 -.000000000000000D+00 -.885387958802878D+03
 0.635709502657371D+03 -.310230847045612D+03 -.440266586894146D+03 0.313725558051658D+03
 0.817651999337158D+03 0.295938503189175D+03 0.428175974240150D+03 -.630587447887841D+03
 0.317414415611227D+03 0.142923438564367D+02 0.120906126539959D+02 0.316861889836183D+03
 0.000000000000000D+00 0.000000000000000D+00 0.000000000000000D+00 0.000000000000000D+00
 0.885387958802878D+03 0.000000000000000D+00 0.000000000000000D+00 0.885387958802878D+03
 0.885387958802878D+03 -.000000000000000D+00 -.000000000000000D+00 -.885387958802878D+03
 0.644681168787864D+03 -.309345968776565D+03 -.439518023851971D+03 0.333343348067174D+03
 0.799619316997758D+03 0.297056199744526D+03 0.429121489982788D+03 -.605808066258823D+03
 0.215937875070024D+03 -.680881692008445D+02 -.218115336354912D+02 0.203758249170684D+03
 0.110537556750110D+03 0.803779382328838D+02 0.322080675046747D+02 0.687064690209645D+02
0.569724118904D-03 0.000000000000D+00 0.000000000000D+00 0.571826196219D-04 0.000000000000D+00  6 -1 1 25 2 -2 21 0 0.13707614D+00 0.13535635D+00 0.29818080D+06 0.29818080D+06 0.29818080D+06 0.10847474D+01  1  2  2  4  6  5       -2 0.605229324367D-03 0.100000000000D+01
0.355386269713D-03 0.000000000000D+00 -.218789062840D-05 0.571826196219D-04 0.000000000000D+00  6 -1 1 25 2 -2 21 2 0.13707614D+00 0.13535635D+00 0.29818080D+06 0.29818080D+06 0.29818080D+06 0.10847474D+01  1  2  3  4  6  5       -2 0.444235439197D-03 0.100000000000D+01
-.372234383301D-03 0.000000000000D+00 0.000000000000D+00 0.571826196219D-04 0.000000000000D+00  6 -1 1 25 2 -2 21 2 0.13707614D+00 0.13535635D+00 0.29818080D+06 0.29818080D+06 0.29818080D+06 0.10847474D+01  1  2 15  4  6  5       -2 -.465295704539D-03 0.100000000000D+01
-.827302200442D-04 0.000000000000D+00 0.000000000000D+00 0.571826196219D-04 0.000000000000D+00  6 -1 1 25 2 -2 21 2 0.13707614D+00 0.13535635D+00 0.29818080D+06 0.29818080D+06 0.29818080D+06 0.10847474D+01  1  2  4  4  6  5       -2 -.103413380787D-03 0.100000000000D+01
-.456131809422D-03 0.000000000000D+00 0.000000000000D+00 0.571826196219D-04 0.000000000000D+00  6 -1 1 25 2 -2 21 2 0.13707614D+00 0.13535635D+00 0.29818080D+06 0.29818080D+06 0.29818080D+06 0.10847474D+01  1  2  5  4  6  5       -2 -.570168101468D-03 0.100000000000D+01
0.714457809310D-03 0.000000000000D+00 -.000000000000D+00 0.571826196219D-04 0.000000000000D+00  6 -1 1 25 2 -2 21 2 0.13707614D+00 0.13535635D+00 0.29818080D+06 0.29818080D+06 0.29818080D+06 0.10847474D+01  1  2  6  4  6  5       -2 0.893077492731D-03 0.100000000000D+01
  </mgrwgt>
  </event>
  <event>
  5     66 0.18829897E-05 0.23116919E+02 0.75467711E-02 0.94036070E-01
       -1 -1    0    0    0  501 0.00000000E+00 0.00000000E+00 0.52362414E+03 0.52362424E+03 0.32000000E+00 0.0000E+00 0.9000E+01
        1 -1    0    0  502    0 0.00000000E+00 0.00000000E+00 -.18304725E+04 0.18304725E+04 0.32000000E+00 0.0000E+00 0.9000E+01
       25  1    1    2    0    0 0.19484130E+03 -.46465832E+03 -.78868988E+02 0.52508647E+03 0.12500000E+03 0.0000E+00 0.9000E+01
        2  1    1    2  502    0 -.11463889E+02 0.20070208E+02 -.13359231E+04 0.13361231E+04 0.32000000E+00 0.0000E+00 0.9000E+01
       -2  1    1    2    0  501 -.18337741E+03 0.44458811E+03 0.10794372E+03 0.49288722E+03 0.32000000E+00 0.0000E+00 0.9000E+01
#aMCatNLO 1  0  0  2  1 0.22933660D+02 0.00000000D+00  -5  6  0 0.00000000D+00 0.00000000D+00 0.00000000D+00 0.00000000D+00 0.00000000D+00
  <mgrwgt>
 0.2215851648D-02    9    2    0
 0.979019779254554D+03 0.000000000000000D+00 0.000000000000000D+00 0.979019779254554D+03
 0.979019779254554D+03 0.000000000000000D+00 0.000000000000000D+00 -.979019779254554D+03
 0.578666843152345D+03 0.194818734274814D+03 -.464602494441410D+03 0.255774311255607D+03
 0.714831483234490D+03 -.114655727740171D+02 0.200731804400764D+02 -.714457596706204D+03
 0.664541232122272D+03 -.183353161500797D+03 0.444529314001333D+03 0.458683285450597D+03
 0.000000000000000D+00 0.000000000000000D+00 -.000000000000000D+00 -.000000000000000D+00
 0.982048039454808D+03 0.000000000000000D+00 0.000000000000000D+00 0.982048039454808D+03
 0.102349196932545D+04 0.000000000000000D+00 0.000000000000000D+00 -.102349196932545D+04
 0.574719954190877D+03 0.188461799979396D+03 -.462319886437312D+03 0.255774311255607D+03
 0.715086357815311D+03 -.193466182171741D+02 0.229030566938192D+02 -.714457596706204D+03
 0.668367547850806D+03 -.190699537890393D+03 0.447167204652506D+03 0.458683285450597D+03
 0.473661489232596D+02 0.215843561281712D+02 -.775037490901348D+01 -.414439298706387D+02
0.351275853391D-03 0.000000000000D+00 0.000000000000D+00 0.888819657534D-04 0.000000000000D+00  6 -1 1 25 2 -2 21 0 0.80557569D-01 0.28161116D+00 0.26165594D+06 0.26165594D+06 0.26165594D+06 0.10889734D+01  1  2  2  2  6  2        1 0.276513148911D-03 0.100000000000D+01
0.266651829913D-03 0.000000000000D+00 -.134899177008D-05 0.888819657534D-04 0.000000000000D+00  6 -1 1 25 2 -2 21 2 0.80557569D-01 0.28161116D+00 0.26165594D+06 0.26165594D+06 0.26165594D+06 0.10889734D+01  1  2  3  2  6  2        1 0.248912433171D-03 0.100000000000D+01
-.209621274905D-03 0.000000000000D+00 0.000000000000D+00 0.888819657534D-04 0.000000000000D+00  6 -1 1 25 2 -2 21 2 0.80557569D-01 0.28161116D+00 0.26165594D+06 0.26165594D+06 0.26165594D+06 0.10889734D+01  1  2 15  2  6  2        1 -.195675917912D-03 0.100000000000D+01
0.286391257887D-09 0.000000000000D+00 0.000000000000D+00 0.888819657533D-04 0.000000000000D+00  6 -1 1 25 2 -2 21 2 0.80557569D-01 0.29482777D+00 0.27757843D+06 0.27757843D+06 0.27757843D+06 0.10870566D+01  1  2 12  2  6  2        1 0.232719510508D-09 0.100000000000D+01
-.294494123939D-04 0.000000000000D+00 0.000000000000D+00 0.888819657534D-04 0.000000000000D+00  6 -1 1 25 2 -2 21 2 0.80557569D-01 0.28161116D+00 0.26165594D+06 0.26165594D+06 0.26165594D+06 0.10889734D+01  1  2  4  2  6  2        1 -.274902478517D-04 0.100000000000D+01
-.169174602410D-01 0.000000000000D+00 -.142408302960D-02 0.888819657534D-04 0.000000000000D+00  6 -1 1 25 2 -2 21 2 0.80557569D-01 0.29473581D+00 0.26165594D+06 0.26165594D+06 0.26165594D+06 0.10889734D+01  1  2  5  2  6  2        1 -.138641831210D-01 0.100000000000D+01
0.169662010121D-01 0.000000000000D+00 0.142260682254D-02 0.888819657534D-04 0.000000000000D+00  6 -1 1 25 2 -2 21 2 0.80557569D-01 0.28161116D+00 0.26165594D+06 0.26165594D+06 0.26165594D+06 0.10889734D+01  1  2  6  2  6  2        1 0.158375000726D-01 0.100000000000D+01
0.537342865347D-11 0.000000000000D+00 0.000000000000D+00 0.888819657533D-04 0.000000000000D+00  6 -1 21 25 2 -2 -1 2 0.80557569D-01 0.29482777D+00 0.27757843D+06 0.27757843D+06 0.27757843D+06 0.10870566D+01  1  2 12  6  6  2        1 0.236572258186D-11 0.100000000000D+01
-.134067811175D-03 0.000000000000D+00 -.113736561652D-04 0.888819657534D-04 0.000000000000D+00  6 -1 21 25 2 -2 -1 2 0.80557569D-01 0.29473581D+00 0.26165594D+06 0.26165594D+06 0.26165594D+06 0.10889734D+01  1  2  5  6  6  2        1 -.597249553292D-04 0.100000000000D+01
  </mgrwgt>
  </event>
  <event>
  5     66 -.18829897E-05 0.19916683E+02 0.75467711E-02 0.95240824E-01
       -1 -1    0    0    0  501 0.00000000E+00 0.00000000E+00 0.39939073E+03 0.39939086E+03 0.32000000E+00 0.0000E+00 0.9000E+01
        1 -1    0    0  502    0 -.00000000E+00 -.00000000E+00 -.11237026E+04 0.11237027E+04 0.32000000E+00 0.0000E+00 0.9000E+01
       25  1    1    2    0    0 0.36806346E+03 -.27007956E+03 -.86784107E+03 0.98852759E+03 0.12500000E+03 0.0000E+00 0.9000E+01
        2  1    1    2  502    0 -.13231209E+02 -.14951435E+02 -.39299606E+02 0.44081422E+02 0.32000000E+00 0.0000E+00 0.9000E+01
       -2  1    1    2    0  501 -.35483225E+03 0.28503100E+03 0.18282878E+03 0.49048452E+03 0.32000000E+00 0.0000E+00 0.9000E+01
#aMCatNLO 1  0  0  5  4 0.10216751D+03 0.00000000D+00  -5  6  0 0.00000000D+00 0.00000000D+00 0.00000000D+00 0.00000000D+00 0.00000000D+00
  <mgrwgt>
 -.4409857610D-03    6    2    0
 0.669922789881304D+03 0.000000000000000D+00 0.000000000000000D+00 0.669922789881304D+03
 0.669922789881304D+03 -.000000000000000D+00 -.000000000000000D+00 -.669922789881304D+03
 0.654641461487550D+03 0.368034069252415D+03 -.270117235898932D+03 -.452236714385714D+03
 0.287751564173749D+02 -.131878176665365D+02 -.149250036898425D+02 -.207686147081781D+02
 0.656428961857682D+03 -.354846251585879D+03 0.285042239588774D+03 0.473005329093892D+03
 0.000000000000000D+00 -.000000000000000D+00 0.000000000000000D+00 0.000000000000000D+00
 0.669922789881304D+03 0.000000000000000D+00 0.000000000000000D+00 0.669922789881304D+03
 0.669922789881304D+03 -.000000000000000D+00 -.000000000000000D+00 -.669922789881304D+03
 0.653468595761641D+03 0.367387657749079D+03 -.269597984020735D+03 -.451375056457811D+03
 0.287490285238082D+02 -.132162436347186D+02 -.149021695705672D+02 -.207307232710425D+02
 0.471580863517545D+03 -.234204658635372D+03 0.204271489539124D+03 0.354696838540901D+03
 0.186047091959613D+03 -.119966755478988D+03 0.802286640521784D+02 0.117408941187952D+03
0.541862499976D-05 0.000000000000D+00 0.000000000000D+00 0.660107291441D-06 0.000000000000D+00  6 -1 1 25 2 -2 21 0 0.61444741D-01 0.17287734D+00 0.22486390D+06 0.22486390D+06 0.22486390D+06 0.10939382D+01  1  2  2  4  6  5       -2 0.221442359544D-04 0.100000000000D+01
0.179897043621D-05 0.000000000000D+00 -.208089467558D-07 0.660107291441D-06 0.000000000000D+00  6 -1 1 25 2 -2 21 2 0.61444741D-01 0.17287734D+00 0.22486390D+06 0.22486390D+06 0.22486390D+06 0.10939382D+01  1  2  3  4  6  5       -2 0.879794390051D-05 0.100000000000D+01
-.391013108272D-05 0.000000000000D+00 0.000000000000D+00 0.660107291441D-06 0.000000000000D+00  6 -1 1 25 2 -2 21 2 0.61444741D-01 0.17287734D+00 0.22486390D+06 0.22486390D+06 0.22486390D+06 0.10939382D+01  1  2 15  4  6  5       -2 -.191226677310D-04 0.100000000000D+01
-.159410132988D-03 0.000000000000D+00 0.000000000000D+00 0.660107291441D-06 0.000000000000D+00  6 -1 1 25 2 -2 21 2 0.61444741D-01 0.17287734D+00 0.22486390D+06 0.22486390D+06 0.22486390D+06 0.10939382D+01  1  2  4  4  6  5       -2 -.779602254141D-03 0.100000000000D+01
-.207873849008D-03 0.000000000000D+00 0.000000000000D+00 0.660107291441D-06 0.000000000000D+00  6 -1 1 25 2 -2 21 2 0.61444741D-01 0.17287734D+00 0.22486390D+06 0.22486390D+06 0.22486390D+06 0.10939382D+01  1  2  5  4  6  5       -2 -.101661618509D-02 0.100000000000D+01
0.274696064979D-03 0.000000000000D+00 -.000000000000D+00 0.660107291441D-06 0.000000000000D+00  6 -1 1 25 2 -2 21 2 0.61444741D-01 0.17287734D+00 0.22486390D+06 0.22486390D+06 0.22486390D+06 0.10939382D+01  1  2  6  4  6  5       -2 0.134341316607D-02 0.100000000000D+01
  </mgrwgt>
  </event>
  <event>
  5     66 0.18829897E-05 0.40313783E+02 0.75467711E-02 0.87411806E-01
       -1 -1    0    0    0  501 0.00000000E+00 0.00000000E+00 0.91934121E+03 0.91934126E+03 0.32000000E+00 0.0000E+00 0.9000E+01
        1 -1    0    0  502    0 0.00000000E+00 0.00000000E+00 -.10772612E+04 0.10772612E+04 0.32000000E+00 0.0000E+00 0.9000E+01
       25  1    1    2    0    0 -.46537364E+03 -.56600224E+03 -.22231136E+03 0.77587273E+03 0.12500000E+03 0.0000E+00 0.9000E+01
        2  1    1    2  502    0 0.44633477E+03 0.53045205E+03 -.36908758E+03 0.78537880E+03 0.32000000E+00 0.0000E+00 0.9000E+01
       -2  1    1    2    0  501 0.19038869E+02 0.35550181E+02 0.43347900E+03 0.43535094E+03 0.32000000E+00 0.0000E+00 0.9000E+01
#aMCatNLO 1  0  0  1  5 0.85349946D+01 0.00000000D+00  -5  6  0 0.00000000D+00 0.00000000D+00 0.00000000D+00 0.00000000D+00 0.00000000D+00
  <mgrwgt>
 0.6756042501D-03    4    2    0
 0.995173690557229D+03 0.000000000000000D+00 0.000000000000000D+00 0.995173690557229D+03
 0.995173690557229D+03 0.000000000000000D+00 0.000000000000000D+00 -.995173690557229D+03
 0.760747838187461D+03 -.465439707165516D+03 -.566079115726717D+03 -.161346171440888D+03
 0.758645356080997D+03 0.446407235745617D+03 0.530540880543285D+03 -.307879408615736D+03
 0.470954186846000D+03 0.190324714198984D+02 0.355382351834324D+02 0.469225580056624D+03
 0.000000000000000D+00 -.000000000000000D+00 -.000000000000000D+00 -.000000000000000D+00
 0.118088939035113D+04 0.000000000000000D+00 0.000000000000000D+00 0.118088939035113D+04
 0.124646826975660D+04 0.000000000000000D+00 0.000000000000000D+00 -.124646826975660D+04
 0.630713062009922D+03 -.377317013564493D+03 -.462356194752565D+03 -.161346171440888D+03
 0.910250890343402D+03 0.552100203873355D+03 0.654944515210548D+03 -.307879408615736D+03
 0.487836228196019D+03 0.797536846141466D+02 0.107008833053679D+03 0.469225580056624D+03
 0.398557479558394D+03 -.254536874923009D+03 -.299597153511662D+03 -.655788794054734D+02
0.125099551282D-02 0.000000000000D+00 0.000000000000D+00 0.621859555595D-05 0.000000000000D+00  6 -1 1 25 2 -2 21 0 0.14143712D+00 0.16573249D+00 0.54546974D+06 0.54546974D+06 0.54546974D+06 0.10658491D+01  1  2  2  1  6  1       -1 0.824379698177D-03 0.100000000000D+01
0.648798758353D-03 0.000000000000D+00 -.480415216390D-05 0.621859555595D-05 0.000000000000D+00  6 -1 1 25 2 -2 21 2 0.14143712D+00 0.16573249D+00 0.54546974D+06 0.54546974D+06 0.54546974D+06 0.10658491D+01  1  2  3  1  6  1       -1 0.485705431141D-03 0.100000000000D+01
-.783048260210D-03 0.000000000000D+00 0.000000000000D+00 0.621859555595D-05 0.000000000000D+00  6 -1 1 25 2 -2 21 2 0.14143712D+00 0.16573249D+00 0.54546974D+06 0.54546974D+06 0.54546974D+06 0.10658491D+01  1  2 15  1  6  1       -1 -.586207645951D-03 0.100000000000D+01
-.644827333455D-04 0.000000000000D+00 0.000000000000D+00 0.621859555595D-05 0.000000000000D+00  6 -1 1 25 2 -2 21 2 0.14143712D+00 0.16573249D+00 0.54546974D+06 0.54546974D+06 0.54546974D+06 0.10658491D+01  1  2  4  1  6  1       -1 -.482732332600D-04 0.100000000000D+01
  </mgrwgt>
  </event>
  <event>
  6     66 0.18829897E-05 0.16804153E+02 0.75467711E-02 0.92810577E-01
       -1 -1    0    0    0  503 0.00000000E+00 0.00000000E+00 0.41276421E+03 0.41276433E+03 0.32000000E+00 0.0000E+00 0.9000E+01
        1 -1    0    0  502    0 0.00000000E+00 0.00000000E+00 -.17261572E+04 0.17261572E+04 0.32000000E+00 0.0000E+00 0.9000E+01
       25  1    1    2    0    0 0.39626386E+03 0.39125753E+03 -.55550728E+03 0.79644261E+03 0.12500000E+03 0.0000E+00 0.9000E+01
        2  1    1    2  502    0 0.19564920E+02 -.17663895E+02 -.61407278E+03 0.61463834E+03 0.32000000E+00 0.0000E+00 0.9000E+01
       -2  1    1    2    0  501 -.38977681E+03 -.38844000E+03 -.25944780E+03 0.60837888E+03 0.32000000E+00 0.0000E+00 0.9000E+01
       21  1    1    2  501  503 -.26051963E+02 0.14846367E+02 0.11563488E+03 0.11946174E+03 0.75000000E+00 0.0000E+00 0.9000E+01
#aMCatNLO 2  0  0  1  5 0.85349946D+01 0.00000000D+00  -5  6  0 0.00000000D+00 0.00000000D+00 0.00000000D+00 0.00000000D+00 0.00000000D+00
  <mgrwgt>
 0.5449767470D-02    1    2    0
 0.713301869827842D+03 0.000000000000000D+00 0.000000000000000D+00 0.713301869827842D+03
 0.713301869827842D+03 0.000000000000000D+00 0.000000000000000D+00 -.713301869827842D+03
 0.567786793725771D+03 0.385851669077585D+03 0.397169294385150D+03 0.114840845101054D+02
 0.254449035655822D+03 0.149166472601679D+02 -.150160603108918D+02 -.253567196840272D+03
 0.604367910274091D+03 -.400768316337753D+03 -.382153234074258D+03 0.242083112330167D+03
 0.000000000000000D+00 -.000000000000000D+00 0.000000000000000D+00 0.000000000000000D+00
 0.997542077678824D+03 0.000000000000000D+00 0.000000000000000D+00 0.997542077678824D+03
 0.714250663386842D+03 0.000000000000000D+00 0.000000000000000D+00 -.714250663386842D+03
 0.570825182425370D+03 0.396246917861277D+03 0.391245300009292D+03 0.114840845101054D+02
 0.254933905056925D+03 0.195671888896147D+02 -.176662886056449D+02 -.253567196840272D+03
 0.601159743214434D+03 -.389762143790724D+03 -.388425378745833D+03 0.242083112330167D+03
 0.284873910368936D+03 -.260519629601680D+02 0.148463673421863D+02 0.283291414291982D+03
0.321617733976D-02 0.000000000000D+00 0.000000000000D+00 0.671345265680D-05 0.429481320503D-07  6 -1 1 25 2 -2 21 2 0.63502154D-01 0.26556247D+00 0.34652047D+06 0.34652047D+06 0.34652047D+06 0.10799500D+01  1  2  1  1  6  1       -1 0.544976746961D-02 0.100000000000D+01
  </mgrwgt>
  </event>
  <event>
  5     66 0.18829897E-05 0.17752327E+02 0.75467711E-02 0.94441044E-01
       -1 -1    0    0    0  501 0.00000000E+00 0.00000000E+00 0.33916538E+03 0.33916553E+03 0.32000000E+00 0.0000E+00 0.9000E+01
        1 -1    0    0  502    0 -.00000000E+00 -.00000000E+00 -.17044220E+04 0.17044220E+04 0.32000000E+00 0.0000E+00 0.9000E+01
       25  1    1    2    0    0 0.48193562E+03 0.12275022E+03 -.36310230E+03 0.62832940E+03 0.12500000E+03 0.0000E+00 0.9000E+01
        2  1    1    2  502    0 -.47378712E+03 -.10696960E+03 -.11593906E+04 0.12570216E+04 0.32000000E+00 0.0000E+00 0.9000E+01
       -2  1    1    2    0  501 -.81485069E+01 -.15780621E+02 0.15723632E+03 0.15823649E+03 0.32000000E+00 0.0000E+00 0.9000E+01
#aMCatNLO 1  0  0  4  2 0.20271360D+03 0.00000000D+00  -5  6  0 0.00000000D+00 0.00000000D+00 0.00000000D+00 0.00000000D+00 0.00000000D+00
  <mgrwgt>
 0.1587718728D-01    3    2    0
 0.760316458693307D+03 0.000000000000000D+00 0.000000000000000D+00 0.760316458693307D+03
 0.760316458693307D+03 -.000000000000000D+00 -.000000000000000D+00 -.760316458693307D+03
 0.518522179675301D+03 0.482027732310859D+03 0.122767201161082D+03 0.762740481261556D+02
 0.648443489470096D+03 -.473882856624003D+03 -.106993612045743D+03 -.429495476362015D+03
 0.353667248241217D+03 -.814487568685581D+01 -.157735891153384D+02 0.353221428235860D+03
 0.000000000000000D+00 0.000000000000000D+00 0.000000000000000D+00 0.000000000000000D+00
 0.760316458693307D+03 0.000000000000000D+00 0.000000000000000D+00 0.760316458693307D+03
 0.760316458693307D+03 -.000000000000000D+00 -.000000000000000D+00 -.760316458693307D+03
 0.394354715524585D+03 0.360066342799542D+03 0.952306709584556D+02 -.342635337967496D+02
 0.327177880752635D+03 -.106478399238917D+03 -.227316172248840D+03 0.209845357307325D+03
 0.292861900119737D+03 -.945219038582220D+02 -.352758566328236D+02 0.274935112656751D+03
 0.506238420989657D+03 -.159066039702403D+03 0.167361357923208D+03 -.450516936167327D+03
0.660432858967D-02 0.000000000000D+00 0.000000000000D+00 0.375978390408D-04 0.000000000000D+00  6 -1 1 25 2 -2 21 0 0.52179304D-01 0.26221878D+00 0.25829020D+06 0.25829020D+06 0.25829020D+06 0.10893949D+01  1  2  2  3  6  4        2 0.145699711197D-01 0.100000000000D+01
0.466296476738D-02 0.000000000000D+00 -.253623607440D-04 0.375978390408D-04 0.000000000000D+00  6 -1 1 25 2 -2 21 2 0.52179304D-01 0.26221878D+00 0.25829020D+06 0.25829020D+06 0.25829020D+06 0.10893949D+01  1  2  3  3  6  4        2 0.122085136807D-01 0.100000000000D+01
-.416368180442D-02 0.000000000000D+00 0.000000000000D+00 0.375978390408D-04 0.000000000000D+00  6 -1 1 25 2 -2 21 2 0.52179304D-01 0.26221878D+00 0.25829020D+06 0.25829020D+06 0.25829020D+06 0.10893949D+01  1  2 15  3  6  4        2 -.109012975236D-01 0.100000000000D+01
  </mgrwgt>
  </event>
  <event>
  5     66 0.18829897E-05 0.78136665E+02 0.75467711E-02 0.95360476E-01
       -1 -1    0    0    0  501 0.00000000E+00 0.00000000E+00 0.15906552E+03 0.15906584E+03 0.32000000E+00 0.0000E+00 0.9000E+01
        1 -1    0    0  502    0 0.00000000E+00 0.00000000E+00 -.23008613E+04 0.23008614E+04 0.32000000E+00 0.0000E+00 0.9000E+01
       25  1    1    2    0    0 -.32811441E+02 0.45207431E+03 -.90212834E+03 0.10173044E+04 0.12500000E+03 0.0000E+00 0.9000E+01
        2  1    1    2  502    0 -.20189215E+02 -.75467273E+02 -.97769083E+03 0.98080700E+03 0.32000000E+00 0.0000E+00 0.9000E+01
       -2  1    1    2    0  501 0.53000655E+02 -.37660704E+03 -.26197664E+03 0.46181576E+03 0.32000000E+00 0.0000E+00 0.9000E+01
#aMCatNLO 1  0  0  2  1 0.75655167D+01 0.00000000D+00  -5  6  0 0.00000000D+00 0.00000000D+00 0.00000000D+00 0.00000000D+00 0.00000000D+00
  <mgrwgt>
 0.4896413679D-02   11    2    0
 0.604969521146601D+03 0.000000000000000D+00 0.000000000000000D+00 0.604969521146601D+03
 0.604969521146601D+03 0.000000000000000D+00 0.000000000000000D+00 -.604969521146601D+03
 0.471340784979941D+03 -.328039540595529D+02 0.452058155474495D+03 -.332334207171494D+02
 0.263463081814989D+03 -.201922829867737D+02 -.754825157114123D+02 -.251609731546914D+03
 0.475135175498272D+03 0.529962370463266D+02 -.376575639763083D+03 0.284843152264063D+03
 0.000000000000000D+00 -.000000000000000D+00 0.000000000000000D+00 -.000000000000000D+00
 0.606649735970240D+03 0.000000000000000D+00 0.000000000000000D+00 0.606649735970240D+03
 0.613558043250735D+03 0.000000000000000D+00 0.000000000000000D+00 -.613558043250735D+03
 0.468592093114412D+03 -.319221001281157D+02 0.449255015553742D+03 -.332334207171494D+02
 0.263880566496379D+03 -.196975241797143D+02 -.770552003860179D+02 -.251609731546914D+03
 0.477490035313378D+03 0.538899990445702D+02 -.379416631731951D+03 0.284843152264063D+03
 0.102450842968061D+02 -.227037473674027D+01 0.721681656422686D+01 -.690830728049457D+01
0.200952554882D-03 0.000000000000D+00 0.000000000000D+00 0.295693815586D-05 0.000000000000D+00  6 -1 1 25 2 -2 21 0 0.24471645D-01 0.35397869D+00 0.21557025D+06 0.21557025D+06 0.21557025D+06 0.10953335D+01  1  2  2  2  6  2        1 0.663457248315D-03 0.100000000000D+01
0.346125058734D-04 0.000000000000D+00 -.771710722768D-06 0.295693815586D-05 0.000000000000D+00  6 -1 1 25 2 -2 21 2 0.24471645D-01 0.35397869D+00 0.21557025D+06 0.21557025D+06 0.21557025D+06 0.10953335D+01  1  2  3  2  6  2        1 0.137102443807D-03 0.100000000000D+01
-.141331575431D-03 0.000000000000D+00 0.000000000000D+00 0.295693815586D-05 0.000000000000D+00  6 -1 1 25 2 -2 21 2 0.24471645D-01 0.35397869D+00 0.21557025D+06 0.21557025D+06 0.21557025D+06 0.10953335D+01  1  2 15  2  6  2        1 -.559823794602D-03 0.100000000000D+01
0.712953254845D-08 0.000000000000D+00 0.000000000000D+00 0.295693815586D-05 0.000000000000D+00  6 -1 1 25 2 -2 21 2 0.24471645D-01 0.35949133D+00 0.21983685D+06 0.21983685D+06 0.21983685D+06 0.10946849D+01  1  2 12  2  6  2        1 0.266471748833D-07 0.100000000000D+01
-.149508111492D-04 0.000000000000D+00 0.000000000000D+00 0.295693815586D-05 0.000000000000D+00  6 -1 1 25 2 -2 21 2 0.24471645D-01 0.35397869D+00 0.21557025D+06 0.21557025D+06 0.21557025D+06 0.10953335D+01  1  2  4  2  6  2        1 -.592211599171D-04 0.100000000000D+01
-.222171223554D-01 0.000000000000D+00 -.217671634211D-02 0.295693815586D-05 0.000000000000D+00  6 -1 1 25 2 -2 21 2 0.24471645D-01 0.35935952D+00 0.21557025D+06 0.21557025D+06 0.21557025D+06 0.10953335D+01  1  2  5  2  6  2        1 -.833314059091D-01 0.100000000000D+01
0.222476774130D-01 0.000000000000D+00 0.217646864910D-02 0.295693815586D-05 0.000000000000D+00  6 -1 1 25 2 -2 21 2 0.24471645D-01 0.35397869D+00 0.21557025D+06 0.21557025D+06 0.21557025D+06 0.10953335D+01  1  2  6  2  6  2        1 0.881245337600D-01 0.100000000000D+01
0.314459106899D-05 0.000000000000D+00 0.000000000000D+00 0.295693815586D-05 0.265586316905D-07  6 -1 1 25 2 -2 21 2 0.24539611D-01 0.35900399D+00 0.21983685D+06 0.21983685D+06 0.21983685D+06 0.10946849D+01  1  2 11  2  6  2        1 0.117576144722D-04 0.100000000000D+01
0.520378252966D-09 0.000000000000D+00 0.000000000000D+00 0.295693815586D-05 0.000000000000D+00  6 -1 21 25 2 -2 -1 2 0.24471645D-01 0.35949133D+00 0.21983685D+06 0.21983685D+06 0.21983685D+06 0.10946849D+01  1  2 12  6  6  2        1 0.762959840779D-09 0.100000000000D+01
-.612656774122D-04 0.000000000000D+00 -.602034868426D-05 0.295693815586D-05 0.000000000000D+00  6 -1 21 25 2 -2 -1 2 0.24471645D-01 0.35935952D+00 0.21557025D+06 0.21557025D+06 0.21557025D+06 0.10953335D+01  1  2  5  6  6  2        1 -.902910836572D-04 0.100000000000D+01
0.188486645373D-06 0.000000000000D+00 0.000000000000D+00 0.295693815586D-05 0.645538671514D-09  6 -1 21 25 2 -2 -1 2 0.24539611D-01 0.35900399D+00 0.21983685D+06 0.21983685D+06 0.21983685D+06 0.10946849D+01  1  2 11  6  6  2        1 0.277149096639D-06 0.100000000000D+01
  </mgrwgt>
  </event>
  <event>
  6     66 0.18829897E-05 0.54296791E+02 0.75467711E-02 0.93470916E-01
       -1 -1    0    0    0  501 0.00000000E+00 0.00000000E+00 0.62962554E+03 0.62962562E+03 0.32000000E+00 0.0000E+00 0.9000E+01
        1 -1    0    0  502    0 -.00000000E+00 -.00000000E+00 -.31299868E+04 0.31299868E+04 0.32000000E+00 0.0000E+00 0.9000E+01
       25  1    1    2    0    0 -.26682630E+03 -.46224133E+03 0.33089234E+03 0.64029529E+03 0.12500000E+03 0.0000E+00 0.9000E+01
        2  1    1    2  503    0 0.55359099E+02 0.18309810E+03 -.12633389E+04 0.12777382E+04 0.32000000E+00 0.0000E+00 0.9000E+01
       -2  1    1    2    0  501 0.34480766E+02 -.44811899E+01 0.11790709E+03 0.12292757E+03 0.32000000E+00 0.0000E+00 0.9000E+01
       21  1    1    2  502  503 0.17698644E+03 0.28362441E+03 -.16858217E+04 0.17186513E+04 0.75000000E+00 0.0000E+00 0.9000E+01
#aMCatNLO 2  0  0  4  2 0.18003014D+01 0.00000000D+00  -5  6  0 0.00000000D+00 0.00000000D+00 0.00000000D+00 0.00000000D+00 0.00000000D+00
  <mgrwgt>
 0.2644985095D-02    1    2    0
 0.140382327647922D+04 0.000000000000000D+00 0.000000000000000D+00 0.140382327647922D+04
 0.140382327647922D+04 -.000000000000000D+00 -.000000000000000D+00 -.140382327647922D+04
 0.115362443969445D+04 -.267045918118044D+03 -.462747078106463D+03 0.101477877745879D+04
 0.138437940593180D+04 0.232649347374606D+03 0.467329354036488D+03 -.128217935390885D+04
 0.269642707332187D+03 0.343965707434376D+02 -.458227593002487D+01 0.267400576450059D+03
 0.000000000000000D+00 0.000000000000000D+00 0.000000000000000D+00 0.000000000000000D+00
 0.140382327647922D+04 0.000000000000000D+00 0.000000000000000D+00 0.140382327647922D+04
 0.140382327647922D+04 -.000000000000000D+00 -.000000000000000D+00 -.140382327647922D+04
 0.115230589488956D+04 -.266821868675424D+03 -.462297023625446D+03 0.101354399398390D+04
 0.585647843881111D+03 0.553361337812714D+02 0.183036211110345D+03 -.553551311770738D+03
 0.269361406709906D+03 0.344489416106359D+02 -.447707708113807D+01 0.267111949615617D+03
 0.800331407477864D+03 0.177036793283517D+03 0.283737889596239D+03 -.727104631828777D+03
0.346333943682D-01 0.000000000000D+00 0.000000000000D+00 0.101107707399D-03 0.577610442085D-07  6 -1 1 25 2 -2 21 2 0.96865476D-01 0.48153643D+00 0.30725310D+06 0.30725310D+06 0.30725310D+06 0.10837851D+01  1  2  1  3  6  4        2 0.264498509524D-02 0.100000000000D+01
  </mgrwgt>
  </event>
  <event>
  6     66 0.18829897E-05 0.13209811E+03 0.75467711E-02 0.94224051E-01
       21 -1    0    0  503  501 0.00000000E+00 0.00000000E+00 0.20218794E+03 0.20218933E+03 0.75000000E+00 0.0000E+00 0.9000E+01
        1 -1    0    0  502    0 0.00000000E+00 0.00000000E+00 -.36177545E+04 0.36177545E+04 0.32000000E+00 0.0000E+00 0.9000E+01
       25  1    1    2    0    0 0.40195435E+03 -.25847444E+03 -.12160015E+04 0.13125018E+04 0.12500000E+03 0.0000E+00 0.9000E+01
        2  1    1    2  502    0 -.17336096E+03 0.11051952E+03 -.21578161E+04 0.21675883E+04 0.32000000E+00 0.0000E+00 0.9000E+01
        1  1    1    2  503    0 -.95201171E+02 0.17617334E+03 -.35443336E+02 0.20336332E+03 0.32000000E+00 0.0000E+00 0.9000E+01
       -2  1    1    2    0  501 -.13339222E+03 -.28218422E+02 -.63055837E+01 0.13649039E+03 0.32000000E+00 0.0000E+00 0.9000E+01
#aMCatNLO 2  0  0  1  2 0.24295997D+02 0.00000000D+00  -5  6  0 0.00000000D+00 0.00000000D+00 0.00000000D+00 0.00000000D+00 0.00000000D+00
  <mgrwgt>
 0.4504644562D-03    1    2    0
 0.635279738857649D+03 0.000000000000000D+00 0.000000000000000D+00 0.635279738857649D+03
 0.635279738857649D+03 0.000000000000000D+00 0.000000000000000D+00 -.635279738857649D+03
 0.435064036794857D+03 0.367341794886859D+03 -.194433506070804D+03 0.301883016838006D+02
 0.457784566316486D+03 -.206255399076535D+03 0.171323575419791D+03 -.371044002801193D+03
 0.000000000000000D+00 -.000000000000000D+00 0.000000000000000D+00 0.000000000000000D+00
 0.377710874603954D+03 -.161086395810324D+03 0.231099306510132D+02 0.340855701117392D+03
 0.109983390222320D+04 0.000000000000000D+00 0.000000000000000D+00 0.109983390222320D+04
 0.665072155449940D+03 0.000000000000000D+00 0.000000000000000D+00 -.665072155449940D+03
 0.494918624545704D+03 0.401969197980555D+03 -.258512814457095D+03 0.301883016838006D+02
 0.424225638671284D+03 -.173414224535883D+03 0.110549749976857D+03 -.371044002801193D+03
 0.478662809023405D+03 -.952011712877313D+02 0.176173338704490D+03 0.434761746773257D+03
 0.367098985432743D+03 -.133353802156940D+03 -.282102742242515D+02 0.340855701117392D+03
0.159032297295D-03 0.000000000000D+00 0.000000000000D+00 0.311595306871D-05 0.567789645582D-10  6 21 1 25 2 1 -2 2 0.31105943D-01 0.55657768D+00 0.26843130D+06 0.26843130D+06 0.26843130D+06 0.10881426D+01  1  2  1  5  5  1       -1 0.450464456213D-03 0.100000000000D+01
  </mgrwgt>
  </event>
  <event>
  5     66 -.18829897E-05 0.16116659E+03 0.75467711E-02 0.93343447E-01
       -1 -1    0    0    0  501 0.00000000E+00 0.00000000E+00 0.28188816E+04 0.28188816E+04 0.32000000E+00 0.0000E+00 0.9000E+01
        1 -1    0    0  502    0 0.00000000E+00 0.00000000E+00 -.52658794E+03 0.52658804E+03 0.32000000E+00 0.0000E+00 0.9000E+01
       25  1    1    2    0    0 -.32010282E+03 0.40903178E+03 0.13682593E+03 0.55146999E+03 0.12500000E+03 0.0000E+00 0.9000E+01
        2  1    1    2  502    0 0.15552327E+03 -.35934534E+03 -.19488014E+03 0.43737276E+03 0.32000000E+00 0.0000E+00 0.9000E+01
       -2  1    1    2    0  501 0.16457955E+03 -.49686436E+02 0.23503478E+04 0.23566269E+04 0.32000000E+00 0.0000E+00 0.9000E+01
#aMCatNLO 1  0  0  1  5 0.37176458D+02 0.00000000D+00  -5  6  0 0.00000000D+00 0.00000000D+00 0.00000000D+00 0.00000000D+00 0.00000000D+00
  <mgrwgt>
 -.1257086599D-02   11    4    0
 0.121835513326228D+04 0.000000000000000D+00 0.000000000000000D+00 0.121835513326228D+04
 0.121835513326228D+04 0.000000000000000D+00 0.000000000000000D+00 -.121835513326228D+04
 0.628426113773200D+03 -.320117634401159D+03 0.409066564291146D+03 -.330883101104499D+03
 0.783850665560355D+03 0.155543917828174D+03 -.359381890698751D+03 -.679023278072162D+03
 0.102443348719101D+04 0.164573716572985D+03 -.496846735923958D+02 0.100990637917666D+04
 0.000000000000000D+00 0.000000000000000D+00 0.000000000000000D+00 0.000000000000000D+00
 0.174842516031581D+04 0.000000000000000D+00 0.000000000000000D+00 0.174842516031581D+04
 0.121914894074152D+04 0.000000000000000D+00 0.000000000000000D+00 -.121914894074152D+04
 0.633258686401919D+03 -.329739838372417D+03 0.408875991343446D+03 -.330883101104499D+03
 0.781677821204142D+03 0.143604458447850D+03 -.359618358141641D+03 -.679023278072162D+03
 0.102205733974087D+04 0.148966211307554D+03 -.499937886655702D+02 0.100990637917666D+04
 0.530580253710408D+03 0.371691686170131D+02 0.736155463764382D+00 0.529276219574292D+03
 0.121835513326228D+04 0.000000000000000D+00 0.000000000000000D+00 0.121835513326228D+04
 0.121835513326228D+04 0.000000000000000D+00 0.000000000000000D+00 -.121835513326228D+04
 0.628426113773200D+03 -.320117634401159D+03 0.409066564291146D+03 -.330883101104499D+03
 0.783850665560355D+03 0.155543917828174D+03 -.359381890698751D+03 -.679023278072162D+03
 0.000000000000000D+00 0.000000000000000D+00 0.000000000000000D+00 0.000000000000000D+00
 0.102443348719101D+04 0.164573716572985D+03 -.496846735923958D+02 0.100990637917666D+04
 0.174842516031581D+04 0.000000000000000D+00 0.000000000000000D+00 0.174842516031581D+04
 0.121914894074152D+04 0.000000000000000D+00 0.000000000000000D+00 -.121914894074152D+04
 0.633258686401919D+03 -.329739838372417D+03 0.408875991343446D+03 -.330883101104499D+03
 0.781677821204142D+03 0.143604458447850D+03 -.359618358141641D+03 -.679023278072162D+03
 0.530580253710408D+03 0.371691686170131D+02 0.736155463764382D+00 0.529276219574292D+03
 0.102205733974087D+04 0.148966211307554D+03 -.499937886655702D+02 0.100990637917666D+04
0.166116266302D-02 0.000000000000D+00 0.000000000000D+00 0.184593398194D-04 0.000000000000D+00  6 -1 1 25 2 -2 21 0 0.43367410D+00 0.81013538D-01 0.30127490D+06 0.30127490D+06 0.30127490D+06 0.10844156D+01  1  2  2  1  6  1       -1 0.102838818375D-04 0.100000000000D+01
0.245969277797D-03 0.000000000000D+00 -.637930202015D-05 0.184593398194D-04 0.000000000000D+00  6 -1 1 25 2 -2 21 2 0.43367410D+00 0.81013538D-01 0.30127490D+06 0.30127490D+06 0.30127490D+06 0.10844156D+01  1  2  3  1  6  1       -1 0.179067728385D-05 0.100000000000D+01
-.112578420675D-02 0.000000000000D+00 0.000000000000D+00 0.184593398194D-04 0.000000000000D+00  6 -1 1 25 2 -2 21 2 0.43367410D+00 0.81013538D-01 0.30127490D+06 0.30127490D+06 0.30127490D+06 0.10844156D+01  1  2 15  1  6  1       -1 -.819580487288D-05 0.100000000000D+01
0.267124501014D-07 0.000000000000D+00 0.000000000000D+00 0.184593398194D-04 0.000000000000D+00  6 -1 1 25 2 -2 21 2 0.62244684D+00 0.81013538D-01 0.31442742D+06 0.31442742D+06 0.31442742D+06 0.10830459D+01  1  2 12  1  6  1       -1 0.941235900391D-11 0.100000000000D+01
0.224752146208D+00 0.000000000000D+00 0.000000000000D+00 0.184593398194D-04 0.000000000000D+00  6 -1 1 25 2 -2 21 2 0.64906077D+00 0.81013538D-01 0.31442742D+06 0.31442742D+06 0.31442742D+06 0.10830459D+01  1  2 12  1  6  1       -1 0.810934997821D-04 0.100000000000D+01
-.415212559533D+00 0.000000000000D+00 0.000000000000D+00 0.184593398194D-04 0.000000000000D+00  6 -1 1 25 2 -2 21 2 0.43367410D+00 0.81013538D-01 0.30127490D+06 0.30127490D+06 0.30127490D+06 0.10844156D+01  1  2  4  1  6  1       -1 -.302278278402D-02 0.100000000000D+01
-.262437060231D+00 0.000000000000D+00 -.925590020489D-03 0.184593398194D-04 0.000000000000D+00  6 -1 1 25 2 -2 21 2 0.62241572D+00 0.81013538D-01 0.30127490D+06 0.30127490D+06 0.30127490D+06 0.10844156D+01  1  2  5  1  6  1       -1 -.928532814230D-04 0.100000000000D+01
0.246558987343D+00 0.000000000000D+00 0.868293543724D-03 0.184593398194D-04 0.000000000000D+00  6 -1 1 25 2 -2 21 2 0.43367410D+00 0.81013538D-01 0.30127490D+06 0.30127490D+06 0.30127490D+06 0.10844156D+01  1  2  6  1  6  1       -1 0.179497041955D-02 0.100000000000D+01
0.118088850265D-08 0.000000000000D+00 0.000000000000D+00 0.184593398194D-04 0.000000000000D+00  6 21 1 25 2 1 -2 2 0.62244684D+00 0.81013538D-01 0.31442742D+06 0.31442742D+06 0.31442742D+06 0.10830459D+01  3  4 12  5  5  1       -1 0.474909389577D-11 0.100000000000D+01
0.107616014880D-01 0.000000000000D+00 0.000000000000D+00 0.184593398194D-04 0.000000000000D+00  6 21 1 25 2 1 -2 2 0.64906077D+00 0.81013538D-01 0.31442742D+06 0.31442742D+06 0.31442742D+06 0.10830459D+01  3  4 12  5  5  1       -1 0.255775451692D-04 0.100000000000D+01
-.115730956251D-01 0.000000000000D+00 -.409138520650D-04 0.184593398194D-04 0.000000000000D+00  6 21 1 25 2 1 -2 2 0.62241572D+00 0.81013538D-01 0.30127490D+06 0.30127490D+06 0.30127490D+06 0.10844156D+01  3  4  5  5  5  1       -1 -.469707665038D-04 0.100000000000D+01
  </mgrwgt>
  </event>
  <event>
  5     66 0.18829897E-05 0.94071705E+02 0.75467711E-02 0.92437149E-01
       -1 -1    0    0    0  501 0.00000000E+00 0.00000000E+00 0.11669004E+04 0.11669005E+04 0.32000000E+00 0.0000E+00 0.9000E+01
        1 -1    0    0  502    0 0.00000000E+00 0.00000000E+00 -.46530526E+04 0.46530526E+04 0.32000000E+00 0.0000E+00 0.9000E+01
       25  1    1    2    0    0 0.12854515E+03 0.53177467E+03 -.37981458E+03 0.67763727E+03 0.12500000E+03 0.0000E+00 0.9000E+01
        2  1    1    2  502    0 -.38702707E+02 -.50387930E+03 -.41066306E+04 0.41376088E+04 0.32000000E+00 0.0000E+00 0.9000E+01
       -2  1    1    2    0  501 -.89842440E+02 -.27895368E+02 0.10002930E+04 0.10047069E+04 0.32000000E+00 0.0000E+00 0.9000E+01
#aMCatNLO 1  0  0  2  1 0.35423225D+02 0.00000000D+00  -5  6  0 0.00000000D+00 0.00000000D+00 0.00000000D+00 0.00000000D+00 0.00000000D+00
  <mgrwgt>
 0.7258688975D-02    9    2    0
 0.233016076345725D+04 0.000000000000000D+00 0.000000000000000D+00 0.233016076345725D+04
 0.233016076345725D+04 0.000000000000000D+00 0.000000000000000D+00 -.233016076345725D+04
 0.562163777428158D+03 0.128546349019693D+03 0.531803418048833D+03 0.326201373016897D+02
 0.209521725743618D+04 -.387055834060458D+02 -.503908570083025D+03 -.203335028626857D+04
 0.200294049205016D+04 -.898407656136473D+02 -.278948479658083D+02 0.200073014896688D+04
 0.000000000000000D+00 0.000000000000000D+00 0.000000000000000D+00 -.000000000000000D+00
 0.234108397667061D+04 0.000000000000000D+00 0.000000000000000D+00 0.234108397667061D+04
 0.235912491444109D+04 0.000000000000000D+00 0.000000000000000D+00 -.235912491444109D+04
 0.558574656887277D+03 0.125615371810178D+03 0.528712920519396D+03 0.326201373016897D+02
 0.209825938393167D+04 -.496724460460268D+02 -.515472311276406D+03 -.203335028626857D+04
 0.200362211057887D+04 -.100318806981057D+03 -.389431634744334D+02 0.200073014896688D+04
 0.397527397138780D+02 0.243758812169058D+02 0.257025542314433D+02 -.180409377704804D+02
0.194709830659D+01 0.000000000000D+00 0.000000000000D+00 0.184554671643D-02 0.000000000000D+00  6 -1 1 25 2 -2 21 0 0.17952315D+00 0.71585425D+00 0.33679519D+06 0.33679519D+06 0.33679519D+06 0.10808540D+01  1  2  2  2  6  2        1 0.939919539080D-03 0.100000000000D+01
0.669967785545D+00 0.000000000000D+00 -.747737018006D-02 0.184554671643D-02 0.000000000000D+00  6 -1 1 25 2 -2 21 2 0.17952315D+00 0.71585425D+00 0.33679519D+06 0.33679519D+06 0.33679519D+06 0.10808540D+01  1  2  3  2  6  2        1 0.377825089676D-03 0.100000000000D+01
-.136772852272D+01 0.000000000000D+00 0.000000000000D+00 0.184554671643D-02 0.000000000000D+00  6 -1 1 25 2 -2 21 2 0.17952315D+00 0.71585425D+00 0.33679519D+06 0.33679519D+06 0.33679519D+06 0.10808540D+01  1  2 15  2  6  2        1 -.771323879895D-03 0.100000000000D+01
0.421315922763D-10 0.000000000000D+00 0.000000000000D+00 0.184554671643D-02 0.000000000000D+00  6 -1 1 25 2 -2 21 2 0.17952315D+00 0.72641580D+00 0.37119596D+06 0.37119596D+06 0.37119596D+06 0.10777752D+01  1  2 12  2  6  2        1 0.192436037013D-13 0.100000000000D+01
-.185974662102D-01 0.000000000000D+00 0.000000000000D+00 0.184554671643D-02 0.000000000000D+00  6 -1 1 25 2 -2 21 2 0.17952315D+00 0.71585425D+00 0.33679519D+06 0.33679519D+06 0.33679519D+06 0.10808540D+01  1  2  4  2  6  2        1 -.104879510481D-04 0.100000000000D+01
-.753763228984D+02 0.000000000000D+00 -.107256997676D+02 0.184554671643D-02 0.000000000000D+00  6 -1 1 25 2 -2 21 2 0.17952315D+00 0.72524623D+00 0.33679519D+06 0.33679519D+06 0.33679519D+06 0.10808540D+01  1  2  5  2  6  2        1 -.359037156796D-01 0.100000000000D+01
0.755931779165D+02 0.000000000000D+00 0.110010123083D+02 0.184554671643D-02 0.000000000000D+00  6 -1 1 25 2 -2 21 2 0.17952315D+00 0.71585425D+00 0.33679519D+06 0.33679519D+06 0.33679519D+06 0.10808540D+01  1  2  6  2  6  2        1 0.426304067770D-01 0.100000000000D+01
0.285558195665D-11 0.000000000000D+00 0.000000000000D+00 0.184554671643D-02 0.000000000000D+00  6 -1 21 25 2 -2 -1 2 0.17952315D+00 0.72641580D+00 0.37119596D+06 0.37119596D+06 0.37119596D+06 0.10777752D+01  1  2 12  6  6  2        1 0.593683076632D-16 0.100000000000D+01
-.179997358788D+00 0.000000000000D+00 -.257084495162D-01 0.184554671643D-02 0.000000000000D+00  6 -1 21 25 2 -2 -1 2 0.17952315D+00 0.72524623D+00 0.33679519D+06 0.33679519D+06 0.33679519D+06 0.10808540D+01  1  2  5  6  6  2        1 -.393492039019D-05 0.100000000000D+01
  </mgrwgt>
  </event>
  <event>
  5     66 0.18829897E-05 0.49765303E+02 0.75467711E-02 0.94566424E-01
       -1 -1    0    0    0  501 0.00000000E+00 0.00000000E+00 0.24393989E+03 0.24394010E+03 0.32000000E+00 0.0000E+00 0.9000E+01
        1 -1    0    0  502    0 -.00000000E+00 -.00000000E+00 -.16105196E+04 0.16105196E+04 0.32000000E+00 0.0000E+00 0.9000E+01
       25  1    1    2    0    0 0.83599591E+02 0.48831138E+03 -.10274677E+04 0.11474981E+04 0.12500000E+03 0.0000E+00 0.9000E+01
        2  1    1    2  502    0 -.68122143E+01 -.49300181E+02 -.24687389E+03 0.25184069E+03 0.32000000E+00 0.0000E+00 0.9000E+01
       -2  1    1    2    0  501 -.76787377E+02 -.43901120E+03 -.92238109E+02 0.45512098E+03 0.32000000E+00 0.0000E+00 0.9000E+01
#aMCatNLO 1  0  0  5  1 0.17029808D+02 0.00000000D+00  -5  6  0 0.00000000D+00 0.00000000D+00 0.00000000D+00 0.00000000D+00 0.00000000D+00
  <mgrwgt>
 0.8953122865D-03    8    2    0
 0.626793585028875D+03 0.000000000000000D+00 0.000000000000000D+00 0.626793585028875D+03
 0.626793585028875D+03 -.000000000000000D+00 -.000000000000000D+00 -.626793585028875D+03
 0.577447825084192D+03 0.835997724124879D+02 0.488311847590081D+03 -.269042019488045D+03
 0.103415872133223D+03 -.681174236786889D+01 -.492969119201227D+02 -.906546041308907D+02
 0.572723472840334D+03 -.767880300446190D+02 -.439014935669958D+03 0.359696623618936D+03
 0.000000000000000D+00 0.000000000000000D+00 -.000000000000000D+00 0.000000000000000D+00
 0.626793585028875D+03 0.000000000000000D+00 0.000000000000000D+00 0.626793585028875D+03
 0.626793585028875D+03 -.000000000000000D+00 -.000000000000000D+00 -.626793585028875D+03
 0.576570890082832D+03 0.834773211476487D+02 0.487611765375121D+03 -.268468423492746D+03
 0.103387140568361D+03 -.683368593788646D+01 -.494223683874138D+02 -.905518143075174D+02
 0.486709248012658D+03 -.690453039589749D+02 -.361941049526582D+03 0.317989488458119D+03
 0.869198913938981D+02 -.759833125078731D+01 -.762483474611251D+02 0.410307493421445D+02
0.690695896610D-05 0.000000000000D+00 0.000000000000D+00 0.936993917554D-06 0.000000000000D+00  6 -1 1 25 2 -2 21 0 0.37529233D-01 0.24777226D+00 0.25320409D+06 0.25320409D+06 0.25320409D+06 0.10900433D+01  1  2  2  4  6  5       -2 0.316750814111D-04 0.100000000000D+01
0.128781889389D-05 0.000000000000D+00 -.265245410739D-07 0.936993917554D-06 0.000000000000D+00  6 -1 1 25 2 -2 21 2 0.37529233D-01 0.24777226D+00 0.25320409D+06 0.25320409D+06 0.25320409D+06 0.10900433D+01  1  2  3  4  6  5       -2 0.701735000987D-05 0.100000000000D+01
-.464135993547D-05 0.000000000000D+00 0.000000000000D+00 0.936993917554D-06 0.000000000000D+00  6 -1 1 25 2 -2 21 2 0.37529233D-01 0.24777226D+00 0.25320409D+06 0.25320409D+06 0.25320409D+06 0.10900433D+01  1  2 15  4  6  5       -2 -.252908598743D-04 0.100000000000D+01
0.816853498018D-07 0.000000000000D+00 0.000000000000D+00 0.936993917554D-06 0.000000000000D+00  6 -1 1 25 2 -2 21 2 0.37529233D-01 0.24777226D+00 0.25262688D+06 0.25262688D+06 0.25262688D+06 0.10901178D+01  1  2 12  4  6  5       -2 0.445211181586D-06 0.100000000000D+01
0.377233147938D-03 0.000000000000D+00 0.000000000000D+00 0.936993917554D-06 0.000000000000D+00  6 -1 1 25 2 -2 21 2 0.37529233D-01 0.24777226D+00 0.25262688D+06 0.25262688D+06 0.25262688D+06 0.10901178D+01  1  2 12  4  6  5       -2 0.205604084373D-02 0.100000000000D+01
-.278127870488D-03 0.000000000000D+00 0.000000000000D+00 0.936993917554D-06 0.000000000000D+00  6 -1 1 25 2 -2 21 2 0.37529233D-01 0.24777226D+00 0.25320409D+06 0.25320409D+06 0.25320409D+06 0.10900433D+01  1  2  4  4  6  5       -2 -.151552413462D-02 0.100000000000D+01
-.383567761543D-03 0.000000000000D+00 0.000000000000D+00 0.936993917554D-06 0.000000000000D+00  6 -1 1 25 2 -2 21 2 0.37529233D-01 0.24777226D+00 0.25320409D+06 0.25320409D+06 0.25320409D+06 0.10900433D+01  1  2  5  4  6  5       -2 -.209006813614D-02 0.100000000000D+01
0.446138432672D-03 0.000000000000D+00 -.000000000000D+00 0.936993917554D-06 0.000000000000D+00  6 -1 1 25 2 -2 21 2 0.37529233D-01 0.24777226D+00 0.25320409D+06 0.25320409D+06 0.25320409D+06 0.10900433D+01  1  2  6  4  6  5       -2 0.243101693085D-02 0.100000000000D+01
  </mgrwgt>
  </event>
  <event>
  5     66 -.18829897E-05 0.20073629E+02 0.75467711E-02 0.94602584E-01
       -1 -1    0    0    0  501 0.00000000E+00 0.00000000E+00 0.11123482E+04 0.11123483E+04 0.32000000E+00 0.0000E+00 0.9000E+01
        1 -1    0    0  502    0 -.00000000E+00 -.00000000E+00 -.25502675E+04 0.25502675E+04 0.32000000E+00 0.0000E+00 0.9000E+01
       25  1    1    2    0    0 0.41548609E+03 0.24700764E+03 0.27922735E+03 0.57204404E+03 0.12500000E+03 0.0000E+00 0.9000E+01
        2  1    1    2  502    0 -.40423938E+03 -.26363774E+03 -.23794826E+04 0.24279316E+04 0.32000000E+00 0.0000E+00 0.9000E+01
       -2  1    1    2    0  501 -.11246709E+02 0.16630098E+02 0.66233594E+03 0.66264021E+03 0.32000000E+00 0.0000E+00 0.9000E+01
#aMCatNLO 1  0  0  5  1 0.17029808D+02 0.00000000D+00  -5  6  0 0.00000000D+00 0.00000000D+00 0.00000000D+00 0.00000000D+00 0.00000000D+00
  <mgrwgt>
 -.1191121491D-02    1    2    0
 0.168427601728533D+04 0.000000000000000D+00 0.000000000000000D+00 0.168427601728533D+04
 0.168427601728533D+04 -.000000000000000D+00 -.000000000000000D+00 -.168427601728533D+04
 0.741288626501453D+03 0.415521325763944D+03 0.247033267384597D+03 0.547905484934286D+03
 0.162417042236454D+04 -.404275985145106D+03 -.263661342372271D+03 -.155079759648292D+04
 0.100309298570467D+04 -.112453406188370D+02 0.166280749876727D+02 0.100289211154864D+04
 0.000000000000000D+00 -.000000000000000D+00 0.000000000000000D+00 0.000000000000000D+00
 0.168427601728533D+04 0.000000000000000D+00 0.000000000000000D+00 0.168427601728533D+04
 0.168427601728533D+04 -.000000000000000D+00 -.000000000000000D+00 -.168427601728533D+04
 0.742190211419197D+03 0.415507641122697D+03 0.247053502364447D+03 0.549125920954915D+03
 0.162162124955145D+04 -.404305926586437D+03 -.263617069055120D+03 -.154812733185184D+04
 0.270511372154529D+03 0.435269470612289D+02 0.809754895883693D+01 0.266863704998102D+03
 0.734229201445486D+03 -.547286615974886D+02 0.846601773183525D+01 0.732137705898821D+03
-.253978682016D-01 0.000000000000D+00 0.000000000000D+00 0.276391933231D-02 0.000000000000D+00  6 -1 1 25 2 -2 21 2 0.17113050D+00 0.39234885D+00 0.25101959D+06 0.25101959D+06 0.25101959D+06 0.10903262D+01  1  2 14  4  6  5       -2 -.119112149054D-02 0.100000000000D+01
  </mgrwgt>
  </event>
  <event>
  5     66 0.18829897E-05 0.29186837E+02 0.75467711E-02 0.90461995E-01
       -1 -1    0    0    0  501 0.00000000E+00 0.00000000E+00 0.12693580E+03 0.12693620E+03 0.32000000E+00 0.0000E+00 0.9000E+01
        1 -1    0    0  502    0 0.00000000E+00 0.00000000E+00 -.43951863E+04 0.43951863E+04 0.32000000E+00 0.0000E+00 0.9000E+01
       25  1    1    2    0    0 -.45607106E+03 -.29216272E+02 -.16903012E+04 0.17554480E+04 0.12500000E+03 0.0000E+00 0.9000E+01
        2  1    1    2  502    0 0.13013059E+01 0.29154991E+02 -.21237009E+04 0.21239015E+04 0.32000000E+00 0.0000E+00 0.9000E+01
       -2  1    1    2    0  501 0.45476976E+03 0.61281098E-01 -.45424833E+03 0.64277304E+03 0.32000000E+00 0.0000E+00 0.9000E+01
#aMCatNLO 1  0  0  2  4 0.52585958D+03 0.00000000D+00  -5  6  0 0.00000000D+00 0.00000000D+00 0.00000000D+00 0.00000000D+00 0.00000000D+00
  <mgrwgt>
 0.7156626644D-02    4    2    0
 0.746932005682549D+03 0.000000000000000D+00 0.000000000000000D+00 0.746932005682549D+03
 0.746932005682549D+03 0.000000000000000D+00 0.000000000000000D+00 -.746932005682549D+03
 0.484441805052717D+03 -.456059567719259D+03 -.292190728560885D+02 -.101068189633967D+03
 0.361553838371069D+03 0.130175399722248D+01 0.291577933679990D+02 -.360373842784535D+03
 0.647868367941312D+03 0.454757813722036D+03 0.612794880895242D-01 0.461442032418502D+03
 0.000000000000000D+00 -.000000000000000D+00 -.000000000000000D+00 0.000000000000000D+00
 0.109886234721366D+04 0.000000000000000D+00 0.000000000000000D+00 0.109886234721366D+04
 0.880307230151442D+03 0.000000000000000D+00 0.000000000000000D+00 -.880307230151442D+03
 0.487453324416129D+03 -.450861554999530D+03 0.921673627259371D+02 -.101068189633967D+03
 0.380447005949186D+03 0.527021696187810D+01 0.121831205303002D+03 -.360373842784535D+03
 0.673396492049371D+03 0.461824369917370D+03 0.165082820342713D+03 0.461442032418502D+03
 0.437872754950417D+03 -.162330318797180D+02 -.379081388371652D+03 0.218555117062218D+03
0.954152608614D-01 0.000000000000D+00 0.000000000000D+00 0.407846711434D-04 0.000000000000D+00  6 -1 1 25 2 -2 21 0 0.19528616D-01 0.67618253D+00 0.22930993D+06 0.22930993D+06 0.22930993D+06 0.10932928D+01  1  2  2  2  6  2        1 0.890284971460D-02 0.100000000000D+01
0.471374493428D-01 0.000000000000D+00 -.366419725123D-03 0.407846711434D-04 0.000000000000D+00  6 -1 1 25 2 -2 21 2 0.19528616D-01 0.67618253D+00 0.22930993D+06 0.22930993D+06 0.22930993D+06 0.10932928D+01  1  2  3  2  6  2        1 0.525714845273D-02 0.100000000000D+01
-.602967452876D-01 0.000000000000D+00 0.000000000000D+00 0.407846711434D-04 0.000000000000D+00  6 -1 1 25 2 -2 21 2 0.19528616D-01 0.67618253D+00 0.22930993D+06 0.22930993D+06 0.22930993D+06 0.10932928D+01  1  2 15  2  6  2        1 -.672477924904D-02 0.100000000000D+01
-.249795670269D-02 0.000000000000D+00 0.000000000000D+00 0.407846711434D-04 0.000000000000D+00  6 -1 1 25 2 -2 21 2 0.19528616D-01 0.67618253D+00 0.22930993D+06 0.22930993D+06 0.22930993D+06 0.10932928D+01  1  2  4  2  6  2        1 -.278592274245D-03 0.100000000000D+01
  </mgrwgt>
  </event>
  <event>
  5     66 0.18829897E-05 0.99157859E+02 0.75467711E-02 0.90386088E-01
       -1 -1    0    0    0  501 0.00000000E+00 0.00000000E+00 0.88706909E+03 0.88706915E+03 0.32000000E+00 0.0000E+00 0.9000E+01
        1 -1    0    0  502    0 -.00000000E+00 -.00000000E+00 -.16290839E+04 0.16290839E+04 0.32000000E+00 0.0000E+00 0.9000E+01
       25  1    1    2    0    0 0.71003290E+03 -.69601642E+02 0.15042150E+03 0.73975857E+03 0.12500000E+03 0.0000E+00 0.9000E+01
        2  1    1    2  502    0 -.76840084E+02 -.62652845E+02 -.10942914E+04 0.10987736E+04 0.32000000E+00 0.0000E+00 0.9000E+01
       -2  1    1    2    0  501 -.63319282E+03 0.13225449E+03 0.20185512E+03 0.67762083E+03 0.32000000E+00 0.0000E+00 0.9000E+01
#aMCatNLO 1  0  0  4  2 0.17490486D+02 0.00000000D+00  -5  6  0 0.00000000D+00 0.00000000D+00 0.00000000D+00 0.00000000D+00 0.00000000D+00
  <mgrwgt>
 0.2986796790D-03    8    2    0
 0.120212730353638D+04 0.000000000000000D+00 0.000000000000000D+00 0.120212730353638D+04
 0.120212730353638D+04 -.000000000000000D+00 -.000000000000000D+00 -.120212730353638D+04
 0.820617708130497D+03 0.709958283446765D+03 -.695764628071946D+02 0.385884405600836D+03
 0.812284083573334D+03 -.768502882772130D+02 -.626603074175257D+02 -.806209123920476D+03
 0.771352815368921D+03 -.633107995169553D+03 0.132236770224720D+03 0.420324718319640D+03
 0.000000000000000D+00 0.000000000000000D+00 -.000000000000000D+00 0.000000000000000D+00
 0.120212730353638D+04 0.000000000000000D+00 0.000000000000000D+00 0.120212730353638D+04
 0.120212730353638D+04 -.000000000000000D+00 -.000000000000000D+00 -.120212730353638D+04
 0.820353788186817D+03 0.709912199100641D+03 -.696140379335868D+02 0.385400951066724D+03
 0.685080229718148D+03 -.752801615256082D+02 -.388319685015818D+02 -.679823430497685D+03
 0.771134787420914D+03 -.633151313735865D+03 0.132201450192189D+03 0.419870278600818D+03
 0.127685801746872D+03 -.148072383916805D+01 -.237554437570202D+02 -.125447799169857D+03
0.176325052203D-04 0.000000000000D+00 0.000000000000D+00 0.435814489369D-05 0.000000000000D+00  6 -1 1 25 2 -2 21 0 0.13647217D+00 0.25062829D+00 0.54034028D+06 0.54034028D+06 0.54034028D+06 0.10661370D+01  1  2  2  3  6  4        2 0.527731204031D-05 0.100000000000D+01
0.538895627641D-05 0.000000000000D+00 -.677134627911D-07 0.435814489369D-05 0.000000000000D+00  6 -1 1 25 2 -2 21 2 0.13647217D+00 0.25062829D+00 0.54034028D+06 0.54034028D+06 0.54034028D+06 0.10661370D+01  1  2  3  3  6  4        2 0.183328260963D-05 0.100000000000D+01
-.123579102347D-04 0.000000000000D+00 0.000000000000D+00 0.435814489369D-05 0.000000000000D+00  6 -1 1 25 2 -2 21 2 0.13647217D+00 0.25062829D+00 0.54034028D+06 0.54034028D+06 0.54034028D+06 0.10661370D+01  1  2 15  3  6  4        2 -.420406861044D-05 0.100000000000D+01
0.147763122307D-08 0.000000000000D+00 0.000000000000D+00 0.435814489369D-05 0.000000000000D+00  6 -1 1 25 2 -2 21 2 0.13647217D+00 0.25062829D+00 0.54722981D+06 0.54722981D+06 0.54722981D+06 0.10657509D+01  1  2 12  3  6  4        2 0.501831682827D-09 0.100000000000D+01
0.119359122078D-02 0.000000000000D+00 0.000000000000D+00 0.435814489369D-05 0.000000000000D+00  6 -1 1 25 2 -2 21 2 0.13647217D+00 0.25062829D+00 0.54722981D+06 0.54722981D+06 0.54722981D+06 0.10657509D+01  1  2 12  3  6  4        2 0.405366292738D-03 0.100000000000D+01
-.677984279561D-03 0.000000000000D+00 0.000000000000D+00 0.435814489369D-05 0.000000000000D+00  6 -1 1 25 2 -2 21 2 0.13647217D+00 0.25062829D+00 0.54034028D+06 0.54034028D+06 0.54034028D+06 0.10661370D+01  1  2  4  3  6  4        2 -.230645179803D-03 0.100000000000D+01
-.210091863078D-02 0.000000000000D+00 0.000000000000D+00 0.435814489369D-05 0.000000000000D+00  6 -1 1 25 2 -2 21 2 0.13647217D+00 0.25062829D+00 0.54034028D+06 0.54034028D+06 0.54034028D+06 0.10661370D+01  1  2  5  3  6  4        2 -.714716800898D-03 0.100000000000D+01
0.245675108284D-02 0.000000000000D+00 -.000000000000D+00 0.435814489369D-05 0.000000000000D+00  6 -1 1 25 2 -2 21 2 0.13647217D+00 0.25062829D+00 0.54034028D+06 0.54034028D+06 0.54034028D+06 0.10661370D+01  1  2  6  3  6  4        2 0.835768339051D-03 0.100000000000D+01
  </mgrwgt>
  </event>
  <event>
  5     66 0.18829897E-05 0.12992929E+02 0.75467711E-02 0.87605153E-01
       -1 -1    0    0    0  501 0.00000000E+00 0.00000000E+00 0.20528211E+03 0.20528236E+03 0.32000000E+00 0.0000E+00 0.9000E+01
        1 -1    0    0  502    0 0.00000000E+00 0.00000000E+00 -.34034852E+04 0.34034852E+04 0.32000000E+00 0.0000E+00 0.9000E+01
       25  1    1    2    0    0 0.40189743E+01 -.70961149E+03 -.15098810E+04 0.16730004E+04 0.12500000E+03 0.0000E+00 0.9000E+01
        2  1    1    2  502    0 0.13818549E+01 0.12918007E+02 -.83074479E+03 0.83084644E+03 0.32000000E+00 0.0000E+00 0.9000E+01
       -2  1    1    2    0  501 -.54008291E+01 0.69669348E+03 -.85757722E+03 0.11049207E+04 0.32000000E+00 0.0000E+00 0.9000E+01
#aMCatNLO 1  0  0  1  5 0.14240401D+02 0.00000000D+00  -5  6  0 0.00000000D+00 0.00000000D+00 0.00000000D+00 0.00000000D+00 0.00000000D+00
  <mgrwgt>
 0.1458538929D-02    4    2    0
 0.835867878401989D+03 0.000000000000000D+00 0.000000000000000D+00 0.835867878401989D+03
 0.835867878401989D+03 0.000000000000000D+00 0.000000000000000D+00 -.835867878401989D+03
 0.722927272061089D+03 0.401879014628970D+01 -.709601607282645D+03 -.587217928654647D+02
 0.204267399515385D+03 0.138195294972190D+01 0.129192262087561D+02 -.203853757152007D+03
 0.744541085227505D+03 -.540074309601161D+01 0.696682381073889D+03 0.262575550017472D+03
 0.000000000000000D+00 -.000000000000000D+00 -.000000000000000D+00 -.000000000000000D+00
 0.102878107250139D+04 0.000000000000000D+00 0.000000000000000D+00 0.102878107250139D+04
 0.112542804408124D+04 0.000000000000000D+00 0.000000000000000D+00 -.112542804408124D+04
 0.571468997602450D+03 0.378157538763853D+02 -.553239130053339D+03 -.587217928654647D+02
 0.213847235906639D+03 0.122990155985918D+02 0.634272828932904D+02 -.203853757152007D+03
 0.938280761848880D+03 0.385380956219313D+02 0.899966490362042D+03 0.262575550017472D+03
 0.430612121224662D+03 -.886528650969083D+02 -.410154643201993D+03 -.966469715798596D+02
0.387423249944D-02 0.000000000000D+00 0.000000000000D+00 0.425876254647D-05 0.000000000000D+00  6 -1 1 25 2 -2 21 0 0.31581884D-01 0.52361312D+00 0.51139279D+06 0.51139279D+06 0.51139279D+06 0.10678196D+01  1  2  2  1  6  1       -1 0.122857162163D-02 0.100000000000D+01
0.298294405054D-02 0.000000000000D+00 -.148780729067D-04 0.425876254647D-05 0.000000000000D+00  6 -1 1 25 2 -2 21 2 0.31581884D-01 0.52361312D+00 0.51139279D+06 0.51139279D+06 0.51139279D+06 0.10678196D+01  1  2  3  1  6  1       -1 0.107858816645D-02 0.100000000000D+01
-.231490700218D-02 0.000000000000D+00 0.000000000000D+00 0.425876254647D-05 0.000000000000D+00  6 -1 1 25 2 -2 21 2 0.31581884D-01 0.52361312D+00 0.51139279D+06 0.51139279D+06 0.51139279D+06 0.10678196D+01  1  2 15  1  6  1       -1 -.837035913742D-03 0.100000000000D+01
-.320393324585D-04 0.000000000000D+00 0.000000000000D+00 0.425876254647D-05 0.000000000000D+00  6 -1 1 25 2 -2 21 2 0.31581884D-01 0.52361312D+00 0.51139279D+06 0.51139279D+06 0.51139279D+06 0.10678196D+01  1  2  4  1  6  1       -1 -.115849456997D-04 0.100000000000D+01
  </mgrwgt>
  </event>
  <event>
  6     66 -.18829897E-05 0.69653902E+02 0.75467711E-02 0.93909809E-01
       -1 -1    0    0    0  501 0.00000000E+00 0.00000000E+00 0.22410152E+03 0.22410174E+03 0.32000000E+00 0.0000E+00 0.9000E+01
        1 -1    0    0  502    0 -.00000000E+00 -.00000000E+00 -.26927489E+04 0.26927489E+04 0.32000000E+00 0.0000E+00 0.9000E+01
       25  1    1    2    0    0 -.59784115E+02 0.51164709E+03 -.11554432E+04 0.12712320E+04 0.12500000E+03 0.0000E+00 0.9000E+01
        2  1    1    2  502    0 0.67035946E+01 -.46157640E+03 -.14324931E+04 0.15050363E+04 0.32000000E+00 0.0000E+00 0.9000E+01
       -2  1    1    2    0  503 0.10948021E+02 -.61182309E+01 0.29901897E+02 0.32427114E+02 0.32000000E+00 0.0000E+00 0.9000E+01
       21  1    1    2  503  501 0.42132500E+02 -.43952465E+02 0.89386971E+02 0.10815526E+03 0.75000000E+00 0.0000E+00 0.9000E+01
#aMCatNLO 2  0  0  5  1 0.60935685D+01 0.00000000D+00  -5  6  0 0.00000000D+00 0.00000000D+00 0.00000000D+00 0.00000000D+00 0.00000000D+00
  <mgrwgt>
 -.1159898149D-02    3    2    0
 0.776820105261882D+03 0.000000000000000D+00 0.000000000000000D+00 0.776820105261882D+03
 0.776820105261882D+03 -.000000000000000D+00 -.000000000000000D+00 -.776820105261882D+03
 0.550931647521146D+03 -.597810195186118D+02 0.511953931782356D+03 -.149097557586525D+03
 0.549725621057949D+03 0.673135841224006D+01 -.461912346057294D+03 -.297976394738443D+03
 0.452982941944669D+03 0.530496611063716D+02 -.500415857250619D+02 0.447073952324968D+03
 0.000000000000000D+00 0.000000000000000D+00 -.000000000000000D+00 0.000000000000000D+00
 0.776820105261882D+03 0.000000000000000D+00 0.000000000000000D+00 0.776820105261882D+03
 0.776820105261882D+03 -.000000000000000D+00 -.000000000000000D+00 -.776820105261882D+03
 0.550901240920934D+03 -.597717073376446D+02 0.511945147630065D+03 -.149019079544197D+03
 0.549690658845633D+03 0.674065016915177D+01 -.461921110943635D+03 -.297898088819048D+03
 0.109144675617661D+03 0.110515785701946D+02 -.625219935044567D+01 0.108403564655751D+03
 0.343903635139536D+03 0.419794785982982D+02 -.437718373359839D+02 0.338513603707494D+03
-.179041157194D-07 0.000000000000D+00 0.000000000000D+00 0.596937968338D-05 0.000000000000D+00  6 -1 1 25 2 -2 21 2 0.34477175D-01 0.41426908D+00 0.28391844D+06 0.28391844D+06 0.28391844D+06 0.10863266D+01  1  2 13  4  6  5       -2 -.206720345356D-07 0.100000000000D+01
-.538619995964D-02 0.000000000000D+00 0.000000000000D+00 0.596937968338D-05 0.000000000000D+00  6 -1 1 25 2 -2 21 2 0.34477175D-01 0.41426908D+00 0.28391844D+06 0.28391844D+06 0.28391844D+06 0.10863266D+01  1  2 13  4  6  5       -2 -.621888918316D-02 0.100000000000D+01
0.438162633954D-02 0.000000000000D+00 0.000000000000D+00 0.596937968338D-05 0.103988474367D-06  6 -1 1 25 2 -2 21 2 0.34477175D-01 0.41426908D+00 0.28391844D+06 0.28391844D+06 0.28391844D+06 0.10863266D+01  1  2  1  4  6  5       -2 0.505901170618D-02 0.100000000000D+01
  </mgrwgt>
  </event>
  <event>
  5     66 -.18829897E-05 0.22696021E+03 0.75467711E-02 0.93541004E-01
       -1 -1    0    0    0  501 0.00000000E+00 0.00000000E+00 0.14648418E+04 0.14648418E+04 0.32000000E+00 0.0000E+00 0.9000E+01
        1 -1    0    0  502    0 0.00000000E+00 0.00000000E+00 -.14767243E+04 0.14767243E+04 0.32000000E+00 0.0000E+00 0.9000E+01
       25  1    1    2    0    0 -.32497617E+03 0.40521686E+03 -.17472701E+03 0.56210741E+03 0.12500000E+03 0.0000E+00 0.9000E+01
        2  1    1    2  502    0 0.10715173E+03 -.28883014E+03 -.10744577E+04 0.11177494E+04 0.32000000E+00 0.0000E+00 0.9000E+01
       -2  1    1    2    0  501 0.21782444E+03 -.11638672E+03 0.12373023E+04 0.12617093E+04 0.32000000E+00 0.0000E+00 0.9000E+01
#aMCatNLO 1  0  0  1  5 0.22245461D+02 0.00000000D+00  -5  6  0 0.00000000D+00 0.00000000D+00 0.00000000D+00 0.00000000D+00 0.00000000D+00
  <mgrwgt>
 -.1567731667D-01   11    4    0
 0.147077106540494D+04 0.000000000000000D+00 0.000000000000000D+00 0.147077106540494D+04
 0.147077106540494D+04 0.000000000000000D+00 0.000000000000000D+00 -.147077106540494D+04
 0.561407927780038D+03 -.324981619133696D+03 0.405238515777418D+03 -.172402302565925D+03
 0.111344866992263D+04 0.107162703132070D+03 -.288854746433622D+03 -.106997524787851D+04
 0.126668553310721D+04 0.217818916001626D+03 -.116383769343796D+03 0.124237755044443D+04
 0.000000000000000D+00 0.000000000000000D+00 -.000000000000000D+00 0.000000000000000D+00
 0.197434954897352D+04 0.000000000000000D+00 0.000000000000000D+00 0.197434954897352D+04
 0.147105881525054D+04 0.000000000000000D+00 0.000000000000000D+00 -.147105881525054D+04
 0.564323929149843D+03 -.329187553636744D+03 0.405893455985362D+03 -.172402302565925D+03
 0.111234362940091D+04 0.988467470980347D+02 -.287559801405296D+03 -.106997524787851D+04
 0.126495868689262D+04 0.208360242776035D+03 -.114910882544262D+03 0.124237755044443D+04
 0.503782118780679D+03 0.219805637626737D+02 -.342277203580283D+01 0.503290733722981D+03
 0.147077106540494D+04 0.000000000000000D+00 0.000000000000000D+00 0.147077106540494D+04
 0.147077106540494D+04 0.000000000000000D+00 0.000000000000000D+00 -.147077106540494D+04
 0.561407927780038D+03 -.324981619133696D+03 0.405238515777418D+03 -.172402302565925D+03
 0.111344866992263D+04 0.107162703132070D+03 -.288854746433622D+03 -.106997524787851D+04
 0.000000000000000D+00 0.000000000000000D+00 -.000000000000000D+00 0.000000000000000D+00
 0.126668553310721D+04 0.217818916001626D+03 -.116383769343796D+03 0.124237755044443D+04
 0.197434954897352D+04 0.000000000000000D+00 0.000000000000000D+00 0.197434954897352D+04
 0.147105881525054D+04 0.000000000000000D+00 0.000000000000000D+00 -.147105881525054D+04
 0.564323929149843D+03 -.329187553636744D+03 0.405893455985362D+03 -.172402302565925D+03
 0.111234362940091D+04 0.988467470980347D+02 -.287559801405296D+03 -.106997524787851D+04
 0.503782118780679D+03 0.219805637626737D+02 -.342277203580283D+01 0.503290733722981D+03
 0.126495868689262D+04 0.208360242776035D+03 -.114910882544262D+03 0.124237755044443D+04
0.406496263336D-03 0.000000000000D+00 0.000000000000D+00 0.542654398783D-04 0.000000000000D+00  6 -1 1 25 2 -2 21 0 0.22536028D+00 0.22718835D+00 0.29666299D+06 0.29666299D+06 0.29666299D+06 0.10849115D+01  1  2  2  1  6  1       -1 0.301661224980D-04 0.100000000000D+01
0.485394353412D-04 0.000000000000D+00 -.156105268413D-05 0.542654398783D-04 0.000000000000D+00  6 -1 1 25 2 -2 21 2 0.22536028D+00 0.22718835D+00 0.29666299D+06 0.29666299D+06 0.29666299D+06 0.10849115D+01  1  2  3  1  6  1       -1 0.423980852250D-05 0.100000000000D+01
-.261504841557D-03 0.000000000000D+00 0.000000000000D+00 0.542654398783D-04 0.000000000000D+00  6 -1 1 25 2 -2 21 2 0.22536028D+00 0.22718835D+00 0.29666299D+06 0.29666299D+06 0.29666299D+06 0.10849115D+01  1  2 15  1  6  1       -1 -.228418490680D-04 0.100000000000D+01
0.347957271226D-08 0.000000000000D+00 0.000000000000D+00 0.542654398783D-04 0.000000000000D+00  6 -1 1 25 2 -2 21 2 0.30253819D+00 0.22718835D+00 0.30338657D+06 0.30338657D+06 0.30338657D+06 0.10841914D+01  1  2 12  1  6  1       -1 0.670767121096D-10 0.100000000000D+01
0.263399742784D+00 0.000000000000D+00 0.000000000000D+00 0.542654398783D-04 0.000000000000D+00  6 -1 1 25 2 -2 21 2 0.30554035D+00 0.22718835D+00 0.30338657D+06 0.30338657D+06 0.30338657D+06 0.10841914D+01  1  2 12  1  6  1       -1 0.476985596813D-02 0.100000000000D+01
-.435746859867D+00 0.000000000000D+00 0.000000000000D+00 0.542654398783D-04 0.000000000000D+00  6 -1 1 25 2 -2 21 2 0.22536028D+00 0.22718835D+00 0.29666299D+06 0.29666299D+06 0.29666299D+06 0.10849115D+01  1  2  4  1  6  1       -1 -.380614903558D-01 0.100000000000D+01
-.275372491933D+00 0.000000000000D+00 -.360564372810D-03 0.542654398783D-04 0.000000000000D+00  6 -1 1 25 2 -2 21 2 0.30253921D+00 0.22718835D+00 0.29666299D+06 0.29666299D+06 0.29666299D+06 0.10849115D+01  1  2  5  1  6  1       -1 -.532863063229D-02 0.100000000000D+01
0.263963176655D+00 0.000000000000D+00 0.345473206766D-03 0.542654398783D-04 0.000000000000D+00  6 -1 1 25 2 -2 21 2 0.22536028D+00 0.22718835D+00 0.29666299D+06 0.29666299D+06 0.29666299D+06 0.10849115D+01  1  2  6  1  6  1       -1 0.230565790092D-01 0.100000000000D+01
0.132718636108D-09 0.000000000000D+00 0.000000000000D+00 0.542654398783D-04 0.000000000000D+00  6 21 1 25 2 1 -2 2 0.30253819D+00 0.22718835D+00 0.30338657D+06 0.30338657D+06 0.30338657D+06 0.10841914D+01  3  4 12  5  5  1       -1 0.232980438170D-10 0.100000000000D+01
0.102889650864D-01 0.000000000000D+00 0.000000000000D+00 0.542654398783D-04 0.000000000000D+00  6 21 1 25 2 1 -2 2 0.30554035D+00 0.22718835D+00 0.30338657D+06 0.30338657D+06 0.30338657D+06 0.10841914D+01  3  4 12  5  5  1       -1 0.172545619800D-02 0.100000000000D+01
-.104955506974D-01 0.000000000000D+00 -.137528407595D-04 0.542654398783D-04 0.000000000000D+00  6 21 1 25 2 1 -2 2 0.30253921D+00 0.22718835D+00 0.29666299D+06 0.29666299D+06 0.29666299D+06 0.10849115D+01  3  4  5  5  5  1       -1 -.185065102994D-02 0.100000000000D+01
  </mgrwgt>
  </event>
  <event>
  5     66 0.18829897E-05 0.55087130E+02 0.75467711E-02 0.95212881E-01
       -1 -1    0    0    0  501 0.00000000E+00 0.00000000E+00 0.45602658E+03 0.45602670E+03 0.32000000E+00 0.0000E+00 0.9000E+01
        1 -1    0    0  502    0 0.00000000E+00 0.00000000E+00 -.12780569E+04 0.12780569E+04 0.32000000E+00 0.0000E+00 0.9000E+01
       25  1    1    2    0    0 -.21944033E+03 -.41173524E+03 -.18151602E+03 0.51599712E+03 0.12500000E+03 0.0000E+00 0.9000E+01
        2  1    1    2  502    0 0.19039779E+03 0.36490465E+03 -.88044952E+03 0.97190442E+03 0.32000000E+00 0.0000E+00 0.9000E+01
       -2  1    1    2    0  501 0.29042534E+02 0.46830584E+02 0.23993527E+03 0.24618206E+03 0.32000000E+00 0.0000E+00 0.9000E+01
#aMCatNLO 1  0  0  1  5 0.22245461D+02 0.00000000D+00  -5  6  0 0.00000000D+00 0.00000000D+00 0.00000000D+00 0.00000000D+00 0.00000000D+00
  <mgrwgt>
 0.5938166811D-02    3    2    0
 0.763431749518527D+03 0.000000000000000D+00 0.000000000000000D+00 0.763431749518527D+03
 0.763431749518527D+03 0.000000000000000D+00 0.000000000000000D+00 -.763431749518527D+03
 0.488385112554795D+03 -.219470936605630D+03 -.411795807461128D+03 0.717756163891658D+02
 0.629842919727453D+03 0.190437875021785D+03 0.364980497340534D+03 -.476680979113963D+03
 0.408635466754806D+03 0.290330615838449D+02 0.468153101205949D+02 0.404905362724797D+03
 0.000000000000000D+00 -.000000000000000D+00 -.000000000000000D+00 -.000000000000000D+00
 0.102706926760267D+04 0.000000000000000D+00 0.000000000000000D+00 0.102706926760267D+04
 0.161834484845344D+04 0.000000000000000D+00 0.000000000000000D+00 -.161834484845344D+04
 0.318332958480272D+03 -.111483400788640D+03 -.261018360839534D+03 0.717756163891658D+02
 0.898006903855327D+03 0.394956335027816D+03 0.650539112539884D+03 -.476680979113963D+03
 0.480922037626930D+03 0.148109510116159D+03 0.213075635690922D+03 0.404905362724797D+03
 0.948152216093574D+03 -.431582444355335D+03 -.602596387391272D+03 -.591275580850773D+03
0.388462211758D-02 0.000000000000D+00 0.000000000000D+00 0.308365773663D-04 0.000000000000D+00  6 -1 1 25 2 -2 21 0 0.70157948D-01 0.19662414D+00 0.22555160D+06 0.22555160D+06 0.22555160D+06 0.10938374D+01  1  2  2  1  6  1       -1 0.955905557639D-02 0.100000000000D+01
0.120488928827D-02 0.000000000000D+00 -.149179717760D-04 0.308365773663D-04 0.000000000000D+00  6 -1 1 25 2 -2 21 2 0.70157948D-01 0.19662414D+00 0.22555160D+06 0.22555160D+06 0.22555160D+06 0.10938374D+01  1  2  3  1  6  1       -1 0.354747155861D-02 0.100000000000D+01
-.243471453558D-02 0.000000000000D+00 0.000000000000D+00 0.308365773663D-04 0.000000000000D+00  6 -1 1 25 2 -2 21 2 0.70157948D-01 0.19662414D+00 0.22555160D+06 0.22555160D+06 0.22555160D+06 0.10938374D+01  1  2 15  1  6  1       -1 -.716836032353D-02 0.100000000000D+01
  </mgrwgt>
  </event>
  <event>
  5     66 0.18829897E-05 0.24001698E+03 0.75467711E-02 0.94234513E-01
       -1 -1    0    0    0  501 0.00000000E+00 0.00000000E+00 0.53360061E+03 0.53360070E+03 0.32000000E+00 0.0000E+00 0.9000E+01
        1 -1    0    0  502    0 -.00000000E+00 -.00000000E+00 -.17004416E+04 0.17004417E+04 0.32000000E+00 0.0000E+00 0.9000E+01
       25  1    1    2    0    0 0.84200314E+02 -.45041971E+03 0.14907285E+03 0.49781052E+03 0.12500000E+03 0.0000E+00 0.9000E+01
        2  1    1    2  502    0 0.10499139E+03 0.30253845E+03 -.14335163E+04 0.14688505E+04 0.32000000E+00 0.0000E+00 0.9000E+01
       -2  1    1    2    0  501 -.18919170E+03 0.14788126E+03 0.11760241E+03 0.26738136E+03 0.32000000E+00 0.0000E+00 0.9000E+01
#aMCatNLO 1  0  0  5  4 0.16146433D+03 0.00000000D+00  -5  6  0 0.00000000D+00 0.00000000D+00 0.00000000D+00 0.00000000D+00 0.00000000D+00
  <mgrwgt>
 0.1169578719D-03    5    2    0
 0.952552797781281D+03 0.000000000000000D+00 0.000000000000000D+00 0.952552797781281D+03
 0.952552797781281D+03 -.000000000000000D+00 -.000000000000000D+00 -.952552797781281D+03
 0.675181067335704D+03 0.841004915422667D+02 -.450404118848275D+03 0.479903855720537D+03
 0.844529119033101D+03 0.105002247302317D+03 0.302592399926703D+03 -.781435730218990D+03
 0.385395409193757D+03 -.189102738844583D+03 0.147811718921572D+03 0.301531874498453D+03
 0.000000000000000D+00 0.000000000000000D+00 0.000000000000000D+00 0.000000000000000D+00
 0.952552797781281D+03 0.000000000000000D+00 0.000000000000000D+00 0.952552797781281D+03
 0.952552797781281D+03 -.000000000000000D+00 -.000000000000000D+00 -.952552797781281D+03
 0.693114407108488D+03 0.529429621456680D+02 -.426049907980681D+03 0.529585781540863D+03
 0.797307901844521D+03 0.676158887285603D+02 0.331815360729756D+03 -.721821687343170D+03
 0.238784384134306D+03 -.226953215278301D+03 0.367025033303148D+02 0.645224490431740D+02
 0.175898902475247D+03 0.106394364404073D+03 0.575320439206099D+02 0.127713456759133D+03
0.832805038584D-03 0.000000000000D+00 0.000000000000D+00 0.114648159179D-05 0.000000000000D+00  6 -1 1 25 2 -2 21 0 0.82092411D-01 0.26160642D+00 0.26793225D+06 0.26793225D+06 0.26793225D+06 0.10882030D+01  1  2  2  4  6  5       -2 0.767874036179D-03 0.100000000000D+01
0.353604574446D-04 0.000000000000D+00 -.319819063076D-05 0.114648159179D-05 0.000000000000D+00  6 -1 1 25 2 -2 21 2 0.82092411D-01 0.26160642D+00 0.26793225D+06 0.26793225D+06 0.26793225D+06 0.10882030D+01  1  2  3  4  6  5       -2 0.386086277856D-04 0.100000000000D+01
-.571699222333D-03 0.000000000000D+00 0.000000000000D+00 0.114648159179D-05 0.000000000000D+00  6 -1 1 25 2 -2 21 2 0.82092411D-01 0.26160642D+00 0.26793225D+06 0.26793225D+06 0.26793225D+06 0.10882030D+01  1  2 15  4  6  5       -2 -.624214845494D-03 0.100000000000D+01
0.315195741675D-08 0.000000000000D+00 0.000000000000D+00 0.114648159179D-05 0.000000000000D+00  6 -1 1 25 2 -2 21 2 0.82092411D-01 0.26160642D+00 0.32298953D+06 0.32298953D+06 0.32298953D+06 0.10821873D+01  1  2 12  4  6  5       -2 0.336297281632D-08 0.100000000000D+01
-.598184560254D-04 0.000000000000D+00 0.000000000000D+00 0.114648159179D-05 0.000000000000D+00  6 -1 1 25 2 -2 21 2 0.82092411D-01 0.26160642D+00 0.26793225D+06 0.26793225D+06 0.26793225D+06 0.10882030D+01  1  2  4  4  6  5       -2 -.653133095637D-04 0.100000000000D+01
  </mgrwgt>
  </event>
  <event>
  5     66 -.18829897E-05 0.17717494E+03 0.75467711E-02 0.92183739E-01
       -1 -1    0    0    0  501 0.00000000E+00 0.00000000E+00 0.18884651E+04 0.18884651E+04 0.32000000E+00 0.0000E+00 0.9000E+01
        1 -1    0    0  502    0 0.00000000E+00 0.00000000E+00 -.44834366E+03 0.44834377E+03 0.32000000E+00 0.0000E+00 0.9000E+01
       25  1    1    2    0    0 0.41293400E+03 0.19097856E+03 0.19832488E+03 0.51180568E+03 0.12500000E+03 0.0000E+00 0.9000E+01
        2  1    1    2  502    0 -.56320528E+03 -.97071964E+02 0.89187694E+00 0.57151032E+03 0.32000000E+00 0.0000E+00 0.9000E+01
       -2  1    1    2    0  501 0.15027128E+03 -.93906592E+02 0.12409047E+04 0.12534929E+04 0.32000000E+00 0.0000E+00 0.9000E+01
#aMCatNLO 1  0  0  2  4 0.24700423D+02 0.00000000D+00  -5  6  0 0.00000000D+00 0.00000000D+00 0.00000000D+00 0.00000000D+00 0.00000000D+00
  <mgrwgt>
 -.2219497521D-02   11    2    0
 0.920152987748967D+03 0.000000000000000D+00 0.000000000000000D+00 0.920152987748967D+03
 0.920152987748967D+03 0.000000000000000D+00 0.000000000000000D+00 -.920152987748967D+03
 0.494760787782171D+03 0.413021524519916D+03 0.190992098502929D+03 -.148655560674757D+03
 0.725019515569397D+03 -.563271399431393D+03 -.970988818103319D+02 -.446038603363281D+03
 0.620525672146365D+03 0.150249874911477D+03 -.938932166925976D+02 0.594694164038038D+03
 0.000000000000000D+00 -.000000000000000D+00 -.000000000000000D+00 -.000000000000000D+00
 0.921260839172357D+03 0.000000000000000D+00 0.000000000000000D+00 0.921260839172357D+03
 0.106904725527153D+04 0.000000000000000D+00 0.000000000000000D+00 -.106904725527153D+04
 0.500892880851350D+03 0.419293018543060D+03 0.193296577747997D+03 -.148655560674757D+03
 0.717539052049499D+03 -.554184909098591D+03 -.937600237479352D+02 -.446038603363281D+03
 0.622039798568907D+03 0.158076634525241D+03 -.910172504524182D+02 0.594694164038038D+03
 0.149836362974136D+03 -.231847439697104D+02 -.851930354764339D+01 -.147786416099177D+03
0.247836135489D-03 0.000000000000D+00 0.000000000000D+00 0.766739993646D-06 0.000000000000D+00  6 -1 1 25 2 -2 21 0 0.29053310D+00 0.68975958D-01 0.37249928D+06 0.37249928D+06 0.37249928D+06 0.10776648D+01  1  2  2  2  6  2        1 0.379065870071D-04 0.100000000000D+01
0.278694708275D-04 0.000000000000D+00 -.951756017030D-06 0.766739993646D-06 0.000000000000D+00  6 -1 1 25 2 -2 21 2 0.29053310D+00 0.68975958D-01 0.37249928D+06 0.37249928D+06 0.37249928D+06 0.10776648D+01  1  2  3  2  6  2        1 0.495046694414D-05 0.100000000000D+01
-.152310555955D-03 0.000000000000D+00 0.000000000000D+00 0.766739993646D-06 0.000000000000D+00  6 -1 1 25 2 -2 21 2 0.29053310D+00 0.68975958D-01 0.37249928D+06 0.37249928D+06 0.37249928D+06 0.10776648D+01  1  2 15  2  6  2        1 -.270549942324D-04 0.100000000000D+01
0.182918823588D-06 0.000000000000D+00 0.000000000000D+00 0.766739993646D-06 0.000000000000D+00  6 -1 1 25 2 -2 21 2 0.29053310D+00 0.80174673D-01 0.38905991D+06 0.38905991D+06 0.38905991D+06 0.10762969D+01  1  2 12  2  6  2        1 0.261689426171D-07 0.100000000000D+01
0.258817661174D-01 0.000000000000D+00 0.000000000000D+00 0.766739993646D-06 0.000000000000D+00  6 -1 1 25 2 -2 21 2 0.29053310D+00 0.80423414D-01 0.38905991D+06 0.38905991D+06 0.38905991D+06 0.10762969D+01  1  2 12  2  6  2        1 0.368649546224D-02 0.100000000000D+01
-.382258221945D-01 0.000000000000D+00 0.000000000000D+00 0.766739993646D-06 0.000000000000D+00  6 -1 1 25 2 -2 21 2 0.29053310D+00 0.68975958D-01 0.37249928D+06 0.37249928D+06 0.37249928D+06 0.10776648D+01  1  2  4  2  6  2        1 -.679007040922D-02 0.100000000000D+01
-.273835300173D-01 0.000000000000D+00 -.419236880792D-03 0.766739993646D-06 0.000000000000D+00  6 -1 1 25 2 -2 21 2 0.29053310D+00 0.80179696D-01 0.37249928D+06 0.37249928D+06 0.37249928D+06 0.10776648D+01  1  2  5  2  6  2        1 -.394101424034D-02 0.100000000000D+01
0.271433022149D-01 0.000000000000D+00 0.414532609178D-03 0.766739993646D-06 0.000000000000D+00  6 -1 1 25 2 -2 21 2 0.29053310D+00 0.68975958D-01 0.37249928D+06 0.37249928D+06 0.37249928D+06 0.10776648D+01  1  2  6  2  6  2        1 0.482147727889D-02 0.100000000000D+01
0.418267447711D-08 0.000000000000D+00 0.000000000000D+00 0.766739993646D-06 0.000000000000D+00  6 -1 21 25 2 -2 -1 2 0.29053310D+00 0.80174673D-01 0.38905991D+06 0.38905991D+06 0.38905991D+06 0.10762969D+01  1  2 12  6  6  2        1 0.165195673696D-08 0.100000000000D+01
0.601641165065D-03 0.000000000000D+00 0.000000000000D+00 0.766739993646D-06 0.000000000000D+00  6 -1 21 25 2 -2 -1 2 0.29053310D+00 0.80423414D-01 0.38905991D+06 0.38905991D+06 0.38905991D+06 0.10762969D+01  1  2 12  6  6  2        1 0.235832142796D-03 0.100000000000D+01
-.623443035892D-03 0.000000000000D+00 -.958962077614D-05 0.766739993646D-06 0.000000000000D+00  6 -1 21 25 2 -2 -1 2 0.29053310D+00 0.80179696D-01 0.37249928D+06 0.37249928D+06 0.37249928D+06 0.10776648D+01  1  2  5  6  6  2        1 -.248047635679D-03 0.100000000000D+01
  </mgrwgt>
  </event>
  <event>
  5     66 0.18829897E-05 0.23031533E+03 0.75467711E-02 0.92294211E-01
       -1 -1    0    0    0  501 0.00000000E+00 0.00000000E+00 0.77677516E+03 0.77677522E+03 0.32000000E+00 0.0000E+00 0.9000E+01
        1 -1    0    0  502    0 0.00000000E+00 0.00000000E+00 -.27997382E+04 0.27997383E+04 0.32000000E+00 0.0000E+00 0.9000E+01
       25  1    1    2    0    0 -.60343153E+03 -.66409345E+02 -.96551510E+03 0.11473379E+04 0.12500000E+03 0.0000E+00 0.9000E+01
        2  1    1    2  502    0 0.21911105E+03 0.70899912E+02 -.16809919E+04 0.16966939E+04 0.32000000E+00 0.0000E+00 0.9000E+01
       -2  1    1    2    0  501 0.38432048E+03 -.44905672E+01 0.62354387E+03 0.73248171E+03 0.32000000E+00 0.0000E+00 0.9000E+01
#aMCatNLO 1  0  0  1  5 0.18630081D+00 0.00000000D+00  -5  6  0 0.00000000D+00 0.00000000D+00 0.00000000D+00 0.00000000D+00 0.00000000D+00
  <mgrwgt>
 0.5354392658D-03    9    4    0
 0.147470921414757D+04 0.000000000000000D+00 0.000000000000000D+00 0.147470921414757D+04
 0.147470921414757D+04 0.000000000000000D+00 0.000000000000000D+00 -.147470921414757D+04
 0.729026218938753D+03 -.603443396170591D+03 -.664144300288971D+02 -.383796064339090D+03
 0.904514980067534D+03 0.219129280879390D+03 0.709049228650341D+02 -.874701205750488D+03
 0.131587722928885D+04 0.384314115291201D+03 -.449049283613696D+01 0.125849727008958D+04
 0.000000000000000D+00 -.000000000000000D+00 -.000000000000000D+00 0.000000000000000D+00
 0.154747028654377D+04 0.000000000000000D+00 0.000000000000000D+00 0.154747028654377D+04
 0.147470933634281D+04 0.000000000000000D+00 0.000000000000000D+00 -.147470933634281D+04
 0.728987923633589D+03 -.603397941714151D+03 -.664070608938786D+02 -.383796064339090D+03
 0.904529361582029D+03 0.219185678910674D+03 0.709140661865005D+02 -.874701205750488D+03
 0.131590114896338D+04 0.384396162544491D+03 -.447719122976576D+01 0.125849727008958D+04
 0.727611887075767D+02 -.183899741014141D+00 -.298140628561325D-01 0.727609502009595D+02
 0.147470921414757D+04 0.000000000000000D+00 0.000000000000000D+00 0.147470921414757D+04
 0.147470921414757D+04 0.000000000000000D+00 0.000000000000000D+00 -.147470921414757D+04
 0.729026218938753D+03 -.603443396170591D+03 -.664144300288971D+02 -.383796064339090D+03
 0.904514980067534D+03 0.219129280879390D+03 0.709049228650341D+02 -.874701205750488D+03
 0.000000000000000D+00 -.000000000000000D+00 -.000000000000000D+00 0.000000000000000D+00
 0.131587722928885D+04 0.384314115291201D+03 -.449049283613696D+01 0.125849727008958D+04
 0.154747028654377D+04 0.000000000000000D+00 0.000000000000000D+00 0.154747028654377D+04
 0.147470933634281D+04 0.000000000000000D+00 0.000000000000000D+00 -.147470933634281D+04
 0.728987923633589D+03 -.603397941714151D+03 -.664070608938786D+02 -.383796064339090D+03
 0.904529361582029D+03 0.219185678910674D+03 0.709140661865005D+02 -.874701205750488D+03
 0.727611887075767D+02 -.183899741014141D+00 -.298140628561325D-01 0.727609502009595D+02
 0.131590114896338D+04 0.384396162544491D+03 -.447719122976576D+01 0.125849727008958D+04
0.335446447172D-05 0.000000000000D+00 0.000000000000D+00 0.181911274044D-04 0.000000000000D+00  6 -1 1 25 2 -2 21 0 0.11950388D+00 0.43072897D+00 0.38098403D+06 0.38098403D+06 0.38098403D+06 0.10769559D+01  1  2  2  1  6  1       -1 0.230217670906D-06 0.100000000000D+01
0.356223147477D-06 0.000000000000D+00 -.128820268222D-07 0.181911274044D-04 0.000000000000D+00  6 -1 1 25 2 -2 21 2 0.11950388D+00 0.43072897D+00 0.38098403D+06 0.38098403D+06 0.38098403D+06 0.10769559D+01  1  2  3  1  6  1       -1 0.283552452257D-07 0.100000000000D+01
-.222266126560D-05 0.000000000000D+00 0.000000000000D+00 0.181911274044D-04 0.000000000000D+00  6 -1 1 25 2 -2 21 2 0.11950388D+00 0.43072897D+00 0.38098403D+06 0.38098403D+06 0.38098403D+06 0.10769559D+01  1  2 15  1  6  1       -1 -.176923104762D-06 0.100000000000D+01
-.502397230883D+01 0.000000000000D+00 0.000000000000D+00 0.181911274044D-04 0.000000000000D+00  6 -1 1 25 2 -2 21 2 0.11950388D+00 0.43072897D+00 0.38098403D+06 0.38098403D+06 0.38098403D+06 0.10769559D+01  1  2  4  1  6  1       -1 -.399906541259D+00 0.100000000000D+01
-.511730227219D+01 0.000000000000D+00 -.176016000886D-04 0.181911274044D-04 0.000000000000D+00  6 -1 1 25 2 -2 21 2 0.12540011D+00 0.43072897D+00 0.38098403D+06 0.38098403D+06 0.38098403D+06 0.10769559D+01  1  2  5  1  6  1       -1 -.361031610492D+00 0.100000000000D+01
0.511137419029D+01 0.000000000000D+00 0.175812067283D-04 0.181911274044D-04 0.000000000000D+00  6 -1 1 25 2 -2 21 2 0.11950388D+00 0.43072897D+00 0.38098403D+06 0.38098403D+06 0.38098403D+06 0.10769559D+01  1  2  6  1  6  1       -1 0.406863702239D+00 0.100000000000D+01
0.502692025585D+01 0.000000000000D+00 0.000000000000D+00 0.181911274044D-04 0.318847186899D-02  6 -1 1 25 2 -2 21 2 0.12540011D+00 0.43072900D+00 0.38115664D+06 0.38115664D+06 0.38115664D+06 0.10769416D+01  1  2 11  1  6  1       -1 0.354629852828D+00 0.100000000000D+01
-.430482815677D-01 0.000000000000D+00 -.148069988813D-06 0.181911274044D-04 0.000000000000D+00  6 21 1 25 2 1 -2 2 0.12540011D+00 0.43072897D+00 0.38098403D+06 0.38098403D+06 0.38098403D+06 0.10769559D+01  3  4  5  5  5  1       -1 -.195559750162D-01 0.100000000000D+01
0.430077591753D-01 0.000000000000D+00 0.000000000000D+00 0.181911274044D-04 0.272789128192D-04  6 21 1 25 2 1 -2 2 0.12540011D+00 0.43072900D+00 0.38115664D+06 0.38115664D+06 0.38115664D+06 0.10769416D+01  3  4 11  5  5  1       -1 0.195359293165D-01 0.100000000000D+01
  </mgrwgt>
  </event>
  <event>
  5     66 0.18829897E-05 0.13040028E+03 0.75467711E-02 0.89948047E-01
       -1 -1    0    0    0  501 0.00000000E+00 0.00000000E+00 0.98189886E+03 0.98189891E+03 0.32000000E+00 0.0000E+00 0.9000E+01
        1 -1    0    0  502    0 0.00000000E+00 0.00000000E+00 -.18251672E+04 0.18251673E+04 0.32000000E+00 0.0000E+00 0.9000E+01
       25  1    1    2    0    0 -.63337342E+02 -.53492089E+03 -.11897104E+04 0.13119404E+04 0.12500000E+03 0.0000E+00 0.9000E+01
        2  1    1    2  502    0 0.11264243E+03 0.65706219E+02 -.50507588E+03 0.52163912E+03 0.32000000E+00 0.0000E+00 0.9000E+01
       -2  1    1    2    0  501 -.49305087E+02 0.46921467E+03 0.85151787E+03 0.97348661E+03 0.32000000E+00 0.0000E+00 0.9000E+01
#aMCatNLO 1  0  0  2  1 0.35418518D+03 0.00000000D+00  -5  6  0 0.00000000D+00 0.00000000D+00 0.00000000D+00 0.00000000D+00 0.00000000D+00
  <mgrwgt>
 0.9286906975D-03    7    2    0
 0.133870449964145D+04 0.000000000000000D+00 0.000000000000000D+00 0.133870449964145D+04
 0.133870449964145D+04 0.000000000000000D+00 0.000000000000000D+00 -.133870449964145D+04
 0.100078100740402D+04 -.633334126274841D+02 -.534917995760466D+03 -.834139821275291D+03
 0.387804395017771D+03 0.112638621918554D+03 0.657021568519656D+02 -.365223241637753D+03
 0.128882359686111D+04 -.493052092910695D+02 0.469215838908500D+03 0.119936306291304D+04
 0.000000000000000D+00 0.000000000000000D+00 0.000000000000000D+00 -.000000000000000D+00
 0.141540065564781D+04 0.000000000000000D+00 0.000000000000000D+00 0.141540065564781D+04
 0.183260783526766D+04 0.000000000000000D+00 0.000000000000000D+00 -.183260783526766D+04
 0.102040596661558D+04 -.196356181731304D+03 -.539683560212278D+03 -.834139821275291D+03
 0.375980717944735D+03 0.623707288277480D+02 0.639013006076178D+02 -.365223241637753D+03
 0.130434767694821D+04 -.219972657694707D+03 0.463101647100035D+03 0.119936306291304D+04
 0.547274129406950D+03 0.353958110598263D+03 0.126806125046252D+02 -.417207179619851D+03
0.267402370653D-02 0.000000000000D+00 0.000000000000D+00 0.622269995590D-05 0.000000000000D+00  6 -1 1 25 2 -2 21 0 0.15106137D+00 0.28079496D+00 0.33360287D+06 0.33360287D+06 0.33360287D+06 0.10811570D+01  1  2  2  2  6  2        1 0.463289385972D-03 0.100000000000D+01
0.176422994378D-03 0.000000000000D+00 -.102689551197D-04 0.622269995590D-05 0.000000000000D+00  6 -1 1 25 2 -2 21 2 0.15106137D+00 0.28079496D+00 0.33360287D+06 0.33360287D+06 0.33360287D+06 0.10811570D+01  1  2  3  2  6  2        1 0.357289107215D-04 0.100000000000D+01
-.191826980597D-02 0.000000000000D+00 0.000000000000D+00 0.622269995590D-05 0.000000000000D+00  6 -1 1 25 2 -2 21 2 0.15106137D+00 0.28079496D+00 0.33360287D+06 0.33360287D+06 0.33360287D+06 0.10811570D+01  1  2 15  2  6  2        1 -.388485020779D-03 0.100000000000D+01
-.111332679440D-03 0.000000000000D+00 0.000000000000D+00 0.622269995590D-05 0.000000000000D+00  6 -1 1 25 2 -2 21 2 0.15106137D+00 0.28079496D+00 0.33360287D+06 0.33360287D+06 0.33360287D+06 0.10811570D+01  1  2  4  2  6  2        1 -.225469212679D-04 0.100000000000D+01
-.566862920481D-02 0.000000000000D+00 -.180687028522D-02 0.622269995590D-05 0.000000000000D+00  6 -1 1 25 2 -2 21 2 0.15106137D+00 0.39107204D+00 0.33360287D+06 0.33360287D+06 0.33360287D+06 0.10811570D+01  1  2  5  2  6  2        1 -.376042759303D-03 0.100000000000D+01
0.602819115273D-02 0.000000000000D+00 0.171206870242D-02 0.622269995590D-05 0.000000000000D+00  6 -1 1 25 2 -2 21 2 0.15106137D+00 0.28079496D+00 0.33360287D+06 0.33360287D+06 0.33360287D+06 0.10811570D+01  1  2  6  2  6  2        1 0.122081990654D-02 0.100000000000D+01
-.188243060756D-03 0.000000000000D+00 -.750203198358D-04 0.622269995590D-05 0.000000000000D+00  6 -1 21 25 2 -2 -1 2 0.15106137D+00 0.39107204D+00 0.33360287D+06 0.33360287D+06 0.33360287D+06 0.10811570D+01  1  2  5  6  6  2        1 -.407280435617D-05 0.100000000000D+01
  </mgrwgt>
  </event>
  <event>
  5     66 0.18829897E-05 0.17589256E+03 0.75467711E-02 0.91195721E-01
       -1 -1    0    0    0  501 0.00000000E+00 0.00000000E+00 0.93326453E+03 0.93326458E+03 0.32000000E+00 0.0000E+00 0.9000E+01
        1 -1    0    0  502    0 0.00000000E+00 0.00000000E+00 -.28883682E+04 0.28883683E+04 0.32000000E+00 0.0000E+00 0.9000E+01
       25  1    1    2    0    0 -.23885691E+03 -.45783405E+03 -.38618382E+03 0.65683147E+03 0.12500000E+03 0.0000E+00 0.9000E+01
        2  1    1    2  502    0 0.10830697E+03 0.13857456E+03 -.23261110E+04 0.23327507E+04 0.32000000E+00 0.0000E+00 0.9000E+01
       -2  1    1    2    0  501 0.13054994E+03 0.31925949E+03 0.75719109E+03 0.83205070E+03 0.32000000E+00 0.0000E+00 0.9000E+01
#aMCatNLO 1  0  0  2  1 0.55332118D+02 0.00000000D+00  -5  6  0 0.00000000D+00 0.00000000D+00 0.00000000D+00 0.00000000D+00 0.00000000D+00
  <mgrwgt>
 0.1573496871D-01    7    2    0
 0.164183183141454D+04 0.000000000000000D+00 0.000000000000000D+00 0.164183183141454D+04
 0.164183183141454D+04 0.000000000000000D+00 0.000000000000000D+00 -.164183183141454D+04
 0.534505120013849D+03 -.238862307807886D+03 -.457837830945430D+03 -.583098772498619D+02
 0.132998980595146D+04 0.108315350916587D+03 0.138585634219955D+03 -.131830750990748D+04
 0.141916873686378D+04 0.130546956891298D+03 0.319252196725475D+03 0.137661738715734D+04
 0.000000000000000D+00 -.000000000000000D+00 -.000000000000000D+00 -.000000000000000D+00
 0.170409703085730D+04 0.000000000000000D+00 0.000000000000000D+00 0.170409703085730D+04
 0.179360616341581D+04 0.000000000000000D+00 0.000000000000000D+00 -.179360616341581D+04
 0.505930163928973D+03 -.222211329922286D+03 -.433084765193227D+03 -.583098772498619D+02
 0.134224788210463D+04 0.151081461731543D+03 0.202161020617176D+03 -.131830750990748D+04
 0.144088931089269D+04 0.176318917953840D+03 0.387296029920893D+03 0.137661738715734D+04
 0.208635837346817D+03 -.105189049763097D+03 -.156372285344841D+03 -.895091325585034D+02
0.140161826665D+00 0.000000000000D+00 0.000000000000D+00 0.233503423594D-03 0.000000000000D+00  6 -1 1 25 2 -2 21 0 0.14357916D+00 0.44436435D+00 0.27673906D+06 0.27673906D+06 0.27673906D+06 0.10871546D+01  1  2  2  2  6  2        1 0.530208619763D-02 0.100000000000D+01
0.230736502143D-01 0.000000000000D+00 -.538258319850D-03 0.233503423594D-03 0.000000000000D+00  6 -1 1 25 2 -2 21 2 0.14357916D+00 0.44436435D+00 0.27673906D+06 0.27673906D+06 0.27673906D+06 0.10871546D+01  1  2  3  2  6  2        1 0.103161105616D-02 0.100000000000D+01
-.848294046953D-01 0.000000000000D+00 0.000000000000D+00 0.233503423594D-03 0.000000000000D+00  6 -1 1 25 2 -2 21 2 0.14357916D+00 0.44436435D+00 0.27673906D+06 0.27673906D+06 0.27673906D+06 0.10871546D+01  1  2 15  2  6  2        1 -.379267913654D-02 0.100000000000D+01
-.271607645785D-02 0.000000000000D+00 0.000000000000D+00 0.233503423594D-03 0.000000000000D+00  6 -1 1 25 2 -2 21 2 0.14357916D+00 0.44436435D+00 0.27673906D+06 0.27673906D+06 0.27673906D+06 0.10871546D+01  1  2  4  2  6  2        1 -.121434384126D-03 0.100000000000D+01
-.691803859620D+00 0.000000000000D+00 -.207671010526D+00 0.233503423594D-03 0.000000000000D+00  6 -1 1 25 2 -2 21 2 0.14357916D+00 0.49079646D+00 0.27673906D+06 0.27673906D+06 0.27673906D+06 0.10871546D+01  1  2  5  2  6  2        1 -.183748711250D-01 0.100000000000D+01
0.709955471530D+00 0.000000000000D+00 0.206649599066D+00 0.233503423594D-03 0.000000000000D+00  6 -1 1 25 2 -2 21 2 0.14357916D+00 0.44436435D+00 0.27673906D+06 0.27673906D+06 0.27673906D+06 0.10871546D+01  1  2  6  2  6  2        1 0.317417446747D-01 0.100000000000D+01
-.104996220067D-01 0.000000000000D+00 -.335510948634D-02 0.233503423594D-03 0.000000000000D+00  6 -1 21 25 2 -2 -1 2 0.14357916D+00 0.49079646D+00 0.27673906D+06 0.27673906D+06 0.27673906D+06 0.10871546D+01  1  2  5  6  6  2        1 -.514885775652D-04 0.100000000000D+01
  </mgrwgt>
  </event>
  <event>
  5     66 0.18829897E-05 0.51908483E+02 0.75467711E-02 0.94344434E-01
       -1 -1    0    0    0  501 0.00000000E+00 0.00000000E+00 0.20347128E+04 0.20347129E+04 0.32000000E+00 0.0000E+00 0.9000E+01
        1 -1    0    0  502    0 0.00000000E+00 0.00000000E+00 -.12215676E+04 0.12215677E+04 0.32000000E+00 0.0000E+00 0.9000E+01
       25  1    1    2    0    0 0.46017026E+03 -.87563854E+02 0.10257459E+04 0.11345500E+04 0.12500000E+03 0.0000E+00 0.9000E+01
        2  1    1    2  502    0 -.41330598E+03 0.10991378E+03 -.11272279E+04 0.12056308E+04 0.32000000E+00 0.0000E+00 0.9000E+01
       -2  1    1    2    0  501 -.46864281E+02 -.22349926E+02 0.91462713E+03 0.91609970E+03 0.32000000E+00 0.0000E+00 0.9000E+01
#aMCatNLO 1  0  0  1  2 0.44103304D+02 0.00000000D+00  -5  6  0 0.00000000D+00 0.00000000D+00 0.00000000D+00 0.00000000D+00 0.00000000D+00
  <mgrwgt>
 0.2380026281D-02    9    4    0
 0.157655937720281D+04 0.000000000000000D+00 0.000000000000000D+00 0.157655937720281D+04
 0.157655937720281D+04 0.000000000000000D+00 0.000000000000000D+00 -.157655937720281D+04
 0.907303138298659D+03 0.460200371182427D+03 -.875797767274037D+02 0.766889422171495D+03
 0.153578299876370D+04 -.413347298859372D+03 0.109924356873973D+03 -.147502205596497D+04
 0.710032617343261D+03 -.468530723230552D+02 -.223445801465690D+02 0.708132633793476D+03
 0.000000000000000D+00 0.000000000000000D+00 0.000000000000000D+00 0.000000000000000D+00
 0.165057817941097D+04 0.000000000000000D+00 0.000000000000000D+00 0.165057817941097D+04
 0.158329692537525D+04 0.000000000000000D+00 0.000000000000000D+00 -.158329692537525D+04
 0.902198178381999D+03 0.448904552543396D+03 -.932838139394016D+02 0.766889422171495D+03
 0.154040106308417D+04 -.432550389203983D+03 0.100227393297333D+03 -.147502205596497D+04
 0.710827938731662D+03 -.557227995815116D+02 -.268235166415026D+02 0.708132633793476D+03
 0.804479245883993D+02 0.393686362420984D+02 0.198799372835716D+02 0.672812540357221D+02
 0.157655937720281D+04 0.000000000000000D+00 0.000000000000000D+00 0.157655937720281D+04
 0.157655937720281D+04 0.000000000000000D+00 0.000000000000000D+00 -.157655937720281D+04
 0.907303138298659D+03 0.460200371182427D+03 -.875797767274037D+02 0.766889422171495D+03
 0.153578299876370D+04 -.413347298859372D+03 0.109924356873973D+03 -.147502205596497D+04
 0.000000000000000D+00 0.000000000000000D+00 0.000000000000000D+00 0.000000000000000D+00
 0.710032617343261D+03 -.468530723230552D+02 -.223445801465690D+02 0.708132633793476D+03
 0.165057817941097D+04 0.000000000000000D+00 0.000000000000000D+00 0.165057817941097D+04
 0.158329692537525D+04 0.000000000000000D+00 0.000000000000000D+00 -.158329692537525D+04
 0.902198178381999D+03 0.448904552543396D+03 -.932838139394016D+02 0.766889422171495D+03
 0.154040106308417D+04 -.432550389203983D+03 0.100227393297333D+03 -.147502205596497D+04
 0.804479245883993D+02 0.393686362420984D+02 0.198799372835716D+02 0.672812540357221D+02
 0.710827938731662D+03 -.557227995815116D+02 -.268235166415026D+02 0.708132633793476D+03
0.115230458624D-01 0.000000000000D+00 0.000000000000D+00 0.875795218234D-03 0.000000000000D+00  6 -1 1 25 2 -2 21 0 0.31303275D+00 0.18793349D+00 0.23255188D+06 0.23255188D+06 0.23255188D+06 0.10928307D+01  1  2  2  1  6  1       -1 0.233794073132D-03 0.100000000000D+01
0.314467549250D-02 0.000000000000D+00 -.442515301993D-04 0.875795218234D-03 0.000000000000D+00  6 -1 1 25 2 -2 21 2 0.31303275D+00 0.18793349D+00 0.23255188D+06 0.23255188D+06 0.23255188D+06 0.10928307D+01  1  2  3  1  6  1       -1 0.761987496257D-04 0.100000000000D+01
-.793428280199D-02 0.000000000000D+00 0.000000000000D+00 0.875795218234D-03 0.000000000000D+00  6 -1 1 25 2 -2 21 2 0.31303275D+00 0.18793349D+00 0.23255188D+06 0.23255188D+06 0.23255188D+06 0.10928307D+01  1  2 15  1  6  1       -1 -.192255903711D-03 0.100000000000D+01
0.119689600826D-09 0.000000000000D+00 0.000000000000D+00 0.875795218234D-03 0.000000000000D+00  6 -1 1 25 2 -2 21 2 0.32838029D+00 0.18793349D+00 0.26275117D+06 0.26275117D+06 0.26275117D+06 0.10888375D+01  1  2 12  1  6  1       -1 0.204128684208D-11 0.100000000000D+01
-.571004639994D-03 0.000000000000D+00 0.000000000000D+00 0.875795218234D-03 0.000000000000D+00  6 -1 1 25 2 -2 21 2 0.31303275D+00 0.18793349D+00 0.23255188D+06 0.23255188D+06 0.23255188D+06 0.10928307D+01  1  2  4  1  6  1       -1 -.138360348156D-04 0.100000000000D+01
-.427404920728D+00 0.000000000000D+00 -.479322306391D-01 0.875795218234D-03 0.000000000000D+00  6 -1 1 25 2 -2 21 2 0.32822088D+00 0.18793349D+00 0.23255188D+06 0.23255188D+06 0.23255188D+06 0.10928307D+01  1  2  5  1  6  1       -1 -.746755600283D-02 0.100000000000D+01
0.429247777947D+00 0.000000000000D+00 0.478784825609D-01 0.875795218234D-03 0.000000000000D+00  6 -1 1 25 2 -2 21 2 0.31303275D+00 0.18793349D+00 0.23255188D+06 0.23255188D+06 0.23255188D+06 0.10928307D+01  1  2  6  1  6  1       -1 0.104011189826D-01 0.100000000000D+01
0.209354145176D-11 0.000000000000D+00 0.000000000000D+00 0.875795218234D-03 0.000000000000D+00  6 21 1 25 2 1 -2 2 0.32838029D+00 0.18793349D+00 0.26275117D+06 0.26275117D+06 0.26275117D+06 0.10888375D+01  3  4 12  5  5  1       -1 0.382659903291D-12 0.100000000000D+01
-.350308456320D-02 0.000000000000D+00 -.397122477087D-03 0.875795218234D-03 0.000000000000D+00  6 21 1 25 2 1 -2 2 0.32822088D+00 0.18793349D+00 0.23255188D+06 0.23255188D+06 0.23255188D+06 0.10928307D+01  3  4  5  5  5  1       -1 -.657437585850D-03 0.100000000000D+01
  </mgrwgt>
  </event>
  <event>
  5     66 -.18829897E-05 0.18922358E+02 0.75467711E-02 0.92912832E-01
       -1 -1    0    0    0  501 0.00000000E+00 0.00000000E+00 0.82417404E+03 0.82417410E+03 0.32000000E+00 0.0000E+00 0.9000E+01
        1 -1    0    0  502    0 -.00000000E+00 -.00000000E+00 -.18824175E+04 0.18824176E+04 0.32000000E+00 0.0000E+00 0.9000E+01
       25  1    1    2    0    0 0.51097212E+03 -.23990792E+03 -.74617521E+03 0.94395485E+03 0.12500000E+03 0.0000E+00 0.9000E+01
        2  1    1    2  502    0 0.11975713E+02 0.14649962E+02 -.92548622E+03 0.92567969E+03 0.32000000E+00 0.0000E+00 0.9000E+01
       -2  1    1    2    0  501 -.52294784E+03 0.22525795E+03 0.61341792E+03 0.83695713E+03 0.32000000E+00 0.0000E+00 0.9000E+01
#aMCatNLO 1  0  0  5  1 0.23265236D+02 0.00000000D+00  -5  6  0 0.00000000D+00 0.00000000D+00 0.00000000D+00 0.00000000D+00 0.00000000D+00
  <mgrwgt>
 -.1619438476D-01    6    2    0
 0.124556805500207D+04 0.000000000000000D+00 0.000000000000000D+00 0.124556805500207D+04
 0.124556805500207D+04 -.000000000000000D+00 -.000000000000000D+00 -.124556805500207D+04
 0.708606249355035D+03 0.510970408369770D+03 -.239907685114876D+03 -.409696669523028D+03
 0.612606689761746D+03 0.119758586826232D+02 0.146504078416824D+02 -.612314380608304D+03
 0.116992317088735D+04 -.522946267052394D+03 0.225257277273194D+03 0.102201105013133D+04
 0.000000000000000D+00 0.000000000000000D+00 0.000000000000000D+00 0.000000000000000D+00
 0.124556805500207D+04 0.000000000000000D+00 0.000000000000000D+00 0.124556805500207D+04
 0.124556805500207D+04 -.000000000000000D+00 -.000000000000000D+00 -.124556805500207D+04
 0.708371281475936D+03 0.510852735207225D+03 -.239856997811279D+03 -.409466697000033D+03
 0.612407036386810D+03 0.118741271899351D+02 0.146942283266914D+02 -.612115563413834D+03
 0.592248254824377D+03 -.278567639819412D+03 0.129202609341025D+03 0.506423489904875D+03
 0.578109537317009D+03 -.244159222577749D+03 0.959601601435627D+02 0.515158770508993D+03
0.332573943797D-03 0.000000000000D+00 0.000000000000D+00 0.287422426515D-03 0.000000000000D+00  6 -1 1 25 2 -2 21 0 0.12679601D+00 0.28960271D+00 0.34017013D+06 0.34017013D+06 0.34017013D+06 0.10805371D+01  1  2  2  4  6  5       -2 0.847594122310D-04 0.100000000000D+01
0.252413393938D-03 0.000000000000D+00 -.127717151291D-05 0.287422426515D-03 0.000000000000D+00  6 -1 1 25 2 -2 21 2 0.12679601D+00 0.28960271D+00 0.34017013D+06 0.34017013D+06 0.34017013D+06 0.10805371D+01  1  2  3  4  6  5       -2 0.751089161328D-04 0.100000000000D+01
-.255354518818D-03 0.000000000000D+00 0.000000000000D+00 0.287422426515D-03 0.000000000000D+00  6 -1 1 25 2 -2 21 2 0.12679601D+00 0.28960271D+00 0.34017013D+06 0.34017013D+06 0.34017013D+06 0.10805371D+01  1  2 15  4  6  5       -2 -.759840864178D-04 0.100000000000D+01
-.755376244536D-01 0.000000000000D+00 0.000000000000D+00 0.287422426515D-03 0.000000000000D+00  6 -1 1 25 2 -2 21 2 0.12679601D+00 0.28960271D+00 0.34017013D+06 0.34017013D+06 0.34017013D+06 0.10805371D+01  1  2  4  4  6  5       -2 -.224772109413D-01 0.100000000000D+01
-.351604147815D-01 0.000000000000D+00 0.000000000000D+00 0.287422426515D-03 0.000000000000D+00  6 -1 1 25 2 -2 21 2 0.12679601D+00 0.28960271D+00 0.34017013D+06 0.34017013D+06 0.34017013D+06 0.10805371D+01  1  2  5  4  6  5       -2 -.104624425979D-01 0.100000000000D+01
0.559927746972D-01 0.000000000000D+00 -.000000000000D+00 0.287422426515D-03 0.000000000000D+00  6 -1 1 25 2 -2 21 2 0.12679601D+00 0.28960271D+00 0.34017013D+06 0.34017013D+06 0.34017013D+06 0.10805371D+01  1  2  6  4  6  5       -2 0.166613845373D-01 0.100000000000D+01
  </mgrwgt>
  </event>
  <event>
  5     66 0.18829897E-05 0.50840250E+02 0.75467711E-02 0.81638293E-01
       -1 -1    0    0    0  501 0.00000000E+00 0.00000000E+00 0.14274247E+04 0.14274247E+04 0.32000000E+00 0.0000E+00 0.9000E+01
        1 -1    0    0  502    0 0.00000000E+00 0.00000000E+00 -.11166168E+04 0.11166169E+04 0.32000000E+00 0.0000E+00 0.9000E+01
       25  1    1    2    0    0 0.19897102E+03 0.49978813E+03 -.26521751E+03 0.61265240E+03 0.12500000E+03 0.0000E+00 0.9000E+01
        2  1    1    2  502    0 -.15051828E+03 -.48438368E+03 -.58213297E+03 0.77211541E+03 0.32000000E+00 0.0000E+00 0.9000E+01
       -2  1    1    2    0  501 -.48452744E+02 -.15404449E+02 0.11581583E+04 0.11592738E+04 0.32000000E+00 0.0000E+00 0.9000E+01
#aMCatNLO 1  0  0  2  2 0.18812427D+04 0.00000000D+00  -5  6  0 0.00000000D+00 0.00000000D+00 0.00000000D+00 0.00000000D+00 0.00000000D+00
  <mgrwgt>
 0.2124065141D-02    5    2    0
 0.126249219431515D+04 0.000000000000000D+00 0.000000000000000D+00 0.126249219431515D+04
 0.126249219431515D+04 0.000000000000000D+00 0.000000000000000D+00 -.126249219431515D+04
 0.649945785604090D+03 0.198986467225568D+03 0.499837058102153D+03 -.342595717184833D+03
 0.849622940271633D+03 -.150535920583503D+03 -.484433307331162D+03 -.681558836783798D+03
 0.102541566275458D+04 -.484505466420643D+02 -.154037507709912D+02 0.102415455396863D+04
 0.000000000000000D+00 -.000000000000000D+00 -.000000000000000D+00 -.000000000000000D+00
 0.193281664757730D+04 0.000000000000000D+00 0.000000000000000D+00 0.193281664757730D+04
 0.404274661765163D+04 0.000000000000000D+00 0.000000000000000D+00 -.404274661765163D+04
 0.121085409098131D+04 0.398810511232736D+03 0.108356863204094D+04 -.342595717184833D+03
 0.681712788236269D+03 0.139082530503767D+02 -.405439808977025D+01 -.681558836783798D+03
 0.125618214666364D+04 0.196561346798332D+03 0.700331830011037D+03 0.102415455396863D+04
 0.282681423934772D+04 -.609280111081445D+03 -.177984606396220D+04 -.210992997007433D+04
0.178955965274D-01 0.000000000000D+00 0.000000000000D+00 0.145318892597D-03 0.000000000000D+00  6 -1 1 25 2 -2 21 0 0.21960380D+00 0.17178721D+00 0.30827157D+06 0.30827157D+06 0.30827157D+06 0.10836790D+01  1  2  2  2  6  2        1 0.262879753954D-02 0.100000000000D+01
0.894722581451D-02 0.000000000000D+00 -.687238026840D-04 0.145318892597D-03 0.000000000000D+00  6 -1 1 25 2 -2 21 2 0.21960380D+00 0.17178721D+00 0.30827157D+06 0.30827157D+06 0.30827157D+06 0.10836790D+01  1  2  3  2  6  2        1 0.154347889401D-02 0.100000000000D+01
-.119827849437D-01 0.000000000000D+00 0.000000000000D+00 0.145318892597D-03 0.000000000000D+00  6 -1 1 25 2 -2 21 2 0.21960380D+00 0.17178721D+00 0.30827157D+06 0.30827157D+06 0.30827157D+06 0.10836790D+01  1  2 15  2  6  2        1 -.206714081387D-02 0.100000000000D+01
0.123869506421D-01 0.000000000000D+00 -.988331754542D-02 0.145318892597D-03 0.000000000000D+00  6 -1 1 25 2 -2 21 2 0.21960380D+00 0.60444530D+00 0.30827157D+06 0.30827157D+06 0.30827157D+06 0.10836790D+01  1  2  5  2  6  2        1 0.186518256100D-04 0.100000000000D+01
0.213324166752D-02 0.000000000000D+00 -.145592799387D-02 0.145318892597D-03 0.000000000000D+00  6 -1 21 25 2 -2 -1 2 0.21960380D+00 0.60444530D+00 0.30827157D+06 0.30827157D+06 0.30827157D+06 0.10836790D+01  1  2  5  6  6  2        1 0.277695244267D-06 0.100000000000D+01
  </mgrwgt>
  </event>
  <event>
  5     66 -.18829897E-05 0.47188386E+02 0.75467711E-02 0.94734262E-01
       -1 -1    0    0    0  501 0.00000000E+00 0.00000000E+00 0.69285961E+03 0.69285969E+03 0.32000000E+00 0.0000E+00 0.9000E+01
        1 -1    0    0  502    0 -.00000000E+00 -.00000000E+00 -.10799579E+04 0.10799580E+04 0.32000000E+00 0.0000E+00 0.9000E+01
       25  1    1    2    0    0 0.45160523E+03 -.16989101E+03 -.36141020E+03 0.61567246E+03 0.12500000E+03 0.0000E+00 0.9000E+01
        2  1    1    2  502    0 -.40612739E+03 0.18250448E+03 -.50629476E+03 0.67422684E+03 0.32000000E+00 0.0000E+00 0.9000E+01
       -2  1    1    2    0  501 -.45477838E+02 -.12613474E+02 0.48060663E+03 0.48291838E+03 0.32000000E+00 0.0000E+00 0.9000E+01
#aMCatNLO 1  0  0  4  2 0.43072280D+02 0.00000000D+00  -5  6  0 0.00000000D+00 0.00000000D+00 0.00000000D+00 0.00000000D+00 0.00000000D+00
  <mgrwgt>
 -.2019170561D-01    6    2    0
 0.865019855078029D+03 0.000000000000000D+00 0.000000000000000D+00 0.865019855078029D+03
 0.865019855078029D+03 -.000000000000000D+00 -.000000000000000D+00 -.865019855078029D+03
 0.550065658228904D+03 0.451668263110613D+03 -.169919969093286D+03 -.232530025082302D+03
 0.577658304774975D+03 -.406196445524056D+03 0.182531773518708D+03 -.367934391400471D+03
 0.602315747152179D+03 -.454718175865568D+02 -.126118044254224D+02 0.600464416482773D+03
 0.000000000000000D+00 0.000000000000000D+00 0.000000000000000D+00 -.000000000000000D+00
 0.865019855078029D+03 0.000000000000000D+00 0.000000000000000D+00 0.865019855078029D+03
 0.865019855078029D+03 -.000000000000000D+00 -.000000000000000D+00 -.865019855078029D+03
 0.549357605428030D+03 0.450437136244708D+03 -.169366739805495D+03 -.233645184801535D+03
 0.379267063034750D+03 -.292264992069868D+03 0.107923264914484D+03 -.216280485489568D+03
 0.601189826610755D+03 -.468194951317802D+02 -.120062009663779D+02 0.599243684684478D+03
 0.200225215082523D+03 -.111352649043060D+03 0.734496758573894D+02 -.149318014393375D+03
0.450766523637D-03 0.000000000000D+00 0.000000000000D+00 0.335097414092D-04 0.000000000000D+00  6 -1 1 25 2 -2 21 0 0.10659380D+00 0.16614739D+00 0.24552624D+06 0.24552624D+06 0.24552624D+06 0.10910496D+01  1  2  2  3  6  4        2 0.632288131914D-03 0.100000000000D+01
0.195299717882D-03 0.000000000000D+00 -.173106214032D-05 0.335097414092D-04 0.000000000000D+00  6 -1 1 25 2 -2 21 2 0.10659380D+00 0.16614739D+00 0.24552624D+06 0.24552624D+06 0.24552624D+06 0.10910496D+01  1  2  3  3  6  4        2 0.326102362372D-03 0.100000000000D+01
-.281225853077D-03 0.000000000000D+00 0.000000000000D+00 0.335097414092D-04 0.000000000000D+00  6 -1 1 25 2 -2 21 2 0.10659380D+00 0.16614739D+00 0.24552624D+06 0.24552624D+06 0.24552624D+06 0.10910496D+01  1  2 15  3  6  4        2 -.469577816308D-03 0.100000000000D+01
-.149729225360D-01 0.000000000000D+00 0.000000000000D+00 0.335097414092D-04 0.000000000000D+00  6 -1 1 25 2 -2 21 2 0.10659380D+00 0.16614739D+00 0.24552624D+06 0.24552624D+06 0.24552624D+06 0.10910496D+01  1  2  4  3  6  4        2 -.250010878845D-01 0.100000000000D+01
-.644264305255D-02 0.000000000000D+00 0.000000000000D+00 0.335097414092D-04 0.000000000000D+00  6 -1 1 25 2 -2 21 2 0.10659380D+00 0.16614739D+00 0.24552624D+06 0.24552624D+06 0.24552624D+06 0.10910496D+01  1  2  5  3  6  4        2 -.107576249579D-01 0.100000000000D+01
0.903019260864D-02 0.000000000000D+00 -.000000000000D+00 0.335097414092D-04 0.000000000000D+00  6 -1 1 25 2 -2 21 2 0.10659380D+00 0.16614739D+00 0.24552624D+06 0.24552624D+06 0.24552624D+06 0.10910496D+01  1  2  6  3  6  4        2 0.150781945529D-01 0.100000000000D+01
  </mgrwgt>
  </event>
  <event>
  5     66 -.18829897E-05 0.27803022E+02 0.75467711E-02 0.94238697E-01
       -1 -1    0    0    0  501 0.00000000E+00 0.00000000E+00 0.40696326E+03 0.40696339E+03 0.32000000E+00 0.0000E+00 0.9000E+01
        1 -1    0    0  502    0 -.00000000E+00 -.00000000E+00 -.12225352E+04 0.12225352E+04 0.32000000E+00 0.0000E+00 0.9000E+01
       25  1    1    2    0    0 0.46850685E+03 0.12250032E+03 -.20943895E+03 0.54221276E+03 0.12500000E+03 0.0000E+00 0.9000E+01
        2  1    1    2  502    0 0.27428473E+02 0.45261314E+01 -.57363729E+03 0.57431059E+03 0.32000000E+00 0.0000E+00 0.9000E+01
       -2  1    1    2    0  501 -.49593533E+03 -.12702645E+03 -.32495688E+02 0.51297528E+03 0.32000000E+00 0.0000E+00 0.9000E+01
#aMCatNLO 1  0  0  5  2 0.37599268D+02 0.00000000D+00  -5  6  0 0.00000000D+00 0.00000000D+00 0.00000000D+00 0.00000000D+00 0.00000000D+00
  <mgrwgt>
 -.2551437142D-02    6    2    0
 0.705355971967187D+03 0.000000000000000D+00 0.000000000000000D+00 0.705355971967187D+03
 0.705355971967187D+03 -.000000000000000D+00 -.000000000000000D+00 -.705355971967187D+03
 0.505199251992052D+03 0.468473606351822D+03 0.122492155963767D+03 0.716200816279601D+02
 0.331801390398029D+03 0.274320452692363D+02 0.452669047498401D+01 -.330634472848425D+03
 0.573711301544292D+03 -.495905651621058D+03 -.127018846438751D+03 0.259014391220465D+03
 0.000000000000000D+00 0.000000000000000D+00 -.000000000000000D+00 0.000000000000000D+00
 0.705355971967187D+03 0.000000000000000D+00 0.000000000000000D+00 0.705355971967187D+03
 0.705355971967187D+03 -.000000000000000D+00 -.000000000000000D+00 -.705355971967187D+03
 0.503802343580369D+03 0.466946269535798D+03 0.122100951387129D+03 0.724178184843518D+02
 0.331194052653397D+03 0.264284617729643D+02 0.426963751020182D+01 -.330110295381449D+03
 0.287515842297817D+03 -.232098360150619D+03 -.518234445795516D+02 0.161586018514991D+03
 0.288199705402790D+03 -.261276371158143D+03 -.745471443177795D+02 0.961064583821060D+02
0.163982547932D-03 0.000000000000D+00 0.000000000000D+00 0.103114185913D-04 0.000000000000D+00  6 -1 1 25 2 -2 21 0 0.62609746D-01 0.18808235D+00 0.27030335D+06 0.27030335D+06 0.27030335D+06 0.10879171D+01  1  2  2  4  6  5       -2 0.545016408987D-03 0.100000000000D+01
0.861576068848D-04 0.000000000000D+00 -.629736161655D-06 0.103114185913D-04 0.000000000000D+00  6 -1 1 25 2 -2 21 2 0.62609746D-01 0.18808235D+00 0.27030335D+06 0.27030335D+06 0.27030335D+06 0.10879171D+01  1  2  3  4  6  5       -2 0.338919986856D-03 0.100000000000D+01
-.107439731985D-03 0.000000000000D+00 0.000000000000D+00 0.103114185913D-04 0.000000000000D+00  6 -1 1 25 2 -2 21 2 0.62609746D-01 0.18808235D+00 0.27030335D+06 0.27030335D+06 0.27030335D+06 0.10879171D+01  1  2 15  4  6  5       -2 -.422637929125D-03 0.100000000000D+01
-.171262800097D-02 0.000000000000D+00 0.000000000000D+00 0.103114185913D-04 0.000000000000D+00  6 -1 1 25 2 -2 21 2 0.62609746D-01 0.18808235D+00 0.27030335D+06 0.27030335D+06 0.27030335D+06 0.10879171D+01  1  2  4  4  6  5       -2 -.673700071957D-02 0.100000000000D+01
-.157007963405D-02 0.000000000000D+00 0.000000000000D+00 0.103114185913D-04 0.000000000000D+00  6 -1 1 25 2 -2 21 2 0.62609746D-01 0.18808235D+00 0.27030335D+06 0.27030335D+06 0.27030335D+06 0.10879171D+01  1  2  5  4  6  5       -2 -.617625521618D-02 0.100000000000D+01
0.251683338648D-02 0.000000000000D+00 -.000000000000D+00 0.103114185913D-04 0.000000000000D+00  6 -1 1 25 2 -2 21 2 0.62609746D-01 0.18808235D+00 0.27030335D+06 0.27030335D+06 0.27030335D+06 0.10879171D+01  1  2  6  4  6  5       -2 0.990052032671D-02 0.100000000000D+01
  </mgrwgt>
  </event>
  <event>
  5     66 -.18829897E-05 0.79084551E+02 0.75467711E-02 0.91600684E-01
       -1 -1    0    0    0  501 0.00000000E+00 0.00000000E+00 0.16698435E+04 0.16698436E+04 0.32000000E+00 0.0000E+00 0.9000E+01
        1 -1    0    0  502    0 0.00000000E+00 0.00000000E+00 -.56414282E+03 0.56414291E+03 0.32000000E+00 0.0000E+00 0.9000E+01
       25  1    1    2    0    0 0.34582418E+02 0.64417379E+03 0.10195093E+04 0.12129221E+04 0.12500000E+03 0.0000E+00 0.9000E+01
        2  1    1    2  502    0 0.13334260E+02 -.58115070E+03 -.28084158E+03 0.64558968E+03 0.32000000E+00 0.0000E+00 0.9000E+01
       -2  1    1    2    0  501 -.47916678E+02 -.63023090E+02 0.36703297E+03 0.37547466E+03 0.32000000E+00 0.0000E+00 0.9000E+01
#aMCatNLO 1  0  0  5  1 0.83436991D+01 0.00000000D+00  -5  6  0 0.00000000D+00 0.00000000D+00 0.00000000D+00 0.00000000D+00 0.00000000D+00
  <mgrwgt>
 -.1870771409D-02    9    2    0
 0.970582488249488D+03 0.000000000000000D+00 0.000000000000000D+00 0.970582488249488D+03
 0.970582488249488D+03 -.000000000000000D+00 -.000000000000000D+00 -.970582488249488D+03
 0.815336633300703D+03 0.345367804579408D+02 0.644211515450148D+03 0.482646412769377D+03
 0.903019905253299D+03 0.133280702793606D+02 -.581256592441812D+03 -.690947237905499D+03
 0.222808437944973D+03 -.478648507373015D+02 -.629549230083363D+02 0.208300825136122D+03
 0.000000000000000D+00 0.000000000000000D+00 0.000000000000000D+00 0.000000000000000D+00
 0.970582488249488D+03 0.000000000000000D+00 0.000000000000000D+00 0.970582488249488D+03
 0.970582488249488D+03 -.000000000000000D+00 -.000000000000000D+00 -.970582488249488D+03
 0.815425174470494D+03 0.344775657256600D+02 0.644133632434652D+03 0.482904106617876D+03
 0.902856141317146D+03 0.132624969588914D+02 -.581342838680502D+03 -.690661872411818D+03
 0.135393866988963D+03 -.346245641679869D+02 -.436349536835296D+02 0.123404333762791D+03
 0.874897937223719D+02 -.131154985165646D+02 -.191558400706206D+02 0.843534320311509D+02
0.579286801262D-04 0.000000000000D+00 0.000000000000D+00 0.154822700705D-05 0.000000000000D+00  6 -1 1 25 2 -2 21 0 0.25689901D+00 0.86791212D-01 0.43403643D+06 0.43403643D+06 0.43403643D+06 0.10728802D+01  1  2  2  4  6  5       -2 0.123109776284D-04 0.100000000000D+01
0.963151852902D-05 0.000000000000D+00 -.222461384656D-06 0.154822700705D-05 0.000000000000D+00  6 -1 1 25 2 -2 21 2 0.25689901D+00 0.86791212D-01 0.43403643D+06 0.43403643D+06 0.43403643D+06 0.10728802D+01  1  2  3  4  6  5       -2 0.235611308699D-05 0.100000000000D+01
-.430905899044D-04 0.000000000000D+00 0.000000000000D+00 0.154822700705D-05 0.000000000000D+00  6 -1 1 25 2 -2 21 2 0.25689901D+00 0.86791212D-01 0.43403643D+06 0.43403643D+06 0.43403643D+06 0.10728802D+01  1  2 15  4  6  5       -2 -.105410483813D-04 0.100000000000D+01
0.210090614429D-07 0.000000000000D+00 0.000000000000D+00 0.154822700705D-05 0.000000000000D+00  6 -1 1 25 2 -2 21 2 0.25689901D+00 0.86791212D-01 0.43393082D+06 0.43393082D+06 0.43393082D+06 0.10728878D+01  1  2 12  4  6  5       -2 0.513951548427D-08 0.100000000000D+01
0.210484070969D-02 0.000000000000D+00 0.000000000000D+00 0.154822700705D-05 0.000000000000D+00  6 -1 1 25 2 -2 21 2 0.25689901D+00 0.86791212D-01 0.43393082D+06 0.43393082D+06 0.43393082D+06 0.10728878D+01  1  2 12  4  6  5       -2 0.514914074042D-03 0.100000000000D+01
-.117215546189D-01 0.000000000000D+00 0.000000000000D+00 0.154822700705D-05 0.000000000000D+00  6 -1 1 25 2 -2 21 2 0.25689901D+00 0.86791212D-01 0.43403643D+06 0.43403643D+06 0.43403643D+06 0.10728802D+01  1  2  4  4  6  5       -2 -.286738878759D-02 0.100000000000D+01
-.212998738451D-02 0.000000000000D+00 0.000000000000D+00 0.154822700705D-05 0.000000000000D+00  6 -1 1 25 2 -2 21 2 0.25689901D+00 0.86791212D-01 0.43403643D+06 0.43403643D+06 0.43403643D+06 0.10728802D+01  1  2  5  4  6  5       -2 -.521048797929D-03 0.100000000000D+01
0.407447222778D-02 0.000000000000D+00 -.000000000000D+00 0.154822700705D-05 0.000000000000D+00  6 -1 1 25 2 -2 21 2 0.25689901D+00 0.86791212D-01 0.43403643D+06 0.43403643D+06 0.43403643D+06 0.10728802D+01  1  2  6  4  6  5       -2 0.996718981493D-03 0.100000000000D+01
0.777465507757D-05 0.000000000000D+00 0.000000000000D+00 0.154822700705D-05 0.104175799611D-06  6 -1 1 25 2 -2 21 2 0.25689901D+00 0.86791212D-01 0.43393082D+06 0.43393082D+06 0.43393082D+06 0.10728878D+01  1  2 11  4  6  5       -2 0.190193932578D-05 0.100000000000D+01
  </mgrwgt>
  </event>
  <event>
  5     66 0.18829897E-05 0.63441356E+02 0.75467711E-02 0.89721681E-01
       -1 -1    0    0    0  501 0.00000000E+00 0.00000000E+00 0.60460953E+03 0.60460962E+03 0.32000000E+00 0.0000E+00 0.9000E+01
        1 -1    0    0  502    0 0.00000000E+00 0.00000000E+00 -.22163535E+04 0.22163535E+04 0.32000000E+00 0.0000E+00 0.9000E+01
       25  1    1    2    0    0 0.11055267E+03 -.49178530E+03 -.45205143E+03 0.68851301E+03 0.12500000E+03 0.0000E+00 0.9000E+01
        2  1    1    2  502    0 0.62539441E+02 0.10625080E+02 -.15108221E+04 0.15121533E+04 0.32000000E+00 0.0000E+00 0.9000E+01
       -2  1    1    2    0  501 -.17309211E+03 0.48116022E+03 0.35112959E+03 0.62029681E+03 0.32000000E+00 0.0000E+00 0.9000E+01
#aMCatNLO 1  0  0  1  2 0.83621380D+01 0.00000000D+00  -5  6  0 0.00000000D+00 0.00000000D+00 0.00000000D+00 0.00000000D+00 0.00000000D+00
  <mgrwgt>
 0.1239133609D-01    4    2    0
 0.115759605298747D+04 0.000000000000000D+00 0.000000000000000D+00 0.115759605298747D+04
 0.115759605298747D+04 0.000000000000000D+00 0.000000000000000D+00 -.115759605298747D+04
 0.524200126068361D+03 0.110542266335693D+03 -.491773344025321D+03 -.714153879048963D+02
 0.790772060503114D+03 0.625450596521297D+02 0.106264380906830D+02 -.788223094053300D+03
 0.100021991940347D+04 -.173087325987823D+03 0.481146905934638D+03 0.859638481958196D+03
 0.000000000000000D+00 0.000000000000000D+00 0.000000000000000D+00 -.000000000000000D+00
 0.126966000954977D+04 0.000000000000000D+00 0.000000000000000D+00 0.126966000954977D+04
 0.166032887178712D+04 0.000000000000000D+00 0.000000000000000D+00 -.166032887178712D+04
 0.559539379203099D+03 0.248932181016430D+02 -.540129139134269D+03 -.714153879048963D+02
 0.792982831234154D+03 -.626207190737651D+02 -.600397383060686D+02 -.788223094053300D+03
 0.100112617032239D+04 -.331255766778418D+03 0.391848065220479D+03 0.859638481958196D+03
 0.576340500577246D+03 0.368983267750541D+03 0.208320812219859D+03 -.390668862237345D+03
0.583967903044D-01 0.000000000000D+00 0.000000000000D+00 0.117281014760D-03 0.000000000000D+00  6 -1 1 25 2 -2 21 0 0.93016860D-01 0.34097747D+00 0.29925666D+06 0.29925666D+06 0.29925666D+06 0.10846316D+01  1  2  2  1  6  1       -1 0.185872028727D-01 0.100000000000D+01
0.218173800838D-01 0.000000000000D+00 -.224259050997D-03 0.117281014760D-03 0.000000000000D+00  6 -1 1 25 2 -2 21 2 0.93016860D-01 0.34097747D+00 0.29925666D+06 0.29925666D+06 0.29925666D+06 0.10846316D+01  1  2  3  1  6  1       -1 0.816943753311D-02 0.100000000000D+01
-.382634049871D-01 0.000000000000D+00 0.000000000000D+00 0.117281014760D-03 0.000000000000D+00  6 -1 1 25 2 -2 21 2 0.93016860D-01 0.34097747D+00 0.29925666D+06 0.29925666D+06 0.29925666D+06 0.10846316D+01  1  2 15  1  6  1       -1 -.143275909227D-01 0.100000000000D+01
-.100717744858D-03 0.000000000000D+00 0.000000000000D+00 0.117281014760D-03 0.000000000000D+00  6 -1 1 25 2 -2 21 2 0.93016860D-01 0.34097747D+00 0.29925666D+06 0.29925666D+06 0.29925666D+06 0.10846316D+01  1  2  4  1  6  1       -1 -.377133882224D-04 0.100000000000D+01
  </mgrwgt>
  </event>
  <event>
  5     66 0.18829897E-05 0.80375904E+02 0.75467711E-02 0.92289817E-01
       -1 -1    0    0    0  501 0.00000000E+00 0.00000000E+00 0.18941240E+04 0.18941240E+04 0.32000000E+00 0.0000E+00 0.9000E+01
        1 -1    0    0  502    0 0.00000000E+00 0.00000000E+00 -.81460983E+03 0.81460990E+03 0.32000000E+00 0.0000E+00 0.9000E+01
       25  1    1    2    0    0 -.11085335E+03 0.53226777E+03 -.22332575E+03 0.60091333E+03 0.12500000E+03 0.0000E+00 0.9000E+01
        2  1    1    2  502    0 0.18273923E+03 -.56823225E+03 -.17950289E+03 0.62330001E+03 0.32000000E+00 0.0000E+00 0.9000E+01
       -2  1    1    2    0  501 -.71885879E+02 0.35964480E+02 0.14823428E+04 0.14845206E+04 0.32000000E+00 0.0000E+00 0.9000E+01
#aMCatNLO 1  0  0  2  1 0.54568892D+02 0.00000000D+00  -5  6  0 0.00000000D+00 0.00000000D+00 0.00000000D+00 0.00000000D+00 0.00000000D+00
  <mgrwgt>
 0.3257571347D-02    6    2    0
 0.124216429899407D+04 0.000000000000000D+00 0.000000000000000D+00 0.124216429899407D+04
 0.124216429899407D+04 0.000000000000000D+00 0.000000000000000D+00 -.124216429899407D+04
 0.752267345421131D+03 -.110870656146584D+03 0.532327205504824D+03 -.504595484395180D+03
 0.757623792629833D+03 0.182752432516324D+03 -.568289633260079D+03 -.466521438196900D+03
 0.974437459937185D+03 -.718817763697400D+02 0.359624277552552D+02 0.971116922592080D+03
 0.000000000000000D+00 -.000000000000000D+00 0.000000000000000D+00 -.000000000000000D+00
 0.167227794762839D+04 0.000000000000000D+00 0.000000000000000D+00 0.167227794762839D+04
 0.188139039054117D+04 0.000000000000000D+00 0.000000000000000D+00 -.188139039054117D+04
 0.604268542296131D+03 -.590879174638800D+02 0.302336710219693D+03 -.504595484395180D+03
 0.101789863891414D+04 0.250529050098213D+03 -.869316157599087D+03 -.466521438196900D+03
 0.101689722235910D+04 0.413299361668204D+01 -.301653446624943D+03 0.971116922592080D+03
 0.914603934600190D+03 -.195574126251015D+03 0.868632894004337D+03 -.209112442912781D+03
0.522393050068D-01 0.000000000000D+00 0.000000000000D+00 0.160085024020D-04 0.000000000000D+00  6 -1 1 25 2 -2 21 0 0.29140370D+00 0.12532460D+00 0.38146749D+06 0.38146749D+06 0.38146749D+06 0.10769160D+01  1  2  2  2  6  2        1 0.324396788644D-02 0.100000000000D+01
0.184233233604D-01 0.000000000000D+00 -.200612686151D-03 0.160085024020D-04 0.000000000000D+00  6 -1 1 25 2 -2 21 2 0.29140370D+00 0.12532460D+00 0.38146749D+06 0.38146749D+06 0.38146749D+06 0.10769160D+01  1  2  3  2  6  2        1 0.132681624961D-02 0.100000000000D+01
-.351012438156D-01 0.000000000000D+00 0.000000000000D+00 0.160085024020D-04 0.000000000000D+00  6 -1 1 25 2 -2 21 2 0.29140370D+00 0.12532460D+00 0.38146749D+06 0.38146749D+06 0.38146749D+06 0.10769160D+01  1  2 15  2  6  2        1 -.252793156615D-02 0.100000000000D+01
0.639693810221D-02 0.000000000000D+00 -.293237712137D-01 0.160085024020D-04 0.000000000000D+00  6 -1 1 25 2 -2 21 2 0.29140370D+00 0.23891484D+00 0.38146749D+06 0.38146749D+06 0.38146749D+06 0.10769160D+01  1  2  5  2  6  2        1 0.132515191908D-03 0.100000000000D+01
0.145795738649D-01 0.000000000000D+00 0.241255986515D-01 0.160085024020D-04 0.000000000000D+00  6 -1 1 25 2 -2 21 2 0.29140370D+00 0.12532460D+00 0.38146749D+06 0.38146749D+06 0.38146749D+06 0.10769160D+01  1  2  6  2  6  2        1 0.104999598270D-02 0.100000000000D+01
0.212906264655D-02 0.000000000000D+00 -.205494622069D-02 0.160085024020D-04 0.000000000000D+00  6 -1 21 25 2 -2 -1 2 0.29140370D+00 0.23891484D+00 0.38146749D+06 0.38146749D+06 0.38146749D+06 0.10769160D+01  1  2  5  6  6  2        1 0.322076028693D-04 0.100000000000D+01
  </mgrwgt>
  </event>
  <event>
  5     66 0.18829897E-05 0.83159186E+02 0.75467711E-02 0.92812345E-01
       -1 -1    0    0    0  501 0.00000000E+00 0.00000000E+00 0.65536617E+03 0.65536624E+03 0.32000000E+00 0.0000E+00 0.9000E+01
        1 -1    0    0  502    0 0.00000000E+00 0.00000000E+00 -.70927781E+03 0.70927788E+03 0.32000000E+00 0.0000E+00 0.9000E+01
       25  1    1    2    0    0 -.43176305E+03 -.35899355E+03 -.50621501E+02 0.57748008E+03 0.12500000E+03 0.0000E+00 0.9000E+01
        2  1    1    2  502    0 0.35520717E+03 0.32636509E+03 -.23817547E+03 0.53797208E+03 0.32000000E+00 0.0000E+00 0.9000E+01
       -2  1    1    2    0  501 0.76555876E+02 0.32628464E+02 0.23488532E+03 0.24919197E+03 0.32000000E+00 0.0000E+00 0.9000E+01
#aMCatNLO 1  0  0  1  2 0.37081112D+02 0.00000000D+00  -5  6  0 0.00000000D+00 0.00000000D+00 0.00000000D+00 0.00000000D+00 0.00000000D+00
  <mgrwgt>
 0.6518220777D-03    9    4    0
 0.681789396233622D+03 0.000000000000000D+00 0.000000000000000D+00 0.681789396233622D+03
 0.681789396233622D+03 0.000000000000000D+00 0.000000000000000D+00 -.681789396233622D+03
 0.575998999893504D+03 -.431814453974944D+03 -.359055074684268D+03 -.276690903376387D+02
 0.529092941978278D+03 0.355313695583666D+03 0.326450101839195D+03 -.217075678027472D+03
 0.258486850595461D+03 0.765007583912778D+02 0.326049728450721D+02 0.244744768365111D+03
 0.000000000000000D+00 -.000000000000000D+00 0.000000000000000D+00 0.000000000000000D+00
 0.701639148827152D+03 0.000000000000000D+00 0.000000000000000D+00 0.701639148827152D+03
 0.699581878784236D+03 0.000000000000000D+00 0.000000000000000D+00 -.699581878784236D+03
 0.583583085929128D+03 -.428837822622303D+03 -.374535394203290D+03 -.276690903376387D+02
 0.522395277205704D+03 0.358012851459238D+03 0.312412825994331D+03 -.217075678027472D+03
 0.258104527357911D+03 0.778268413921455D+02 0.257085230902303D+02 0.244744768365111D+03
 0.371381371186440D+02 -.700187022908028D+01 0.364140451187292D+02 0.205727004291643D+01
 0.681789396233622D+03 0.000000000000000D+00 0.000000000000000D+00 0.681789396233622D+03
 0.681789396233622D+03 0.000000000000000D+00 0.000000000000000D+00 -.681789396233622D+03
 0.575998999893504D+03 -.431814453974944D+03 -.359055074684268D+03 -.276690903376387D+02
 0.529092941978278D+03 0.355313695583666D+03 0.326450101839195D+03 -.217075678027472D+03
 0.000000000000000D+00 -.000000000000000D+00 0.000000000000000D+00 0.000000000000000D+00
 0.258486850595461D+03 0.765007583912778D+02 0.326049728450721D+02 0.244744768365111D+03
 0.701639148827152D+03 0.000000000000000D+00 0.000000000000000D+00 0.701639148827152D+03
 0.699581878784236D+03 0.000000000000000D+00 0.000000000000000D+00 -.699581878784236D+03
 0.583583085929128D+03 -.428837822622303D+03 -.374535394203290D+03 -.276690903376387D+02
 0.522395277205704D+03 0.358012851459238D+03 0.312412825994331D+03 -.217075678027472D+03
 0.371381371186440D+02 -.700187022908028D+01 0.364140451187292D+02 0.205727004291643D+01
 0.258104527357911D+03 0.778268413921455D+02 0.257085230902303D+02 0.244744768365111D+03
0.883554609562D-04 0.000000000000D+00 0.000000000000D+00 0.735152331535D-06 0.000000000000D+00  6 -1 1 25 2 -2 21 0 0.10082558D+00 0.10911967D+00 0.32547304D+06 0.32547304D+06 0.32547304D+06 0.10819430D+01  1  2  2  1  6  1       -1 0.279298986030D-03 0.100000000000D+01
0.156573759242D-04 0.000000000000D+00 -.339308234599D-06 0.735152331535D-06 0.000000000000D+00  6 -1 1 25 2 -2 21 2 0.10082558D+00 0.10911967D+00 0.32547304D+06 0.32547304D+06 0.32547304D+06 0.10819430D+01  1  2  3  1  6  1       -1 0.579380223147D-04 0.100000000000D+01
-.600495653985D-04 0.000000000000D+00 0.000000000000D+00 0.735152331535D-06 0.000000000000D+00  6 -1 1 25 2 -2 21 2 0.10082558D+00 0.10911967D+00 0.32547304D+06 0.32547304D+06 0.32547304D+06 0.10819430D+01  1  2 15  1  6  1       -1 -.222205373167D-03 0.100000000000D+01
0.344142752845D-07 0.000000000000D+00 0.000000000000D+00 0.735152331535D-06 0.000000000000D+00  6 -1 1 25 2 -2 21 2 0.10504067D+00 0.10911967D+00 0.34640806D+06 0.34640806D+06 0.34640806D+06 0.10799603D+01  1  2 12  1  6  1       -1 0.115243081238D-06 0.100000000000D+01
-.283923356280D-04 0.000000000000D+00 0.000000000000D+00 0.735152331535D-06 0.000000000000D+00  6 -1 1 25 2 -2 21 2 0.10082558D+00 0.10911967D+00 0.32547304D+06 0.32547304D+06 0.32547304D+06 0.10819430D+01  1  2  4  1  6  1       -1 -.105062034861D-03 0.100000000000D+01
-.278096062894D-02 0.000000000000D+00 -.461843559861D-03 0.735152331535D-06 0.000000000000D+00  6 -1 1 25 2 -2 21 2 0.10593197D+00 0.10911967D+00 0.32547304D+06 0.32547304D+06 0.32547304D+06 0.10819430D+01  1  2  5  1  6  1       -1 -.919296987218D-02 0.100000000000D+01
0.280092208630D-02 0.000000000000D+00 0.461280484932D-03 0.735152331535D-06 0.000000000000D+00  6 -1 1 25 2 -2 21 2 0.10082558D+00 0.10911967D+00 0.32547304D+06 0.32547304D+06 0.32547304D+06 0.10819430D+01  1  2  6  1  6  1       -1 0.103644369991D-01 0.100000000000D+01
0.444338648847D-09 0.000000000000D+00 0.000000000000D+00 0.735152331535D-06 0.000000000000D+00  6 21 1 25 2 1 -2 2 0.10504067D+00 0.10911967D+00 0.34640806D+06 0.34640806D+06 0.34640806D+06 0.10799603D+01  3  4 12  5  5  1       -1 0.101326635039D-07 0.100000000000D+01
-.235586572229D-04 0.000000000000D+00 -.397841360358D-05 0.735152331535D-06 0.000000000000D+00  6 21 1 25 2 1 -2 2 0.10593197D+00 0.10911967D+00 0.32547304D+06 0.32547304D+06 0.32547304D+06 0.10819430D+01  3  4  5  5  5  1       -1 -.529740025318D-03 0.100000000000D+01
  </mgrwgt>
  </event>
  <event>
  6     66 0.18829897E-05 0.11566284E+03 0.75467711E-02 0.94411634E-01
       -1 -1    0    0    0  501 0.00000000E+00 0.00000000E+00 0.10906982E+03 0.10907029E+03 0.32000000E+00 0.0000E+00 0.9000E+01
        1 -1    0    0  502    0 -.00000000E+00 -.00000000E+00 -.43126391E+04 0.43126391E+04 0.32000000E+00 0.0000E+00 0.9000E+01
       25  1    1    2    0    0 -.45136742E+03 0.13123107E+03 -.68383040E+03 0.83916813E+03 0.12500000E+03 0.0000E+00 0.9000E+01
        2  1    1    2  503    0 0.11704477E+03 0.54154546E+02 -.43075755E+03 0.44964915E+03 0.32000000E+00 0.0000E+00 0.9000E+01
       -2  1    1    2    0  501 -.77005336E+01 -.24457455E+02 -.53694031E+01 0.26199202E+02 0.32000000E+00 0.0000E+00 0.9000E+01
       21  1    1    2  502  503 0.34202318E+03 -.16092816E+03 -.30836119E+04 0.31066929E+04 0.75000000E+00 0.0000E+00 0.9000E+01
#aMCatNLO 2  0  0  4  4 0.99510664D+02 0.00000000D+00  -5  6  0 0.00000000D+00 0.00000000D+00 0.00000000D+00 0.00000000D+00 0.00000000D+00
  <mgrwgt>
 0.1922515788D-03    1    2    0
 0.685842413588843D+03 0.000000000000000D+00 0.000000000000000D+00 0.685842413588843D+03
 0.685842413588843D+03 -.000000000000000D+00 -.000000000000000D+00 -.685842413588843D+03
 0.635029034028433D+03 -.470165448973660D+03 0.135518716193751D+03 0.384988314383279D+03
 0.667042680010719D+03 0.479894790614341D+03 -.111636981334076D+03 -.449648875563718D+03
 0.696131131385332D+02 -.972934164068026D+01 -.238817348596746D+02 0.646605611804394D+02
 0.000000000000000D+00 0.000000000000000D+00 0.000000000000000D+00 -.000000000000000D+00
 0.685842413588843D+03 0.000000000000000D+00 0.000000000000000D+00 0.685842413588843D+03
 0.685842413588843D+03 -.000000000000000D+00 -.000000000000000D+00 -.685842413588843D+03
 0.609793047737248D+03 -.451564912831945D+03 0.131191710052679D+03 0.367560098189688D+03
 0.128859113958675D+03 0.116539594274495D+03 0.539773271000555D+02 -.104710255316526D+02
 0.677370609606802D+02 -.767701069730594D+01 -.243591645707234D+02 0.627375807292628D+02
 0.565295604521083D+03 0.342702329254756D+03 -.160809872582011D+03 -.419826653387298D+03
0.112942639926D-02 0.000000000000D+00 0.000000000000D+00 0.216061789448D-05 0.128976888169D-09  6 -1 1 25 2 -2 21 2 0.16780009D-01 0.66348297D+00 0.25963916D+06 0.25963916D+06 0.25963916D+06 0.10892252D+01  1  2  1  3  6  4        2 0.192251578755D-03 0.100000000000D+01
  </mgrwgt>
  </event>
  <event>
  5     66 0.18829897E-05 0.11658276E+03 0.75467711E-02 0.94961882E-01
       -1 -1    0    0    0  501 0.00000000E+00 0.00000000E+00 0.61446274E+03 0.61446282E+03 0.32000000E+00 0.0000E+00 0.9000E+01
        1 -1    0    0  502    0 -.00000000E+00 -.00000000E+00 -.14099737E+04 0.14099737E+04 0.32000000E+00 0.0000E+00 0.9000E+01
       25  1    1    2    0    0 0.11116984E+03 0.46234328E+03 0.14460067E+03 0.51249819E+03 0.12500000E+03 0.0000E+00 0.9000E+01
        2  1    1    2  502    0 -.51070207E+02 -.29802384E+03 -.11782528E+04 0.12164317E+04 0.32000000E+00 0.0000E+00 0.9000E+01
       -2  1    1    2    0  501 -.60099638E+02 -.16431945E+03 0.23814118E+03 0.29550663E+03 0.32000000E+00 0.0000E+00 0.9000E+01
#aMCatNLO 1  0  0  4  2 0.19153290D+02 0.00000000D+00  -5  6  0 0.00000000D+00 0.00000000D+00 0.00000000D+00 0.00000000D+00 0.00000000D+00
  <mgrwgt>
 0.7049691579D-03    8    2    0
 0.930793437161484D+03 0.000000000000000D+00 0.000000000000000D+00 0.930793437161484D+03
 0.930793437161484D+03 -.000000000000000D+00 -.000000000000000D+00 -.930793437161484D+03
 0.619229097034516D+03 0.111156759154475D+03 0.462333538466486D+03 0.376445943951472D+03
 0.819399906990445D+03 -.510804158639207D+02 -.298077782760166D+03 -.761548838956440D+03
 0.422957870298007D+03 -.600763432905544D+02 -.164255755706320D+03 0.385102895004968D+03
 0.000000000000000D+00 0.000000000000000D+00 -.000000000000000D+00 0.000000000000000D+00
 0.930793437161484D+03 0.000000000000000D+00 0.000000000000000D+00 0.930793437161484D+03
 0.930793437161484D+03 -.000000000000000D+00 -.000000000000000D+00 -.930793437161484D+03
 0.618975477360385D+03 0.111138109012408D+03 0.462224706286842D+03 0.376167892299044D+03
 0.436880743872219D+03 -.438462264713762D+02 -.149612349338704D+03 -.408115716085423D+03
 0.422815646331074D+03 -.600890825394378D+02 -.164330095098374D+03 0.384912967808168D+03
 0.382915006759290D+03 -.720280000159374D+01 -.148282261849764D+03 -.352965144021788D+03
0.207699703855D-04 0.000000000000D+00 0.000000000000D+00 0.720376821770D-05 0.000000000000D+00  6 -1 1 25 2 -2 21 0 0.94532738D-01 0.21691904D+00 0.23473246D+06 0.23473246D+06 0.23473246D+06 0.10925239D+01  1  2  2  3  6  4        2 0.224084322964D-04 0.100000000000D+01
0.159098607018D-05 0.000000000000D+00 -.797621551391D-07 0.720376821770D-05 0.000000000000D+00  6 -1 1 25 2 -2 21 2 0.94532738D-01 0.21691904D+00 0.23473246D+06 0.23473246D+06 0.23473246D+06 0.10925239D+01  1  2  3  3  6  4        2 0.204882028168D-05 0.100000000000D+01
-.154248457370D-04 0.000000000000D+00 0.000000000000D+00 0.720376821770D-05 0.000000000000D+00  6 -1 1 25 2 -2 21 2 0.94532738D-01 0.21691904D+00 0.23473246D+06 0.23473246D+06 0.23473246D+06 0.10925239D+01  1  2 15  3  6  4        2 -.198636162691D-04 0.100000000000D+01
0.219946471485D-08 0.000000000000D+00 0.000000000000D+00 0.720376821770D-05 0.000000000000D+00  6 -1 1 25 2 -2 21 2 0.94532738D-01 0.21691904D+00 0.23565721D+06 0.23565721D+06 0.23565721D+06 0.10923947D+01  1  2 12  3  6  4        2 0.283104532514D-08 0.100000000000D+01
0.185483345719D-02 0.000000000000D+00 0.000000000000D+00 0.720376821770D-05 0.000000000000D+00  6 -1 1 25 2 -2 21 2 0.94532738D-01 0.21691904D+00 0.23565721D+06 0.23565721D+06 0.23565721D+06 0.10923947D+01  1  2 12  3  6  4        2 0.238745252534D-02 0.100000000000D+01
-.235840706589D-02 0.000000000000D+00 0.000000000000D+00 0.720376821770D-05 0.000000000000D+00  6 -1 1 25 2 -2 21 2 0.94532738D-01 0.21691904D+00 0.23473246D+06 0.23473246D+06 0.23473246D+06 0.10925239D+01  1  2  4  3  6  4        2 -.303708016029D-02 0.100000000000D+01
-.187896567776D-02 0.000000000000D+00 0.000000000000D+00 0.720376821770D-05 0.000000000000D+00  6 -1 1 25 2 -2 21 2 0.94532738D-01 0.21691904D+00 0.23473246D+06 0.23473246D+06 0.23473246D+06 0.10925239D+01  1  2  5  3  6  4        2 -.241967108407D-02 0.100000000000D+01
0.292729174704D-02 0.000000000000D+00 -.000000000000D+00 0.720376821770D-05 0.000000000000D+00  6 -1 1 25 2 -2 21 2 0.94532738D-01 0.21691904D+00 0.23473246D+06 0.23473246D+06 0.23473246D+06 0.10925239D+01  1  2  6  3  6  4        2 0.376967140952D-02 0.100000000000D+01
  </mgrwgt>
  </event>
  <event>
  6     66 0.18829897E-05 0.15185885E+02 0.75467711E-02 0.92007639E-01
       -1 -1    0    0    0  501 0.00000000E+00 0.00000000E+00 0.10230861E+04 0.10230862E+04 0.32000000E+00 0.0000E+00 0.9000E+01
        1 -1    0    0  503    0 0.00000000E+00 0.00000000E+00 -.84451099E+03 0.84451105E+03 0.32000000E+00 0.0000E+00 0.9000E+01
       25  1    1    2    0    0 0.48704882E+03 -.35238639E+03 0.47429264E+03 0.77586805E+03 0.12500000E+03 0.0000E+00 0.9000E+01
        2  1    1    2  502    0 -.48693488E+03 0.34548761E+03 -.29715420E+03 0.66690929E+03 0.32000000E+00 0.0000E+00 0.9000E+01
       -2  1    1    2    0  501 0.27760059E+02 -.13226112E+01 0.21121552E+03 0.21303631E+03 0.32000000E+00 0.0000E+00 0.9000E+01
       21  1    1    2  503  502 -.27873993E+02 0.82213857E+01 -.20977884E+03 0.21178356E+03 0.75000000E+00 0.0000E+00 0.9000E+01
#aMCatNLO 2  0  0  2  2 0.25682770D+03 0.00000000D+00  -5  6  0 0.00000000D+00 0.00000000D+00 0.00000000D+00 0.00000000D+00 0.00000000D+00
  <mgrwgt>
 0.6380369928D-02    1    2    0
 0.804682464482604D+03 0.000000000000000D+00 0.000000000000000D+00 0.804682464482604D+03
 0.804682464482604D+03 0.000000000000000D+00 0.000000000000000D+00 -.804682464482604D+03
 0.673776025114343D+03 0.475421526165332D+03 -.348989389509164D+03 0.300881887935336D+03
 0.768107557809132D+03 -.500236122681502D+03 0.349453371175434D+03 -.466514076210151D+03
 0.167481346041733D+03 0.248145965161703D+02 -.463981666270465D+00 0.165632188274815D+03
 0.000000000000000D+00 -.000000000000000D+00 0.000000000000000D+00 -.000000000000000D+00
 0.805602404972810D+03 0.000000000000000D+00 0.000000000000000D+00 0.805602404972810D+03
 0.107249734014148D+04 0.000000000000000D+00 0.000000000000000D+00 -.107249734014148D+04
 0.683902906471588D+03 0.487177979711699D+03 -.352456935066941D+03 0.300881887935336D+03
 0.757783582075712D+03 -.487023081007566D+03 0.345556207478875D+03 -.466514076210151D+03
 0.167940805341432D+03 0.277190939267269D+02 -.132065813369575D+01 0.165632188274815D+03
 0.268472451225562D+03 -.278739926308593D+02 0.822138572176124D+01 -.266894935168674D+03
0.731930835896D-02 0.000000000000D+00 0.000000000000D+00 0.619272142658D-05 0.507272867512D-07  6 -1 1 25 2 -2 21 2 0.15739777D+00 0.12992469D+00 0.40204016D+06 0.40204016D+06 0.40204016D+06 0.10752684D+01  1  2  1  2  6  2        1 0.638036992750D-02 0.100000000000D+01
  </mgrwgt>
  </event>
  <event>
  5     66 -.18829897E-05 0.60813380E+02 0.75467711E-02 0.95080007E-01
       -1 -1    0    0    0  501 0.00000000E+00 0.00000000E+00 0.23381849E+03 0.23381870E+03 0.32000000E+00 0.0000E+00 0.9000E+01
        1 -1    0    0  502    0 -.00000000E+00 -.00000000E+00 -.21695353E+04 0.21695353E+04 0.32000000E+00 0.0000E+00 0.9000E+01
       25  1    1    2    0    0 -.27796957E+03 -.37858526E+03 -.18892952E+03 0.52145301E+03 0.12500000E+03 0.0000E+00 0.9000E+01
        2  1    1    2  502    0 0.22621543E+03 0.34644406E+03 -.17692359E+04 0.18169735E+04 0.32000000E+00 0.0000E+00 0.9000E+01
       -2  1    1    2    0  501 0.51754142E+02 0.32141193E+02 0.22448567E+02 0.64927560E+02 0.32000000E+00 0.0000E+00 0.9000E+01
#aMCatNLO 1  0  0  4  2 0.45827265D+01 0.00000000D+00  -5  6  0 0.00000000D+00 0.00000000D+00 0.00000000D+00 0.00000000D+00 0.00000000D+00
  <mgrwgt>
 -.6928624125D-03    9    2    0
 0.712234338663096D+03 0.000000000000000D+00 0.000000000000000D+00 0.712234338663096D+03
 0.712234338663096D+03 -.000000000000000D+00 -.000000000000000D+00 -.712234338663096D+03
 0.623217737019330D+03 -.277940565540857D+03 -.378613323317976D+03 0.390097861014952D+03
 0.661451285403071D+03 0.226279097784383D+03 0.346529683818507D+03 -.515977471504237D+03
 0.139799654903792D+03 0.516614677564745D+02 0.320836394994690D+02 0.125879610489285D+03
 0.000000000000000D+00 0.000000000000000D+00 0.000000000000000D+00 -.000000000000000D+00
 0.712234338663096D+03 0.000000000000000D+00 0.000000000000000D+00 0.712234338663096D+03
 0.712234338663096D+03 -.000000000000000D+00 -.000000000000000D+00 -.712234338663096D+03
 0.623060300769037D+03 -.277884410985978D+03 -.378527326775044D+03 0.389969813459859D+03
 0.632161888854252D+03 0.214486914254374D+03 0.335004521020508D+03 -.491320657238460D+03
 0.139782876231772D+03 0.516740651321097D+02 0.321029314475037D+02 0.125850885069697D+03
 0.294636114711325D+02 0.117234315994943D+02 0.114198743070325D+02 -.245000412910960D+02
0.130413991063D-04 0.000000000000D+00 0.000000000000D+00 0.251641912937D-05 0.000000000000D+00  6 -1 1 25 2 -2 21 0 0.35972093D-01 0.33377468D+00 0.23074005D+06 0.23074005D+06 0.23074005D+06 0.10930881D+01  1  2  2  3  6  4        2 0.275006882393D-04 0.100000000000D+01
0.192068126851D-05 0.000000000000D+00 -.500824064476D-07 0.251641912937D-05 0.000000000000D+00  6 -1 1 25 2 -2 21 2 0.35972093D-01 0.33377468D+00 0.23074005D+06 0.23074005D+06 0.23074005D+06 0.10930881D+01  1  2  3  3  6  4        2 0.483932734102D-05 0.100000000000D+01
-.945775590373D-05 0.000000000000D+00 0.000000000000D+00 0.251641912937D-05 0.000000000000D+00  6 -1 1 25 2 -2 21 2 0.35972093D-01 0.33377468D+00 0.23074005D+06 0.23074005D+06 0.23074005D+06 0.10930881D+01  1  2 15  3  6  4        2 -.238296574658D-04 0.100000000000D+01
0.136745661156D-07 0.000000000000D+00 0.000000000000D+00 0.251641912937D-05 0.000000000000D+00  6 -1 1 25 2 -2 21 2 0.35972093D-01 0.33377468D+00 0.23083934D+06 0.23083934D+06 0.23083934D+06 0.10930739D+01  1  2 12  3  6  4        2 0.344525735671D-07 0.100000000000D+01
0.484050972108D-03 0.000000000000D+00 0.000000000000D+00 0.251641912937D-05 0.000000000000D+00  6 -1 1 25 2 -2 21 2 0.35972093D-01 0.33377468D+00 0.23083934D+06 0.23083934D+06 0.23083934D+06 0.10930739D+01  1  2 12  3  6  4        2 0.121954887532D-02 0.100000000000D+01
-.684943437440D-02 0.000000000000D+00 0.000000000000D+00 0.251641912937D-05 0.000000000000D+00  6 -1 1 25 2 -2 21 2 0.35972093D-01 0.33377468D+00 0.23074005D+06 0.23074005D+06 0.23074005D+06 0.10930881D+01  1  2  4  3  6  4        2 -.172577593076D-01 0.100000000000D+01
-.512743364582D-02 0.000000000000D+00 0.000000000000D+00 0.251641912937D-05 0.000000000000D+00  6 -1 1 25 2 -2 21 2 0.35972093D-01 0.33377468D+00 0.23074005D+06 0.23074005D+06 0.23074005D+06 0.10930881D+01  1  2  5  3  6  4        2 -.129190252637D-01 0.100000000000D+01
0.536091101461D-02 0.000000000000D+00 -.000000000000D+00 0.251641912937D-05 0.000000000000D+00  6 -1 1 25 2 -2 21 2 0.35972093D-01 0.33377468D+00 0.23074005D+06 0.23074005D+06 0.23074005D+06 0.10930881D+01  1  2  6  3  6  4        2 0.135072922671D-01 0.100000000000D+01
0.585383942537D-02 0.000000000000D+00 0.000000000000D+00 0.251641912937D-05 0.904453975580D-06  6 -1 1 25 2 -2 21 2 0.35972093D-01 0.33377468D+00 0.23083934D+06 0.23083934D+06 0.23083934D+06 0.10930739D+01  1  2 11  3  6  4        2 0.147485362056D-01 0.100000000000D+01
  </mgrwgt>
  </event>
  <event>
  6     66 0.18829897E-05 0.47262665E+02 0.75467711E-02 0.91582446E-01
       -1 -1    0    0    0  501 0.00000000E+00 0.00000000E+00 0.95786685E+03 0.95786690E+03 0.32000000E+00 0.0000E+00 0.9000E+01
        1 -1    0    0  502    0 -.00000000E+00 -.00000000E+00 -.97195324E+03 0.97195329E+03 0.32000000E+00 0.0000E+00 0.9000E+01
       25  1    1    2    0    0 -.55807617E+03 -.26645418E+03 -.60957438E+03 0.87729856E+03 0.12500000E+03 0.0000E+00 0.9000E+01
        2  1    1    2  503    0 -.18191651E+02 -.24756909E+02 -.91011298E+02 0.96057271E+02 0.32000000E+00 0.0000E+00 0.9000E+01
       -2  1    1    2    0  501 0.52880478E+03 0.22469926E+03 0.64828948E+03 0.86625839E+03 0.32000000E+00 0.0000E+00 0.9000E+01
       21  1    1    2  502  503 0.47463037E+02 0.66511834E+02 0.38209810E+02 0.90205964E+02 0.75000000E+00 0.0000E+00 0.9000E+01
#aMCatNLO 2  0  0  4  5 0.85434117D+02 0.00000000D+00  -5  6  0 0.00000000D+00 0.00000000D+00 0.00000000D+00 0.00000000D+00 0.00000000D+00
  <mgrwgt>
 0.2694730195D-03    3    2    0
 0.964884390209705D+03 0.000000000000000D+00 0.000000000000000D+00 0.964884390209705D+03
 0.964884390209705D+03 -.000000000000000D+00 -.000000000000000D+00 -.964884390209705D+03
 0.871542209289866D+03 -.579410843297195D+03 -.296883265357490D+03 -.565777539315735D+03
 0.178199227602941D+03 0.720135597171308D+02 0.102743476400020D+03 -.126541653191312D+03
 0.880027343526603D+03 0.507397283580065D+03 0.194139788957469D+03 0.692319192507047D+03
 0.000000000000000D+00 0.000000000000000D+00 0.000000000000000D+00 0.000000000000000D+00
 0.964884390209705D+03 0.000000000000000D+00 0.000000000000000D+00 0.964884390209705D+03
 0.964884390209705D+03 -.000000000000000D+00 -.000000000000000D+00 -.964884390209705D+03
 0.872926436534449D+03 -.558063118793539D+03 -.266425953743524D+03 -.603289590673513D+03
 0.948572311952989D+02 -.187240511180781D+02 -.255203363032738D+02 -.894204487504608D+02
 0.871056124250598D+03 0.528825956168990D+03 0.224712591150170D+03 0.654664899818986D+03
 0.909289884390634D+02 0.479612137426264D+02 0.672336988966279D+02 0.380451396049876D+02
-.714912844667D-08 0.000000000000D+00 0.000000000000D+00 0.144973775095D-06 0.000000000000D+00  6 -1 1 25 2 -2 21 2 0.14736414D+00 0.14953128D+00 0.43542489D+06 0.43542489D+06 0.43542489D+06 0.10727809D+01  1  2 13  3  6  4        2 -.589819514084D-08 0.100000000000D+01
-.105094183378D-07 0.000000000000D+00 0.000000000000D+00 0.144973775095D-06 0.000000000000D+00  6 -1 1 25 2 -2 21 2 0.14736414D+00 0.14953128D+00 0.44333750D+06 0.44333750D+06 0.44333750D+06 0.10722218D+01  1  2  8  3  6  4        2 -.865151446929D-08 0.100000000000D+01
0.326642506918D-03 0.000000000000D+00 0.000000000000D+00 0.144973775095D-06 0.195105186511D-08  6 -1 1 25 2 -2 21 2 0.14736414D+00 0.14953128D+00 0.43542489D+06 0.43542489D+06 0.43542489D+06 0.10727809D+01  1  2  1  3  6  4        2 0.269487569214D-03 0.100000000000D+01
  </mgrwgt>
  </event>
  <event>
  6     66 0.18829897E-05 0.25256061E+02 0.75467711E-02 0.93569009E-01
       -1 -1    0    0    0  501 0.00000000E+00 0.00000000E+00 0.92300306E+03 0.92300312E+03 0.32000000E+00 0.0000E+00 0.9000E+01
        1 -1    0    0  502    0 -.00000000E+00 -.00000000E+00 -.16613470E+04 0.16613470E+04 0.32000000E+00 0.0000E+00 0.9000E+01
       25  1    1    2    0    0 0.44756916E+03 0.23084685E+03 -.90379732E+03 0.10421531E+04 0.12500000E+03 0.0000E+00 0.9000E+01
        2  1    1    2  503    0 -.38872136E+03 -.20042266E+03 -.45042990E+03 0.62782222E+03 0.32000000E+00 0.0000E+00 0.9000E+01
       -2  1    1    2    0  501 0.16426831E+02 0.37650655E+02 0.74724432E+03 0.74837263E+03 0.32000000E+00 0.0000E+00 0.9000E+01
       21  1    1    2  502  503 -.75274634E+02 -.68074854E+02 -.13136101E+03 0.16600221E+03 0.75000000E+00 0.0000E+00 0.9000E+01
#aMCatNLO 2  0  0  4  2 0.26383003D+02 0.00000000D+00  -5  6  0 0.00000000D+00 0.00000000D+00 0.00000000D+00 0.00000000D+00 0.00000000D+00
  <mgrwgt>
 0.6718470982D-02    3    2    0
 0.123831678599188D+04 0.000000000000000D+00 0.000000000000000D+00 0.123831678599188D+04
 0.123831678599188D+04 -.000000000000000D+00 -.000000000000000D+00 -.123831678599188D+04
 0.818116985188434D+03 0.448358619056459D+03 0.231303263287151D+03 -.631794072910085D+03
 0.654045347598113D+03 -.465734219601658D+03 -.269502499154230D+03 -.371800156477099D+03
 0.100447123919722D+04 0.173756005451995D+02 0.381992358670793D+02 0.100359422938718D+04
 0.000000000000000D+00 0.000000000000000D+00 0.000000000000000D+00 -.000000000000000D+00
 0.123831678599188D+04 0.000000000000000D+00 0.000000000000000D+00 0.123831678599188D+04
 0.123831678599188D+04 -.000000000000000D+00 -.000000000000000D+00 -.123831678599188D+04
 0.818044073486770D+03 0.447584722699619D+03 0.230855439198912D+03 -.632411881897400D+03
 0.520725897933597D+03 -.388661767944747D+03 -.200363439082801D+03 -.282757817214178D+03
 0.100367686979363D+04 0.164257560923550D+02 0.376495973756918D+02 0.100283595932384D+04
 0.134186730769769D+03 -.753487108472268D+02 -.681415974918023D+02 -.876662602122660D+02
-.470559924670D-08 0.000000000000D+00 0.000000000000D+00 0.427066434136D-04 0.000000000000D+00  6 -1 1 25 2 -2 21 2 0.14200048D+00 0.25559185D+00 0.30185691D+06 0.30185691D+06 0.30185691D+06 0.10843537D+01  1  2 13  3  6  4        2 -.147913791102D-08 0.100000000000D+01
-.830386879975D-01 0.000000000000D+00 0.000000000000D+00 0.427066434136D-04 0.000000000000D+00  6 -1 1 25 2 -2 21 2 0.14200048D+00 0.25559185D+00 0.30185691D+06 0.30185691D+06 0.30185691D+06 0.10843537D+01  1  2 13  3  6  4        2 -.261020254933D-01 0.100000000000D+01
0.104412245337D+00 0.000000000000D+00 0.000000000000D+00 0.427066434136D-04 0.313578031406D-06  6 -1 1 25 2 -2 21 2 0.14200048D+00 0.25559185D+00 0.30185691D+06 0.30185691D+06 0.30185691D+06 0.10843537D+01  1  2  1  3  6  4        2 0.328204979548D-01 0.100000000000D+01
  </mgrwgt>
  </event>
  <event>
  6     66 -.18829897E-05 0.37504969E+02 0.75467711E-02 0.93169606E-01
       -1 -1    0    0    0  501 0.00000000E+00 0.00000000E+00 0.89083450E+03 0.89083456E+03 0.32000000E+00 0.0000E+00 0.9000E+01
        1 -1    0    0  502    0 0.00000000E+00 0.00000000E+00 -.56060998E+03 0.56061007E+03 0.32000000E+00 0.0000E+00 0.9000E+01
       25  1    1    2    0    0 -.40069078E+03 -.39053338E+03 0.45871910E+02 0.57515099E+03 0.12500000E+03 0.0000E+00 0.9000E+01
        2  1    1    2  503    0 0.22635735E+02 0.81359313E+00 -.10315346E+03 0.10561144E+03 0.32000000E+00 0.0000E+00 0.9000E+01
       -2  1    1    2    0  501 0.35761642E+03 0.37451455E+03 0.46074525E+03 0.69313558E+03 0.32000000E+00 0.0000E+00 0.9000E+01
       21  1    1    2  502  503 0.20438628E+02 0.15205245E+02 -.73239183E+02 0.77546615E+02 0.75000000E+00 0.0000E+00 0.9000E+01
#aMCatNLO 2  0  0  4  2 0.88209206D+01 0.00000000D+00  -5  6  0 0.00000000D+00 0.00000000D+00 0.00000000D+00 0.00000000D+00 0.00000000D+00
  <mgrwgt>
 -.1405913015D-02    3    2    0
 0.706690043162335D+03 0.000000000000000D+00 0.000000000000000D+00 0.706690043162335D+03
 0.706690043162335D+03 -.000000000000000D+00 -.000000000000000D+00 -.706690043162335D+03
 0.579969581287074D+03 -.400759067782525D+03 -.390574316548871D+03 -.870837990717390D+02
 0.229114998526414D+03 0.431765000239957D+02 0.160572715836320D+02 -.224436263613361D+03
 0.604295506511183D+03 0.357582567758529D+03 0.374517044965239D+03 0.311520062685100D+03
 0.000000000000000D+00 0.000000000000000D+00 0.000000000000000D+00 0.000000000000000D+00
 0.706690043162335D+03 0.000000000000000D+00 0.000000000000000D+00 0.706690043162335D+03
 0.706690043162335D+03 -.000000000000000D+00 -.000000000000000D+00 -.706690043162335D+03
 0.579960985945474D+03 -.400705224588463D+03 -.390554292350766D+03 -.873636820008709D+02
 0.132053661856974D+03 0.225439770195900D+02 0.778853333445019D+00 -.130112766850380D+03
 0.604191372984023D+03 0.357638664903835D+03 0.374537907404222D+03 0.311228463465969D+03
 0.971740655381974D+02 0.205225826650376D+02 0.152375316130986D+02 -.937520146147186D+02
-.177315654154D-07 0.000000000000D+00 0.000000000000D+00 0.344027985361D-05 0.000000000000D+00  6 -1 1 25 2 -2 21 2 0.13705147D+00 0.86247700D-01 0.32451612D+06 0.32451612D+06 0.32451612D+06 0.10820369D+01  1  2 13  3  6  4        2 -.438507672186D-07 0.100000000000D+01
-.118081975234D-02 0.000000000000D+00 0.000000000000D+00 0.344027985361D-05 0.000000000000D+00  6 -1 1 25 2 -2 21 2 0.13705147D+00 0.86247700D-01 0.32451612D+06 0.32451612D+06 0.32451612D+06 0.10820369D+01  1  2 13  3  6  4        2 -.292020760006D-02 0.100000000000D+01
0.612340278964D-03 0.000000000000D+00 0.000000000000D+00 0.344027985361D-05 0.526271203187D-07  6 -1 1 25 2 -2 21 2 0.13705147D+00 0.86247700D-01 0.32451612D+06 0.32451612D+06 0.32451612D+06 0.10820369D+01  1  2  1  3  6  4        2 0.151433843558D-02 0.100000000000D+01
  </mgrwgt>
  </event>
  <event>
  5     66 -.18829897E-05 0.47860797E+02 0.75467711E-02 0.90104984E-01
       -1 -1    0    0    0  501 0.00000000E+00 0.00000000E+00 0.47687164E+03 0.47687175E+03 0.32000000E+00 0.0000E+00 0.9000E+01
        1 -1    0    0  502    0 0.00000000E+00 0.00000000E+00 -.31658694E+04 0.31658695E+04 0.32000000E+00 0.0000E+00 0.9000E+01
       25  1    1    2    0    0 -.47965583E+03 0.55472648E+03 -.81145587E+03 0.11008528E+04 0.12500000E+03 0.0000E+00 0.9000E+01
        2  1    1    2  502    0 0.43706428E+03 -.57657691E+03 -.21483363E+04 0.22668954E+04 0.32000000E+00 0.0000E+00 0.9000E+01
       -2  1    1    2    0  501 0.42591547E+02 0.21850433E+02 0.27079433E+03 0.27499300E+03 0.32000000E+00 0.0000E+00 0.9000E+01
#aMCatNLO 1  0  0  1  5 0.68760918D+01 0.00000000D+00  -5  6  0 0.00000000D+00 0.00000000D+00 0.00000000D+00 0.00000000D+00 0.00000000D+00
  <mgrwgt>
 -.1487768422D-01   13    4    0
 0.122870402081945D+04 0.000000000000000D+00 0.000000000000000D+00 0.122870402081945D+04
 0.122870402081945D+04 0.000000000000000D+00 0.000000000000000D+00 -.122870402081945D+04
 0.744007791778095D+03 -.479705373813811D+03 0.554799064419886D+03 0.182939320215718D+01
 0.100957659924123D+04 0.437121498492372D+03 -.576645561617643D+03 -.704023864338374D+03
 0.703823650619581D+03 0.425838753214388D+02 0.218464971977569D+02 0.702194471136217D+03
 0.000000000000000D+00 0.000000000000000D+00 0.000000000000000D+00 0.000000000000000D+00
 0.151022265776501D+04 0.000000000000000D+00 0.000000000000000D+00 0.151022265776501D+04
 0.122875081866849D+04 0.000000000000000D+00 0.000000000000000D+00 -.122875081866849D+04
 0.744337420993006D+03 -.481477228618645D+03 0.553705271722007D+03 0.182939320215718D+01
 0.100938733629925D+04 0.434717949289353D+03 -.578129308796071D+03 -.704023864338374D+03
 0.703692904349748D+03 0.409082459382785D+02 0.208121059041515D+02 0.702194471136217D+03
 0.281555814791493D+03 0.585103339101291D+01 0.361193116991252D+01 0.281471839096529D+03
 0.122870402081945D+04 0.000000000000000D+00 0.000000000000000D+00 0.122870402081945D+04
 0.122870402081945D+04 0.000000000000000D+00 0.000000000000000D+00 -.122870402081945D+04
 0.744007791778095D+03 -.479705373813811D+03 0.554799064419886D+03 0.182939320215718D+01
 0.100957659924123D+04 0.437121498492372D+03 -.576645561617643D+03 -.704023864338374D+03
 0.000000000000000D+00 0.000000000000000D+00 0.000000000000000D+00 0.000000000000000D+00
 0.703823650619581D+03 0.425838753214388D+02 0.218464971977569D+02 0.702194471136217D+03
 0.151022265776501D+04 0.000000000000000D+00 0.000000000000000D+00 0.151022265776501D+04
 0.122875081866849D+04 0.000000000000000D+00 0.000000000000000D+00 -.122875081866849D+04
 0.744337420993006D+03 -.481477228618645D+03 0.553705271722007D+03 0.182939320215718D+01
 0.100938733629925D+04 0.434717949289353D+03 -.578129308796071D+03 -.704023864338374D+03
 0.281555814791493D+03 0.585103339101291D+01 0.361193116991252D+01 0.281471839096529D+03
 0.703692904349748D+03 0.409082459382785D+02 0.208121059041515D+02 0.702194471136217D+03
0.446230316256D-04 0.000000000000D+00 0.000000000000D+00 0.290536602895D-04 0.000000000000D+00  6 -1 1 25 2 -2 21 0 0.73364877D-01 0.48705685D+00 0.57415869D+06 0.57415869D+06 0.57415869D+06 0.10642913D+01  1  2  2  1  6  1       -1 0.460770581074D-05 0.100000000000D+01
0.237177437960D-04 0.000000000000D+00 -.171364190956D-06 0.290536602895D-04 0.000000000000D+00  6 -1 1 25 2 -2 21 2 0.73364877D-01 0.48705685D+00 0.57415869D+06 0.57415869D+06 0.57415869D+06 0.10642913D+01  1  2  3  1  6  1       -1 0.277408671386D-05 0.100000000000D+01
-.298091982949D-04 0.000000000000D+00 0.000000000000D+00 0.290536602895D-04 0.000000000000D+00  6 -1 1 25 2 -2 21 2 0.73364877D-01 0.48705685D+00 0.57415869D+06 0.57415869D+06 0.57415869D+06 0.10642913D+01  1  2 15  1  6  1       -1 -.348655848768D-05 0.100000000000D+01
0.122280134667D-07 0.000000000000D+00 0.000000000000D+00 0.290536602895D-04 0.000000000000D+00  6 -1 1 25 2 -2 21 2 0.90175304D-01 0.48705685D+00 0.57793753D+06 0.57793753D+06 0.57793753D+06 0.10640924D+01  1  2 12  1  6  1       -1 0.930427956862D-09 0.100000000000D+01
0.141440997905D+00 0.000000000000D+00 0.000000000000D+00 0.290536602895D-04 0.000000000000D+00  6 -1 1 25 2 -2 21 2 0.92440772D-01 0.48705685D+00 0.57793753D+06 0.57793753D+06 0.57793753D+06 0.10640924D+01  1  2 12  1  6  1       -1 0.101978619714D-01 0.100000000000D+01
-.279611189383D+00 0.000000000000D+00 0.000000000000D+00 0.290536602895D-04 0.000000000000D+00  6 -1 1 25 2 -2 21 2 0.73364877D-01 0.48705685D+00 0.57415869D+06 0.57415869D+06 0.57415869D+06 0.10642913D+01  1  2  4  1  6  1       -1 -.327040249775D-01 0.100000000000D+01
-.173064587959D+00 0.000000000000D+00 -.634052637013D-04 0.290536602895D-04 0.000000000000D+00  6 -1 1 25 2 -2 21 2 0.90175519D-01 0.48705685D+00 0.57415869D+06 0.57415869D+06 0.57415869D+06 0.10642913D+01  1  2  5  1  6  1       -1 -.131814387413D-01 0.100000000000D+01
0.169459665674D+00 0.000000000000D+00 0.620793688955D-04 0.290536602895D-04 0.000000000000D+00  6 -1 1 25 2 -2 21 2 0.73364877D-01 0.48705685D+00 0.57415869D+06 0.57415869D+06 0.57415869D+06 0.10642913D+01  1  2  6  1  6  1       -1 0.198204268975D-01 0.100000000000D+01
0.167138698673D-01 0.000000000000D+00 0.000000000000D+00 0.290536602895D-04 0.111956442210D-04  6 -1 1 25 2 -2 21 2 0.90174116D-01 0.48707540D+00 0.57793753D+06 0.57793753D+06 0.57793753D+06 0.10640924D+01  1  2 11  1  6  1       -1 0.127151962557D-02 0.100000000000D+01
0.358339163779D-09 0.000000000000D+00 0.000000000000D+00 0.290536602895D-04 0.000000000000D+00  6 21 1 25 2 1 -2 2 0.90175304D-01 0.48705685D+00 0.57793753D+06 0.57793753D+06 0.57793753D+06 0.10640924D+01  3  4 12  5  5  1       -1 0.193285025759D-09 0.100000000000D+01
0.451581775631D-02 0.000000000000D+00 0.000000000000D+00 0.290536602895D-04 0.000000000000D+00  6 21 1 25 2 1 -2 2 0.92440772D-01 0.48705685D+00 0.57793753D+06 0.57793753D+06 0.57793753D+06 0.10640924D+01  3  4 12  5  5  1       -1 0.228708915954D-02 0.100000000000D+01
-.507089307156D-02 0.000000000000D+00 -.185809326992D-05 0.290536602895D-04 0.000000000000D+00  6 21 1 25 2 1 -2 2 0.90175519D-01 0.48705685D+00 0.57415869D+06 0.57415869D+06 0.57415869D+06 0.10642913D+01  3  4  5  5  5  1       -1 -.273839284164D-02 0.100000000000D+01
0.306657331355D-03 0.000000000000D+00 0.000000000000D+00 0.290536602895D-04 0.124948721188D-06  6 21 1 25 2 1 -2 2 0.90174116D-01 0.48707540D+00 0.57793753D+06 0.57793753D+06 0.57793753D+06 0.10640924D+01  3  4 11  5  5  1       -1 0.165378332218D-03 0.100000000000D+01
  </mgrwgt>
  </event>
  <event>
  6     66 0.18829897E-05 0.18259402E+03 0.75467711E-02 0.94730317E-01
       -1 -1    0    0    0  501 0.00000000E+00 0.00000000E+00 0.11842998E+04 0.11842998E+04 0.32000000E+00 0.0000E+00 0.9000E+01
        1 -1    0    0  503    0 0.00000000E+00 0.00000000E+00 -.45842617E+03 0.45842629E+03 0.32000000E+00 0.0000E+00 0.9000E+01
       25  1    1    2    0    0 0.22242711E+03 -.41842770E+03 0.99528893E+02 0.50008655E+03 0.12500000E+03 0.0000E+00 0.9000E+01
        2  1    1    2  502    0 -.72380925E+02 0.21315073E+03 0.85794695E+02 0.24090053E+03 0.32000000E+00 0.0000E+00 0.9000E+01
       -2  1    1    2    0  501 0.15958902E+02 0.30676575E+02 0.64011900E+03 0.64105239E+03 0.32000000E+00 0.0000E+00 0.9000E+01
       21  1    1    2  503  502 -.16600509E+03 0.17460040E+03 -.99568964E+02 0.26068665E+03 0.75000000E+00 0.0000E+00 0.9000E+01
#aMCatNLO 2  0  0  2  1 0.11688140D+04 0.00000000D+00  -5  6  0 0.00000000D+00 0.00000000D+00 0.00000000D+00 0.00000000D+00 0.00000000D+00
  <mgrwgt>
 0.1111161563D-01    1    2    0
 0.540979358368146D+03 0.000000000000000D+00 0.000000000000000D+00 0.540979358368146D+03
 0.540979358368146D+03 0.000000000000000D+00 0.000000000000000D+00 -.540979358368146D+03
 0.461212778978350D+03 0.145863941393562D+03 -.337933390096012D+03 -.248227641394515D+03
 0.287849896140181D+03 -.112147913423051D+03 0.255023703397285D+03 -.724107652790844D+02
 0.332896041617761D+03 -.337160279705107D+02 0.829096866987274D+02 0.320638406673600D+03
 0.000000000000000D+00 -.000000000000000D+00 0.000000000000000D+00 -.000000000000000D+00
 0.594679866568094D+03 0.000000000000000D+00 0.000000000000000D+00 0.594679866568094D+03
 0.912950937258426D+03 0.000000000000000D+00 0.000000000000000D+00 -.912950937258426D+03
 0.549422206655080D+03 0.222456948267844D+03 -.418492180788137D+03 -.248227641394515D+03
 0.236538566180179D+03 -.724060781707079D+02 0.213224140767901D+03 -.724107652790844D+02
 0.322496557184400D+03 0.159542194867799D+02 0.306676448749139D+02 0.320638406673600D+03
 0.399173473806861D+03 -.166005089583916D+03 0.174600395145322D+03 -.318271070690332D+03
0.773440156244D-02 0.000000000000D+00 0.000000000000D+00 0.153840610375D-05 0.291943802336D-08  6 -1 1 25 2 -2 21 2 0.18219988D+00 0.70527076D-01 0.24543296D+06 0.24543296D+06 0.24543296D+06 0.10910620D+01  1  2  1  2  6  2        1 0.111116156255D-01 0.100000000000D+01
  </mgrwgt>
  </event>
  <event>
  5     66 0.18829897E-05 0.11751198E+03 0.75467711E-02 0.93817581E-01
       -1 -1    0    0    0  501 0.00000000E+00 0.00000000E+00 0.39167522E+03 0.39167535E+03 0.32000000E+00 0.0000E+00 0.9000E+01
        1 -1    0    0  502    0 0.00000000E+00 0.00000000E+00 -.30420841E+04 0.30420841E+04 0.32000000E+00 0.0000E+00 0.9000E+01
       25  1    1    2    0    0 -.48128293E+03 -.37982313E+02 -.11449287E+04 0.12488245E+04 0.12500000E+03 0.0000E+00 0.9000E+01
        2  1    1    2  502    0 0.93771338E+02 -.70808896E+02 -.17232868E+04 0.17272882E+04 0.32000000E+00 0.0000E+00 0.9000E+01
       -2  1    1    2    0  501 0.38751159E+03 0.10879121E+03 0.21780661E+03 0.45764679E+03 0.32000000E+00 0.0000E+00 0.9000E+01
#aMCatNLO 1  0  0  2  1 0.39566866D+02 0.00000000D+00  -5  6  0 0.00000000D+00 0.00000000D+00 0.00000000D+00 0.00000000D+00 0.00000000D+00
  <mgrwgt>
 0.9291674363D-02    9    2    0
 0.109156274088522D+04 0.000000000000000D+00 0.000000000000000D+00 0.109156274088522D+04
 0.109156274088522D+04 0.000000000000000D+00 0.000000000000000D+00 -.109156274088522D+04
 0.574215838632196D+03 -.481285204955478D+03 -.379761951516844D+02 -.284642213012829D+03
 0.624680764982835D+03 0.937790829790166D+02 -.708134779013807D+02 -.613528314817389D+03
 0.984228878155402D+03 0.387506121976461D+03 0.108789673053065D+03 0.898170527830218D+03
 0.000000000000000D+00 -.000000000000000D+00 -.000000000000000D+00 -.000000000000000D+00
 0.109722973211772D+04 0.000000000000000D+00 0.000000000000000D+00 0.109722973211772D+04
 0.116306189210566D+04 0.000000000000000D+00 0.000000000000000D+00 -.116306189210566D+04
 0.565560570989383D+03 -.470996929306644D+03 -.370737455985866D+02 -.284642213012829D+03
 0.626364353744745D+03 0.105071733819957D+03 -.698229282648290D+02 -.613528314817389D+03
 0.991559081625569D+03 0.405340717413141D+03 0.110354057915103D+03 0.898170527830218D+03
 0.768076178636791D+02 -.394155219264536D+02 -.345738405168764D+01 -.658321599879371D+02
0.615044134573D-02 0.000000000000D+00 0.000000000000D+00 0.389035464789D-04 0.000000000000D+00  6 -1 1 25 2 -2 21 0 0.60257738D-01 0.46801295D+00 0.25943764D+06 0.25943764D+06 0.25943764D+06 0.10892505D+01  1  2  2  2  6  2        1 0.123836857373D-02 0.100000000000D+01
0.978329588840D-03 0.000000000000D+00 -.236193142160D-04 0.389035464789D-04 0.000000000000D+00  6 -1 1 25 2 -2 21 2 0.60257738D-01 0.46801295D+00 0.25943764D+06 0.25943764D+06 0.25943764D+06 0.10892505D+01  1  2  3  2  6  2        1 0.233713805036D-03 0.100000000000D+01
-.424596002470D-02 0.000000000000D+00 0.000000000000D+00 0.389035464789D-04 0.000000000000D+00  6 -1 1 25 2 -2 21 2 0.60257738D-01 0.46801295D+00 0.25943764D+06 0.25943764D+06 0.25943764D+06 0.10892505D+01  1  2 15  2  6  2        1 -.101432020939D-02 0.100000000000D+01
0.546208444339D-08 0.000000000000D+00 0.000000000000D+00 0.389035464789D-04 0.000000000000D+00  6 -1 1 25 2 -2 21 2 0.60257738D-01 0.49983706D+00 0.28865209D+06 0.28865209D+06 0.28865209D+06 0.10857930D+01  1  2 12  2  6  2        1 0.893027152753D-09 0.100000000000D+01
-.244965512321D-02 0.000000000000D+00 0.000000000000D+00 0.389035464789D-04 0.000000000000D+00  6 -1 1 25 2 -2 21 2 0.60257738D-01 0.46801295D+00 0.25943764D+06 0.25943764D+06 0.25943764D+06 0.10892505D+01  1  2  4  2  6  2        1 -.585199738824D-03 0.100000000000D+01
-.129769599773D+00 0.000000000000D+00 -.131282357502D-01 0.389035464789D-04 0.000000000000D+00  6 -1 1 25 2 -2 21 2 0.60257738D-01 0.49931840D+00 0.25943764D+06 0.25943764D+06 0.25943764D+06 0.10892505D+01  1  2  5  2  6  2        1 -.216845479523D-01 0.100000000000D+01
0.130373718986D+00 0.000000000000D+00 0.131007649629D-01 0.389035464789D-04 0.000000000000D+00  6 -1 1 25 2 -2 21 2 0.60257738D-01 0.46801295D+00 0.25943764D+06 0.25943764D+06 0.25943764D+06 0.10892505D+01  1  2  6  2  6  2        1 0.311450642896D-01 0.100000000000D+01
0.769857271261D-10 0.000000000000D+00 0.000000000000D+00 0.389035464789D-04 0.000000000000D+00  6 -1 21 25 2 -2 -1 2 0.60257738D-01 0.49983706D+00 0.28865209D+06 0.28865209D+06 0.28865209D+06 0.10857930D+01  1  2 12  6  6  2        1 0.218602564049D-11 0.100000000000D+01
-.141425550065D-02 0.000000000000D+00 -.144997136824D-03 0.389035464789D-04 0.000000000000D+00  6 -1 21 25 2 -2 -1 2 0.60257738D-01 0.49931840D+00 0.25943764D+06 0.25943764D+06 0.25943764D+06 0.10892505D+01  1  2  5  6  6  2        1 -.414053004416D-04 0.100000000000D+01
  </mgrwgt>
  </event>
  <event>
  5     66 0.18829897E-05 0.22989480E+03 0.75467711E-02 0.93410149E-01
       -1 -1    0    0    0  501 0.00000000E+00 0.00000000E+00 0.48260053E+03 0.48260064E+03 0.32000000E+00 0.0000E+00 0.9000E+01
        1 -1    0    0  502    0 -.00000000E+00 -.00000000E+00 -.87955201E+03 0.87955207E+03 0.32000000E+00 0.0000E+00 0.9000E+01
       25  1    1    2    0    0 -.51296244E+03 -.39344395E+02 -.36142090E+03 0.64103706E+03 0.12500000E+03 0.0000E+00 0.9000E+01
        2  1    1    2  502    0 0.31929513E+03 0.16335579E+03 -.22479225E+03 0.42328023E+03 0.32000000E+00 0.0000E+00 0.9000E+01
       -2  1    1    2    0  501 0.19366731E+03 -.12401139E+03 0.18926167E+03 0.29783542E+03 0.32000000E+00 0.0000E+00 0.9000E+01
#aMCatNLO 1  0  0  4  2 0.82901717D+02 0.00000000D+00  -5  6  0 0.00000000D+00 0.00000000D+00 0.00000000D+00 0.00000000D+00 0.00000000D+00
  <mgrwgt>
 0.8248922902D-03    8    2    0
 0.651515449530627D+03 0.000000000000000D+00 0.000000000000000D+00 0.651515449530627D+03
 0.651515449530627D+03 -.000000000000000D+00 -.000000000000000D+00 -.651515449530627D+03
 0.560035528067174D+03 -.513013343694102D+03 -.393930466391968D+02 -.182428862205951D+03
 0.374109882505340D+03 0.319408724756328D+03 0.163364292579667D+03 -.106058373774260D+03
 0.368885488488739D+03 0.193604618937774D+03 -.123971245940471D+03 0.288487235980211D+03
 0.000000000000000D+00 0.000000000000000D+00 0.000000000000000D+00 0.000000000000000D+00
 0.651515449530627D+03 0.000000000000000D+00 0.000000000000000D+00 0.651515449530627D+03
 0.651515449530627D+03 -.000000000000000D+00 -.000000000000000D+00 -.651515449530627D+03
 0.543116869945652D+03 -.492665929988174D+03 -.289861898808828D+02 -.189185138540636D+03
 0.287883136507646D+03 0.192548709939286D+03 0.184882378964328D+03 -.107797033979080D+03
 0.370499847733709D+03 0.207242425782337D+03 -.116996074334874D+03 0.283958857436747D+03
 0.101531044874247D+03 0.928747942665505D+02 -.389001147485710D+02 0.130233150829690D+02
0.980973742314D-04 0.000000000000D+00 0.000000000000D+00 0.417436440023D-07 0.000000000000D+00  6 -1 1 25 2 -2 21 0 0.74246249D-01 0.13531571D+00 0.31256271D+06 0.31256271D+06 0.31256271D+06 0.10832362D+01  1  2  2  3  6  4        2 0.421149242115D-03 0.100000000000D+01
0.294280098691D-05 0.000000000000D+00 -.376719746681D-06 0.417436440023D-07 0.000000000000D+00  6 -1 1 25 2 -2 21 2 0.74246249D-01 0.13531571D+00 0.31256271D+06 0.31256271D+06 0.31256271D+06 0.10832362D+01  1  2  3  3  6  4        2 0.148246989332D-04 0.100000000000D+01
-.593972005105D-04 0.000000000000D+00 0.000000000000D+00 0.417436440023D-07 0.000000000000D+00  6 -1 1 25 2 -2 21 2 0.74246249D-01 0.13531571D+00 0.31256271D+06 0.31256271D+06 0.31256271D+06 0.10832362D+01  1  2 15  3  6  4        2 -.299220239140D-03 0.100000000000D+01
0.263152348861D-06 0.000000000000D+00 0.000000000000D+00 0.417436440023D-07 0.000000000000D+00  6 -1 1 25 2 -2 21 2 0.74246249D-01 0.13531571D+00 0.31065011D+06 0.31065011D+06 0.31065011D+06 0.10834328D+01  1  2 12  3  6  4        2 0.132647886719D-05 0.100000000000D+01
0.131217783235D-03 0.000000000000D+00 0.000000000000D+00 0.417436440023D-07 0.000000000000D+00  6 -1 1 25 2 -2 21 2 0.74246249D-01 0.13531571D+00 0.31065011D+06 0.31065011D+06 0.31065011D+06 0.10834328D+01  1  2 12  3  6  4        2 0.661432881802D-03 0.100000000000D+01
-.310156620409D-04 0.000000000000D+00 0.000000000000D+00 0.417436440023D-07 0.000000000000D+00  6 -1 1 25 2 -2 21 2 0.74246249D-01 0.13531571D+00 0.31256271D+06 0.31256271D+06 0.31256271D+06 0.10832362D+01  1  2  4  3  6  4        2 -.156244970019D-03 0.100000000000D+01
-.117649602179D-03 0.000000000000D+00 0.000000000000D+00 0.417436440023D-07 0.000000000000D+00  6 -1 1 25 2 -2 21 2 0.74246249D-01 0.13531571D+00 0.31256271D+06 0.31256271D+06 0.31256271D+06 0.10832362D+01  1  2  5  3  6  4        2 -.592673422251D-03 0.100000000000D+01
0.153703209095D-03 0.000000000000D+00 -.000000000000D+00 0.417436440023D-07 0.000000000000D+00  6 -1 1 25 2 -2 21 2 0.74246249D-01 0.13531571D+00 0.31256271D+06 0.31256271D+06 0.31256271D+06 0.10832362D+01  1  2  6  3  6  4        2 0.774297619864D-03 0.100000000000D+01
  </mgrwgt>
  </event>
  <event>
  5     66 -.18829897E-05 0.40599084E+02 0.75467711E-02 0.93628109E-01
       -1 -1    0    0    0  501 0.00000000E+00 0.00000000E+00 0.52188972E+03 0.52188982E+03 0.32000000E+00 0.0000E+00 0.9000E+01
        1 -1    0    0  502    0 -.00000000E+00 -.00000000E+00 -.10907171E+04 0.10907171E+04 0.32000000E+00 0.0000E+00 0.9000E+01
       25  1    1    2    0    0 -.53514729E+03 -.69332715E+02 0.96964442E+02 0.56233153E+03 0.12500000E+03 0.0000E+00 0.9000E+01
        2  1    1    2  502    0 0.35906687E+02 0.18930483E+02 -.52849593E+03 0.53005255E+03 0.32000000E+00 0.0000E+00 0.9000E+01
       -2  1    1    2    0  501 0.49924061E+03 0.50402233E+02 -.13729586E+03 0.52022286E+03 0.32000000E+00 0.0000E+00 0.9000E+01
#aMCatNLO 1  0  0  5  1 0.35009610D+02 0.00000000D+00  -5  6  0 0.00000000D+00 0.00000000D+00 0.00000000D+00 0.00000000D+00 0.00000000D+00
  <mgrwgt>
 -.2479489770D-02    6    2    0
 0.754476074433282D+03 0.000000000000000D+00 0.000000000000000D+00 0.754476074433282D+03
 0.754476074433282D+03 -.000000000000000D+00 -.000000000000000D+00 -.754476074433282D+03
 0.637499284836864D+03 -.535068345790624D+03 -.693275144310773D+02 0.315714901838997D+03
 0.367337301313486D+03 0.359136596522696D+02 0.189339561591895D+02 -.365086848969965D+03
 0.504115562716213D+03 0.499154686138354D+03 0.503935582718879D+02 0.493719471309683D+02
 0.000000000000000D+00 0.000000000000000D+00 0.000000000000000D+00 0.000000000000000D+00
 0.754476074433282D+03 0.000000000000000D+00 0.000000000000000D+00 0.754476074433282D+03
 0.754476074433282D+03 -.000000000000000D+00 -.000000000000000D+00 -.754476074433282D+03
 0.635653258488823D+03 -.532762636939299D+03 -.690947351412420D+02 0.315942962074968D+03
 0.367345967407245D+03 0.372441881301730D+02 0.190682833852892D+02 -.364955244913163D+03
 0.359903708255850D+03 0.359362100412000D+03 0.186317348158320D+02 0.651294568836071D+01
 0.146049214714647D+03 0.136156348397125D+03 0.313947169401208D+02 0.424993371498345D+02
0.443727228973D-04 0.000000000000D+00 0.000000000000D+00 0.247696207106D-05 0.000000000000D+00  6 -1 1 25 2 -2 21 0 0.80290738D-01 0.16780264D+00 0.30037126D+06 0.30037126D+06 0.30037126D+06 0.10845121D+01  1  2  2  4  6  5       -2 0.111775314935D-03 0.100000000000D+01
0.178796579050D-04 0.000000000000D+00 -.170402939532D-06 0.247696207106D-05 0.000000000000D+00  6 -1 1 25 2 -2 21 2 0.80290738D-01 0.16780264D+00 0.30037126D+06 0.30037126D+06 0.30037126D+06 0.10845121D+01  1  2  3  4  6  5       -2 0.529734008342D-04 0.100000000000D+01
-.291340454684D-04 0.000000000000D+00 0.000000000000D+00 0.247696207106D-05 0.000000000000D+00  6 -1 1 25 2 -2 21 2 0.80290738D-01 0.16780264D+00 0.30037126D+06 0.30037126D+06 0.30037126D+06 0.10845121D+01  1  2 15  4  6  5       -2 -.863176173011D-04 0.100000000000D+01
-.105261435397D-02 0.000000000000D+00 0.000000000000D+00 0.247696207106D-05 0.000000000000D+00  6 -1 1 25 2 -2 21 2 0.80290738D-01 0.16780264D+00 0.30037126D+06 0.30037126D+06 0.30037126D+06 0.10845121D+01  1  2  4  4  6  5       -2 -.311865933861D-02 0.100000000000D+01
-.574669119295D-03 0.000000000000D+00 0.000000000000D+00 0.247696207106D-05 0.000000000000D+00  6 -1 1 25 2 -2 21 2 0.80290738D-01 0.16780264D+00 0.30037126D+06 0.30037126D+06 0.30037126D+06 0.10845121D+01  1  2  5  4  6  5       -2 -.170261521586D-02 0.100000000000D+01
0.763930368536D-03 0.000000000000D+00 -.000000000000D+00 0.247696207106D-05 0.000000000000D+00  6 -1 1 25 2 -2 21 2 0.80290738D-01 0.16780264D+00 0.30037126D+06 0.30037126D+06 0.30037126D+06 0.10845121D+01  1  2  6  4  6  5       -2 0.226335368590D-02 0.100000000000D+01
  </mgrwgt>
  </event>
  <event>
  5     66 0.18829897E-05 0.65488681E+02 0.75467711E-02 0.93296887E-01
       -1 -1    0    0    0  501 0.00000000E+00 0.00000000E+00 0.80605239E+03 0.80605245E+03 0.32000000E+00 0.0000E+00 0.9000E+01
        1 -1    0    0  502    0 0.00000000E+00 0.00000000E+00 -.11299262E+04 0.11299263E+04 0.32000000E+00 0.0000E+00 0.9000E+01
       25  1    1    2    0    0 -.18126352E+03 0.43624855E+03 -.76612927E+02 0.49463502E+03 0.12500000E+03 0.0000E+00 0.9000E+01
        2  1    1    2  502    0 0.12551821E+03 -.47063662E+03 -.77184434E+03 0.91268693E+03 0.32000000E+00 0.0000E+00 0.9000E+01
       -2  1    1    2    0  501 0.55745311E+02 0.34388075E+02 0.52458344E+03 0.52865676E+03 0.32000000E+00 0.0000E+00 0.9000E+01
#aMCatNLO 1  0  0  1  2 0.84043442D+02 0.00000000D+00  -5  6  0 0.00000000D+00 0.00000000D+00 0.00000000D+00 0.00000000D+00 0.00000000D+00
  <mgrwgt>
 0.1430042300D-01    7    4    0
 0.954347853423178D+03 0.000000000000000D+00 0.000000000000000D+00 0.954347853423178D+03
 0.954347853423178D+03 0.000000000000000D+00 0.000000000000000D+00 -.954347853423178D+03
 0.488776682229944D+03 -.181277905507833D+03 0.436321383453927D+03 0.629415659608043D+01
 0.794788260430464D+03 0.125541120028422D+03 -.470704199678948D+03 -.627985161054538D+03
 0.625130764185948D+03 0.557367854794113D+02 0.343828162250204D+02 0.621691004458458D+03
 0.000000000000000D+00 0.000000000000000D+00 0.000000000000000D+00 0.000000000000000D+00
 0.111444369288266D+04 0.000000000000000D+00 0.000000000000000D+00 0.111444369288266D+04
 0.966366429797522D+03 0.000000000000000D+00 0.000000000000000D+00 -.966366429797522D+03
 0.471901823795946D+03 -.185289173409409D+03 0.415565442634422D+03 0.629415659608043D+01
 0.814858921686371D+03 0.118820113954084D+03 -.505481434146814D+03 -.627985161054538D+03
 0.623784360358004D+03 0.505219991388705D+02 0.739937873680683D+01 0.621691004458458D+03
 0.170265016839857D+03 0.159470603164544D+02 0.825166127755852D+02 0.148077263085135D+03
 0.954347853423178D+03 0.000000000000000D+00 0.000000000000000D+00 0.954347853423178D+03
 0.954347853423178D+03 0.000000000000000D+00 0.000000000000000D+00 -.954347853423178D+03
 0.488776682229944D+03 -.181277905507833D+03 0.436321383453927D+03 0.629415659608043D+01
 0.794788260430464D+03 0.125541120028422D+03 -.470704199678948D+03 -.627985161054538D+03
 0.000000000000000D+00 0.000000000000000D+00 0.000000000000000D+00 0.000000000000000D+00
 0.625130764185948D+03 0.557367854794113D+02 0.343828162250204D+02 0.621691004458458D+03
 0.111444369288266D+04 0.000000000000000D+00 0.000000000000000D+00 0.111444369288266D+04
 0.966366429797522D+03 0.000000000000000D+00 0.000000000000000D+00 -.966366429797522D+03
 0.471901823795946D+03 -.185289173409409D+03 0.415565442634422D+03 0.629415659608043D+01
 0.814858921686371D+03 0.118820113954084D+03 -.505481434146814D+03 -.627985161054538D+03
 0.170265016839857D+03 0.159470603164544D+02 0.825166127755852D+02 0.148077263085135D+03
 0.623784360358004D+03 0.505219991388705D+02 0.739937873680683D+01 0.621691004458458D+03
0.336592679749D-02 0.000000000000D+00 0.000000000000D+00 0.452794224237D-04 0.000000000000D+00  6 -1 1 25 2 -2 21 0 0.12400807D+00 0.17383481D+00 0.27111961D+06 0.27111961D+06 0.27111961D+06 0.10878193D+01  1  2  2  1  6  1       -1 0.299923136203D-02 0.100000000000D+01
0.111934300968D-02 0.000000000000D+00 -.129260451712D-04 0.452794224237D-04 0.000000000000D+00  6 -1 1 25 2 -2 21 2 0.12400807D+00 0.17383481D+00 0.27111961D+06 0.27111961D+06 0.27111961D+06 0.10878193D+01  1  2  3  1  6  1       -1 0.118027175983D-02 0.100000000000D+01
-.217336014730D-02 0.000000000000D+00 0.000000000000D+00 0.452794224237D-04 0.000000000000D+00  6 -1 1 25 2 -2 21 2 0.12400807D+00 0.17383481D+00 0.27111961D+06 0.27111961D+06 0.27111961D+06 0.10878193D+01  1  2 15  1  6  1       -1 -.229166179055D-02 0.100000000000D+01
-.551935232927D-03 0.000000000000D+00 0.000000000000D+00 0.452794224237D-04 0.000000000000D+00  6 -1 1 25 2 -2 21 2 0.12400807D+00 0.17383481D+00 0.27111961D+06 0.27111961D+06 0.27111961D+06 0.10878193D+01  1  2  4  1  6  1       -1 -.581978502610D-03 0.100000000000D+01
-.475490490519D-01 0.000000000000D+00 -.562409629110D-02 0.452794224237D-04 0.000000000000D+00  6 -1 1 25 2 -2 21 2 0.14565821D+00 0.17383481D+00 0.27111961D+06 0.27111961D+06 0.27111961D+06 0.10878193D+01  1  2  5  1  6  1       -1 -.327286686075D-01 0.100000000000D+01
0.479045349334D-01 0.000000000000D+00 0.555205843092D-02 0.452794224237D-04 0.000000000000D+00  6 -1 1 25 2 -2 21 2 0.12400807D+00 0.17383481D+00 0.27111961D+06 0.27111961D+06 0.27111961D+06 0.10878193D+01  1  2  6  1  6  1       -1 0.505121033149D-01 0.100000000000D+01
-.110343199421D-02 0.000000000000D+00 -.135748766792D-03 0.452794224237D-04 0.000000000000D+00  6 21 1 25 2 1 -2 2 0.14565821D+00 0.17383481D+00 0.27111961D+06 0.27111961D+06 0.27111961D+06 0.10878193D+01  3  4  5  5  5  1       -1 -.478887453500D-02 0.100000000000D+01
  </mgrwgt>
  </event>
  <event>
  6     66 0.18829897E-05 0.13613043E+02 0.75467711E-02 0.93675029E-01
       -1 -1    0    0    0  501 0.00000000E+00 0.00000000E+00 0.12125855E+04 0.12125855E+04 0.32000000E+00 0.0000E+00 0.9000E+01
        1 -1    0    0  502    0 -.00000000E+00 -.00000000E+00 -.29653630E+04 0.29653630E+04 0.32000000E+00 0.0000E+00 0.9000E+01
       25  1    1    2    0    0 -.51909255E+03 0.18620122E+02 0.44203377E+03 0.69341376E+03 0.12500000E+03 0.0000E+00 0.9000E+01
        2  1    1    2  503    0 0.43252310E+03 -.25617674E+01 -.22431829E+04 0.22845027E+04 0.32000000E+00 0.0000E+00 0.9000E+01
       -2  1    1    2    0  501 -.16275718E+02 -.85826145E+01 0.61944747E+03 0.61972076E+03 0.32000000E+00 0.0000E+00 0.9000E+01
       21  1    1    2  502  503 0.10284517E+03 -.74757398E+01 -.57107585E+03 0.58031129E+03 0.75000000E+00 0.0000E+00 0.9000E+01
#aMCatNLO 2  0  0  4  2 0.78786446D+01 0.00000000D+00  -5  6  0 0.00000000D+00 0.00000000D+00 0.00000000D+00 0.00000000D+00 0.00000000D+00
  <mgrwgt>
 0.3107181340D-01    3    2    0
 0.189624790597423D+04 0.000000000000000D+00 0.000000000000000D+00 0.189624790597423D+04
 0.189624790597423D+04 -.000000000000000D+00 -.000000000000000D+00 -.189624790597423D+04
 0.968342106338240D+03 -.519142540442092D+03 0.186198752972164D+02 0.807592569217193D+03
 0.185526990726457D+04 0.535423600105856D+03 -.100386281506668D+02 -.177630155750538D+04
 0.968883798345644D+03 -.162810596637631D+02 -.858124714654956D+01 0.968708988288185D+03
 0.000000000000000D+00 0.000000000000000D+00 0.000000000000000D+00 -.000000000000000D+00
 0.189624790597423D+04 0.000000000000000D+00 0.000000000000000D+00 0.189624790597423D+04
 0.189624790597423D+04 -.000000000000000D+00 -.000000000000000D+00 -.189624790597423D+04
 0.968316820711762D+03 -.519134885791077D+03 0.186197317805781D+02 0.807567174429743D+03
 0.148099872660142D+04 0.432859508429623D+03 -.256260487122355D+01 -.141632740113766D+04
 0.968858266538427D+03 -.162734007316418D+02 -.858139074345411D+01 0.968683579297895D+03
 0.374321998096847D+03 0.102548778093096D+03 -.747573616590043D+01 -.359923352589974D+03
-.189000999916D-08 0.000000000000D+00 0.000000000000D+00 0.267007701924D-02 0.000000000000D+00  6 -1 1 25 2 -2 21 2 0.18655161D+00 0.45620969D+00 0.29614377D+06 0.29614377D+06 0.29614377D+06 0.10849678D+01  1  2 13  3  6  4        2 -.325546227988D-10 0.100000000000D+01
-.164401360800D+02 0.000000000000D+00 0.000000000000D+00 0.267007701924D-02 0.000000000000D+00  6 -1 1 25 2 -2 21 2 0.18655161D+00 0.45620969D+00 0.29614377D+06 0.29614377D+06 0.29614377D+06 0.10849678D+01  1  2 13  3  6  4        2 -.283174390127D+00 0.100000000000D+01
0.182440592414D+02 0.000000000000D+00 0.000000000000D+00 0.267007701924D-02 0.195260869350D-03  6 -1 1 25 2 -2 21 2 0.18655161D+00 0.45620969D+00 0.29614377D+06 0.29614377D+06 0.29614377D+06 0.10849678D+01  1  2  1  3  6  4        2 0.314246203559D+00 0.100000000000D+01
  </mgrwgt>
  </event>
  <event>
  6     66 0.18829897E-05 0.27214644E+02 0.75467711E-02 0.91838500E-01
       -1 -1    0    0    0  501 0.00000000E+00 0.00000000E+00 0.47744602E+03 0.47744612E+03 0.32000000E+00 0.0000E+00 0.9000E+01
        1 -1    0    0  503    0 0.00000000E+00 0.00000000E+00 -.22309904E+04 0.22309905E+04 0.32000000E+00 0.0000E+00 0.9000E+01
       25  1    1    2    0    0 0.38416221E+03 0.42757423E+03 -.37432054E+03 0.69723827E+03 0.12500000E+03 0.0000E+00 0.9000E+01
        2  1    1    2  502    0 -.39736276E+03 -.44600175E+03 -.14675075E+04 0.15844220E+04 0.32000000E+00 0.0000E+00 0.9000E+01
       -2  1    1    2    0  501 0.44374175E+02 -.23619387E+02 0.25092873E+03 0.25591458E+03 0.32000000E+00 0.0000E+00 0.9000E+01
       21  1    1    2  503  502 -.31173626E+02 0.42046900E+02 -.16264509E+03 0.17086171E+03 0.75000000E+00 0.0000E+00 0.9000E+01
#aMCatNLO 2  0  0  2  4 0.41622022D+02 0.00000000D+00  -5  6  0 0.00000000D+00 0.00000000D+00 0.00000000D+00 0.00000000D+00 0.00000000D+00
  <mgrwgt>
 0.2234724200D-02    2    2    0
 0.988127749750917D+03 0.000000000000000D+00 0.000000000000000D+00 0.988127749750917D+03
 0.988127749750917D+03 0.000000000000000D+00 0.000000000000000D+00 -.988127749750917D+03
 0.597085270679884D+03 0.374840483226805D+03 0.440302076396186D+03 0.807125400317267D+02
 0.849907928193587D+03 -.410847999901828D+03 -.427958243508562D+03 -.608604263208902D+03
 0.529262300628362D+03 0.360075166750228D+02 -.123438328876241D+02 0.527891723177175D+03
 0.000000000000000D+00 -.000000000000000D+00 0.000000000000000D+00 -.000000000000000D+00
 0.997052103159154D+03 0.000000000000000D+00 0.000000000000000D+00 0.997052103159154D+03
 0.106832360345457D+04 0.000000000000000D+00 0.000000000000000D+00 -.106832360345457D+04
 0.593839538927403D+03 0.384231712234137D+03 0.427635212755874D+03 0.807125400317267D+02
 0.852830484333086D+03 -.397420782463229D+03 -.446068837151925D+03 -.608604263208902D+03
 0.530278518323746D+03 0.443626961062722D+02 -.236132757330013D+02 0.527891723177175D+03
 0.884271650294842D+02 -.311736258771806D+02 0.420469001290523D+02 -.712715002954106D+02
-.250601644866D-03 0.000000000000D+00 0.000000000000D+00 0.384370975618D-04 0.000000000000D+00  6 -1 1 25 2 -2 21 2 0.72795667D-01 0.31746361D+00 0.37388235D+06 0.37388235D+06 0.37388235D+06 0.10775480D+01  1  2  8  2  6  2        1 -.191975640498D-03 0.100000000000D+01
0.423825790001D-02 0.000000000000D+00 0.000000000000D+00 0.384370975618D-04 0.284041957930D-07  6 -1 1 25 2 -2 21 2 0.73453127D-01 0.34322876D+00 0.41496496D+06 0.41496496D+06 0.41496496D+06 0.10742796D+01  1  2  1  2  6  2        1 0.242669984032D-02 0.100000000000D+01
  </mgrwgt>
  </event>
  <event>
  5     66 0.18829897E-05 0.62527354E+02 0.75467711E-02 0.88475686E-01
       -1 -1    0    0    0  501 0.00000000E+00 0.00000000E+00 0.15896340E+04 0.15896340E+04 0.32000000E+00 0.0000E+00 0.9000E+01
        1 -1    0    0  502    0 -.00000000E+00 -.00000000E+00 -.16281162E+04 0.16281162E+04 0.32000000E+00 0.0000E+00 0.9000E+01
       25  1    1    2    0    0 -.56987916E+03 -.54792839E+03 -.90089804E+03 0.12050851E+04 0.12500000E+03 0.0000E+00 0.9000E+01
        2  1    1    2  502    0 0.43763955E+02 -.44661560E+02 -.46365883E+03 0.46785634E+03 0.32000000E+00 0.0000E+00 0.9000E+01
       -2  1    1    2    0  501 0.52611520E+03 0.59258995E+03 0.13260747E+04 0.15448088E+04 0.32000000E+00 0.0000E+00 0.9000E+01
#aMCatNLO 1  0  0  4  2 0.14478995D+02 0.00000000D+00  -5  6  0 0.00000000D+00 0.00000000D+00 0.00000000D+00 0.00000000D+00 0.00000000D+00
  <mgrwgt>
 0.4380648528D-03    6    2    0
 0.160876005623170D+04 0.000000000000000D+00 0.000000000000000D+00 0.160876005623170D+04
 0.160876005623170D+04 -.000000000000000D+00 -.000000000000000D+00 -.160876005623170D+04
 0.119441565527635D+04 -.569878618878297D+03 -.547931023081977D+03 -.886574143125620D+03
 0.462322040987396D+03 0.437623913077880D+02 -.446600840364827D+02 -.458074229338030D+03
 0.156078241619966D+04 0.526116227570509D+03 0.592591107118460D+03 0.134464837246365D+04
 0.000000000000000D+00 0.000000000000000D+00 -.000000000000000D+00 0.000000000000000D+00
 0.160876005623170D+04 0.000000000000000D+00 0.000000000000000D+00 0.160876005623170D+04
 0.160876005623170D+04 -.000000000000000D+00 -.000000000000000D+00 -.160876005623170D+04
 0.121329626410695D+04 -.567461664806378D+03 -.550397555845350D+03 -.911873134811266D+03
 0.331819936770679D+03 0.220211064132316D+02 0.757442493727894D+02 -.322307849730328D+03
 0.153271472000094D+04 0.529221599288619D+03 0.589422035279585D+03 0.131214350437779D+04
 0.139689191584832D+03 0.162189591045272D+02 -.114768728807024D+03 -.779625198361956D+02
0.977634905330D-02 0.000000000000D+00 0.000000000000D+00 0.174090297797D-04 0.000000000000D+00  6 -1 1 25 2 -2 21 0 0.24455908D+00 0.25047942D+00 0.68504799D+06 0.68504799D+06 0.68504799D+06 0.10589777D+01  1  2  2  3  6  4        2 0.367767001496D-03 0.100000000000D+01
0.278755863791D-02 0.000000000000D+00 -.375437545365D-04 0.174090297797D-04 0.000000000000D+00  6 -1 1 25 2 -2 21 2 0.24455908D+00 0.25047942D+00 0.68504799D+06 0.68504799D+06 0.68504799D+06 0.10589777D+01  1  2  3  3  6  4        2 0.117596316170D-03 0.100000000000D+01
-.656775165747D-02 0.000000000000D+00 0.000000000000D+00 0.174090297797D-04 0.000000000000D+00  6 -1 1 25 2 -2 21 2 0.24455908D+00 0.25047942D+00 0.68504799D+06 0.68504799D+06 0.68504799D+06 0.10589777D+01  1  2 15  3  6  4        2 -.277068037217D-03 0.100000000000D+01
-.792179516935D-03 0.000000000000D+00 0.000000000000D+00 0.174090297797D-04 0.000000000000D+00  6 -1 1 25 2 -2 21 2 0.24455908D+00 0.25047942D+00 0.68504799D+06 0.68504799D+06 0.68504799D+06 0.10589777D+01  1  2  4  3  6  4        2 -.334189895307D-04 0.100000000000D+01
-.109441894953D-01 0.000000000000D+00 0.000000000000D+00 0.174090297797D-04 0.000000000000D+00  6 -1 1 25 2 -2 21 2 0.24455908D+00 0.25047942D+00 0.68504799D+06 0.68504799D+06 0.68504799D+06 0.10589777D+01  1  2  5  3  6  4        2 -.461693020770D-03 0.100000000000D+01
0.171829355122D-01 0.000000000000D+00 -.000000000000D+00 0.174090297797D-04 0.000000000000D+00  6 -1 1 25 2 -2 21 2 0.24455908D+00 0.25047942D+00 0.68504799D+06 0.68504799D+06 0.68504799D+06 0.10589777D+01  1  2  6  3  6  4        2 0.724881582662D-03 0.100000000000D+01
  </mgrwgt>
  </event>
  <event>
  6     66 0.18829897E-05 0.32623365E+02 0.75467711E-02 0.95248773E-01
       -1 -1    0    0    0  501 0.00000000E+00 0.00000000E+00 0.89765835E+03 0.89765841E+03 0.32000000E+00 0.0000E+00 0.9000E+01
        1 -1    0    0  502    0 0.00000000E+00 0.00000000E+00 -.58062700E+03 0.58062708E+03 0.32000000E+00 0.0000E+00 0.9000E+01
       25  1    1    2    0    0 -.91908547E+02 0.45093288E+03 -.23204396E+02 0.47744223E+03 0.12500000E+03 0.0000E+00 0.9000E+01
        2  1    1    2  503    0 0.61920478E+02 -.24114591E+03 -.90840309E+02 0.26502370E+03 0.32000000E+00 0.0000E+00 0.9000E+01
       -2  1    1    2    0  501 0.31934687E+02 -.40204767E+02 0.53464258E+03 0.53710244E+03 0.32000000E+00 0.0000E+00 0.9000E+01
       21  1    1    2  502  503 -.19466175E+01 -.16958220E+03 -.10356651E+03 0.19871713E+03 0.75000000E+00 0.0000E+00 0.9000E+01
#aMCatNLO 2  0  0  4  2 0.17174494D+01 0.00000000D+00  -5  6  0 0.00000000D+00 0.00000000D+00 0.00000000D+00 0.00000000D+00 0.00000000D+00
  <mgrwgt>
 0.2355267249D-01    1    2    0
 0.721945137245343D+03 0.000000000000000D+00 0.000000000000000D+00 0.721945137245343D+03
 0.721945137245343D+03 -.000000000000000D+00 -.000000000000000D+00 -.721945137245343D+03
 0.494938182126238D+03 -.921078996323263D+02 0.452308212185118D+03 -.127562612632578D+03
 0.515790613401371D+03 0.603477179185224D+02 -.413269602307622D+03 -.302665402091962D+03
 0.433161478963077D+03 0.317601817138038D+02 -.390386098774952D+02 0.430228014724540D+03
 0.000000000000000D+00 0.000000000000000D+00 0.000000000000000D+00 -.000000000000000D+00
 0.721945137245343D+03 0.000000000000000D+00 0.000000000000000D+00 0.721945137245343D+03
 0.721945137245343D+03 -.000000000000000D+00 -.000000000000000D+00 -.721945137245343D+03
 0.493943054635529D+03 -.919143950305761D+02 0.450983065641582D+03 -.128533107460145D+03
 0.290988765311555D+03 0.618983925189280D+02 -.240923924118723D+03 -.150992428049728D+03
 0.432436499509893D+03 0.319295622075107D+02 -.401985511592421D+02 0.429378510932142D+03
 0.226521955033709D+03 -.191355969586266D+01 -.169860590363617D+03 -.149852975422270D+03
0.981510826893D-02 0.000000000000D+00 0.000000000000D+00 0.163487362980D-04 0.367074813688D-07  6 -1 1 25 2 -2 21 2 0.13810130D+00 0.89327241D-01 0.22414670D+06 0.22414670D+06 0.22414670D+06 0.10940436D+01  1  2  1  3  6  4        2 0.235526724859D-01 0.100000000000D+01
  </mgrwgt>
  </event>
  <event>
  6     66 0.18829897E-05 0.18260200E+02 0.75467711E-02 0.93261923E-01
       -1 -1    0    0    0  501 0.00000000E+00 0.00000000E+00 0.19090446E+04 0.19090446E+04 0.32000000E+00 0.0000E+00 0.9000E+01
        1 -1    0    0  502    0 0.00000000E+00 0.00000000E+00 -.24619723E+03 0.24619744E+03 0.32000000E+00 0.0000E+00 0.9000E+01
       25  1    1    2    0    0 0.51316881E+03 -.13835408E+03 0.31577882E+03 0.63073397E+03 0.12500000E+03 0.0000E+00 0.9000E+01
        2  1    1    2  502    0 -.53018361E+03 0.16120731E+03 0.78788042E+03 0.96324354E+03 0.32000000E+00 0.0000E+00 0.9000E+01
       -2  1    1    2    0  503 0.14768875E+02 -.16159995E+02 0.54460574E+03 0.54504567E+03 0.32000000E+00 0.0000E+00 0.9000E+01
       21  1    1    2  503  501 0.22459295E+01 -.66932305E+01 0.14582352E+02 0.16218848E+02 0.75000000E+00 0.0000E+00 0.9000E+01
#aMCatNLO 2  0  0  5  4 0.65647863D+01 0.00000000D+00  -5  6  0 0.00000000D+00 0.00000000D+00 0.00000000D+00 0.00000000D+00 0.00000000D+00
  <mgrwgt>
 0.1184400265D-02    3    2    0
 0.685566726119083D+03 0.000000000000000D+00 0.000000000000000D+00 0.685566726119083D+03
 0.685566726119083D+03 -.000000000000000D+00 -.000000000000000D+00 -.685566726119083D+03
 0.609344794450944D+03 0.513458578307362D+03 -.138309355925450D+03 -.270012757014428D+03
 0.559006142317953D+03 -.530681588855250D+03 0.161442230697698D+03 0.692915907352268D+02
 0.202782515469269D+03 0.172230105478881D+02 -.231328747722482D+02 0.200721166279202D+03
 0.000000000000000D+00 0.000000000000000D+00 -.000000000000000D+00 0.000000000000000D+00
 0.685566726119083D+03 0.000000000000000D+00 0.000000000000000D+00 0.685566726119083D+03
 0.685566726119083D+03 -.000000000000000D+00 -.000000000000000D+00 -.685566726119083D+03
 0.608778459212964D+03 0.513600074214969D+03 -.138499404413335D+03 -.268363729190889D+03
 0.559022177348327D+03 -.530551719869213D+03 0.161267798766507D+03 0.708051155785377D+02
 0.195587480484773D+03 0.147090219615845D+02 -.160756106277387D+02 0.194369961512216D+03
 0.774533519210117D+01 0.224262369265977D+01 -.669278372543338D+01 0.318865210013511D+01
-.151994359405D-06 0.000000000000D+00 0.000000000000D+00 0.712361529564D-06 0.000000000000D+00  6 -1 1 25 2 -2 21 2 0.29369918D+00 0.37876515D-01 0.31911417D+06 0.31911417D+06 0.31911417D+06 0.10825728D+01  1  2 13  4  6  5       -2 -.578140482196D-07 0.100000000000D+01
-.202470248007D-01 0.000000000000D+00 0.000000000000D+00 0.712361529564D-06 0.000000000000D+00  6 -1 1 25 2 -2 21 2 0.29369918D+00 0.37876515D-01 0.31910635D+06 0.31910635D+06 0.31910635D+06 0.10825736D+01  1  2  8  4  6  5       -2 -.770137866159D-02 0.100000000000D+01
0.233610533216D-01 0.000000000000D+00 0.000000000000D+00 0.712361529564D-06 0.253549769083D-07  6 -1 1 25 2 -2 21 2 0.29369918D+00 0.37876515D-01 0.31911417D+06 0.31911417D+06 0.31911417D+06 0.10825728D+01  1  2  1  4  6  5       -2 0.888583674080D-02 0.100000000000D+01
  </mgrwgt>
  </event>
  <event>
  5     66 0.18829897E-05 0.12588998E+03 0.75467711E-02 0.95468642E-01
       -3 -1    0    0    0  501 0.00000000E+00 0.00000000E+00 0.76805859E+03 0.76805876E+03 0.50000000E+00 0.0000E+00 0.9000E+01
        3 -1    0    0  502    0 0.00000000E+00 0.00000000E+00 -.67359090E+03 0.67359109E+03 0.50000000E+00 0.0000E+00 0.9000E+01
       25  1    1    2    0    0 -.11023288E+03 0.43983845E+03 0.24380286E+03 0.52978673E+03 0.12500000E+03 0.0000E+00 0.9000E+01
        4  1    1    2  502    0 0.10053612E+03 -.31401052E+03 -.46607138E+03 0.57090722E+03 0.15500000E+01 0.0000E+00 0.9000E+01
       -4  1    1    2    0  501 0.96967655E+01 -.12582793E+03 0.31673621E+03 0.34095590E+03 0.15500000E+01 0.0000E+00 0.9000E+01
#aMCatNLO 1  0  0  1  5 0.35426513D+01 0.00000000D+00  -5  6  0 0.00000000D+00 0.00000000D+00 0.00000000D+00 0.00000000D+00 0.00000000D+00
  <mgrwgt>
 0.1239561424D-03   13    4    0
 0.719275700816549D+03 0.000000000000000D+00 0.000000000000000D+00 0.719275700816549D+03
 0.719275700816549D+03 0.000000000000000D+00 0.000000000000000D+00 -.719275700816549D+03
 0.515356895010217D+03 -.110316097361518D+03 0.439902556295716D+03 0.210437232594401D+03
 0.603098435636857D+03 0.100643229520055D+03 -.314384733551398D+03 -.504738449822494D+03
 0.320096070986023D+03 0.967286784146320D+01 -.125517822744318D+03 0.294301217228093D+03
 0.000000000000000D+00 0.000000000000000D+00 -.000000000000000D+00 0.000000000000000D+00
 0.729397089209437D+03 0.000000000000000D+00 0.000000000000000D+00 0.729397089209437D+03
 0.719587945163412D+03 0.000000000000000D+00 0.000000000000000D+00 -.719587945163412D+03
 0.516436321877727D+03 -.110937172541641D+03 0.441010872248147D+03 0.210437232594401D+03
 0.602303699293119D+03 0.999176525964829D+02 -.313089933010581D+03 -.504738449822494D+03
 0.319815742614010D+03 0.928768083074295D+01 -.124830452000302D+03 0.294301217228093D+03
 0.104292705879928D+02 0.173183911441565D+01 -.309048723726330D+01 0.980914404602486D+01
 0.719275700816549D+03 0.000000000000000D+00 0.000000000000000D+00 0.719275700816549D+03
 0.719275700816549D+03 0.000000000000000D+00 0.000000000000000D+00 -.719275700816549D+03
 0.515356895010217D+03 -.110316097361518D+03 0.439902556295716D+03 0.210437232594401D+03
 0.603098435636857D+03 0.100643229520055D+03 -.314384733551398D+03 -.504738449822494D+03
 0.000000000000000D+00 0.000000000000000D+00 -.000000000000000D+00 0.000000000000000D+00
 0.320096070986023D+03 0.967286784146320D+01 -.125517822744318D+03 0.294301217228093D+03
 0.729397089209437D+03 0.000000000000000D+00 0.000000000000000D+00 0.729397089209437D+03
 0.719587945163412D+03 0.000000000000000D+00 0.000000000000000D+00 -.719587945163412D+03
 0.516436321877727D+03 -.110937172541641D+03 0.441010872248147D+03 0.210437232594401D+03
 0.602303699293119D+03 0.999176525964829D+02 -.313089933010581D+03 -.504738449822494D+03
 0.104292705879928D+02 0.173183911441565D+01 -.309048723726330D+01 0.980914404602486D+01
 0.319815742614010D+03 0.928768083074295D+01 -.124830452000302D+03 0.294301217228093D+03
0.597334668165D-04 0.000000000000D+00 0.000000000000D+00 0.424924042402D-05 0.000000000000D+00  6 -3 3 25 4 -4 21 0 0.11816289D+00 0.10362940D+00 0.21456629D+06 0.21456629D+06 0.21456629D+06 0.10954882D+01  1  2  2  1  6  1       -3 0.103927636017D-04 0.100000000000D+01
0.598370145592D-05 0.000000000000D+00 -.229392240759D-06 0.424924042402D-05 0.000000000000D+00  6 -3 3 25 4 -4 21 2 0.11816289D+00 0.10362940D+00 0.21456629D+06 0.21456629D+06 0.21456629D+06 0.10954882D+01  1  2  3  1  6  1       -3 0.124939170405D-05 0.100000000000D+01
-.429080694566D-04 0.000000000000D+00 0.000000000000D+00 0.424924042402D-05 0.000000000000D+00  6 -3 3 25 4 -4 21 2 0.11816289D+00 0.10362940D+00 0.21456629D+06 0.21456629D+06 0.21456629D+06 0.10954882D+01  1  2 15  1  6  1       -3 -.895916790148D-05 0.100000000000D+01
0.153945330951D-09 0.000000000000D+00 0.000000000000D+00 0.424924042402D-05 0.000000000000D+00  6 -3 3 25 4 -4 21 2 0.11985109D+00 0.10362940D+00 0.21575197D+06 0.21575197D+06 0.21575197D+06 0.10953056D+01  1  2 12  1  6  1       -3 0.308599991566D-10 0.100000000000D+01
0.121582849814D-04 0.000000000000D+00 0.000000000000D+00 0.424924042402D-05 0.000000000000D+00  6 -3 3 25 4 -4 21 2 0.12124871D+00 0.10362940D+00 0.21575197D+06 0.21575197D+06 0.21575197D+06 0.10953056D+01  1  2 12  1  6  1       -3 0.235783242638D-05 0.100000000000D+01
-.307268340533D-02 0.000000000000D+00 0.000000000000D+00 0.424924042402D-05 0.000000000000D+00  6 -3 3 25 4 -4 21 2 0.11816289D+00 0.10362940D+00 0.21456629D+06 0.21456629D+06 0.21456629D+06 0.10954882D+01  1  2  4  1  6  1       -3 -.641573645356D-03 0.100000000000D+01
-.244147567299D-01 0.000000000000D+00 -.104750700997D-02 0.424924042402D-05 0.000000000000D+00  6 -3 3 25 4 -4 21 2 0.11984985D+00 0.10362940D+00 0.21456629D+06 0.21456629D+06 0.21456629D+06 0.10954882D+01  1  2  5  1  6  1       -3 -.489700478709D-02 0.100000000000D+01
0.244272566916D-01 0.000000000000D+00 0.104740177126D-02 0.424924042402D-05 0.000000000000D+00  6 -3 3 25 4 -4 21 2 0.11816289D+00 0.10362940D+00 0.21456629D+06 0.21456629D+06 0.21456629D+06 0.10954882D+01  1  2  6  1  6  1       -3 0.510039013276D-02 0.100000000000D+01
0.306054835298D-02 0.000000000000D+00 0.000000000000D+00 0.424924042402D-05 0.120814827632D-04  6 -3 3 25 4 -4 21 2 0.11982563D+00 0.10367438D+00 0.21575197D+06 0.21575197D+06 0.21575197D+06 0.10953056D+01  1  2 11  1  6  1       -3 0.613239696435D-03 0.100000000000D+01
0.147895880592D-10 0.000000000000D+00 0.000000000000D+00 0.424924042402D-05 0.000000000000D+00  6 21 3 25 4 3 -4 2 0.11985109D+00 0.10362940D+00 0.21575197D+06 0.21575197D+06 0.21575197D+06 0.10953056D+01  3  4 12  5  5  1       -3 0.443310746953D-10 0.100000000000D+01
0.208662363185D-05 0.000000000000D+00 0.000000000000D+00 0.424924042402D-05 0.000000000000D+00  6 21 3 25 4 3 -4 2 0.12124871D+00 0.10362940D+00 0.21575197D+06 0.21575197D+06 0.21575197D+06 0.10953056D+01  3  4 12  5  5  1       -3 0.605818246950D-05 0.100000000000D+01
-.640843025361D-04 0.000000000000D+00 -.272592934806D-05 0.424924042402D-05 0.000000000000D+00  6 21 3 25 4 3 -4 2 0.11984985D+00 0.10362940D+00 0.21456629D+06 0.21456629D+06 0.21456629D+06 0.10954882D+01  3  4  5  5  5  1       -3 -.192238666886D-03 0.100000000000D+01
0.434057287854D-04 0.000000000000D+00 0.000000000000D+00 0.424924042402D-05 0.552522584834D-08  6 21 3 25 4 3 -4 2 0.11982563D+00 0.10367438D+00 0.21575197D+06 0.21575197D+06 0.21575197D+06 0.10953056D+01  3  4 11  5  5  1       -3 0.130044335028D-03 0.100000000000D+01
  </mgrwgt>
  </event>
  <event>
  5     66 0.18829897E-05 0.21657355E+02 0.75467711E-02 0.93739196E-01
       -1 -1    0    0    0  501 0.00000000E+00 0.00000000E+00 0.35190433E+03 0.35190447E+03 0.32000000E+00 0.0000E+00 0.9000E+01
        1 -1    0    0  502    0 -.00000000E+00 -.00000000E+00 -.13862066E+04 0.13862066E+04 0.32000000E+00 0.0000E+00 0.9000E+01
       25  1    1    2    0    0 0.15019132E+03 0.49026643E+03 -.28856250E+03 0.60150804E+03 0.12500000E+03 0.0000E+00 0.9000E+01
        2  1    1    2  502    0 -.12892179E+03 -.49443471E+03 -.87081893E+03 0.10096595E+04 0.32000000E+00 0.0000E+00 0.9000E+01
       -2  1    1    2    0  501 -.21269530E+02 0.41682782E+01 0.12507919E+03 0.12694358E+03 0.32000000E+00 0.0000E+00 0.9000E+01
#aMCatNLO 1  0  0  5  4 0.17916721D+02 0.00000000D+00  -5  6  0 0.00000000D+00 0.00000000D+00 0.00000000D+00 0.00000000D+00 0.00000000D+00
  <mgrwgt>
 0.4395498755D-02    7    2    0
 0.698435571659406D+03 0.000000000000000D+00 0.000000000000000D+00 0.698435571659406D+03
 0.698435571659406D+03 -.000000000000000D+00 -.000000000000000D+00 -.698435571659406D+03
 0.534915673932634D+03 0.150209971119856D+03 0.490378195834178D+03 0.864636793422078D+02
 0.611581106760002D+03 -.128956892646828D+03 -.494543249991093D+03 -.335899603859413D+03
 0.250374362626176D+03 -.212530784730282D+02 0.416505415691490D+01 0.249435924517206D+03
 0.000000000000000D+00 0.000000000000000D+00 0.000000000000000D+00 0.000000000000000D+00
 0.698435571659406D+03 0.000000000000000D+00 0.000000000000000D+00 0.698435571659406D+03
 0.698435571659406D+03 -.000000000000000D+00 -.000000000000000D+00 -.698435571659406D+03
 0.535081113366139D+03 0.150118442715257D+03 0.490396133036195D+03 0.875378988840817D+02
 0.610913379058808D+03 -.129061465829894D+03 -.494522756349601D+03 -.334672284785106D+03
 0.892845009500384D+02 -.158907723238609D+00 -.148979253664337D+02 0.880326568837332D+02
 0.161592149943826D+03 -.208980691621250D+02 0.190245486798397D+02 0.159101729017291D+03
0.195866211317D-03 0.000000000000D+00 0.000000000000D+00 0.124949846083D-04 0.000000000000D+00  6 -1 1 25 2 -2 21 0 0.54139141D-01 0.21326256D+00 0.28122813D+06 0.28122813D+06 0.28122813D+06 0.10866342D+01  1  2  2  4  6  5       -2 0.657294637210D-03 0.100000000000D+01
0.108501435951D-03 0.000000000000D+00 -.752177824216D-06 0.124949846083D-04 0.000000000000D+00  6 -1 1 25 2 -2 21 2 0.54139141D-01 0.21326256D+00 0.28122813D+06 0.28122813D+06 0.28122813D+06 0.10866342D+01  1  2  3  4  6  5       -2 0.429934972261D-03 0.100000000000D+01
-.125899492510D-03 0.000000000000D+00 0.000000000000D+00 0.124949846083D-04 0.000000000000D+00  6 -1 1 25 2 -2 21 2 0.54139141D-01 0.21326256D+00 0.28122813D+06 0.28122813D+06 0.28122813D+06 0.10866342D+01  1  2 15  4  6  5       -2 -.498874455859D-03 0.100000000000D+01
0.263448588658D-08 0.000000000000D+00 0.000000000000D+00 0.124949846083D-04 0.000000000000D+00  6 -1 1 25 2 -2 21 2 0.54139141D-01 0.21326256D+00 0.29274493D+06 0.29274493D+06 0.29274493D+06 0.10853393D+01  1  2 12  4  6  5       -2 0.103944843077D-07 0.100000000000D+01
-.109429668741D-03 0.000000000000D+00 0.000000000000D+00 0.124949846083D-04 0.000000000000D+00  6 -1 1 25 2 -2 21 2 0.54139141D-01 0.21326256D+00 0.28122813D+06 0.28122813D+06 0.28122813D+06 0.10866342D+01  1  2  4  4  6  5       -2 -.433613077858D-03 0.100000000000D+01
-.924091749848D-03 0.000000000000D+00 0.000000000000D+00 0.124949846083D-04 0.000000000000D+00  6 -1 1 25 2 -2 21 2 0.54139141D-01 0.21326256D+00 0.28122813D+06 0.28122813D+06 0.28122813D+06 0.10866342D+01  1  2  5  4  6  5       -2 -.366169680020D-02 0.100000000000D+01
0.199431653065D-02 0.000000000000D+00 -.000000000000D+00 0.124949846083D-04 0.000000000000D+00  6 -1 1 25 2 -2 21 2 0.54139141D-01 0.21326256D+00 0.28122813D+06 0.28122813D+06 0.28122813D+06 0.10866342D+01  1  2  6  4  6  5       -2 0.790244308541D-02 0.100000000000D+01
  </mgrwgt>
  </event>
</LesHouchesEvents>
