<event>
 5    0  0.1911311E+001  0.7805848E+03  0.7546771E-02  0.9588553E-01
         21   -1    0    0  502  501  0.00000000000E+00  0.00000000000E+00  0.68232659638E+03  0.68232659638E+03  0.00000000000E+00 0. -1.
         21   -1    0    0  504  502 -0.00000000000E+00 -0.00000000000E+00 -0.11396424786E+04  0.11396424786E+04  0.00000000000E+00 0. -1.
         25    1    1    2    0    0  0.77933036152E+03 -0.95731796940E+02 -0.49385646136E+03  0.93596986797E+03  0.12500000000E+03 0.  0.
         21    1    1    2  503  501 -0.38164642614E+02 -0.90501233040E+01  0.12616092864E+03  0.13211746513E+03  0.00000000000E+00 0. -1.
         21    1    1    2  504  503 -0.74116571891E+03  0.10478192024E+03 -0.89620349515E+02  0.75388174188E+03  0.00000000000E+00 0. -1.
<mgrwt>
<rscale>  4 0.78058482E+03</rscale>
<asrwt>0</asrwt>
<pdfrwt beam="1">  1       21 0.10497332E+00 0.78058482E+03</pdfrwt>
<pdfrwt beam="2">  1       21 0.17532961E+00 0.78058482E+03</pdfrwt>
<totfact> 0.10044685E+02</totfact>
</mgrwt>
</event>
<event>
 5    0  0.1911311E+001  0.2439528E+03  0.7546771E-02  0.1117187E+00
         21   -1    0    0  502  501  0.00000000000E+00  0.00000000000E+00  0.13609092736E+03  0.13609092736E+03  0.00000000000E+00 0.  1.
         21   -1    0    0  504  502 -0.00000000000E+00 -0.00000000000E+00 -0.71244611851E+03  0.71244611851E+03  0.00000000000E+00 0.  1.
         25    1    1    2    0    0  0.19234584206E+03  0.14772861503E+03 -0.44461272190E+03  0.52165710877E+03  0.12500000000E+03 0.  0.
         21    1    1    2  503  501 -0.17353359586E+03 -0.10387811705E+03 -0.17417888363E+02  0.20299742592E+03  0.00000000000E+00 0.  1.
         21    1    1    2  504  503 -0.18812246198E+02 -0.43850497979E+02 -0.11432458089E+03  0.12388251118E+03  0.00000000000E+00 0. -1.
<mgrwt>
<rscale>  4 0.24395281E+03</rscale>
<asrwt>0</asrwt>
<pdfrwt beam="1">  1       21 0.20937066E-01 0.24395281E+03</pdfrwt>
<pdfrwt beam="2">  1       21 0.10960710E+00 0.24395281E+03</pdfrwt>
<totfact> 0.13520172E+04</totfact>
</mgrwt>
</event>
<event>
 5    0  0.1911311E+001  0.2664968E+03  0.7546771E-02  0.1103301E+00
         21   -1    0    0  502  501  0.00000000000E+00  0.00000000000E+00  0.11023542121E+04  0.11023542121E+04  0.00000000000E+00 0. -1.
         21   -1    0    0  504  502 -0.00000000000E+00 -0.00000000000E+00 -0.70964179974E+02  0.70964179974E+02  0.00000000000E+00 0. -1.
         25    1    1    2    0    0  0.12737094366E+03 -0.22010987603E+03  0.57961431695E+03  0.64517398524E+03  0.12500000000E+03 0.  0.
         21    1    1    2  503  501 -0.26585693485E+02  0.19220497476E+02  0.14006592497E+03  0.14385649084E+03  0.00000000000E+00 0. -1.
         21    1    1    2  504  503 -0.10078525017E+03  0.20088937855E+03  0.31170979023E+03  0.38428791601E+03  0.00000000000E+00 0. -1.
<mgrwt>
<rscale>  4 0.26649676E+03</rscale>
<asrwt>0</asrwt>
<pdfrwt beam="1">  1       21 0.16959294E+00 0.26649676E+03</pdfrwt>
<pdfrwt beam="2">  1       21 0.10917567E-01 0.26649676E+03</pdfrwt>
<totfact> 0.14219632E+04</totfact>
</mgrwt>
</event>
<event>
 5    0  0.1911311E+001  0.5011113E+03  0.7546771E-02  0.1013489E+00
         21   -1    0    0  504  501  0.00000000000E+00  0.00000000000E+00  0.22929410506E+03  0.22929410506E+03  0.00000000000E+00 0. -1.
         21   -1    0    0  503  502 -0.00000000000E+00 -0.00000000000E+00 -0.12116298524E+04  0.12116298524E+04  0.00000000000E+00 0. -1.
         25    1    1    2    0    0  0.23170597898E+03 -0.42638001400E+03 -0.26261064495E+03  0.56575341614E+03  0.12500000000E+03 0.  0.
         21    1    1    2  503  501 -0.22117394453E+03  0.39534587906E+03 -0.70768055630E+03  0.84025475161E+03  0.00000000000E+00 0. -1.
         21    1    1    2  504  502 -0.10532034445E+02  0.31034134940E+02 -0.12044546101E+02  0.34915789720E+02  0.00000000000E+00 0.  1.
<mgrwt>
<rscale>  4 0.50111134E+03</rscale>
<asrwt>0</asrwt>
<pdfrwt beam="1">  1       21 0.35276016E-01 0.50111134E+03</pdfrwt>
<pdfrwt beam="2">  1       21 0.18640459E+00 0.50111134E+03</pdfrwt>
<totfact> 0.10476289E+03</totfact>
</mgrwt>
</event>
<event>
 5    0  0.1911311E+001  0.2848863E+03  0.7546771E-02  0.1093050E+00
         21   -1    0    0  503  501  0.00000000000E+00  0.00000000000E+00  0.23773870187E+03  0.23773870187E+03  0.00000000000E+00 0. -1.
         21   -1    0    0  504  502 -0.00000000000E+00 -0.00000000000E+00 -0.33776386718E+03  0.33776386718E+03  0.00000000000E+00 0. -1.
         25    1    1    2    0    0 -0.25283315863E+03 -0.40132276376E+02 -0.17747362132E+02  0.28543856532E+03  0.12500000000E+03 0.  0.
         21    1    1    2  503  502  0.75489141037E+02 -0.25202000826E+02 -0.60188030409E+02  0.99781512639E+02  0.00000000000E+00 0. -1.
         21    1    1    2  504  501  0.17734401759E+03  0.65334277201E+02 -0.22089772773E+02  0.19028249109E+03  0.00000000000E+00 0. -1.
<mgrwt>
<rscale>  4 0.28488630E+03</rscale>
<asrwt>0</asrwt>
<pdfrwt beam="1">  1       21 0.36575185E-01 0.28488630E+03</pdfrwt>
<pdfrwt beam="2">  1       21 0.51963672E-01 0.28488630E+03</pdfrwt>
<totfact> 0.24228489E+04</totfact>
</mgrwt>
</event>
