<event>
 5    0  0.1856407E+000  0.3097739E+03  0.7546771E-02  0.1080454E+00
         21   -1    0    0  502  501  0.00000000000E+00  0.00000000000E+00  0.39879777865E+03  0.39879777865E+03  0.00000000000E+00 0.  1.
         21   -1    0    0  503  502 -0.00000000000E+00 -0.00000000000E+00 -0.28521218862E+03  0.28521218862E+03  0.00000000000E+00 0.  1.
         25    1    1    2    0    0  0.26228857190E+03  0.10742244326E+03  0.21549566866E+03  0.37735693909E+03  0.12500000000E+03 0.  0.
         21    1    1    2  503  504 -0.21102467034E+03 -0.97230973786E+02 -0.10351059616E+03  0.25436139108E+03  0.00000000000E+00 0.  1.
         21    1    1    2  504  501 -0.51263901568E+02 -0.10191469476E+02  0.16005175299E+01  0.52291637098E+02  0.00000000000E+00 0.  1.
<mgrwt>
<rscale>  4 0.30977391E+03</rscale>
<asrwt>0</asrwt>
<pdfrwt beam="1">  1       21 0.61353504E-01 0.30977391E+03</pdfrwt>
<pdfrwt beam="2">  1       21 0.43878798E-01 0.30977391E+03</pdfrwt>
<totfact> 0.11572428E+04</totfact>
</mgrwt>
</event>
<event>
 5    0  0.1856407E+000  0.2574427E+03  0.7546771E-02  0.1108690E+00
         21   -1    0    0  502  501  0.00000000000E+00  0.00000000000E+00  0.13894989673E+03  0.13894989673E+03  0.00000000000E+00 0.  1.
         21   -1    0    0  503  502 -0.00000000000E+00 -0.00000000000E+00 -0.92979331404E+03  0.92979331404E+03  0.00000000000E+00 0.  1.
         25    1    1    2    0    0 -0.16385444058E+03 -0.16057791370E+03 -0.28834118328E+02  0.26284967272E+03  0.12500000000E+03 0.  0.
         21    1    1    2  503  504  0.17887048848E+03  0.11119818993E+03 -0.60399426284E+03  0.63966300396E+03  0.00000000000E+00 0.  1.
         21    1    1    2  504  501 -0.15016047903E+02  0.49379723775E+02 -0.15801503614E+03  0.16623053408E+03  0.00000000000E+00 0.  1.
<mgrwt>
<rscale>  4 0.25744271E+03</rscale>
<asrwt>0</asrwt>
<pdfrwt beam="1">  1       21 0.21376907E-01 0.25744271E+03</pdfrwt>
<pdfrwt beam="2">  1       21 0.14304513E+00 0.25744271E+03</pdfrwt>
<totfact> 0.65864448E+03</totfact>
</mgrwt>
</event>
<event>
 5    0  0.1856407E+000  0.2562076E+03  0.7546771E-02  0.1109443E+00
         21   -1    0    0  502  501  0.00000000000E+00  0.00000000000E+00  0.99712309125E+02  0.99712309125E+02  0.00000000000E+00 0. -1.
         21   -1    0    0  503  502 -0.00000000000E+00 -0.00000000000E+00 -0.58973554380E+03  0.58973554380E+03  0.00000000000E+00 0.  1.
         25    1    1    2    0    0  0.21997850031E+03 -0.40333247693E+02 -0.28452585142E+03  0.38288023140E+03  0.12500000000E+03 0.  0.
         21    1    1    2  503  504 -0.23661686372E+02  0.14364240176E+01 -0.41630021530E+02  0.47906131221E+02  0.00000000000E+00 0.  1.
         21    1    1    2  504  501 -0.19631681394E+03  0.38896823676E+02 -0.16386736172E+03  0.25866149030E+03  0.00000000000E+00 0.  1.
<mgrwt>
<rscale>  4 0.25620756E+03</rscale>
<asrwt>0</asrwt>
<pdfrwt beam="1">  1       21 0.15340355E-01 0.25620756E+03</pdfrwt>
<pdfrwt beam="2">  1       21 0.90728544E-01 0.25620756E+03</pdfrwt>
<totfact> 0.37651344E+04</totfact>
</mgrwt>
</event>
<event>
 5    0  0.1856407E+000  0.2669673E+03  0.7546771E-02  0.1103028E+00
         21   -1    0    0  502  501  0.00000000000E+00  0.00000000000E+00  0.35066331652E+03  0.35066331652E+03  0.00000000000E+00 0.  1.
         21   -1    0    0  503  502 -0.00000000000E+00 -0.00000000000E+00 -0.45811491818E+03  0.45811491818E+03  0.00000000000E+00 0.  1.
         25    1    1    2    0    0 -0.23569853868E+03  0.96309949241E+01  0.25650694101E+03  0.37022610387E+03  0.12500000000E+03 0.  0.
         21    1    1    2  503  504  0.54935504730E+02  0.25428973010E+02 -0.90339349995E+02  0.10874622065E+03  0.00000000000E+00 0.  1.
         21    1    1    2  504  501  0.18076303395E+03 -0.35059967934E+02 -0.27361919267E+03  0.32980591018E+03  0.00000000000E+00 0.  1.
<mgrwt>
<rscale>  4 0.26696733E+03</rscale>
<asrwt>0</asrwt>
<pdfrwt beam="1">  1       21 0.53948203E-01 0.26696733E+03</pdfrwt>
<pdfrwt beam="2">  1       21 0.70479218E-01 0.26696733E+03</pdfrwt>
<totfact> 0.56447633E+03</totfact>
</mgrwt>
</event>
<event>
 5    0  0.2283903E+000  0.2753004E+03  0.7546771E-02  0.1098284E+00
         21   -1    0    0  502  501  0.00000000000E+00  0.00000000000E+00  0.16475991000E+03  0.16475991000E+03  0.00000000000E+00 0.  1.
         21   -1    0    0  503  502 -0.00000000000E+00 -0.00000000000E+00 -0.60052624003E+03  0.60052624003E+03  0.00000000000E+00 0.  1.
         25    1    1    2    0    0 -0.13071454086E+03  0.20755486759E+03 -0.23411942669E+02  0.27629410655E+03  0.12500000000E+03 0.  0.
         21    1    1    2  503  504  0.29665334735E+01 -0.77458823808E+02 -0.91224550358E+02  0.11971043519E+03  0.00000000000E+00 0.  1.
         21    1    1    2  504  501  0.12774800738E+03 -0.13009604379E+03 -0.32112983701E+03  0.36928160828E+03  0.00000000000E+00 0.  1.
<mgrwt>
<rscale>  4 0.27530041E+03</rscale>
<asrwt>0</asrwt>
<pdfrwt beam="1">  1       21 0.25347678E-01 0.27530041E+03</pdfrwt>
<pdfrwt beam="2">  1       21 0.92388652E-01 0.27530041E+03</pdfrwt>
<totfact> 0.13916361E+04</totfact>
</mgrwt>
</event>
<event>
 5    0  0.1856407E+000  0.2487240E+03  0.7546771E-02  0.1114114E+00
         21   -1    0    0  502  501  0.00000000000E+00  0.00000000000E+00  0.54026202746E+03  0.54026202746E+03  0.00000000000E+00 0.  1.
         21   -1    0    0  503  502 -0.00000000000E+00 -0.00000000000E+00 -0.40126560072E+03  0.40126560072E+03  0.00000000000E+00 0. -1.
         25    1    1    2    0    0 -0.22206970564E+03 -0.34924573821E+02  0.45805984809E+03  0.52533656303E+03  0.12500000000E+03 0.  0.
         21    1    1    2  503  504  0.13343509981E+03 -0.11799071714E+02 -0.27667569727E+03  0.30739808948E+03  0.00000000000E+00 0. -1.
         21    1    1    2  504  501  0.88634605824E+02  0.46723645534E+02 -0.42387724085E+02  0.10879297567E+03  0.00000000000E+00 0. -1.
<mgrwt>
<rscale>  4 0.24872403E+03</rscale>
<asrwt>0</asrwt>
<pdfrwt beam="1">  1       21 0.83117235E-01 0.24872403E+03</pdfrwt>
<pdfrwt beam="2">  1       21 0.61733170E-01 0.24872403E+03</pdfrwt>
<totfact> 0.29440346E+03</totfact>
</mgrwt>
</event>
<event>
 5    0  0.1856407E+000  0.4128139E+03  0.7546771E-02  0.1039431E+00
         21   -1    0    0  502  501  0.00000000000E+00  0.00000000000E+00  0.14020611574E+04  0.14020611574E+04  0.00000000000E+00 0. -1.
         21   -1    0    0  503  502 -0.00000000000E+00 -0.00000000000E+00 -0.42449454852E+03  0.42449454852E+03  0.00000000000E+00 0. -1.
         25    1    1    2    0    0  0.27175854327E+03 -0.28449541653E+03  0.12671200610E+04  0.13326697254E+04  0.12500000000E+03 0.  0.
         21    1    1    2  503  504 -0.23048590532E+03  0.26850794010E+03 -0.24072261469E+03  0.42798089172E+03  0.00000000000E+00 0. -1.
         21    1    1    2  504  501 -0.41272637943E+02  0.15987476430E+02 -0.48830837459E+02  0.65905088820E+02  0.00000000000E+00 0. -1.
<mgrwt>
<rscale>  4 0.41281394E+03</rscale>
<asrwt>0</asrwt>
<pdfrwt beam="1">  1       21 0.21570172E+00 0.41281394E+03</pdfrwt>
<pdfrwt beam="2">  1       21 0.65306854E-01 0.41281394E+03</pdfrwt>
<totfact> 0.18934511E+02</totfact>
</mgrwt>
</event>
<event>
 5    0  0.2138557E+000  0.1765002E+03  0.7546771E-02  0.1171234E+00
         21   -1    0    0  502  501  0.00000000000E+00  0.00000000000E+00  0.44978288710E+03  0.44978288710E+03  0.00000000000E+00 0.  1.
         21   -1    0    0  503  502 -0.00000000000E+00 -0.00000000000E+00 -0.17957284029E+03  0.17957284029E+03  0.00000000000E+00 0.  1.
         25    1    1    2    0    0 -0.21584169514E+03  0.56144715454E+02  0.27480862294E+03  0.37534603458E+03  0.12500000000E+03 0.  0.
         21    1    1    2  503  504  0.11110619818E+03 -0.27189699586E+02 -0.63061909926E+02  0.13061650555E+03  0.00000000000E+00 0.  1.
         21    1    1    2  504  501  0.10473549696E+03 -0.28955015868E+02  0.58463333799E+02  0.12339318727E+03  0.00000000000E+00 0.  1.
<mgrwt>
<rscale>  4 0.17650018E+03</rscale>
<asrwt>0</asrwt>
<pdfrwt beam="1">  1       21 0.69197367E-01 0.17650018E+03</pdfrwt>
<pdfrwt beam="2">  1       21 0.27626591E-01 0.17650018E+03</pdfrwt>
<totfact> 0.23988256E+04</totfact>
</mgrwt>
</event>
<event>
 5    0  0.2734192E+000  0.2877523E+03  0.7546771E-02  0.1091529E+00
         21   -1    0    0  502  501  0.00000000000E+00  0.00000000000E+00  0.97397637152E+02  0.97397637152E+02  0.00000000000E+00 0. -1.
         21   -1    0    0  503  502 -0.00000000000E+00 -0.00000000000E+00 -0.79538188195E+03  0.79538188195E+03  0.00000000000E+00 0. -1.
         25    1    1    2    0    0 -0.25683590882E+02  0.25790836704E+03 -0.29418762687E+03  0.41151881176E+03  0.12500000000E+03 0.  0.
         21    1    1    2  503  504  0.24706119507E+02 -0.23037293748E+03 -0.33659212191E+03  0.40862738429E+03  0.00000000000E+00 0. -1.
         21    1    1    2  504  501  0.97747137581E+00 -0.27535429562E+02 -0.67204496020E+02  0.72633323047E+02  0.00000000000E+00 0. -1.
<mgrwt>
<rscale>  4 0.28775228E+03</rscale>
<asrwt>0</asrwt>
<pdfrwt beam="1">  1       21 0.14984252E-01 0.28775228E+03</pdfrwt>
<pdfrwt beam="2">  1       21 0.12236645E+00 0.28775228E+03</pdfrwt>
<totfact> 0.18774455E+04</totfact>
</mgrwt>
</event>
