<event>
 5    0  0.1828625E+000  0.4349559E+03  0.7546771E-02  0.1032306E+00
         21   -1    0    0  503  501  0.00000000000E+00  0.00000000000E+00  0.23074622971E+03  0.23074622971E+03  0.00000000000E+00 0. -1.
         21   -1    0    0  504  502 -0.00000000000E+00 -0.00000000000E+00 -0.41606010019E+03  0.41606010019E+03  0.00000000000E+00 0. -1.
         25    1    1    2    0    0 -0.19239354437E+03 -0.58565851581E+02 -0.14191405655E+03  0.27606128728E+03  0.12500000000E+03 0.  0.
         21    1    1    2  503  502  0.51143667918E+02  0.17611172567E+03 -0.35642323912E+02  0.18681913698E+03  0.00000000000E+00 0. -1.
         21    1    1    2  504  501  0.14124987646E+03 -0.11754587409E+03 -0.77574900185E+01  0.18392590564E+03  0.00000000000E+00 0. -1.
<mgrwt>
<rscale>  4 0.43495591E+03</rscale>
<asrwt>0</asrwt>
<pdfrwt beam="1">  1       21 0.35499420E-01 0.43495591E+03</pdfrwt>
<pdfrwt beam="2">  1       21 0.64009246E-01 0.43495591E+03</pdfrwt>
<totfact> 0.15582333E+04</totfact>
</mgrwt>
</event>
<event>
 5    0  0.1828625E+000  0.4455167E+03  0.7546771E-02  0.1029067E+00
         21   -1    0    0  502  501  0.00000000000E+00  0.00000000000E+00  0.16950780717E+03  0.16950780717E+03  0.00000000000E+00 0.  1.
         21   -1    0    0  504  502 -0.00000000000E+00 -0.00000000000E+00 -0.73700632316E+03  0.73700632316E+03  0.00000000000E+00 0.  1.
         25    1    1    2    0    0 -0.19638081095E+03 -0.15936244078E+03 -0.29668705589E+03  0.40940202683E+03  0.12500000000E+03 0.  0.
         21    1    1    2  503  501  0.11514250088E+03  0.42461761535E+02  0.60269695204E+02  0.13672319797E+03  0.00000000000E+00 0.  1.
         21    1    1    2  504  503  0.81238310068E+02  0.11690067924E+03 -0.33108115530E+03  0.36038890552E+03  0.00000000000E+00 0.  1.
<mgrwt>
<rscale>  4 0.44551673E+03</rscale>
<asrwt>0</asrwt>
<pdfrwt beam="1">  1       21 0.26078125E-01 0.44551673E+03</pdfrwt>
<pdfrwt beam="2">  1       21 0.11338559E+00 0.44551673E+03</pdfrwt>
<totfact> 0.75010889E+03</totfact>
</mgrwt>
</event>
<event>
 5    0  0.1828625E+000  0.6276063E+03  0.7546771E-02  0.9849731E-01
         21   -1    0    0  503  501  0.00000000000E+00  0.00000000000E+00  0.10160707954E+04  0.10160707954E+04  0.00000000000E+00 0. -1.
         21   -1    0    0  504  502 -0.00000000000E+00 -0.00000000000E+00 -0.20028146835E+03  0.20028146835E+03  0.00000000000E+00 0. -1.
         25    1    1    2    0    0 -0.10990126529E+01  0.23938102543E+03  0.34331969417E+03  0.43680418447E+03  0.12500000000E+03 0.  0.
         21    1    1    2  503  502 -0.12376277457E+03 -0.47788831684E+01  0.49743053002E+03  0.51261798084E+03  0.00000000000E+00 0. -1.
         21    1    1    2  504  501  0.12486178722E+03 -0.23460214227E+03 -0.24960897129E+02  0.26693009843E+03  0.00000000000E+00 0. -1.
<mgrwt>
<rscale>  4 0.62760626E+03</rscale>
<asrwt>0</asrwt>
<pdfrwt beam="1">  1       21 0.15631858E+00 0.62760626E+03</pdfrwt>
<pdfrwt beam="2">  1       21 0.30812534E-01 0.62760626E+03</pdfrwt>
<totfact> 0.21923907E+03</totfact>
</mgrwt>
</event>
<event>
 5    0  0.1828625E+000  0.4921722E+03  0.7546771E-02  0.1015843E+00
         21   -1    0    0  503  501  0.00000000000E+00  0.00000000000E+00  0.11710239058E+04  0.11710239058E+04  0.00000000000E+00 0. -1.
         21   -1    0    0  504  502 -0.00000000000E+00 -0.00000000000E+00 -0.11291129260E+03  0.11291129260E+03  0.00000000000E+00 0. -1.
         25    1    1    2    0    0  0.22847676763E+03 -0.11319607059E+03  0.51407722066E+03  0.58729496213E+03  0.12500000000E+03 0.  0.
         21    1    1    2  503  502 -0.73153139236E+02  0.77643676975E+02 -0.21727805008E+02  0.10886698244E+03  0.00000000000E+00 0. -1.
         21    1    1    2  504  501 -0.15532362840E+03  0.35552393615E+02  0.56576319758E+03  0.58777325387E+03  0.00000000000E+00 0. -1.
<mgrwt>
<rscale>  4 0.49217223E+03</rscale>
<asrwt>0</asrwt>
<pdfrwt beam="1">  1       21 0.18015752E+00 0.49217223E+03</pdfrwt>
<pdfrwt beam="2">  1       21 0.17370969E-01 0.49217223E+03</pdfrwt>
<totfact> 0.46304317E+03</totfact>
</mgrwt>
</event>
<event>
 5    0  0.1828625E+000  0.6207557E+03  0.7546771E-02  0.9863256E-01
         21   -1    0    0  504  501  0.00000000000E+00  0.00000000000E+00  0.10672496970E+04  0.10672496970E+04  0.00000000000E+00 0.  1.
         21   -1    0    0  503  502 -0.00000000000E+00 -0.00000000000E+00 -0.15291927470E+03  0.15291927470E+03  0.00000000000E+00 0.  1.
         25    1    1    2    0    0 -0.19172778082E+03 -0.21624311119E+03  0.30499958805E+03  0.43837241449E+03  0.12500000000E+03 0.  0.
         21    1    1    2  503  501  0.22090503000E+03  0.20131504280E+03  0.17522301382E+03  0.34645329166E+03  0.00000000000E+00 0.  1.
         21    1    1    2  504  502 -0.29177249173E+02  0.14928068392E+02  0.43410782045E+03  0.43534326557E+03  0.00000000000E+00 0.  1.
<mgrwt>
<rscale>  4 0.62075570E+03</rscale>
<asrwt>0</asrwt>
<pdfrwt beam="1">  1       21 0.16419226E+00 0.62075570E+03</pdfrwt>
<pdfrwt beam="2">  1       21 0.23526043E-01 0.62075570E+03</pdfrwt>
<totfact> 0.32586216E+03</totfact>
</mgrwt>
</event>
<event>
 5    0  0.1828625E+000  0.6746738E+03  0.7546771E-02  0.9761551E-01
         21   -1    0    0  504  501  0.00000000000E+00  0.00000000000E+00  0.47599381950E+03  0.47599381950E+03  0.00000000000E+00 0.  1.
         21   -1    0    0  503  502 -0.00000000000E+00 -0.00000000000E+00 -0.35739797937E+03  0.35739797937E+03  0.00000000000E+00 0.  1.
         25    1    1    2    0    0  0.26234045052E+03  0.69423989374E+02  0.14427132316E+03  0.33178519703E+03  0.12500000000E+03 0.  0.
         21    1    1    2  503  501 -0.28608283477E+03 -0.59699090424E+02 -0.18127820018E+03  0.34390282873E+03  0.00000000000E+00 0.  1.
         21    1    1    2  504  502  0.23742384247E+02 -0.97248989500E+01  0.15560271715E+03  0.15770377311E+03  0.00000000000E+00 0.  1.
<mgrwt>
<rscale>  4 0.67467385E+03</rscale>
<asrwt>0</asrwt>
<pdfrwt beam="1">  1       21 0.73229819E-01 0.67467385E+03</pdfrwt>
<pdfrwt beam="2">  1       21 0.54984304E-01 0.67467385E+03</pdfrwt>
<totfact> 0.43301775E+03</totfact>
</mgrwt>
</event>
<event>
 5    0  0.1973531E+000  0.4702604E+03  0.7546771E-02  0.1021847E+00
         21   -1    0    0  503  501  0.00000000000E+00  0.00000000000E+00  0.25132851262E+03  0.25132851262E+03  0.00000000000E+00 0. -1.
         21   -1    0    0  504  502 -0.00000000000E+00 -0.00000000000E+00 -0.77412106373E+03  0.77412106373E+03  0.00000000000E+00 0. -1.
         25    1    1    2    0    0 -0.34288042509E+03 -0.10489179525E+03 -0.41157116157E+03  0.55998669239E+03  0.12500000000E+03 0.  0.
         21    1    1    2  503  502  0.29829666181E+03  0.30032530500E+02  0.28122451267E+02  0.30112077909E+03  0.00000000000E+00 0. -1.
         21    1    1    2  504  501  0.44583763280E+02  0.74859264746E+02 -0.13934384081E+03  0.16434210488E+03  0.00000000000E+00 0.  1.
<mgrwt>
<rscale>  4 0.47026042E+03</rscale>
<asrwt>0</asrwt>
<pdfrwt beam="1">  1       21 0.38665925E-01 0.47026042E+03</pdfrwt>
<pdfrwt beam="2">  1       21 0.11909555E+00 0.47026042E+03</pdfrwt>
<totfact> 0.29893880E+03</totfact>
</mgrwt>
</event>
<event>
 5    0  0.1828625E+000  0.4694958E+03  0.7546771E-02  0.1022063E+00
         21   -1    0    0  502  501  0.00000000000E+00  0.00000000000E+00  0.13891660008E+03  0.13891660008E+03  0.00000000000E+00 0.  1.
         21   -1    0    0  504  502 -0.00000000000E+00 -0.00000000000E+00 -0.80142808384E+03  0.80142808384E+03  0.00000000000E+00 0.  1.
         25    1    1    2    0    0 -0.24707883820E+03 -0.12708519384E+03 -0.31999560511E+03  0.44183796359E+03  0.12500000000E+03 0.  0.
         21    1    1    2  503  501  0.13622824871E+03  0.34011838120E+02 -0.15964621335E+02  0.14131457821E+03  0.00000000000E+00 0.  1.
         21    1    1    2  504  503  0.11085058949E+03  0.93073355722E+02 -0.32655125732E+03  0.35719214212E+03  0.00000000000E+00 0.  1.
<mgrwt>
<rscale>  4 0.46949576E+03</rscale>
<asrwt>0</asrwt>
<pdfrwt beam="1">  1       21 0.21371785E-01 0.46949576E+03</pdfrwt>
<pdfrwt beam="2">  1       21 0.12329663E+00 0.46949576E+03</pdfrwt>
<totfact> 0.88537757E+03</totfact>
</mgrwt>
</event>
<event>
 5    0  0.1828625E+000  0.4766156E+03  0.7546771E-02  0.1020069E+00
         21   -1    0    0  502  501  0.00000000000E+00  0.00000000000E+00  0.12570284700E+03  0.12570284700E+03  0.00000000000E+00 0. -1.
         21   -1    0    0  504  502 -0.00000000000E+00 -0.00000000000E+00 -0.10123967559E+04  0.10123967559E+04  0.00000000000E+00 0. -1.
         25    1    1    2    0    0  0.17917746508E+03  0.15155180318E+03 -0.60529932182E+03  0.66112387798E+03  0.12500000000E+03 0.  0.
         21    1    1    2  503  501 -0.15962798352E+02 -0.25001869291E+02  0.66263284721E+02  0.72599774802E+02  0.00000000000E+00 0. -1.
         21    1    1    2  504  503 -0.16321466673E+03 -0.12654993389E+03 -0.34765787178E+03  0.40437595010E+03  0.00000000000E+00 0. -1.
<mgrwt>
<rscale>  4 0.47661564E+03</rscale>
<asrwt>0</asrwt>
<pdfrwt beam="1">  1       21 0.19338900E-01 0.47661564E+03</pdfrwt>
<pdfrwt beam="2">  1       21 0.15575335E+00 0.47661564E+03</pdfrwt>
<totfact> 0.57491254E+03</totfact>
</mgrwt>
</event>
<event>
 5    0  0.1828625E+000  0.6570619E+03  0.7546771E-02  0.9793617E-01
         21   -1    0    0  504  501  0.00000000000E+00  0.00000000000E+00  0.20022362369E+03  0.20022362369E+03  0.00000000000E+00 0.  1.
         21   -1    0    0  503  502 -0.00000000000E+00 -0.00000000000E+00 -0.92550247156E+03  0.92550247156E+03  0.00000000000E+00 0.  1.
         25    1    1    2    0    0  0.20475940979E+03 -0.38218956546E+01 -0.22642487097E+02  0.24099523855E+03  0.12500000000E+03 0.  0.
         21    1    1    2  503  501 -0.16045294011E+03  0.13873878945E+02 -0.77921768594E+03  0.79568701924E+03  0.00000000000E+00 0.  1.
         21    1    1    2  504  502 -0.44306469678E+02 -0.10051983291E+02  0.76581325176E+02  0.89043837457E+02  0.00000000000E+00 0.  1.
<mgrwt>
<rscale>  4 0.65706192E+03</rscale>
<asrwt>0</asrwt>
<pdfrwt beam="1">  1       21 0.30803635E-01 0.65706192E+03</pdfrwt>
<pdfrwt beam="2">  1       21 0.14238499E+00 0.65706192E+03</pdfrwt>
<totfact> 0.28125136E+03</totfact>
</mgrwt>
</event>
<event>
 5    0  0.2849058E+000  0.4048824E+03  0.7546771E-02  0.1042102E+00
         21   -1    0    0  502  501  0.00000000000E+00  0.00000000000E+00  0.14943470434E+04  0.14943470434E+04  0.00000000000E+00 0.  1.
         21   -1    0    0  504  502 -0.00000000000E+00 -0.00000000000E+00 -0.65605312884E+02  0.65605312884E+02  0.00000000000E+00 0.  1.
         25    1    1    2    0    0  0.24815785504E+03 -0.64756658095E+02  0.37198730200E+03  0.46880198233E+03  0.12500000000E+03 0.  0.
         21    1    1    2  503  501 -0.19961761832E+03  0.45277720805E+02  0.66133821071E+03  0.69229003640E+03  0.00000000000E+00 0.  1.
         21    1    1    2  504  503 -0.48540236719E+02  0.19478937290E+02  0.39541621785E+03  0.39886033761E+03  0.00000000000E+00 0. -1.
<mgrwt>
<rscale>  4 0.40488238E+03</rscale>
<asrwt>0</asrwt>
<pdfrwt beam="1">  1       21 0.22989952E+00 0.40488238E+03</pdfrwt>
<pdfrwt beam="2">  1       21 0.10093126E-01 0.40488238E+03</pdfrwt>
<totfact> 0.60898137E+03</totfact>
</mgrwt>
</event>
<event>
 5    0  0.1828625E+000  0.4622713E+03  0.7546771E-02  0.1024125E+00
         21   -1    0    0  503  501  0.00000000000E+00  0.00000000000E+00  0.53627482679E+03  0.53627482679E+03  0.00000000000E+00 0.  1.
         21   -1    0    0  504  502 -0.00000000000E+00 -0.00000000000E+00 -0.14694824448E+03  0.14694824448E+03  0.00000000000E+00 0.  1.
         25    1    1    2    0    0  0.21390556494E+03  0.32061311225E+02  0.59226715838E+02  0.25674174234E+03  0.12500000000E+03 0.  0.
         21    1    1    2  503  502 -0.18189848042E+02 -0.42758233189E+02  0.16112914373E+03  0.16769537273E+03  0.00000000000E+00 0.  1.
         21    1    1    2  504  501 -0.19571571690E+03  0.10696921964E+02  0.16897072275E+03  0.25878595620E+03  0.00000000000E+00 0.  1.
<mgrwt>
<rscale>  4 0.46227128E+03</rscale>
<asrwt>0</asrwt>
<pdfrwt beam="1">  1       21 0.82503819E-01 0.46227128E+03</pdfrwt>
<pdfrwt beam="2">  1       21 0.22607422E-01 0.46227128E+03</pdfrwt>
<totfact> 0.21199476E+04</totfact>
</mgrwt>
</event>
<event>
 5    0  0.1828625E+000  0.4141188E+03  0.7546771E-02  0.1038998E+00
         21   -1    0    0  503  501  0.00000000000E+00  0.00000000000E+00  0.82627498646E+03  0.82627498646E+03  0.00000000000E+00 0.  1.
         21   -1    0    0  504  502 -0.00000000000E+00 -0.00000000000E+00 -0.16369434304E+03  0.16369434304E+03  0.00000000000E+00 0.  1.
         25    1    1    2    0    0 -0.10402895687E+03  0.17323208393E+03  0.27716194162E+03  0.36506865197E+03  0.12500000000E+03 0.  0.
         21    1    1    2  503  502  0.27727948617E+03 -0.15333040128E+03  0.23311121373E+03  0.39336365284E+03  0.00000000000E+00 0.  1.
         21    1    1    2  504  501 -0.17325052931E+03 -0.19901682642E+02  0.15230748807E+03  0.23153702468E+03  0.00000000000E+00 0.  1.
<mgrwt>
<rscale>  4 0.41411875E+03</rscale>
<asrwt>0</asrwt>
<pdfrwt beam="1">  1       21 0.12711923E+00 0.41411875E+03</pdfrwt>
<pdfrwt beam="2">  1       21 0.25183746E-01 0.41411875E+03</pdfrwt>
<totfact> 0.60727597E+03</totfact>
</mgrwt>
</event>
<event>
 5    0  0.1828625E+000  0.4852138E+03  0.7546771E-02  0.1017712E+00
         21   -1    0    0  502  501  0.00000000000E+00  0.00000000000E+00  0.43142845402E+03  0.43142845402E+03  0.00000000000E+00 0. -1.
         21   -1    0    0  503  502 -0.00000000000E+00 -0.00000000000E+00 -0.19929491254E+03  0.19929491254E+03  0.00000000000E+00 0. -1.
         25    1    1    2    0    0 -0.20617402701E+03 -0.80754089818E+01 -0.56687771490E+02  0.24781332708E+03  0.12500000000E+03 0.  0.
         21    1    1    2  503  504  0.19028154273E+03  0.27634685790E+02  0.15566859858E+03  0.24739331831E+03  0.00000000000E+00 0. -1.
         21    1    1    2  504  501  0.15892484282E+02 -0.19559276808E+02  0.13315271439E+03  0.13551672117E+03  0.00000000000E+00 0. -1.
<mgrwt>
<rscale>  4 0.48521379E+03</rscale>
<asrwt>0</asrwt>
<pdfrwt beam="1">  1       21 0.66373608E-01 0.48521379E+03</pdfrwt>
<pdfrwt beam="2">  1       21 0.30660756E-01 0.48521379E+03</pdfrwt>
<totfact> 0.19045216E+04</totfact>
</mgrwt>
</event>
<event>
 5    0  0.1828625E+000  0.7629573E+03  0.7546771E-02  0.9615239E-01
         21   -1    0    0  503  501  0.00000000000E+00  0.00000000000E+00  0.22305828021E+03  0.22305828021E+03  0.00000000000E+00 0. -1.
         21   -1    0    0  504  502 -0.00000000000E+00 -0.00000000000E+00 -0.74092796710E+03  0.74092796710E+03  0.00000000000E+00 0.  1.
         25    1    1    2    0    0  0.29666437398E+03 -0.11453703626E+03 -0.90387215488E+01  0.34181161763E+03  0.12500000000E+03 0.  0.
         21    1    1    2  503  502 -0.25338512020E+03  0.12415918851E+03 -0.50395326666E+03  0.57757113692E+03  0.00000000000E+00 0.  1.
         21    1    1    2  504  501 -0.43279253777E+02 -0.96221522471E+01 -0.48776986735E+01  0.44603492752E+02  0.00000000000E+00 0.  1.
<mgrwt>
<rscale>  4 0.76295732E+03</rscale>
<asrwt>0</asrwt>
<pdfrwt beam="1">  1       21 0.34316658E-01 0.76295732E+03</pdfrwt>
<pdfrwt beam="2">  1       21 0.11398892E+00 0.76295732E+03</pdfrwt>
<totfact> 0.39517867E+03</totfact>
</mgrwt>
</event>
<event>
 5    0  0.1828625E+000  0.5309403E+03  0.7546771E-02  0.1006004E+00
         21   -1    0    0  504  501  0.00000000000E+00  0.00000000000E+00  0.28909161209E+04  0.28909161209E+04  0.00000000000E+00 0. -1.
         21   -1    0    0  501  502 -0.00000000000E+00 -0.00000000000E+00 -0.73336224081E+03  0.73336224081E+03  0.00000000000E+00 0.  1.
         25    1    1    2    0    0  0.41619610191E+03 -0.13792160034E+03 -0.48626723604E+03  0.66657511800E+03  0.12500000000E+03 0.  0.
         21    1    1    2  503  502 -0.58364913996E+02  0.31451098854E+02 -0.13685930989E+03  0.15207269811E+03  0.00000000000E+00 0. -1.
         21    1    1    2  504  503 -0.35783118791E+03  0.10647050148E+03  0.27806804260E+04  0.28056305456E+04  0.00000000000E+00 0. -1.
<mgrwt>
<rscale>  4 0.53094026E+03</rscale>
<asrwt>0</asrwt>
<pdfrwt beam="1">  1       21 0.44475632E+00 0.53094026E+03</pdfrwt>
<pdfrwt beam="2">  1       21 0.11282496E+00 0.53094026E+03</pdfrwt>
<totfact> 0.17887758E+00</totfact>
</mgrwt>
</event>
<event>
 5    0  0.1828625E+000  0.5190758E+03  0.7546771E-02  0.1008916E+00
         21   -1    0    0  503  501  0.00000000000E+00  0.00000000000E+00  0.37658557823E+03  0.37658557823E+03  0.00000000000E+00 0. -1.
         21   -1    0    0  504  502 -0.00000000000E+00 -0.00000000000E+00 -0.23269361114E+03  0.23269361114E+03  0.00000000000E+00 0.  1.
         25    1    1    2    0    0 -0.17084592410E+02  0.22031609765E+03  0.10328654887E+03  0.27408790079E+03  0.12500000000E+03 0.  0.
         21    1    1    2  503  502 -0.20781647586E+01  0.23737017128E+02  0.83344925136E+02  0.86684146745E+02  0.00000000000E+00 0. -1.
         21    1    1    2  504  501  0.19162757169E+02 -0.24405311478E+03 -0.42739506916E+02  0.24850714184E+03  0.00000000000E+00 0.  1.
<mgrwt>
<rscale>  4 0.51907575E+03</rscale>
<asrwt>0</asrwt>
<pdfrwt beam="1">  1       21 0.57936243E-01 0.51907575E+03</pdfrwt>
<pdfrwt beam="2">  1       21 0.35799017E-01 0.51907575E+03</pdfrwt>
<totfact> 0.18673744E+04</totfact>
</mgrwt>
</event>
<event>
 5    0  0.1828625E+000  0.5366967E+03  0.7546771E-02  0.1004621E+00
         21   -1    0    0  503  501  0.00000000000E+00  0.00000000000E+00  0.31249237005E+03  0.31249237005E+03  0.00000000000E+00 0. -1.
         21   -1    0    0  504  502 -0.00000000000E+00 -0.00000000000E+00 -0.10823102175E+04  0.10823102175E+04  0.00000000000E+00 0. -1.
         25    1    1    2    0    0  0.17860040900E+02 -0.25000634119E+03 -0.66612652331E+03  0.72261448695E+03  0.12500000000E+03 0.  0.
         21    1    1    2  503  502 -0.20267273526E+03  0.34778639011E+03  0.59566638379E+02  0.40691497290E+03  0.00000000000E+00 0. -1.
         21    1    1    2  504  501  0.18481269436E+03 -0.97780048913E+02 -0.16325796256E+03  0.26527312774E+03  0.00000000000E+00 0.  1.
<mgrwt>
<rscale>  4 0.53669667E+03</rscale>
<asrwt>0</asrwt>
<pdfrwt beam="1">  1       21 0.48075750E-01 0.53669667E+03</pdfrwt>
<pdfrwt beam="2">  1       21 0.16650926E+00 0.53669667E+03</pdfrwt>
<totfact> 0.75496668E+02</totfact>
</mgrwt>
</event>
<event>
 5    0  0.1828625E+000  0.4943043E+03  0.7546771E-02  0.1015276E+00
         21   -1    0    0  503  501  0.00000000000E+00  0.00000000000E+00  0.20614678186E+03  0.20614678186E+03  0.00000000000E+00 0.  1.
         21   -1    0    0  504  502 -0.00000000000E+00 -0.00000000000E+00 -0.49995537855E+03  0.49995537855E+03  0.00000000000E+00 0.  1.
         25    1    1    2    0    0 -0.28871948874E+02  0.20590280296E+03 -0.17676121541E+03  0.30016508953E+03  0.12500000000E+03 0.  0.
         21    1    1    2  503  502  0.51171597766E+02 -0.24638970768E+03 -0.19292427220E+03  0.31709020053E+03  0.00000000000E+00 0.  1.
         21    1    1    2  504  501 -0.22299648893E+02  0.40486904720E+02  0.75876890929E+02  0.88846870353E+02  0.00000000000E+00 0.  1.
<mgrwt>
<rscale>  4 0.49430429E+03</rscale>
<asrwt>0</asrwt>
<pdfrwt beam="1">  1       21 0.31714890E-01 0.49430429E+03</pdfrwt>
<pdfrwt beam="2">  1       21 0.76916212E-01 0.49430429E+03</pdfrwt>
<totfact> 0.12717705E+04</totfact>
</mgrwt>
</event>
<event>
 5    0  0.1828625E+000  0.7500431E+03  0.7546771E-02  0.9635283E-01
         21   -1    0    0  502  501  0.00000000000E+00  0.00000000000E+00  0.46643704222E+03  0.46643704222E+03  0.00000000000E+00 0. -1.
         21   -1    0    0  503  502 -0.00000000000E+00 -0.00000000000E+00 -0.32357910226E+04  0.32357910226E+04  0.00000000000E+00 0. -1.
         25    1    1    2    0    0  0.86266834475E+02  0.42860544073E+03 -0.14222707512E+04  0.14931924459E+04  0.12500000000E+03 0.  0.
         21    1    1    2  503  504 -0.10383521738E+03 -0.21861368506E+03 -0.17434323319E+04  0.17601505593E+04  0.00000000000E+00 0. -1.
         21    1    1    2  504  501  0.17568382909E+02 -0.20999175568E+03  0.39634910273E+03  0.44888505963E+03  0.00000000000E+00 0. -1.
<mgrwt>
<rscale>  4 0.75004313E+03</rscale>
<asrwt>0</asrwt>
<pdfrwt beam="1">  1       21 0.71759542E-01 0.75004313E+03</pdfrwt>
<pdfrwt beam="2">  1       21 0.49781402E+00 0.75004313E+03</pdfrwt>
<totfact> 0.19749953E+00</totfact>
</mgrwt>
</event>
<event>
 5    0  0.1828625E+000  0.5680117E+03  0.7546771E-02  0.9974088E-01
         21   -1    0    0  504  501  0.00000000000E+00  0.00000000000E+00  0.10351994110E+04  0.10351994110E+04  0.00000000000E+00 0.  1.
         21   -1    0    0  503  502 -0.00000000000E+00 -0.00000000000E+00 -0.12139956527E+03  0.12139956527E+03  0.00000000000E+00 0.  1.
         25    1    1    2    0    0  0.20384586341E+03 -0.88926928115E+02  0.15113938770E+03  0.29652866487E+03  0.12500000000E+03 0.  0.
         21    1    1    2  503  501 -0.21913016100E+03  0.18081724432E+03  0.43604562459E+03  0.52043125389E+03  0.00000000000E+00 0.  1.
         21    1    1    2  504  502  0.15284297582E+02 -0.91890316200E+02  0.32661483346E+03  0.33963905753E+03  0.00000000000E+00 0.  1.
<mgrwt>
<rscale>  4 0.56801168E+03</rscale>
<asrwt>0</asrwt>
<pdfrwt beam="1">  1       21 0.15926144E+00 0.56801168E+03</pdfrwt>
<pdfrwt beam="2">  1       21 0.18676857E-01 0.56801168E+03</pdfrwt>
<totfact> 0.56163413E+03</totfact>
</mgrwt>
</event>
<event>
 5    0  0.1828625E+000  0.3714426E+03  0.7546771E-02  0.1054143E+00
         21   -1    0    0  503  501  0.00000000000E+00  0.00000000000E+00  0.58929587042E+03  0.58929587042E+03  0.00000000000E+00 0.  1.
         21   -1    0    0  504  502 -0.00000000000E+00 -0.00000000000E+00 -0.92847149217E+03  0.92847149217E+03  0.00000000000E+00 0.  1.
         25    1    1    2    0    0 -0.22830256953E+03 -0.29939034049E+01 -0.47147181945E+03  0.53855519981E+03  0.12500000000E+03 0.  0.
         21    1    1    2  503  502  0.14691029725E+03  0.29031220785E+01  0.54196762716E+03  0.56153358977E+03  0.00000000000E+00 0.  1.
         21    1    1    2  504  501  0.81392272285E+02  0.90781326384E-01 -0.40967142946E+03  0.41767857300E+03  0.00000000000E+00 0. -1.
<mgrwt>
<rscale>  4 0.37144260E+03</rscale>
<asrwt>0</asrwt>
<pdfrwt beam="1">  1       21 0.90660903E-01 0.37144260E+03</pdfrwt>
<pdfrwt beam="2">  1       21 0.14284177E+00 0.37144260E+03</pdfrwt>
<totfact> 0.30172310E+02</totfact>
</mgrwt>
</event>
<event>
 5    0  0.1828625E+000  0.5062980E+03  0.7546771E-02  0.1012148E+00
         21   -1    0    0  502  501  0.00000000000E+00  0.00000000000E+00  0.81076624114E+03  0.81076624114E+03  0.00000000000E+00 0. -1.
         21   -1    0    0  503  502 -0.00000000000E+00 -0.00000000000E+00 -0.22996107250E+03  0.22996107250E+03  0.00000000000E+00 0. -1.
         25    1    1    2    0    0 -0.22738798670E+03 -0.24380547921E+02  0.15575739575E+03  0.30361994985E+03  0.12500000000E+03 0.  0.
         21    1    1    2  503  504  0.17463090648E+03  0.28535694920E+02 -0.10411491396E+03  0.20530502841E+03  0.00000000000E+00 0. -1.
         21    1    1    2  504  501  0.52757080224E+02 -0.41551469996E+01  0.52916268685E+03  0.53180233538E+03  0.00000000000E+00 0. -1.
<mgrwt>
<rscale>  4 0.50629802E+03</rscale>
<asrwt>0</asrwt>
<pdfrwt beam="1">  1       21 0.12473327E+00 0.50629802E+03</pdfrwt>
<pdfrwt beam="2">  1       21 0.35378627E-01 0.50629802E+03</pdfrwt>
<totfact> 0.31451213E+03</totfact>
</mgrwt>
</event>
<event>
 5    0  0.1828625E+000  0.4145458E+03  0.7546771E-02  0.1038856E+00
         21   -1    0    0  502  501  0.00000000000E+00  0.00000000000E+00  0.89904883346E+03  0.89904883346E+03  0.00000000000E+00 0.  1.
         21   -1    0    0  504  502 -0.00000000000E+00 -0.00000000000E+00 -0.73692160026E+02  0.73692160026E+02  0.00000000000E+00 0.  1.
         25    1    1    2    0    0  0.13189839560E+03  0.15376744182E+03  0.27833053547E+03  0.36624377114E+03  0.12500000000E+03 0.  0.
         21    1    1    2  503  501 -0.16367209970E+00 -0.37522492100E+02  0.30568906006E+03  0.30798338533E+03  0.00000000000E+00 0.  1.
         21    1    1    2  504  503 -0.13173472350E+03 -0.11624494972E+03  0.24133707791E+03  0.29851383701E+03  0.00000000000E+00 0.  1.
<mgrwt>
<rscale>  4 0.41454583E+03</rscale>
<asrwt>0</asrwt>
<pdfrwt beam="1">  1       21 0.13831520E+00 0.41454583E+03</pdfrwt>
<pdfrwt beam="2">  1       21 0.11337256E-01 0.41454583E+03</pdfrwt>
<totfact> 0.21736751E+04</totfact>
</mgrwt>
</event>
<event>
 5    0  0.1828625E+000  0.5621798E+03  0.7546771E-02  0.9987135E-01
         21   -1    0    0  504  501  0.00000000000E+00  0.00000000000E+00  0.74348357562E+03  0.74348357562E+03  0.00000000000E+00 0.  1.
         21   -1    0    0  501  502 -0.00000000000E+00 -0.00000000000E+00 -0.40853534561E+03  0.40853534561E+03  0.00000000000E+00 0. -1.
         25    1    1    2    0    0 -0.22658811135E+03  0.58255346927E+02 -0.33740093110E+03  0.42918556122E+03  0.12500000000E+03 0.  0.
         21    1    1    2  503  502  0.48872910824E+02 -0.64944227804E+02  0.14397989983E+03  0.16533761125E+03  0.00000000000E+00 0.  1.
         21    1    1    2  504  503  0.17771520053E+03  0.66888808767E+01  0.52836926128E+03  0.55749574876E+03  0.00000000000E+00 0.  1.
<mgrwt>
<rscale>  4 0.56217978E+03</rscale>
<asrwt>0</asrwt>
<pdfrwt beam="1">  1       21 0.11438209E+00 0.56217978E+03</pdfrwt>
<pdfrwt beam="2">  1       21 0.62851592E-01 0.56217978E+03</pdfrwt>
<totfact> 0.11396400E+03</totfact>
</mgrwt>
</event>
<event>
 5    0  0.1828625E+000  0.4458299E+03  0.7546771E-02  0.1028973E+00
         21   -1    0    0  503  501  0.00000000000E+00  0.00000000000E+00  0.35129150419E+03  0.35129150419E+03  0.00000000000E+00 0.  1.
         21   -1    0    0  504  502 -0.00000000000E+00 -0.00000000000E+00 -0.20854655606E+03  0.20854655606E+03  0.00000000000E+00 0.  1.
         25    1    1    2    0    0  0.16496357543E+03  0.11543071070E+03  0.13384632625E+03  0.27217102940E+03  0.12500000000E+03 0.  0.
         21    1    1    2  503  502 -0.40280669085E+02 -0.31182733506E+02  0.99668879316E+02  0.11193203596E+03  0.00000000000E+00 0.  1.
         21    1    1    2  504  501 -0.12468290635E+03 -0.84247977191E+02 -0.90770257431E+02  0.17573499489E+03  0.00000000000E+00 0.  1.
<mgrwt>
<rscale>  4 0.44582985E+03</rscale>
<asrwt>0</asrwt>
<pdfrwt beam="1">  1       21 0.54044847E-01 0.44582985E+03</pdfrwt>
<pdfrwt beam="2">  1       21 0.32084086E-01 0.44582985E+03</pdfrwt>
<totfact> 0.27560692E+04</totfact>
</mgrwt>
</event>
<event>
 5    0  0.1828625E+000  0.5285054E+03  0.7546771E-02  0.1006595E+00
         21   -1    0    0  502  501  0.00000000000E+00  0.00000000000E+00  0.11182316695E+03  0.11182316695E+03  0.00000000000E+00 0. -1.
         21   -1    0    0  504  502 -0.00000000000E+00 -0.00000000000E+00 -0.76204655855E+03  0.76204655855E+03  0.00000000000E+00 0. -1.
         25    1    1    2    0    0 -0.12514800936E+03 -0.20190622161E+03 -0.50070229938E+03  0.56811613177E+03  0.12500000000E+03 0.  0.
         21    1    1    2  503  501 -0.19872088880E+02  0.30711899257E+02 -0.82365173787E+00  0.36589603368E+02  0.00000000000E+00 0.  1.
         21    1    1    2  504  503  0.14502009824E+03  0.17119432235E+03 -0.14869744049E+03  0.26916399036E+03  0.00000000000E+00 0. -1.
<mgrwt>
<rscale>  4 0.52850542E+03</rscale>
<asrwt>0</asrwt>
<pdfrwt beam="1">  1       21 0.17203563E-01 0.52850542E+03</pdfrwt>
<pdfrwt beam="2">  1       21 0.11723794E+00 0.52850542E+03</pdfrwt>
<totfact> 0.14962969E+04</totfact>
</mgrwt>
</event>
<event>
 5    0  0.1828625E+000  0.5185777E+03  0.7546771E-02  0.1009040E+00
         21   -1    0    0  502  501  0.00000000000E+00  0.00000000000E+00  0.11820455088E+04  0.11820455088E+04  0.00000000000E+00 0. -1.
         21   -1    0    0  504  502 -0.00000000000E+00 -0.00000000000E+00 -0.33996879911E+03  0.33996879911E+03  0.00000000000E+00 0.  1.
         25    1    1    2    0    0 -0.24836447072E+03  0.96873372853E+02 -0.24692700625E+03  0.38427504095E+03  0.12500000000E+03 0.  0.
         21    1    1    2  503  501  0.16171869076E+03 -0.58379871986E+02  0.97226036549E+03  0.98734561462E+03  0.00000000000E+00 0. -1.
         21    1    1    2  504  503  0.86645779960E+02 -0.38493500867E+02  0.11674335047E+03  0.15039365237E+03  0.00000000000E+00 0. -1.
<mgrwt>
<rscale>  4 0.51857770E+03</rscale>
<asrwt>0</asrwt>
<pdfrwt beam="1">  1       21 0.18185315E+00 0.51857770E+03</pdfrwt>
<pdfrwt beam="2">  1       21 0.52302893E-01 0.51857770E+03</pdfrwt>
<totfact> 0.49200971E+02</totfact>
</mgrwt>
</event>
<event>
 5    0  0.1828625E+000  0.5529357E+03  0.7546771E-02  0.1000817E+00
         21   -1    0    0  504  501  0.00000000000E+00  0.00000000000E+00  0.43124765538E+03  0.43124765538E+03  0.00000000000E+00 0. -1.
         21   -1    0    0  503  502 -0.00000000000E+00 -0.00000000000E+00 -0.21863319485E+03  0.21863319485E+03  0.00000000000E+00 0. -1.
         25    1    1    2    0    0  0.14780769502E+03  0.13639255329E+03  0.23051723191E+03  0.33047426149E+03  0.12500000000E+03 0.  0.
         21    1    1    2  503  501 -0.17217172463E+03 -0.13596662741E+03 -0.94614021250E+02  0.23891806032E+03  0.00000000000E+00 0. -1.
         21    1    1    2  504  502  0.24364029617E+02 -0.42592587621E+00  0.76711249868E+02  0.80488528427E+02  0.00000000000E+00 0. -1.
<mgrwt>
<rscale>  4 0.55293574E+03</rscale>
<asrwt>0</asrwt>
<pdfrwt beam="1">  1       21 0.66345793E-01 0.55293574E+03</pdfrwt>
<pdfrwt beam="2">  1       21 0.33635876E-01 0.55293574E+03</pdfrwt>
<totfact> 0.15581762E+04</totfact>
</mgrwt>
</event>
<event>
 5    0  0.1828625E+000  0.6789835E+03  0.7546771E-02  0.9753864E-01
         21   -1    0    0  502  501  0.00000000000E+00  0.00000000000E+00  0.70273353917E+03  0.70273353917E+03  0.00000000000E+00 0.  1.
         21   -1    0    0  504  502 -0.00000000000E+00 -0.00000000000E+00 -0.19629871305E+04  0.19629871305E+04  0.00000000000E+00 0. -1.
         25    1    1    2    0    0 -0.31766243692E+02  0.26437564089E+03 -0.37737378376E+03  0.47847627570E+03  0.12500000000E+03 0.  0.
         21    1    1    2  503  501 -0.41529306134E+02 -0.52221341644E+02  0.64223964024E+03  0.64569614160E+03  0.00000000000E+00 0.  1.
         21    1    1    2  504  503  0.73295549826E+02 -0.21215429925E+03 -0.15251194478E+04  0.15415482524E+04  0.00000000000E+00 0. -1.
<mgrwt>
<rscale>  4 0.67898350E+03</rscale>
<asrwt>0</asrwt>
<pdfrwt beam="1">  1       21 0.10811285E+00 0.67898350E+03</pdfrwt>
<pdfrwt beam="2">  1       21 0.30199802E+00 0.67898350E+03</pdfrwt>
<totfact> 0.14707839E+01</totfact>
</mgrwt>
</event>
<event>
 5    0  0.1828625E+000  0.4378919E+03  0.7546771E-02  0.1031396E+00
         21   -1    0    0  504  501  0.00000000000E+00  0.00000000000E+00  0.33178767184E+03  0.33178767184E+03  0.00000000000E+00 0. -1.
         21   -1    0    0  503  502 -0.00000000000E+00 -0.00000000000E+00 -0.39952310044E+03  0.39952310044E+03  0.00000000000E+00 0. -1.
         25    1    1    2    0    0  0.29447908630E+03 -0.10182631145E+03 -0.13980731302E+03  0.36367240031E+03  0.12500000000E+03 0.  0.
         21    1    1    2  503  501 -0.49677371242E+02 -0.41932270736E+02  0.51620659741E+02  0.83011138136E+02  0.00000000000E+00 0.  1.
         21    1    1    2  504  502 -0.24480171506E+03  0.14375858219E+03  0.20451224680E+02  0.28462723383E+03  0.00000000000E+00 0. -1.
<mgrwt>
<rscale>  4 0.43789188E+03</rscale>
<asrwt>0</asrwt>
<pdfrwt beam="1">  1       21 0.51044257E-01 0.43789188E+03</pdfrwt>
<pdfrwt beam="2">  1       21 0.61465092E-01 0.43789188E+03</pdfrwt>
<totfact> 0.80066022E+03</totfact>
</mgrwt>
</event>
<event>
 5    0  0.1828625E+000  0.4298365E+03  0.7546771E-02  0.1033912E+00
         21   -1    0    0  503  501  0.00000000000E+00  0.00000000000E+00  0.26948319971E+03  0.26948319971E+03  0.00000000000E+00 0. -1.
         21   -1    0    0  504  502 -0.00000000000E+00 -0.00000000000E+00 -0.27203392329E+03  0.27203392329E+03  0.00000000000E+00 0.  1.
         25    1    1    2    0    0 -0.18897365414E+03 -0.99667826611E+02 -0.83723874078E+02  0.26130328109E+03  0.12500000000E+03 0.  0.
         21    1    1    2  503  502  0.36211418170E+02  0.67818422465E+01  0.94007522193E+02  0.10096868039E+03  0.00000000000E+00 0. -1.
         21    1    1    2  504  501  0.15276223597E+03  0.92885984364E+02 -0.12834371695E+02  0.17924516151E+03  0.00000000000E+00 0. -1.
<mgrwt>
<rscale>  4 0.42983652E+03</rscale>
<asrwt>0</asrwt>
<pdfrwt beam="1">  1       21 0.41458953E-01 0.42983652E+03</pdfrwt>
<pdfrwt beam="2">  1       21 0.41851373E-01 0.42983652E+03</pdfrwt>
<totfact> 0.28183510E+04</totfact>
</mgrwt>
</event>
<event>
 5    0  0.1828625E+000  0.5951729E+03  0.7546771E-02  0.9915472E-01
         21   -1    0    0  503  501  0.00000000000E+00  0.00000000000E+00  0.16774177907E+04  0.16774177907E+04  0.00000000000E+00 0. -1.
         21   -1    0    0  504  502 -0.00000000000E+00 -0.00000000000E+00 -0.14143283420E+03  0.14143283420E+03  0.00000000000E+00 0. -1.
         25    1    1    2    0    0  0.24337540142E+03 -0.18828465658E+03  0.26450422528E+03  0.42458236316E+03  0.12500000000E+03 0.  0.
         21    1    1    2  503  502 -0.65155759726E+02 -0.49561639815E+01  0.10457037498E+04  0.10477433698E+04  0.00000000000E+00 0. -1.
         21    1    1    2  504  501 -0.17821964169E+03  0.19324082056E+03  0.22577698148E+03  0.34652489200E+03  0.00000000000E+00 0. -1.
<mgrwt>
<rscale>  4 0.59517286E+03</rscale>
<asrwt>0</asrwt>
<pdfrwt beam="1">  1       21 0.25806426E+00 0.59517286E+03</pdfrwt>
<pdfrwt beam="2">  1       21 0.21758899E-01 0.59517286E+03</pdfrwt>
<totfact> 0.90314126E+02</totfact>
</mgrwt>
</event>
<event>
 5    0  0.1828625E+000  0.5064691E+03  0.7546771E-02  0.1012104E+00
         21   -1    0    0  503  501  0.00000000000E+00  0.00000000000E+00  0.10321713882E+04  0.10321713882E+04  0.00000000000E+00 0. -1.
         21   -1    0    0  504  502 -0.00000000000E+00 -0.00000000000E+00 -0.34613839972E+03  0.34613839972E+03  0.00000000000E+00 0.  1.
         25    1    1    2    0    0 -0.76941446246E+02 -0.18850675035E+03  0.49048871319E+02  0.24389664379E+03  0.12500000000E+03 0.  0.
         21    1    1    2  503  502  0.29663782774E+03  0.27499008084E+03  0.76535332531E+03  0.86566694402E+03  0.00000000000E+00 0. -1.
         21    1    1    2  504  501 -0.21969638150E+03 -0.86483330494E+02 -0.12836920811E+03  0.26874620014E+03  0.00000000000E+00 0.  1.
<mgrwt>
<rscale>  4 0.50646912E+03</rscale>
<asrwt>0</asrwt>
<pdfrwt beam="1">  1       21 0.15879560E+00 0.50646912E+03</pdfrwt>
<pdfrwt beam="2">  1       21 0.53252062E-01 0.50646912E+03</pdfrwt>
<totfact> 0.70148887E+02</totfact>
</mgrwt>
</event>
<event>
 5    0  0.1828625E+000  0.5916048E+03  0.7546771E-02  0.9922978E-01
         21   -1    0    0  502  501  0.00000000000E+00  0.00000000000E+00  0.17591418314E+04  0.17591418314E+04  0.00000000000E+00 0.  1.
         21   -1    0    0  503  502 -0.00000000000E+00 -0.00000000000E+00 -0.10988234552E+03  0.10988234552E+03  0.00000000000E+00 0.  1.
         25    1    1    2    0    0  0.24062386464E+03  0.82621484791E+02  0.10027055183E+04  0.10420026442E+04  0.12500000000E+03 0.  0.
         21    1    1    2  503  504 -0.29054881200E+02 -0.24636764207E+03  0.30389822240E+03  0.39229495377E+03  0.00000000000E+00 0.  1.
         21    1    1    2  504  501 -0.21156898344E+03  0.16374615728E+03  0.34265574517E+03  0.43472657898E+03  0.00000000000E+00 0.  1.
<mgrwt>
<rscale>  4 0.59160482E+03</rscale>
<asrwt>0</asrwt>
<pdfrwt beam="1">  1       21 0.27063718E+00 0.59160482E+03</pdfrwt>
<pdfrwt beam="2">  1       21 0.16904978E-01 0.59160482E+03</pdfrwt>
<totfact> 0.12246360E+03</totfact>
</mgrwt>
</event>
<event>
 5    0  0.1828625E+000  0.4054873E+03  0.7546771E-02  0.1041896E+00
         21   -1    0    0  503  501  0.00000000000E+00  0.00000000000E+00  0.23859983398E+03  0.23859983398E+03  0.00000000000E+00 0.  1.
         21   -1    0    0  504  502 -0.00000000000E+00 -0.00000000000E+00 -0.21819662880E+03  0.21819662880E+03  0.00000000000E+00 0.  1.
         25    1    1    2    0    0 -0.63621512562E+02  0.19700801362E+03  0.14646665498E+02  0.24227954743E+03  0.12500000000E+03 0.  0.
         21    1    1    2  503  502 -0.64268387527E+01 -0.49574301657E+02  0.11077941855E+02  0.51201918293E+02  0.00000000000E+00 0.  1.
         21    1    1    2  504  501  0.70048351315E+02 -0.14743371196E+03 -0.53214021635E+01  0.16331499706E+03  0.00000000000E+00 0.  1.
<mgrwt>
<rscale>  4 0.40548733E+03</rscale>
<asrwt>0</asrwt>
<pdfrwt beam="1">  1       21 0.36707667E-01 0.40548733E+03</pdfrwt>
<pdfrwt beam="2">  1       21 0.33568712E-01 0.40548733E+03</pdfrwt>
<totfact> 0.57043241E+04</totfact>
</mgrwt>
</event>
<event>
 5    0  0.1828625E+000  0.4406152E+03  0.7546771E-02  0.1030558E+00
         21   -1    0    0  504  501  0.00000000000E+00  0.00000000000E+00  0.11742670721E+03  0.11742670721E+03  0.00000000000E+00 0.  1.
         21   -1    0    0  503  502 -0.00000000000E+00 -0.00000000000E+00 -0.69713208542E+03  0.69713208542E+03  0.00000000000E+00 0. -1.
         25    1    1    2    0    0 -0.27733613687E+02  0.23721957777E+03 -0.17641993004E+03  0.32216653011E+03  0.12500000000E+03 0.  0.
         21    1    1    2  503  501  0.44620183150E+02 -0.11213698705E+03 -0.31781437255E+03  0.33995829158E+03  0.00000000000E+00 0.  1.
         21    1    1    2  504  502 -0.16886569463E+02 -0.12508259072E+03 -0.85471075620E+02  0.15243397094E+03  0.00000000000E+00 0.  1.
<mgrwt>
<rscale>  4 0.44061518E+03</rscale>
<asrwt>0</asrwt>
<pdfrwt beam="1">  1       21 0.18065647E-01 0.44061518E+03</pdfrwt>
<pdfrwt beam="2">  1       21 0.10725109E+00 0.44061518E+03</pdfrwt>
<totfact> 0.17439215E+04</totfact>
</mgrwt>
</event>
<event>
 5    0  0.1828625E+000  0.4710213E+03  0.7546771E-02  0.1021632E+00
         21   -1    0    0  503  501  0.00000000000E+00  0.00000000000E+00  0.17091035221E+03  0.17091035221E+03  0.00000000000E+00 0. -1.
         21   -1    0    0  504  502 -0.00000000000E+00 -0.00000000000E+00 -0.76383125929E+03  0.76383125929E+03  0.00000000000E+00 0. -1.
         25    1    1    2    0    0 -0.27174125470E+03  0.16261056867E+03 -0.22283759588E+03  0.40689937415E+03  0.12500000000E+03 0.  0.
         21    1    1    2  503  502  0.21509313604E+03 -0.48729303933E+02 -0.32526455382E+03  0.39298426458E+03  0.00000000000E+00 0. -1.
         21    1    1    2  504  501  0.56648118662E+02 -0.11388126473E+03 -0.44818757392E+02  0.13485797277E+03  0.00000000000E+00 0. -1.
<mgrwt>
<rscale>  4 0.47102134E+03</rscale>
<asrwt>0</asrwt>
<pdfrwt beam="1">  1       21 0.26293900E-01 0.47102134E+03</pdfrwt>
<pdfrwt beam="2">  1       21 0.11751250E+00 0.47102134E+03</pdfrwt>
<totfact> 0.66947915E+03</totfact>
</mgrwt>
</event>
<event>
 5    0  0.1828625E+000  0.5002127E+03  0.7546771E-02  0.1013723E+00
         21   -1    0    0  504  501  0.00000000000E+00  0.00000000000E+00  0.71208987046E+03  0.71208987046E+03  0.00000000000E+00 0. -1.
         21   -1    0    0  503  502 -0.00000000000E+00 -0.00000000000E+00 -0.22053395963E+03  0.22053395963E+03  0.00000000000E+00 0. -1.
         25    1    1    2    0    0  0.14667745128E+03 -0.16768921803E+03 -0.20008171859E+01  0.25546614614E+03  0.12500000000E+03 0.  0.
         21    1    1    2  503  501 -0.11340697500E+03  0.21089542345E+03  0.69116957628E+02  0.24922916251E+03  0.00000000000E+00 0. -1.
         21    1    1    2  504  502 -0.33270476275E+02 -0.43206205428E+02  0.42443977039E+03  0.42792852144E+03  0.00000000000E+00 0. -1.
<mgrwt>
<rscale>  4 0.50021273E+03</rscale>
<asrwt>0</asrwt>
<pdfrwt beam="1">  1       21 0.10955229E+00 0.50021273E+03</pdfrwt>
<pdfrwt beam="2">  1       21 0.33928302E-01 0.50021273E+03</pdfrwt>
<totfact> 0.47618924E+03</totfact>
</mgrwt>
</event>
<event>
 5    0  0.1828625E+000  0.3681564E+03  0.7546771E-02  0.1055400E+00
         21   -1    0    0  502  501  0.00000000000E+00  0.00000000000E+00  0.11218038178E+03  0.11218038178E+03  0.00000000000E+00 0.  1.
         21   -1    0    0  504  502 -0.00000000000E+00 -0.00000000000E+00 -0.15485601140E+04  0.15485601140E+04  0.00000000000E+00 0.  1.
         25    1    1    2    0    0 -0.94816791706E+02  0.21227052485E+03 -0.10842254707E+04  0.11158937543E+04  0.12500000000E+03 0.  0.
         21    1    1    2  503  501  0.11449285816E+03 -0.11062387094E+03  0.18247505766E+02  0.16024739267E+03  0.00000000000E+00 0.  1.
         21    1    1    2  504  503 -0.19676066457E+02 -0.10164665392E+03 -0.37040176734E+03  0.38459934879E+03  0.00000000000E+00 0. -1.
<mgrwt>
<rscale>  4 0.36815642E+03</rscale>
<asrwt>0</asrwt>
<pdfrwt beam="1">  1       21 0.17258521E-01 0.36815642E+03</pdfrwt>
<pdfrwt beam="2">  1       21 0.23824001E+00 0.36815642E+03</pdfrwt>
<totfact> 0.20620383E+03</totfact>
</mgrwt>
</event>
<event>
 5    0  0.1828625E+000  0.4389805E+03  0.7546771E-02  0.1031060E+00
         21   -1    0    0  502  501  0.00000000000E+00  0.00000000000E+00  0.23946112423E+03  0.23946112423E+03  0.00000000000E+00 0.  1.
         21   -1    0    0  503  502 -0.00000000000E+00 -0.00000000000E+00 -0.42954902937E+03  0.42954902937E+03  0.00000000000E+00 0.  1.
         25    1    1    2    0    0 -0.21211596714E+03  0.62535986087E+02 -0.13357765963E+03  0.28700509442E+03  0.12500000000E+03 0.  0.
         21    1    1    2  503  504  0.16675136799E+03 -0.60205590308E+02 -0.17865277541E+03  0.25168938394E+03  0.00000000000E+00 0.  1.
         21    1    1    2  504  501  0.45364599155E+02 -0.23303957790E+01  0.12214252989E+03  0.13031567523E+03  0.00000000000E+00 0.  1.
<mgrwt>
<rscale>  4 0.43898052E+03</rscale>
<asrwt>0</asrwt>
<pdfrwt beam="1">  1       21 0.36840173E-01 0.43898052E+03</pdfrwt>
<pdfrwt beam="2">  1       21 0.66084467E-01 0.43898052E+03</pdfrwt>
<totfact> 0.13448213E+04</totfact>
</mgrwt>
</event>
<event>
 5    0  0.1828625E+000  0.5275107E+03  0.7546771E-02  0.1006838E+00
         21   -1    0    0  503  501  0.00000000000E+00  0.00000000000E+00  0.42629447091E+03  0.42629447091E+03  0.00000000000E+00 0.  1.
         21   -1    0    0  504  502 -0.00000000000E+00 -0.00000000000E+00 -0.15220343590E+04  0.15220343590E+04  0.00000000000E+00 0.  1.
         25    1    1    2    0    0  0.27644606939E+03  0.21841156916E+03 -0.70318094812E+03  0.79637584633E+03  0.12500000000E+03 0.  0.
         21    1    1    2  503  502 -0.29261599754E+03 -0.15767766643E+03  0.30526675255E+03  0.45130273511E+03  0.00000000000E+00 0.  1.
         21    1    1    2  504  501  0.16169928150E+02 -0.60733902736E+02 -0.69782569250E+03  0.70065024843E+03  0.00000000000E+00 0. -1.
<mgrwt>
<rscale>  4 0.52751068E+03</rscale>
<asrwt>0</asrwt>
<pdfrwt beam="1">  1       21 0.65583765E-01 0.52751068E+03</pdfrwt>
<pdfrwt beam="2">  1       21 0.23415913E+00 0.52751068E+03</pdfrwt>
<totfact> 0.13455960E+02</totfact>
</mgrwt>
</event>
<event>
 5    0  0.1828625E+000  0.6998326E+03  0.7546771E-02  0.9717518E-01
         21   -1    0    0  503  501  0.00000000000E+00  0.00000000000E+00  0.21259638747E+03  0.21259638747E+03  0.00000000000E+00 0.  1.
         21   -1    0    0  504  502 -0.00000000000E+00 -0.00000000000E+00 -0.97824328085E+03  0.97824328085E+03  0.00000000000E+00 0.  1.
         25    1    1    2    0    0  0.10749218771E+03 -0.29023044148E+03 -0.19627435029E+03  0.38721686451E+03  0.12500000000E+03 0.  0.
         21    1    1    2  503  502 -0.83363218072E+02  0.27413281402E+03 -0.65408041406E+03  0.71408641907E+03  0.00000000000E+00 0.  1.
         21    1    1    2  504  501 -0.24128969637E+02  0.16097627461E+02  0.84707870979E+02  0.89536384735E+02  0.00000000000E+00 0.  1.
<mgrwt>
<rscale>  4 0.69983262E+03</rscale>
<asrwt>0</asrwt>
<pdfrwt beam="1">  1       21 0.32707136E-01 0.69983262E+03</pdfrwt>
<pdfrwt beam="2">  1       21 0.15049897E+00 0.69983262E+03</pdfrwt>
<totfact> 0.21193220E+03</totfact>
</mgrwt>
</event>
<event>
 5    0  0.1828625E+000  0.4148891E+03  0.7546771E-02  0.1038743E+00
         21   -1    0    0  503  501  0.00000000000E+00  0.00000000000E+00  0.45272996950E+02  0.45272996950E+02  0.00000000000E+00 0. -1.
         21   -1    0    0  504  502 -0.00000000000E+00 -0.00000000000E+00 -0.14413994601E+04  0.14413994601E+04  0.00000000000E+00 0.  1.
         25    1    1    2    0    0 -0.32689809908E+02  0.21611191556E+03 -0.69329009299E+03  0.73759686602E+03  0.12500000000E+03 0.  0.
         21    1    1    2  503  502 -0.43236351593E+02 -0.74420873288E+02 -0.14581024202E+03  0.16931767527E+03  0.00000000000E+00 0. -1.
         21    1    1    2  504  501  0.75926161501E+02 -0.14169104228E+03 -0.55702612815E+03  0.57975791577E+03  0.00000000000E+00 0. -1.
<mgrwt>
<rscale>  4 0.41488910E+03</rscale>
<asrwt>0</asrwt>
<pdfrwt beam="1">  1       21 0.69650766E-02 0.41488910E+03</pdfrwt>
<pdfrwt beam="2">  1       21 0.22175376E+00 0.41488910E+03</pdfrwt>
<totfact> 0.13184706E+04</totfact>
</mgrwt>
</event>
<event>
 5    0  0.1828625E+000  0.5558227E+03  0.7546771E-02  0.1000155E+00
         21   -1    0    0  503  501  0.00000000000E+00  0.00000000000E+00  0.97218909137E+03  0.97218909137E+03  0.00000000000E+00 0.  1.
         21   -1    0    0  504  502 -0.00000000000E+00 -0.00000000000E+00 -0.90069029527E+02  0.90069029527E+02  0.00000000000E+00 0.  1.
         25    1    1    2    0    0 -0.23983332641E+03  0.20330147259E+02  0.51783922473E+03  0.58456462603E+03  0.12500000000E+03 0.  0.
         21    1    1    2  503  502 -0.32416691282E+02 -0.15662150899E+02  0.53719272251E+02  0.64667650766E+02  0.00000000000E+00 0. -1.
         21    1    1    2  504  501  0.27225001769E+03 -0.46679963609E+01  0.31056156487E+03  0.41302584410E+03  0.00000000000E+00 0.  1.
<mgrwt>
<rscale>  4 0.55582270E+03</rscale>
<asrwt>0</asrwt>
<pdfrwt beam="1">  1       21 0.14956755E+00 0.55582270E+03</pdfrwt>
<pdfrwt beam="2">  1       21 0.13856774E-01 0.55582270E+03</pdfrwt>
<totfact> 0.11730014E+04</totfact>
</mgrwt>
</event>
<event>
 5    0  0.1828625E+000  0.6729315E+03  0.7546771E-02  0.9764677E-01
         21   -1    0    0  502  501  0.00000000000E+00  0.00000000000E+00  0.21064365296E+03  0.21064365296E+03  0.00000000000E+00 0.  1.
         21   -1    0    0  503  502 -0.00000000000E+00 -0.00000000000E+00 -0.69394730987E+03  0.69394730987E+03  0.00000000000E+00 0. -1.
         25    1    1    2    0    0  0.20126410799E+03 -0.22085993747E+02 -0.59644338590E+03  0.64215632432E+03  0.12500000000E+03 0.  0.
         21    1    1    2  503  504 -0.19301929866E+03  0.49495008575E+02  0.71084978406E+02  0.21156389031E+03  0.00000000000E+00 0.  1.
         21    1    1    2  504  501 -0.82448093363E+01 -0.27409014828E+02  0.42054750584E+02  0.50870748191E+02  0.00000000000E+00 0.  1.
<mgrwt>
<rscale>  4 0.67293146E+03</rscale>
<asrwt>0</asrwt>
<pdfrwt beam="1">  1       21 0.32406716E-01 0.67293146E+03</pdfrwt>
<pdfrwt beam="2">  1       21 0.10676112E+00 0.67293146E+03</pdfrwt>
<totfact> 0.53320872E+03</totfact>
</mgrwt>
</event>
<event>
 5    0  0.1828625E+000  0.6257284E+03  0.7546771E-02  0.9853420E-01
         21   -1    0    0  504  501  0.00000000000E+00  0.00000000000E+00  0.10804864559E+04  0.10804864559E+04  0.00000000000E+00 0. -1.
         21   -1    0    0  503  502 -0.00000000000E+00 -0.00000000000E+00 -0.15552107955E+03  0.15552107955E+03  0.00000000000E+00 0. -1.
         25    1    1    2    0    0 -0.10667926543E+03 -0.19422619869E+03  0.51514386167E+03  0.57454545524E+03  0.12500000000E+03 0.  0.
         21    1    1    2  503  501  0.16119238644E+03  0.14691159501E+03 -0.26056797140E+02  0.21964735116E+03  0.00000000000E+00 0. -1.
         21    1    1    2  504  502 -0.54513121005E+02  0.47314603671E+02  0.43587831179E+03  0.44181472901E+03  0.00000000000E+00 0. -1.
<mgrwt>
<rscale>  4 0.62572842E+03</rscale>
<asrwt>0</asrwt>
<pdfrwt beam="1">  1       21 0.16622868E+00 0.62572842E+03</pdfrwt>
<pdfrwt beam="2">  1       21 0.23926321E-01 0.62572842E+03</pdfrwt>
<totfact> 0.30403447E+03</totfact>
</mgrwt>
</event>
<event>
 5    0  0.1828625E+000  0.5919582E+03  0.7546771E-02  0.9922232E-01
         21   -1    0    0  504  501  0.00000000000E+00  0.00000000000E+00  0.80863184692E+03  0.80863184692E+03  0.00000000000E+00 0. -1.
         21   -1    0    0  503  502 -0.00000000000E+00 -0.00000000000E+00 -0.42537256092E+03  0.42537256092E+03  0.00000000000E+00 0.  1.
         25    1    1    2    0    0 -0.38985998396E+03 -0.18786637890E+02 -0.49624281438E+02  0.41283327647E+03  0.12500000000E+03 0.  0.
         21    1    1    2  503  501  0.57245241870E+02  0.16641420427E+03 -0.79174885500E+02  0.19297504396E+03  0.00000000000E+00 0. -1.
         21    1    1    2  504  502  0.33261474209E+03 -0.14762756638E+03  0.51205845294E+03  0.62819608741E+03  0.00000000000E+00 0. -1.
<mgrwt>
<rscale>  4 0.59195819E+03</rscale>
<asrwt>0</asrwt>
<pdfrwt beam="1">  1       21 0.12440490E+00 0.59195819E+03</pdfrwt>
<pdfrwt beam="2">  1       21 0.65441932E-01 0.59195819E+03</pdfrwt>
<totfact> 0.83247025E+02</totfact>
</mgrwt>
</event>
<event>
 5    0  0.1828625E+000  0.8531598E+03  0.7546771E-02  0.9486106E-01
         21   -1    0    0  503  501  0.00000000000E+00  0.00000000000E+00  0.53380034614E+03  0.53380034614E+03  0.00000000000E+00 0. -1.
         21   -1    0    0  504  502 -0.00000000000E+00 -0.00000000000E+00 -0.93021774627E+03  0.93021774627E+03  0.00000000000E+00 0.  1.
         25    1    1    2    0    0 -0.43080073429E+01 -0.24894515655E+03  0.71251516011E+02  0.28756569412E+03  0.12500000000E+03 0.  0.
         21    1    1    2  503  502 -0.89204073908E+01  0.18025899004E+02  0.33781703906E+03  0.33841521624E+03  0.00000000000E+00 0. -1.
         21    1    1    2  504  501  0.13228414734E+02  0.23091925755E+03 -0.80548595521E+03  0.83803718205E+03  0.00000000000E+00 0.  1.
<mgrwt>
<rscale>  4 0.85315979E+03</rscale>
<asrwt>0</asrwt>
<pdfrwt beam="1">  1       21 0.82123131E-01 0.85315979E+03</pdfrwt>
<pdfrwt beam="2">  1       21 0.14311042E+00 0.85315979E+03</pdfrwt>
<totfact> 0.31720558E+02</totfact>
</mgrwt>
</event>
<event>
 5    0  0.1828625E+000  0.4861226E+03  0.7546771E-02  0.1017466E+00
         21   -1    0    0  502  501  0.00000000000E+00  0.00000000000E+00  0.11711447811E+03  0.11711447811E+03  0.00000000000E+00 0.  1.
         21   -1    0    0  504  502 -0.00000000000E+00 -0.00000000000E+00 -0.26780937738E+04  0.26780937738E+04  0.00000000000E+00 0.  1.
         25    1    1    2    0    0  0.24057190138E+03 -0.51126120176E+02 -0.15503812773E+04  0.15747367478E+04  0.12500000000E+03 0.  0.
         21    1    1    2  503  501 -0.30915750521E+02  0.40134439831E+02  0.88244490366E+02  0.10175287205E+03  0.00000000000E+00 0.  1.
         21    1    1    2  504  503 -0.20965615085E+03  0.10991680346E+02 -0.10988425087E+04  0.11187186320E+04  0.00000000000E+00 0. -1.
<mgrwt>
<rscale>  4 0.48612263E+03</rscale>
<asrwt>0</asrwt>
<pdfrwt beam="1">  1       21 0.18017615E-01 0.48612263E+03</pdfrwt>
<pdfrwt beam="2">  1       21 0.41201437E+00 0.48612263E+03</pdfrwt>
<totfact> 0.15190607E+02</totfact>
</mgrwt>
</event>
<event>
 5    0  0.1828625E+000  0.5534519E+03  0.7546771E-02  0.1000698E+00
         21   -1    0    0  503  501  0.00000000000E+00  0.00000000000E+00  0.18771643028E+04  0.18771643028E+04  0.00000000000E+00 0. -1.
         21   -1    0    0  504  502 -0.00000000000E+00 -0.00000000000E+00 -0.10959354619E+03  0.10959354619E+03  0.00000000000E+00 0. -1.
         25    1    1    2    0    0 -0.25611501608E+03 -0.11697073611E+03  0.22304507216E+03  0.38033032851E+03  0.12500000000E+03 0.  0.
         21    1    1    2  503  502  0.42439131097E+02  0.68431069032E+02  0.11680891172E+04  0.11708612542E+04  0.00000000000E+00 0. -1.
         21    1    1    2  504  501  0.21367588498E+03  0.48539667079E+02  0.37643656731E+03  0.43556626627E+03  0.00000000000E+00 0. -1.
<mgrwt>
<rscale>  4 0.55345191E+03</rscale>
<asrwt>0</asrwt>
<pdfrwt beam="1">  1       21 0.28879448E+00 0.55345191E+03</pdfrwt>
<pdfrwt beam="2">  1       21 0.16860547E-01 0.55345191E+03</pdfrwt>
<totfact> 0.96859208E+02</totfact>
</mgrwt>
</event>
<event>
 5    0  0.1828625E+000  0.7106270E+03  0.7546771E-02  0.9699229E-01
         21   -1    0    0  504  501  0.00000000000E+00  0.00000000000E+00  0.20035151380E+03  0.20035151380E+03  0.00000000000E+00 0. -1.
         21   -1    0    0  503  502 -0.00000000000E+00 -0.00000000000E+00 -0.71658954735E+03  0.71658954735E+03  0.00000000000E+00 0.  1.
         25    1    1    2    0    0 -0.62211044594E+02 -0.20859239518E+03 -0.60509365002E+03  0.65509108275E+03  0.12500000000E+03 0.  0.
         21    1    1    2  503  501  0.83049241305E+02  0.20718544590E+03  0.70597659843E+02  0.23410898114E+03  0.00000000000E+00 0. -1.
         21    1    1    2  504  502 -0.20838196711E+02  0.14069492835E+01  0.18257956638E+02  0.27740997261E+02  0.00000000000E+00 0. -1.
<mgrwt>
<rscale>  4 0.71062704E+03</rscale>
<asrwt>0</asrwt>
<pdfrwt beam="1">  1       21 0.30823310E-01 0.71062704E+03</pdfrwt>
<pdfrwt beam="2">  1       21 0.11024454E+00 0.71062704E+03</pdfrwt>
<totfact> 0.53999550E+03</totfact>
</mgrwt>
</event>
<event>
 5    0  0.1828625E+000  0.4413115E+03  0.7546771E-02  0.1030345E+00
         21   -1    0    0  502  501  0.00000000000E+00  0.00000000000E+00  0.62551155859E+03  0.62551155859E+03  0.00000000000E+00 0.  1.
         21   -1    0    0  503  502 -0.00000000000E+00 -0.00000000000E+00 -0.11524389180E+03  0.11524389180E+03  0.00000000000E+00 0.  1.
         25    1    1    2    0    0  0.61165944977E+02 -0.20747992228E+03  0.19227270984E+03  0.31525067157E+03  0.12500000000E+03 0.  0.
         21    1    1    2  503  504 -0.42074046958E+02  0.18605803167E+03  0.11982564425E+03  0.22526873195E+03  0.00000000000E+00 0.  1.
         21    1    1    2  504  501 -0.19091898019E+02  0.21421890612E+02  0.19816931270E+03  0.20023604686E+03  0.00000000000E+00 0.  1.
<mgrwt>
<rscale>  4 0.44131150E+03</rscale>
<asrwt>0</asrwt>
<pdfrwt beam="1">  1       21 0.96232545E-01 0.44131150E+03</pdfrwt>
<pdfrwt beam="2">  1       21 0.17729830E-01 0.44131150E+03</pdfrwt>
<totfact> 0.23528908E+04</totfact>
</mgrwt>
</event>
<event>
 5    0  0.1828625E+000  0.5546485E+03  0.7546771E-02  0.1000424E+00
         21   -1    0    0  503  501  0.00000000000E+00  0.00000000000E+00  0.38905801134E+03  0.38905801134E+03  0.00000000000E+00 0. -1.
         21   -1    0    0  504  502 -0.00000000000E+00 -0.00000000000E+00 -0.30793521425E+03  0.30793521425E+03  0.00000000000E+00 0.  1.
         25    1    1    2    0    0 -0.21981356318E+03 -0.65185142484E+02 -0.19774302756E+03  0.32755825483E+03  0.12500000000E+03 0.  0.
         21    1    1    2  503  502  0.79178684262E+02 -0.11594016040E+02  0.11636632869E+03  0.14122608719E+03  0.00000000000E+00 0. -1.
         21    1    1    2  504  501  0.14063487892E+03  0.76779158524E+02  0.16249949597E+03  0.22820888357E+03  0.00000000000E+00 0. -1.
<mgrwt>
<rscale>  4 0.55464854E+03</rscale>
<asrwt>0</asrwt>
<pdfrwt beam="1">  1       21 0.59855079E-01 0.55464854E+03</pdfrwt>
<pdfrwt beam="2">  1       21 0.47374648E-01 0.55464854E+03</pdfrwt>
<totfact> 0.96368771E+03</totfact>
</mgrwt>
</event>
<event>
 5    0  0.1828625E+000  0.7032464E+03  0.7546771E-02  0.9711696E-01
         21   -1    0    0  503  501  0.00000000000E+00  0.00000000000E+00  0.68356643439E+02  0.68356643439E+02  0.00000000000E+00 0.  1.
         21   -1    0    0  504  502 -0.00000000000E+00 -0.00000000000E+00 -0.23824736620E+04  0.23824736620E+04  0.00000000000E+00 0.  1.
         25    1    1    2    0    0 -0.95228795141E+02  0.23455425020E+03 -0.42881403305E+03  0.51341084392E+03  0.12500000000E+03 0.  0.
         21    1    1    2  503  502 -0.15095128091E+02  0.14571821133E+02  0.95684213846E+01  0.23059825477E+02  0.00000000000E+00 0.  1.
         21    1    1    2  504  501  0.11032392323E+03 -0.24912607133E+03 -0.18948714069E+04  0.19143596361E+04  0.00000000000E+00 0.  1.
<mgrwt>
<rscale>  4 0.70324639E+03</rscale>
<asrwt>0</asrwt>
<pdfrwt beam="1">  1       21 0.10516408E-01 0.70324639E+03</pdfrwt>
<pdfrwt beam="2">  1       21 0.36653438E+00 0.70324639E+03</pdfrwt>
<totfact> 0.72628263E+02</totfact>
</mgrwt>
</event>
<event>
 5    0  0.1828625E+000  0.5135627E+03  0.7546771E-02  0.1010298E+00
         21   -1    0    0  503  501  0.00000000000E+00  0.00000000000E+00  0.52609216567E+03  0.52609216567E+03  0.00000000000E+00 0. -1.
         21   -1    0    0  504  502 -0.00000000000E+00 -0.00000000000E+00 -0.18479618646E+04  0.18479618646E+04  0.00000000000E+00 0. -1.
         25    1    1    2    0    0  0.34245497309E+03 -0.27926504827E+03 -0.16672033569E+04  0.17292936156E+04  0.12500000000E+03 0.  0.
         21    1    1    2  503  502 -0.31051511632E+03  0.25314483398E+03  0.40665480786E+03  0.57085031066E+03  0.00000000000E+00 0. -1.
         21    1    1    2  504  501 -0.31939856778E+02  0.26120214293E+02 -0.61321149840E+02  0.73910103933E+02  0.00000000000E+00 0.  1.
<mgrwt>
<rscale>  4 0.51356274E+03</rscale>
<asrwt>0</asrwt>
<pdfrwt beam="1">  1       21 0.80937256E-01 0.51356274E+03</pdfrwt>
<pdfrwt beam="2">  1       21 0.28430183E+00 0.51356274E+03</pdfrwt>
<totfact> 0.41283352E+01</totfact>
</mgrwt>
</event>
<event>
 5    0  0.1828625E+000  0.9177680E+03  0.7546771E-02  0.9403639E-01
         21   -1    0    0  502  501  0.00000000000E+00  0.00000000000E+00  0.92500375306E+03  0.92500375306E+03  0.00000000000E+00 0.  1.
         21   -1    0    0  504  502 -0.00000000000E+00 -0.00000000000E+00 -0.33889531636E+03  0.33889531636E+03  0.00000000000E+00 0.  1.
         25    1    1    2    0    0  0.40513056555E+03 -0.22016692363E+03  0.42919252768E+02  0.47965749412E+03  0.12500000000E+03 0.  0.
         21    1    1    2  503  501 -0.49827488289E+02  0.53086611463E+01  0.29769101713E+03  0.30187895282E+03  0.00000000000E+00 0.  1.
         21    1    1    2  504  503 -0.35530307726E+03  0.21485826249E+03  0.24549816680E+03  0.48236262249E+03  0.00000000000E+00 0. -1.
<mgrwt>
<rscale>  4 0.91776800E+03</rscale>
<asrwt>0</asrwt>
<pdfrwt beam="1">  1       21 0.14230827E+00 0.91776800E+03</pdfrwt>
<pdfrwt beam="2">  1       21 0.52137741E-01 0.91776800E+03</pdfrwt>
<totfact> 0.88682660E+02</totfact>
</mgrwt>
</event>
<event>
 5    0  0.1828625E+000  0.5013176E+03  0.7546771E-02  0.1013436E+00
         21   -1    0    0  502  501  0.00000000000E+00  0.00000000000E+00  0.34011477705E+03  0.34011477705E+03  0.00000000000E+00 0. -1.
         21   -1    0    0  504  502 -0.00000000000E+00 -0.00000000000E+00 -0.22267684779E+03  0.22267684779E+03  0.00000000000E+00 0.  1.
         25    1    1    2    0    0 -0.14873741559E+03  0.14385708464E+03 -0.94870567627E+02  0.25969810203E+03  0.12500000000E+03 0.  0.
         21    1    1    2  503  501  0.99492766986E+01 -0.17566373974E+02  0.53785163466E+02  0.57449189815E+02  0.00000000000E+00 0. -1.
         21    1    1    2  504  503  0.13878813889E+03 -0.12629071066E+03  0.15852333342E+03  0.24564433300E+03  0.00000000000E+00 0. -1.
<mgrwt>
<rscale>  4 0.50131757E+03</rscale>
<asrwt>0</asrwt>
<pdfrwt beam="1">  1       21 0.52325350E-01 0.50131757E+03</pdfrwt>
<pdfrwt beam="2">  1       21 0.34257977E-01 0.50131757E+03</pdfrwt>
<totfact> 0.25557742E+04</totfact>
</mgrwt>
</event>
<event>
 5    0  0.1828625E+000  0.5005905E+03  0.7546771E-02  0.1013625E+00
         21   -1    0    0  502  501  0.00000000000E+00  0.00000000000E+00  0.72873517084E+03  0.72873517084E+03  0.00000000000E+00 0.  1.
         21   -1    0    0  504  502 -0.00000000000E+00 -0.00000000000E+00 -0.11515202533E+03  0.11515202533E+03  0.00000000000E+00 0.  1.
         25    1    1    2    0    0 -0.81862826738E+02 -0.18693433288E+03  0.33418464400E+03  0.41103569613E+03  0.12500000000E+03 0.  0.
         21    1    1    2  503  501  0.71711038684E+01 -0.32669681796E+02  0.17554880120E+03  0.17870678343E+03  0.00000000000E+00 0.  1.
         21    1    1    2  504  503  0.74691722870E+02  0.21960401468E+03  0.10384970031E+03  0.25414471661E+03  0.00000000000E+00 0.  1.
<mgrwt>
<rscale>  4 0.50059055E+03</rscale>
<asrwt>0</asrwt>
<pdfrwt beam="1">  1       21 0.11211310E+00 0.50059055E+03</pdfrwt>
<pdfrwt beam="2">  1       21 0.17715697E-01 0.50059055E+03</pdfrwt>
<totfact> 0.15948235E+04</totfact>
</mgrwt>
</event>
<event>
 5    0  0.1828625E+000  0.4633122E+03  0.7546771E-02  0.1023825E+00
         21   -1    0    0  502  501  0.00000000000E+00  0.00000000000E+00  0.11477907858E+04  0.11477907858E+04  0.00000000000E+00 0.  1.
         21   -1    0    0  503  502 -0.00000000000E+00 -0.00000000000E+00 -0.14086003693E+03  0.14086003693E+03  0.00000000000E+00 0.  1.
         25    1    1    2    0    0 -0.13327207353E+03 -0.17806144986E+03  0.11931511353E+03  0.28165301672E+03  0.12500000000E+03 0.  0.
         21    1    1    2  503  504  0.10088820609E+03  0.18135586777E+03  0.12208634204E+03  0.24077677591E+03  0.00000000000E+00 0.  1.
         21    1    1    2  504  501  0.32383867443E+02 -0.32944179149E+01  0.76552929333E+03  0.76622103013E+03  0.00000000000E+00 0.  1.
<mgrwt>
<rscale>  4 0.46331223E+03</rscale>
<asrwt>0</asrwt>
<pdfrwt beam="1">  1       21 0.17658319E+00 0.46331223E+03</pdfrwt>
<pdfrwt beam="2">  1       21 0.21670776E-01 0.46331223E+03</pdfrwt>
<totfact> 0.32587599E+03</totfact>
</mgrwt>
</event>
<event>
 5    0  0.1828625E+000  0.5553630E+03  0.7546771E-02  0.1000260E+00
         21   -1    0    0  504  501  0.00000000000E+00  0.00000000000E+00  0.93437462681E+03  0.93437462681E+03  0.00000000000E+00 0. -1.
         21   -1    0    0  501  502 -0.00000000000E+00 -0.00000000000E+00 -0.12670857952E+03  0.12670857952E+03  0.00000000000E+00 0. -1.
         25    1    1    2    0    0  0.22396439639E+03  0.95083539064E+02  0.17883130450E+03  0.32681273800E+03  0.12500000000E+03 0.  0.
         21    1    1    2  503  502 -0.22520569467E+03 -0.15214606862E+03  0.31835457812E+03  0.41858770708E+03  0.00000000000E+00 0. -1.
         21    1    1    2  504  503  0.12412982831E+01  0.57062529559E+02  0.31048016467E+03  0.31568276126E+03  0.00000000000E+00 0. -1.
<mgrwt>
<rscale>  4 0.55536296E+03</rscale>
<asrwt>0</asrwt>
<pdfrwt beam="1">  1       21 0.14374994E+00 0.55536296E+03</pdfrwt>
<pdfrwt beam="2">  1       21 0.19493628E-01 0.55536296E+03</pdfrwt>
<totfact> 0.68837296E+03</totfact>
</mgrwt>
</event>
<event>
 5    0  0.1828625E+000  0.5774428E+03  0.7546771E-02  0.9953343E-01
         21   -1    0    0  502  501  0.00000000000E+00  0.00000000000E+00  0.10866925844E+03  0.10866925844E+03  0.00000000000E+00 0. -1.
         21   -1    0    0  504  502 -0.00000000000E+00 -0.00000000000E+00 -0.88510681483E+03  0.88510681483E+03  0.00000000000E+00 0. -1.
         25    1    1    2    0    0 -0.24419461232E+03  0.12676275088E+03 -0.37142236707E+03  0.47883126303E+03  0.12500000000E+03 0.  0.
         21    1    1    2  503  501  0.17139698112E+02  0.26612095016E+02 -0.81617565353E+01  0.32689250867E+02  0.00000000000E+00 0.  1.
         21    1    1    2  504  503  0.22705491421E+03 -0.15337484590E+03 -0.39685343280E+03  0.48225555937E+03  0.00000000000E+00 0. -1.
<mgrwt>
<rscale>  4 0.57744279E+03</rscale>
<asrwt>0</asrwt>
<pdfrwt beam="1">  1       21 0.16718348E-01 0.57744279E+03</pdfrwt>
<pdfrwt beam="2">  1       21 0.13617027E+00 0.57744279E+03</pdfrwt>
<totfact> 0.10585604E+04</totfact>
</mgrwt>
</event>
<event>
 5    0  0.1828625E+000  0.5090813E+03  0.7546771E-02  0.1011435E+00
         21   -1    0    0  502  501  0.00000000000E+00  0.00000000000E+00  0.70741070015E+03  0.70741070015E+03  0.00000000000E+00 0.  1.
         21   -1    0    0  503  502 -0.00000000000E+00 -0.00000000000E+00 -0.11702443534E+03  0.11702443534E+03  0.00000000000E+00 0. -1.
         25    1    1    2    0    0 -0.20524007565E+03  0.11621512812E+02  0.83889103049E+02  0.25479585912E+03  0.12500000000E+03 0.  0.
         21    1    1    2  503  504  0.21478340194E+03 -0.35996845786E+02  0.35941726346E+03  0.42024808379E+03  0.00000000000E+00 0.  1.
         21    1    1    2  504  501 -0.95433262870E+01  0.24375332974E+02  0.14707989831E+03  0.14939119258E+03  0.00000000000E+00 0.  1.
<mgrwt>
<rscale>  4 0.50908132E+03</rscale>
<asrwt>0</asrwt>
<pdfrwt beam="1">  1       21 0.10883241E+00 0.50908132E+03</pdfrwt>
<pdfrwt beam="2">  1       21 0.18003760E-01 0.50908132E+03</pdfrwt>
<totfact> 0.16623094E+04</totfact>
</mgrwt>
</event>
<event>
 5    0  0.1828625E+000  0.4080462E+03  0.7546771E-02  0.1041029E+00
         21   -1    0    0  504  501  0.00000000000E+00  0.00000000000E+00  0.16340202791E+03  0.16340202791E+03  0.00000000000E+00 0. -1.
         21   -1    0    0  501  502 -0.00000000000E+00 -0.00000000000E+00 -0.10607538833E+04  0.10607538833E+04  0.00000000000E+00 0.  1.
         25    1    1    2    0    0  0.10896520657E+03 -0.18245875326E+03 -0.87853255028E+03  0.91247413924E+03  0.12500000000E+03 0.  0.
         21    1    1    2  503  502  0.63981573746E+02  0.57197632382E+02 -0.44374690798E+02  0.96614305941E+02  0.00000000000E+00 0. -1.
         21    1    1    2  504  503 -0.17294678032E+03  0.12526112087E+03  0.25555385652E+02  0.21506746607E+03  0.00000000000E+00 0. -1.
<mgrwt>
<rscale>  4 0.40804622E+03</rscale>
<asrwt>0</asrwt>
<pdfrwt beam="1">  1       21 0.25138774E-01 0.40804622E+03</pdfrwt>
<pdfrwt beam="2">  1       21 0.16319290E+00 0.40804622E+03</pdfrwt>
<totfact> 0.31300491E+03</totfact>
</mgrwt>
</event>
