<event>
 5    0  0.1723834E+000  0.5400487E+03  0.7546771E-02  0.1003824E+00
         21   -1    0    0  503  501  0.00000000000E+00  0.00000000000E+00  0.66123479523E+03  0.66123479523E+03  0.00000000000E+00 0.  1.
         21   -1    0    0  504  502 -0.00000000000E+00 -0.00000000000E+00 -0.60978356856E+03  0.60978356856E+03  0.00000000000E+00 0.  1.
         25    1    1    2    0    0 -0.84347500314E+02 -0.19914325800E+03  0.12783015539E+03  0.28060307668E+03  0.12500000000E+03 0.  0.
         21    1    1    2  503  502  0.66379121183E+02  0.24021284538E+03  0.42196232381E+03  0.49006183440E+03  0.00000000000E+00 0.  1.
         21    1    1    2  504  501  0.17968379131E+02 -0.41069587380E+02 -0.49834125253E+03  0.50035345270E+03  0.00000000000E+00 0.  1.
<mgrwt>
<rscale>  4 0.54004873E+03</rscale>
<asrwt>0</asrwt>
<pdfrwt beam="1">  1       21 0.10172843E+00 0.54004873E+03</pdfrwt>
<pdfrwt beam="2">  1       21 0.93812857E-01 0.54004873E+03</pdfrwt>
<totfact> 0.61040345E+02</totfact>
</mgrwt>
</event>
<event>
 5    0  0.1723834E+000  0.5000632E+03  0.7546771E-02  0.1013762E+00
         21   -1    0    0  503  501  0.00000000000E+00  0.00000000000E+00  0.30093134570E+03  0.30093134570E+03  0.00000000000E+00 0. -1.
         21   -1    0    0  504  502 -0.00000000000E+00 -0.00000000000E+00 -0.11195781608E+04  0.11195781608E+04  0.00000000000E+00 0.  1.
         25    1    1    2    0    0 -0.11373269191E+03 -0.18816576674E+03  0.20828878565E+03  0.32764416553E+03  0.12500000000E+03 0.  0.
         21    1    1    2  503  502 -0.67050803471E+02  0.94577307081E+02 -0.13479255308E+03  0.17779119671E+03  0.00000000000E+00 0.  1.
         21    1    1    2  504  501  0.18078349539E+03  0.93588459655E+02 -0.89214304766E+03  0.91507414425E+03  0.00000000000E+00 0.  1.
<mgrwt>
<rscale>  4 0.50006321E+03</rscale>
<asrwt>0</asrwt>
<pdfrwt beam="1">  1       21 0.46297129E-01 0.50006321E+03</pdfrwt>
<pdfrwt beam="2">  1       21 0.17224280E+00 0.50006321E+03</pdfrwt>
<totfact> 0.75280114E+02</totfact>
</mgrwt>
</event>
<event>
 5    0  0.1723834E+000  0.4995411E+03  0.7546771E-02  0.1013899E+00
         21   -1    0    0  503  501  0.00000000000E+00  0.00000000000E+00  0.71275153397E+03  0.71275153397E+03  0.00000000000E+00 0.  1.
         21   -1    0    0  504  502 -0.00000000000E+00 -0.00000000000E+00 -0.58339198904E+03  0.58339198904E+03  0.00000000000E+00 0.  1.
         25    1    1    2    0    0  0.11990016079E+03  0.19231630264E+03  0.36646403691E+03  0.44864518182E+03  0.12500000000E+03 0.  0.
         21    1    1    2  503  502 -0.14546867015E+03 -0.18845773803E+03  0.25838149461E+03  0.35133808473E+03  0.00000000000E+00 0.  1.
         21    1    1    2  504  501  0.25568509364E+02 -0.38585646093E+01 -0.49548598659E+03  0.49616025647E+03  0.00000000000E+00 0.  1.
<mgrwt>
<rscale>  4 0.49954108E+03</rscale>
<asrwt>0</asrwt>
<pdfrwt beam="1">  1       21 0.10965408E+00 0.49954108E+03</pdfrwt>
<pdfrwt beam="2">  1       21 0.89752614E-01 0.49954108E+03</pdfrwt>
<totfact> 0.57215663E+02</totfact>
</mgrwt>
</event>
<event>
 5    0  0.1723834E+000  0.4340159E+03  0.7546771E-02  0.1032599E+00
         21   -1    0    0  503  501  0.00000000000E+00  0.00000000000E+00  0.35639727475E+03  0.35639727475E+03  0.00000000000E+00 0. -1.
         21   -1    0    0  504  502 -0.00000000000E+00 -0.00000000000E+00 -0.15457417228E+03  0.15457417228E+03  0.00000000000E+00 0.  1.
         25    1    1    2    0    0 -0.11868858517E+03 -0.16807127544E+03  0.17425446627E+03  0.29719446983E+03  0.12500000000E+03 0.  0.
         21    1    1    2  503  502  0.10652954479E+03  0.14838392601E+03  0.40738437598E+02  0.18715222069E+03  0.00000000000E+00 0.  1.
         21    1    1    2  504  501  0.12159040388E+02  0.19687349435E+02 -0.13169801391E+02  0.26624756518E+02  0.00000000000E+00 0.  1.
<mgrwt>
<rscale>  4 0.43401586E+03</rscale>
<asrwt>0</asrwt>
<pdfrwt beam="1">  1       21 0.54830350E-01 0.43401586E+03</pdfrwt>
<pdfrwt beam="2">  1       21 0.23780642E-01 0.43401586E+03</pdfrwt>
<totfact> 0.48293445E+04</totfact>
</mgrwt>
</event>
<event>
 5    0  0.1723834E+000  0.3274940E+03  0.7546771E-02  0.1072251E+00
         21   -1    0    0  503  501  0.00000000000E+00  0.00000000000E+00  0.18125861731E+03  0.18125861731E+03  0.00000000000E+00 0. -1.
         21   -1    0    0  504  502 -0.00000000000E+00 -0.00000000000E+00 -0.68672461399E+03  0.68672461399E+03  0.00000000000E+00 0.  1.
         25    1    1    2    0    0 -0.19594603167E+03  0.52355981514E+02 -0.60786690697E+02  0.24587805493E+03  0.12500000000E+03 0.  0.
         21    1    1    2  503  502  0.30834056391E+02  0.45049938635E+02  0.60670729906E+02  0.81616012349E+02  0.00000000000E+00 0. -1.
         21    1    1    2  504  501  0.16511197528E+03 -0.97405920149E+02 -0.50535003588E+03  0.54048916402E+03  0.00000000000E+00 0.  1.
<mgrwt>
<rscale>  4 0.32749405E+03</rscale>
<asrwt>0</asrwt>
<pdfrwt beam="1">  1       21 0.27885941E-01 0.32749405E+03</pdfrwt>
<pdfrwt beam="2">  1       21 0.10564994E+00 0.32749405E+03</pdfrwt>
<totfact> 0.81867821E+03</totfact>
</mgrwt>
</event>
<event>
 5    0  0.1723834E+000  0.3714744E+03  0.7546771E-02  0.1054131E+00
         21   -1    0    0  503  501  0.00000000000E+00  0.00000000000E+00  0.15847988552E+03  0.15847988552E+03  0.00000000000E+00 0. -1.
         21   -1    0    0  504  502 -0.00000000000E+00 -0.00000000000E+00 -0.19213759989E+04  0.19213759989E+04  0.00000000000E+00 0.  1.
         25    1    1    2    0    0  0.10906082228E+03  0.16792212190E+03 -0.18286600644E+02  0.23675198361E+03  0.12500000000E+03 0.  0.
         21    1    1    2  503  502 -0.42615383157E+02 -0.12593742606E+03 -0.43076533800E+02  0.13975655237E+03  0.00000000000E+00 0. -1.
         21    1    1    2  504  501 -0.66445439125E+02 -0.41984695840E+02 -0.17015329790E+04  0.17033473485E+04  0.00000000000E+00 0.  1.
<mgrwt>
<rscale>  4 0.37147442E+03</rscale>
<asrwt>0</asrwt>
<pdfrwt beam="1">  1       21 0.24381522E-01 0.37147442E+03</pdfrwt>
<pdfrwt beam="2">  1       21 0.29559629E+00 0.37147442E+03</pdfrwt>
<totfact> 0.48159805E+02</totfact>
</mgrwt>
</event>
<event>
 5    0  0.1723834E+000  0.4471470E+03  0.7546771E-02  0.1028576E+00
         21   -1    0    0  503  501  0.00000000000E+00  0.00000000000E+00  0.61013120426E+03  0.61013120426E+03  0.00000000000E+00 0.  1.
         21   -1    0    0  504  502 -0.00000000000E+00 -0.00000000000E+00 -0.19621740050E+03  0.19621740050E+03  0.00000000000E+00 0.  1.
         25    1    1    2    0    0 -0.19477691324E+03 -0.63656453312E+02  0.11506548262E+03  0.26618650467E+03  0.12500000000E+03 0.  0.
         21    1    1    2  503  502  0.70653320155E+02  0.79163382431E+02 -0.85311491765E+02  0.13614985639E+03  0.00000000000E+00 0.  1.
         21    1    1    2  504  501  0.12412359308E+03 -0.15506929119E+02  0.38415981290E+03  0.40401224370E+03  0.00000000000E+00 0.  1.
<mgrwt>
<rscale>  4 0.44714703E+03</rscale>
<asrwt>0</asrwt>
<pdfrwt beam="1">  1       21 0.93866338E-01 0.44714703E+03</pdfrwt>
<pdfrwt beam="2">  1       21 0.30187293E-01 0.44714703E+03</pdfrwt>
<totfact> 0.89199347E+03</totfact>
</mgrwt>
</event>
<event>
 5    0  0.1723834E+000  0.5767706E+03  0.7546771E-02  0.9954807E-01
         21   -1    0    0  503  501  0.00000000000E+00  0.00000000000E+00  0.47047469355E+03  0.47047469355E+03  0.00000000000E+00 0.  1.
         21   -1    0    0  504  502 -0.00000000000E+00 -0.00000000000E+00 -0.27636474104E+03  0.27636474104E+03  0.00000000000E+00 0.  1.
         25    1    1    2    0    0  0.22709728723E+03 -0.18197452941E+03  0.17810017625E+03  0.36336287648E+03  0.12500000000E+03 0.  0.
         21    1    1    2  503  502  0.11230235724E+02  0.85449954190E+02 -0.71373629372E+02  0.11190177762E+03  0.00000000000E+00 0.  1.
         21    1    1    2  504  501 -0.23832752296E+03  0.96524575217E+02  0.87383405632E+02  0.27157478049E+03  0.00000000000E+00 0.  1.
<mgrwt>
<rscale>  4 0.57677057E+03</rscale>
<asrwt>0</asrwt>
<pdfrwt beam="1">  1       21 0.72380722E-01 0.57677057E+03</pdfrwt>
<pdfrwt beam="2">  1       21 0.42517653E-01 0.57677057E+03</pdfrwt>
<totfact> 0.78657835E+03</totfact>
</mgrwt>
</event>
<event>
 5    0  0.1723834E+000  0.5823826E+03  0.7546771E-02  0.9942646E-01
         21   -1    0    0  503  501  0.00000000000E+00  0.00000000000E+00  0.57078291995E+03  0.57078291995E+03  0.00000000000E+00 0. -1.
         21   -1    0    0  504  502 -0.00000000000E+00 -0.00000000000E+00 -0.24991206154E+03  0.24991206154E+03  0.00000000000E+00 0. -1.
         25    1    1    2    0    0  0.23114112839E+03 -0.15900068318E+03  0.23637746284E+03  0.38756514733E+03  0.12500000000E+03 0.  0.
         21    1    1    2  503  502 -0.22146300474E+02 -0.19332654801E+02 -0.98654168827E+02  0.10294102774E+03  0.00000000000E+00 0. -1.
         21    1    1    2  504  501 -0.20899482792E+03  0.17833333798E+03  0.18314756440E+03  0.33018880641E+03  0.00000000000E+00 0. -1.
<mgrwt>
<rscale>  4 0.58238260E+03</rscale>
<asrwt>0</asrwt>
<pdfrwt beam="1">  1       21 0.87812757E-01 0.58238260E+03</pdfrwt>
<pdfrwt beam="2">  1       21 0.38448010E-01 0.58238260E+03</pdfrwt>
<totfact> 0.61770582E+03</totfact>
</mgrwt>
</event>
<event>
 5    0  0.1723834E+000  0.5890361E+03  0.7546771E-02  0.9928417E-01
         21   -1    0    0  503  501  0.00000000000E+00  0.00000000000E+00  0.73974337424E+03  0.73974337424E+03  0.00000000000E+00 0. -1.
         21   -1    0    0  504  502 -0.00000000000E+00 -0.00000000000E+00 -0.29110644563E+03  0.29110644563E+03  0.00000000000E+00 0.  1.
         25    1    1    2    0    0 -0.19666835871E+03 -0.12999288734E+03  0.40978449332E+03  0.48900401331E+03  0.12500000000E+03 0.  0.
         21    1    1    2  503  502  0.24387474772E+03  0.17304748295E+03  0.20585542114E+03  0.36303826017E+03  0.00000000000E+00 0. -1.
         21    1    1    2  504  501 -0.47206389016E+02 -0.43054595611E+02 -0.16700298584E+03  0.17880754639E+03  0.00000000000E+00 0.  1.
<mgrwt>
<rscale>  4 0.58903610E+03</rscale>
<asrwt>0</asrwt>
<pdfrwt beam="1">  1       21 0.11380667E+00 0.58903610E+03</pdfrwt>
<pdfrwt beam="2">  1       21 0.44785607E-01 0.58903610E+03</pdfrwt>
<totfact> 0.23803092E+03</totfact>
</mgrwt>
</event>
<event>
 5    0  0.1723834E+000  0.4691945E+03  0.7546771E-02  0.1022148E+00
         21   -1    0    0  503  501  0.00000000000E+00  0.00000000000E+00  0.69952378456E+03  0.69952378456E+03  0.00000000000E+00 0. -1.
         21   -1    0    0  504  502 -0.00000000000E+00 -0.00000000000E+00 -0.51204347976E+03  0.51204347976E+03  0.00000000000E+00 0. -1.
         25    1    1    2    0    0  0.32474322942E+02  0.22105618451E+03  0.19552226730E+03  0.32214030386E+03  0.12500000000E+03 0.  0.
         21    1    1    2  503  502 -0.28854219968E+02 -0.41931580456E+03 -0.31412799828E+03  0.52472345981E+03  0.00000000000E+00 0. -1.
         21    1    1    2  504  501 -0.36201029737E+01  0.19825962005E+03  0.30608603578E+03  0.36470350065E+03  0.00000000000E+00 0. -1.
<mgrwt>
<rscale>  4 0.46919455E+03</rscale>
<asrwt>0</asrwt>
<pdfrwt beam="1">  1       21 0.10761904E+00 0.46919455E+03</pdfrwt>
<pdfrwt beam="2">  1       21 0.78775920E-01 0.46919455E+03</pdfrwt>
<totfact> 0.82325237E+02</totfact>
</mgrwt>
</event>
<event>
 5    0  0.1723834E+000  0.8606442E+03  0.7546771E-02  0.9476161E-01
         21   -1    0    0  503  501  0.00000000000E+00  0.00000000000E+00  0.15476814266E+03  0.15476814266E+03  0.00000000000E+00 0.  1.
         21   -1    0    0  504  502 -0.00000000000E+00 -0.00000000000E+00 -0.12739715051E+04  0.12739715051E+04  0.00000000000E+00 0. -1.
         25    1    1    2    0    0 -0.31541617852E+02  0.37417669043E+03 -0.26235551614E+03  0.47482468993E+03  0.12500000000E+03 0.  0.
         21    1    1    2  503  502 -0.23168591277E+00  0.21307218796E+02 -0.61724958701E+02  0.65299477623E+02  0.00000000000E+00 0. -1.
         21    1    1    2  504  501  0.31773303765E+02 -0.39548390922E+03 -0.79512288763E+03  0.88861548023E+03  0.00000000000E+00 0. -1.
<mgrwt>
<rscale>  4 0.86064425E+03</rscale>
<asrwt>0</asrwt>
<pdfrwt beam="1">  1       21 0.23810484E-01 0.86064425E+03</pdfrwt>
<pdfrwt beam="2">  1       21 0.19599561E+00 0.86064425E+03</pdfrwt>
<totfact> 0.17759847E+03</totfact>
</mgrwt>
</event>
<event>
 5    0  0.1723834E+000  0.6450348E+03  0.7546771E-02  0.9816141E-01
         21   -1    0    0  503  501  0.00000000000E+00  0.00000000000E+00  0.12423113993E+03  0.12423113993E+03  0.00000000000E+00 0. -1.
         21   -1    0    0  504  502 -0.00000000000E+00 -0.00000000000E+00 -0.21759373336E+04  0.21759373336E+04  0.00000000000E+00 0.  1.
         25    1    1    2    0    0  0.79754777868E+02  0.21499249071E+03 -0.55478324758E+03  0.61318190405E+03  0.12500000000E+03 0.  0.
         21    1    1    2  503  502  0.36334161179E+02  0.76354578230E+02 -0.13281419147E+04  0.13308309955E+04  0.00000000000E+00 0.  1.
         21    1    1    2  504  501 -0.11608893905E+03 -0.29134706894E+03 -0.16878103137E+03  0.35615557401E+03  0.00000000000E+00 0. -1.
<mgrwt>
<rscale>  4 0.64503479E+03</rscale>
<asrwt>0</asrwt>
<pdfrwt beam="1">  1       21 0.19112482E-01 0.64503479E+03</pdfrwt>
<pdfrwt beam="2">  1       21 0.33475961E+00 0.64503479E+03</pdfrwt>
<totfact> 0.38541911E+02</totfact>
</mgrwt>
</event>
<event>
 5    0  0.1723834E+000  0.5069456E+03  0.7546771E-02  0.1011982E+00
         21   -1    0    0  503  501  0.00000000000E+00  0.00000000000E+00  0.41478247429E+03  0.41478247429E+03  0.00000000000E+00 0.  1.
         21   -1    0    0  504  502 -0.00000000000E+00 -0.00000000000E+00 -0.91265449534E+03  0.91265449534E+03  0.00000000000E+00 0.  1.
         25    1    1    2    0    0 -0.88220631681E+02 -0.23282996543E+03  0.23030102990E+03  0.36146401899E+03  0.12500000000E+03 0.  0.
         21    1    1    2  503  502  0.88867177581E+02  0.18560197785E+03  0.28572943176E+02  0.20775438026E+03  0.00000000000E+00 0.  1.
         21    1    1    2  504  501 -0.64654590044E+00  0.47227987574E+02 -0.75674599413E+03  0.75821857038E+03  0.00000000000E+00 0.  1.
<mgrwt>
<rscale>  4 0.50694561E+03</rscale>
<asrwt>0</asrwt>
<pdfrwt beam="1">  1       21 0.63812690E-01 0.50694561E+03</pdfrwt>
<pdfrwt beam="2">  1       21 0.14040838E+00 0.50694561E+03</pdfrwt>
<totfact> 0.66044428E+02</totfact>
</mgrwt>
</event>
<event>
 5    0  0.1723834E+000  0.4287691E+03  0.7546771E-02  0.1034250E+00
         21   -1    0    0  503  501  0.00000000000E+00  0.00000000000E+00  0.27647385603E+03  0.27647385603E+03  0.00000000000E+00 0. -1.
         21   -1    0    0  504  502 -0.00000000000E+00 -0.00000000000E+00 -0.36451494443E+03  0.36451494443E+03  0.00000000000E+00 0. -1.
         25    1    1    2    0    0  0.18389174150E+03  0.11962460415E+03  0.98266262870E+02  0.27093814226E+03  0.12500000000E+03 0.  0.
         21    1    1    2  503  502 -0.72366286152E+02  0.75604229368E+01 -0.18725202239E+03  0.20089141160E+03  0.00000000000E+00 0. -1.
         21    1    1    2  504  501 -0.11152545535E+03 -0.12718502709E+03  0.94467111690E+00  0.16915924660E+03  0.00000000000E+00 0. -1.
<mgrwt>
<rscale>  4 0.42876905E+03</rscale>
<asrwt>0</asrwt>
<pdfrwt beam="1">  1       21 0.42534439E-01 0.42876905E+03</pdfrwt>
<pdfrwt beam="2">  1       21 0.56079222E-01 0.42876905E+03</pdfrwt>
<totfact> 0.14393374E+04</totfact>
</mgrwt>
</event>
<event>
 5    0  0.1723834E+000  0.4876572E+03  0.7546771E-02  0.1017052E+00
         21   -1    0    0  503  501  0.00000000000E+00  0.00000000000E+00  0.39148323336E+03  0.39148323336E+03  0.00000000000E+00 0.  1.
         21   -1    0    0  504  502 -0.00000000000E+00 -0.00000000000E+00 -0.35573677839E+03  0.35573677839E+03  0.00000000000E+00 0.  1.
         25    1    1    2    0    0  0.39106776612E+02  0.21300185048E+03  0.30173176080E+03  0.39187521453E+03  0.12500000000E+03 0.  0.
         21    1    1    2  503  502  0.20008882029E+02 -0.12824425217E+03 -0.17340662549E+03  0.21660286549E+03  0.00000000000E+00 0.  1.
         21    1    1    2  504  501 -0.59115658641E+02 -0.84757598313E+02 -0.92578680338E+02  0.13874193173E+03  0.00000000000E+00 0. -1.
<mgrwt>
<rscale>  4 0.48765720E+03</rscale>
<asrwt>0</asrwt>
<pdfrwt beam="1">  1       21 0.60228190E-01 0.48765720E+03</pdfrwt>
<pdfrwt beam="2">  1       21 0.54728735E-01 0.48765720E+03</pdfrwt>
<totfact> 0.71024978E+03</totfact>
</mgrwt>
</event>
<event>
 5    0  0.1723834E+000  0.4865753E+03  0.7546771E-02  0.1017344E+00
         21   -1    0    0  503  501  0.00000000000E+00  0.00000000000E+00  0.36681516995E+03  0.36681516995E+03  0.00000000000E+00 0.  1.
         21   -1    0    0  504  502 -0.00000000000E+00 -0.00000000000E+00 -0.60990375643E+03  0.60990375643E+03  0.00000000000E+00 0.  1.
         25    1    1    2    0    0  0.19164627685E+03 -0.14146643402E+03  0.84041656704E+02  0.28183159413E+03  0.12500000000E+03 0.  0.
         21    1    1    2  503  502 -0.63345079230E+02 -0.30810792551E+02 -0.44454255230E+03  0.45008886323E+03  0.00000000000E+00 0.  1.
         21    1    1    2  504  501 -0.12830119762E+03  0.17227722657E+03  0.11741230912E+03  0.24479846903E+03  0.00000000000E+00 0.  1.
<mgrwt>
<rscale>  4 0.48657530E+03</rscale>
<asrwt>0</asrwt>
<pdfrwt beam="1">  1       21 0.56433104E-01 0.48657530E+03</pdfrwt>
<pdfrwt beam="2">  1       21 0.93831345E-01 0.48657530E+03</pdfrwt>
<totfact> 0.24087855E+03</totfact>
</mgrwt>
</event>
<event>
 5    0  0.1723834E+000  0.6243994E+03  0.7546771E-02  0.9856039E-01
         21   -1    0    0  503  501  0.00000000000E+00  0.00000000000E+00  0.36807091863E+03  0.36807091863E+03  0.00000000000E+00 0. -1.
         21   -1    0    0  504  502 -0.00000000000E+00 -0.00000000000E+00 -0.79678540869E+03  0.79678540869E+03  0.00000000000E+00 0.  1.
         25    1    1    2    0    0  0.67854956752E+02 -0.20180152127E+03  0.29145642526E+03  0.38196858112E+03  0.12500000000E+03 0.  0.
         21    1    1    2  503  502 -0.79156568518E+02  0.46090166913E+02 -0.52512842374E+03  0.53305715195E+03  0.00000000000E+00 0.  1.
         21    1    1    2  504  501  0.11301611766E+02  0.15571135436E+03 -0.19504249157E+03  0.24983059425E+03  0.00000000000E+00 0.  1.
<mgrwt>
<rscale>  4 0.62439935E+03</rscale>
<asrwt>0</asrwt>
<pdfrwt beam="1">  1       21 0.56626296E-01 0.62439935E+03</pdfrwt>
<pdfrwt beam="2">  1       21 0.12258237E+00 0.62439935E+03</pdfrwt>
<totfact> 0.11795816E+03</totfact>
</mgrwt>
</event>
<event>
 5    0  0.1723834E+000  0.4325598E+03  0.7546771E-02  0.1033054E+00
         21   -1    0    0  503  501  0.00000000000E+00  0.00000000000E+00  0.56710192891E+03  0.56710192891E+03  0.00000000000E+00 0.  1.
         21   -1    0    0  504  502 -0.00000000000E+00 -0.00000000000E+00 -0.42408591551E+03  0.42408591551E+03  0.00000000000E+00 0.  1.
         25    1    1    2    0    0  0.19946041748E+03 -0.18065573482E+03  0.31650857851E+03  0.43384747658E+03  0.12500000000E+03 0.  0.
         21    1    1    2  503  502 -0.88170381643E+02 -0.97958515518E+02  0.88728457452E+02  0.15887928161E+03  0.00000000000E+00 0. -1.
         21    1    1    2  504  501 -0.11129003583E+03  0.27861425034E+03 -0.26222102256E+03  0.39846108623E+03  0.00000000000E+00 0.  1.
<mgrwt>
<rscale>  4 0.43255977E+03</rscale>
<asrwt>0</asrwt>
<pdfrwt beam="1">  1       21 0.87246450E-01 0.43255977E+03</pdfrwt>
<pdfrwt beam="2">  1       21 0.65243987E-01 0.43255977E+03</pdfrwt>
<totfact> 0.21225654E+03</totfact>
</mgrwt>
</event>
<event>
 5    0  0.1723834E+000  0.5061782E+03  0.7546771E-02  0.1012179E+00
         21   -1    0    0  503  501  0.00000000000E+00  0.00000000000E+00  0.10635490033E+03  0.10635490033E+03  0.00000000000E+00 0. -1.
         21   -1    0    0  504  502 -0.00000000000E+00 -0.00000000000E+00 -0.78989518452E+03  0.78989518452E+03  0.00000000000E+00 0. -1.
         25    1    1    2    0    0  0.16458381774E+03 -0.12127078125E+03 -0.36494037009E+03  0.43657864030E+03  0.12500000000E+03 0.  0.
         21    1    1    2  503  502  0.23490243514E+02 -0.30866609870E+02 -0.17307483404E+03  0.17736808428E+03  0.00000000000E+00 0.  1.
         21    1    1    2  504  501 -0.18807406125E+03  0.15213739112E+03 -0.14552508006E+03  0.28230336027E+03  0.00000000000E+00 0. -1.
<mgrwt>
<rscale>  4 0.50617818E+03</rscale>
<asrwt>0</asrwt>
<pdfrwt beam="1">  1       21 0.16362293E-01 0.50617818E+03</pdfrwt>
<pdfrwt beam="2">  1       21 0.12152233E+00 0.50617818E+03</pdfrwt>
<totfact> 0.15086534E+04</totfact>
</mgrwt>
</event>
<event>
 5    0  0.1723834E+000  0.6031004E+03  0.7546771E-02  0.9898994E-01
         21   -1    0    0  503  501  0.00000000000E+00  0.00000000000E+00  0.19643945574E+03  0.19643945574E+03  0.00000000000E+00 0. -1.
         21   -1    0    0  504  502 -0.00000000000E+00 -0.00000000000E+00 -0.89981979337E+03  0.89981979337E+03  0.00000000000E+00 0.  1.
         25    1    1    2    0    0  0.11515530188E+03 -0.18939795000E+03 -0.25169678316E+03  0.35792261408E+03  0.12500000000E+03 0.  0.
         21    1    1    2  503  502  0.10000066714E+03 -0.31804690036E+02 -0.41443630078E+03  0.42751505136E+03  0.00000000000E+00 0.  1.
         21    1    1    2  504  501 -0.21515596902E+03  0.22120264003E+03 -0.37247253694E+02  0.31082158366E+03  0.00000000000E+00 0. -1.
<mgrwt>
<rscale>  4 0.60310044E+03</rscale>
<asrwt>0</asrwt>
<pdfrwt beam="1">  1       21 0.30221454E-01 0.60310044E+03</pdfrwt>
<pdfrwt beam="2">  1       21 0.13843382E+00 0.60310044E+03</pdfrwt>
<totfact> 0.31963740E+03</totfact>
</mgrwt>
</event>
<event>
 5    0  0.1723834E+000  0.4398869E+03  0.7546771E-02  0.1030782E+00
         21   -1    0    0  503  501  0.00000000000E+00  0.00000000000E+00  0.35085308489E+03  0.35085308489E+03  0.00000000000E+00 0. -1.
         21   -1    0    0  504  502 -0.00000000000E+00 -0.00000000000E+00 -0.44078841121E+03  0.44078841121E+03  0.00000000000E+00 0.  1.
         25    1    1    2    0    0 -0.20215216773E+03  0.61290130811E+02  0.11778904026E+03  0.27225215712E+03  0.12500000000E+03 0.  0.
         21    1    1    2  503  502  0.17969949308E+03 -0.74244397253E+02  0.94412078109E+02  0.21614295924E+03  0.00000000000E+00 0. -1.
         21    1    1    2  504  501  0.22452674646E+02  0.12954266442E+02 -0.30213644468E+03  0.30324637974E+03  0.00000000000E+00 0.  1.
<mgrwt>
<rscale>  4 0.43988689E+03</rscale>
<asrwt>0</asrwt>
<pdfrwt beam="1">  1       21 0.53977398E-01 0.43988689E+03</pdfrwt>
<pdfrwt beam="2">  1       21 0.67813602E-01 0.43988689E+03</pdfrwt>
<totfact> 0.57081752E+03</totfact>
</mgrwt>
</event>
<event>
 5    0  0.1723834E+000  0.5283037E+03  0.7546771E-02  0.1006644E+00
         21   -1    0    0  503  501  0.00000000000E+00  0.00000000000E+00  0.19537903362E+03  0.19537903362E+03  0.00000000000E+00 0. -1.
         21   -1    0    0  504  502 -0.00000000000E+00 -0.00000000000E+00 -0.23794641983E+04  0.23794641983E+04  0.00000000000E+00 0. -1.
         25    1    1    2    0    0 -0.12777448328E+03  0.21979383676E+03 -0.20980897531E+02  0.28407894557E+03  0.12500000000E+03 0.  0.
         21    1    1    2  503  502 -0.32679906811E+01 -0.32657320578E+02 -0.20219549431E+04  0.20222212966E+04  0.00000000000E+00 0. -1.
         21    1    1    2  504  501  0.13104247396E+03 -0.18713651618E+03 -0.14114932398E+03  0.26854298973E+03  0.00000000000E+00 0. -1.
<mgrwt>
<rscale>  4 0.52830370E+03</rscale>
<asrwt>0</asrwt>
<pdfrwt beam="1">  1       21 0.30058313E-01 0.52830370E+03</pdfrwt>
<pdfrwt beam="2">  1       21 0.36607141E+00 0.52830370E+03</pdfrwt>
<totfact> 0.10784390E+02</totfact>
</mgrwt>
</event>
<event>
 5    0  0.1723834E+000  0.4558173E+03  0.7546771E-02  0.1026001E+00
         21   -1    0    0  503  501  0.00000000000E+00  0.00000000000E+00  0.28537545345E+03  0.28537545345E+03  0.00000000000E+00 0.  1.
         21   -1    0    0  504  502 -0.00000000000E+00 -0.00000000000E+00 -0.35381661808E+03  0.35381661808E+03  0.00000000000E+00 0.  1.
         25    1    1    2    0    0 -0.19472694842E+03  0.91876182463E+02 -0.16680863727E+02  0.24952568717E+03  0.12500000000E+03 0.  0.
         21    1    1    2  503  502  0.18794818307E+03 -0.89784084382E+01  0.10260465266E+03  0.21431949535E+03  0.00000000000E+00 0.  1.
         21    1    1    2  504  501  0.67787653404E+01 -0.82897774025E+02 -0.15436495357E+03  0.17534688901E+03  0.00000000000E+00 0.  1.
<mgrwt>
<rscale>  4 0.45581735E+03</rscale>
<asrwt>0</asrwt>
<pdfrwt beam="1">  1       21 0.43903916E-01 0.45581735E+03</pdfrwt>
<pdfrwt beam="2">  1       21 0.54433326E-01 0.45581735E+03</pdfrwt>
<totfact> 0.14260943E+04</totfact>
</mgrwt>
</event>
<event>
 5    0  0.1723834E+000  0.5518945E+03  0.7546771E-02  0.1001056E+00
         21   -1    0    0  503  501  0.00000000000E+00  0.00000000000E+00  0.74690202602E+02  0.74690202602E+02  0.00000000000E+00 0.  1.
         21   -1    0    0  504  502 -0.00000000000E+00 -0.00000000000E+00 -0.14799929844E+04  0.14799929844E+04  0.00000000000E+00 0.  1.
         25    1    1    2    0    0  0.74417464443E+02  0.26545835039E+03 -0.71034681736E+03  0.77215522775E+03  0.12500000000E+03 0.  0.
         21    1    1    2  503  502 -0.74717562199E+02 -0.21246133332E+03 -0.25842454160E+03  0.34279115502E+03  0.00000000000E+00 0.  1.
         21    1    1    2  504  501  0.30009775534E+00 -0.52997017073E+02 -0.43653142282E+03  0.43973680422E+03  0.00000000000E+00 0.  1.
<mgrwt>
<rscale>  4 0.55189446E+03</rscale>
<asrwt>0</asrwt>
<pdfrwt beam="1">  1       21 0.11490801E-01 0.55189446E+03</pdfrwt>
<pdfrwt beam="2">  1       21 0.22769122E+00 0.55189446E+03</pdfrwt>
<totfact> 0.47015191E+03</totfact>
</mgrwt>
</event>
<event>
 5    0  0.1723834E+000  0.7376444E+03  0.7546771E-02  0.9654936E-01
         21   -1    0    0  503  501  0.00000000000E+00  0.00000000000E+00  0.54928483743E+03  0.54928483743E+03  0.00000000000E+00 0. -1.
         21   -1    0    0  504  502 -0.00000000000E+00 -0.00000000000E+00 -0.29842907950E+03  0.29842907950E+03  0.00000000000E+00 0. -1.
         25    1    1    2    0    0  0.27267812301E+03 -0.17389182675E+03 -0.83345924068E+02  0.35659959231E+03  0.12500000000E+03 0.  0.
         21    1    1    2  503  502 -0.20460878806E+03  0.16094075606E+03  0.33186673543E+03  0.42178455780E+03  0.00000000000E+00 0. -1.
         21    1    1    2  504  501 -0.68069334947E+02  0.12951070687E+02  0.23349465768E+01  0.69329766822E+02  0.00000000000E+00 0.  1.
<mgrwt>
<rscale>  4 0.73764442E+03</rscale>
<asrwt>0</asrwt>
<pdfrwt beam="1">  1       21 0.84505359E-01 0.73764442E+03</pdfrwt>
<pdfrwt beam="2">  1       21 0.45912166E-01 0.73764442E+03</pdfrwt>
<totfact> 0.45126225E+03</totfact>
</mgrwt>
</event>
<event>
 5    0  0.1723834E+000  0.4245187E+03  0.7546771E-02  0.1035606E+00
         21   -1    0    0  503  501  0.00000000000E+00  0.00000000000E+00  0.13678883637E+04  0.13678883637E+04  0.00000000000E+00 0.  1.
         21   -1    0    0  504  502 -0.00000000000E+00 -0.00000000000E+00 -0.64637782724E+02  0.64637782724E+02  0.00000000000E+00 0. -1.
         25    1    1    2    0    0  0.89862848253E+02  0.23041417962E+03  0.87813254078E+03  0.92081908366E+03  0.12500000000E+03 0.  0.
         21    1    1    2  503  502 -0.66734240596E+02 -0.12871249047E+03  0.36161581216E+03  0.38959768951E+03  0.00000000000E+00 0. -1.
         21    1    1    2  504  501 -0.23128607657E+02 -0.10170168916E+03  0.63502228044E+02  0.12210937325E+03  0.00000000000E+00 0. -1.
<mgrwt>
<rscale>  4 0.42451872E+03</rscale>
<asrwt>0</asrwt>
<pdfrwt beam="1">  1       21 0.21044434E+00 0.42451872E+03</pdfrwt>
<pdfrwt beam="2">  1       21 0.99442753E-02 0.42451872E+03</pdfrwt>
<totfact> 0.82535631E+03</totfact>
</mgrwt>
</event>
<event>
 5    0  0.1723834E+000  0.4717852E+03  0.7546771E-02  0.1021418E+00
         21   -1    0    0  503  501  0.00000000000E+00  0.00000000000E+00  0.10599960568E+03  0.10599960568E+03  0.00000000000E+00 0. -1.
         21   -1    0    0  504  502 -0.00000000000E+00 -0.00000000000E+00 -0.64468420056E+03  0.64468420056E+03  0.00000000000E+00 0. -1.
         25    1    1    2    0    0 -0.14885082699E+03  0.15766800417E+03 -0.14640935882E+03  0.28995942576E+03  0.12500000000E+03 0.  0.
         21    1    1    2  503  502 -0.77046954334E+01 -0.30579700924E+02 -0.10578139887E+03  0.11038199485E+03  0.00000000000E+00 0. -1.
         21    1    1    2  504  501  0.15655552243E+03 -0.12708830325E+03 -0.28649383719E+03  0.35034238563E+03  0.00000000000E+00 0. -1.
<mgrwt>
<rscale>  4 0.47178516E+03</rscale>
<asrwt>0</asrwt>
<pdfrwt beam="1">  1       21 0.16307632E-01 0.47178516E+03</pdfrwt>
<pdfrwt beam="2">  1       21 0.99182185E-01 0.47178516E+03</pdfrwt>
<totfact> 0.25390112E+04</totfact>
</mgrwt>
</event>
<event>
 5    0  0.1723834E+000  0.4609276E+03  0.7546771E-02  0.1024513E+00
         21   -1    0    0  503  501  0.00000000000E+00  0.00000000000E+00  0.23649344761E+03  0.23649344761E+03  0.00000000000E+00 0. -1.
         21   -1    0    0  504  502 -0.00000000000E+00 -0.00000000000E+00 -0.36107305165E+03  0.36107305165E+03  0.00000000000E+00 0. -1.
         25    1    1    2    0    0  0.78575182204E+02  0.19889371236E+03  0.54268762632E+02  0.25358009912E+03  0.12500000000E+03 0.  0.
         21    1    1    2  503  502 -0.21152234933E+02 -0.44647576092E+01 -0.13480311207E+03  0.13652556584E+03  0.00000000000E+00 0. -1.
         21    1    1    2  504  501 -0.57422947270E+02 -0.19442895475E+03 -0.44045254600E+02  0.20746083430E+03  0.00000000000E+00 0. -1.
<mgrwt>
<rscale>  4 0.46092757E+03</rscale>
<asrwt>0</asrwt>
<pdfrwt beam="1">  1       21 0.36383607E-01 0.46092757E+03</pdfrwt>
<pdfrwt beam="2">  1       21 0.55549700E-01 0.46092757E+03</pdfrwt>
<totfact> 0.20076410E+04</totfact>
</mgrwt>
</event>
<event>
 5    0  0.1723834E+000  0.5239815E+03  0.7546771E-02  0.1007702E+00
         21   -1    0    0  503  501  0.00000000000E+00  0.00000000000E+00  0.55914821466E+03  0.55914821466E+03  0.00000000000E+00 0.  1.
         21   -1    0    0  504  502 -0.00000000000E+00 -0.00000000000E+00 -0.35107325990E+03  0.35107325990E+03  0.00000000000E+00 0.  1.
         25    1    1    2    0    0 -0.50017357349E+02 -0.37925313245E+03  0.47747983648E+02  0.40526478313E+03  0.12500000000E+03 0.  0.
         21    1    1    2  503  502  0.11655674813E+03  0.26077236480E+02  0.40358151817E+02  0.12607251173E+03  0.00000000000E+00 0. -1.
         21    1    1    2  504  501 -0.66539390778E+02  0.35317589597E+03  0.11996881929E+03  0.37888417969E+03  0.00000000000E+00 0.  1.
<mgrwt>
<rscale>  4 0.52398152E+03</rscale>
<asrwt>0</asrwt>
<pdfrwt beam="1">  1       21 0.86022802E-01 0.52398152E+03</pdfrwt>
<pdfrwt beam="2">  1       21 0.54011271E-01 0.52398152E+03</pdfrwt>
<totfact> 0.32175539E+03</totfact>
</mgrwt>
</event>
<event>
 5    0  0.1723834E+000  0.4334212E+03  0.7546771E-02  0.1032785E+00
         21   -1    0    0  503  501  0.00000000000E+00  0.00000000000E+00  0.39511886788E+02  0.39511886788E+02  0.00000000000E+00 0.  1.
         21   -1    0    0  504  502 -0.00000000000E+00 -0.00000000000E+00 -0.13246346754E+04  0.13246346754E+04  0.00000000000E+00 0.  1.
         25    1    1    2    0    0 -0.20234836628E+03  0.27515434543E+02 -0.73573721771E+03  0.77371584836E+03  0.12500000000E+03 0.  0.
         21    1    1    2  503  502  0.16203673089E+02  0.14014805417E+02 -0.99636872823E+02  0.10191408253E+03  0.00000000000E+00 0.  1.
         21    1    1    2  504  501  0.18614469319E+03 -0.41530239960E+02 -0.44974869807E+03  0.48851663129E+03  0.00000000000E+00 0.  1.
<mgrwt>
<rscale>  4 0.43342125E+03</rscale>
<asrwt>0</asrwt>
<pdfrwt beam="1">  1       21 0.60787508E-02 0.43342125E+03</pdfrwt>
<pdfrwt beam="2">  1       21 0.20378998E+00 0.43342125E+03</pdfrwt>
<totfact> 0.21716104E+04</totfact>
</mgrwt>
</event>
<event>
 5    0  0.1723834E+000  0.3819974E+03  0.7546771E-02  0.1050198E+00
         21   -1    0    0  503  501  0.00000000000E+00  0.00000000000E+00  0.13258140583E+03  0.13258140583E+03  0.00000000000E+00 0. -1.
         21   -1    0    0  504  502 -0.00000000000E+00 -0.00000000000E+00 -0.46144270395E+03  0.46144270395E+03  0.00000000000E+00 0. -1.
         25    1    1    2    0    0 -0.18866647321E+03  0.91420227623E+02 -0.15333524609E+03  0.28825230931E+03  0.12500000000E+03 0.  0.
         21    1    1    2  503  502  0.11040330093E+03  0.21145567908E+02 -0.66506800543E+02  0.13061078981E+03  0.00000000000E+00 0. -1.
         21    1    1    2  504  501  0.78263172280E+02 -0.11256579553E+03 -0.10901925149E+03  0.17516101066E+03  0.00000000000E+00 0.  1.
<mgrwt>
<rscale>  4 0.38199741E+03</rscale>
<asrwt>0</asrwt>
<pdfrwt beam="1">  1       21 0.20397140E-01 0.38199741E+03</pdfrwt>
<pdfrwt beam="2">  1       21 0.70991184E-01 0.38199741E+03</pdfrwt>
<totfact> 0.37182455E+04</totfact>
</mgrwt>
</event>
<event>
 5    0  0.1723834E+000  0.5595070E+03  0.7546771E-02  0.9993171E-01
         21   -1    0    0  503  501  0.00000000000E+00  0.00000000000E+00  0.32576424105E+03  0.32576424105E+03  0.00000000000E+00 0.  1.
         21   -1    0    0  504  502 -0.00000000000E+00 -0.00000000000E+00 -0.85459844614E+03  0.85459844614E+03  0.00000000000E+00 0.  1.
         25    1    1    2    0    0  0.88235208273E+02 -0.38651084755E+03 -0.31248760007E+02  0.41686637218E+03  0.12500000000E+03 0.  0.
         21    1    1    2  503  502 -0.37816727607E+02  0.26682708107E+03 -0.55844712620E+03  0.62007256740E+03  0.00000000000E+00 0.  1.
         21    1    1    2  504  501 -0.50418480665E+02  0.11968376648E+03  0.60861681111E+02  0.14342374761E+03  0.00000000000E+00 0. -1.
<mgrwt>
<rscale>  4 0.55950701E+03</rscale>
<asrwt>0</asrwt>
<pdfrwt beam="1">  1       21 0.50117577E-01 0.55950701E+03</pdfrwt>
<pdfrwt beam="2">  1       21 0.13147668E+00 0.55950701E+03</pdfrwt>
<totfact> 0.13053820E+03</totfact>
</mgrwt>
</event>
<event>
 5    0  0.1723834E+000  0.4924921E+03  0.7546771E-02  0.1015757E+00
         21   -1    0    0  503  501  0.00000000000E+00  0.00000000000E+00  0.75504935072E+03  0.75504935072E+03  0.00000000000E+00 0.  1.
         21   -1    0    0  504  502 -0.00000000000E+00 -0.00000000000E+00 -0.11885872123E+03  0.11885872123E+03  0.00000000000E+00 0. -1.
         25    1    1    2    0    0  0.14111790274E+03 -0.15191539194E+03  0.30349089448E+03  0.38823223953E+03  0.12500000000E+03 0.  0.
         21    1    1    2  503  502  0.12750306655E+02 -0.44820673490E+02 -0.22267215388E+02  0.51645832098E+02  0.00000000000E+00 0. -1.
         21    1    1    2  504  501 -0.15386820939E+03  0.19673606543E+03  0.35496695040E+03  0.43403000032E+03  0.00000000000E+00 0.  1.
<mgrwt>
<rscale>  4 0.49249209E+03</rscale>
<asrwt>0</asrwt>
<pdfrwt beam="1">  1       21 0.11616144E+00 0.49249209E+03</pdfrwt>
<pdfrwt beam="2">  1       21 0.18285958E-01 0.49249209E+03</pdfrwt>
<totfact> 0.13774212E+04</totfact>
</mgrwt>
</event>
<event>
 5    0  0.1723834E+000  0.3742385E+03  0.7546771E-02  0.1053084E+00
         21   -1    0    0  503  501  0.00000000000E+00  0.00000000000E+00  0.13339407789E+03  0.13339407789E+03  0.00000000000E+00 0. -1.
         21   -1    0    0  504  502 -0.00000000000E+00 -0.00000000000E+00 -0.81374701788E+03  0.81374701788E+03  0.00000000000E+00 0. -1.
         25    1    1    2    0    0 -0.80221565544E+02 -0.21861393590E+03 -0.58728222461E+02  0.27074260223E+03  0.12500000000E+03 0.  0.
         21    1    1    2  503  502  0.37999623509E+02  0.83809536826E+02 -0.99619806581E+02  0.13561753468E+03  0.00000000000E+00 0.  1.
         21    1    1    2  504  501  0.42221942035E+02  0.13480439908E+03 -0.52200491095E+03  0.54078095885E+03  0.00000000000E+00 0. -1.
<mgrwt>
<rscale>  4 0.37423851E+03</rscale>
<asrwt>0</asrwt>
<pdfrwt beam="1">  1       21 0.20522166E-01 0.37423851E+03</pdfrwt>
<pdfrwt beam="2">  1       21 0.12519185E+00 0.37423851E+03</pdfrwt>
<totfact> 0.95008612E+03</totfact>
</mgrwt>
</event>
<event>
 5    0  0.1723834E+000  0.5246524E+03  0.7546771E-02  0.1007537E+00
         21   -1    0    0  503  501  0.00000000000E+00  0.00000000000E+00  0.44245390884E+03  0.44245390884E+03  0.00000000000E+00 0. -1.
         21   -1    0    0  504  502 -0.00000000000E+00 -0.00000000000E+00 -0.19468136855E+03  0.19468136855E+03  0.00000000000E+00 0. -1.
         25    1    1    2    0    0  0.22541569287E+03 -0.18120154865E+02  0.27413144160E+03  0.37671424432E+03  0.12500000000E+03 0.  0.
         21    1    1    2  503  502 -0.21692078741E+03 -0.11061871964E+02  0.43068059037E+01  0.21724534885E+03  0.00000000000E+00 0. -1.
         21    1    1    2  504  501 -0.84949054627E+01  0.29182026829E+02 -0.30665707204E+02  0.43175684210E+02  0.00000000000E+00 0. -1.
<mgrwt>
<rscale>  4 0.52465240E+03</rscale>
<asrwt>0</asrwt>
<pdfrwt beam="1">  1       21 0.68069832E-01 0.52465240E+03</pdfrwt>
<pdfrwt beam="2">  1       21 0.29950980E-01 0.52465240E+03</pdfrwt>
<totfact> 0.18685547E+04</totfact>
</mgrwt>
</event>
<event>
 5    0  0.1723834E+000  0.1176005E+04  0.7546771E-02  0.9134122E-01
         21   -1    0    0  503  501  0.00000000000E+00  0.00000000000E+00  0.12154957123E+04  0.12154957123E+04  0.00000000000E+00 0. -1.
         21   -1    0    0  504  502 -0.00000000000E+00 -0.00000000000E+00 -0.58332872402E+03  0.58332872402E+03  0.00000000000E+00 0. -1.
         25    1    1    2    0    0  0.31691004989E+03 -0.12649840376E+02 -0.14220967263E+03  0.36937865284E+03  0.12500000000E+03 0.  0.
         21    1    1    2  503  502 -0.35586005687E+03  0.34710363513E+02  0.10711842796E+04  0.11292816081E+04  0.00000000000E+00 0. -1.
         21    1    1    2  504  501  0.38950006981E+02 -0.22060523137E+02 -0.29680761867E+03  0.30016417545E+03  0.00000000000E+00 0. -1.
<mgrwt>
<rscale>  4 0.11760054E+04</rscale>
<asrwt>0</asrwt>
<pdfrwt beam="1">  1       21 0.18699934E+00 0.11760054E+04</pdfrwt>
<pdfrwt beam="2">  1       21 0.89742880E-01 0.11760054E+04</pdfrwt>
<totfact> 0.11052026E+02</totfact>
</mgrwt>
</event>
<event>
 5    0  0.1723834E+000  0.1188692E+04  0.7546771E-02  0.9122812E-01
         21   -1    0    0  503  501  0.00000000000E+00  0.00000000000E+00  0.10607451188E+04  0.10607451188E+04  0.00000000000E+00 0. -1.
         21   -1    0    0  504  502 -0.00000000000E+00 -0.00000000000E+00 -0.13752467748E+04  0.13752467748E+04  0.00000000000E+00 0.  1.
         25    1    1    2    0    0 -0.22004485981E+03  0.44074985484E+03  0.78539609261E+03  0.93549569596E+03  0.12500000000E+03 0.  0.
         21    1    1    2  503  502  0.21431571375E+03 -0.40055396973E+03 -0.58188857915E+02  0.45799634389E+03  0.00000000000E+00 0.  1.
         21    1    1    2  504  501  0.57291460588E+01 -0.40195885111E+02 -0.10417088907E+04  0.10424998538E+04  0.00000000000E+00 0.  1.
<mgrwt>
<rscale>  4 0.11886924E+04</rscale>
<asrwt>0</asrwt>
<pdfrwt beam="1">  1       21 0.16319156E+00 0.11886924E+04</pdfrwt>
<pdfrwt beam="2">  1       21 0.21157643E+00 0.11886924E+04</pdfrwt>
<totfact> 0.15459890E+01</totfact>
</mgrwt>
</event>
<event>
 5    0  0.1723834E+000  0.8592873E+03  0.7546771E-02  0.9477956E-01
         21   -1    0    0  503  501  0.00000000000E+00  0.00000000000E+00  0.68526172109E+03  0.68526172109E+03  0.00000000000E+00 0.  1.
         21   -1    0    0  504  502 -0.00000000000E+00 -0.00000000000E+00 -0.30532378950E+03  0.30532378950E+03  0.00000000000E+00 0. -1.
         25    1    1    2    0    0 -0.36565133971E+03  0.15549811387E+03  0.38206705595E+02  0.41828855830E+03  0.12500000000E+03 0.  0.
         21    1    1    2  503  502  0.34106992787E+03 -0.18003010497E+03  0.36458925211E+03  0.53072107283E+03  0.00000000000E+00 0.  1.
         21    1    1    2  504  501  0.24581411834E+02  0.24531991097E+02 -0.22858026120E+02  0.41575879462E+02  0.00000000000E+00 0.  1.
<mgrwt>
<rscale>  4 0.85928732E+03</rscale>
<asrwt>0</asrwt>
<pdfrwt beam="1">  1       21 0.10542488E+00 0.85928732E+03</pdfrwt>
<pdfrwt beam="2">  1       21 0.46972891E-01 0.85928732E+03</pdfrwt>
<totfact> 0.24531957E+03</totfact>
</mgrwt>
</event>
<event>
 5    0  0.1723834E+000  0.4269803E+03  0.7546771E-02  0.1034818E+00
         21   -1    0    0  503  501  0.00000000000E+00  0.00000000000E+00  0.39116720540E+03  0.39116720540E+03  0.00000000000E+00 0. -1.
         21   -1    0    0  504  502 -0.00000000000E+00 -0.00000000000E+00 -0.22442918881E+03  0.22442918881E+03  0.00000000000E+00 0.  1.
         25    1    1    2    0    0  0.25497731383E+02  0.20027529196E+03  0.27177828607E+03  0.36089993579E+03  0.12500000000E+03 0.  0.
         21    1    1    2  503  502 -0.37944219007E+02 -0.13330696631E+03 -0.11630481588E+02  0.13908910499E+03  0.00000000000E+00 0.  1.
         21    1    1    2  504  501  0.12446487624E+02 -0.66968325641E+02 -0.93409787895E+02  0.11560735343E+03  0.00000000000E+00 0.  1.
<mgrwt>
<rscale>  4 0.42698028E+03</rscale>
<asrwt>0</asrwt>
<pdfrwt beam="1">  1       21 0.60179570E-01 0.42698028E+03</pdfrwt>
<pdfrwt beam="2">  1       21 0.34527567E-01 0.42698028E+03</pdfrwt>
<totfact> 0.18922773E+04</totfact>
</mgrwt>
</event>
<event>
 5    0  0.1723834E+000  0.4722064E+03  0.7546771E-02  0.1021299E+00
         21   -1    0    0  503  501  0.00000000000E+00  0.00000000000E+00  0.14458410881E+03  0.14458410881E+03  0.00000000000E+00 0.  1.
         21   -1    0    0  504  502 -0.00000000000E+00 -0.00000000000E+00 -0.70653500022E+03  0.70653500022E+03  0.00000000000E+00 0.  1.
         25    1    1    2    0    0  0.15707462595E+03  0.13515113764E+03 -0.35093474148E+02  0.24452979379E+03  0.12500000000E+03 0.  0.
         21    1    1    2  503  502 -0.16064472174E+03 -0.11486668248E+03 -0.20709136648E+03  0.28616064621E+03  0.00000000000E+00 0.  1.
         21    1    1    2  504  501  0.35700957910E+01 -0.20284455163E+02 -0.31976605078E+03  0.32042866903E+03  0.00000000000E+00 0.  1.
<mgrwt>
<rscale>  4 0.47220636E+03</rscale>
<asrwt>0</asrwt>
<pdfrwt beam="1">  1       21 0.22243709E-01 0.47220636E+03</pdfrwt>
<pdfrwt beam="2">  1       21 0.10869769E+00 0.47220636E+03</pdfrwt>
<totfact> 0.11249997E+04</totfact>
</mgrwt>
</event>
<event>
 5    0  0.1723834E+000  0.7018128E+03  0.7546771E-02  0.9714137E-01
         21   -1    0    0  503  501  0.00000000000E+00  0.00000000000E+00  0.33934364923E+03  0.33934364923E+03  0.00000000000E+00 0. -1.
         21   -1    0    0  504  502 -0.00000000000E+00 -0.00000000000E+00 -0.51294285598E+03  0.51294285598E+03  0.00000000000E+00 0.  1.
         25    1    1    2    0    0  0.25715432429E+02  0.30002912431E+03  0.16210614462E+03  0.36411833382E+03  0.12500000000E+03 0.  0.
         21    1    1    2  503  502  0.10592058875E+02 -0.21001166892E+02 -0.14815723175E+03  0.15001268627E+03  0.00000000000E+00 0.  1.
         21    1    1    2  504  501 -0.36307491304E+02 -0.27902795742E+03 -0.18754811961E+03  0.33815548512E+03  0.00000000000E+00 0.  1.
<mgrwt>
<rscale>  4 0.70181281E+03</rscale>
<asrwt>0</asrwt>
<pdfrwt beam="1">  1       21 0.52206716E-01 0.70181281E+03</pdfrwt>
<pdfrwt beam="2">  1       21 0.78914285E-01 0.70181281E+03</pdfrwt>
<totfact> 0.40534480E+03</totfact>
</mgrwt>
</event>
<event>
 5    0  0.1723834E+000  0.4811233E+03  0.7546771E-02  0.1018827E+00
         21   -1    0    0  503  501  0.00000000000E+00  0.00000000000E+00  0.71513182758E+02  0.71513182758E+02  0.00000000000E+00 0.  1.
         21   -1    0    0  504  502 -0.00000000000E+00 -0.00000000000E+00 -0.16129364521E+04  0.16129364521E+04  0.00000000000E+00 0.  1.
         25    1    1    2    0    0 -0.16192084494E+03 -0.12733161236E+03 -0.35606595827E+03  0.42992983866E+03  0.12500000000E+03 0.  0.
         21    1    1    2  503  502  0.22000873677E+03  0.94776269059E+02 -0.39929740999E+03  0.46564450717E+03  0.00000000000E+00 0.  1.
         21    1    1    2  504  501 -0.58087891831E+02  0.32555343301E+02 -0.78605990104E+03  0.78887528899E+03  0.00000000000E+00 0.  1.
<mgrwt>
<rscale>  4 0.48112326E+03</rscale>
<asrwt>0</asrwt>
<pdfrwt beam="1">  1       21 0.11002028E-01 0.48112326E+03</pdfrwt>
<pdfrwt beam="2">  1       21 0.24814407E+00 0.48112326E+03</pdfrwt>
<totfact> 0.38866434E+03</totfact>
</mgrwt>
</event>
<event>
 5    0  0.1723834E+000  0.4957166E+03  0.7546771E-02  0.1014903E+00
         21   -1    0    0  503  501  0.00000000000E+00  0.00000000000E+00  0.11469140517E+03  0.11469140517E+03  0.00000000000E+00 0. -1.
         21   -1    0    0  504  502 -0.00000000000E+00 -0.00000000000E+00 -0.26027300012E+04  0.26027300012E+04  0.00000000000E+00 0.  1.
         25    1    1    2    0    0  0.23710493775E+03  0.44376945062E+02 -0.86700664115E+02  0.28518427361E+03  0.12500000000E+03 0.  0.
         21    1    1    2  503  502 -0.13464841992E+03 -0.45173065332E+02 -0.34153878509E+03  0.36989126042E+03  0.00000000000E+00 0.  1.
         21    1    1    2  504  501 -0.10245651783E+03  0.79612027022E+00 -0.20597991468E+04  0.20623458723E+04  0.00000000000E+00 0.  1.
<mgrwt>
<rscale>  4 0.49571658E+03</rscale>
<asrwt>0</asrwt>
<pdfrwt beam="1">  1       21 0.17644832E-01 0.49571658E+03</pdfrwt>
<pdfrwt beam="2">  1       21 0.40041999E+00 0.49571658E+03</pdfrwt>
<totfact> 0.18668587E+02</totfact>
</mgrwt>
</event>
<event>
 5    0  0.1723834E+000  0.3851458E+03  0.7546771E-02  0.1049048E+00
         21   -1    0    0  503  501  0.00000000000E+00  0.00000000000E+00  0.20633966106E+04  0.20633966106E+04  0.00000000000E+00 0.  1.
         21   -1    0    0  504  502 -0.00000000000E+00 -0.00000000000E+00 -0.19335710463E+03  0.19335710463E+03  0.00000000000E+00 0.  1.
         25    1    1    2    0    0  0.88321571678E+02 -0.18834417399E+03  0.10365335782E+04  0.10645661495E+04  0.12500000000E+03 0.  0.
         21    1    1    2  503  502 -0.12939716504E+03  0.12369414591E+02  0.96181743449E+03  0.97056138705E+03  0.00000000000E+00 0. -1.
         21    1    1    2  504  501  0.41075593357E+02  0.17597475940E+03 -0.12831150673E+03  0.22162617868E+03  0.00000000000E+00 0.  1.
<mgrwt>
<rscale>  4 0.38514584E+03</rscale>
<asrwt>0</asrwt>
<pdfrwt beam="1">  1       21 0.31744562E+00 0.38514584E+03</pdfrwt>
<pdfrwt beam="2">  1       21 0.29747248E-01 0.38514584E+03</pdfrwt>
<totfact> 0.23936797E+02</totfact>
</mgrwt>
</event>
<event>
 5    0  0.1723834E+000  0.4511931E+03  0.7546771E-02  0.1027367E+00
         21   -1    0    0  503  501  0.00000000000E+00  0.00000000000E+00  0.48260461140E+03  0.48260461140E+03  0.00000000000E+00 0.  1.
         21   -1    0    0  504  502 -0.00000000000E+00 -0.00000000000E+00 -0.28341526597E+03  0.28341526597E+03  0.00000000000E+00 0. -1.
         25    1    1    2    0    0  0.17699115088E+03 -0.10592428621E+03  0.25391241586E+03  0.35020327929E+03  0.12500000000E+03 0.  0.
         21    1    1    2  503  502  0.10042658075E+02  0.26382385941E+02 -0.17659218190E+03  0.17883423604E+03  0.00000000000E+00 0. -1.
         21    1    1    2  504  501 -0.18703380895E+03  0.79541900267E+02  0.12186911147E+03  0.23698236204E+03  0.00000000000E+00 0.  1.
<mgrwt>
<rscale>  4 0.45119311E+03</rscale>
<asrwt>0</asrwt>
<pdfrwt beam="1">  1       21 0.74246863E-01 0.45119311E+03</pdfrwt>
<pdfrwt beam="2">  1       21 0.43602349E-01 0.45119311E+03</pdfrwt>
<totfact> 0.72844631E+03</totfact>
</mgrwt>
</event>
<event>
 5    0  0.1723834E+000  0.3226440E+03  0.7546771E-02  0.1074439E+00
         21   -1    0    0  503  501  0.00000000000E+00  0.00000000000E+00  0.11723813844E+04  0.11723813844E+04  0.00000000000E+00 0.  1.
         21   -1    0    0  504  502 -0.00000000000E+00 -0.00000000000E+00 -0.10101169464E+03  0.10101169464E+03  0.00000000000E+00 0.  1.
         25    1    1    2    0    0  0.18001121521E+03  0.11629738603E+03  0.67993925037E+03  0.72378968202E+03  0.12500000000E+03 0.  0.
         21    1    1    2  503  502 -0.41315883074E+02  0.54851679761E+02  0.30553653726E+03  0.31315856138E+03  0.00000000000E+00 0. -1.
         21    1    1    2  504  501 -0.13869533214E+03 -0.17114906579E+03  0.85893902148E+02  0.23644483565E+03  0.00000000000E+00 0.  1.
<mgrwt>
<rscale>  4 0.32264397E+03</rscale>
<asrwt>0</asrwt>
<pdfrwt beam="1">  1       21 0.18036636E+00 0.32264397E+03</pdfrwt>
<pdfrwt beam="2">  1       21 0.15540262E-01 0.32264397E+03</pdfrwt>
<totfact> 0.60973660E+03</totfact>
</mgrwt>
</event>
<event>
 5    0  0.1723834E+000  0.8606327E+03  0.7546771E-02  0.9476176E-01
         21   -1    0    0  503  501  0.00000000000E+00  0.00000000000E+00  0.20629955514E+04  0.20629955514E+04  0.00000000000E+00 0.  1.
         21   -1    0    0  504  502 -0.00000000000E+00 -0.00000000000E+00 -0.46713696963E+03  0.46713696963E+03  0.00000000000E+00 0.  1.
         25    1    1    2    0    0  0.25722034679E+03 -0.53418269954E+03  0.13946083361E+04  0.15205495304E+04  0.12500000000E+03 0.  0.
         21    1    1    2  503  502 -0.38712041942E+03  0.32521896008E+03 -0.19603834307E+03  0.54227356848E+03  0.00000000000E+00 0.  1.
         21    1    1    2  504  501  0.12990007262E+03  0.20896373946E+03  0.39728858868E+03  0.46730942209E+03  0.00000000000E+00 0.  1.
<mgrwt>
<rscale>  4 0.86063269E+03</rscale>
<asrwt>0</asrwt>
<pdfrwt beam="1">  1       21 0.31738393E+00 0.86063269E+03</pdfrwt>
<pdfrwt beam="2">  1       21 0.71867227E-01 0.86063269E+03</pdfrwt>
<totfact> 0.29194490E+01</totfact>
</mgrwt>
</event>
<event>
 5    0  0.1723834E+000  0.6543169E+03  0.7546771E-02  0.9798712E-01
         21   -1    0    0  503  501  0.00000000000E+00  0.00000000000E+00  0.17106193197E+04  0.17106193197E+04  0.00000000000E+00 0.  1.
         21   -1    0    0  504  502 -0.00000000000E+00 -0.00000000000E+00 -0.16538706447E+03  0.16538706447E+03  0.00000000000E+00 0.  1.
         25    1    1    2    0    0  0.56389564912E+02 -0.29927391114E+03  0.10196257475E+04  0.10714505691E+04  0.12500000000E+03 0.  0.
         21    1    1    2  503  502 -0.87773708920E+02  0.29949436523E+03  0.62593914024E+03  0.69942898572E+03  0.00000000000E+00 0.  1.
         21    1    1    2  504  501  0.31384144008E+02 -0.22045408425E+00 -0.10033263256E+03  0.10512682936E+03  0.00000000000E+00 0.  1.
<mgrwt>
<rscale>  4 0.65431689E+03</rscale>
<asrwt>0</asrwt>
<pdfrwt beam="1">  1       21 0.26317219E+00 0.65431689E+03</pdfrwt>
<pdfrwt beam="2">  1       21 0.25444165E-01 0.65431689E+03</pdfrwt>
<totfact> 0.60635631E+02</totfact>
</mgrwt>
</event>
<event>
 5    0  0.1723834E+000  0.6923796E+03  0.7546771E-02  0.9730353E-01
         21   -1    0    0  503  501  0.00000000000E+00  0.00000000000E+00  0.25375016131E+03  0.25375016131E+03  0.00000000000E+00 0.  1.
         21   -1    0    0  504  502 -0.00000000000E+00 -0.00000000000E+00 -0.87934356100E+03  0.87934356100E+03  0.00000000000E+00 0.  1.
         25    1    1    2    0    0  0.25893049380E+03 -0.70467878393E+02  0.10479614421E+03  0.31403495720E+03  0.12500000000E+03 0.  0.
         21    1    1    2  503  502 -0.23142280781E+03  0.10201687160E+03 -0.32645361068E+03  0.41295994720E+03  0.00000000000E+00 0.  1.
         21    1    1    2  504  501 -0.27507685986E+02 -0.31548993206E+02 -0.40393593322E+03  0.40609881791E+03  0.00000000000E+00 0.  1.
<mgrwt>
<rscale>  4 0.69237963E+03</rscale>
<asrwt>0</asrwt>
<pdfrwt beam="1">  1       21 0.39038486E-01 0.69237963E+03</pdfrwt>
<pdfrwt beam="2">  1       21 0.13528362E+00 0.69237963E+03</pdfrwt>
<totfact> 0.19733386E+03</totfact>
</mgrwt>
</event>
<event>
 5    0  0.1723834E+000  0.7088073E+03  0.7546771E-02  0.9702288E-01
         21   -1    0    0  503  501  0.00000000000E+00  0.00000000000E+00  0.35927190886E+03  0.35927190886E+03  0.00000000000E+00 0. -1.
         21   -1    0    0  504  502 -0.00000000000E+00 -0.00000000000E+00 -0.18689815712E+04  0.18689815712E+04  0.00000000000E+00 0. -1.
         25    1    1    2    0    0 -0.24337437294E+03  0.19901277486E+03 -0.71222589338E+02  0.34573809046E+03  0.12500000000E+03 0.  0.
         21    1    1    2  503  502  0.25839898658E+03 -0.24219059938E+03  0.80214166267E+02  0.36312619730E+03  0.00000000000E+00 0. -1.
         21    1    1    2  504  501 -0.15024613649E+02  0.43177824520E+02 -0.15187012393E+04  0.15193891923E+04  0.00000000000E+00 0. -1.
<mgrwt>
<rscale>  4 0.70880726E+03</rscale>
<asrwt>0</asrwt>
<pdfrwt beam="1">  1       21 0.55272603E-01 0.70880726E+03</pdfrwt>
<pdfrwt beam="2">  1       21 0.28753562E+00 0.70880726E+03</pdfrwt>
<totfact> 0.84809725E+01</totfact>
</mgrwt>
</event>
<event>
 5    0  0.1723834E+000  0.5149037E+03  0.7546771E-02  0.1009960E+00
         21   -1    0    0  503  501  0.00000000000E+00  0.00000000000E+00  0.90928512574E+02  0.90928512574E+02  0.00000000000E+00 0. -1.
         21   -1    0    0  504  502 -0.00000000000E+00 -0.00000000000E+00 -0.86229903815E+03  0.86229903815E+03  0.00000000000E+00 0.  1.
         25    1    1    2    0    0  0.14276226488E+03  0.14524758907E+03 -0.11767565976E+03  0.26636532677E+03  0.12500000000E+03 0.  0.
         21    1    1    2  503  502 -0.13527317725E+03 -0.12650378195E+03 -0.52763241257E+03  0.55919406482E+03  0.00000000000E+00 0.  1.
         21    1    1    2  504  501 -0.74890876336E+01 -0.18743807127E+02 -0.12606245325E+03  0.12766815914E+03  0.00000000000E+00 0.  1.
<mgrwt>
<rscale>  4 0.51490368E+03</rscale>
<asrwt>0</asrwt>
<pdfrwt beam="1">  1       21 0.13989001E-01 0.51490368E+03</pdfrwt>
<pdfrwt beam="2">  1       21 0.13266139E+00 0.51490368E+03</pdfrwt>
<totfact> 0.16055624E+04</totfact>
</mgrwt>
</event>
<event>
 5    0  0.1723834E+000  0.5448514E+03  0.7546771E-02  0.1002693E+00
         21   -1    0    0  503  501  0.00000000000E+00  0.00000000000E+00  0.19019871046E+03  0.19019871046E+03  0.00000000000E+00 0.  1.
         21   -1    0    0  504  502 -0.00000000000E+00 -0.00000000000E+00 -0.10441900859E+04  0.10441900859E+04  0.00000000000E+00 0.  1.
         25    1    1    2    0    0  0.55259165762E+02 -0.28044927224E+03 -0.13071342301E+03  0.33825488712E+03  0.12500000000E+03 0.  0.
         21    1    1    2  503  502  0.54818667553E+02  0.22622092623E+03 -0.87577446457E+02  0.24869821653E+03  0.00000000000E+00 0.  1.
         21    1    1    2  504  501 -0.11007783331E+03  0.54228346013E+02 -0.63570050601E+03  0.64743569275E+03  0.00000000000E+00 0.  1.
<mgrwt>
<rscale>  4 0.54485139E+03</rscale>
<asrwt>0</asrwt>
<pdfrwt beam="1">  1       21 0.29261340E-01 0.54485139E+03</pdfrwt>
<pdfrwt beam="2">  1       21 0.16064463E+00 0.54485139E+03</pdfrwt>
<totfact> 0.23078934E+03</totfact>
</mgrwt>
</event>
<event>
 5    0  0.1723834E+000  0.7264882E+03  0.7546771E-02  0.9672976E-01
         21   -1    0    0  503  501  0.00000000000E+00  0.00000000000E+00  0.75862209735E+03  0.75862209735E+03  0.00000000000E+00 0. -1.
         21   -1    0    0  504  502 -0.00000000000E+00 -0.00000000000E+00 -0.24913333286E+03  0.24913333286E+03  0.00000000000E+00 0. -1.
         25    1    1    2    0    0 -0.19687649361E+03  0.26051182193E+03  0.48114632008E+03  0.59477184233E+03  0.12500000000E+03 0.  0.
         21    1    1    2  503  502  0.20952167143E+03 -0.24301796125E+03  0.10163307615E+03  0.33658036552E+03  0.00000000000E+00 0. -1.
         21    1    1    2  504  501 -0.12645177815E+02 -0.17493860684E+02 -0.73290631753E+02  0.76403222356E+02  0.00000000000E+00 0. -1.
<mgrwt>
<rscale>  4 0.72648820E+03</rscale>
<asrwt>0</asrwt>
<pdfrwt beam="1">  1       21 0.11671109E+00 0.72648820E+03</pdfrwt>
<pdfrwt beam="2">  1       21 0.38328205E-01 0.72648820E+03</pdfrwt>
<totfact> 0.29883947E+03</totfact>
</mgrwt>
</event>
<event>
 5    0  0.1723834E+000  0.8555158E+03  0.7546771E-02  0.9482964E-01
         21   -1    0    0  503  501  0.00000000000E+00  0.00000000000E+00  0.96665874608E+03  0.96665874608E+03  0.00000000000E+00 0.  1.
         21   -1    0    0  504  502 -0.00000000000E+00 -0.00000000000E+00 -0.21313474238E+03  0.21313474238E+03  0.00000000000E+00 0. -1.
         25    1    1    2    0    0 -0.24431057762E+03  0.92356121812E+02 -0.44830660762E+02  0.29300528957E+03  0.12500000000E+03 0.  0.
         21    1    1    2  503  502  0.24203631804E+03 -0.11248982151E+03  0.81685374329E+03  0.85935183547E+03  0.00000000000E+00 0.  1.
         21    1    1    2  504  501  0.22742595764E+01  0.20133699695E+02 -0.18499078830E+02  0.27436363417E+02  0.00000000000E+00 0. -1.
<mgrwt>
<rscale>  4 0.85551581E+03</rscale>
<asrwt>0</asrwt>
<pdfrwt beam="1">  1       21 0.14871673E+00 0.85551581E+03</pdfrwt>
<pdfrwt beam="2">  1       21 0.32789961E-01 0.85551581E+03</pdfrwt>
<totfact> 0.21060603E+03</totfact>
</mgrwt>
</event>
<event>
 5    0  0.1723834E+000  0.4487006E+03  0.7546771E-02  0.1028110E+00
         21   -1    0    0  503  501  0.00000000000E+00  0.00000000000E+00  0.26114755031E+03  0.26114755031E+03  0.00000000000E+00 0.  1.
         21   -1    0    0  504  502 -0.00000000000E+00 -0.00000000000E+00 -0.14855379272E+04  0.14855379272E+04  0.00000000000E+00 0.  1.
         25    1    1    2    0    0 -0.23952273582E+03 -0.47636449621E+02 -0.26402877278E+02  0.27561292465E+03  0.12500000000E+03 0.  0.
         21    1    1    2  503  502  0.13826777791E+03  0.64416972487E+02  0.91255846509E+02  0.17775025815E+03  0.00000000000E+00 0.  1.
         21    1    1    2  504  501  0.10125495791E+03 -0.16780522865E+02 -0.12892433461E+04  0.12933222947E+04  0.00000000000E+00 0.  1.
<mgrwt>
<rscale>  4 0.44870064E+03</rscale>
<asrwt>0</asrwt>
<pdfrwt beam="1">  1       21 0.40176545E-01 0.44870064E+03</pdfrwt>
<pdfrwt beam="2">  1       21 0.22854430E+00 0.44870064E+03</pdfrwt>
<totfact> 0.43405609E+02</totfact>
</mgrwt>
</event>
<event>
 5    0  0.1723834E+000  0.7288716E+03  0.7546771E-02  0.9669093E-01
         21   -1    0    0  503  501  0.00000000000E+00  0.00000000000E+00  0.85734883958E+03  0.85734883958E+03  0.00000000000E+00 0.  1.
         21   -1    0    0  504  502 -0.00000000000E+00 -0.00000000000E+00 -0.23196421814E+03  0.23196421814E+03  0.00000000000E+00 0.  1.
         25    1    1    2    0    0 -0.13338392686E+02  0.28344026446E+03  0.50547681831E+02  0.31415977524E+03  0.12500000000E+03 0.  0.
         21    1    1    2  503  502  0.14412935196E+02 -0.30711975022E+02 -0.72600866413E+02  0.80136408171E+02  0.00000000000E+00 0.  1.
         21    1    1    2  504  501 -0.10745425100E+01 -0.25272828944E+03  0.64743780601E+03  0.69501687431E+03  0.00000000000E+00 0.  1.
<mgrwt>
<rscale>  4 0.72887157E+03</rscale>
<asrwt>0</asrwt>
<pdfrwt beam="1">  1       21 0.13189982E+00 0.72887157E+03</pdfrwt>
<pdfrwt beam="2">  1       21 0.35686803E-01 0.72887157E+03</pdfrwt>
<totfact> 0.25169595E+03</totfact>
</mgrwt>
</event>
<event>
 5    0  0.1723834E+000  0.4928115E+03  0.7546771E-02  0.1015672E+00
         21   -1    0    0  503  501  0.00000000000E+00  0.00000000000E+00  0.15381146766E+03  0.15381146766E+03  0.00000000000E+00 0. -1.
         21   -1    0    0  504  502 -0.00000000000E+00 -0.00000000000E+00 -0.47914766425E+03  0.47914766425E+03  0.00000000000E+00 0.  1.
         25    1    1    2    0    0 -0.20973948659E+03 -0.91930209467E+02 -0.27844113299E+03  0.38157080626E+03  0.12500000000E+03 0.  0.
         21    1    1    2  503  502  0.19663250091E+02  0.45506850131E+02 -0.21681123748E+02  0.54107189356E+02  0.00000000000E+00 0. -1.
         21    1    1    2  504  501  0.19007623650E+03  0.46423359336E+02 -0.25213939847E+02  0.19728113629E+03  0.00000000000E+00 0. -1.
<mgrwt>
<rscale>  4 0.49281149E+03</rscale>
<asrwt>0</asrwt>
<pdfrwt beam="1">  1       21 0.23663303E-01 0.49281149E+03</pdfrwt>
<pdfrwt beam="2">  1       21 0.73715025E-01 0.49281149E+03</pdfrwt>
<totfact> 0.24968558E+04</totfact>
</mgrwt>
</event>
<event>
 5    0  0.1723834E+000  0.5308113E+03  0.7546771E-02  0.1006036E+00
         21   -1    0    0  503  501  0.00000000000E+00  0.00000000000E+00  0.12538364493E+03  0.12538364493E+03  0.00000000000E+00 0.  1.
         21   -1    0    0  504  502 -0.00000000000E+00 -0.00000000000E+00 -0.64367598664E+03  0.64367598664E+03  0.00000000000E+00 0.  1.
         25    1    1    2    0    0  0.22697028485E+03  0.11085065035E+03 -0.24106816335E+03  0.37086687136E+03  0.12500000000E+03 0.  0.
         21    1    1    2  503  502 -0.21243856753E+03 -0.12979655303E+03 -0.20618563577E+03  0.32324883071E+03  0.00000000000E+00 0.  1.
         21    1    1    2  504  501 -0.14531717317E+02  0.18945902679E+02 -0.71038542587E+02  0.74943929504E+02  0.00000000000E+00 0. -1.
<mgrwt>
<rscale>  4 0.53081131E+03</rscale>
<asrwt>0</asrwt>
<pdfrwt beam="1">  1       21 0.19289791E-01 0.53081131E+03</pdfrwt>
<pdfrwt beam="2">  1       21 0.99027075E-01 0.53081131E+03</pdfrwt>
<totfact> 0.18309899E+04</totfact>
</mgrwt>
</event>
<event>
 5    0  0.1723834E+000  0.4407896E+03  0.7546771E-02  0.1030505E+00
         21   -1    0    0  503  501  0.00000000000E+00  0.00000000000E+00  0.12958500390E+04  0.12958500390E+04  0.00000000000E+00 0. -1.
         21   -1    0    0  504  502 -0.00000000000E+00 -0.00000000000E+00 -0.28708670165E+03  0.28708670165E+03  0.00000000000E+00 0. -1.
         25    1    1    2    0    0 -0.16838701602E+03 -0.13237670888E+03  0.61948393284E+03  0.66728039328E+03  0.12500000000E+03 0.  0.
         21    1    1    2  503  502  0.10815080094E+03  0.15442535930E+03  0.63463921480E+03  0.66205039106E+03  0.00000000000E+00 0. -1.
         21    1    1    2  504  501  0.60236215075E+02 -0.22048650420E+02 -0.24535981027E+03  0.25360595633E+03  0.00000000000E+00 0. -1.
<mgrwt>
<rscale>  4 0.44078959E+03</rscale>
<asrwt>0</asrwt>
<pdfrwt beam="1">  1       21 0.19936154E+00 0.44078959E+03</pdfrwt>
<pdfrwt beam="2">  1       21 0.44167186E-01 0.44078959E+03</pdfrwt>
<totfact> 0.55312437E+02</totfact>
</mgrwt>
</event>
<event>
 5    0  0.1723834E+000  0.9155735E+03  0.7546771E-02  0.9406321E-01
         21   -1    0    0  503  501  0.00000000000E+00  0.00000000000E+00  0.25396798930E+03  0.25396798930E+03  0.00000000000E+00 0.  1.
         21   -1    0    0  504  502 -0.00000000000E+00 -0.00000000000E+00 -0.91492258999E+03  0.91492258999E+03  0.00000000000E+00 0. -1.
         25    1    1    2    0    0  0.39578748122E+03  0.22194300762E+03 -0.23255980392E+03  0.52499094403E+03  0.12500000000E+03 0.  0.
         21    1    1    2  503  502 -0.35486558059E+03 -0.24729135461E+03 -0.38812023071E+03  0.58113673765E+03  0.00000000000E+00 0. -1.
         21    1    1    2  504  501 -0.40921900621E+02  0.25348346994E+02 -0.40274566052E+02  0.62762897611E+02  0.00000000000E+00 0. -1.
<mgrwt>
<rscale>  4 0.91557345E+03</rscale>
<asrwt>0</asrwt>
<pdfrwt beam="1">  1       21 0.39071999E-01 0.91557345E+03</pdfrwt>
<pdfrwt beam="2">  1       21 0.14075732E+00 0.91557345E+03</pdfrwt>
<totfact> 0.16884832E+03</totfact>
</mgrwt>
</event>
<event>
 5    0  0.1723834E+000  0.5343660E+03  0.7546771E-02  0.1005179E+00
         21   -1    0    0  503  501  0.00000000000E+00  0.00000000000E+00  0.50189707536E+03  0.50189707536E+03  0.00000000000E+00 0. -1.
         21   -1    0    0  504  502 -0.00000000000E+00 -0.00000000000E+00 -0.31423391037E+03  0.31423391037E+03  0.00000000000E+00 0. -1.
         25    1    1    2    0    0  0.23897821559E+03  0.28963494093E+03  0.12454113136E+03  0.41489092535E+03  0.12500000000E+03 0.  0.
         21    1    1    2  503  502 -0.15956040214E+03 -0.18102853986E+03 -0.21546239262E+02  0.24227070521E+03  0.00000000000E+00 0. -1.
         21    1    1    2  504  501 -0.79417813447E+02 -0.10860640108E+03  0.84668272903E+02  0.15896935517E+03  0.00000000000E+00 0.  1.
<mgrwt>
<rscale>  4 0.53436602E+03</rscale>
<asrwt>0</asrwt>
<pdfrwt beam="1">  1       21 0.77214934E-01 0.53436602E+03</pdfrwt>
<pdfrwt beam="2">  1       21 0.48343679E-01 0.53436602E+03</pdfrwt>
<totfact> 0.52311252E+03</totfact>
</mgrwt>
</event>
<event>
 5    0  0.1723834E+000  0.4901803E+03  0.7546771E-02  0.1016374E+00
         21   -1    0    0  503  501  0.00000000000E+00  0.00000000000E+00  0.90688624168E+02  0.90688624168E+02  0.00000000000E+00 0. -1.
         21   -1    0    0  504  502 -0.00000000000E+00 -0.00000000000E+00 -0.76555534734E+03  0.76555534734E+03  0.00000000000E+00 0.  1.
         25    1    1    2    0    0  0.17809624912E+03  0.16801310903E+03 -0.40306281374E+03  0.48788452587E+03  0.12500000000E+03 0.  0.
         21    1    1    2  503  502 -0.16189231669E+03 -0.13895136713E+03 -0.24961335222E+03  0.32836478227E+03  0.00000000000E+00 0. -1.
         21    1    1    2  504  501 -0.16203932427E+02 -0.29061741904E+02 -0.22190557212E+02  0.39994663369E+02  0.00000000000E+00 0. -1.
<mgrwt>
<rscale>  4 0.49018033E+03</rscale>
<asrwt>0</asrwt>
<pdfrwt beam="1">  1       21 0.13952096E-01 0.49018033E+03</pdfrwt>
<pdfrwt beam="2">  1       21 0.11777774E+00 0.49018033E+03</pdfrwt>
<totfact> 0.22065539E+04</totfact>
</mgrwt>
</event>
<event>
 5    0  0.1723834E+000  0.5214741E+03  0.7546771E-02  0.1008321E+00
         21   -1    0    0  503  501  0.00000000000E+00  0.00000000000E+00  0.11709845409E+03  0.11709845409E+03  0.00000000000E+00 0.  1.
         21   -1    0    0  504  502 -0.00000000000E+00 -0.00000000000E+00 -0.84674689110E+03  0.84674689110E+03  0.00000000000E+00 0.  1.
         25    1    1    2    0    0  0.17718090456E+03 -0.12031749286E+03 -0.20135269764E+03  0.31943274860E+03  0.12500000000E+03 0.  0.
         21    1    1    2  503  502  0.62590079350E+02 -0.68624124986E+01 -0.24140224744E+03  0.24947876825E+03  0.00000000000E+00 0.  1.
         21    1    1    2  504  501 -0.23977098391E+03  0.12717990536E+03 -0.28689349192E+03  0.39493382833E+03  0.00000000000E+00 0.  1.
<mgrwt>
<rscale>  4 0.52147413E+03</rscale>
<asrwt>0</asrwt>
<pdfrwt beam="1">  1       21 0.18015146E-01 0.52147413E+03</pdfrwt>
<pdfrwt beam="2">  1       21 0.13026876E+00 0.52147413E+03</pdfrwt>
<totfact> 0.10476125E+04</totfact>
</mgrwt>
</event>
<event>
 5    0  0.1723834E+000  0.4376819E+03  0.7546771E-02  0.1031460E+00
         21   -1    0    0  503  501  0.00000000000E+00  0.00000000000E+00  0.70467665021E+03  0.70467665021E+03  0.00000000000E+00 0.  1.
         21   -1    0    0  504  502 -0.00000000000E+00 -0.00000000000E+00 -0.83939906874E+02  0.83939906874E+02  0.00000000000E+00 0.  1.
         25    1    1    2    0    0  0.10127854567E+00 -0.21534076673E+03  0.34364924079E+03  0.42437183786E+03  0.12500000000E+03 0.  0.
         21    1    1    2  503  502  0.35991221282E+02  0.18482725318E+03  0.23336964984E+03  0.29986309375E+03  0.00000000000E+00 0.  1.
         21    1    1    2  504  501 -0.36092499828E+02  0.30513513548E+02  0.43717852700E+02  0.64381625465E+02  0.00000000000E+00 0.  1.
<mgrwt>
<rscale>  4 0.43768189E+03</rscale>
<asrwt>0</asrwt>
<pdfrwt beam="1">  1       21 0.10841179E+00 0.43768189E+03</pdfrwt>
<pdfrwt beam="2">  1       21 0.12913832E-01 0.43768189E+03</pdfrwt>
<totfact> 0.31703540E+04</totfact>
</mgrwt>
</event>
<event>
 5    0  0.1723834E+000  0.4348977E+03  0.7546771E-02  0.1032324E+00
         21   -1    0    0  503  501  0.00000000000E+00  0.00000000000E+00  0.10627902565E+04  0.10627902565E+04  0.00000000000E+00 0.  1.
         21   -1    0    0  504  502 -0.00000000000E+00 -0.00000000000E+00 -0.10395258827E+03  0.10395258827E+03  0.00000000000E+00 0.  1.
         25    1    1    2    0    0  0.20530462013E+03  0.29522763331E+02  0.42203847390E+03  0.48658303922E+03  0.12500000000E+03 0.  0.
         21    1    1    2  503  502 -0.15108916164E+03 -0.91623042162E+02  0.56581644097E+03  0.59276551982E+03  0.00000000000E+00 0.  1.
         21    1    1    2  504  501 -0.54215458492E+02  0.62100278831E+02 -0.29017246669E+02  0.87394285709E+02  0.00000000000E+00 0.  1.
<mgrwt>
<rscale>  4 0.43489767E+03</rscale>
<asrwt>0</asrwt>
<pdfrwt beam="1">  1       21 0.16350619E+00 0.43489767E+03</pdfrwt>
<pdfrwt beam="2">  1       21 0.15992707E-01 0.43489767E+03</pdfrwt>
<totfact> 0.72821378E+03</totfact>
</mgrwt>
</event>
<event>
 5    0  0.1723834E+000  0.5240579E+03  0.7546771E-02  0.1007683E+00
         21   -1    0    0  503  501  0.00000000000E+00  0.00000000000E+00  0.24115413055E+03  0.24115413055E+03  0.00000000000E+00 0. -1.
         21   -1    0    0  504  502 -0.00000000000E+00 -0.00000000000E+00 -0.97718167343E+03  0.97718167343E+03  0.00000000000E+00 0.  1.
         25    1    1    2    0    0  0.29409955515E+03  0.73714664527E+02  0.38083826666E+02  0.33015720189E+03  0.12500000000E+03 0.  0.
         21    1    1    2  503  502 -0.19362026162E+03  0.54313385430E+02 -0.65856601666E+03  0.68858401655E+03  0.00000000000E+00 0.  1.
         21    1    1    2  504  501 -0.10047929352E+03 -0.12802804996E+03 -0.11554535289E+03  0.19959458554E+03  0.00000000000E+00 0.  1.
<mgrwt>
<rscale>  4 0.52405789E+03</rscale>
<asrwt>0</asrwt>
<pdfrwt beam="1">  1       21 0.37100636E-01 0.52405789E+03</pdfrwt>
<pdfrwt beam="2">  1       21 0.15033564E+00 0.52405789E+03</pdfrwt>
<totfact> 0.17302096E+03</totfact>
</mgrwt>
</event>
<event>
 5    0  0.1723834E+000  0.3322017E+03  0.7546771E-02  0.1070167E+00
         21   -1    0    0  503  501  0.00000000000E+00  0.00000000000E+00  0.59610479930E+03  0.59610479930E+03  0.00000000000E+00 0. -1.
         21   -1    0    0  504  502 -0.00000000000E+00 -0.00000000000E+00 -0.29402998333E+03  0.29402998333E+03  0.00000000000E+00 0.  1.
         25    1    1    2    0    0  0.20987285968E+03 -0.82158241535E+02  0.48866771092E+03  0.55246513517E+03  0.12500000000E+03 0.  0.
         21    1    1    2  503  502 -0.54814991045E+02  0.69254445687E+01  0.28402007737E+02  0.62123418041E+02  0.00000000000E+00 0.  1.
         21    1    1    2  504  501 -0.15505786863E+03  0.75232796967E+02 -0.21499490269E+03  0.27554622942E+03  0.00000000000E+00 0.  1.
<mgrwt>
<rscale>  4 0.33220174E+03</rscale>
<asrwt>0</asrwt>
<pdfrwt beam="1">  1       21 0.91708431E-01 0.33220174E+03</pdfrwt>
<pdfrwt beam="2">  1       21 0.45235382E-01 0.33220174E+03</pdfrwt>
<totfact> 0.43266925E+03</totfact>
</mgrwt>
</event>
<event>
 5    0  0.1723834E+000  0.5335140E+03  0.7546771E-02  0.1005383E+00
         21   -1    0    0  503  501  0.00000000000E+00  0.00000000000E+00  0.85172301658E+03  0.85172301658E+03  0.00000000000E+00 0.  1.
         21   -1    0    0  504  502 -0.00000000000E+00 -0.00000000000E+00 -0.14763186838E+04  0.14763186838E+04  0.00000000000E+00 0.  1.
         25    1    1    2    0    0 -0.25042481449E+02 -0.21346998795E+03  0.54580215715E+03  0.59976791877E+03  0.12500000000E+03 0.  0.
         21    1    1    2  503  502  0.12492050821E+03  0.21747766993E+03  0.22040335235E+03  0.33388517190E+03  0.00000000000E+00 0. -1.
         21    1    1    2  504  501 -0.99878026761E+02 -0.40076819735E+01 -0.13908011767E+04  0.13943886097E+04  0.00000000000E+00 0.  1.
<mgrwt>
<rscale>  4 0.53351402E+03</rscale>
<asrwt>0</asrwt>
<pdfrwt beam="1">  1       21 0.13103431E+00 0.53351402E+03</pdfrwt>
<pdfrwt beam="2">  1       21 0.22712595E+00 0.53351402E+03</pdfrwt>
<totfact> 0.28141772E+01</totfact>
</mgrwt>
</event>
<event>
 5    0  0.1723834E+000  0.6994269E+03  0.7546771E-02  0.9718213E-01
         21   -1    0    0  503  501  0.00000000000E+00  0.00000000000E+00  0.22395355286E+03  0.22395355286E+03  0.00000000000E+00 0. -1.
         21   -1    0    0  504  502 -0.00000000000E+00 -0.00000000000E+00 -0.98516246292E+03  0.98516246292E+03  0.00000000000E+00 0. -1.
         25    1    1    2    0    0  0.20421562814E+03  0.27367326291E+03 -0.22105163820E+03  0.42554659481E+03  0.12500000000E+03 0.  0.
         21    1    1    2  503  502 -0.43450524659E+02  0.14362953665E+02 -0.43492587908E+03  0.43732683753E+03  0.00000000000E+00 0. -1.
         21    1    1    2  504  501 -0.16076510348E+03 -0.28803621657E+03 -0.10523139278E+03  0.34624258343E+03  0.00000000000E+00 0. -1.
<mgrwt>
<rscale>  4 0.69942685E+03</rscale>
<asrwt>0</asrwt>
<pdfrwt beam="1">  1       21 0.34454392E-01 0.69942685E+03</pdfrwt>
<pdfrwt beam="2">  1       21 0.15156346E+00 0.69942685E+03</pdfrwt>
<totfact> 0.18701335E+03</totfact>
</mgrwt>
</event>
<event>
 5    0  0.1723834E+000  0.5725048E+03  0.7546771E-02  0.9964151E-01
         21   -1    0    0  503  501  0.00000000000E+00  0.00000000000E+00  0.34275302718E+03  0.34275302718E+03  0.00000000000E+00 0. -1.
         21   -1    0    0  504  502 -0.00000000000E+00 -0.00000000000E+00 -0.28700518582E+03  0.28700518582E+03  0.00000000000E+00 0.  1.
         25    1    1    2    0    0  0.16295353256E+03 -0.19124115567E+03 -0.73363776071E+01  0.28072380703E+03  0.12500000000E+03 0.  0.
         21    1    1    2  503  502  0.23910920160E+02 -0.19551172424E+02 -0.38700759033E+02  0.49514939117E+02  0.00000000000E+00 0.  1.
         21    1    1    2  504  501 -0.18686445272E+03  0.21079232809E+03  0.10178497800E+03  0.29951946685E+03  0.00000000000E+00 0. -1.
<mgrwt>
<rscale>  4 0.57250478E+03</rscale>
<asrwt>0</asrwt>
<pdfrwt beam="1">  1       21 0.52731235E-01 0.57250478E+03</pdfrwt>
<pdfrwt beam="2">  1       21 0.44154644E-01 0.57250478E+03</pdfrwt>
<totfact> 0.14673293E+04</totfact>
</mgrwt>
</event>
<event>
 5    0  0.1723834E+000  0.5543612E+03  0.7546771E-02  0.1000490E+00
         21   -1    0    0  503  501  0.00000000000E+00  0.00000000000E+00  0.12716966736E+04  0.12716966736E+04  0.00000000000E+00 0.  1.
         21   -1    0    0  504  502 -0.00000000000E+00 -0.00000000000E+00 -0.15074084108E+03  0.15074084108E+03  0.00000000000E+00 0.  1.
         25    1    1    2    0    0 -0.32484564573E+02  0.27808458541E+03  0.84038041346E+03  0.89456722660E+03  0.12500000000E+03 0.  0.
         21    1    1    2  503  502 -0.33398194609E+02 -0.57113669165E+02 -0.77546756734E+02  0.10193581357E+03  0.00000000000E+00 0.  1.
         21    1    1    2  504  501  0.65882759182E+02 -0.22097091625E+03  0.35812217582E+03  0.42593447454E+03  0.00000000000E+00 0.  1.
<mgrwt>
<rscale>  4 0.55436115E+03</rscale>
<asrwt>0</asrwt>
<pdfrwt beam="1">  1       21 0.19564564E+00 0.55436115E+03</pdfrwt>
<pdfrwt beam="2">  1       21 0.23190899E-01 0.55436115E+03</pdfrwt>
<totfact> 0.20395960E+03</totfact>
</mgrwt>
</event>
<event>
 5    0  0.1723834E+000  0.5366634E+03  0.7546771E-02  0.1004629E+00
         21   -1    0    0  503  501  0.00000000000E+00  0.00000000000E+00  0.75872780632E+02  0.75872780632E+02  0.00000000000E+00 0.  1.
         21   -1    0    0  504  502 -0.00000000000E+00 -0.00000000000E+00 -0.13132280394E+04  0.13132280394E+04  0.00000000000E+00 0.  1.
         25    1    1    2    0    0  0.23412172057E+03 -0.42311221688E+02 -0.64571476174E+03  0.69941101868E+03  0.12500000000E+03 0.  0.
         21    1    1    2  503  502 -0.85683682783E+01 -0.18727105485E+02 -0.36025950293E+03  0.36084765603E+03  0.00000000000E+00 0.  1.
         21    1    1    2  504  501 -0.22555335229E+03  0.61038327173E+02 -0.23138099415E+03  0.32884214536E+03  0.00000000000E+00 0.  1.
<mgrwt>
<rscale>  4 0.53666340E+03</rscale>
<asrwt>0</asrwt>
<pdfrwt beam="1">  1       21 0.11672736E-01 0.53666340E+03</pdfrwt>
<pdfrwt beam="2">  1       21 0.20203507E+00 0.53666340E+03</pdfrwt>
<totfact> 0.67459154E+03</totfact>
</mgrwt>
</event>
<event>
 5    0  0.1723834E+000  0.6831586E+03  0.7546771E-02  0.9746475E-01
         21   -1    0    0  503  501  0.00000000000E+00  0.00000000000E+00  0.45716504692E+03  0.45716504692E+03  0.00000000000E+00 0. -1.
         21   -1    0    0  504  502 -0.00000000000E+00 -0.00000000000E+00 -0.32087134589E+03  0.32087134589E+03  0.00000000000E+00 0. -1.
         25    1    1    2    0    0  0.25803914492E+03 -0.38548400406E+02  0.29204301134E+03  0.41107700004E+03  0.12500000000E+03 0.  0.
         21    1    1    2  503  502  0.24686248103E+02  0.22873189115E+02 -0.58639692759E+02  0.67610703240E+02  0.00000000000E+00 0. -1.
         21    1    1    2  504  501 -0.28272539302E+03  0.15675211291E+02 -0.97109617552E+02  0.29934868954E+03  0.00000000000E+00 0. -1.
<mgrwt>
<rscale>  4 0.68315857E+03</rscale>
<asrwt>0</asrwt>
<pdfrwt beam="1">  1       21 0.70333084E-01 0.68315857E+03</pdfrwt>
<pdfrwt beam="2">  1       21 0.49364822E-01 0.68315857E+03</pdfrwt>
<totfact> 0.59821654E+03</totfact>
</mgrwt>
</event>
<event>
 5    0  0.1723834E+000  0.8807961E+03  0.7546771E-02  0.9449911E-01
         21   -1    0    0  503  501  0.00000000000E+00  0.00000000000E+00  0.16264654726E+04  0.16264654726E+04  0.00000000000E+00 0.  1.
         21   -1    0    0  504  502 -0.00000000000E+00 -0.00000000000E+00 -0.75443759345E+03  0.75443759345E+03  0.00000000000E+00 0. -1.
         25    1    1    2    0    0 -0.26044429229E+03  0.19780383955E+03  0.14434330537E+04  0.14852883790E+04  0.12500000000E+03 0.  0.
         21    1    1    2  503  502  0.17614548192E+02 -0.17035851886E+03 -0.62277719548E+03  0.64589761763E+03  0.00000000000E+00 0. -1.
         21    1    1    2  504  501  0.24282974410E+03 -0.27445320692E+02  0.51372021006E+02  0.24971706948E+03  0.00000000000E+00 0. -1.
<mgrwt>
<rscale>  4 0.88079606E+03</rscale>
<asrwt>0</asrwt>
<pdfrwt beam="1">  1       21 0.25022546E+00 0.88079606E+03</pdfrwt>
<pdfrwt beam="2">  1       21 0.11606732E+00 0.88079606E+03</pdfrwt>
<totfact> 0.23773734E+01</totfact>
</mgrwt>
</event>
<event>
 5    0  0.1723834E+000  0.5636115E+03  0.7546771E-02  0.9983916E-01
         21   -1    0    0  503  501  0.00000000000E+00  0.00000000000E+00  0.89887467230E+02  0.89887467230E+02  0.00000000000E+00 0. -1.
         21   -1    0    0  504  502 -0.00000000000E+00 -0.00000000000E+00 -0.19881900379E+04  0.19881900379E+04  0.00000000000E+00 0. -1.
         25    1    1    2    0    0  0.87679997453E+01  0.26102635472E+03 -0.56964643191E+03  0.63900993190E+03  0.12500000000E+03 0.  0.
         21    1    1    2  503  502 -0.87832365295E+02 -0.21602723944E+02 -0.10839078386E+04  0.10876752294E+04  0.00000000000E+00 0. -1.
         21    1    1    2  504  501  0.79064365549E+02 -0.23942363078E+03 -0.24474830018E+03  0.35139234385E+03  0.00000000000E+00 0. -1.
<mgrwt>
<rscale>  4 0.56361147E+03</rscale>
<asrwt>0</asrwt>
<pdfrwt beam="1">  1       21 0.13828841E-01 0.56361147E+03</pdfrwt>
<pdfrwt beam="2">  1       21 0.30587539E+00 0.56361147E+03</pdfrwt>
<totfact> 0.10994834E+03</totfact>
</mgrwt>
</event>
<event>
 5    0  0.1723834E+000  0.4229921E+03  0.7546771E-02  0.1036097E+00
         21   -1    0    0  503  501  0.00000000000E+00  0.00000000000E+00  0.93975034527E+03  0.93975034527E+03  0.00000000000E+00 0.  1.
         21   -1    0    0  504  502 -0.00000000000E+00 -0.00000000000E+00 -0.30123103184E+03  0.30123103184E+03  0.00000000000E+00 0. -1.
         25    1    1    2    0    0  0.15519077937E+03  0.13681085354E+03  0.79839891644E+03  0.83418656032E+03  0.12500000000E+03 0.  0.
         21    1    1    2  503  502 -0.76829897092E+02 -0.89310068687E+02  0.85039089157E+02  0.14529545120E+03  0.00000000000E+00 0.  1.
         21    1    1    2  504  501 -0.78360882281E+02 -0.47500784849E+02 -0.24491869216E+03  0.26149936559E+03  0.00000000000E+00 0. -1.
<mgrwt>
<rscale>  4 0.42299208E+03</rscale>
<asrwt>0</asrwt>
<pdfrwt beam="1">  1       21 0.14457697E+00 0.42299208E+03</pdfrwt>
<pdfrwt beam="2">  1       21 0.46343236E-01 0.42299208E+03</pdfrwt>
<totfact> 0.12613209E+03</totfact>
</mgrwt>
</event>
<event>
 5    0  0.1723834E+000  0.9019520E+03  0.7546771E-02  0.9423145E-01
         21   -1    0    0  503  501  0.00000000000E+00  0.00000000000E+00  0.13066594417E+04  0.13066594417E+04  0.00000000000E+00 0. -1.
         21   -1    0    0  504  502 -0.00000000000E+00 -0.00000000000E+00 -0.59064088915E+03  0.59064088915E+03  0.00000000000E+00 0.  1.
         25    1    1    2    0    0  0.22918409569E+03  0.10050665012E+02  0.12104551083E+04  0.12383266672E+04  0.12500000000E+03 0.  0.
         21    1    1    2  503  502 -0.21081925509E+03 -0.42125471631E+02 -0.60322849563E+02  0.22328940829E+03  0.00000000000E+00 0.  1.
         21    1    1    2  504  501 -0.18364840596E+02  0.32074806619E+02 -0.43411370609E+03  0.43568425540E+03  0.00000000000E+00 0.  1.
<mgrwt>
<rscale>  4 0.90195196E+03</rscale>
<asrwt>0</asrwt>
<pdfrwt beam="1">  1       21 0.20102453E+00 0.90195196E+03</pdfrwt>
<pdfrwt beam="2">  1       21 0.90867829E-01 0.90195196E+03</pdfrwt>
<totfact> 0.91077734E+01</totfact>
</mgrwt>
</event>
<event>
 5    0  0.1723834E+000  0.1014083E+04  0.7546771E-02  0.9293233E-01
         21   -1    0    0  503  501  0.00000000000E+00  0.00000000000E+00  0.39396917263E+03  0.39396917263E+03  0.00000000000E+00 0.  1.
         21   -1    0    0  504  502 -0.00000000000E+00 -0.00000000000E+00 -0.77120942054E+03  0.77120942054E+03  0.00000000000E+00 0.  1.
         25    1    1    2    0    0  0.31317155437E+02 -0.34075829256E+03 -0.48062487303E+03  0.60309389547E+03  0.12500000000E+03 0.  0.
         21    1    1    2  503  502 -0.39154944508E+02  0.40453660235E+03  0.19451593373E+03  0.45057676460E+03  0.00000000000E+00 0.  1.
         21    1    1    2  504  501  0.78377890708E+01 -0.63778309794E+02 -0.91131308599E+02  0.11150793310E+03  0.00000000000E+00 0.  1.
<mgrwt>
<rscale>  4 0.10140826E+04</rscale>
<asrwt>0</asrwt>
<pdfrwt beam="1">  1       21 0.60610642E-01 0.10140826E+04</pdfrwt>
<pdfrwt beam="2">  1       21 0.11864760E+00 0.10140826E+04</pdfrwt>
<totfact> 0.10138765E+03</totfact>
</mgrwt>
</event>
<event>
 5    0  0.1723834E+000  0.5064116E+03  0.7546771E-02  0.1012119E+00
         21   -1    0    0  503  501  0.00000000000E+00  0.00000000000E+00  0.53441680837E+03  0.53441680837E+03  0.00000000000E+00 0.  1.
         21   -1    0    0  504  502 -0.00000000000E+00 -0.00000000000E+00 -0.18774254719E+03  0.18774254719E+03  0.00000000000E+00 0.  1.
         25    1    1    2    0    0 -0.17423684808E+03  0.10457399854E+03  0.61355496700E+02  0.24634061252E+03  0.12500000000E+03 0.  0.
         21    1    1    2  503  502  0.18868786991E+03 -0.82574952438E+02  0.34993376533E+03  0.40604848866E+03  0.00000000000E+00 0.  1.
         21    1    1    2  504  501 -0.14451021831E+02 -0.21999046106E+02 -0.64615000851E+02  0.69770254382E+02  0.00000000000E+00 0.  1.
<mgrwt>
<rscale>  4 0.50641157E+03</rscale>
<asrwt>0</asrwt>
<pdfrwt beam="1">  1       21 0.82217970E-01 0.50641157E+03</pdfrwt>
<pdfrwt beam="2">  1       21 0.28883469E-01 0.50641157E+03</pdfrwt>
<totfact> 0.13094185E+04</totfact>
</mgrwt>
</event>
<event>
 5    0  0.1723834E+000  0.4559190E+03  0.7546771E-02  0.1025971E+00
         21   -1    0    0  503  501  0.00000000000E+00  0.00000000000E+00  0.22009549230E+03  0.22009549230E+03  0.00000000000E+00 0. -1.
         21   -1    0    0  504  502 -0.00000000000E+00 -0.00000000000E+00 -0.90168115866E+03  0.90168115866E+03  0.00000000000E+00 0.  1.
         25    1    1    2    0    0  0.20555552937E+03  0.56674243749E+01 -0.89563491350E+02  0.25677191111E+03  0.12500000000E+03 0.  0.
         21    1    1    2  503  502 -0.18521964056E+03 -0.10475645156E+02  0.73214266587E+02  0.19944017454E+03  0.00000000000E+00 0. -1.
         21    1    1    2  504  501 -0.20335888815E+02  0.48082207812E+01 -0.66523644159E+03  0.66556456530E+03  0.00000000000E+00 0.  1.
<mgrwt>
<rscale>  4 0.45591904E+03</rscale>
<asrwt>0</asrwt>
<pdfrwt beam="1">  1       21 0.33860845E-01 0.45591904E+03</pdfrwt>
<pdfrwt beam="2">  1       21 0.13872018E+00 0.45591904E+03</pdfrwt>
<totfact> 0.26502857E+03</totfact>
</mgrwt>
</event>
