<event>
 5    0  0.1856407E+000  0.2544813E+03  0.7546771E-02  0.1110505E+00
         21   -1    0    0  502  501  0.00000000000E+00  0.00000000000E+00  0.90274815439E+02  0.90274815439E+02  0.00000000000E+00 0. -1.
         21   -1    0    0  503  502 -0.00000000000E+00 -0.00000000000E+00 -0.65080140213E+03  0.65080140213E+03  0.00000000000E+00 0. -1.
         25    1    1    2    0    0 -0.17795767962E+03 -0.13216193539E+03 -0.33977426037E+03  0.42450825777E+03  0.12500000000E+03 0.  0.
         21    1    1    2  503  504  0.37576616532E+02  0.20634476703E+02 -0.19682693695E+02  0.47171942614E+02  0.00000000000E+00 0. -1.
         21    1    1    2  504  501  0.14038106309E+03  0.11152745869E+03 -0.20106963262E+03  0.26939601719E+03  0.00000000000E+00 0. -1.
<mgrwt>
<rscale>  4 0.25448126E+03</rscale>
<asrwt>0</asrwt>
<pdfrwt beam="1">  1       21 0.13888433E-01 0.25448126E+03</pdfrwt>
<pdfrwt beam="2">  1       21 0.10012329E+00 0.25448126E+03</pdfrwt>
<totfact> 0.35808729E+04</totfact>
</mgrwt>
</event>
<event>
 5    0  0.2176019E+000  0.2886022E+03  0.7546771E-02  0.1091081E+00
         21   -1    0    0  502  501  0.00000000000E+00  0.00000000000E+00  0.42484518757E+03  0.42484518757E+03  0.00000000000E+00 0.  1.
         21   -1    0    0  503  502 -0.00000000000E+00 -0.00000000000E+00 -0.23551088927E+03  0.23551088927E+03  0.00000000000E+00 0.  1.
         25    1    1    2    0    0 -0.26012303351E+03  0.14986503798E+01  0.25749335233E+03  0.38677391976E+03  0.12500000000E+03 0.  0.
         21    1    1    2  503  504  0.20886909415E+03 -0.21396406288E+02 -0.52922493907E+02  0.21652920139E+03  0.00000000000E+00 0.  1.
         21    1    1    2  504  501  0.51253939357E+02  0.19897755908E+02 -0.15236560118E+02  0.57052955700E+02  0.00000000000E+00 0.  1.
<mgrwt>
<rscale>  4 0.28860222E+03</rscale>
<asrwt>0</asrwt>
<pdfrwt beam="1">  1       21 0.65360798E-01 0.28860222E+03</pdfrwt>
<pdfrwt beam="2">  1       21 0.36232444E-01 0.28860222E+03</pdfrwt>
<totfact> 0.15027472E+04</totfact>
</mgrwt>
</event>
<event>
 5    0  0.1856407E+000  0.2740927E+03  0.7546771E-02  0.1098960E+00
         21   -1    0    0  502  501  0.00000000000E+00  0.00000000000E+00  0.21798891489E+04  0.21798891489E+04  0.00000000000E+00 0. -1.
         21   -1    0    0  503  502 -0.00000000000E+00 -0.00000000000E+00 -0.25741027003E+03  0.25741027003E+03  0.00000000000E+00 0. -1.
         25    1    1    2    0    0  0.32727776374E+02  0.24237071401E+03  0.20873624816E+04  0.21053555044E+04  0.12500000000E+03 0.  0.
         21    1    1    2  503  504 -0.43432592495E+02 -0.22271330050E+03 -0.19167687544E+03  0.29703136011E+03  0.00000000000E+00 0. -1.
         21    1    1    2  504  501  0.10704816121E+02 -0.19657413514E+02  0.26793272734E+02  0.34912554447E+02  0.00000000000E+00 0. -1.
<mgrwt>
<rscale>  4 0.27409271E+03</rscale>
<asrwt>0</asrwt>
<pdfrwt beam="1">  1       21 0.33536755E+00 0.27409271E+03</pdfrwt>
<pdfrwt beam="2">  1       21 0.39601581E-01 0.27409271E+03</pdfrwt>
<totfact> 0.11679003E+02</totfact>
</mgrwt>
</event>
<event>
 5    0  0.1856407E+000  0.3196202E+03  0.7546771E-02  0.1075824E+00
         21   -1    0    0  502  501  0.00000000000E+00  0.00000000000E+00  0.12849915663E+04  0.12849915663E+04  0.00000000000E+00 0.  1.
         21   -1    0    0  503  502 -0.00000000000E+00 -0.00000000000E+00 -0.30034364371E+03  0.30034364371E+03  0.00000000000E+00 0.  1.
         25    1    1    2    0    0  0.82550456402E+02 -0.28234283867E+03  0.11759143050E+04  0.12185776582E+04  0.12500000000E+03 0.  0.
         21    1    1    2  503  504 -0.54019949031E+02  0.20727309892E+03 -0.19018033058E+03  0.28644170535E+03  0.00000000000E+00 0.  1.
         21    1    1    2  504  501 -0.28530507371E+02  0.75069739755E+02 -0.10860518426E+01  0.80315846421E+02  0.00000000000E+00 0. -1.
<mgrwt>
<rscale>  4 0.31962018E+03</rscale>
<asrwt>0</asrwt>
<pdfrwt beam="1">  1       21 0.19769101E+00 0.31962018E+03</pdfrwt>
<pdfrwt beam="2">  1       21 0.46206715E-01 0.31962018E+03</pdfrwt>
<totfact> 0.55480778E+02</totfact>
</mgrwt>
</event>
<event>
 5    0  0.2024175E+000  0.3241328E+03  0.7546771E-02  0.1075145E+00
         21   -1    0    0  502  501  0.00000000000E+00  0.00000000000E+00  0.18246036291E+03  0.18246036291E+03  0.00000000000E+00 0. -1.
         21   -1    0    0  503  502 -0.00000000000E+00 -0.00000000000E+00 -0.63449581078E+03  0.63449581078E+03  0.00000000000E+00 0. -1.
         25    1    1    2    0    0  0.23688804889E+03  0.16033250760E+03 -0.77505785658E+02  0.32164360325E+03  0.12500000000E+03 0.  0.
         21    1    1    2  503  504 -0.10976670824E+03 -0.16028995920E+03 -0.25716602610E+03  0.32229794637E+03  0.00000000000E+00 0. -1.
         21    1    1    2  504  501 -0.12712134066E+03 -0.42548404416E-01 -0.11736363611E+03  0.17301462407E+03  0.00000000000E+00 0. -1.
<mgrwt>
<rscale>  4 0.32109871E+03</rscale>
<asrwt>0</asrwt>
<pdfrwt beam="1">  1       21 0.28070825E-01 0.32413280E+03</pdfrwt>
<pdfrwt beam="2">  1       21 0.97614742E-01 0.32413280E+03</pdfrwt>
<totfact> 0.98003797E+03</totfact>
</mgrwt>
</event>
<event>
 5    0  0.1856407E+000  0.2540351E+03  0.7546771E-02  0.1110781E+00
         21   -1    0    0  502  501  0.00000000000E+00  0.00000000000E+00  0.29382609348E+03  0.29382609348E+03  0.00000000000E+00 0. -1.
         21   -1    0    0  503  502 -0.00000000000E+00 -0.00000000000E+00 -0.29560291766E+03  0.29560291766E+03  0.00000000000E+00 0. -1.
         25    1    1    2    0    0  0.54864677787E+02  0.21423979855E+03  0.17096362678E+03  0.30620644316E+03  0.12500000000E+03 0.  0.
         21    1    1    2  503  504 -0.33391355151E+02 -0.17312980757E+03 -0.15035338303E+03  0.23172192960E+03  0.00000000000E+00 0. -1.
         21    1    1    2  504  501 -0.21473322635E+02 -0.41109990982E+02 -0.22387067923E+02  0.51500638382E+02  0.00000000000E+00 0. -1.
<mgrwt>
<rscale>  4 0.25403508E+03</rscale>
<asrwt>0</asrwt>
<pdfrwt beam="1">  1       21 0.45204015E-01 0.25403508E+03</pdfrwt>
<pdfrwt beam="2">  1       21 0.45477372E-01 0.25403508E+03</pdfrwt>
<totfact> 0.21067485E+04</totfact>
</mgrwt>
</event>
<event>
 5    0  0.5774490E+000  0.2566018E+03  0.7546771E-02  0.1109202E+00
         21   -1    0    0  502  501  0.00000000000E+00  0.00000000000E+00  0.24707206736E+04  0.24707206736E+04  0.00000000000E+00 0. -1.
         21   -1    0    0  503  502 -0.00000000000E+00 -0.00000000000E+00 -0.44704716976E+02  0.44704716976E+02  0.00000000000E+00 0. -1.
         25    1    1    2    0    0  0.24440380246E+03 -0.98920372210E+02  0.17209133204E+04  0.17454758993E+04  0.12500000000E+03 0.  0.
         21    1    1    2  503  504 -0.54782429981E+02 -0.37309965353E+01  0.35169854453E+03  0.35595912854E+03  0.00000000000E+00 0.  1.
         21    1    1    2  504  501 -0.18962137247E+03  0.10265136875E+03  0.35340409162E+03  0.41399036266E+03  0.00000000000E+00 0. -1.
<mgrwt>
<rscale>  4 0.25660185E+03</rscale>
<asrwt>0</asrwt>
<pdfrwt beam="1">  1       21 0.38011077E+00 0.25660185E+03</pdfrwt>
<pdfrwt beam="2">  1       21 0.68776507E-02 0.25660185E+03</pdfrwt>
<totfact> 0.16617870E+03</totfact>
</mgrwt>
</event>
<event>
 5    0  0.1856407E+000  0.2756551E+03  0.7546771E-02  0.1098086E+00
         21   -1    0    0  502  501  0.00000000000E+00  0.00000000000E+00  0.29934765330E+03  0.29934765330E+03  0.00000000000E+00 0.  1.
         21   -1    0    0  503  502 -0.00000000000E+00 -0.00000000000E+00 -0.40306671077E+03  0.40306671077E+03  0.00000000000E+00 0.  1.
         25    1    1    2    0    0 -0.22898635989E+03  0.89028054835E+02  0.17115112265E+03  0.32446641483E+03  0.12500000000E+03 0.  0.
         21    1    1    2  503  504  0.14244643673E+03 -0.74329569173E+02 -0.12228163114E+03  0.20191252934E+03  0.00000000000E+00 0.  1.
         21    1    1    2  504  501  0.86539923165E+02 -0.14698485662E+02 -0.15258854897E+03  0.17603541990E+03  0.00000000000E+00 0.  1.
<mgrwt>
<rscale>  4 0.27565512E+03</rscale>
<asrwt>0</asrwt>
<pdfrwt beam="1">  1       21 0.46053486E-01 0.27565512E+03</pdfrwt>
<pdfrwt beam="2">  1       21 0.62010263E-01 0.27565512E+03</pdfrwt>
<totfact> 0.10387801E+04</totfact>
</mgrwt>
</event>
<event>
 5    0  0.1856407E+000  0.2201642E+03  0.7546771E-02  0.1133761E+00
         21   -1    0    0  502  501  0.00000000000E+00  0.00000000000E+00  0.54817401250E+03  0.54817401250E+03  0.00000000000E+00 0.  1.
         21   -1    0    0  503  502 -0.00000000000E+00 -0.00000000000E+00 -0.10234309177E+03  0.10234309177E+03  0.00000000000E+00 0.  1.
         25    1    1    2    0    0 -0.32048844791E+02 -0.19948458161E+03  0.21080410493E+03  0.31762335778E+03  0.12500000000E+03 0.  0.
         21    1    1    2  503  504  0.57199416449E+02  0.31701060630E+02  0.77199412349E+02  0.10117548989E+03  0.00000000000E+00 0. -1.
         21    1    1    2  504  501 -0.25150571659E+02  0.16778352098E+03  0.15782740345E+03  0.23171825661E+03  0.00000000000E+00 0.  1.
<mgrwt>
<rscale>  4 0.22016416E+03</rscale>
<asrwt>0</asrwt>
<pdfrwt beam="1">  1       21 0.84334462E-01 0.22016416E+03</pdfrwt>
<pdfrwt beam="2">  1       21 0.15745091E-01 0.22016416E+03</pdfrwt>
<totfact> 0.43203315E+04</totfact>
</mgrwt>
</event>
<event>
 5    0  0.1856407E+000  0.2910158E+03  0.7546771E-02  0.1089820E+00
         21   -1    0    0  502  501  0.00000000000E+00  0.00000000000E+00  0.11307967485E+03  0.11307967485E+03  0.00000000000E+00 0.  1.
         21   -1    0    0  503  502 -0.00000000000E+00 -0.00000000000E+00 -0.18788702981E+04  0.18788702981E+04  0.00000000000E+00 0.  1.
         25    1    1    2    0    0  0.26023451273E+03 -0.36649717489E+02 -0.10513220119E+03  0.30942363054E+03  0.12500000000E+03 0.  0.
         21    1    1    2  503  504 -0.99741077640E+02  0.29100365586E+02 -0.49006881376E+03  0.50096163134E+03  0.00000000000E+00 0.  1.
         21    1    1    2  504  501 -0.16049343509E+03  0.75493519031E+01 -0.11705896083E+04  0.11815647111E+04  0.00000000000E+00 0.  1.
<mgrwt>
<rscale>  4 0.29101581E+03</rscale>
<asrwt>0</asrwt>
<pdfrwt beam="1">  1       21 0.17396874E-01 0.29101581E+03</pdfrwt>
<pdfrwt beam="2">  1       21 0.28905695E+00 0.29101581E+03</pdfrwt>
<totfact> 0.10627645E+03</totfact>
</mgrwt>
</event>
<event>
 5    0  0.1856407E+000  0.2440492E+03  0.7546771E-02  0.1117124E+00
         21   -1    0    0  502  501  0.00000000000E+00  0.00000000000E+00  0.10267905559E+03  0.10267905559E+03  0.00000000000E+00 0.  1.
         21   -1    0    0  503  502 -0.00000000000E+00 -0.00000000000E+00 -0.80883948019E+03  0.80883948019E+03  0.00000000000E+00 0. -1.
         25    1    1    2    0    0  0.20735913931E+03 -0.30613979467E+02 -0.98212770227E+02  0.26306990826E+03  0.12500000000E+03 0.  0.
         21    1    1    2  503  504 -0.96183678149E+02  0.47216670523E+02 -0.37146544214E+03  0.38660999550E+03  0.00000000000E+00 0. -1.
         21    1    1    2  504  501 -0.11117546116E+03 -0.16602691056E+02 -0.23648221224E+03  0.26183863202E+03  0.00000000000E+00 0. -1.
<mgrwt>
<rscale>  4 0.24404923E+03</rscale>
<asrwt>0</asrwt>
<pdfrwt beam="1">  1       21 0.15796779E-01 0.24404923E+03</pdfrwt>
<pdfrwt beam="2">  1       21 0.12443684E+00 0.24404923E+03</pdfrwt>
<totfact> 0.16688169E+04</totfact>
</mgrwt>
</event>
<event>
 5    0  0.1856407E+000  0.4564156E+03  0.7546771E-02  0.1025826E+00
         21   -1    0    0  502  501  0.00000000000E+00  0.00000000000E+00  0.68920464164E+03  0.68920464164E+03  0.00000000000E+00 0.  1.
         21   -1    0    0  503  502 -0.00000000000E+00 -0.00000000000E+00 -0.56728953932E+03  0.56728953932E+03  0.00000000000E+00 0. -1.
         25    1    1    2    0    0 -0.13667414944E+03  0.41714551687E+03  0.49667334408E+03  0.67453659359E+03  0.12500000000E+03 0.  0.
         21    1    1    2  503  504  0.14988395224E+01 -0.66006252418E+02 -0.33698284720E+02  0.74125881251E+02  0.00000000000E+00 0. -1.
         21    1    1    2  504  501  0.13517530991E+03 -0.35113926445E+03 -0.34105995704E+03  0.50783170612E+03  0.00000000000E+00 0. -1.
<mgrwt>
<rscale>  4 0.45641561E+03</rscale>
<asrwt>0</asrwt>
<pdfrwt beam="1">  1       21 0.10603148E+00 0.45641561E+03</pdfrwt>
<pdfrwt beam="2">  1       21 0.87275314E-01 0.45641561E+03</pdfrwt>
<totfact> 0.67633012E+02</totfact>
</mgrwt>
</event>
<event>
 5    0  0.1856407E+000  0.2668292E+03  0.7546771E-02  0.1103108E+00
         21   -1    0    0  502  501  0.00000000000E+00  0.00000000000E+00  0.40335081841E+02  0.40335081841E+02  0.00000000000E+00 0.  1.
         21   -1    0    0  503  502 -0.00000000000E+00 -0.00000000000E+00 -0.22319836137E+04  0.22319836137E+04  0.00000000000E+00 0. -1.
         25    1    1    2    0    0  0.20073084285E+03 -0.12361216366E+03 -0.53011999581E+03  0.59348550803E+03  0.12500000000E+03 0.  0.
         21    1    1    2  503  504 -0.32182407080E+02  0.34571825629E+02 -0.43883664836E+03  0.44137118438E+03  0.00000000000E+00 0. -1.
         21    1    1    2  504  501 -0.16854843577E+03  0.89040338031E+02 -0.12226918877E+04  0.12374620031E+04  0.00000000000E+00 0. -1.
<mgrwt>
<rscale>  4 0.26682923E+03</rscale>
<asrwt>0</asrwt>
<pdfrwt beam="1">  1       21 0.62053939E-02 0.26682923E+03</pdfrwt>
<pdfrwt beam="2">  1       21 0.34338228E+00 0.26682923E+03</pdfrwt>
<totfact> 0.32799863E+03</totfact>
</mgrwt>
</event>
<event>
 5    0  0.1856407E+000  0.2596795E+03  0.7546771E-02  0.1107336E+00
         21   -1    0    0  502  501  0.00000000000E+00  0.00000000000E+00  0.82042607811E+02  0.82042607811E+02  0.00000000000E+00 0. -1.
         21   -1    0    0  503  502 -0.00000000000E+00 -0.00000000000E+00 -0.75397242116E+03  0.75397242116E+03  0.00000000000E+00 0.  1.
         25    1    1    2    0    0 -0.21589634310E+03  0.72091711528E+02 -0.33478260012E+03  0.42368955047E+03  0.12500000000E+03 0.  0.
         21    1    1    2  503  504  0.60555023959E+02  0.96892185989E+01 -0.76010662855E+02  0.97664797913E+02  0.00000000000E+00 0.  1.
         21    1    1    2  504  501  0.15534131914E+03 -0.81780930127E+02 -0.26113655037E+03  0.31466068059E+03  0.00000000000E+00 0.  1.
<mgrwt>
<rscale>  4 0.25967951E+03</rscale>
<asrwt>0</asrwt>
<pdfrwt beam="1">  1       21 0.12621940E-01 0.25967951E+03</pdfrwt>
<pdfrwt beam="2">  1       21 0.11599576E+00 0.25967951E+03</pdfrwt>
<totfact> 0.29708783E+04</totfact>
</mgrwt>
</event>
