<event>
 5    0  0.1860555E+000  0.2246946E+03  0.7546771E-02  0.1130431E+00
         21   -1    0    0  502  501  0.00000000000E+00  0.00000000000E+00  0.15040178172E+03  0.15040178172E+03  0.00000000000E+00 0. -1.
         21   -1    0    0  503  502 -0.00000000000E+00 -0.00000000000E+00 -0.41420316717E+03  0.41420316717E+03  0.00000000000E+00 0. -1.
         25    1    1    2    0    0 -0.10763142498E+03  0.17421340182E+03 -0.47497612131E+02  0.24457280342E+03  0.12500000000E+03 0.  0.
         21    1    1    2  503  504 -0.42196156038E+01 -0.31744905072E+02  0.67196863295E+01  0.32721527138E+02  0.00000000000E+00 0. -1.
         21    1    1    2  504  501  0.11185104059E+03 -0.14246849674E+03 -0.22302345965E+03  0.28731061832E+03  0.00000000000E+00 0. -1.
<mgrwt>
<rscale>  4 0.22469460E+03</rscale>
<asrwt>0</asrwt>
<pdfrwt beam="1">  1       21 0.23138736E-01 0.22469460E+03</pdfrwt>
<pdfrwt beam="2">  1       21 0.63723564E-01 0.22469460E+03</pdfrwt>
<totfact> 0.39292667E+04</totfact>
</mgrwt>
</event>
<event>
 5    0  0.1856407E+000  0.4083053E+03  0.7546771E-02  0.1040941E+00
         21   -1    0    0  502  501  0.00000000000E+00  0.00000000000E+00  0.24978971196E+03  0.24978971196E+03  0.00000000000E+00 0. -1.
         21   -1    0    0  503  502 -0.00000000000E+00 -0.00000000000E+00 -0.13602322641E+04  0.13602322641E+04  0.00000000000E+00 0. -1.
         25    1    1    2    0    0 -0.25189776299E+03  0.29603331874E+03  0.20895006002E+02  0.40883958967E+03  0.12500000000E+03 0.  0.
         21    1    1    2  503  504  0.15702782262E+03 -0.15996648349E+03 -0.79753368815E+03  0.82843647714E+03  0.00000000000E+00 0. -1.
         21    1    1    2  504  501  0.94869940370E+02 -0.13606683526E+03 -0.33380386996E+03  0.37274590922E+03  0.00000000000E+00 0. -1.
<mgrwt>
<rscale>  4 0.40830529E+03</rscale>
<asrwt>0</asrwt>
<pdfrwt beam="1">  1       21 0.38429187E-01 0.40830529E+03</pdfrwt>
<pdfrwt beam="2">  1       21 0.20926650E+00 0.40830529E+03</pdfrwt>
<totfact> 0.64527407E+02</totfact>
</mgrwt>
</event>
<event>
 5    0  0.1856407E+000  0.2304782E+03  0.7546771E-02  0.1126304E+00
         21   -1    0    0  502  501  0.00000000000E+00  0.00000000000E+00  0.29288329948E+04  0.29288329948E+04  0.00000000000E+00 0.  1.
         21   -1    0    0  503  502 -0.00000000000E+00 -0.00000000000E+00 -0.22403187359E+02  0.22403187359E+02  0.00000000000E+00 0.  1.
         25    1    1    2    0    0 -0.61776386283E+02  0.19293937334E+03  0.87601808322E+03  0.90778555057E+03  0.12500000000E+03 0.  0.
         21    1    1    2  503  504  0.26265214443E+02 -0.17945969281E+03  0.13708664385E+04  0.13828125090E+04  0.00000000000E+00 0.  1.
         21    1    1    2  504  501  0.35511171840E+02 -0.13479680530E+02  0.65954528571E+03  0.66063812259E+03  0.00000000000E+00 0.  1.
<mgrwt>
<rscale>  4 0.23047820E+03</rscale>
<asrwt>0</asrwt>
<pdfrwt beam="1">  1       21 0.45058939E+00 0.23047820E+03</pdfrwt>
<pdfrwt beam="2">  1       21 0.34466465E-02 0.23047820E+03</pdfrwt>
<totfact> 0.19653887E+03</totfact>
</mgrwt>
</event>
<event>
 5    0  0.1856407E+000  0.2423102E+03  0.7546771E-02  0.1118263E+00
         21   -1    0    0  502  501  0.00000000000E+00  0.00000000000E+00  0.12546796681E+03  0.12546796681E+03  0.00000000000E+00 0. -1.
         21   -1    0    0  503  502 -0.00000000000E+00 -0.00000000000E+00 -0.50194776746E+03  0.50194776746E+03  0.00000000000E+00 0. -1.
         25    1    1    2    0    0 -0.19295738659E+03  0.76528960736E+02 -0.82880364242E+02  0.25609254118E+03  0.12500000000E+03 0.  0.
         21    1    1    2  503  504  0.35062657195E+02 -0.50456657223E+02 -0.12250564592E+03  0.13705071131E+03  0.00000000000E+00 0. -1.
         21    1    1    2  504  501  0.15789472939E+03 -0.26072303513E+02 -0.17109379049E+03  0.23427248179E+03  0.00000000000E+00 0. -1.
<mgrwt>
<rscale>  4 0.24231020E+03</rscale>
<asrwt>0</asrwt>
<pdfrwt beam="1">  1       21 0.19302764E-01 0.24231020E+03</pdfrwt>
<pdfrwt beam="2">  1       21 0.77222734E-01 0.24231020E+03</pdfrwt>
<totfact> 0.35833134E+04</totfact>
</mgrwt>
</event>
<event>
 5    0  0.1968084E+000  0.2893641E+03  0.7546771E-02  0.1090682E+00
         21   -1    0    0  502  501  0.00000000000E+00  0.00000000000E+00  0.88756553854E+03  0.88756553854E+03  0.00000000000E+00 0.  1.
         21   -1    0    0  503  502 -0.00000000000E+00 -0.00000000000E+00 -0.93159213327E+02  0.93159213327E+02  0.00000000000E+00 0.  1.
         25    1    1    2    0    0 -0.20111200145E+03  0.16631453018E+03  0.35933846591E+03  0.46136286495E+03  0.12500000000E+03 0.  0.
         21    1    1    2  503  504  0.53252206452E+02 -0.31390884337E+02  0.32646766651E+02  0.69907056040E+02  0.00000000000E+00 0.  1.
         21    1    1    2  504  501  0.14785979499E+03 -0.13492364585E+03  0.40242109265E+03  0.44945483087E+03  0.00000000000E+00 0.  1.
<mgrwt>
<rscale>  4 0.28936406E+03</rscale>
<asrwt>0</asrwt>
<pdfrwt beam="1">  1       21 0.13654854E+00 0.28936406E+03</pdfrwt>
<pdfrwt beam="2">  1       21 0.14332187E-01 0.28936406E+03</pdfrwt>
<totfact> 0.15381397E+04</totfact>
</mgrwt>
</event>
<event>
 5    0  0.1856407E+000  0.2437400E+03  0.7546771E-02  0.1117326E+00
         21   -1    0    0  502  501  0.00000000000E+00  0.00000000000E+00  0.35487903550E+02  0.35487903550E+02  0.00000000000E+00 0.  1.
         21   -1    0    0  503  502 -0.00000000000E+00 -0.00000000000E+00 -0.19151716731E+04  0.19151716731E+04  0.00000000000E+00 0.  1.
         25    1    1    2    0    0 -0.12471258712E+03 -0.16802075727E+03 -0.52801599700E+03  0.58155833529E+03  0.12500000000E+03 0.  0.
         21    1    1    2  503  504  0.92021556964E+02  0.10911213592E+03 -0.73236531812E+03  0.74614501562E+03  0.00000000000E+00 0.  1.
         21    1    1    2  504  501  0.32691030158E+02  0.58908621347E+02 -0.61930245443E+03  0.62295622573E+03  0.00000000000E+00 0.  1.
<mgrwt>
<rscale>  4 0.24374003E+03</rscale>
<asrwt>0</asrwt>
<pdfrwt beam="1">  1       21 0.54596779E-02 0.24374003E+03</pdfrwt>
<pdfrwt beam="2">  1       21 0.29464177E+00 0.24374003E+03</pdfrwt>
<totfact> 0.80753884E+03</totfact>
</mgrwt>
</event>
<event>
 5    0  0.1856407E+000  0.3614670E+03  0.7546771E-02  0.1058005E+00
         21   -1    0    0  502  501  0.00000000000E+00  0.00000000000E+00  0.78316268471E+02  0.78316268471E+02  0.00000000000E+00 0.  1.
         21   -1    0    0  503  502 -0.00000000000E+00 -0.00000000000E+00 -0.16542936451E+04  0.16542936451E+04  0.00000000000E+00 0.  1.
         25    1    1    2    0    0  0.30608333459E+03 -0.14610393359E+03 -0.68659646472E+03  0.77593367789E+03  0.12500000000E+03 0.  0.
         21    1    1    2  503  504 -0.73307695359E+02  0.75478372898E+02 -0.20645940528E+03  0.23172502886E+03  0.00000000000E+00 0.  1.
         21    1    1    2  504  501 -0.23277563923E+03  0.70625560694E+02 -0.68292150667E+03  0.72495120685E+03  0.00000000000E+00 0.  1.
<mgrwt>
<rscale>  4 0.36146697E+03</rscale>
<asrwt>0</asrwt>
<pdfrwt beam="1">  1       21 0.12048657E-01 0.36146697E+03</pdfrwt>
<pdfrwt beam="2">  1       21 0.25450670E+00 0.36146697E+03</pdfrwt>
<totfact> 0.31917006E+03</totfact>
</mgrwt>
</event>
<event>
 5    0  0.1856407E+000  0.2812171E+03  0.7546771E-02  0.1095026E+00
         21   -1    0    0  502  501  0.00000000000E+00  0.00000000000E+00  0.80301783032E+02  0.80301783032E+02  0.00000000000E+00 0.  1.
         21   -1    0    0  503  502 -0.00000000000E+00 -0.00000000000E+00 -0.10524110931E+04  0.10524110931E+04  0.00000000000E+00 0.  1.
         25    1    1    2    0    0  0.16307709199E+03  0.19199980600E+03 -0.32621405544E+03  0.43069556929E+03  0.12500000000E+03 0.  0.
         21    1    1    2  503  504 -0.10080022400E+03 -0.44133222026E+02 -0.20218901189E+03  0.23019301244E+03  0.00000000000E+00 0.  1.
         21    1    1    2  504  501 -0.62276867991E+02 -0.14786658398E+03 -0.44370624270E+03  0.47182429436E+03  0.00000000000E+00 0.  1.
<mgrwt>
<rscale>  4 0.28121711E+03</rscale>
<asrwt>0</asrwt>
<pdfrwt beam="1">  1       21 0.12354121E-01 0.28121711E+03</pdfrwt>
<pdfrwt beam="2">  1       21 0.16190940E+00 0.28121711E+03</pdfrwt>
<totfact> 0.12839528E+04</totfact>
</mgrwt>
</event>
<event>
 5    0  0.3066655E+000  0.3157229E+03  0.7546771E-02  0.1077635E+00
         21   -1    0    0  502  501  0.00000000000E+00  0.00000000000E+00  0.11731433425E+04  0.11731433425E+04  0.00000000000E+00 0.  1.
         21   -1    0    0  503  502 -0.00000000000E+00 -0.00000000000E+00 -0.88312082852E+02  0.88312082852E+02  0.00000000000E+00 0.  1.
         25    1    1    2    0    0 -0.27667490763E+03 -0.86642804155E+02  0.70397335897E+03  0.77153060222E+03  0.12500000000E+03 0.  0.
         21    1    1    2  503  504  0.16208966813E+02  0.40209463905E+02  0.46951393586E+02  0.63905907022E+02  0.00000000000E+00 0.  1.
         21    1    1    2  504  501  0.26046594082E+03  0.46433340250E+02  0.33390650713E+03  0.42601891615E+03  0.00000000000E+00 0.  1.
<mgrwt>
<rscale>  4 0.31572295E+03</rscale>
<asrwt>0</asrwt>
<pdfrwt beam="1">  1       21 0.18048358E+00 0.31572295E+03</pdfrwt>
<pdfrwt beam="2">  1       21 0.13586475E-01 0.31572295E+03</pdfrwt>
<totfact> 0.78179952E+03</totfact>
</mgrwt>
</event>
<event>
 5    0  0.1856407E+000  0.2613622E+03  0.7546771E-02  0.1106328E+00
         21   -1    0    0  502  501  0.00000000000E+00  0.00000000000E+00  0.63003294382E+03  0.63003294382E+03  0.00000000000E+00 0.  1.
         21   -1    0    0  503  502 -0.00000000000E+00 -0.00000000000E+00 -0.63110445032E+03  0.63110445032E+03  0.00000000000E+00 0.  1.
         25    1    1    2    0    0 -0.22567145434E+03 -0.73975140169E+02  0.56900728648E+03  0.62912178370E+03  0.12500000000E+03 0.  0.
         21    1    1    2  503  504  0.93989786558E+02  0.83839331570E+02 -0.17616618689E+03  0.21655862693E+03  0.00000000000E+00 0. -1.
         21    1    1    2  504  501  0.13168166779E+03 -0.98641914010E+01 -0.39391260609E+03  0.41545698350E+03  0.00000000000E+00 0.  1.
<mgrwt>
<rscale>  4 0.26136222E+03</rscale>
<asrwt>0</asrwt>
<pdfrwt beam="1">  1       21 0.96928146E-01 0.26136222E+03</pdfrwt>
<pdfrwt beam="2">  1       21 0.97092992E-01 0.26136222E+03</pdfrwt>
<totfact> 0.73041671E+02</totfact>
</mgrwt>
</event>
<event>
 5    0  0.2486612E+000  0.2735712E+03  0.7546771E-02  0.1099253E+00
         21   -1    0    0  502  501  0.00000000000E+00  0.00000000000E+00  0.13906091907E+04  0.13906091907E+04  0.00000000000E+00 0. -1.
         21   -1    0    0  503  502 -0.00000000000E+00 -0.00000000000E+00 -0.63593564692E+02  0.63593564692E+02  0.00000000000E+00 0. -1.
         25    1    1    2    0    0 -0.15732562994E+03  0.20850416154E+03  0.72303010148E+03  0.77885997898E+03  0.12500000000E+03 0.  0.
         21    1    1    2  503  504  0.11480283340E+03 -0.19951309050E+03  0.58356377048E+03  0.62732116022E+03  0.00000000000E+00 0. -1.
         21    1    1    2  504  501  0.42522796536E+02 -0.89910710378E+01  0.20421754052E+02  0.48021616197E+02  0.00000000000E+00 0. -1.
<mgrwt>
<rscale>  4 0.27357118E+03</rscale>
<asrwt>0</asrwt>
<pdfrwt beam="1">  1       21 0.21393985E+00 0.27357118E+03</pdfrwt>
<pdfrwt beam="2">  1       21 0.97836264E-02 0.27357118E+03</pdfrwt>
<totfact> 0.86983287E+03</totfact>
</mgrwt>
</event>
