<event>
 5    0  0.1911311E+001  0.2272689E+03  0.7546771E-02  0.1128577E+00
         21   -1    0    0  504  501  0.00000000000E+00  0.00000000000E+00  0.66231361658E+03  0.66231361658E+03  0.00000000000E+00 0. -1.
         21   -1    0    0  503  502 -0.00000000000E+00 -0.00000000000E+00 -0.52771407242E+03  0.52771407242E+03  0.00000000000E+00 0. -1.
         25    1    1    2    0    0  0.26235066043E+02 -0.22793647924E+03  0.28383274559E+03  0.38578406490E+03  0.12500000000E+03 0.  0.
         21    1    1    2  503  501 -0.16865974540E+03  0.88948776398E+02 -0.42404576923E+03  0.46494387720E+03  0.00000000000E+00 0. -1.
         21    1    1    2  504  502  0.14242467936E+03  0.13898770284E+03  0.27481256780E+03  0.33929974691E+03  0.00000000000E+00 0. -1.
<mgrwt>
<rscale>  4 0.22726894E+03</rscale>
<asrwt>0</asrwt>
<pdfrwt beam="1">  1       21 0.10189440E+00 0.22726894E+03</pdfrwt>
<pdfrwt beam="2">  1       21 0.81186781E-01 0.22726894E+03</pdfrwt>
<totfact> 0.10106256E+03</totfact>
</mgrwt>
</event>
<event>
 5    0  0.1911311E+001  0.4630303E+03  0.7546771E-02  0.1023906E+00
         21   -1    0    0  502  501  0.00000000000E+00  0.00000000000E+00  0.28937721256E+03  0.28937721256E+03  0.00000000000E+00 0.  1.
         21   -1    0    0  504  502 -0.00000000000E+00 -0.00000000000E+00 -0.99326808741E+03  0.99326808741E+03  0.00000000000E+00 0.  1.
         25    1    1    2    0    0 -0.17544539756E+03 -0.38343349100E+03 -0.44583620130E+03  0.62625653524E+03  0.12500000000E+03 0.  0.
         21    1    1    2  503  501  0.19522894903E+03  0.41410293478E+03 -0.67972537293E+02  0.46283458055E+03  0.00000000000E+00 0.  1.
         21    1    1    2  504  503 -0.19783551471E+02 -0.30669443780E+02 -0.19008213625E+03  0.19355418418E+03  0.00000000000E+00 0. -1.
<mgrwt>
<rscale>  4 0.46303033E+03</rscale>
<asrwt>0</asrwt>
<pdfrwt beam="1">  1       21 0.44519571E-01 0.46303033E+03</pdfrwt>
<pdfrwt beam="2">  1       21 0.15281047E+00 0.46303033E+03</pdfrwt>
<totfact> 0.11611084E+03</totfact>
</mgrwt>
</event>
<event>
 5    0  0.1911311E+001  0.2313160E+03  0.7546771E-02  0.1125717E+00
         21   -1    0    0  502  501  0.00000000000E+00  0.00000000000E+00  0.33079317096E+03  0.33079317096E+03  0.00000000000E+00 0.  1.
         21   -1    0    0  504  502 -0.00000000000E+00 -0.00000000000E+00 -0.44386930046E+03  0.44386930046E+03  0.00000000000E+00 0.  1.
         25    1    1    2    0    0  0.10727351771E+03 -0.27863215062E+03 -0.50649657948E+02  0.32761848362E+03  0.12500000000E+03 0.  0.
         21    1    1    2  503  501 -0.68416401248E+02  0.11208780033E+03  0.13330716934E+03  0.18712370331E+03  0.00000000000E+00 0.  1.
         21    1    1    2  504  503 -0.38857116458E+02  0.16654435029E+03 -0.19573364089E+03  0.25992028449E+03  0.00000000000E+00 0.  1.
<mgrwt>
<rscale>  4 0.23131602E+03</rscale>
<asrwt>0</asrwt>
<pdfrwt beam="1">  1       21 0.50891257E-01 0.23131602E+03</pdfrwt>
<pdfrwt beam="2">  1       21 0.68287585E-01 0.23131602E+03</pdfrwt>
<totfact> 0.69954496E+03</totfact>
</mgrwt>
</event>
<event>
 5    0  0.1911311E+001  0.2417538E+03  0.7546771E-02  0.1118630E+00
         21   -1    0    0  504  501  0.00000000000E+00  0.00000000000E+00  0.10925652543E+04  0.10925652543E+04  0.00000000000E+00 0.  1.
         21   -1    0    0  503  502 -0.00000000000E+00 -0.00000000000E+00 -0.10609566790E+03  0.10609566790E+03  0.00000000000E+00 0.  1.
         25    1    1    2    0    0 -0.54415684775E+02  0.27017655733E+03  0.50759647457E+03  0.59096160609E+03  0.12500000000E+03 0.  0.
         21    1    1    2  503  501  0.14486835759E+03 -0.12882324124E+03  0.17797688846E+03  0.26316922567E+03  0.00000000000E+00 0.  1.
         21    1    1    2  504  502 -0.90452672814E+02 -0.14135331609E+03  0.30089622339E+03  0.34453009047E+03  0.00000000000E+00 0.  1.
<mgrwt>
<rscale>  4 0.24175384E+03</rscale>
<asrwt>0</asrwt>
<pdfrwt beam="1">  1       21 0.16808695E+00 0.24175384E+03</pdfrwt>
<pdfrwt beam="2">  1       21 0.16322411E-01 0.24175384E+03</pdfrwt>
<totfact> 0.71295697E+03</totfact>
</mgrwt>
</event>
