<event>
 5    0  0.2396052E+000  0.5464326E+03  0.7546771E-02  0.1002323E+00
         21   -1    0    0  501  502  0.00000000000E+00  0.00000000000E+00  0.76660867788E+03  0.76660867788E+03  0.00000000000E+00 0. -1.
          2   -1    0    0  503    0 -0.00000000000E+00 -0.00000000000E+00 -0.45640923104E+03  0.45640923104E+03  0.00000000000E+00 0. -1.
         25    1    1    2    0    0  0.44571124172E+02 -0.26417795248E+03  0.26036665073E+03  0.39394462618E+03  0.12500000000E+03 0.  0.
         21    1    1    2  503  502 -0.50830245104E+02  0.22645127898E+03  0.40772055910E+03  0.46914811081E+03  0.00000000000E+00 0. -1.
          2    1    1    2  501    0  0.62591209317E+01  0.37726673500E+02 -0.35788776299E+03  0.35992517192E+03  0.00000000000E+00 0. -1.
<mgrwt>
<rscale>  4 0.54643257E+03</rscale>
<asrwt>0</asrwt>
<pdfrwt beam="1">  1       21 0.11793980E+00 0.54643257E+03</pdfrwt>
<pdfrwt beam="2">  1        2 0.70216805E-01 0.54643257E+03</pdfrwt>
<totfact> 0.41615421E+02</totfact>
</mgrwt>
</event>
<event>
 5    0  0.2396052E+000  0.4577158E+03  0.7546771E-02  0.1025446E+00
         21   -1    0    0  501  502  0.00000000000E+00  0.00000000000E+00  0.87695461764E+02  0.87695461764E+02  0.00000000000E+00 0. -1.
          1   -1    0    0  503    0 -0.00000000000E+00 -0.00000000000E+00 -0.87964004391E+03  0.87964004391E+03  0.00000000000E+00 0. -1.
         25    1    1    2    0    0 -0.73978840312E+02 -0.19226554865E+03 -0.43753607270E+03  0.49950147640E+03  0.12500000000E+03 0.  0.
         21    1    1    2  503  502 -0.61938917236E+01  0.18930607685E+03 -0.13056752124E+03  0.23005006548E+03  0.00000000000E+00 0. -1.
          1    1    1    2  501    0  0.80172732036E+02  0.29594717993E+01 -0.22384098821E+03  0.23778396380E+03  0.00000000000E+00 0. -1.
<mgrwt>
<rscale>  4 0.45771581E+03</rscale>
<asrwt>0</asrwt>
<pdfrwt beam="1">  1       21 0.13491609E-01 0.45771581E+03</pdfrwt>
<pdfrwt beam="2">  1        1 0.13532924E+00 0.45771581E+03</pdfrwt>
<totfact> 0.10044047E+04</totfact>
</mgrwt>
</event>
<event>
 5    0  0.2396052E+000  0.3813687E+03  0.7546771E-02  0.1050429E+00
         -3   -1    0    0    0  501 -0.00000000000E+00  0.00000000000E+00  0.13175797596E+04  0.13175797596E+04  0.00000000000E+00 0.  1.
         21   -1    0    0  501  502  0.00000000000E+00 -0.00000000000E+00 -0.31816204373E+03  0.31816204373E+03  0.00000000000E+00 0. -1.
         25    1    1    2    0    0 -0.72242505503E+02 -0.28793763061E+03 -0.15234485205E+03  0.35631588888E+03  0.12500000000E+03 0.  0.
         21    1    1    2  503  502 -0.42931706571E+02  0.40814964158E+02 -0.30154186697E+02  0.66470051178E+02  0.00000000000E+00 0.  1.
         -3    1    1    2    0  503  0.11517421207E+03  0.24712266645E+03  0.11819167546E+04  0.12129558632E+04  0.00000000000E+00 0.  1.
<mgrwt>
<rscale>  4 0.38136866E+03</rscale>
<asrwt>0</asrwt>
<pdfrwt beam="1">  1       21 0.48948008E-01 0.38136866E+03</pdfrwt>
<pdfrwt beam="2">  1       -3 0.20270457E+00 0.38136866E+03</pdfrwt>
<totfact> 0.28255494E+01</totfact>
</mgrwt>
</event>
<event>
 5    0  0.2396052E+000  0.3208416E+03  0.7546771E-02  0.1075263E+00
         21   -1    0    0  501  502  0.00000000000E+00  0.00000000000E+00  0.68748501277E+03  0.68748501277E+03  0.00000000000E+00 0. -1.
          1   -1    0    0  503    0 -0.00000000000E+00 -0.00000000000E+00 -0.32308537347E+03  0.32308537347E+03  0.00000000000E+00 0.  1.
         25    1    1    2    0    0 -0.48552729778E+00  0.20732917983E+03  0.44105514408E+03  0.50313046485E+03  0.12500000000E+03 0.  0.
         21    1    1    2  503  502 -0.47737388502E+02 -0.60105451373E+02  0.18671945711E+03  0.20188035865E+03  0.00000000000E+00 0.  1.
          1    1    1    2  501    0  0.48222915800E+02 -0.14722372846E+03 -0.26337496188E+03  0.30555956273E+03  0.00000000000E+00 0.  1.
<mgrwt>
<rscale>  4 0.32084157E+03</rscale>
<asrwt>0</asrwt>
<pdfrwt beam="1">  1       21 0.10576692E+00 0.32084157E+03</pdfrwt>
<pdfrwt beam="2">  1        1 0.49705442E-01 0.32084157E+03</pdfrwt>
<totfact> 0.59086036E+02</totfact>
</mgrwt>
</event>
<event>
 5    0  0.2396052E+000  0.6016242E+03  0.7546771E-02  0.9902042E-01
          2   -1    0    0  503    0 -0.00000000000E+00  0.00000000000E+00  0.13573603959E+04  0.13573603959E+04  0.00000000000E+00 0. -1.
         21   -1    0    0  501  502  0.00000000000E+00 -0.00000000000E+00 -0.43537355200E+03  0.43537355200E+03  0.00000000000E+00 0.  1.
         25    1    1    2    0    0 -0.17897963542E+03  0.38233812988E+03 -0.22655893364E+03  0.49514654989E+03  0.12500000000E+03 0.  0.
         21    1    1    2  503  502 -0.50708241455E+02 -0.11847397610E+03  0.39669143282E+02  0.13483712283E+03  0.00000000000E+00 0. -1.
          2    1    1    2  501    0  0.22968787688E+03 -0.26386415378E+03  0.11088766343E+04  0.11627502752E+04  0.00000000000E+00 0. -1.
<mgrwt>
<rscale>  4 0.60162416E+03</rscale>
<asrwt>0</asrwt>
<pdfrwt beam="1">  1       21 0.66980547E-01 0.60162416E+03</pdfrwt>
<pdfrwt beam="2">  1        2 0.20882468E+00 0.60162416E+03</pdfrwt>
<totfact> 0.36234178E+02</totfact>
</mgrwt>
</event>
<event>
 5    0  0.2396052E+000  0.5438467E+03  0.7546771E-02  0.1002928E+00
         21   -1    0    0  501  502  0.00000000000E+00  0.00000000000E+00  0.16123425782E+04  0.16123425782E+04  0.00000000000E+00 0.  1.
          4   -1    0    0  503    0 -0.00000000000E+00 -0.00000000000E+00 -0.10525334196E+04  0.10525334196E+04  0.00000000000E+00 0. -1.
         25    1    1    2    0    0  0.40427488776E+03 -0.16227357277E+03  0.13740994333E+04  0.14469088257E+04  0.12500000000E+03 0.  0.
         21    1    1    2  503  502 -0.46398410121E+02 -0.67858074270E+02  0.14604781430E+03  0.16759324201E+03  0.00000000000E+00 0. -1.
          4    1    1    2  501    0 -0.35787647763E+03  0.23013164704E+03 -0.96033808893E+03  0.10503739302E+04  0.00000000000E+00 0. -1.
<mgrwt>
<rscale>  4 0.54384674E+03</rscale>
<asrwt>0</asrwt>
<pdfrwt beam="1">  1       21 0.24805270E+00 0.54384674E+03</pdfrwt>
<pdfrwt beam="2">  1        4 0.16192822E+00 0.54384674E+03</pdfrwt>
<totfact> 0.59672209E-01</totfact>
</mgrwt>
</event>
<event>
 5    0  0.2396052E+000  0.5366206E+03  0.7546771E-02  0.1004639E+00
         21   -1    0    0  501  502  0.00000000000E+00  0.00000000000E+00  0.48648309801E+03  0.48648309801E+03  0.00000000000E+00 0. -1.
         -2   -1    0    0    0  501 -0.00000000000E+00 -0.00000000000E+00 -0.44157021570E+03  0.44157021570E+03  0.00000000000E+00 0.  1.
         25    1    1    2    0    0  0.18671970435E+03  0.11344058415E+03  0.66781666455E+02  0.26041851911E+03  0.12500000000E+03 0.  0.
         21    1    1    2  503  502 -0.22232473399E+03 -0.12998831197E+03  0.27000468543E+03  0.37313238769E+03  0.00000000000E+00 0. -1.
         -2    1    1    2    0  503  0.35605029640E+02  0.16547727827E+02 -0.29187346958E+03  0.29450240691E+03  0.00000000000E+00 0.  1.
<mgrwt>
<rscale>  4 0.53662063E+03</rscale>
<asrwt>0</asrwt>
<pdfrwt beam="1">  1       21 0.74843553E-01 0.53662063E+03</pdfrwt>
<pdfrwt beam="2">  1       -2 0.67933880E-01 0.53662063E+03</pdfrwt>
<totfact> 0.23879477E+02</totfact>
</mgrwt>
</event>
<event>
 5    0  0.2396052E+000  0.4870402E+03  0.7546771E-02  0.1017218E+00
          2   -1    0    0  503    0 -0.00000000000E+00  0.00000000000E+00  0.19621977665E+04  0.19621977665E+04  0.00000000000E+00 0. -1.
         21   -1    0    0  501  502  0.00000000000E+00 -0.00000000000E+00 -0.38505506878E+03  0.38505506878E+03  0.00000000000E+00 0. -1.
         25    1    1    2    0    0  0.34870454509E+02  0.24161078694E+03 -0.32392512458E+03  0.42443398462E+03  0.12500000000E+03 0.  0.
         21    1    1    2  503  502  0.95981909716E+01 -0.46591281274E+02  0.10066561074E+03  0.11133929201E+03  0.00000000000E+00 0.  1.
          2    1    1    2  501    0 -0.44468645481E+02 -0.19501950567E+03  0.18004022115E+04  0.18114795586E+04  0.00000000000E+00 0. -1.
<mgrwt>
<rscale>  4 0.48704024E+03</rscale>
<asrwt>0</asrwt>
<pdfrwt beam="1">  1       21 0.59239242E-01 0.48704024E+03</pdfrwt>
<pdfrwt beam="2">  1        2 0.30187657E+00 0.48704024E+03</pdfrwt>
<totfact> 0.22984898E+02</totfact>
</mgrwt>
</event>
<event>
 5    0  0.2396052E+000  0.8124914E+03  0.7546771E-02  0.9542110E-01
         -2   -1    0    0    0  501 -0.00000000000E+00  0.00000000000E+00  0.98933291404E+03  0.98933291404E+03  0.00000000000E+00 0. -1.
         21   -1    0    0  501  502  0.00000000000E+00 -0.00000000000E+00 -0.46513013741E+03  0.46513013741E+03  0.00000000000E+00 0. -1.
         25    1    1    2    0    0  0.17755639012E+03  0.19827721458E+03  0.22839975812E+03  0.37233261341E+03  0.12500000000E+03 0.  0.
         21    1    1    2  503  502 -0.20411039721E+03 -0.21047567787E+03 -0.33812045393E+03  0.44753380497E+03  0.00000000000E+00 0. -1.
         -2    1    1    2    0  503  0.26554007084E+02  0.12198463293E+02  0.63392347244E+03  0.63459663307E+03  0.00000000000E+00 0. -1.
<mgrwt>
<rscale>  4 0.81249142E+03</rscale>
<asrwt>0</asrwt>
<pdfrwt beam="1">  1       21 0.71558483E-01 0.81249142E+03</pdfrwt>
<pdfrwt beam="2">  1       -2 0.15220506E+00 0.81249142E+03</pdfrwt>
<totfact> 0.36912078E+01</totfact>
</mgrwt>
</event>
<event>
 5    0  0.2396052E+000  0.6466571E+03  0.7546771E-02  0.9813072E-01
          2   -1    0    0  503    0 -0.00000000000E+00  0.00000000000E+00  0.87879011666E+03  0.87879011666E+03  0.00000000000E+00 0.  1.
         21   -1    0    0  501  502  0.00000000000E+00 -0.00000000000E+00 -0.81510557809E+03  0.81510557809E+03  0.00000000000E+00 0. -1.
         25    1    1    2    0    0 -0.78616511381E+02 -0.20713001496E+03 -0.64759471351E+03  0.69576383344E+03  0.12500000000E+03 0.  0.
         21    1    1    2  503  502  0.74022994487E+02  0.23282952178E+03 -0.38993095511E+02  0.24740543935E+03  0.00000000000E+00 0.  1.
          2    1    1    2  501    0  0.45935168934E+01 -0.25699506817E+02  0.75027234759E+03  0.75072642195E+03  0.00000000000E+00 0.  1.
<mgrwt>
<rscale>  4 0.64665714E+03</rscale>
<asrwt>0</asrwt>
<pdfrwt beam="1">  1       21 0.12540086E+00 0.64665714E+03</pdfrwt>
<pdfrwt beam="2">  1        2 0.13519848E+00 0.64665714E+03</pdfrwt>
<totfact> 0.15527285E+02</totfact>
</mgrwt>
</event>
<event>
 5    0  0.2396052E+000  0.4967750E+03  0.7546771E-02  0.1014624E+00
         21   -1    0    0  501  502  0.00000000000E+00  0.00000000000E+00  0.13750420490E+04  0.13750420490E+04  0.00000000000E+00 0. -1.
         -2   -1    0    0    0  501 -0.00000000000E+00 -0.00000000000E+00 -0.18247045124E+03  0.18247045124E+03  0.00000000000E+00 0.  1.
         25    1    1    2    0    0 -0.20416255445E+03  0.13938085176E+03  0.73501754781E+03  0.78548403298E+03  0.12500000000E+03 0.  0.
         21    1    1    2  503  502  0.17545794125E+03 -0.13230219788E+03  0.59351527182E+03  0.63288998933E+03  0.00000000000E+00 0. -1.
         -2    1    1    2    0  503  0.28704613201E+02 -0.70786538811E+01 -0.13596122192E+03  0.13913847787E+03  0.00000000000E+00 0.  1.
<mgrwt>
<rscale>  4 0.49677501E+03</rscale>
<asrwt>0</asrwt>
<pdfrwt beam="1">  1       21 0.21154492E+00 0.49677501E+03</pdfrwt>
<pdfrwt beam="2">  1       -2 0.28072378E-01 0.49677501E+03</pdfrwt>
<totfact> 0.89928165E+01</totfact>
</mgrwt>
</event>
<event>
 5    0  0.2396052E+000  0.5934366E+03  0.7546771E-02  0.9919117E-01
         21   -1    0    0  501  502  0.00000000000E+00  0.00000000000E+00  0.23427634120E+03  0.23427634120E+03  0.00000000000E+00 0.  1.
          2   -1    0    0  503    0 -0.00000000000E+00 -0.00000000000E+00 -0.11694366889E+04  0.11694366889E+04  0.00000000000E+00 0.  1.
         25    1    1    2    0    0 -0.15880908643E+03 -0.14600153538E+03  0.12888761378E+03  0.28066669067E+03  0.12500000000E+03 0.  0.
         21    1    1    2  503  502  0.14233558436E+03  0.12189113359E+03 -0.27111456408E+03  0.32957544490E+03  0.00000000000E+00 0.  1.
          2    1    1    2  501    0  0.16473502067E+02  0.24110401784E+02 -0.79293339736E+03  0.79347089448E+03  0.00000000000E+00 0.  1.
<mgrwt>
<rscale>  4 0.59343657E+03</rscale>
<asrwt>0</asrwt>
<pdfrwt beam="1">  1       21 0.36042514E-01 0.59343657E+03</pdfrwt>
<pdfrwt beam="2">  1        2 0.17991333E+00 0.59343657E+03</pdfrwt>
<totfact> 0.17537238E+03</totfact>
</mgrwt>
</event>
<event>
 5    0  0.2396052E+000  0.4861932E+03  0.7546771E-02  0.1017447E+00
         21   -1    0    0  501  502  0.00000000000E+00  0.00000000000E+00  0.40831434921E+03  0.40831434921E+03  0.00000000000E+00 0.  1.
          2   -1    0    0  503    0 -0.00000000000E+00 -0.00000000000E+00 -0.79443677203E+03  0.79443677203E+03  0.00000000000E+00 0.  1.
         25    1    1    2    0    0  0.35160546460E+03 -0.15165856405E+03  0.21051865024E+03  0.45449953232E+03  0.12500000000E+03 0.  0.
         21    1    1    2  503  502 -0.69171445487E+02  0.31233145741E+02  0.14984855671E+01  0.75910761573E+02  0.00000000000E+00 0. -1.
          2    1    1    2  501    0 -0.28243401911E+03  0.12042541831E+03 -0.59813955863E+03  0.67234082735E+03  0.00000000000E+00 0.  1.
<mgrwt>
<rscale>  4 0.48619319E+03</rscale>
<asrwt>0</asrwt>
<pdfrwt beam="1">  1       21 0.62817593E-01 0.48619319E+03</pdfrwt>
<pdfrwt beam="2">  1        2 0.12222104E+00 0.48619319E+03</pdfrwt>
<totfact> 0.95863418E+02</totfact>
</mgrwt>
</event>
<event>
 5    0  0.2396052E+000  0.4134258E+03  0.7546771E-02  0.1039227E+00
         21   -1    0    0  501  502  0.00000000000E+00  0.00000000000E+00  0.30455912568E+04  0.30455912568E+04  0.00000000000E+00 0. -1.
         -2   -1    0    0    0  501 -0.00000000000E+00 -0.00000000000E+00 -0.27200531145E+03  0.27200531145E+03  0.00000000000E+00 0. -1.
         25    1    1    2    0    0 -0.16837182623E+03  0.14444890068E+03  0.21157471681E+04  0.21310151656E+04  0.12500000000E+03 0.  0.
         21    1    1    2  503  502  0.11001512592E+03 -0.10700887555E+03  0.91113336643E+03  0.92396874341E+03  0.00000000000E+00 0. -1.
         -2    1    1    2    0  503  0.58356700305E+02 -0.37440025131E+02 -0.25329458911E+03  0.26261265930E+03  0.00000000000E+00 0. -1.
<mgrwt>
<rscale>  4 0.41342583E+03</rscale>
<asrwt>0</asrwt>
<pdfrwt beam="1">  1       21 0.46855248E+00 0.41342583E+03</pdfrwt>
<pdfrwt beam="2">  1       -2 0.41846973E-01 0.41342583E+03</pdfrwt>
<totfact> 0.10676235E+00</totfact>
</mgrwt>
</event>
<event>
 5    0  0.2396052E+000  0.6192571E+03  0.7546771E-02  0.9866240E-01
         21   -1    0    0  501  502  0.00000000000E+00  0.00000000000E+00  0.34533862648E+03  0.34533862648E+03  0.00000000000E+00 0. -1.
          2   -1    0    0  503    0 -0.00000000000E+00 -0.00000000000E+00 -0.12827818856E+04  0.12827818856E+04  0.00000000000E+00 0.  1.
         25    1    1    2    0    0  0.25781128828E+03 -0.33936420320E+02  0.22375072619E+03  0.36511330907E+03  0.12500000000E+03 0.  0.
         21    1    1    2  503  502 -0.20229201282E+03 -0.16628700259E+02 -0.15856073111E+03  0.25756567623E+03  0.00000000000E+00 0.  1.
          2    1    1    2  501    0 -0.55519275461E+02  0.50565120579E+02 -0.10026332542E+04  0.10054415268E+04  0.00000000000E+00 0.  1.
<mgrwt>
<rscale>  4 0.61925712E+03</rscale>
<asrwt>0</asrwt>
<pdfrwt beam="1">  1       21 0.53129020E-01 0.61925712E+03</pdfrwt>
<pdfrwt beam="2">  1        2 0.19735106E+00 0.61925712E+03</pdfrwt>
<totfact> 0.66343320E+02</totfact>
</mgrwt>
</event>
<event>
 5    0  0.2396052E+000  0.5373942E+03  0.7546771E-02  0.1004455E+00
          2   -1    0    0  503    0 -0.00000000000E+00  0.00000000000E+00  0.41131609619E+04  0.41131609619E+04  0.00000000000E+00 0.  1.
         21   -1    0    0  501  502  0.00000000000E+00 -0.00000000000E+00 -0.86951570914E+02  0.86951570914E+02  0.00000000000E+00 0.  1.
         25    1    1    2    0    0  0.22312452842E+03 -0.74168462925E+02  0.13608426792E+03  0.29904756152E+03  0.12500000000E+03 0.  0.
         21    1    1    2  503  502  0.26154556759E+02  0.23403068993E+02  0.66301764881E+03  0.66394590676E+03  0.00000000000E+00 0. -1.
          2    1    1    2  501    0 -0.24927908518E+03  0.50765393931E+02  0.32271074743E+04  0.32371190645E+04  0.00000000000E+00 0.  1.
<mgrwt>
<rscale>  4 0.53739422E+03</rscale>
<asrwt>0</asrwt>
<pdfrwt beam="1">  1       21 0.13377168E-01 0.53739422E+03</pdfrwt>
<pdfrwt beam="2">  1        2 0.63279384E+00 0.53739422E+03</pdfrwt>
<totfact> 0.19271429E+02</totfact>
</mgrwt>
</event>
<event>
 5    0  0.2396052E+000  0.4653642E+03  0.7546771E-02  0.1023237E+00
         21   -1    0    0  501  502  0.00000000000E+00  0.00000000000E+00  0.11132384238E+04  0.11132384238E+04  0.00000000000E+00 0.  1.
         -3   -1    0    0    0  501 -0.00000000000E+00 -0.00000000000E+00 -0.16697808047E+03  0.16697808047E+03  0.00000000000E+00 0. -1.
         25    1    1    2    0    0  0.29538718994E+03 -0.77049345232E+02  0.64982606409E+03  0.72875860692E+03  0.12500000000E+03 0.  0.
         21    1    1    2  503  502 -0.12032774384E+03 -0.61073470276E+02  0.29944988828E+03  0.32844934206E+03  0.00000000000E+00 0. -1.
         -3    1    1    2    0  503 -0.17505944610E+03  0.13812281551E+03 -0.30156090439E+01  0.22300855529E+03  0.00000000000E+00 0. -1.
<mgrwt>
<rscale>  4 0.46536417E+03</rscale>
<asrwt>0</asrwt>
<pdfrwt beam="1">  1       21 0.17126745E+00 0.46536417E+03</pdfrwt>
<pdfrwt beam="2">  1       -3 0.25688936E-01 0.46536417E+03</pdfrwt>
<totfact> 0.13522925E+02</totfact>
</mgrwt>
</event>
<event>
 5    0  0.2396052E+000  0.7934844E+03  0.7546771E-02  0.9569496E-01
         21   -1    0    0  501  502  0.00000000000E+00  0.00000000000E+00  0.51664524440E+03  0.51664524440E+03  0.00000000000E+00 0.  1.
          2   -1    0    0  503    0 -0.00000000000E+00 -0.00000000000E+00 -0.51692956558E+03  0.51692956558E+03  0.00000000000E+00 0. -1.
         25    1    1    2    0    0 -0.19911662746E+03 -0.13585467272E+03 -0.19066570405E+03  0.33178657920E+03  0.12500000000E+03 0.  0.
         21    1    1    2  503  502  0.21981530684E+03  0.17727085936E+03  0.39859477681E+03  0.48848902014E+03  0.00000000000E+00 0.  1.
          2    1    1    2  501    0 -0.20698679380E+02 -0.41416186636E+02 -0.20821339394E+03  0.21329921064E+03  0.00000000000E+00 0. -1.
<mgrwt>
<rscale>  4 0.79348444E+03</rscale>
<asrwt>0</asrwt>
<pdfrwt beam="1">  1       21 0.79483884E-01 0.79348444E+03</pdfrwt>
<pdfrwt beam="2">  1        2 0.79527625E-01 0.79348444E+03</pdfrwt>
<totfact> 0.90357867E+02</totfact>
</mgrwt>
</event>
<event>
 5    0  0.2396052E+000  0.4698668E+03  0.7546771E-02  0.1021958E+00
          1   -1    0    0  503    0 -0.00000000000E+00  0.00000000000E+00  0.18893315775E+03  0.18893315775E+03  0.00000000000E+00 0. -1.
         21   -1    0    0  501  502  0.00000000000E+00 -0.00000000000E+00 -0.21711261156E+04  0.21711261156E+04  0.00000000000E+00 0. -1.
         25    1    1    2    0    0  0.26070668420E+02 -0.26376873663E+03 -0.20099343566E+04  0.20311855513E+04  0.12500000000E+03 0.  0.
         21    1    1    2  503  502  0.47850217624E+02  0.57123024725E+00 -0.19070649137E+02  0.51513680602E+02  0.00000000000E+00 0.  1.
          1    1    1    2  501    0 -0.73920886044E+02  0.26319750638E+03  0.46812047849E+02  0.27736004143E+03  0.00000000000E+00 0. -1.
<mgrwt>
<rscale>  4 0.46986677E+03</rscale>
<asrwt>0</asrwt>
<pdfrwt beam="1">  1       21 0.33401941E+00 0.46986677E+03</pdfrwt>
<pdfrwt beam="2">  1        1 0.29066639E-01 0.46986677E+03</pdfrwt>
<totfact> 0.29630516E+01</totfact>
</mgrwt>
</event>
<event>
 5    0  0.2396052E+000  0.5763389E+03  0.7546771E-02  0.9955749E-01
          1   -1    0    0  503    0 -0.00000000000E+00  0.00000000000E+00  0.75454302355E+03  0.75454302355E+03  0.00000000000E+00 0.  1.
         21   -1    0    0  501  502  0.00000000000E+00 -0.00000000000E+00 -0.55632531737E+03  0.55632531737E+03  0.00000000000E+00 0.  1.
         25    1    1    2    0    0 -0.34689180496E+03  0.27890982620E+03  0.34116636298E+03  0.57458167629E+03  0.12500000000E+03 0.  0.
         21    1    1    2  503  502  0.24559895243E+02  0.10759323345E+03  0.12449360404E+03  0.16636751421E+03  0.00000000000E+00 0. -1.
          1    1    1    2  501    0  0.32233190971E+03 -0.38650305966E+03 -0.26744226083E+03  0.56991915043E+03  0.00000000000E+00 0.  1.
<mgrwt>
<rscale>  4 0.57633887E+03</rscale>
<asrwt>0</asrwt>
<pdfrwt beam="1">  1       21 0.85588510E-01 0.57633887E+03</pdfrwt>
<pdfrwt beam="2">  1        1 0.11608354E+00 0.57633887E+03</pdfrwt>
<totfact> 0.28598721E+02</totfact>
</mgrwt>
</event>
<event>
 5    0  0.2396052E+000  0.5296792E+03  0.7546771E-02  0.1006310E+00
         21   -1    0    0  501  502  0.00000000000E+00  0.00000000000E+00  0.74819292022E+03  0.74819292022E+03  0.00000000000E+00 0. -1.
          2   -1    0    0  503    0 -0.00000000000E+00 -0.00000000000E+00 -0.30498671422E+04  0.30498671422E+04  0.00000000000E+00 0.  1.
         25    1    1    2    0    0  0.20380081199E+03  0.68711040136E+02  0.12592635413E+03  0.27881611264E+03  0.12500000000E+03 0.  0.
         21    1    1    2  503  502 -0.17129416441E+03 -0.91972876105E+02  0.52836860529E+03  0.56300451486E+03  0.00000000000E+00 0. -1.
          2    1    1    2  501    0 -0.32506647578E+02  0.23261835969E+02 -0.29559691814E+04  0.29562394349E+04  0.00000000000E+00 0.  1.
<mgrwt>
<rscale>  4 0.52967922E+03</rscale>
<asrwt>0</asrwt>
<pdfrwt beam="1">  1       21 0.11510660E+00 0.52967922E+03</pdfrwt>
<pdfrwt beam="2">  1        2 0.46921034E+00 0.52967922E+03</pdfrwt>
<totfact> 0.11592591E+01</totfact>
</mgrwt>
</event>
<event>
 5    0  0.2396052E+000  0.4338540E+03  0.7546771E-02  0.1032649E+00
          2   -1    0    0  503    0 -0.00000000000E+00  0.00000000000E+00  0.22061392047E+04  0.22061392047E+04  0.00000000000E+00 0. -1.
         21   -1    0    0  501  502  0.00000000000E+00 -0.00000000000E+00 -0.32218159051E+02  0.32218159051E+02  0.00000000000E+00 0.  1.
         25    1    1    2    0    0  0.22612473266E+03  0.35715099374E+02  0.96518454570E+03  0.99980706654E+03  0.12500000000E+03 0.  0.
         21    1    1    2  503  502 -0.16624329807E+03 -0.41717561601E+02  0.52719912829E+03  0.55436099247E+03  0.00000000000E+00 0.  1.
          2    1    1    2  501    0 -0.59881434594E+02  0.60024622273E+01  0.68153737162E+03  0.68418930471E+03  0.00000000000E+00 0. -1.
<mgrwt>
<rscale>  4 0.43385404E+03</rscale>
<asrwt>0</asrwt>
<pdfrwt beam="1">  1       21 0.49566416E-02 0.43385404E+03</pdfrwt>
<pdfrwt beam="2">  1        2 0.33940591E+00 0.43385404E+03</pdfrwt>
<totfact> 0.19314076E+04</totfact>
</mgrwt>
</event>
<event>
 5    0  0.2396052E+000  0.3165853E+03  0.7546771E-02  0.1077232E+00
         21   -1    0    0  501  502  0.00000000000E+00  0.00000000000E+00  0.88232703993E+03  0.88232703993E+03  0.00000000000E+00 0.  1.
         -2   -1    0    0    0  501 -0.00000000000E+00 -0.00000000000E+00 -0.90050130879E+02  0.90050130879E+02  0.00000000000E+00 0. -1.
         25    1    1    2    0    0  0.15800788638E+03 -0.12985997603E+03  0.48060371868E+03  0.53706148618E+03  0.12500000000E+03 0.  0.
         21    1    1    2  503  502 -0.61323444637E+02  0.16240998604E+02  0.27426897822E+03  0.28150987072E+03  0.00000000000E+00 0. -1.
         -2    1    1    2    0  503 -0.96684441739E+02  0.11361897742E+03  0.37404212151E+02  0.15380581391E+03  0.00000000000E+00 0. -1.
<mgrwt>
<rscale>  4 0.31658534E+03</rscale>
<asrwt>0</asrwt>
<pdfrwt beam="1">  1       21 0.13574262E+00 0.31658534E+03</pdfrwt>
<pdfrwt beam="2">  1       -2 0.13853867E-01 0.31658534E+03</pdfrwt>
<totfact> 0.11433970E+03</totfact>
</mgrwt>
</event>
<event>
 5    0  0.2396052E+000  0.4019618E+03  0.7546771E-02  0.1043102E+00
          2   -1    0    0  503    0 -0.00000000000E+00  0.00000000000E+00  0.62326056688E+03  0.62326056688E+03  0.00000000000E+00 0.  1.
         21   -1    0    0  501  502  0.00000000000E+00 -0.00000000000E+00 -0.10136248895E+04  0.10136248895E+04  0.00000000000E+00 0.  1.
         25    1    1    2    0    0 -0.23794992254E+03 -0.85314574299E+02 -0.91407943834E+03  0.95659027897E+03  0.12500000000E+03 0.  0.
         21    1    1    2  503  502  0.65410070716E+02  0.25001578084E+02 -0.44793911661E+02  0.83126715198E+02  0.00000000000E+00 0. -1.
          2    1    1    2  501    0  0.17253985183E+03  0.60312996215E+02  0.56850902740E+03  0.59716846218E+03  0.00000000000E+00 0.  1.
<mgrwt>
<rscale>  4 0.40196185E+03</rscale>
<asrwt>0</asrwt>
<pdfrwt beam="1">  1       21 0.15594229E+00 0.40196185E+03</pdfrwt>
<pdfrwt beam="2">  1        2 0.95886241E-01 0.40196185E+03</pdfrwt>
<totfact> 0.14490461E+02</totfact>
</mgrwt>
</event>
<event>
 5    0  0.2396052E+000  0.4359144E+03  0.7546771E-02  0.1032008E+00
         21   -1    0    0  501  502  0.00000000000E+00  0.00000000000E+00  0.57064327589E+02  0.57064327589E+02  0.00000000000E+00 0.  1.
          4   -1    0    0  503    0 -0.00000000000E+00 -0.00000000000E+00 -0.15287156410E+04  0.15287156410E+04  0.00000000000E+00 0.  1.
         25    1    1    2    0    0 -0.22126409334E+03  0.33068890303E+01 -0.45928730750E+03  0.52491767483E+03  0.12500000000E+03 0.  0.
         21    1    1    2  503  502  0.18013250634E+03  0.24269920754E+02 -0.33033949939E+03  0.37704235007E+03  0.00000000000E+00 0.  1.
          4    1    1    2  501    0  0.41131587002E+02 -0.27576809784E+02 -0.68202450652E+03  0.68381994368E+03  0.00000000000E+00 0.  1.
<mgrwt>
<rscale>  4 0.43591443E+03</rscale>
<asrwt>0</asrwt>
<pdfrwt beam="1">  1       21 0.87791288E-02 0.43591443E+03</pdfrwt>
<pdfrwt beam="2">  1        4 0.23518698E+00 0.43591443E+03</pdfrwt>
<totfact> 0.36866855E+02</totfact>
</mgrwt>
</event>
<event>
 5    0  0.2396052E+000  0.6034266E+03  0.7546771E-02  0.9898322E-01
         21   -1    0    0  501  502  0.00000000000E+00  0.00000000000E+00  0.15079506540E+03  0.15079506540E+03  0.00000000000E+00 0.  1.
         -4   -1    0    0    0  501 -0.00000000000E+00 -0.00000000000E+00 -0.11508943153E+04  0.11508943153E+04  0.00000000000E+00 0.  1.
         25    1    1    2    0    0  0.24766804729E+03  0.28300101841E+02 -0.30798607401E+03  0.41547656877E+03  0.12500000000E+03 0.  0.
         21    1    1    2  503  502 -0.30548870823E+03 -0.38996213977E+02 -0.15295827591E+03  0.34386085810E+03  0.00000000000E+00 0.  1.
         -4    1    1    2    0  503  0.57820660943E+02  0.10696112136E+02 -0.53915489996E+03  0.54235195381E+03  0.00000000000E+00 0.  1.
<mgrwt>
<rscale>  4 0.60342658E+03</rscale>
<asrwt>0</asrwt>
<pdfrwt beam="1">  1       21 0.23199240E-01 0.60342658E+03</pdfrwt>
<pdfrwt beam="2">  1       -4 0.17706067E+00 0.60342658E+03</pdfrwt>
<totfact> 0.14154735E+02</totfact>
</mgrwt>
</event>
<event>
 5    0  0.2396052E+000  0.3591917E+03  0.7546771E-02  0.1058904E+00
          2   -1    0    0  503    0 -0.00000000000E+00  0.00000000000E+00  0.19219162387E+04  0.19219162387E+04  0.00000000000E+00 0. -1.
         21   -1    0    0  501  502  0.00000000000E+00 -0.00000000000E+00 -0.53128533718E+02  0.53128533718E+02  0.00000000000E+00 0. -1.
         25    1    1    2    0    0 -0.19710940863E+03  0.13933750115E+03  0.45598181572E+03  0.53085918516E+03  0.12500000000E+03 0.  0.
         21    1    1    2  503  502  0.78770271977E+02 -0.36954250978E+02  0.16434315826E+03  0.18595441936E+03  0.00000000000E+00 0.  1.
          2    1    1    2  501    0  0.11833913665E+03 -0.10238325017E+03  0.12484627310E+04  0.12582311679E+04  0.00000000000E+00 0. -1.
<mgrwt>
<rscale>  4 0.35919169E+03</rscale>
<asrwt>0</asrwt>
<pdfrwt beam="1">  1       21 0.81736220E-02 0.35919169E+03</pdfrwt>
<pdfrwt beam="2">  1        2 0.29567937E+00 0.35919169E+03</pdfrwt>
<totfact> 0.11632085E+04</totfact>
</mgrwt>
</event>
<event>
 5    0  0.2396052E+000  0.3873050E+03  0.7546771E-02  0.1048266E+00
         -1   -1    0    0    0  501 -0.00000000000E+00  0.00000000000E+00  0.93338981245E+03  0.93338981245E+03  0.00000000000E+00 0. -1.
         21   -1    0    0  501  502  0.00000000000E+00 -0.00000000000E+00 -0.13100194225E+03  0.13100194225E+03  0.00000000000E+00 0.  1.
         25    1    1    2    0    0 -0.24373648899E+03  0.43986416828E+02  0.10924467407E+03  0.29816384714E+03  0.12500000000E+03 0.  0.
         21    1    1    2  503  502  0.94439848578E+02  0.44540996106E+02  0.87586778510E+02  0.13628730353E+03  0.00000000000E+00 0. -1.
         -1    1    1    2    0  503  0.14929664041E+03 -0.88527412934E+02  0.60555641762E+03  0.62994060403E+03  0.00000000000E+00 0. -1.
<mgrwt>
<rscale>  4 0.38730502E+03</rscale>
<asrwt>0</asrwt>
<pdfrwt beam="1">  1       21 0.20154146E-01 0.38730502E+03</pdfrwt>
<pdfrwt beam="2">  1       -1 0.14359843E+00 0.38730502E+03</pdfrwt>
<totfact> 0.86047995E+02</totfact>
</mgrwt>
</event>
<event>
 5    0  0.2396052E+000  0.5038503E+03  0.7546771E-02  0.1012779E+00
          1   -1    0    0  503    0 -0.00000000000E+00  0.00000000000E+00  0.12192605325E+04  0.12192605325E+04  0.00000000000E+00 0.  1.
         21   -1    0    0  501  502  0.00000000000E+00 -0.00000000000E+00 -0.41384914034E+03  0.41384914034E+03  0.00000000000E+00 0.  1.
         25    1    1    2    0    0  0.32388260826E+02 -0.25260694294E+03 -0.32825370786E+03  0.43386030446E+03  0.12500000000E+03 0.  0.
         21    1    1    2  503  502 -0.69606682147E+02 -0.31125645973E+02  0.94622819427E+02  0.12152108456E+03  0.00000000000E+00 0. -1.
          1    1    1    2  501    0  0.37218421322E+02  0.28373258891E+03  0.10390422806E+04  0.10777282838E+04  0.00000000000E+00 0.  1.
<mgrwt>
<rscale>  4 0.50385027E+03</rscale>
<asrwt>0</asrwt>
<pdfrwt beam="1">  1       21 0.63669099E-01 0.50385027E+03</pdfrwt>
<pdfrwt beam="2">  1        1 0.18757854E+00 0.50385027E+03</pdfrwt>
<totfact> 0.24824916E+02</totfact>
</mgrwt>
</event>
<event>
 5    0  0.2396052E+000  0.4727744E+03  0.7546771E-02  0.1021140E+00
          2   -1    0    0  503    0 -0.00000000000E+00  0.00000000000E+00  0.27088837920E+04  0.27088837920E+04  0.00000000000E+00 0. -1.
         21   -1    0    0  501  502  0.00000000000E+00 -0.00000000000E+00 -0.17944292992E+03  0.17944292992E+03  0.00000000000E+00 0.  1.
         25    1    1    2    0    0  0.62324743406E+02  0.19301506742E+03 -0.85676980411E+02  0.25318912864E+03  0.12500000000E+03 0.  0.
         21    1    1    2  503  502 -0.77369421615E+02 -0.21192279637E+02  0.22623630535E+03  0.24003750952E+03  0.00000000000E+00 0. -1.
          2    1    1    2  501    0  0.15044678210E+02 -0.17182278778E+03  0.23888815372E+04  0.23951000838E+04  0.00000000000E+00 0. -1.
<mgrwt>
<rscale>  4 0.47277436E+03</rscale>
<asrwt>0</asrwt>
<pdfrwt beam="1">  1       21 0.27606606E-01 0.47277436E+03</pdfrwt>
<pdfrwt beam="2">  1        2 0.41675132E+00 0.47277436E+03</pdfrwt>
<totfact> 0.43484343E+02</totfact>
</mgrwt>
</event>
<event>
 5    0  0.2396052E+000  0.6504494E+03  0.7546771E-02  0.9805936E-01
         21   -1    0    0  501  502  0.00000000000E+00  0.00000000000E+00  0.25005119927E+03  0.25005119927E+03  0.00000000000E+00 0.  1.
          3   -1    0    0  503    0 -0.00000000000E+00 -0.00000000000E+00 -0.13791183780E+04  0.13791183780E+04  0.00000000000E+00 0.  1.
         25    1    1    2    0    0  0.26788337230E+03  0.31542597513E+02  0.78513573894E+02  0.30748303676E+03  0.12500000000E+03 0.  0.
         21    1    1    2  503  502 -0.25919331064E+03 -0.55505109315E+02 -0.25191774004E+03  0.36568365726E+03  0.00000000000E+00 0.  1.
          3    1    1    2  501    0 -0.86900616582E+01  0.23962511802E+02 -0.95566301262E+03  0.95600288327E+03  0.00000000000E+00 0.  1.
<mgrwt>
<rscale>  4 0.65044938E+03</rscale>
<asrwt>0</asrwt>
<pdfrwt beam="1">  1       21 0.38469415E-01 0.65044938E+03</pdfrwt>
<pdfrwt beam="2">  1        3 0.21217206E+00 0.65044938E+03</pdfrwt>
<totfact> 0.38945205E+01</totfact>
</mgrwt>
</event>
<event>
 5    0  0.2396052E+000  0.4131846E+03  0.7546771E-02  0.1039308E+00
         21   -1    0    0  501  502  0.00000000000E+00  0.00000000000E+00  0.44952856056E+03  0.44952856056E+03  0.00000000000E+00 0. -1.
          4   -1    0    0  503    0 -0.00000000000E+00 -0.00000000000E+00 -0.17894558926E+03  0.17894558926E+03  0.00000000000E+00 0. -1.
         25    1    1    2    0    0 -0.96946340336E+02 -0.17920446106E+03  0.11757454009E+03  0.26638619380E+03  0.12500000000E+03 0.  0.
         21    1    1    2  503  502  0.75448642051E+02  0.12908728364E+03  0.22599456723E+03  0.27097890841E+03  0.00000000000E+00 0. -1.
          4    1    1    2  501    0  0.21497698285E+02  0.50117177422E+02 -0.72986136028E+02  0.91109047611E+02  0.00000000000E+00 0. -1.
<mgrwt>
<rscale>  4 0.41318461E+03</rscale>
<asrwt>0</asrwt>
<pdfrwt beam="1">  1       21 0.69158240E-01 0.41318461E+03</pdfrwt>
<pdfrwt beam="2">  1        4 0.27530091E-01 0.41318461E+03</pdfrwt>
<totfact> 0.99117351E+02</totfact>
</mgrwt>
</event>
<event>
 5    0  0.2396052E+000  0.4427662E+03  0.7546771E-02  0.1029901E+00
          2   -1    0    0  503    0 -0.00000000000E+00  0.00000000000E+00  0.25626364400E+04  0.25626364400E+04  0.00000000000E+00 0.  1.
         21   -1    0    0  501  502  0.00000000000E+00 -0.00000000000E+00 -0.13865960193E+03  0.13865960193E+03  0.00000000000E+00 0.  1.
         25    1    1    2    0    0 -0.26325670788E+03  0.12228794130E+03  0.12965286473E+03  0.34160401075E+03  0.12500000000E+03 0.  0.
         21    1    1    2  503  502 -0.86858334019E+01 -0.11647790737E+03  0.11657561380E+03  0.16502248434E+03  0.00000000000E+00 0. -1.
          2    1    1    2  501    0  0.27194254128E+03 -0.58100339352E+01  0.21777483595E+04  0.21946695468E+04  0.00000000000E+00 0.  1.
<mgrwt>
<rscale>  4 0.44276624E+03</rscale>
<asrwt>0</asrwt>
<pdfrwt beam="1">  1       21 0.21332248E-01 0.44276624E+03</pdfrwt>
<pdfrwt beam="2">  1        2 0.39425172E+00 0.44276624E+03</pdfrwt>
<totfact> 0.87723777E+02</totfact>
</mgrwt>
</event>
<event>
 5    0  0.2396052E+000  0.3746115E+03  0.7546771E-02  0.1052944E+00
          1   -1    0    0  503    0 -0.00000000000E+00  0.00000000000E+00  0.21155361200E+04  0.21155361200E+04  0.00000000000E+00 0.  1.
         21   -1    0    0  501  502  0.00000000000E+00 -0.00000000000E+00 -0.81632341709E+02  0.81632341709E+02  0.00000000000E+00 0.  1.
         25    1    1    2    0    0 -0.12098784700E+03  0.16695466797E+03  0.12901125898E+03  0.27346082941E+03  0.12500000000E+03 0.  0.
         21    1    1    2  503  502  0.26612129520E+02 -0.77140167446E+02  0.23545851491E+03  0.24919775905E+03  0.00000000000E+00 0. -1.
          1    1    1    2  501    0  0.94375717483E+02 -0.89814500525E+02  0.16694340044E+04  0.16745098733E+04  0.00000000000E+00 0.  1.
<mgrwt>
<rscale>  4 0.37461151E+03</rscale>
<asrwt>0</asrwt>
<pdfrwt beam="1">  1       21 0.12558823E-01 0.37461151E+03</pdfrwt>
<pdfrwt beam="2">  1        1 0.32546705E+00 0.37461151E+03</pdfrwt>
<totfact> 0.16276550E+03</totfact>
</mgrwt>
</event>
<event>
 5    0  0.2396052E+000  0.5458360E+03  0.7546771E-02  0.1002462E+00
          1   -1    0    0  503    0 -0.00000000000E+00  0.00000000000E+00  0.15010841038E+04  0.15010841038E+04  0.00000000000E+00 0. -1.
         21   -1    0    0  501  502  0.00000000000E+00 -0.00000000000E+00 -0.76562474077E+02  0.76562474077E+02  0.00000000000E+00 0.  1.
         25    1    1    2    0    0  0.11976335416E+02  0.21234799675E+03  0.15967522313E+03  0.29386439257E+03  0.12500000000E+03 0.  0.
         21    1    1    2  503  502 -0.10774838809E+02 -0.15457266518E+03  0.75965551726E+03  0.77529691788E+03  0.00000000000E+00 0. -1.
          1    1    1    2  501    0 -0.12014966075E+01 -0.57775331576E+02  0.50519088937E+03  0.50848526747E+03  0.00000000000E+00 0. -1.
<mgrwt>
<rscale>  4 0.54583596E+03</rscale>
<asrwt>0</asrwt>
<pdfrwt beam="1">  1       21 0.11778843E-01 0.54583596E+03</pdfrwt>
<pdfrwt beam="2">  1        1 0.23093599E+00 0.54583596E+03</pdfrwt>
<totfact> 0.44992060E+03</totfact>
</mgrwt>
</event>
<event>
 5    0  0.2396052E+000  0.3739244E+03  0.7546771E-02  0.1053202E+00
          2   -1    0    0  503    0 -0.00000000000E+00  0.00000000000E+00  0.30282047152E+03  0.30282047152E+03  0.00000000000E+00 0. -1.
         21   -1    0    0  501  502  0.00000000000E+00 -0.00000000000E+00 -0.23955165550E+03  0.23955165550E+03  0.00000000000E+00 0. -1.
         25    1    1    2    0    0  0.13669861264E+02  0.20780906092E+03 -0.10894560285E+03  0.26620596403E+03  0.12500000000E+03 0.  0.
         21    1    1    2  503  502 -0.19702923651E+02 -0.98415555778E+02  0.50336964591E+02  0.11228373357E+03  0.00000000000E+00 0.  1.
          2    1    1    2  501    0  0.60330623872E+01 -0.10939350514E+03  0.12187745429E+03  0.16388242942E+03  0.00000000000E+00 0. -1.
<mgrwt>
<rscale>  4 0.37392443E+03</rscale>
<asrwt>0</asrwt>
<pdfrwt beam="1">  1       21 0.36854101E-01 0.37392443E+03</pdfrwt>
<pdfrwt beam="2">  1        2 0.46587765E-01 0.37392443E+03</pdfrwt>
<totfact> 0.92342363E+03</totfact>
</mgrwt>
</event>
<event>
 5    0  0.2396052E+000  0.6992206E+03  0.7546771E-02  0.9718566E-01
         -1   -1    0    0    0  501 -0.00000000000E+00  0.00000000000E+00  0.21690307192E+04  0.21690307192E+04  0.00000000000E+00 0. -1.
         21   -1    0    0  501  502  0.00000000000E+00 -0.00000000000E+00 -0.12509682440E+03  0.12509682440E+03  0.00000000000E+00 0.  1.
         25    1    1    2    0    0  0.24625148909E+03  0.10810678739E+03  0.15474957378E+03  0.33451353328E+03  0.12500000000E+03 0.  0.
         21    1    1    2  503  502 -0.31226428675E+03 -0.51798935037E+02  0.71143707518E+03  0.77867504544E+03  0.00000000000E+00 0.  1.
         -1    1    1    2    0  503  0.66012797659E+02 -0.56307852354E+02  0.11777472458E+04  0.11809389649E+04  0.00000000000E+00 0. -1.
<mgrwt>
<rscale>  4 0.69922064E+03</rscale>
<asrwt>0</asrwt>
<pdfrwt beam="1">  1       21 0.19245667E-01 0.69922064E+03</pdfrwt>
<pdfrwt beam="2">  1       -1 0.33369701E+00 0.69922064E+03</pdfrwt>
<totfact> 0.47139424E+01</totfact>
</mgrwt>
</event>
<event>
 5    0  0.2396052E+000  0.6129257E+03  0.7546771E-02  0.9878946E-01
         21   -1    0    0  501  502  0.00000000000E+00  0.00000000000E+00  0.13618646830E+03  0.13618646830E+03  0.00000000000E+00 0. -1.
          2   -1    0    0  503    0 -0.00000000000E+00 -0.00000000000E+00 -0.27096982381E+04  0.27096982381E+04  0.00000000000E+00 0. -1.
         25    1    1    2    0    0  0.44166360995E+03  0.22647654726E+03 -0.62389403716E+03  0.80698645615E+03  0.12500000000E+03 0.  0.
         21    1    1    2  503  502 -0.99065554933E+02  0.39088325437E+01 -0.89665325572E+02  0.13367547926E+03  0.00000000000E+00 0.  1.
          2    1    1    2  501    0 -0.34259805501E+03 -0.23038537980E+03 -0.18599524071E+04  0.19052227710E+04  0.00000000000E+00 0. -1.
<mgrwt>
<rscale>  4 0.61292570E+03</rscale>
<asrwt>0</asrwt>
<pdfrwt beam="1">  1       21 0.20951765E-01 0.61292570E+03</pdfrwt>
<pdfrwt beam="2">  1        2 0.41687663E+00 0.61292570E+03</pdfrwt>
<totfact> 0.71379634E+02</totfact>
</mgrwt>
</event>
<event>
 5    0  0.2396052E+000  0.4487435E+03  0.7546771E-02  0.1028097E+00
         -1   -1    0    0    0  501 -0.00000000000E+00  0.00000000000E+00  0.23707618104E+03  0.23707618104E+03  0.00000000000E+00 0.  1.
         21   -1    0    0  501  502  0.00000000000E+00 -0.00000000000E+00 -0.39171399995E+03  0.39171399995E+03  0.00000000000E+00 0.  1.
         25    1    1    2    0    0 -0.85368540422E+01  0.21159242273E+03 -0.10957298320E+03  0.26921268522E+03  0.12500000000E+03 0.  0.
         21    1    1    2  503  502 -0.76158457318E+01 -0.19855284428E+03 -0.15229917664E+03  0.25035229634E+03  0.00000000000E+00 0.  1.
         -1    1    1    2    0  503  0.16152699774E+02 -0.13039578459E+02  0.10723434093E+03  0.10922519943E+03  0.00000000000E+00 0.  1.
<mgrwt>
<rscale>  4 0.44874351E+03</rscale>
<asrwt>0</asrwt>
<pdfrwt beam="1">  1       21 0.60263692E-01 0.44874351E+03</pdfrwt>
<pdfrwt beam="2">  1       -1 0.36473259E-01 0.44874351E+03</pdfrwt>
<totfact> 0.16131711E+03</totfact>
</mgrwt>
</event>
<event>
 5    0  0.2396052E+000  0.6226120E+03  0.7546771E-02  0.9859573E-01
         21   -1    0    0  501  502  0.00000000000E+00  0.00000000000E+00  0.64156328782E+03  0.64156328782E+03  0.00000000000E+00 0. -1.
          2   -1    0    0  503    0 -0.00000000000E+00 -0.00000000000E+00 -0.50901378913E+03  0.50901378913E+03  0.00000000000E+00 0. -1.
         25    1    1    2    0    0 -0.75674830996E+02 -0.36506584282E+03  0.27334185710E+03  0.47889510384E+03  0.12500000000E+03 0.  0.
         21    1    1    2  503  502  0.19279126724E+03  0.12419931804E+03  0.15179587920E+03  0.27501987613E+03  0.00000000000E+00 0. -1.
          2    1    1    2  501    0 -0.11711643624E+03  0.24086652478E+03 -0.29258823761E+03  0.39666209698E+03  0.00000000000E+00 0. -1.
<mgrwt>
<rscale>  4 0.62261200E+03</rscale>
<asrwt>0</asrwt>
<pdfrwt beam="1">  1       21 0.98702044E-01 0.62261200E+03</pdfrwt>
<pdfrwt beam="2">  1        2 0.78309814E-01 0.62261200E+03</pdfrwt>
<totfact> 0.56321551E+02</totfact>
</mgrwt>
</event>
<event>
 5    0  0.2396052E+000  0.3221593E+03  0.7546771E-02  0.1074660E+00
          2   -1    0    0  503    0 -0.00000000000E+00  0.00000000000E+00  0.19330886487E+04  0.19330886487E+04  0.00000000000E+00 0.  1.
         21   -1    0    0  501  502  0.00000000000E+00 -0.00000000000E+00 -0.69355749957E+02  0.69355749957E+02  0.00000000000E+00 0.  1.
         25    1    1    2    0    0  0.24738396175E+03  0.30228438995E+02  0.28946574543E+03  0.40190546256E+03  0.12500000000E+03 0.  0.
         21    1    1    2  503  502 -0.22127872482E+02 -0.31974716262E+02  0.75371651263E+02  0.84811031327E+02  0.00000000000E+00 0. -1.
          2    1    1    2  501    0 -0.22525608927E+03  0.17462772669E+01  0.14988955020E+04  0.15157279047E+04  0.00000000000E+00 0.  1.
<mgrwt>
<rscale>  4 0.32215931E+03</rscale>
<asrwt>0</asrwt>
<pdfrwt beam="1">  1       21 0.10670117E-01 0.32215931E+03</pdfrwt>
<pdfrwt beam="2">  1        2 0.29739821E+00 0.32215931E+03</pdfrwt>
<totfact> 0.72059281E+03</totfact>
</mgrwt>
</event>
<event>
 5    0  0.2396052E+000  0.3451718E+03  0.7546771E-02  0.1064614E+00
         21   -1    0    0  501  502  0.00000000000E+00  0.00000000000E+00  0.29126753223E+03  0.29126753223E+03  0.00000000000E+00 0. -1.
          2   -1    0    0  503    0 -0.00000000000E+00 -0.00000000000E+00 -0.45518003468E+03  0.45518003468E+03  0.00000000000E+00 0. -1.
         25    1    1    2    0    0  0.20508222185E+02 -0.26444657401E+03  0.12632669643E+03  0.31927419550E+03  0.12500000000E+03 0.  0.
         21    1    1    2  503  502 -0.34229469737E+02  0.37329671912E+02  0.88084458585E+01  0.51407681546E+02  0.00000000000E+00 0. -1.
          2    1    1    2  501    0  0.13721247552E+02  0.22711690210E+03 -0.29904764475E+03  0.37576568987E+03  0.00000000000E+00 0. -1.
<mgrwt>
<rscale>  4 0.34517176E+03</rscale>
<asrwt>0</asrwt>
<pdfrwt beam="1">  1       21 0.44810389E-01 0.34517176E+03</pdfrwt>
<pdfrwt beam="2">  1        2 0.70027698E-01 0.34517176E+03</pdfrwt>
<totfact> 0.39653296E+03</totfact>
</mgrwt>
</event>
<event>
 5    0  0.2396052E+000  0.6188181E+03  0.7546771E-02  0.9867116E-01
         21   -1    0    0  501  502  0.00000000000E+00  0.00000000000E+00  0.75885393600E+02  0.75885393600E+02  0.00000000000E+00 0. -1.
          2   -1    0    0  503    0 -0.00000000000E+00 -0.00000000000E+00 -0.19136167646E+04  0.19136167646E+04  0.00000000000E+00 0. -1.
         25    1    1    2    0    0  0.20421609345E+03  0.74251234611E+02 -0.17179389401E+03  0.30390064278E+03  0.12500000000E+03 0.  0.
         21    1    1    2  503  502 -0.19032103900E+03 -0.58896601947E+02 -0.10167967267E+04  0.10361305376E+04  0.00000000000E+00 0.  1.
          2    1    1    2  501    0 -0.13895054443E+02 -0.15354632663E+02 -0.64914075036E+03  0.64947097784E+03  0.00000000000E+00 0. -1.
<mgrwt>
<rscale>  4 0.61881815E+03</rscale>
<asrwt>0</asrwt>
<pdfrwt beam="1">  1       21 0.11674677E-01 0.61881815E+03</pdfrwt>
<pdfrwt beam="2">  1        2 0.29440256E+00 0.61881815E+03</pdfrwt>
<totfact> 0.59030670E+03</totfact>
</mgrwt>
</event>
<event>
 5    0  0.2396052E+000  0.7816533E+03  0.7546771E-02  0.9586960E-01
          2   -1    0    0  503    0 -0.00000000000E+00  0.00000000000E+00  0.16716412433E+04  0.16716412433E+04  0.00000000000E+00 0.  1.
         21   -1    0    0  501  502  0.00000000000E+00 -0.00000000000E+00 -0.35326547759E+03  0.35326547759E+03  0.00000000000E+00 0. -1.
         25    1    1    2    0    0 -0.17814826442E+03 -0.36396226357E+03  0.26594424602E+03  0.50055636586E+03  0.12500000000E+03 0.  0.
         21    1    1    2  503  502  0.70895246925E+02  0.21827669187E+03 -0.17189020845E+03  0.28673523329E+03  0.00000000000E+00 0. -1.
          2    1    1    2  501    0  0.10725301749E+03  0.14568557170E+03  0.12243217281E+04  0.12376151217E+04  0.00000000000E+00 0.  1.
<mgrwt>
<rscale>  4 0.78165331E+03</rscale>
<asrwt>0</asrwt>
<pdfrwt beam="1">  1       21 0.54348536E-01 0.78165331E+03</pdfrwt>
<pdfrwt beam="2">  1        2 0.25717557E+00 0.78165331E+03</pdfrwt>
<totfact> 0.37125703E+02</totfact>
</mgrwt>
</event>
<event>
 5    0  0.2396052E+000  0.7031444E+03  0.7546771E-02  0.9711870E-01
          2   -1    0    0  503    0 -0.00000000000E+00  0.00000000000E+00  0.22116202141E+04  0.22116202141E+04  0.00000000000E+00 0.  1.
         21   -1    0    0  501  502  0.00000000000E+00 -0.00000000000E+00 -0.16582793263E+03  0.16582793263E+03  0.00000000000E+00 0.  1.
         25    1    1    2    0    0  0.34266059679E+03  0.50099673077E+02  0.12466027456E+03  0.38870483132E+03  0.12500000000E+03 0.  0.
         21    1    1    2  503  502 -0.24775971278E+03 -0.50831263168E+02  0.46342480438E+03  0.52795003732E+03  0.00000000000E+00 0.  1.
          2    1    1    2  501    0 -0.94900884012E+02  0.73159009097E+00  0.14577072025E+04  0.14607932781E+04  0.00000000000E+00 0.  1.
<mgrwt>
<rscale>  4 0.70314443E+03</rscale>
<asrwt>0</asrwt>
<pdfrwt beam="1">  1       21 0.25511991E-01 0.70314443E+03</pdfrwt>
<pdfrwt beam="2">  1        2 0.34024924E+00 0.70314443E+03</pdfrwt>
<totfact> 0.91049043E+02</totfact>
</mgrwt>
</event>
<event>
 5    0  0.2396052E+000  0.3729121E+03  0.7546771E-02  0.1053585E+00
          1   -1    0    0  503    0 -0.00000000000E+00  0.00000000000E+00  0.18176386180E+04  0.18176386180E+04  0.00000000000E+00 0.  1.
         21   -1    0    0  501  502  0.00000000000E+00 -0.00000000000E+00 -0.11585790640E+03  0.11585790640E+03  0.00000000000E+00 0.  1.
         25    1    1    2    0    0  0.21451979588E+03 -0.94229102284E+02  0.18149553760E+03  0.32165742135E+03  0.12500000000E+03 0.  0.
         21    1    1    2  503  502  0.22126164220E+02  0.10209025671E+03  0.38614885266E+02  0.11136919243E+03  0.00000000000E+00 0. -1.
          1    1    1    2  501    0 -0.23664596010E+03 -0.78611544266E+01  0.14816702887E+04  0.15004699106E+04  0.00000000000E+00 0.  1.
<mgrwt>
<rscale>  4 0.37291212E+03</rscale>
<asrwt>0</asrwt>
<pdfrwt beam="1">  1       21 0.17824295E-01 0.37291212E+03</pdfrwt>
<pdfrwt beam="2">  1        1 0.27963669E+00 0.37291212E+03</pdfrwt>
<totfact> 0.13374660E+03</totfact>
</mgrwt>
</event>
<event>
 5    0  0.2396052E+000  0.5337669E+03  0.7546771E-02  0.1005323E+00
         21   -1    0    0  501  502  0.00000000000E+00  0.00000000000E+00  0.10713469266E+04  0.10713469266E+04  0.00000000000E+00 0. -1.
         -1   -1    0    0    0  501 -0.00000000000E+00 -0.00000000000E+00 -0.22273455645E+03  0.22273455645E+03  0.00000000000E+00 0.  1.
         25    1    1    2    0    0  0.87303275659E+02 -0.23960540598E+03  0.77336776315E+03  0.82386607504E+03  0.12500000000E+03 0.  0.
         21    1    1    2  503  502 -0.76354785759E+02  0.19710762731E+03  0.22821851265E+03  0.31107098799E+03  0.00000000000E+00 0. -1.
         -1    1    1    2    0  503 -0.10948489899E+02  0.42497778668E+02 -0.15297390564E+03  0.15914442004E+03  0.00000000000E+00 0.  1.
<mgrwt>
<rscale>  4 0.53376687E+03</rscale>
<asrwt>0</asrwt>
<pdfrwt beam="1">  1       21 0.16482260E+00 0.53376687E+03</pdfrwt>
<pdfrwt beam="2">  1       -1 0.34266856E-01 0.53376687E+03</pdfrwt>
<totfact> 0.14963825E+02</totfact>
</mgrwt>
</event>
<event>
 5    0  0.2396052E+000  0.3869359E+03  0.7546771E-02  0.1048400E+00
         -3   -1    0    0    0  501 -0.00000000000E+00  0.00000000000E+00  0.14082377230E+03  0.14082377230E+03  0.00000000000E+00 0.  1.
         21   -1    0    0  501  502  0.00000000000E+00 -0.00000000000E+00 -0.55438760280E+03  0.55438760280E+03  0.00000000000E+00 0. -1.
         25    1    1    2    0    0 -0.18622967758E+03  0.84580136018E+02 -0.31356799512E+03  0.39469631337E+03  0.12500000000E+03 0.  0.
         21    1    1    2  503  502  0.10629644959E+03 -0.99346073755E+02 -0.14682661155E+03  0.20670421240E+03  0.00000000000E+00 0.  1.
         -3    1    1    2    0  503  0.79933227983E+02  0.14765937737E+02  0.46830776174E+02  0.93810849320E+02  0.00000000000E+00 0.  1.
<mgrwt>
<rscale>  4 0.38693591E+03</rscale>
<asrwt>0</asrwt>
<pdfrwt beam="1">  1       21 0.85290401E-01 0.38693591E+03</pdfrwt>
<pdfrwt beam="2">  1       -3 0.21665196E-01 0.38693591E+03</pdfrwt>
<totfact> 0.11140714E+03</totfact>
</mgrwt>
</event>
<event>
 5    0  0.2396052E+000  0.9348844E+03  0.7546771E-02  0.9382995E-01
          3   -1    0    0  503    0 -0.00000000000E+00  0.00000000000E+00  0.33347870832E+04  0.33347870832E+04  0.00000000000E+00 0. -1.
         21   -1    0    0  501  502  0.00000000000E+00 -0.00000000000E+00 -0.28423153014E+03  0.28423153014E+03  0.00000000000E+00 0.  1.
         25    1    1    2    0    0 -0.49902678518E+03 -0.25020146536E+03  0.39550664005E+03  0.69547035014E+03  0.12500000000E+03 0.  0.
         21    1    1    2  503  502  0.30912366832E+03  0.16314331897E+03  0.10500953208E+03  0.36496600755E+03  0.00000000000E+00 0.  1.
          3    1    1    2  501    0  0.18990311686E+03  0.87058146394E+02  0.25500393809E+04  0.25585822556E+04  0.00000000000E+00 0. -1.
<mgrwt>
<rscale>  4 0.93488439E+03</rscale>
<asrwt>0</asrwt>
<pdfrwt beam="1">  1       21 0.43727930E-01 0.93488439E+03</pdfrwt>
<pdfrwt beam="2">  1        3 0.51304414E+00 0.93488439E+03</pdfrwt>
<totfact> 0.69921095E-01</totfact>
</mgrwt>
</event>
<event>
 5    0  0.2396052E+000  0.4559634E+03  0.7546771E-02  0.1025958E+00
          1   -1    0    0  503    0 -0.00000000000E+00  0.00000000000E+00  0.82580360819E+03  0.82580360819E+03  0.00000000000E+00 0.  1.
         21   -1    0    0  501  502  0.00000000000E+00 -0.00000000000E+00 -0.15466370188E+03  0.15466370188E+03  0.00000000000E+00 0. -1.
         25    1    1    2    0    0  0.17299118608E+03  0.16289739031E+03  0.13508495731E+03  0.30055690962E+03  0.12500000000E+03 0.  0.
         21    1    1    2  503  502  0.16740899486E+02 -0.18593433032E+03  0.11965160097E+03  0.22173934816E+03  0.00000000000E+00 0. -1.
          1    1    1    2  501    0 -0.18973208557E+03  0.23036940019E+02  0.41640334803E+03  0.45817105228E+03  0.00000000000E+00 0.  1.
<mgrwt>
<rscale>  4 0.45596345E+03</rscale>
<asrwt>0</asrwt>
<pdfrwt beam="1">  1       21 0.23794416E-01 0.45596345E+03</pdfrwt>
<pdfrwt beam="2">  1        1 0.12704671E+00 0.45596345E+03</pdfrwt>
<totfact> 0.38172135E+03</totfact>
</mgrwt>
</event>
<event>
 5    0  0.2396052E+000  0.5621943E+03  0.7546771E-02  0.9987102E-01
          1   -1    0    0  503    0 -0.00000000000E+00  0.00000000000E+00  0.11802578588E+04  0.11802578588E+04  0.00000000000E+00 0.  1.
         21   -1    0    0  501  502  0.00000000000E+00 -0.00000000000E+00 -0.14797979384E+03  0.14797979384E+03  0.00000000000E+00 0. -1.
         25    1    1    2    0    0 -0.21513685638E+03  0.23219134983E+01  0.42028120054E+03  0.48841636519E+03  0.12500000000E+03 0.  0.
         21    1    1    2  503  502  0.19122702013E+03  0.62459908262E+01 -0.33145798257E+02  0.19417885975E+03  0.00000000000E+00 0. -1.
          1    1    1    2  501    0  0.23909836250E+02 -0.85679043245E+01  0.64514266269E+03  0.64564242772E+03  0.00000000000E+00 0.  1.
<mgrwt>
<rscale>  4 0.56219429E+03</rscale>
<asrwt>0</asrwt>
<pdfrwt beam="1">  1       21 0.22766123E-01 0.56219429E+03</pdfrwt>
<pdfrwt beam="2">  1        1 0.18157813E+00 0.56219429E+03</pdfrwt>
<totfact> 0.21777965E+03</totfact>
</mgrwt>
</event>
<event>
 5    0  0.2396052E+000  0.3732958E+03  0.7546771E-02  0.1053440E+00
         21   -1    0    0  501  502  0.00000000000E+00  0.00000000000E+00  0.62521061838E+02  0.62521061838E+02  0.00000000000E+00 0.  1.
          1   -1    0    0  503    0 -0.00000000000E+00 -0.00000000000E+00 -0.10060329088E+04  0.10060329088E+04  0.00000000000E+00 0.  1.
         25    1    1    2    0    0  0.19972126557E+03  0.86546632216E+02 -0.37910946943E+03  0.45467339188E+03  0.12500000000E+03 0.  0.
         21    1    1    2  503  502 -0.12141828657E+03 -0.10539467103E+02 -0.20725128043E+03  0.24042997716E+03  0.00000000000E+00 0. -1.
          1    1    1    2  501    0 -0.78302979003E+02 -0.76007165114E+02 -0.35715109708E+03  0.37345060157E+03  0.00000000000E+00 0.  1.
<mgrwt>
<rscale>  4 0.37329581E+03</rscale>
<asrwt>0</asrwt>
<pdfrwt beam="1">  1       21 0.96186263E-02 0.37329581E+03</pdfrwt>
<pdfrwt beam="2">  1        1 0.15477427E+00 0.37329581E+03</pdfrwt>
<totfact> 0.14941972E+04</totfact>
</mgrwt>
</event>
<event>
 5    0  0.2396052E+000  0.5444485E+03  0.7546771E-02  0.1002787E+00
         -1   -1    0    0    0  501 -0.00000000000E+00  0.00000000000E+00  0.65316856956E+02  0.65316856956E+02  0.00000000000E+00 0.  1.
         21   -1    0    0  501  502  0.00000000000E+00 -0.00000000000E+00 -0.18581749509E+04  0.18581749509E+04  0.00000000000E+00 0.  1.
         25    1    1    2    0    0 -0.20784375855E+03  0.58326625321E+02 -0.14463375358E+04  0.14676914835E+04  0.12500000000E+03 0.  0.
         21    1    1    2  503  502  0.21284679969E+03 -0.27379279841E+02 -0.36200640566E+03  0.42083491163E+03  0.00000000000E+00 0.  1.
         -1    1    1    2    0  503 -0.50030411397E+01 -0.30947345480E+02  0.15485847549E+02  0.34965412728E+02  0.00000000000E+00 0.  1.
<mgrwt>
<rscale>  4 0.54444847E+03</rscale>
<asrwt>0</asrwt>
<pdfrwt beam="1">  1       21 0.28587302E+00 0.54444847E+03</pdfrwt>
<pdfrwt beam="2">  1       -1 0.10048749E-01 0.54444847E+03</pdfrwt>
<totfact> 0.18447959E+02</totfact>
</mgrwt>
</event>
<event>
 5    0  0.2396052E+000  0.1442083E+04  0.7546771E-02  0.8923907E-01
          2   -1    0    0  503    0 -0.00000000000E+00  0.00000000000E+00  0.20848802964E+04  0.20848802964E+04  0.00000000000E+00 0.  1.
         21   -1    0    0  501  502  0.00000000000E+00 -0.00000000000E+00 -0.44211625503E+03  0.44211625503E+03  0.00000000000E+00 0. -1.
         25    1    1    2    0    0  0.16998935984E+03  0.15421392032E+03  0.11424102296E+04  0.11719233970E+04  0.12500000000E+03 0.  0.
         21    1    1    2  503  502 -0.14541937028E+03 -0.11608406774E+03 -0.40651229520E+03  0.44707331635E+03  0.00000000000E+00 0. -1.
          2    1    1    2  501    0 -0.24569989564E+02 -0.38129852579E+02  0.90686610695E+03  0.90799983810E+03  0.00000000000E+00 0.  1.
<mgrwt>
<rscale>  4 0.14420834E+04</rscale>
<asrwt>0</asrwt>
<pdfrwt beam="1">  1       21 0.68017886E-01 0.14420834E+04</pdfrwt>
<pdfrwt beam="2">  1        2 0.32075081E+00 0.14420834E+04</pdfrwt>
<totfact> 0.12115934E+02</totfact>
</mgrwt>
</event>
<event>
 5    0  0.2396052E+000  0.5286894E+03  0.7546771E-02  0.1006550E+00
         21   -1    0    0  501  502  0.00000000000E+00  0.00000000000E+00  0.14721605005E+03  0.14721605005E+03  0.00000000000E+00 0. -1.
          1   -1    0    0  503    0 -0.00000000000E+00 -0.00000000000E+00 -0.10981120319E+04  0.10981120319E+04  0.00000000000E+00 0. -1.
         25    1    1    2    0    0  0.21489398860E+03 -0.15973612519E+03 -0.32164488661E+03  0.43677853554E+03  0.12500000000E+03 0.  0.
         21    1    1    2  503  502 -0.11604076907E+03  0.15424004290E+03 -0.23132252047E+02  0.19439792181E+03  0.00000000000E+00 0. -1.
          1    1    1    2  501    0 -0.98853219528E+02  0.54960822885E+01 -0.60611884317E+03  0.61415162458E+03  0.00000000000E+00 0. -1.
<mgrwt>
<rscale>  4 0.52868937E+03</rscale>
<asrwt>0</asrwt>
<pdfrwt beam="1">  1       21 0.22648623E-01 0.52868937E+03</pdfrwt>
<pdfrwt beam="2">  1        1 0.16894031E+00 0.52868937E+03</pdfrwt>
<totfact> 0.25399434E+03</totfact>
</mgrwt>
</event>
<event>
 5    0  0.2396052E+000  0.4685924E+03  0.7546771E-02  0.1022318E+00
         21   -1    0    0  501  502  0.00000000000E+00  0.00000000000E+00  0.51415257019E+02  0.51415257019E+02  0.00000000000E+00 0.  1.
          2   -1    0    0  503    0 -0.00000000000E+00 -0.00000000000E+00 -0.13291303817E+04  0.13291303817E+04  0.00000000000E+00 0.  1.
         25    1    1    2    0    0 -0.20405839071E+03  0.15131639417E+01 -0.43293734507E+03  0.49467348953E+03  0.12500000000E+03 0.  0.
         21    1    1    2  503  502  0.22180102024E+03 -0.11611697830E+02 -0.59236004578E+03  0.63263018260E+03  0.00000000000E+00 0.  1.
          2    1    1    2  501    0 -0.17742629534E+02  0.10098533888E+02 -0.25241773388E+03  0.25324196664E+03  0.00000000000E+00 0.  1.
<mgrwt>
<rscale>  4 0.46859239E+03</rscale>
<asrwt>0</asrwt>
<pdfrwt beam="1">  1       21 0.79100407E-02 0.46859239E+03</pdfrwt>
<pdfrwt beam="2">  1        2 0.20448157E+00 0.46859239E+03</pdfrwt>
<totfact> 0.25348726E+04</totfact>
</mgrwt>
</event>
