<event>
 5    0  0.1911311E+001  0.3212972E+03  0.7546771E-02  0.1075054E+00
         21   -1    0    0  502  501  0.00000000000E+00  0.00000000000E+00  0.13832543333E+03  0.13832543333E+03  0.00000000000E+00 0.  1.
         21   -1    0    0  504  502 -0.00000000000E+00 -0.00000000000E+00 -0.17630983136E+04  0.17630983136E+04  0.00000000000E+00 0.  1.
         25    1    1    2    0    0  0.32981874787E+03  0.59060248799E+02 -0.72633422281E+03  0.80960170618E+03  0.12500000000E+03 0.  0.
         21    1    1    2  503  501 -0.27302657242E+03  0.11493248650E+03 -0.17170855259E+03  0.34239861672E+03  0.00000000000E+00 0.  1.
         21    1    1    2  504  503 -0.56792175450E+02 -0.17399273530E+03 -0.72673010489E+03  0.74942342403E+03  0.00000000000E+00 0.  1.
<mgrwt>
<rscale>  4 0.32129723E+03</rscale>
<asrwt>0</asrwt>
<pdfrwt beam="1">  1       21 0.21280839E-01 0.32129723E+03</pdfrwt>
<pdfrwt beam="2">  1       21 0.27124586E+00 0.32129723E+03</pdfrwt>
<totfact> 0.90502635E+02</totfact>
</mgrwt>
</event>
<event>
 5    0  0.1911311E+001  0.3473552E+03  0.7546771E-02  0.1063706E+00
         21   -1    0    0  502  501  0.00000000000E+00  0.00000000000E+00  0.59429468687E+03  0.59429468687E+03  0.00000000000E+00 0. -1.
         21   -1    0    0  504  502 -0.00000000000E+00 -0.00000000000E+00 -0.10418871038E+04  0.10418871038E+04  0.00000000000E+00 0.  1.
         25    1    1    2    0    0 -0.12374976847E+02  0.34861574812E+03 -0.86093764890E+03  0.93729649267E+03  0.12500000000E+03 0.  0.
         21    1    1    2  503  501 -0.16928461856E+02 -0.32240782094E+03  0.50487128802E+03  0.59927322090E+03  0.00000000000E+00 0. -1.
         21    1    1    2  504  503  0.29303438703E+02 -0.26207927174E+02 -0.91526056016E+02  0.99612077061E+02  0.00000000000E+00 0.  1.
<mgrwt>
<rscale>  4 0.34735522E+03</rscale>
<asrwt>0</asrwt>
<pdfrwt beam="1">  1       21 0.91429953E-01 0.34735522E+03</pdfrwt>
<pdfrwt beam="2">  1       21 0.16029032E+00 0.34735522E+03</pdfrwt>
<totfact> 0.21987248E+02</totfact>
</mgrwt>
</event>
<event>
 5    0  0.1911311E+001  0.2483855E+03  0.7546771E-02  0.1114329E+00
         21   -1    0    0  504  501  0.00000000000E+00  0.00000000000E+00  0.96197996171E+02  0.96197996171E+02  0.00000000000E+00 0. -1.
         21   -1    0    0  503  502 -0.00000000000E+00 -0.00000000000E+00 -0.69141098767E+03  0.69141098767E+03  0.00000000000E+00 0. -1.
         25    1    1    2    0    0  0.13435702460E+03  0.14831866624E+03 -0.41788013985E+03  0.47989483025E+03  0.12500000000E+03 0.  0.
         21    1    1    2  503  501  0.81935191805E+01  0.20537306585E+02 -0.45000013539E+02  0.50138966253E+02  0.00000000000E+00 0.  1.
         21    1    1    2  504  502 -0.14255054378E+03 -0.16885597283E+03 -0.13233283811E+03  0.25757518734E+03  0.00000000000E+00 0. -1.
<mgrwt>
<rscale>  4 0.24838554E+03</rscale>
<asrwt>0</asrwt>
<pdfrwt beam="1">  1       21 0.14799691E-01 0.24838554E+03</pdfrwt>
<pdfrwt beam="2">  1       21 0.10637093E+00 0.24838554E+03</pdfrwt>
<totfact> 0.27630565E+04</totfact>
</mgrwt>
</event>
<event>
 5    0  0.1911311E+001  0.2209441E+03  0.7546771E-02  0.1133181E+00
         21   -1    0    0  504  501  0.00000000000E+00  0.00000000000E+00  0.29744382801E+03  0.29744382801E+03  0.00000000000E+00 0.  1.
         21   -1    0    0  503  502 -0.00000000000E+00 -0.00000000000E+00 -0.65778607455E+03  0.65778607455E+03  0.00000000000E+00 0. -1.
         25    1    1    2    0    0  0.11024558218E+03  0.20664089009E+03 -0.61365029012E+01  0.26555075318E+03  0.12500000000E+03 0.  0.
         21    1    1    2  503  501 -0.85487148757E+02 -0.15402921861E+03 -0.50138408707E+03  0.53143113905E+03  0.00000000000E+00 0. -1.
         21    1    1    2  504  502 -0.24758433427E+02 -0.52611671481E+02  0.14717834343E+03  0.15824801034E+03  0.00000000000E+00 0.  1.
<mgrwt>
<rscale>  4 0.22094406E+03</rscale>
<asrwt>0</asrwt>
<pdfrwt beam="1">  1       21 0.45760589E-01 0.22094406E+03</pdfrwt>
<pdfrwt beam="2">  1       21 0.10119786E+00 0.22094406E+03</pdfrwt>
<totfact> 0.35713571E+03</totfact>
</mgrwt>
</event>
