<event>
 4    0  0.2586653E-001  0.2408225E+03  0.7546771E-02  0.1119246E+00
         21   -1    0    0  502  501  0.00000000000E+00  0.00000000000E+00  0.32228682945E+03  0.32228682945E+03  0.00000000000E+00 0.  1.
         21   -1    0    0  503  502 -0.00000000000E+00 -0.00000000000E+00 -0.10830491098E+04  0.10830491098E+04  0.00000000000E+00 0. -1.
         25    1    1    2    0    0 -0.14095009065E+03 -0.15001181982E+03  0.26560750741E+03  0.35852869081E+03  0.12500000000E+03 0.  0.
         21    1    1    2  503  501  0.14095009065E+03  0.15001181982E+03 -0.10263697878E+04  0.10468072485E+04  0.00000000000E+00 0. -1.
<mgrwt>
<rscale>  3 0.24082250E+03</rscale>
<asrwt>0</asrwt>
<pdfrwt beam="1">  1       21 0.49582589E-01 0.24082250E+03</pdfrwt>
<pdfrwt beam="2">  1       21 0.16662294E+00 0.24082250E+03</pdfrwt>
<totfact> 0.83328341E+02</totfact>
</mgrwt>
</event>
<event>
 4    0  0.1394458E-001  0.2444898E+03  0.7546771E-02  0.1116837E+00
         21   -1    0    0  503  501  0.00000000000E+00  0.00000000000E+00  0.13363470633E+03  0.13363470633E+03  0.00000000000E+00 0.  1.
         21   -1    0    0  501  502 -0.00000000000E+00 -0.00000000000E+00 -0.43505923328E+03  0.43505923328E+03  0.00000000000E+00 0.  1.
         25    1    1    2    0    0  0.88099657512E+02  0.19075824029E+03 -0.66211518582E+02  0.25329670564E+03  0.12500000000E+03 0.  0.
         21    1    1    2  503  502 -0.88099657512E+02 -0.19075824029E+03 -0.23521300836E+03  0.31539723397E+03  0.00000000000E+00 0.  1.
<mgrwt>
<rscale>  3 0.24448979E+03</rscale>
<asrwt>0</asrwt>
<pdfrwt beam="1">  1       21 0.20559186E-01 0.24448979E+03</pdfrwt>
<pdfrwt beam="2">  1       21 0.66932189E-01 0.24448979E+03</pdfrwt>
<totfact> 0.43744693E+04</totfact>
</mgrwt>
</event>
<event>
 4    0  0.1378777E-001  0.3246844E+03  0.7546771E-02  0.1073513E+00
         21   -1    0    0  503  501  0.00000000000E+00  0.00000000000E+00  0.10206263973E+04  0.10206263973E+04  0.00000000000E+00 0.  1.
         21   -1    0    0  501  502 -0.00000000000E+00 -0.00000000000E+00 -0.10583876829E+03  0.10583876829E+03  0.00000000000E+00 0.  1.
         25    1    1    2    0    0  0.92691617749E+02 -0.28496179873E+03  0.64999939449E+03  0.72658046737E+03  0.12500000000E+03 0.  0.
         21    1    1    2  503  502 -0.92691617749E+02  0.28496179873E+03  0.26478823456E+03  0.39988469826E+03  0.00000000000E+00 0.  1.
<mgrwt>
<rscale>  3 0.32468440E+03</rscale>
<asrwt>0</asrwt>
<pdfrwt beam="1">  1       21 0.15701944E+00 0.32468440E+03</pdfrwt>
<pdfrwt beam="2">  1       21 0.16282888E-01 0.32468440E+03</pdfrwt>
<totfact> 0.82428983E+03</totfact>
</mgrwt>
</event>
<event>
 4    0  0.1327708E-001  0.2485555E+03  0.7546771E-02  0.1114221E+00
         21   -1    0    0  502  501  0.00000000000E+00  0.00000000000E+00  0.69635570605E+03  0.69635570605E+03  0.00000000000E+00 0.  1.
         21   -1    0    0  503  502 -0.00000000000E+00 -0.00000000000E+00 -0.99021759777E+02  0.99021759777E+02  0.00000000000E+00 0.  1.
         25    1    1    2    0    0 -0.20287746368E+03 -0.70679447265E+02  0.50235454407E+03  0.56048187971E+03  0.12500000000E+03 0.  0.
         21    1    1    2  503  501  0.20287746368E+03  0.70679447265E+02  0.94979402206E+02  0.23489558612E+03  0.00000000000E+00 0.  1.
<mgrwt>
<rscale>  3 0.24855553E+03</rscale>
<asrwt>0</asrwt>
<pdfrwt beam="1">  1       21 0.10713164E+00 0.24855553E+03</pdfrwt>
<pdfrwt beam="2">  1       21 0.15234117E-01 0.24855553E+03</pdfrwt>
<totfact> 0.25753008E+04</totfact>
</mgrwt>
</event>
<event>
 4    0  0.1003929E-001  0.2545440E+03  0.7546771E-02  0.1110466E+00
         21   -1    0    0  503  501  0.00000000000E+00  0.00000000000E+00  0.15081804334E+04  0.15081804334E+04  0.00000000000E+00 0. -1.
         21   -1    0    0  501  502 -0.00000000000E+00 -0.00000000000E+00 -0.54053480837E+02  0.54053480837E+02  0.00000000000E+00 0. -1.
         25    1    1    2    0    0  0.22082528365E+03  0.20096319944E+02  0.11921155473E+04  0.12189881649E+04  0.12500000000E+03 0.  0.
         21    1    1    2  503  502 -0.22082528365E+03 -0.20096319944E+02  0.26201140527E+03  0.34324574937E+03  0.00000000000E+00 0. -1.
<mgrwt>
<rscale>  3 0.25454404E+03</rscale>
<asrwt>0</asrwt>
<pdfrwt beam="1">  1       21 0.23202773E+00 0.25454404E+03</pdfrwt>
<pdfrwt beam="2">  1       21 0.83159213E-02 0.25454404E+03</pdfrwt>
<totfact> 0.90673832E+03</totfact>
</mgrwt>
</event>
<event>
 4    0  0.1003929E-001  0.2450273E+03  0.7546771E-02  0.1116488E+00
         21   -1    0    0  502  501  0.00000000000E+00  0.00000000000E+00  0.49874898283E+02  0.49874898283E+02  0.00000000000E+00 0.  1.
         21   -1    0    0  503  502 -0.00000000000E+00 -0.00000000000E+00 -0.14772610824E+04  0.14772610824E+04  0.00000000000E+00 0. -1.
         25    1    1    2    0    0 -0.14545966190E+03  0.15249552370E+03 -0.33753008322E+03  0.41709106328E+03  0.12500000000E+03 0.  0.
         21    1    1    2  503  501  0.14545966190E+03 -0.15249552370E+03 -0.10898561009E+04  0.11100449174E+04  0.00000000000E+00 0. -1.
<mgrwt>
<rscale>  3 0.24502734E+03</rscale>
<asrwt>0</asrwt>
<pdfrwt beam="1">  1       21 0.76730626E-02 0.24502734E+03</pdfrwt>
<pdfrwt beam="2">  1       21 0.22727090E+00 0.24502734E+03</pdfrwt>
<totfact> 0.11238162E+04</totfact>
</mgrwt>
</event>
<event>
 4    0  0.1366478E-001  0.2715727E+03  0.7546771E-02  0.1100383E+00
         21   -1    0    0  503  501  0.00000000000E+00  0.00000000000E+00  0.11128415015E+03  0.11128415015E+03  0.00000000000E+00 0.  1.
         21   -1    0    0  501  502 -0.00000000000E+00 -0.00000000000E+00 -0.59134694508E+03  0.59134694508E+03  0.00000000000E+00 0.  1.
         25    1    1    2    0    0 -0.91859574351E+02  0.22290924997E+03 -0.24057094373E+03  0.36280310650E+03  0.12500000000E+03 0.  0.
         21    1    1    2  503  502  0.91859574351E+02 -0.22290924997E+03 -0.23949185120E+03  0.33982798872E+03  0.00000000000E+00 0.  1.
<mgrwt>
<rscale>  3 0.27157267E+03</rscale>
<asrwt>0</asrwt>
<pdfrwt beam="1">  1       21 0.17120638E-01 0.27157267E+03</pdfrwt>
<pdfrwt beam="2">  1       21 0.90976454E-01 0.27157267E+03</pdfrwt>
<totfact> 0.30351298E+04</totfact>
</mgrwt>
</event>
<event>
 4    0  0.1003929E-001  0.2841876E+03  0.7546771E-02  0.1093424E+00
         21   -1    0    0  502  501  0.00000000000E+00  0.00000000000E+00  0.92272740734E+03  0.92272740734E+03  0.00000000000E+00 0.  1.
         21   -1    0    0  503  502 -0.00000000000E+00 -0.00000000000E+00 -0.10410547711E+03  0.10410547711E+03  0.00000000000E+00 0. -1.
         25    1    1    2    0    0 -0.32071724590E+02  0.25319751140E+03  0.67864765180E+03  0.73574806190E+03  0.12500000000E+03 0.  0.
         21    1    1    2  503  501  0.32071724590E+02 -0.25319751140E+03  0.13997427842E+03  0.29108482255E+03  0.00000000000E+00 0. -1.
<mgrwt>
<rscale>  3 0.28418757E+03</rscale>
<asrwt>0</asrwt>
<pdfrwt beam="1">  1       21 0.14195806E+00 0.28418757E+03</pdfrwt>
<pdfrwt beam="2">  1       21 0.16016228E-01 0.28418757E+03</pdfrwt>
<totfact> 0.11355031E+04</totfact>
</mgrwt>
</event>
<event>
 4    0  0.1272008E-001  0.2612847E+03  0.7546771E-02  0.1106374E+00
         21   -1    0    0  503  501  0.00000000000E+00  0.00000000000E+00  0.72534350297E+03  0.72534350297E+03  0.00000000000E+00 0. -1.
         21   -1    0    0  501  502 -0.00000000000E+00 -0.00000000000E+00 -0.14488409670E+03  0.14488409670E+03  0.00000000000E+00 0. -1.
         25    1    1    2    0    0  0.13274475545E+03  0.18714579458E+03  0.58504254174E+03  0.64073746119E+03  0.12500000000E+03 0.  0.
         21    1    1    2  503  502 -0.13274475545E+03 -0.18714579458E+03 -0.45831354616E+01  0.22949013848E+03  0.00000000000E+00 0. -1.
<mgrwt>
<rscale>  3 0.26128475E+03</rscale>
<asrwt>0</asrwt>
<pdfrwt beam="1">  1       21 0.11159131E+00 0.26128475E+03</pdfrwt>
<pdfrwt beam="2">  1       21 0.22289861E-01 0.26128475E+03</pdfrwt>
<totfact> 0.11386366E+04</totfact>
</mgrwt>
</event>
<event>
 4    0  0.1492981E-001  0.2434598E+03  0.7546771E-02  0.1117509E+00
         21   -1    0    0  502  501  0.00000000000E+00  0.00000000000E+00  0.16517598477E+03  0.16517598477E+03  0.00000000000E+00 0. -1.
         21   -1    0    0  503  502 -0.00000000000E+00 -0.00000000000E+00 -0.38100413144E+03  0.38100413144E+03  0.00000000000E+00 0. -1.
         25    1    1    2    0    0  0.18182458013E+03  0.10289547588E+03  0.32132138164E+01  0.24348096771E+03  0.12500000000E+03 0.  0.
         21    1    1    2  503  501 -0.18182458013E+03 -0.10289547588E+03 -0.21904136049E+03  0.30269914850E+03  0.00000000000E+00 0. -1.
<mgrwt>
<rscale>  3 0.24345976E+03</rscale>
<asrwt>0</asrwt>
<pdfrwt beam="1">  1       21 0.25411690E-01 0.24345976E+03</pdfrwt>
<pdfrwt beam="2">  1       21 0.58616020E-01 0.24345976E+03</pdfrwt>
<totfact> 0.39029343E+04</totfact>
</mgrwt>
</event>
<event>
 4    0  0.1326638E-001  0.2938910E+03  0.7546771E-02  0.1088335E+00
         21   -1    0    0  502  501  0.00000000000E+00  0.00000000000E+00  0.59484226670E+02  0.59484226670E+02  0.00000000000E+00 0. -1.
         21   -1    0    0  503  502 -0.00000000000E+00 -0.00000000000E+00 -0.13966274399E+04  0.13966274399E+04  0.00000000000E+00 0. -1.
         25    1    1    2    0    0 -0.20793541678E+03 -0.16586065026E+03 -0.52680847062E+03  0.60324046414E+03  0.12500000000E+03 0.  0.
         21    1    1    2  503  501  0.20793541678E+03  0.16586065026E+03 -0.81033474256E+03  0.85287120239E+03  0.00000000000E+00 0. -1.
<mgrwt>
<rscale>  3 0.29389095E+03</rscale>
<asrwt>0</asrwt>
<pdfrwt beam="1">  1       21 0.91514192E-02 0.29389095E+03</pdfrwt>
<pdfrwt beam="2">  1       21 0.21486577E+00 0.29389095E+03</pdfrwt>
<totfact> 0.95440955E+03</totfact>
</mgrwt>
</event>
<event>
 4    0  0.1461141E-001  0.2773699E+03  0.7546771E-02  0.1097134E+00
         21   -1    0    0  503  501  0.00000000000E+00  0.00000000000E+00  0.14893476257E+03  0.14893476257E+03  0.00000000000E+00 0.  1.
         21   -1    0    0  501  502 -0.00000000000E+00 -0.00000000000E+00 -0.56266326747E+03  0.56266326747E+03  0.00000000000E+00 0.  1.
         25    1    1    2    0    0 -0.63810469364E+02  0.23924309344E+03 -0.66676012771E+02  0.28527131724E+03  0.12500000000E+03 0.  0.
         21    1    1    2  503  502  0.63810469364E+02 -0.23924309344E+03 -0.34705249213E+03  0.42632671281E+03  0.00000000000E+00 0.  1.
<mgrwt>
<rscale>  3 0.27736985E+03</rscale>
<asrwt>0</asrwt>
<pdfrwt beam="1">  1       21 0.22913041E-01 0.27736985E+03</pdfrwt>
<pdfrwt beam="2">  1       21 0.86563579E-01 0.27736985E+03</pdfrwt>
<totfact> 0.19646248E+04</totfact>
</mgrwt>
</event>
<event>
 4    0  0.1104161E-001  0.6073114E+03  0.7546771E-02  0.9890352E-01
         21   -1    0    0  502  501  0.00000000000E+00  0.00000000000E+00  0.74886786405E+03  0.74886786405E+03  0.00000000000E+00 0.  1.
         21   -1    0    0  503  502 -0.00000000000E+00 -0.00000000000E+00 -0.67766007741E+03  0.67766007741E+03  0.00000000000E+00 0. -1.
         25    1    1    2    0    0  0.51831066915E+03 -0.29078547308E+03  0.41910009116E+03  0.73788347828E+03  0.12500000000E+03 0.  0.
         21    1    1    2  503  501 -0.51831066915E+03  0.29078547308E+03 -0.34789230452E+03  0.68864446317E+03  0.00000000000E+00 0. -1.
<mgrwt>
<rscale>  3 0.60731140E+03</rscale>
<asrwt>0</asrwt>
<pdfrwt beam="1">  1       21 0.11521044E+00 0.60731140E+03</pdfrwt>
<pdfrwt beam="2">  1       21 0.10425540E+00 0.60731140E+03</pdfrwt>
<totfact> 0.33800372E+02</totfact>
</mgrwt>
</event>
<event>
 4    0  0.1379527E-001  0.3169180E+03  0.7546771E-02  0.1077077E+00
         21   -1    0    0  502  501  0.00000000000E+00  0.00000000000E+00  0.15429892815E+03  0.15429892815E+03  0.00000000000E+00 0.  1.
         21   -1    0    0  503  502 -0.00000000000E+00 -0.00000000000E+00 -0.73956499831E+03  0.73956499831E+03  0.00000000000E+00 0.  1.
         25    1    1    2    0    0  0.19254945438E+03  0.21848733173E+03 -0.10809951646E+03  0.33484699785E+03  0.12500000000E+03 0.  0.
         21    1    1    2  503  501 -0.19254945438E+03 -0.21848733173E+03 -0.47716655370E+03  0.55901692862E+03  0.00000000000E+00 0.  1.
<mgrwt>
<rscale>  3 0.31691798E+03</rscale>
<asrwt>0</asrwt>
<pdfrwt beam="1">  1       21 0.23738296E-01 0.31691798E+03</pdfrwt>
<pdfrwt beam="2">  1       21 0.11377923E+00 0.31691798E+03</pdfrwt>
<totfact> 0.93673720E+03</totfact>
</mgrwt>
</event>
<event>
 4    0  0.1391200E-001  0.2629642E+03  0.7546771E-02  0.1105375E+00
         21   -1    0    0  503  501  0.00000000000E+00  0.00000000000E+00  0.13586448708E+03  0.13586448708E+03  0.00000000000E+00 0.  1.
         21   -1    0    0  501  502 -0.00000000000E+00 -0.00000000000E+00 -0.65209899401E+03  0.65209899401E+03  0.00000000000E+00 0.  1.
         25    1    1    2    0    0  0.23065030619E+03 -0.18044409118E+02 -0.50271494102E+02  0.26772632961E+03  0.12500000000E+03 0.  0.
         21    1    1    2  503  502 -0.23065030619E+03  0.18044409118E+02 -0.46596301283E+03  0.52023715148E+03  0.00000000000E+00 0.  1.
<mgrwt>
<rscale>  3 0.26296419E+03</rscale>
<asrwt>0</asrwt>
<pdfrwt beam="1">  1       21 0.20902229E-01 0.26296419E+03</pdfrwt>
<pdfrwt beam="2">  1       21 0.10032292E+00 0.26296419E+03</pdfrwt>
<totfact> 0.16637423E+04</totfact>
</mgrwt>
</event>
<event>
 4    0  0.1972331E-001  0.2379083E+03  0.7546771E-02  0.1121194E+00
         21   -1    0    0  502  501  0.00000000000E+00  0.00000000000E+00  0.16359880307E+03  0.16359880307E+03  0.00000000000E+00 0.  1.
         21   -1    0    0  503  502 -0.00000000000E+00 -0.00000000000E+00 -0.97489943289E+03  0.97489943289E+03  0.00000000000E+00 0. -1.
         25    1    1    2    0    0 -0.20182564875E+03  0.15549264824E+02  0.58877895608E+02  0.24508565588E+03  0.12500000000E+03 0.  0.
         21    1    1    2  503  501  0.20182564875E+03 -0.15549264824E+02 -0.87017852542E+03  0.89341258007E+03  0.00000000000E+00 0. -1.
<mgrwt>
<rscale>  3 0.23790833E+03</rscale>
<asrwt>0</asrwt>
<pdfrwt beam="1">  1       21 0.25169046E-01 0.23790833E+03</pdfrwt>
<pdfrwt beam="2">  1       21 0.14998453E+00 0.23790833E+03</pdfrwt>
<totfact> 0.43126031E+03</totfact>
</mgrwt>
</event>
<event>
 4    0  0.1338619E-001  0.3886643E+03  0.7546771E-02  0.1047777E+00
         21   -1    0    0  503  501  0.00000000000E+00  0.00000000000E+00  0.16238092852E+03  0.16238092852E+03  0.00000000000E+00 0.  1.
         21   -1    0    0  501  502 -0.00000000000E+00 -0.00000000000E+00 -0.88974260311E+03  0.88974260311E+03  0.00000000000E+00 0.  1.
         25    1    1    2    0    0  0.33228628193E+02  0.36651165082E+03 -0.42408974520E+03  0.57524954924E+03  0.12500000000E+03 0.  0.
         21    1    1    2  503  502 -0.33228628193E+02 -0.36651165082E+03 -0.30327192939E+03  0.47687398239E+03  0.00000000000E+00 0.  1.
<mgrwt>
<rscale>  3 0.38866429E+03</rscale>
<asrwt>0</asrwt>
<pdfrwt beam="1">  1       21 0.24981682E-01 0.38866429E+03</pdfrwt>
<pdfrwt beam="2">  1       21 0.13688348E+00 0.38866429E+03</pdfrwt>
<totfact> 0.51412615E+03</totfact>
</mgrwt>
</event>
<event>
 4    0  0.1003929E-001  0.7088028E+03  0.7546771E-02  0.9702296E-01
         21   -1    0    0  502  501  0.00000000000E+00  0.00000000000E+00  0.18716230624E+04  0.18716230624E+04  0.00000000000E+00 0.  1.
         21   -1    0    0  503  502 -0.00000000000E+00 -0.00000000000E+00 -0.49161728466E+03  0.49161728466E+03  0.00000000000E+00 0.  1.
         25    1    1    2    0    0  0.46581109578E+02 -0.69613694272E+03  0.14965145167E+04  0.16558856064E+04  0.12500000000E+03 0.  0.
         21    1    1    2  503  501 -0.46581109578E+02  0.69613694272E+03 -0.11650873903E+03  0.70735474060E+03  0.00000000000E+00 0.  1.
<mgrwt>
<rscale>  3 0.70880282E+03</rscale>
<asrwt>0</asrwt>
<pdfrwt beam="1">  1       21 0.28794201E+00 0.70880282E+03</pdfrwt>
<pdfrwt beam="2">  1       21 0.75633429E-01 0.70880282E+03</pdfrwt>
<totfact> 0.41723460E+01</totfact>
</mgrwt>
</event>
<event>
 4    0  0.1142055E-001  0.2606987E+03  0.7546771E-02  0.1106724E+00
         21   -1    0    0  502  501  0.00000000000E+00  0.00000000000E+00  0.80166263275E+02  0.80166263275E+02  0.00000000000E+00 0.  1.
         21   -1    0    0  503  502 -0.00000000000E+00 -0.00000000000E+00 -0.82331976248E+03  0.82331976248E+03  0.00000000000E+00 0.  1.
         25    1    1    2    0    0  0.22871296780E+03 -0.54032765626E+01 -0.53070237892E+03  0.59127728861E+03  0.12500000000E+03 0.  0.
         21    1    1    2  503  501 -0.22871296780E+03  0.54032765626E+01 -0.21245112028E+03  0.31220873714E+03  0.00000000000E+00 0.  1.
<mgrwt>
<rscale>  3 0.26069871E+03</rscale>
<asrwt>0</asrwt>
<pdfrwt beam="1">  1       21 0.12333271E-01 0.26069871E+03</pdfrwt>
<pdfrwt beam="2">  1       21 0.12666458E+00 0.26069871E+03</pdfrwt>
<totfact> 0.24835958E+04</totfact>
</mgrwt>
</event>
<event>
 4    0  0.1337752E-001  0.2483972E+03  0.7546771E-02  0.1114322E+00
         21   -1    0    0  503  501  0.00000000000E+00  0.00000000000E+00  0.44062821525E+03  0.44062821525E+03  0.00000000000E+00 0. -1.
         21   -1    0    0  501  502 -0.00000000000E+00 -0.00000000000E+00 -0.31779961888E+03  0.31779961888E+03  0.00000000000E+00 0. -1.
         25    1    1    2    0    0 -0.19722242715E+03  0.84731976509E+02  0.36074287671E+03  0.43799157150E+03  0.12500000000E+03 0.  0.
         21    1    1    2  503  502  0.19722242715E+03 -0.84731976509E+02 -0.23791428034E+03  0.32043626262E+03  0.00000000000E+00 0. -1.
<mgrwt>
<rscale>  3 0.24839725E+03</rscale>
<asrwt>0</asrwt>
<pdfrwt beam="1">  1       21 0.67788956E-01 0.24839725E+03</pdfrwt>
<pdfrwt beam="2">  1       21 0.48892249E-01 0.24839725E+03</pdfrwt>
<totfact> 0.76531612E+03</totfact>
</mgrwt>
</event>
<event>
 4    0  0.1445868E-001  0.3667048E+03  0.7546771E-02  0.1055960E+00
         21   -1    0    0  503  501  0.00000000000E+00  0.00000000000E+00  0.30102424046E+03  0.30102424046E+03  0.00000000000E+00 0.  1.
         21   -1    0    0  501  502 -0.00000000000E+00 -0.00000000000E+00 -0.50058384434E+03  0.50058384434E+03  0.00000000000E+00 0.  1.
         25    1    1    2    0    0  0.33722979288E+03  0.71578524741E+02  0.58018916427E+02  0.37126622938E+03  0.12500000000E+03 0.  0.
         21    1    1    2  503  502 -0.33722979288E+03 -0.71578524741E+02 -0.25757852031E+03  0.43034185543E+03  0.00000000000E+00 0.  1.
<mgrwt>
<rscale>  3 0.36670481E+03</rscale>
<asrwt>0</asrwt>
<pdfrwt beam="1">  1       21 0.46311422E-01 0.36670481E+03</pdfrwt>
<pdfrwt beam="2">  1       21 0.77012899E-01 0.36670481E+03</pdfrwt>
<totfact> 0.60859141E+03</totfact>
</mgrwt>
</event>
<event>
 4    0  0.1103314E-001  0.3486855E+03  0.7546771E-02  0.1063156E+00
         21   -1    0    0  502  501  0.00000000000E+00  0.00000000000E+00  0.71706802802E+03  0.71706802802E+03  0.00000000000E+00 0.  1.
         21   -1    0    0  503  502 -0.00000000000E+00 -0.00000000000E+00 -0.30023359019E+03  0.30023359019E+03  0.00000000000E+00 0.  1.
         25    1    1    2    0    0 -0.20845932448E+02 -0.32484149397E+03  0.56160840684E+03  0.66104882705E+03  0.12500000000E+03 0.  0.
         21    1    1    2  503  501  0.20845932448E+02  0.32484149397E+03 -0.14477396901E+03  0.35625279116E+03  0.00000000000E+00 0.  1.
<mgrwt>
<rscale>  3 0.34868546E+03</rscale>
<asrwt>0</asrwt>
<pdfrwt beam="1">  1       21 0.11031816E+00 0.34868546E+03</pdfrwt>
<pdfrwt beam="2">  1       21 0.46189783E-01 0.34868546E+03</pdfrwt>
<totfact> 0.26308260E+03</totfact>
</mgrwt>
</event>
<event>
 4    0  0.1465134E-001  0.2504060E+03  0.7546771E-02  0.1113049E+00
         21   -1    0    0  503  501  0.00000000000E+00  0.00000000000E+00  0.67430072826E+02  0.67430072826E+02  0.00000000000E+00 0. -1.
         21   -1    0    0  501  502 -0.00000000000E+00 -0.00000000000E+00 -0.87048338307E+03  0.87048338307E+03  0.00000000000E+00 0. -1.
         25    1    1    2    0    0 -0.11775088177E+03  0.18224404969E+03 -0.30482052577E+03  0.39448538216E+03  0.12500000000E+03 0.  0.
         21    1    1    2  503  502  0.11775088177E+03 -0.18224404969E+03 -0.49823278447E+03  0.54342807374E+03  0.00000000000E+00 0. -1.
<mgrwt>
<rscale>  3 0.25040600E+03</rscale>
<asrwt>0</asrwt>
<pdfrwt beam="1">  1       21 0.10373858E-01 0.25040600E+03</pdfrwt>
<pdfrwt beam="2">  1       21 0.13392052E+00 0.25040600E+03</pdfrwt>
<totfact> 0.29532555E+04</totfact>
</mgrwt>
</event>
<event>
 4    0  0.1575848E-001  0.2687761E+03  0.7546771E-02  0.1101982E+00
         21   -1    0    0  503  501  0.00000000000E+00  0.00000000000E+00  0.17487323663E+03  0.17487323663E+03  0.00000000000E+00 0. -1.
         21   -1    0    0  501  502 -0.00000000000E+00 -0.00000000000E+00 -0.44139806058E+03  0.44139806058E+03  0.00000000000E+00 0. -1.
         25    1    1    2    0    0  0.30225860946E+02  0.23601266666E+03 -0.13754083231E+02  0.26912776947E+03  0.12500000000E+03 0.  0.
         21    1    1    2  503  502 -0.30225860946E+02 -0.23601266666E+03 -0.25277074072E+03  0.34714352775E+03  0.00000000000E+00 0. -1.
<mgrwt>
<rscale>  3 0.26877608E+03</rscale>
<asrwt>0</asrwt>
<pdfrwt beam="1">  1       21 0.26903575E-01 0.26877608E+03</pdfrwt>
<pdfrwt beam="2">  1       21 0.67907393E-01 0.26877608E+03</pdfrwt>
<totfact> 0.25085747E+04</totfact>
</mgrwt>
</event>
<event>
 4    0  0.1003929E-001  0.3082579E+03  0.7546771E-02  0.1081184E+00
         21   -1    0    0  502  501  0.00000000000E+00  0.00000000000E+00  0.56016168138E+03  0.56016168138E+03  0.00000000000E+00 0. -1.
         21   -1    0    0  503  502 -0.00000000000E+00 -0.00000000000E+00 -0.16440775488E+03  0.16440775488E+03  0.00000000000E+00 0.  1.
         25    1    1    2    0    0 -0.24416476296E+03  0.14064664070E+03  0.29110724111E+03  0.42398860225E+03  0.12500000000E+03 0.  0.
         21    1    1    2  503  501  0.24416476296E+03 -0.14064664070E+03  0.10464668539E+03  0.30058083401E+03  0.00000000000E+00 0.  1.
<mgrwt>
<rscale>  3 0.30825786E+03</rscale>
<asrwt>0</asrwt>
<pdfrwt beam="1">  1       21 0.86178719E-01 0.30825786E+03</pdfrwt>
<pdfrwt beam="2">  1       21 0.25293501E-01 0.30825786E+03</pdfrwt>
<totfact> 0.16205192E+04</totfact>
</mgrwt>
</event>
<event>
 4    0  0.1459334E-001  0.2404716E+03  0.7546771E-02  0.1119479E+00
         21   -1    0    0  503  501  0.00000000000E+00  0.00000000000E+00  0.71581259674E+02  0.71581259674E+02  0.00000000000E+00 0. -1.
         21   -1    0    0  501  502 -0.00000000000E+00 -0.00000000000E+00 -0.71445062125E+03  0.71445062125E+03  0.00000000000E+00 0. -1.
         25    1    1    2    0    0 -0.23502274126E+02  0.20408142410E+03 -0.28036932911E+03  0.36936911790E+03  0.12500000000E+03 0.  0.
         21    1    1    2  503  502  0.23502274126E+02 -0.20408142410E+03 -0.36250003247E+03  0.41666276302E+03  0.00000000000E+00 0. -1.
<mgrwt>
<rscale>  3 0.24047159E+03</rscale>
<asrwt>0</asrwt>
<pdfrwt beam="1">  1       21 0.11012502E-01 0.24047159E+03</pdfrwt>
<pdfrwt beam="2">  1       21 0.10991548E+00 0.24047159E+03</pdfrwt>
<totfact> 0.43695234E+04</totfact>
</mgrwt>
</event>
<event>
 4    0  0.1056128E-001  0.2793358E+03  0.7546771E-02  0.1096052E+00
         21   -1    0    0  503  501  0.00000000000E+00  0.00000000000E+00  0.24250235393E+03  0.24250235393E+03  0.00000000000E+00 0.  1.
         21   -1    0    0  501  502 -0.00000000000E+00 -0.00000000000E+00 -0.73360897933E+03  0.73360897933E+03  0.00000000000E+00 0.  1.
         25    1    1    2    0    0 -0.58815496749E+02 -0.24278432144E+03  0.12892184653E+03  0.30765131546E+03  0.12500000000E+03 0.  0.
         21    1    1    2  503  502  0.58815496749E+02  0.24278432144E+03 -0.62002847193E+03  0.66846001780E+03  0.00000000000E+00 0.  1.
<mgrwt>
<rscale>  3 0.27933580E+03</rscale>
<asrwt>0</asrwt>
<pdfrwt beam="1">  1       21 0.37308054E-01 0.27933580E+03</pdfrwt>
<pdfrwt beam="2">  1       21 0.11286292E+00 0.27933580E+03</pdfrwt>
<totfact> 0.40010592E+03</totfact>
</mgrwt>
</event>
<event>
 4    0  0.1365674E-001  0.2681329E+03  0.7546771E-02  0.1102353E+00
         21   -1    0    0  502  501  0.00000000000E+00  0.00000000000E+00  0.32858086344E+03  0.32858086344E+03  0.00000000000E+00 0. -1.
         21   -1    0    0  503  502 -0.00000000000E+00 -0.00000000000E+00 -0.36887242788E+03  0.36887242788E+03  0.00000000000E+00 0. -1.
         25    1    1    2    0    0  0.21537249103E+03  0.99423155884E+02  0.21886978238E+03  0.34612029045E+03  0.12500000000E+03 0.  0.
         21    1    1    2  503  501 -0.21537249103E+03 -0.99423155884E+02 -0.25916134682E+03  0.35133300088E+03  0.00000000000E+00 0. -1.
<mgrwt>
<rscale>  3 0.26813294E+03</rscale>
<asrwt>0</asrwt>
<pdfrwt beam="1">  1       21 0.50550902E-01 0.26813294E+03</pdfrwt>
<pdfrwt beam="2">  1       21 0.56749605E-01 0.26813294E+03</pdfrwt>
<totfact> 0.10392983E+04</totfact>
</mgrwt>
</event>
<event>
 4    0  0.1452170E-001  0.2430013E+03  0.7546771E-02  0.1117809E+00
         21   -1    0    0  503  501  0.00000000000E+00  0.00000000000E+00  0.69055033263E+03  0.69055033263E+03  0.00000000000E+00 0. -1.
         21   -1    0    0  501  502 -0.00000000000E+00 -0.00000000000E+00 -0.95758940396E+02  0.95758940396E+02  0.00000000000E+00 0. -1.
         25    1    1    2    0    0  0.48607269519E+02 -0.20263750634E+03  0.50296102106E+03  0.55858698009E+03  0.12500000000E+03 0.  0.
         21    1    1    2  503  502 -0.48607269519E+02  0.20263750634E+03  0.91830371177E+02  0.22772229293E+03  0.00000000000E+00 0. -1.
<mgrwt>
<rscale>  3 0.24300129E+03</rscale>
<asrwt>0</asrwt>
<pdfrwt beam="1">  1       21 0.10623851E+00 0.24300129E+03</pdfrwt>
<pdfrwt beam="2">  1       21 0.14732145E-01 0.24300129E+03</pdfrwt>
<totfact> 0.28018969E+04</totfact>
</mgrwt>
</event>
<event>
 4    0  0.1402197E-001  0.3193715E+03  0.7546771E-02  0.1075939E+00
         21   -1    0    0  503  501  0.00000000000E+00  0.00000000000E+00  0.37694699000E+03  0.37694699000E+03  0.00000000000E+00 0.  1.
         21   -1    0    0  501  502 -0.00000000000E+00 -0.00000000000E+00 -0.26387133313E+03  0.26387133313E+03  0.00000000000E+00 0.  1.
         25    1    1    2    0    0  0.81661069956E+02  0.28232008618E+03 -0.16127439517E+02  0.31977844785E+03  0.12500000000E+03 0.  0.
         21    1    1    2  503  502 -0.81661069956E+02 -0.28232008618E+03  0.12920309639E+03  0.32103987528E+03  0.00000000000E+00 0.  1.
<mgrwt>
<rscale>  3 0.31937151E+03</rscale>
<asrwt>0</asrwt>
<pdfrwt beam="1">  1       21 0.57991844E-01 0.31937151E+03</pdfrwt>
<pdfrwt beam="2">  1       21 0.40595590E-01 0.31937151E+03</pdfrwt>
<totfact> 0.15290672E+04</totfact>
</mgrwt>
</event>
<event>
 4    0  0.1118478E-001  0.2366959E+03  0.7546771E-02  0.1122014E+00
         21   -1    0    0  503  501  0.00000000000E+00  0.00000000000E+00  0.43330926904E+03  0.43330926904E+03  0.00000000000E+00 0.  1.
         21   -1    0    0  501  502 -0.00000000000E+00 -0.00000000000E+00 -0.12189539347E+03  0.12189539347E+03  0.00000000000E+00 0.  1.
         25    1    1    2    0    0  0.19281066602E+03 -0.56780116856E+02  0.82713887033E+02  0.25073197185E+03  0.12500000000E+03 0.  0.
         21    1    1    2  503  502 -0.19281066602E+03  0.56780116856E+02  0.22869998854E+03  0.30447269066E+03  0.00000000000E+00 0.  1.
<mgrwt>
<rscale>  3 0.23669587E+03</rscale>
<asrwt>0</asrwt>
<pdfrwt beam="1">  1       21 0.66662964E-01 0.23669587E+03</pdfrwt>
<pdfrwt beam="2">  1       21 0.18753138E-01 0.23669587E+03</pdfrwt>
<totfact> 0.52606532E+04</totfact>
</mgrwt>
</event>
<event>
 4    0  0.1210852E-001  0.2379837E+03  0.7546771E-02  0.1121143E+00
         21   -1    0    0  502  501  0.00000000000E+00  0.00000000000E+00  0.23500607382E+03  0.23500607382E+03  0.00000000000E+00 0.  1.
         21   -1    0    0  503  502 -0.00000000000E+00 -0.00000000000E+00 -0.31761101046E+03  0.31761101046E+03  0.00000000000E+00 0. -1.
         25    1    1    2    0    0  0.13822204909E+03 -0.14800640746E+03  0.11967987938E+03  0.26638225359E+03  0.12500000000E+03 0.  0.
         21    1    1    2  503  501 -0.13822204909E+03  0.14800640746E+03 -0.20228481602E+03  0.28623483068E+03  0.00000000000E+00 0. -1.
<mgrwt>
<rscale>  3 0.23798368E+03</rscale>
<asrwt>0</asrwt>
<pdfrwt beam="1">  1       21 0.36154781E-01 0.23798368E+03</pdfrwt>
<pdfrwt beam="2">  1       21 0.48863232E-01 0.23798368E+03</pdfrwt>
<totfact> 0.28804656E+04</totfact>
</mgrwt>
</event>
<event>
 4    0  0.1282250E-001  0.4716650E+03  0.7546771E-02  0.1021451E+00
         21   -1    0    0  503  501  0.00000000000E+00  0.00000000000E+00  0.55482160175E+03  0.55482160175E+03  0.00000000000E+00 0.  1.
         21   -1    0    0  501  502 -0.00000000000E+00 -0.00000000000E+00 -0.45733328034E+03  0.45733328034E+03  0.00000000000E+00 0.  1.
         25    1    1    2    0    0 -0.47498077289E+01 -0.45477499471E+03  0.24826503038E+03  0.53301349120E+03  0.12500000000E+03 0.  0.
         21    1    1    2  503  502  0.47498077289E+01  0.45477499471E+03 -0.15077670897E+03  0.47914139088E+03  0.00000000000E+00 0.  1.
<mgrwt>
<rscale>  3 0.47166498E+03</rscale>
<asrwt>0</asrwt>
<pdfrwt beam="1">  1       21 0.85357169E-01 0.47166498E+03</pdfrwt>
<pdfrwt beam="2">  1       21 0.70358967E-01 0.47166498E+03</pdfrwt>
<totfact> 0.18596630E+03</totfact>
</mgrwt>
</event>
<event>
 4    0  0.1466388E-001  0.2417403E+03  0.7546771E-02  0.1118639E+00
         21   -1    0    0  502  501  0.00000000000E+00  0.00000000000E+00  0.79174532369E+02  0.79174532369E+02  0.00000000000E+00 0.  1.
         21   -1    0    0  503  502 -0.00000000000E+00 -0.00000000000E+00 -0.83877802132E+03  0.83877802132E+03  0.00000000000E+00 0.  1.
         25    1    1    2    0    0 -0.19583173846E+03 -0.66807878750E+02 -0.17675907213E+03  0.29946975145E+03  0.12500000000E+03 0.  0.
         21    1    1    2  503  501  0.19583173846E+03  0.66807878750E+02 -0.58284441682E+03  0.61848280224E+03  0.00000000000E+00 0.  1.
<mgrwt>
<rscale>  3 0.24174028E+03</rscale>
<asrwt>0</asrwt>
<pdfrwt beam="1">  1       21 0.12180697E-01 0.24174028E+03</pdfrwt>
<pdfrwt beam="2">  1       21 0.12904277E+00 0.24174028E+03</pdfrwt>
<totfact> 0.24457240E+04</totfact>
</mgrwt>
</event>
<event>
 4    0  0.1260975E-001  0.3940689E+03  0.7546771E-02  0.1045853E+00
         21   -1    0    0  502  501  0.00000000000E+00  0.00000000000E+00  0.22429704041E+03  0.22429704041E+03  0.00000000000E+00 0.  1.
         21   -1    0    0  503  502 -0.00000000000E+00 -0.00000000000E+00 -0.75029491486E+03  0.75029491486E+03  0.00000000000E+00 0.  1.
         25    1    1    2    0    0 -0.26635275570E+03  0.26214782976E+03 -0.97369214909E+02  0.40591999104E+03  0.12500000000E+03 0.  0.
         21    1    1    2  503  501  0.26635275570E+03 -0.26214782976E+03 -0.42862865954E+03  0.56867196422E+03  0.00000000000E+00 0.  1.
<mgrwt>
<rscale>  3 0.39406887E+03</rscale>
<asrwt>0</asrwt>
<pdfrwt beam="1">  1       21 0.34507237E-01 0.39406887E+03</pdfrwt>
<pdfrwt beam="2">  1       21 0.11542999E+00 0.39406887E+03</pdfrwt>
<totfact> 0.41922860E+03</totfact>
</mgrwt>
</event>
<event>
 4    0  0.2009856E-001  0.2743771E+03  0.7546771E-02  0.1098800E+00
         21   -1    0    0  503  501  0.00000000000E+00  0.00000000000E+00  0.74004877573E+03  0.74004877573E+03  0.00000000000E+00 0. -1.
         21   -1    0    0  501  502 -0.00000000000E+00 -0.00000000000E+00 -0.66888960680E+03  0.66888960680E+03  0.00000000000E+00 0.  1.
         25    1    1    2    0    0 -0.10588018181E+01 -0.24424710271E+03  0.69058543378E+03  0.74309555886E+03  0.12500000000E+03 0.  0.
         21    1    1    2  503  502  0.10588018181E+01  0.24424710271E+03 -0.61942626486E+03  0.66584282367E+03  0.00000000000E+00 0.  1.
<mgrwt>
<rscale>  3 0.27437705E+03</rscale>
<asrwt>0</asrwt>
<pdfrwt beam="1">  1       21 0.11385366E+00 0.27437705E+03</pdfrwt>
<pdfrwt beam="2">  1       21 0.10290609E+00 0.27437705E+03</pdfrwt>
<totfact> 0.42586910E+02</totfact>
</mgrwt>
</event>
<event>
 4    0  0.1487891E-001  0.2557975E+03  0.7546771E-02  0.1109695E+00
         21   -1    0    0  503  501  0.00000000000E+00  0.00000000000E+00  0.59253830563E+02  0.59253830563E+02  0.00000000000E+00 0. -1.
         21   -1    0    0  501  502 -0.00000000000E+00 -0.00000000000E+00 -0.98266789819E+03  0.98266789819E+03  0.00000000000E+00 0. -1.
         25    1    1    2    0    0  0.19081428265E+03 -0.11574657414E+03 -0.42903678313E+03  0.49950467581E+03  0.12500000000E+03 0.  0.
         21    1    1    2  503  502 -0.19081428265E+03  0.11574657414E+03 -0.49437728450E+03  0.54241705293E+03  0.00000000000E+00 0. -1.
<mgrwt>
<rscale>  3 0.25579750E+03</rscale>
<asrwt>0</asrwt>
<pdfrwt beam="1">  1       21 0.91159742E-02 0.25579750E+03</pdfrwt>
<pdfrwt beam="2">  1       21 0.15117967E+00 0.25579750E+03</pdfrwt>
<totfact> 0.26968552E+04</totfact>
</mgrwt>
</event>
<event>
 4    0  0.1491673E-001  0.2929305E+03  0.7546771E-02  0.1088829E+00
         21   -1    0    0  502  501  0.00000000000E+00  0.00000000000E+00  0.94178486290E+03  0.94178486290E+03  0.00000000000E+00 0. -1.
         21   -1    0    0  503  502 -0.00000000000E+00 -0.00000000000E+00 -0.90300186202E+02  0.90300186202E+02  0.00000000000E+00 0. -1.
         25    1    1    2    0    0 -0.19299279759E+03  0.18148563047E+03  0.59573134395E+03  0.66385547234E+03  0.12500000000E+03 0.  0.
         21    1    1    2  503  501  0.19299279759E+03 -0.18148563047E+03  0.25575333275E+03  0.36822957677E+03  0.00000000000E+00 0. -1.
<mgrwt>
<rscale>  3 0.29293046E+03</rscale>
<asrwt>0</asrwt>
<pdfrwt beam="1">  1       21 0.14488997E+00 0.29293046E+03</pdfrwt>
<pdfrwt beam="2">  1       21 0.13892337E-01 0.29293046E+03</pdfrwt>
<totfact> 0.13912198E+04</totfact>
</mgrwt>
</event>
<event>
 4    0  0.1461420E-001  0.3387799E+03  0.7546771E-02  0.1067317E+00
         21   -1    0    0  502  501  0.00000000000E+00  0.00000000000E+00  0.50401998763E+03  0.50401998763E+03  0.00000000000E+00 0.  1.
         21   -1    0    0  503  502 -0.00000000000E+00 -0.00000000000E+00 -0.21693540281E+03  0.21693540281E+03  0.00000000000E+00 0.  1.
         25    1    1    2    0    0 -0.30994579031E+03 -0.55501305297E+02  0.93944485566E+02  0.35156415373E+03  0.12500000000E+03 0.  0.
         21    1    1    2  503  501  0.30994579031E+03  0.55501305297E+02  0.19314009925E+03  0.36939123671E+03  0.00000000000E+00 0.  1.
<mgrwt>
<rscale>  3 0.33877985E+03</rscale>
<asrwt>0</asrwt>
<pdfrwt beam="1">  1       21 0.77541536E-01 0.33877985E+03</pdfrwt>
<pdfrwt beam="2">  1       21 0.33374678E-01 0.33877985E+03</pdfrwt>
<totfact> 0.11837032E+04</totfact>
</mgrwt>
</event>
<event>
 4    0  0.1651647E-001  0.2823826E+03  0.7546771E-02  0.1094395E+00
         21   -1    0    0  502  501  0.00000000000E+00  0.00000000000E+00  0.30000493682E+03  0.30000493682E+03  0.00000000000E+00 0.  1.
         21   -1    0    0  503  502 -0.00000000000E+00 -0.00000000000E+00 -0.25264888790E+03  0.25264888790E+03  0.00000000000E+00 0.  1.
         25    1    1    2    0    0 -0.25304464325E+03  0.91291528977E+01  0.88928754251E+02  0.29605448188E+03  0.12500000000E+03 0.  0.
         21    1    1    2  503  501  0.25304464325E+03 -0.91291528977E+01 -0.41572705333E+02  0.25659934283E+03  0.00000000000E+00 0.  1.
<mgrwt>
<rscale>  3 0.28238260E+03</rscale>
<asrwt>0</asrwt>
<pdfrwt beam="1">  1       21 0.46154606E-01 0.28238260E+03</pdfrwt>
<pdfrwt beam="2">  1       21 0.38869060E-01 0.28238260E+03</pdfrwt>
<totfact> 0.27503610E+04</totfact>
</mgrwt>
</event>
<event>
 4    0  0.1084202E-001  0.2934391E+03  0.7546771E-02  0.1088567E+00
         21   -1    0    0  502  501  0.00000000000E+00  0.00000000000E+00  0.58861243893E+03  0.58861243893E+03  0.00000000000E+00 0. -1.
         21   -1    0    0  503  502 -0.00000000000E+00 -0.00000000000E+00 -0.52056111949E+03  0.52056111949E+03  0.00000000000E+00 0. -1.
         25    1    1    2    0    0  0.25275777852E+03  0.81209828875E+02  0.51302669613E+03  0.59101854611E+03  0.12500000000E+03 0.  0.
         21    1    1    2  503  501 -0.25275777852E+03 -0.81209828875E+02 -0.44497537669E+03  0.51815501230E+03  0.00000000000E+00 0. -1.
<mgrwt>
<rscale>  3 0.29343914E+03</rscale>
<asrwt>0</asrwt>
<pdfrwt beam="1">  1       21 0.90555760E-01 0.29343914E+03</pdfrwt>
<pdfrwt beam="2">  1       21 0.80086326E-01 0.29343914E+03</pdfrwt>
<totfact> 0.13126615E+03</totfact>
</mgrwt>
</event>
<event>
 4    0  0.1452432E-001  0.3469790E+03  0.7546771E-02  0.1063862E+00
         21   -1    0    0  502  501  0.00000000000E+00  0.00000000000E+00  0.17903766436E+03  0.17903766436E+03  0.00000000000E+00 0.  1.
         21   -1    0    0  503  502 -0.00000000000E+00 -0.00000000000E+00 -0.64592047973E+03  0.64592047973E+03  0.00000000000E+00 0.  1.
         25    1    1    2    0    0 -0.32336550805E+03 -0.14289928144E+02 -0.17277568378E+03  0.38761564822E+03  0.12500000000E+03 0.  0.
         21    1    1    2  503  501  0.32336550805E+03  0.14289928144E+02 -0.29410713159E+03  0.43734249587E+03  0.00000000000E+00 0.  1.
<mgrwt>
<rscale>  3 0.34697904E+03</rscale>
<asrwt>0</asrwt>
<pdfrwt beam="1">  1       21 0.27544256E-01 0.34697904E+03</pdfrwt>
<pdfrwt beam="2">  1       21 0.99372383E-01 0.34697904E+03</pdfrwt>
<totfact> 0.96528604E+03</totfact>
</mgrwt>
</event>
<event>
 4    0  0.1770084E-001  0.2732815E+03  0.7546771E-02  0.1099416E+00
         21   -1    0    0  503  501  0.00000000000E+00  0.00000000000E+00  0.71725288866E+03  0.71725288866E+03  0.00000000000E+00 0.  1.
         21   -1    0    0  501  502 -0.00000000000E+00 -0.00000000000E+00 -0.33961755307E+03  0.33961755307E+03  0.00000000000E+00 0. -1.
         25    1    1    2    0    0 -0.36198580162E+02 -0.24030699693E+03  0.64202125386E+03  0.69776362788E+03  0.12500000000E+03 0.  0.
         21    1    1    2  503  502  0.36198580162E+02  0.24030699693E+03 -0.26438591827E+03  0.35910681386E+03  0.00000000000E+00 0. -1.
<mgrwt>
<rscale>  3 0.27328152E+03</rscale>
<asrwt>0</asrwt>
<pdfrwt beam="1">  1       21 0.11034660E+00 0.27328152E+03</pdfrwt>
<pdfrwt beam="2">  1       21 0.52248854E-01 0.27328152E+03</pdfrwt>
<totfact> 0.21159924E+03</totfact>
</mgrwt>
</event>
<event>
 4    0  0.1900149E-001  0.2473796E+03  0.7546771E-02  0.1114972E+00
         21   -1    0    0  503  501  0.00000000000E+00  0.00000000000E+00  0.14797147642E+04  0.14797147642E+04  0.00000000000E+00 0.  1.
         21   -1    0    0  501  502 -0.00000000000E+00 -0.00000000000E+00 -0.23458457991E+03  0.23458457991E+03  0.00000000000E+00 0. -1.
         25    1    1    2    0    0  0.58679460625E+02 -0.20525197605E+03  0.14181181081E+04  0.14395331261E+04  0.12500000000E+03 0.  0.
         21    1    1    2  503  502 -0.58679460625E+02  0.20525197605E+03 -0.17298792378E+03  0.27476621798E+03  0.00000000000E+00 0. -1.
<mgrwt>
<rscale>  3 0.24737957E+03</rscale>
<asrwt>0</asrwt>
<pdfrwt beam="1">  1       21 0.22764842E+00 0.24737957E+03</pdfrwt>
<pdfrwt beam="2">  1       21 0.36089936E-01 0.24737957E+03</pdfrwt>
<totfact> 0.62975987E+02</totfact>
</mgrwt>
</event>
<event>
 4    0  0.1476430E-001  0.2670031E+03  0.7546771E-02  0.1103007E+00
         21   -1    0    0  503  501  0.00000000000E+00  0.00000000000E+00  0.46416019709E+02  0.46416019709E+02  0.00000000000E+00 0. -1.
         21   -1    0    0  501  502 -0.00000000000E+00 -0.00000000000E+00 -0.13627896274E+04  0.13627896274E+04  0.00000000000E+00 0. -1.
         25    1    1    2    0    0  0.23580544112E+03  0.78386595170E+01 -0.71083162221E+03  0.75932354486E+03  0.12500000000E+03 0.  0.
         21    1    1    2  503  502 -0.23580544112E+03 -0.78386595170E+01 -0.60554198543E+03  0.64988210220E+03  0.00000000000E+00 0. -1.
<mgrwt>
<rscale>  3 0.26700309E+03</rscale>
<asrwt>0</asrwt>
<pdfrwt beam="1">  1       21 0.71409272E-02 0.26700309E+03</pdfrwt>
<pdfrwt beam="2">  1       21 0.20965991E+00 0.26700309E+03</pdfrwt>
<totfact> 0.16178999E+04</totfact>
</mgrwt>
</event>
<event>
 4    0  0.1587830E-001  0.2969904E+03  0.7546771E-02  0.1086755E+00
         21   -1    0    0  502  501  0.00000000000E+00  0.00000000000E+00  0.29277724540E+03  0.29277724540E+03  0.00000000000E+00 0.  1.
         21   -1    0    0  503  502 -0.00000000000E+00 -0.00000000000E+00 -0.28691934792E+03  0.28691934792E+03  0.00000000000E+00 0.  1.
         25    1    1    2    0    0  0.13638501531E+03 -0.23233041237E+03  0.64666249318E+02  0.30394903637E+03  0.12500000000E+03 0.  0.
         21    1    1    2  503  501 -0.13638501531E+03  0.23233041237E+03 -0.58808351836E+02  0.27574755694E+03  0.00000000000E+00 0.  1.
<mgrwt>
<rscale>  3 0.29699039E+03</rscale>
<asrwt>0</asrwt>
<pdfrwt beam="1">  1       21 0.45042653E-01 0.29699039E+03</pdfrwt>
<pdfrwt beam="2">  1       21 0.44141438E-01 0.29699039E+03</pdfrwt>
<totfact> 0.22163757E+04</totfact>
</mgrwt>
</event>
<event>
 4    0  0.1010579E-001  0.2403993E+03  0.7546771E-02  0.1119527E+00
         21   -1    0    0  502  501  0.00000000000E+00  0.00000000000E+00  0.84865413365E+02  0.84865413365E+02  0.00000000000E+00 0.  1.
         21   -1    0    0  503  502 -0.00000000000E+00 -0.00000000000E+00 -0.11091987778E+04  0.11091987778E+04  0.00000000000E+00 0.  1.
         25    1    1    2    0    0  0.20453201728E+03  0.18261928822E+02 -0.12377791699E+03  0.27039381811E+03  0.12500000000E+03 0.  0.
         21    1    1    2  503  501 -0.20453201728E+03 -0.18261928822E+02 -0.90055544748E+03  0.92367037308E+03  0.00000000000E+00 0.  1.
<mgrwt>
<rscale>  3 0.24039934E+03</rscale>
<asrwt>0</asrwt>
<pdfrwt beam="1">  1       21 0.13056218E-01 0.24039934E+03</pdfrwt>
<pdfrwt beam="2">  1       21 0.17064596E+00 0.24039934E+03</pdfrwt>
<totfact> 0.10288750E+04</totfact>
</mgrwt>
</event>
<event>
 4    0  0.1260353E-001  0.2499337E+03  0.7546771E-02  0.1113347E+00
         21   -1    0    0  502  501  0.00000000000E+00  0.00000000000E+00  0.50634055949E+02  0.50634055949E+02  0.00000000000E+00 0.  1.
         21   -1    0    0  503  502 -0.00000000000E+00 -0.00000000000E+00 -0.10815837962E+04  0.10815837962E+04  0.00000000000E+00 0.  1.
         25    1    1    2    0    0  0.99275908829E+02  0.19231782757E+03 -0.50451587938E+03  0.56303030595E+03  0.12500000000E+03 0.  0.
         21    1    1    2  503  501 -0.99275908829E+02 -0.19231782757E+03 -0.52643386091E+03  0.56918754623E+03  0.00000000000E+00 0.  1.
<mgrwt>
<rscale>  3 0.24993370E+03</rscale>
<asrwt>0</asrwt>
<pdfrwt beam="1">  1       21 0.77898551E-02 0.24993370E+03</pdfrwt>
<pdfrwt beam="2">  1       21 0.16639750E+00 0.24993370E+03</pdfrwt>
<totfact> 0.27479319E+04</totfact>
</mgrwt>
</event>
<event>
 4    0  0.1690887E-001  0.3137339E+03  0.7546771E-02  0.1078570E+00
         21   -1    0    0  503  501  0.00000000000E+00  0.00000000000E+00  0.39420571335E+03  0.39420571335E+03  0.00000000000E+00 0. -1.
         21   -1    0    0  501  502 -0.00000000000E+00 -0.00000000000E+00 -0.23292763881E+03  0.23292763881E+03  0.00000000000E+00 0. -1.
         25    1    1    2    0    0 -0.16371552477E+03 -0.23664565365E+03  0.45751830059E+02  0.31705231177E+03  0.12500000000E+03 0.  0.
         21    1    1    2  503  502  0.16371552477E+03  0.23664565365E+03  0.11552624448E+03  0.31008104039E+03  0.00000000000E+00 0. -1.
<mgrwt>
<rscale>  3 0.31373387E+03</rscale>
<asrwt>0</asrwt>
<pdfrwt beam="1">  1       21 0.60647033E-01 0.31373387E+03</pdfrwt>
<pdfrwt beam="2">  1       21 0.35835021E-01 0.31373387E+03</pdfrwt>
<totfact> 0.17914463E+04</totfact>
</mgrwt>
</event>
<event>
 4    0  0.1186846E-001  0.2673668E+03  0.7546771E-02  0.1102796E+00
         21   -1    0    0  502  501  0.00000000000E+00  0.00000000000E+00  0.11847026318E+04  0.11847026318E+04  0.00000000000E+00 0.  1.
         21   -1    0    0  503  502 -0.00000000000E+00 -0.00000000000E+00 -0.53739631896E+02  0.53739631896E+02  0.00000000000E+00 0.  1.
         25    1    1    2    0    0 -0.11622251568E+03  0.20579678525E+03  0.63761047265E+03  0.69139865837E+03  0.12500000000E+03 0.  0.
         21    1    1    2  503  501  0.11622251568E+03 -0.20579678525E+03  0.49335252723E+03  0.54704360530E+03  0.00000000000E+00 0.  1.
<mgrwt>
<rscale>  3 0.26736677E+03</rscale>
<asrwt>0</asrwt>
<pdfrwt beam="1">  1       21 0.18226192E+00 0.26736677E+03</pdfrwt>
<pdfrwt beam="2">  1       21 0.82676366E-02 0.26736677E+03</pdfrwt>
<totfact> 0.18976161E+04</totfact>
</mgrwt>
</event>
<event>
 4    0  0.1024428E-001  0.3022387E+03  0.7546771E-02  0.1084127E+00
         21   -1    0    0  503  501  0.00000000000E+00  0.00000000000E+00  0.21635332675E+03  0.21635332675E+03  0.00000000000E+00 0.  1.
         21   -1    0    0  501  502 -0.00000000000E+00 -0.00000000000E+00 -0.14067821870E+04  0.14067821870E+04  0.00000000000E+00 0.  1.
         25    1    1    2    0    0 -0.24392967664E+03 -0.12736374795E+03  0.88506458071E+02  0.31493111081E+03  0.12500000000E+03 0.  0.
         21    1    1    2  503  502  0.24392967664E+03  0.12736374795E+03 -0.12789353183E+04  0.13082044029E+04  0.00000000000E+00 0.  1.
<mgrwt>
<rscale>  3 0.30223867E+03</rscale>
<asrwt>0</asrwt>
<pdfrwt beam="1">  1       21 0.33285126E-01 0.30223867E+03</pdfrwt>
<pdfrwt beam="2">  1       21 0.21642804E+00 0.30223867E+03</pdfrwt>
<totfact> 0.82988772E+02</totfact>
</mgrwt>
</event>
<event>
 4    0  0.1411664E-001  0.2504044E+03  0.7546771E-02  0.1113050E+00
         21   -1    0    0  502  501  0.00000000000E+00  0.00000000000E+00  0.83726245866E+03  0.83726245866E+03  0.00000000000E+00 0. -1.
         21   -1    0    0  503  502 -0.00000000000E+00 -0.00000000000E+00 -0.83857986878E+02  0.83857986878E+02  0.00000000000E+00 0. -1.
         25    1    1    2    0    0  0.20539053840E+03 -0.69943352626E+02  0.61432581856E+03  0.66339924419E+03  0.12500000000E+03 0.  0.
         21    1    1    2  503  501 -0.20539053840E+03  0.69943352626E+02  0.13907865322E+03  0.25772120135E+03  0.00000000000E+00 0. -1.
<mgrwt>
<rscale>  3 0.25040436E+03</rscale>
<asrwt>0</asrwt>
<pdfrwt beam="1">  1       21 0.12880960E+00 0.25040436E+03</pdfrwt>
<pdfrwt beam="2">  1       21 0.12901229E-01 0.25040436E+03</pdfrwt>
<totfact> 0.22051261E+04</totfact>
</mgrwt>
</event>
<event>
 4    0  0.1060240E-001  0.2509649E+03  0.7546771E-02  0.1112697E+00
         21   -1    0    0  503  501  0.00000000000E+00  0.00000000000E+00  0.75153028263E+03  0.75153028263E+03  0.00000000000E+00 0.  1.
         21   -1    0    0  501  502 -0.00000000000E+00 -0.00000000000E+00 -0.52052744843E+03  0.52052744843E+03  0.00000000000E+00 0.  1.
         25    1    1    2    0    0 -0.16210983563E+03 -0.14518538145E+03  0.70616362190E+03  0.74943342245E+03  0.12500000000E+03 0.  0.
         21    1    1    2  503  502  0.16210983563E+03  0.14518538145E+03 -0.47516078769E+03  0.52262430862E+03  0.00000000000E+00 0.  1.
<mgrwt>
<rscale>  3 0.25096493E+03</rscale>
<asrwt>0</asrwt>
<pdfrwt beam="1">  1       21 0.11562004E+00 0.25096493E+03</pdfrwt>
<pdfrwt beam="2">  1       21 0.80081147E-01 0.25096493E+03</pdfrwt>
<totfact> 0.75177593E+02</totfact>
</mgrwt>
</event>
<event>
 4    0  0.1003929E-001  0.2473877E+03  0.7546771E-02  0.1114967E+00
         21   -1    0    0  502  501  0.00000000000E+00  0.00000000000E+00  0.12849806875E+04  0.12849806875E+04  0.00000000000E+00 0. -1.
         21   -1    0    0  503  502 -0.00000000000E+00 -0.00000000000E+00 -0.41342829005E+02  0.41342829005E+02  0.00000000000E+00 0.  1.
         25    1    1    2    0    0  0.19129499659E+03  0.94772995396E+02  0.68156767291E+03  0.72507598852E+03  0.12500000000E+03 0.  0.
         21    1    1    2  503  501 -0.19129499659E+03 -0.94772995396E+02  0.56207018556E+03  0.60124752795E+03  0.00000000000E+00 0.  1.
<mgrwt>
<rscale>  3 0.24738775E+03</rscale>
<asrwt>0</asrwt>
<pdfrwt beam="1">  1       21 0.19768931E+00 0.24738775E+03</pdfrwt>
<pdfrwt beam="2">  1       21 0.63604362E-02 0.24738775E+03</pdfrwt>
<totfact> 0.23899516E+04</totfact>
</mgrwt>
</event>
<event>
 4    0  0.1003929E-001  0.4061976E+03  0.7546771E-02  0.1041655E+00
         21   -1    0    0  502  501  0.00000000000E+00  0.00000000000E+00  0.34717087835E+03  0.34717087835E+03  0.00000000000E+00 0. -1.
         21   -1    0    0  503  502 -0.00000000000E+00 -0.00000000000E+00 -0.47978427917E+03  0.47978427917E+03  0.00000000000E+00 0.  1.
         25    1    1    2    0    0  0.32464667237E+03  0.20970453223E+03  0.30753080860E+02  0.40736004308E+03  0.12500000000E+03 0.  0.
         21    1    1    2  503  501 -0.32464667237E+03 -0.20970453223E+03 -0.16336648168E+03  0.41959511443E+03  0.00000000000E+00 0.  1.
<mgrwt>
<rscale>  3 0.40619755E+03</rscale>
<asrwt>0</asrwt>
<pdfrwt beam="1">  1       21 0.53410904E-01 0.40619755E+03</pdfrwt>
<pdfrwt beam="2">  1       21 0.73812966E-01 0.40619755E+03</pdfrwt>
<totfact> 0.48803220E+03</totfact>
</mgrwt>
</event>
<event>
 4    0  0.1344062E-001  0.2663918E+03  0.7546771E-02  0.1103363E+00
         21   -1    0    0  502  501  0.00000000000E+00  0.00000000000E+00  0.60377468676E+03  0.60377468676E+03  0.00000000000E+00 0.  1.
         21   -1    0    0  503  502 -0.00000000000E+00 -0.00000000000E+00 -0.11829769972E+03  0.11829769972E+03  0.00000000000E+00 0.  1.
         25    1    1    2    0    0  0.36334307985E+02 -0.23242074566E+03  0.38046382950E+03  0.46445377650E+03  0.12500000000E+03 0.  0.
         21    1    1    2  503  501 -0.36334307985E+02  0.23242074566E+03  0.10501315755E+03  0.25761860998E+03  0.00000000000E+00 0.  1.
<mgrwt>
<rscale>  3 0.26639179E+03</rscale>
<asrwt>0</asrwt>
<pdfrwt beam="1">  1       21 0.92888412E-01 0.26639179E+03</pdfrwt>
<pdfrwt beam="2">  1       21 0.18199646E-01 0.26639179E+03</pdfrwt>
<totfact> 0.25856827E+04</totfact>
</mgrwt>
</event>
<event>
 4    0  0.1581241E-001  0.2716315E+03  0.7546771E-02  0.1100349E+00
         21   -1    0    0  503  501  0.00000000000E+00  0.00000000000E+00  0.19313330497E+03  0.19313330497E+03  0.00000000000E+00 0. -1.
         21   -1    0    0  501  502 -0.00000000000E+00 -0.00000000000E+00 -0.34142158843E+03  0.34142158843E+03  0.00000000000E+00 0. -1.
         25    1    1    2    0    0 -0.10397992657E+03 -0.21759333402E+03 -0.93259940065E+02  0.28719523074E+03  0.12500000000E+03 0.  0.
         21    1    1    2  503  502  0.10397992657E+03  0.21759333402E+03 -0.55028343394E+02  0.24735966267E+03  0.00000000000E+00 0. -1.
<mgrwt>
<rscale>  3 0.27163152E+03</rscale>
<asrwt>0</asrwt>
<pdfrwt beam="1">  1       21 0.29712817E-01 0.27163152E+03</pdfrwt>
<pdfrwt beam="2">  1       21 0.52526398E-01 0.27163152E+03</pdfrwt>
<totfact> 0.35985417E+04</totfact>
</mgrwt>
</event>
<event>
 4    0  0.1072158E-001  0.2646223E+03  0.7546771E-02  0.1104397E+00
         21   -1    0    0  502  501  0.00000000000E+00  0.00000000000E+00  0.22651210309E+03  0.22651210309E+03  0.00000000000E+00 0.  1.
         21   -1    0    0  503  502 -0.00000000000E+00 -0.00000000000E+00 -0.36097982777E+03  0.36097982777E+03  0.00000000000E+00 0. -1.
         25    1    1    2    0    0 -0.23226675941E+03 -0.21262378103E+02  0.73886464613E+02  0.27474378228E+03  0.12500000000E+03 0.  0.
         21    1    1    2  503  501  0.23226675941E+03  0.21262378103E+02 -0.20835418928E+03  0.31274814858E+03  0.00000000000E+00 0. -1.
<mgrwt>
<rscale>  3 0.26462225E+03</rscale>
<asrwt>0</asrwt>
<pdfrwt beam="1">  1       21 0.34848016E-01 0.26462225E+03</pdfrwt>
<pdfrwt beam="2">  1       21 0.55535358E-01 0.26462225E+03</pdfrwt>
<totfact> 0.23378139E+04</totfact>
</mgrwt>
</event>
<event>
 4    0  0.1683773E-001  0.2943598E+03  0.7546771E-02  0.1088095E+00
         21   -1    0    0  503  501  0.00000000000E+00  0.00000000000E+00  0.33288357200E+03  0.33288357200E+03  0.00000000000E+00 0. -1.
         21   -1    0    0  501  502 -0.00000000000E+00 -0.00000000000E+00 -0.77169228049E+03  0.77169228049E+03  0.00000000000E+00 0.  1.
         25    1    1    2    0    0  0.49610833161E+02 -0.26184241190E+03  0.23713334247E+03  0.37799458402E+03  0.12500000000E+03 0.  0.
         21    1    1    2  503  502 -0.49610833161E+02  0.26184241190E+03 -0.67594205096E+03  0.72658126847E+03  0.00000000000E+00 0.  1.
<mgrwt>
<rscale>  3 0.29435979E+03</rscale>
<asrwt>0</asrwt>
<pdfrwt beam="1">  1       21 0.51212858E-01 0.29435979E+03</pdfrwt>
<pdfrwt beam="2">  1       21 0.11872189E+00 0.29435979E+03</pdfrwt>
<totfact> 0.18187433E+03</totfact>
</mgrwt>
</event>
<event>
 4    0  0.1003929E-001  0.2372082E+03  0.7546771E-02  0.1121667E+00
         21   -1    0    0  503  501  0.00000000000E+00  0.00000000000E+00  0.36419348988E+03  0.36419348988E+03  0.00000000000E+00 0. -1.
         21   -1    0    0  501  502 -0.00000000000E+00 -0.00000000000E+00 -0.16112294245E+03  0.16112294245E+03  0.00000000000E+00 0.  1.
         25    1    1    2    0    0  0.10135136922E+03 -0.17427166605E+03  0.21932047874E+03  0.32306220148E+03  0.12500000000E+03 0.  0.
         21    1    1    2  503  502 -0.10135136922E+03  0.17427166605E+03 -0.16249931311E+02  0.20225423086E+03  0.00000000000E+00 0.  1.
<mgrwt>
<rscale>  3 0.23720817E+03</rscale>
<asrwt>0</asrwt>
<pdfrwt beam="1">  1       21 0.56029767E-01 0.23720817E+03</pdfrwt>
<pdfrwt beam="2">  1       21 0.24788145E-01 0.23720817E+03</pdfrwt>
<totfact> 0.45211755E+04</totfact>
</mgrwt>
</event>
<event>
 4    0  0.1159948E-001  0.2628787E+03  0.7546771E-02  0.1105426E+00
         21   -1    0    0  502  501  0.00000000000E+00  0.00000000000E+00  0.16108978644E+03  0.16108978644E+03  0.00000000000E+00 0. -1.
         21   -1    0    0  503  502 -0.00000000000E+00 -0.00000000000E+00 -0.52911966952E+03  0.52911966952E+03  0.00000000000E+00 0.  1.
         25    1    1    2    0    0  0.21491321616E+03 -0.85396113178E+02 -0.88587326836E+01  0.26302787642E+03  0.12500000000E+03 0.  0.
         21    1    1    2  503  501 -0.21491321616E+03  0.85396113178E+02 -0.35917115040E+03  0.42718157955E+03  0.00000000000E+00 0.  1.
<mgrwt>
<rscale>  3 0.26287865E+03</rscale>
<asrwt>0</asrwt>
<pdfrwt beam="1">  1       21 0.24783044E-01 0.26287865E+03</pdfrwt>
<pdfrwt beam="2">  1       21 0.81403026E-01 0.26287865E+03</pdfrwt>
<totfact> 0.19605683E+04</totfact>
</mgrwt>
</event>
<event>
 4    0  0.1232406E-001  0.3413980E+03  0.7546771E-02  0.1066202E+00
         21   -1    0    0  502  501  0.00000000000E+00  0.00000000000E+00  0.21789853288E+03  0.21789853288E+03  0.00000000000E+00 0.  1.
         21   -1    0    0  503  502 -0.00000000000E+00 -0.00000000000E+00 -0.70562283675E+03  0.70562283675E+03  0.00000000000E+00 0.  1.
         25    1    1    2    0    0 -0.18869496452E+03  0.25558131542E+03  0.66639693909E-01  0.34139801239E+03  0.12500000000E+03 0.  0.
         21    1    1    2  503  501  0.18869496452E+03 -0.25558131542E+03 -0.48779094356E+03  0.58212335724E+03  0.00000000000E+00 0.  1.
<mgrwt>
<rscale>  3 0.34139801E+03</rscale>
<asrwt>0</asrwt>
<pdfrwt beam="1">  1       21 0.33522852E-01 0.34139801E+03</pdfrwt>
<pdfrwt beam="2">  1       21 0.10855736E+00 0.34139801E+03</pdfrwt>
<totfact> 0.52883906E+03</totfact>
</mgrwt>
</event>
<event>
 4    0  0.1389922E-001  0.3092083E+03  0.7546771E-02  0.1080726E+00
         21   -1    0    0  503  501  0.00000000000E+00  0.00000000000E+00  0.76395720256E+03  0.76395720256E+03  0.00000000000E+00 0. -1.
         21   -1    0    0  501  502 -0.00000000000E+00 -0.00000000000E+00 -0.13816194249E+03  0.13816194249E+03  0.00000000000E+00 0. -1.
         25    1    1    2    0    0  0.27034807556E+03  0.83046245146E+02  0.51021378817E+03  0.59659690783E+03  0.12500000000E+03 0.  0.
         21    1    1    2  503  502 -0.27034807556E+03 -0.83046245146E+02  0.11558147189E+03  0.30552223722E+03  0.00000000000E+00 0. -1.
<mgrwt>
<rscale>  3 0.30920828E+03</rscale>
<asrwt>0</asrwt>
<pdfrwt beam="1">  1       21 0.11753187E+00 0.30920828E+03</pdfrwt>
<pdfrwt beam="2">  1       21 0.21255684E-01 0.30920828E+03</pdfrwt>
<totfact> 0.10711479E+04</totfact>
</mgrwt>
</event>
<event>
 4    0  0.1626292E-001  0.2868658E+03  0.7546771E-02  0.1091997E+00
         21   -1    0    0  502  501  0.00000000000E+00  0.00000000000E+00  0.21743931503E+03  0.21743931503E+03  0.00000000000E+00 0.  1.
         21   -1    0    0  503  502 -0.00000000000E+00 -0.00000000000E+00 -0.34197027964E+03  0.34197027964E+03  0.00000000000E+00 0.  1.
         25    1    1    2    0    0 -0.25631516471E+03 -0.31137351214E+02 -0.74909107461E+02  0.29648502944E+03  0.12500000000E+03 0.  0.
         21    1    1    2  503  501  0.25631516471E+03  0.31137351214E+02 -0.49621857145E+02  0.26292456524E+03  0.00000000000E+00 0.  1.
<mgrwt>
<rscale>  3 0.28686582E+03</rscale>
<asrwt>0</asrwt>
<pdfrwt beam="1">  1       21 0.33452202E-01 0.28686582E+03</pdfrwt>
<pdfrwt beam="2">  1       21 0.52610812E-01 0.28686582E+03</pdfrwt>
<totfact> 0.28200357E+04</totfact>
</mgrwt>
</event>
<event>
 4    0  0.1003929E-001  0.2593340E+03  0.7546771E-02  0.1107544E+00
         21   -1    0    0  502  501  0.00000000000E+00  0.00000000000E+00  0.16340377355E+04  0.16340377355E+04  0.00000000000E+00 0.  1.
         21   -1    0    0  503  502 -0.00000000000E+00 -0.00000000000E+00 -0.14247854915E+03  0.14247854915E+03  0.00000000000E+00 0.  1.
         25    1    1    2    0    0  0.90239931856E+02 -0.20853273363E+03  0.15249600511E+04  0.15468540020E+04  0.12500000000E+03 0.  0.
         21    1    1    2  503  501 -0.90239931856E+02  0.20853273363E+03 -0.33400864709E+02  0.22966228262E+03  0.00000000000E+00 0.  1.
<mgrwt>
<rscale>  3 0.25933404E+03</rscale>
<asrwt>0</asrwt>
<pdfrwt beam="1">  1       21 0.25139041E+00 0.25933404E+03</pdfrwt>
<pdfrwt beam="2">  1       21 0.21919778E-01 0.25933404E+03</pdfrwt>
<totfact> 0.11823186E+03</totfact>
</mgrwt>
</event>
<event>
 4    0  0.2094965E-001  0.2482160E+03  0.7546771E-02  0.1114437E+00
         21   -1    0    0  503  501  0.00000000000E+00  0.00000000000E+00  0.10576125146E+04  0.10576125146E+04  0.00000000000E+00 0. -1.
         21   -1    0    0  501  502 -0.00000000000E+00 -0.00000000000E+00 -0.83292809263E+03  0.83292809263E+03  0.00000000000E+00 0.  1.
         25    1    1    2    0    0  0.19730297597E+03  0.84010292910E+02  0.10288010989E+04  0.10583207901E+04  0.12500000000E+03 0.  0.
         21    1    1    2  503  502 -0.19730297597E+03 -0.84010292910E+02 -0.80411667702E+03  0.83221981705E+03  0.00000000000E+00 0.  1.
<mgrwt>
<rscale>  3 0.24821602E+03</rscale>
<asrwt>0</asrwt>
<pdfrwt beam="1">  1       21 0.16270962E+00 0.24821602E+03</pdfrwt>
<pdfrwt beam="2">  1       21 0.12814278E+00 0.24821602E+03</pdfrwt>
<totfact> 0.10061410E+02</totfact>
</mgrwt>
</event>
<event>
 4    0  0.1100506E-001  0.5293961E+03  0.7546771E-02  0.1006379E+00
         21   -1    0    0  503  501  0.00000000000E+00  0.00000000000E+00  0.67135190052E+03  0.67135190052E+03  0.00000000000E+00 0.  1.
         21   -1    0    0  501  502 -0.00000000000E+00 -0.00000000000E+00 -0.42612918984E+03  0.42612918984E+03  0.00000000000E+00 0.  1.
         25    1    1    2    0    0  0.22452938259E+02  0.51393682273E+03  0.42538573715E+01  0.52941315387E+03  0.12500000000E+03 0.  0.
         21    1    1    2  503  502 -0.22452938259E+02 -0.51393682273E+03  0.24096885331E+03  0.56806793648E+03  0.00000000000E+00 0.  1.
<mgrwt>
<rscale>  3 0.52939606E+03</rscale>
<asrwt>0</asrwt>
<pdfrwt beam="1">  1       21 0.10328491E+00 0.52939606E+03</pdfrwt>
<pdfrwt beam="2">  1       21 0.65558336E-01 0.52939606E+03</pdfrwt>
<totfact> 0.13519919E+03</totfact>
</mgrwt>
</event>
<event>
 4    0  0.1003929E-001  0.3073955E+03  0.7546771E-02  0.1081601E+00
         21   -1    0    0  502  501  0.00000000000E+00  0.00000000000E+00  0.68006525877E+02  0.68006525877E+02  0.00000000000E+00 0. -1.
         21   -1    0    0  503  502 -0.00000000000E+00 -0.00000000000E+00 -0.17196423791E+04  0.17196423791E+04  0.00000000000E+00 0.  1.
         25    1    1    2    0    0  0.27113109409E+03 -0.73177515142E+02 -0.39770145274E+03  0.50265143432E+03  0.12500000000E+03 0.  0.
         21    1    1    2  503  501 -0.27113109409E+03  0.73177515142E+02 -0.12539344005E+04  0.12849974707E+04  0.00000000000E+00 0.  1.
<mgrwt>
<rscale>  3 0.30739554E+03</rscale>
<asrwt>0</asrwt>
<pdfrwt beam="1">  1       21 0.10462543E-01 0.30739554E+03</pdfrwt>
<pdfrwt beam="2">  1       21 0.26456036E+00 0.30739554E+03</pdfrwt>
<totfact> 0.37055414E+03</totfact>
</mgrwt>
</event>
<event>
 4    0  0.1431302E-001  0.2374761E+03  0.7546771E-02  0.1121486E+00
         21   -1    0    0  503  501  0.00000000000E+00  0.00000000000E+00  0.11016235115E+04  0.11016235115E+04  0.00000000000E+00 0.  1.
         21   -1    0    0  501  502 -0.00000000000E+00 -0.00000000000E+00 -0.30295983383E+03  0.30295983383E+03  0.00000000000E+00 0. -1.
         25    1    1    2    0    0  0.68906529423E+02 -0.18979407481E+03  0.10532251538E+04  0.10796657470E+04  0.12500000000E+03 0.  0.
         21    1    1    2  503  502 -0.68906529423E+02  0.18979407481E+03 -0.25456147609E+03  0.32491759838E+03  0.00000000000E+00 0. -1.
<mgrwt>
<rscale>  3 0.23747611E+03</rscale>
<asrwt>0</asrwt>
<pdfrwt beam="1">  1       21 0.16948054E+00 0.23747611E+03</pdfrwt>
<pdfrwt beam="2">  1       21 0.46609206E-01 0.23747611E+03</pdfrwt>
<totfact> 0.90703900E+02</totfact>
</mgrwt>
</event>
<event>
 4    0  0.1003929E-001  0.2368812E+03  0.7546771E-02  0.1121888E+00
         21   -1    0    0  502  501  0.00000000000E+00  0.00000000000E+00  0.70512303167E+02  0.70512303167E+02  0.00000000000E+00 0.  1.
         21   -1    0    0  503  502 -0.00000000000E+00 -0.00000000000E+00 -0.68771550393E+03  0.68771550393E+03  0.00000000000E+00 0.  1.
         25    1    1    2    0    0 -0.13591060737E+03  0.14837785369E+03 -0.37222106199E+03  0.44120426069E+03  0.12500000000E+03 0.  0.
         21    1    1    2  503  501  0.13591060737E+03 -0.14837785369E+03 -0.24498213877E+03  0.31702354640E+03  0.00000000000E+00 0.  1.
<mgrwt>
<rscale>  3 0.23688115E+03</rscale>
<asrwt>0</asrwt>
<pdfrwt beam="1">  1       21 0.10848046E-01 0.23688115E+03</pdfrwt>
<pdfrwt beam="2">  1       21 0.10580239E+00 0.23688115E+03</pdfrwt>
<totfact> 0.49319074E+04</totfact>
</mgrwt>
</event>
<event>
 4    0  0.1544552E-001  0.2764838E+03  0.7546771E-02  0.1097625E+00
         21   -1    0    0  503  501  0.00000000000E+00  0.00000000000E+00  0.11947803997E+04  0.11947803997E+04  0.00000000000E+00 0. -1.
         21   -1    0    0  501  502 -0.00000000000E+00 -0.00000000000E+00 -0.14299231397E+03  0.14299231397E+03  0.00000000000E+00 0.  1.
         25    1    1    2    0    0 -0.19983297274E+03 -0.14451673187E+03  0.10555203104E+04  0.10911308026E+04  0.12500000000E+03 0.  0.
         21    1    1    2  503  502  0.19983297274E+03  0.14451673187E+03 -0.37322246511E+01  0.24664191105E+03  0.00000000000E+00 0.  1.
<mgrwt>
<rscale>  3 0.27648382E+03</rscale>
<asrwt>0</asrwt>
<pdfrwt beam="1">  1       21 0.18381236E+00 0.27648382E+03</pdfrwt>
<pdfrwt beam="2">  1       21 0.21998818E-01 0.27648382E+03</pdfrwt>
<totfact> 0.30936267E+03</totfact>
</mgrwt>
</event>
<event>
 4    0  0.1486637E-001  0.2916118E+03  0.7546771E-02  0.1089511E+00
         21   -1    0    0  502  501  0.00000000000E+00  0.00000000000E+00  0.32057989227E+03  0.32057989227E+03  0.00000000000E+00 0.  1.
         21   -1    0    0  503  502 -0.00000000000E+00 -0.00000000000E+00 -0.25402370230E+03  0.25402370230E+03  0.00000000000E+00 0.  1.
         25    1    1    2    0    0  0.23443127650E+03 -0.12022663327E+03  0.10163586617E+03  0.30881599059E+03  0.12500000000E+03 0.  0.
         21    1    1    2  503  501 -0.23443127650E+03  0.12022663327E+03 -0.35079676196E+02  0.26578760398E+03  0.00000000000E+00 0.  1.
<mgrwt>
<rscale>  3 0.29161184E+03</rscale>
<asrwt>0</asrwt>
<pdfrwt beam="1">  1       21 0.49319984E-01 0.29161184E+03</pdfrwt>
<pdfrwt beam="2">  1       21 0.39080569E-01 0.29161184E+03</pdfrwt>
<totfact> 0.23592817E+04</totfact>
</mgrwt>
</event>
<event>
 4    0  0.1623618E-001  0.2627678E+03  0.7546771E-02  0.1105492E+00
         21   -1    0    0  502  501  0.00000000000E+00  0.00000000000E+00  0.42032907545E+03  0.42032907545E+03  0.00000000000E+00 0. -1.
         21   -1    0    0  503  502 -0.00000000000E+00 -0.00000000000E+00 -0.14659646785E+03  0.14659646785E+03  0.00000000000E+00 0. -1.
         25    1    1    2    0    0 -0.22277487036E+03 -0.61589625709E+02  0.17424967364E+03  0.31529331363E+03  0.12500000000E+03 0.  0.
         21    1    1    2  503  501  0.22277487036E+03  0.61589625709E+02  0.99482933964E+02  0.25163222967E+03  0.00000000000E+00 0. -1.
<mgrwt>
<rscale>  3 0.26276782E+03</rscale>
<asrwt>0</asrwt>
<pdfrwt beam="1">  1       21 0.64666011E-01 0.26276782E+03</pdfrwt>
<pdfrwt beam="2">  1       21 0.22553303E-01 0.26276782E+03</pdfrwt>
<totfact> 0.39302338E+04</totfact>
</mgrwt>
</event>
<event>
 4    0  0.1374523E-001  0.2959875E+03  0.7546771E-02  0.1087264E+00
         21   -1    0    0  503  501  0.00000000000E+00  0.00000000000E+00  0.62557947519E+03  0.62557947519E+03  0.00000000000E+00 0. -1.
         21   -1    0    0  501  502 -0.00000000000E+00 -0.00000000000E+00 -0.23020614892E+03  0.23020614892E+03  0.00000000000E+00 0.  1.
         25    1    1    2    0    0  0.17286249213E+03  0.20518814965E+03  0.48901540727E+03  0.57161585570E+03  0.12500000000E+03 0.  0.
         21    1    1    2  503  502 -0.17286249213E+03 -0.20518814965E+03 -0.93642081008E+02  0.28416976841E+03  0.00000000000E+00 0.  1.
<mgrwt>
<rscale>  3 0.29598753E+03</rscale>
<asrwt>0</asrwt>
<pdfrwt beam="1">  1       21 0.96242996E-01 0.29598753E+03</pdfrwt>
<pdfrwt beam="2">  1       21 0.35416331E-01 0.29598753E+03</pdfrwt>
<totfact> 0.64775932E+03</totfact>
</mgrwt>
</event>
<event>
 4    0  0.1003929E-001  0.3441267E+03  0.7546771E-02  0.1065052E+00
         21   -1    0    0  503  501  0.00000000000E+00  0.00000000000E+00  0.22546218903E+04  0.22546218903E+04  0.00000000000E+00 0. -1.
         21   -1    0    0  501  502 -0.00000000000E+00 -0.00000000000E+00 -0.51893194121E+02  0.51893194121E+02  0.00000000000E+00 0. -1.
         25    1    1    2    0    0 -0.28167394572E+03  0.15315989923E+03  0.14103643206E+04  0.14517405703E+04  0.12500000000E+03 0.  0.
         21    1    1    2  503  502  0.28167394572E+03 -0.15315989923E+03  0.79236437557E+03  0.85477451419E+03  0.00000000000E+00 0. -1.
<mgrwt>
<rscale>  3 0.34412667E+03</rscale>
<asrwt>0</asrwt>
<pdfrwt beam="1">  1       21 0.34686483E+00 0.34412667E+03</pdfrwt>
<pdfrwt beam="2">  1       21 0.79835701E-02 0.34412667E+03</pdfrwt>
<totfact> 0.18885611E+03</totfact>
</mgrwt>
</event>
<event>
 4    0  0.1629028E-001  0.3671663E+03  0.7546771E-02  0.1055782E+00
         21   -1    0    0  503  501  0.00000000000E+00  0.00000000000E+00  0.31544468420E+03  0.31544468420E+03  0.00000000000E+00 0. -1.
         21   -1    0    0  501  502 -0.00000000000E+00 -0.00000000000E+00 -0.49461250442E+03  0.49461250442E+03  0.00000000000E+00 0. -1.
         25    1    1    2    0    0  0.13900486756E+03 -0.31601222889E+03  0.83159064962E+02  0.37646581797E+03  0.12500000000E+03 0.  0.
         21    1    1    2  503  502 -0.13900486756E+03  0.31601222889E+03 -0.26232688518E+03  0.43359137065E+03  0.00000000000E+00 0. -1.
<mgrwt>
<rscale>  3 0.36716629E+03</rscale>
<asrwt>0</asrwt>
<pdfrwt beam="1">  1       21 0.48529952E-01 0.36716629E+03</pdfrwt>
<pdfrwt beam="2">  1       21 0.76094231E-01 0.36716629E+03</pdfrwt>
<totfact> 0.56679509E+03</totfact>
</mgrwt>
</event>
<event>
 4    0  0.1593214E-001  0.3994314E+03  0.7546771E-02  0.1043977E+00
         21   -1    0    0  503  501  0.00000000000E+00  0.00000000000E+00  0.31992764908E+03  0.31992764908E+03  0.00000000000E+00 0. -1.
         21   -1    0    0  501  502 -0.00000000000E+00 -0.00000000000E+00 -0.49892150862E+03  0.49892150862E+03  0.00000000000E+00 0. -1.
         25    1    1    2    0    0  0.32488017818E+03  0.19589101740E+03 -0.13402815030E+00  0.39943139441E+03  0.12500000000E+03 0.  0.
         21    1    1    2  503  502 -0.32488017818E+03 -0.19589101740E+03 -0.17885983138E+03  0.41941776329E+03  0.00000000000E+00 0. -1.
<mgrwt>
<rscale>  3 0.39943137E+03</rscale>
<asrwt>0</asrwt>
<pdfrwt beam="1">  1       21 0.49219639E-01 0.39943137E+03</pdfrwt>
<pdfrwt beam="2">  1       21 0.76757155E-01 0.39943137E+03</pdfrwt>
<totfact> 0.53268778E+03</totfact>
</mgrwt>
</event>
<event>
 4    0  0.1120829E-001  0.2659825E+03  0.7546771E-02  0.1103601E+00
         21   -1    0    0  503  501  0.00000000000E+00  0.00000000000E+00  0.16058376729E+04  0.16058376729E+04  0.00000000000E+00 0.  1.
         21   -1    0    0  501  502 -0.00000000000E+00 -0.00000000000E+00 -0.80281963992E+02  0.80281963992E+02  0.00000000000E+00 0. -1.
         25    1    1    2    0    0 -0.18388831948E+03 -0.14596833873E+03  0.13895777281E+04  0.14148049096E+04  0.12500000000E+03 0.  0.
         21    1    1    2  503  502  0.18388831948E+03  0.14596833873E+03  0.13597798081E+03  0.27131472724E+03  0.00000000000E+00 0. -1.
<mgrwt>
<rscale>  3 0.26598246E+03</rscale>
<asrwt>0</asrwt>
<pdfrwt beam="1">  1       21 0.24705193E+00 0.26598246E+03</pdfrwt>
<pdfrwt beam="2">  1       21 0.12351073E-01 0.26598246E+03</pdfrwt>
<totfact> 0.36060033E+03</totfact>
</mgrwt>
</event>
<event>
 4    0  0.1281838E-001  0.2750614E+03  0.7546771E-02  0.1098417E+00
         21   -1    0    0  503  501  0.00000000000E+00  0.00000000000E+00  0.14618459218E+03  0.14618459218E+03  0.00000000000E+00 0.  1.
         21   -1    0    0  501  502 -0.00000000000E+00 -0.00000000000E+00 -0.70374616754E+03  0.70374616754E+03  0.00000000000E+00 0.  1.
         25    1    1    2    0    0  0.13441619919E+03  0.20485620965E+03 -0.40860771189E+02  0.27807981562E+03  0.12500000000E+03 0.  0.
         21    1    1    2  503  502 -0.13441619919E+03 -0.20485620965E+03 -0.51670080417E+03  0.57185094410E+03  0.00000000000E+00 0.  1.
<mgrwt>
<rscale>  3 0.27506141E+03</rscale>
<asrwt>0</asrwt>
<pdfrwt beam="1">  1       21 0.22489938E-01 0.27506141E+03</pdfrwt>
<pdfrwt beam="2">  1       21 0.10826864E+00 0.27506141E+03</pdfrwt>
<totfact> 0.11967343E+04</totfact>
</mgrwt>
</event>
<event>
 4    0  0.1581712E-001  0.3086618E+03  0.7546771E-02  0.1080989E+00
         21   -1    0    0  503  501  0.00000000000E+00  0.00000000000E+00  0.57317684250E+03  0.57317684250E+03  0.00000000000E+00 0. -1.
         21   -1    0    0  501  502 -0.00000000000E+00 -0.00000000000E+00 -0.18212822476E+03  0.18212822476E+03  0.00000000000E+00 0. -1.
         25    1    1    2    0    0 -0.21689177258E+03 -0.18056875051E+03  0.35559057055E+03  0.47086810100E+03  0.12500000000E+03 0.  0.
         21    1    1    2  503  502  0.21689177258E+03  0.18056875051E+03  0.35458047192E+02  0.28443696627E+03  0.00000000000E+00 0. -1.
<mgrwt>
<rscale>  3 0.30866181E+03</rscale>
<asrwt>0</asrwt>
<pdfrwt beam="1">  1       21 0.88181052E-01 0.30866181E+03</pdfrwt>
<pdfrwt beam="2">  1       21 0.28019727E-01 0.30866181E+03</pdfrwt>
<totfact> 0.12587679E+04</totfact>
</mgrwt>
</event>
<event>
 4    0  0.1394034E-001  0.2756101E+03  0.7546771E-02  0.1098111E+00
         21   -1    0    0  503  501  0.00000000000E+00  0.00000000000E+00  0.89467697538E+03  0.89467697538E+03  0.00000000000E+00 0. -1.
         21   -1    0    0  501  502 -0.00000000000E+00 -0.00000000000E+00 -0.76895201572E+02  0.76895201572E+02  0.00000000000E+00 0. -1.
         25    1    1    2    0    0  0.11051402661E+03  0.21936858802E+03  0.37748714007E+03  0.46739433929E+03  0.12500000000E+03 0.  0.
         21    1    1    2  503  502 -0.11051402661E+03 -0.21936858802E+03  0.44029463374E+03  0.50417783766E+03  0.00000000000E+00 0. -1.
<mgrwt>
<rscale>  3 0.27561010E+03</rscale>
<asrwt>0</asrwt>
<pdfrwt beam="1">  1       21 0.13764260E+00 0.27561010E+03</pdfrwt>
<pdfrwt beam="2">  1       21 0.11830032E-01 0.27561010E+03</pdfrwt>
<totfact> 0.21484592E+04</totfact>
</mgrwt>
</event>
<event>
 4    0  0.1656903E-001  0.2869322E+03  0.7546771E-02  0.1091962E+00
         21   -1    0    0  503  501  0.00000000000E+00  0.00000000000E+00  0.22211270466E+03  0.22211270466E+03  0.00000000000E+00 0. -1.
         21   -1    0    0  501  502 -0.00000000000E+00 -0.00000000000E+00 -0.34128129350E+03  0.34128129350E+03  0.00000000000E+00 0. -1.
         25    1    1    2    0    0 -0.17249801639E+03 -0.19222252053E+03 -0.23205161789E+02  0.28786896774E+03  0.12500000000E+03 0.  0.
         21    1    1    2  503  502  0.17249801639E+03  0.19222252053E+03 -0.95963427051E+02  0.27552503042E+03  0.00000000000E+00 0. -1.
<mgrwt>
<rscale>  3 0.28693216E+03</rscale>
<asrwt>0</asrwt>
<pdfrwt beam="1">  1       21 0.34171185E-01 0.28693216E+03</pdfrwt>
<pdfrwt beam="2">  1       21 0.52504814E-01 0.28693216E+03</pdfrwt>
<totfact> 0.27144003E+04</totfact>
</mgrwt>
</event>
<event>
 4    0  0.1229362E-001  0.2468497E+03  0.7546771E-02  0.1115312E+00
         21   -1    0    0  503  501  0.00000000000E+00  0.00000000000E+00  0.48233378337E+02  0.48233378337E+02  0.00000000000E+00 0.  1.
         21   -1    0    0  501  502 -0.00000000000E+00 -0.00000000000E+00 -0.12426996316E+04  0.12426996316E+04  0.00000000000E+00 0.  1.
         25    1    1    2    0    0  0.69597133682E+02 -0.20116160758E+03 -0.41444462252E+03  0.48238894942E+03  0.12500000000E+03 0.  0.
         21    1    1    2  503  502 -0.69597133682E+02  0.20116160758E+03 -0.78002163078E+03  0.80854406056E+03  0.00000000000E+00 0.  1.
<mgrwt>
<rscale>  3 0.24684966E+03</rscale>
<asrwt>0</asrwt>
<pdfrwt beam="1">  1       21 0.74205193E-02 0.24684966E+03</pdfrwt>
<pdfrwt beam="2">  1       21 0.19118457E+00 0.24684966E+03</pdfrwt>
<totfact> 0.20196372E+04</totfact>
</mgrwt>
</event>
<event>
 4    0  0.1003929E-001  0.2762307E+03  0.7546771E-02  0.1097766E+00
         21   -1    0    0  503  501  0.00000000000E+00  0.00000000000E+00  0.12295620901E+04  0.12295620901E+04  0.00000000000E+00 0.  1.
         21   -1    0    0  501  502 -0.00000000000E+00 -0.00000000000E+00 -0.67428476213E+03  0.67428476213E+03  0.00000000000E+00 0.  1.
         25    1    1    2    0    0  0.23840558100E+03  0.61977221689E+02  0.11907140133E+04  0.12223351662E+04  0.12500000000E+03 0.  0.
         21    1    1    2  503  502 -0.23840558100E+03 -0.61977221689E+02 -0.63543668536E+03  0.68151168601E+03  0.00000000000E+00 0.  1.
<mgrwt>
<rscale>  3 0.27623070E+03</rscale>
<asrwt>0</asrwt>
<pdfrwt beam="1">  1       21 0.18916340E+00 0.27623070E+03</pdfrwt>
<pdfrwt beam="2">  1       21 0.10373612E+00 0.27623070E+03</pdfrwt>
<totfact> 0.10765885E+02</totfact>
</mgrwt>
</event>
<event>
 4    0  0.1359809E-001  0.3870870E+03  0.7546771E-02  0.1048345E+00
         21   -1    0    0  503  501  0.00000000000E+00  0.00000000000E+00  0.62089929541E+03  0.62089929541E+03  0.00000000000E+00 0.  1.
         21   -1    0    0  501  502 -0.00000000000E+00 -0.00000000000E+00 -0.26346675362E+03  0.26346675362E+03  0.00000000000E+00 0.  1.
         25    1    1    2    0    0  0.31022790588E+03  0.19485888001E+03  0.34386871338E+03  0.51776638434E+03  0.12500000000E+03 0.  0.
         21    1    1    2  503  502 -0.31022790588E+03 -0.19485888001E+03  0.13563828411E+02  0.36659966469E+03  0.00000000000E+00 0.  1.
<mgrwt>
<rscale>  3 0.38708699E+03</rscale>
<asrwt>0</asrwt>
<pdfrwt beam="1">  1       21 0.95522968E-01 0.38708699E+03</pdfrwt>
<pdfrwt beam="2">  1       21 0.40533347E-01 0.38708699E+03</pdfrwt>
<totfact> 0.48148901E+03</totfact>
</mgrwt>
</event>
<event>
 4    0  0.1383926E-001  0.2445125E+03  0.7546771E-02  0.1116823E+00
         21   -1    0    0  503  501  0.00000000000E+00  0.00000000000E+00  0.65689988186E+03  0.65689988186E+03  0.00000000000E+00 0. -1.
         21   -1    0    0  501  502 -0.00000000000E+00 -0.00000000000E+00 -0.10716513198E+03  0.10716513198E+03  0.00000000000E+00 0. -1.
         25    1    1    2    0    0 -0.14716835340E+03  0.15000945282E+03  0.48670113439E+03  0.54466903198E+03  0.12500000000E+03 0.  0.
         21    1    1    2  503  502  0.14716835340E+03 -0.15000945282E+03  0.63033615491E+02  0.21939598187E+03  0.00000000000E+00 0. -1.
<mgrwt>
<rscale>  3 0.24451249E+03</rscale>
<asrwt>0</asrwt>
<pdfrwt beam="1">  1       21 0.10106152E+00 0.24451249E+03</pdfrwt>
<pdfrwt beam="2">  1       21 0.16486944E-01 0.24451249E+03</pdfrwt>
<totfact> 0.25686781E+04</totfact>
</mgrwt>
</event>
<event>
 4    0  0.1395872E-001  0.2624389E+03  0.7546771E-02  0.1105687E+00
         21   -1    0    0  502  501  0.00000000000E+00  0.00000000000E+00  0.63210872758E+02  0.63210872758E+02  0.00000000000E+00 0. -1.
         21   -1    0    0  503  502 -0.00000000000E+00 -0.00000000000E+00 -0.96203536022E+03  0.96203536022E+03  0.00000000000E+00 0. -1.
         25    1    1    2    0    0 -0.30233191772E+02 -0.22876868838E+03 -0.47703818070E+03  0.54446265667E+03  0.12500000000E+03 0.  0.
         21    1    1    2  503  501  0.30233191772E+02  0.22876868838E+03 -0.42178630677E+03  0.48078357631E+03  0.00000000000E+00 0. -1.
<mgrwt>
<rscale>  3 0.26243887E+03</rscale>
<asrwt>0</asrwt>
<pdfrwt beam="1">  1       21 0.97247514E-02 0.26243887E+03</pdfrwt>
<pdfrwt beam="2">  1       21 0.14800541E+00 0.26243887E+03</pdfrwt>
<totfact> 0.25363245E+04</totfact>
</mgrwt>
</event>
<event>
 4    0  0.1258853E-001  0.2384801E+03  0.7546771E-02  0.1120809E+00
         21   -1    0    0  503  501  0.00000000000E+00  0.00000000000E+00  0.97448507343E+02  0.97448507343E+02  0.00000000000E+00 0. -1.
         21   -1    0    0  501  502 -0.00000000000E+00 -0.00000000000E+00 -0.10701834728E+04  0.10701834728E+04  0.00000000000E+00 0. -1.
         25    1    1    2    0    0  0.19543164982E+02 -0.20215296521E+03 -0.79171266354E+02  0.25127842338E+03  0.12500000000E+03 0.  0.
         21    1    1    2  503  502 -0.19543164982E+02  0.20215296521E+03 -0.89356369909E+03  0.91635355676E+03  0.00000000000E+00 0. -1.
<mgrwt>
<rscale>  3 0.23848010E+03</rscale>
<asrwt>0</asrwt>
<pdfrwt beam="1">  1       21 0.14992078E-01 0.23848010E+03</pdfrwt>
<pdfrwt beam="2">  1       21 0.16464361E+00 0.23848010E+03</pdfrwt>
<totfact> 0.88428724E+03</totfact>
</mgrwt>
</event>
<event>
 4    0  0.1462589E-001  0.2823435E+03  0.7546771E-02  0.1094416E+00
         21   -1    0    0  502  501  0.00000000000E+00  0.00000000000E+00  0.22350850636E+03  0.22350850636E+03  0.00000000000E+00 0.  1.
         21   -1    0    0  503  502 -0.00000000000E+00 -0.00000000000E+00 -0.32153547320E+03  0.32153547320E+03  0.00000000000E+00 0.  1.
         25    1    1    2    0    0  0.51141798968E+02 -0.24794633082E+03 -0.65043541637E+02  0.28973872519E+03  0.12500000000E+03 0.  0.
         21    1    1    2  503  501 -0.51141798968E+02  0.24794633082E+03 -0.32983425197E+02  0.25530525437E+03  0.00000000000E+00 0.  1.
<mgrwt>
<rscale>  3 0.28234353E+03</rscale>
<asrwt>0</asrwt>
<pdfrwt beam="1">  1       21 0.34385924E-01 0.28234353E+03</pdfrwt>
<pdfrwt beam="2">  1       21 0.49466996E-01 0.28234353E+03</pdfrwt>
<totfact> 0.30454936E+04</totfact>
</mgrwt>
</event>
<event>
 4    0  0.1304149E-001  0.2447207E+03  0.7546771E-02  0.1116687E+00
         21   -1    0    0  503  501  0.00000000000E+00  0.00000000000E+00  0.34332586058E+03  0.34332586058E+03  0.00000000000E+00 0.  1.
         21   -1    0    0  501  502 -0.00000000000E+00 -0.00000000000E+00 -0.32835130086E+03  0.32835130086E+03  0.00000000000E+00 0.  1.
         25    1    1    2    0    0  0.19745025574E+03 -0.72640474302E+02  0.25436654265E+03  0.35297390841E+03  0.12500000000E+03 0.  0.
         21    1    1    2  503  502 -0.19745025574E+03  0.72640474302E+02 -0.23939198293E+03  0.31870325303E+03  0.00000000000E+00 0.  1.
<mgrwt>
<rscale>  3 0.24472074E+03</rscale>
<asrwt>0</asrwt>
<pdfrwt beam="1">  1       21 0.52819363E-01 0.24472074E+03</pdfrwt>
<pdfrwt beam="2">  1       21 0.50515585E-01 0.24472074E+03</pdfrwt>
<totfact> 0.12275921E+04</totfact>
</mgrwt>
</event>
<event>
 4    0  0.1340831E-001  0.2407156E+03  0.7546771E-02  0.1119317E+00
         21   -1    0    0  502  501  0.00000000000E+00  0.00000000000E+00  0.67181037778E+03  0.67181037778E+03  0.00000000000E+00 0. -1.
         21   -1    0    0  503  502 -0.00000000000E+00 -0.00000000000E+00 -0.13336483050E+04  0.13336483050E+04  0.00000000000E+00 0.  1.
         25    1    1    2    0    0 -0.17120114110E+03 -0.11405782836E+03  0.64192081777E+03  0.68557009504E+03  0.12500000000E+03 0.  0.
         21    1    1    2  503  501  0.17120114110E+03  0.11405782836E+03 -0.13037587450E+04  0.13198885877E+04  0.00000000000E+00 0.  1.
<mgrwt>
<rscale>  3 0.24071564E+03</rscale>
<asrwt>0</asrwt>
<pdfrwt beam="1">  1       21 0.10335544E+00 0.24071564E+03</pdfrwt>
<pdfrwt beam="2">  1       21 0.20517666E+00 0.24071564E+03</pdfrwt>
<totfact> 0.88602734E+01</totfact>
</mgrwt>
</event>
<event>
 4    0  0.1143036E-001  0.3177277E+03  0.7546771E-02  0.1076700E+00
         21   -1    0    0  502  501  0.00000000000E+00  0.00000000000E+00  0.81006703994E+02  0.81006703994E+02  0.00000000000E+00 0.  1.
         21   -1    0    0  503  502 -0.00000000000E+00 -0.00000000000E+00 -0.14927798082E+04  0.14927798082E+04  0.00000000000E+00 0.  1.
         25    1    1    2    0    0 -0.16782235602E+03 -0.23908480960E+03 -0.35062906229E+03  0.47317188070E+03  0.12500000000E+03 0.  0.
         21    1    1    2  503  501  0.16782235602E+03  0.23908480960E+03 -0.10611440419E+04  0.11006146314E+04  0.00000000000E+00 0.  1.
<mgrwt>
<rscale>  3 0.31772770E+03</rscale>
<asrwt>0</asrwt>
<pdfrwt beam="1">  1       21 0.12462569E-01 0.31772770E+03</pdfrwt>
<pdfrwt beam="2">  1       21 0.22965846E+00 0.31772770E+03</pdfrwt>
<totfact> 0.43705993E+03</totfact>
</mgrwt>
</event>
<event>
 4    0  0.1003929E-001  0.2743461E+03  0.7546771E-02  0.1098818E+00
         21   -1    0    0  503  501  0.00000000000E+00  0.00000000000E+00  0.86244227051E+02  0.86244227051E+02  0.00000000000E+00 0.  1.
         21   -1    0    0  501  502 -0.00000000000E+00 -0.00000000000E+00 -0.14981713153E+04  0.14981713153E+04  0.00000000000E+00 0.  1.
         25    1    1    2    0    0 -0.19775013403E+01  0.24420660608E+03 -0.17909816360E+03  0.32763078178E+03  0.12500000000E+03 0.  0.
         21    1    1    2  503  502  0.19775013403E+01 -0.24420660608E+03 -0.12328289246E+04  0.12567847605E+04  0.00000000000E+00 0.  1.
<mgrwt>
<rscale>  3 0.27434609E+03</rscale>
<asrwt>0</asrwt>
<pdfrwt beam="1">  1       21 0.13268344E-01 0.27434609E+03</pdfrwt>
<pdfrwt beam="2">  1       21 0.23048787E+00 0.27434609E+03</pdfrwt>
<totfact> 0.39663582E+03</totfact>
</mgrwt>
</event>
<event>
 4    0  0.1003929E-001  0.2740945E+03  0.7546771E-02  0.1098959E+00
         21   -1    0    0  502  501  0.00000000000E+00  0.00000000000E+00  0.13084463902E+04  0.13084463902E+04  0.00000000000E+00 0.  1.
         21   -1    0    0  503  502 -0.00000000000E+00 -0.00000000000E+00 -0.76161363410E+02  0.76161363410E+02  0.00000000000E+00 0. -1.
         25    1    1    2    0    0 -0.34114943940E+02 -0.24153462614E+03  0.10355992259E+04  0.10712579343E+04  0.12500000000E+03 0.  0.
         21    1    1    2  503  501  0.34114943940E+02  0.24153462614E+03  0.19668580092E+03  0.31334981938E+03  0.00000000000E+00 0. -1.
<mgrwt>
<rscale>  3 0.27409452E+03</rscale>
<asrwt>0</asrwt>
<pdfrwt beam="1">  1       21 0.20129943E+00 0.27409452E+03</pdfrwt>
<pdfrwt beam="2">  1       21 0.11717134E-01 0.27409452E+03</pdfrwt>
<totfact> 0.75891061E+03</totfact>
</mgrwt>
</event>
<event>
 4    0  0.1349572E-001  0.2406482E+03  0.7546771E-02  0.1119362E+00
         21   -1    0    0  502  501  0.00000000000E+00  0.00000000000E+00  0.87051426031E+03  0.87051426031E+03  0.00000000000E+00 0. -1.
         21   -1    0    0  503  502 -0.00000000000E+00 -0.00000000000E+00 -0.68749949099E+02  0.68749949099E+02  0.00000000000E+00 0. -1.
         25    1    1    2    0    0 -0.11905744609E+03 -0.16766596691E+03  0.61905343896E+03  0.66418274008E+03  0.12500000000E+03 0.  0.
         21    1    1    2  503  501  0.11905744609E+03  0.16766596691E+03  0.18271087225E+03  0.27508146933E+03  0.00000000000E+00 0. -1.
<mgrwt>
<rscale>  3 0.24064819E+03</rscale>
<asrwt>0</asrwt>
<pdfrwt beam="1">  1       21 0.13392526E+00 0.24064819E+03</pdfrwt>
<pdfrwt beam="2">  1       21 0.10576916E-01 0.24064819E+03</pdfrwt>
<totfact> 0.28665598E+04</totfact>
</mgrwt>
</event>
<event>
 4    0  0.2171274E-001  0.2405947E+03  0.7546771E-02  0.1119397E+00
         21   -1    0    0  503  501  0.00000000000E+00  0.00000000000E+00  0.69211736411E+03  0.69211736411E+03  0.00000000000E+00 0.  1.
         21   -1    0    0  501  502 -0.00000000000E+00 -0.00000000000E+00 -0.75251645743E+03  0.75251645743E+03  0.00000000000E+00 0. -1.
         25    1    1    2    0    0  0.17864665127E+03  0.10171618862E+03  0.65631268040E+03  0.69902227682E+03  0.12500000000E+03 0.  0.
         21    1    1    2  503  502 -0.17864665127E+03 -0.10171618862E+03 -0.71671177372E+03  0.74561154472E+03  0.00000000000E+00 0. -1.
<mgrwt>
<rscale>  3 0.24059470E+03</rscale>
<asrwt>0</asrwt>
<pdfrwt beam="1">  1       21 0.10647959E+00 0.24059470E+03</pdfrwt>
<pdfrwt beam="2">  1       21 0.11577176E+00 0.24059470E+03</pdfrwt>
<totfact> 0.38746517E+02</totfact>
</mgrwt>
</event>
<event>
 4    0  0.1003929E-001  0.2722976E+03  0.7546771E-02  0.1099972E+00
         21   -1    0    0  503  501  0.00000000000E+00  0.00000000000E+00  0.12528067345E+04  0.12528067345E+04  0.00000000000E+00 0. -1.
         21   -1    0    0  501  502 -0.00000000000E+00 -0.00000000000E+00 -0.67511930843E+02  0.67511930843E+02  0.00000000000E+00 0.  1.
         25    1    1    2    0    0  0.22026325853E+03  0.10002549707E+03  0.92814962563E+03  0.96726817930E+03  0.12500000000E+03 0.  0.
         21    1    1    2  503  502 -0.22026325853E+03 -0.10002549707E+03  0.25714517804E+03  0.35305048606E+03  0.00000000000E+00 0.  1.
<mgrwt>
<rscale>  3 0.27229764E+03</rscale>
<asrwt>0</asrwt>
<pdfrwt beam="1">  1       21 0.19273948E+00 0.27229764E+03</pdfrwt>
<pdfrwt beam="2">  1       21 0.10386452E-01 0.27229764E+03</pdfrwt>
<totfact> 0.10736107E+04</totfact>
</mgrwt>
</event>
<event>
 4    0  0.1244821E-001  0.3650937E+03  0.7546771E-02  0.1056585E+00
         21   -1    0    0  502  501  0.00000000000E+00  0.00000000000E+00  0.13964606270E+04  0.13964606270E+04  0.00000000000E+00 0. -1.
         21   -1    0    0  503  502 -0.00000000000E+00 -0.00000000000E+00 -0.15635246279E+03  0.15635246279E+03  0.00000000000E+00 0.  1.
         25    1    1    2    0    0  0.20599730331E+03  0.27428729094E+03  0.11376691270E+04  0.11948156550E+04  0.12500000000E+03 0.  0.
         21    1    1    2  503  501 -0.20599730331E+03 -0.27428729094E+03  0.10243903717E+03  0.35799743474E+03  0.00000000000E+00 0.  1.
<mgrwt>
<rscale>  3 0.36509370E+03</rscale>
<asrwt>0</asrwt>
<pdfrwt beam="1">  1       21 0.21484009E+00 0.36509370E+03</pdfrwt>
<pdfrwt beam="2">  1       21 0.24054226E-01 0.36509370E+03</pdfrwt>
<totfact> 0.15417350E+03</totfact>
</mgrwt>
</event>
<event>
 4    0  0.1228412E-001  0.2748901E+03  0.7546771E-02  0.1098513E+00
         21   -1    0    0  502  501  0.00000000000E+00  0.00000000000E+00  0.58831837290E+03  0.58831837290E+03  0.00000000000E+00 0. -1.
         21   -1    0    0  503  502 -0.00000000000E+00 -0.00000000000E+00 -0.28191176405E+03  0.28191176405E+03  0.00000000000E+00 0. -1.
         25    1    1    2    0    0 -0.15968230759E+03  0.18558326350E+03  0.49160996071E+03  0.56324500931E+03  0.12500000000E+03 0.  0.
         21    1    1    2  503  501  0.15968230759E+03 -0.18558326350E+03 -0.18520335186E+03  0.30698512764E+03  0.00000000000E+00 0. -1.
<mgrwt>
<rscale>  3 0.27489014E+03</rscale>
<asrwt>0</asrwt>
<pdfrwt beam="1">  1       21 0.90510519E-01 0.27489014E+03</pdfrwt>
<pdfrwt beam="2">  1       21 0.43371041E-01 0.27489014E+03</pdfrwt>
<totfact> 0.50141785E+03</totfact>
</mgrwt>
</event>
<event>
 4    0  0.1357800E-001  0.2462090E+03  0.7546771E-02  0.1115724E+00
         21   -1    0    0  502  501  0.00000000000E+00  0.00000000000E+00  0.12128094077E+03  0.12128094077E+03  0.00000000000E+00 0.  1.
         21   -1    0    0  503  502 -0.00000000000E+00 -0.00000000000E+00 -0.52721282004E+03  0.52721282004E+03  0.00000000000E+00 0.  1.
         25    1    1    2    0    0 -0.10142903927E+03 -0.18629545643E+03 -0.78615528773E+02  0.25845550576E+03  0.12500000000E+03 0.  0.
         21    1    1    2  503  501  0.10142903927E+03  0.18629545643E+03 -0.32731635050E+03  0.39003825505E+03  0.00000000000E+00 0.  1.
<mgrwt>
<rscale>  3 0.24620895E+03</rscale>
<asrwt>0</asrwt>
<pdfrwt beam="1">  1       21 0.18658606E-01 0.24620895E+03</pdfrwt>
<pdfrwt beam="2">  1       21 0.81109665E-01 0.24620895E+03</pdfrwt>
<totfact> 0.34093400E+04</totfact>
</mgrwt>
</event>
<event>
 4    0  0.1366207E-001  0.2671481E+03  0.7546771E-02  0.1102923E+00
         21   -1    0    0  502  501  0.00000000000E+00  0.00000000000E+00  0.14406712763E+03  0.14406712763E+03  0.00000000000E+00 0.  1.
         21   -1    0    0  503  502 -0.00000000000E+00 -0.00000000000E+00 -0.44390349224E+03  0.44390349224E+03  0.00000000000E+00 0.  1.
         25    1    1    2    0    0  0.18341898191E+03 -0.14866257083E+03 -0.12978280188E+03  0.29700447564E+03  0.12500000000E+03 0.  0.
         21    1    1    2  503  501 -0.18341898191E+03  0.14866257083E+03 -0.17005356273E+03  0.29096614422E+03  0.00000000000E+00 0.  1.
<mgrwt>
<rscale>  3 0.26714805E+03</rscale>
<asrwt>0</asrwt>
<pdfrwt beam="1">  1       21 0.22164174E-01 0.26714805E+03</pdfrwt>
<pdfrwt beam="2">  1       21 0.68292843E-01 0.26714805E+03</pdfrwt>
<totfact> 0.35960700E+04</totfact>
</mgrwt>
</event>
<event>
 4    0  0.1153473E-001  0.2977618E+03  0.7546771E-02  0.1086365E+00
         21   -1    0    0  502  501  0.00000000000E+00  0.00000000000E+00  0.19866633518E+03  0.19866633518E+03  0.00000000000E+00 0. -1.
         21   -1    0    0  503  502 -0.00000000000E+00 -0.00000000000E+00 -0.99801567265E+03  0.99801567265E+03  0.00000000000E+00 0. -1.
         25    1    1    2    0    0  0.16219604464E+03  0.21617015643E+03  0.53063869700E+02  0.30245308346E+03  0.12500000000E+03 0.  0.
         21    1    1    2  503  501 -0.16219604464E+03 -0.21617015643E+03 -0.85241320717E+03  0.89422892437E+03  0.00000000000E+00 0. -1.
<mgrwt>
<rscale>  3 0.29776181E+03</rscale>
<asrwt>0</asrwt>
<pdfrwt beam="1">  1       21 0.30564052E-01 0.29776181E+03</pdfrwt>
<pdfrwt beam="2">  1       21 0.15354087E+00 0.29776181E+03</pdfrwt>
<totfact> 0.26690057E+03</totfact>
</mgrwt>
</event>
<event>
 4    0  0.1263758E-001  0.2455043E+03  0.7546771E-02  0.1116179E+00
         21   -1    0    0  503  501  0.00000000000E+00  0.00000000000E+00  0.60949595778E+03  0.60949595778E+03  0.00000000000E+00 0.  1.
         21   -1    0    0  501  502 -0.00000000000E+00 -0.00000000000E+00 -0.14818116914E+03  0.14818116914E+03  0.00000000000E+00 0. -1.
         25    1    1    2    0    0  0.60033802404E+02 -0.20259146190E+03  0.48644742772E+03  0.54488848199E+03  0.12500000000E+03 0.  0.
         21    1    1    2  503  502 -0.60033802404E+02  0.20259146190E+03 -0.25132639089E+02  0.21278864493E+03  0.00000000000E+00 0. -1.
<mgrwt>
<rscale>  3 0.24550429E+03</rscale>
<asrwt>0</asrwt>
<pdfrwt beam="1">  1       21 0.93768608E-01 0.24550429E+03</pdfrwt>
<pdfrwt beam="2">  1       21 0.22797103E-01 0.24550429E+03</pdfrwt>
<totfact> 0.16712416E+04</totfact>
</mgrwt>
</event>
<event>
 4    0  0.1197317E-001  0.2860797E+03  0.7546771E-02  0.1092414E+00
         21   -1    0    0  503  501  0.00000000000E+00  0.00000000000E+00  0.82584437570E+03  0.82584437570E+03  0.00000000000E+00 0. -1.
         21   -1    0    0  501  502 -0.00000000000E+00 -0.00000000000E+00 -0.96595965320E+02  0.96595965320E+02  0.00000000000E+00 0. -1.
         25    1    1    2    0    0  0.14790365515E+02 -0.25690047953E+03  0.25667176126E+03  0.38434620373E+03  0.12500000000E+03 0.  0.
         21    1    1    2  503  502 -0.14790365515E+02  0.25690047953E+03  0.47257664912E+03  0.53809413729E+03  0.00000000000E+00 0. -1.
<mgrwt>
<rscale>  3 0.28607973E+03</rscale>
<asrwt>0</asrwt>
<pdfrwt beam="1">  1       21 0.12705298E+00 0.28607973E+03</pdfrwt>
<pdfrwt beam="2">  1       21 0.14860918E-01 0.28607973E+03</pdfrwt>
<totfact> 0.17342611E+04</totfact>
</mgrwt>
</event>
<event>
 4    0  0.1130473E-001  0.3482862E+03  0.7546771E-02  0.1063321E+00
         21   -1    0    0  503  501  0.00000000000E+00  0.00000000000E+00  0.71521802080E+03  0.71521802080E+03  0.00000000000E+00 0.  1.
         21   -1    0    0  501  502 -0.00000000000E+00 -0.00000000000E+00 -0.16835699405E+03  0.16835699405E+03  0.00000000000E+00 0.  1.
         25    1    1    2    0    0  0.30806575690E+03  0.10379682374E+03  0.17541793300E+03  0.38996761713E+03  0.12500000000E+03 0.  0.
         21    1    1    2  503  502 -0.30806575690E+03 -0.10379682374E+03  0.37144309375E+03  0.49360739772E+03  0.00000000000E+00 0.  1.
<mgrwt>
<rscale>  3 0.34828622E+03</rscale>
<asrwt>0</asrwt>
<pdfrwt beam="1">  1       21 0.11003354E+00 0.34828622E+03</pdfrwt>
<pdfrwt beam="2">  1       21 0.25901076E-01 0.34828622E+03</pdfrwt>
<totfact> 0.84817718E+03</totfact>
</mgrwt>
</event>
<event>
 4    0  0.1041587E-001  0.2475146E+03  0.7546771E-02  0.1114886E+00
         21   -1    0    0  503  501  0.00000000000E+00  0.00000000000E+00  0.66329814899E+02  0.66329814899E+02  0.00000000000E+00 0. -1.
         21   -1    0    0  501  502 -0.00000000000E+00 -0.00000000000E+00 -0.23832001718E+04  0.23832001718E+04  0.00000000000E+00 0.  1.
         25    1    1    2    0    0 -0.16977408633E+03 -0.12967362141E+03 -0.19019098601E+03  0.31214756068E+03  0.12500000000E+03 0.  0.
         21    1    1    2  503  502  0.16977408633E+03  0.12967362141E+03 -0.21266793709E+04  0.21373824261E+04  0.00000000000E+00 0.  1.
<mgrwt>
<rscale>  3 0.24751462E+03</rscale>
<asrwt>0</asrwt>
<pdfrwt beam="1">  1       21 0.10204587E-01 0.24751462E+03</pdfrwt>
<pdfrwt beam="2">  1       21 0.36664617E+00 0.24751462E+03</pdfrwt>
<totfact> 0.10142838E+03</totfact>
</mgrwt>
</event>
<event>
 4    0  0.1452888E-001  0.2725124E+03  0.7546771E-02  0.1099850E+00
         21   -1    0    0  503  501  0.00000000000E+00  0.00000000000E+00  0.75165861237E+03  0.75165861237E+03  0.00000000000E+00 0. -1.
         21   -1    0    0  501  502 -0.00000000000E+00 -0.00000000000E+00 -0.88194850945E+02  0.88194850945E+02  0.00000000000E+00 0. -1.
         25    1    1    2    0    0  0.23947946625E+03 -0.35883346310E+02  0.36512427142E+03  0.45560812425E+03  0.12500000000E+03 0.  0.
         21    1    1    2  503  502 -0.23947946625E+03  0.35883346310E+02  0.29833949001E+03  0.38424533907E+03  0.00000000000E+00 0. -1.
<mgrwt>
<rscale>  3 0.27251244E+03</rscale>
<asrwt>0</asrwt>
<pdfrwt beam="1">  1       21 0.11563978E+00 0.27251244E+03</pdfrwt>
<pdfrwt beam="2">  1       21 0.13568439E-01 0.27251244E+03</pdfrwt>
<totfact> 0.26102406E+04</totfact>
</mgrwt>
</event>
<event>
 4    0  0.1323598E-001  0.4206473E+03  0.7546771E-02  0.1036856E+00
         21   -1    0    0  502  501  0.00000000000E+00  0.00000000000E+00  0.47508494723E+03  0.47508494723E+03  0.00000000000E+00 0. -1.
         21   -1    0    0  503  502 -0.00000000000E+00 -0.00000000000E+00 -0.46701806555E+03  0.46701806555E+03  0.00000000000E+00 0. -1.
         25    1    1    2    0    0  0.36581312334E+03  0.16583092842E+03  0.23391798540E+03  0.48131254079E+03  0.12500000000E+03 0.  0.
         21    1    1    2  503  501 -0.36581312334E+03 -0.16583092842E+03 -0.22585110372E+03  0.46079047199E+03  0.00000000000E+00 0. -1.
<mgrwt>
<rscale>  3 0.42064728E+03</rscale>
<asrwt>0</asrwt>
<pdfrwt beam="1">  1       21 0.73089992E-01 0.42064728E+03</pdfrwt>
<pdfrwt beam="2">  1       21 0.71848933E-01 0.42064728E+03</pdfrwt>
<totfact> 0.25848474E+03</totfact>
</mgrwt>
</event>
<event>
 4    0  0.1287655E-001  0.3313203E+03  0.7546771E-02  0.1070554E+00
         21   -1    0    0  502  501  0.00000000000E+00  0.00000000000E+00  0.22133662762E+03  0.22133662762E+03  0.00000000000E+00 0.  1.
         21   -1    0    0  503  502 -0.00000000000E+00 -0.00000000000E+00 -0.60759858994E+03  0.60759858994E+03  0.00000000000E+00 0.  1.
         25    1    1    2    0    0  0.29340436206E+03  0.89788920476E+02  0.54369036867E+01  0.33136494962E+03  0.12500000000E+03 0.  0.
         21    1    1    2  503  501 -0.29340436206E+03 -0.89788920476E+02 -0.39169886600E+03  0.49757026794E+03  0.00000000000E+00 0.  1.
<mgrwt>
<rscale>  3 0.33132034E+03</rscale>
<asrwt>0</asrwt>
<pdfrwt beam="1">  1       21 0.34051789E-01 0.33132034E+03</pdfrwt>
<pdfrwt beam="2">  1       21 0.93476706E-01 0.33132034E+03</pdfrwt>
<totfact> 0.73879952E+03</totfact>
</mgrwt>
</event>
<event>
 4    0  0.1488191E-001  0.3332477E+03  0.7546771E-02  0.1069709E+00
         21   -1    0    0  503  501  0.00000000000E+00  0.00000000000E+00  0.58719971656E+03  0.58719971656E+03  0.00000000000E+00 0. -1.
         21   -1    0    0  501  502 -0.00000000000E+00 -0.00000000000E+00 -0.25781426044E+03  0.25781426044E+03  0.00000000000E+00 0. -1.
         25    1    1    2    0    0  0.24693557066E+03 -0.18561201704E+03  0.40746296286E+03  0.52638395020E+03  0.12500000000E+03 0.  0.
         21    1    1    2  503  502 -0.24693557066E+03  0.18561201704E+03 -0.78077506738E+02  0.31863002681E+03  0.00000000000E+00 0. -1.
<mgrwt>
<rscale>  3 0.33324765E+03</rscale>
<asrwt>0</asrwt>
<pdfrwt beam="1">  1       21 0.90338418E-01 0.33324765E+03</pdfrwt>
<pdfrwt beam="2">  1       21 0.39663732E-01 0.33324765E+03</pdfrwt>
<totfact> 0.58766629E+03</totfact>
</mgrwt>
</event>
<event>
 4    0  0.1003929E-001  0.2611696E+03  0.7546771E-02  0.1106443E+00
         21   -1    0    0  502  501  0.00000000000E+00  0.00000000000E+00  0.23620605907E+04  0.23620605907E+04  0.00000000000E+00 0. -1.
         21   -1    0    0  503  502 -0.00000000000E+00 -0.00000000000E+00 -0.49516741368E+02  0.49516741368E+02  0.00000000000E+00 0. -1.
         25    1    1    2    0    0  0.22930548420E+03 -0.18922452276E+01  0.20343907453E+04  0.20510863683E+04  0.12500000000E+03 0.  0.
         21    1    1    2  503  501 -0.22930548420E+03  0.18922452276E+01  0.27815310405E+03  0.36049096378E+03  0.00000000000E+00 0. -1.
<mgrwt>
<rscale>  3 0.26116965E+03</rscale>
<asrwt>0</asrwt>
<pdfrwt beam="1">  1       21 0.36339385E+00 0.26116965E+03</pdfrwt>
<pdfrwt beam="2">  1       21 0.76179621E-02 0.26116965E+03</pdfrwt>
<totfact> 0.17508137E+03</totfact>
</mgrwt>
</event>
<event>
 4    0  0.1346855E-001  0.2438401E+03  0.7546771E-02  0.1117261E+00
         21   -1    0    0  502  501  0.00000000000E+00  0.00000000000E+00  0.84468421967E+02  0.84468421967E+02  0.00000000000E+00 0.  1.
         21   -1    0    0  503  502 -0.00000000000E+00 -0.00000000000E+00 -0.82644024992E+03  0.82644024992E+03  0.00000000000E+00 0.  1.
         25    1    1    2    0    0 -0.17462347359E+03 -0.11549742542E+03 -0.15803449739E+03  0.29057342475E+03  0.12500000000E+03 0.  0.
         21    1    1    2  503  501  0.17462347359E+03  0.11549742542E+03 -0.58393733057E+03  0.62033524713E+03  0.00000000000E+00 0.  1.
<mgrwt>
<rscale>  3 0.24384014E+03</rscale>
<asrwt>0</asrwt>
<pdfrwt beam="1">  1       21 0.12995142E-01 0.24384014E+03</pdfrwt>
<pdfrwt beam="2">  1       21 0.12714466E+00 0.24384014E+03</pdfrwt>
<totfact> 0.22569414E+04</totfact>
</mgrwt>
</event>
<event>
 4    0  0.1049547E-001  0.2752025E+03  0.7546771E-02  0.1098338E+00
         21   -1    0    0  502  501  0.00000000000E+00  0.00000000000E+00  0.33974485086E+03  0.33974485086E+03  0.00000000000E+00 0. -1.
         21   -1    0    0  503  502 -0.00000000000E+00 -0.00000000000E+00 -0.72539504269E+03  0.72539504269E+03  0.00000000000E+00 0. -1.
         25    1    1    2    0    0 -0.11281353380E+03  0.21767984875E+03  0.25747330972E+03  0.37686723813E+03  0.12500000000E+03 0.  0.
         21    1    1    2  503  501  0.11281353380E+03 -0.21767984875E+03 -0.64312350155E+03  0.68827265542E+03  0.00000000000E+00 0. -1.
<mgrwt>
<rscale>  3 0.27520249E+03</rscale>
<asrwt>0</asrwt>
<pdfrwt beam="1">  1       21 0.52268439E-01 0.27520249E+03</pdfrwt>
<pdfrwt beam="2">  1       21 0.11159924E+00 0.27520249E+03</pdfrwt>
<totfact> 0.20540537E+03</totfact>
</mgrwt>
</event>
<event>
 4    0  0.1003929E-001  0.2832450E+03  0.7546771E-02  0.1093930E+00
         21   -1    0    0  503  501  0.00000000000E+00  0.00000000000E+00  0.96558492722E+03  0.96558492722E+03  0.00000000000E+00 0. -1.
         21   -1    0    0  501  502 -0.00000000000E+00 -0.00000000000E+00 -0.99938514160E+03  0.99938514160E+03  0.00000000000E+00 0. -1.
         25    1    1    2    0    0  0.17564743123E+03 -0.18371360314E+03  0.92794206945E+03  0.97020832419E+03  0.12500000000E+03 0.  0.
         21    1    1    2  503  502 -0.17564743123E+03  0.18371360314E+03 -0.96174228383E+03  0.99476174463E+03  0.00000000000E+00 0. -1.
<mgrwt>
<rscale>  3 0.28324496E+03</rscale>
<asrwt>0</asrwt>
<pdfrwt beam="1">  1       21 0.14855153E+00 0.28324496E+03</pdfrwt>
<pdfrwt beam="2">  1       21 0.15375156E+00 0.28324496E+03</pdfrwt>
<totfact> 0.77099576E+01</totfact>
</mgrwt>
</event>
<event>
 4    0  0.1576865E-001  0.2667043E+03  0.7546771E-02  0.1103181E+00
         21   -1    0    0  502  501  0.00000000000E+00  0.00000000000E+00  0.41785868055E+03  0.41785868055E+03  0.00000000000E+00 0. -1.
         21   -1    0    0  503  502 -0.00000000000E+00 -0.00000000000E+00 -0.15422970522E+03  0.15422970522E+03  0.00000000000E+00 0. -1.
         25    1    1    2    0    0  0.18108868114E+03  0.15070856962E+03  0.18142296455E+03  0.32256080893E+03  0.12500000000E+03 0.  0.
         21    1    1    2  503  501 -0.18108868114E+03 -0.15070856962E+03  0.82206010776E+02  0.24952757684E+03  0.00000000000E+00 0. -1.
<mgrwt>
<rscale>  3 0.26670430E+03</rscale>
<asrwt>0</asrwt>
<pdfrwt beam="1">  1       21 0.64285950E-01 0.26670430E+03</pdfrwt>
<pdfrwt beam="2">  1       21 0.23727647E-01 0.26670430E+03</pdfrwt>
<totfact> 0.36080551E+04</totfact>
</mgrwt>
</event>
<event>
 4    0  0.1473371E-001  0.2656054E+03  0.7546771E-02  0.1103821E+00
         21   -1    0    0  503  501  0.00000000000E+00  0.00000000000E+00  0.20782372208E+03  0.20782372208E+03  0.00000000000E+00 0.  1.
         21   -1    0    0  501  502 -0.00000000000E+00 -0.00000000000E+00 -0.43207668533E+03  0.43207668533E+03  0.00000000000E+00 0.  1.
         25    1    1    2    0    0 -0.18597394447E+03 -0.14260048817E+03  0.59191112649E+02  0.27212091993E+03  0.12500000000E+03 0.  0.
         21    1    1    2  503  502  0.18597394447E+03  0.14260048817E+03 -0.28344407590E+03  0.36777948748E+03  0.00000000000E+00 0.  1.
<mgrwt>
<rscale>  3 0.26560536E+03</rscale>
<asrwt>0</asrwt>
<pdfrwt beam="1">  1       21 0.31972880E-01 0.26560536E+03</pdfrwt>
<pdfrwt beam="2">  1       21 0.66473336E-01 0.26560536E+03</pdfrwt>
<totfact> 0.18776579E+04</totfact>
</mgrwt>
</event>
<event>
 4    0  0.1003929E-001  0.3096639E+03  0.7546771E-02  0.1080507E+00
         21   -1    0    0  503  501  0.00000000000E+00  0.00000000000E+00  0.13264897875E+04  0.13264897875E+04  0.00000000000E+00 0. -1.
         21   -1    0    0  501  502 -0.00000000000E+00 -0.00000000000E+00 -0.20340000355E+03  0.20340000355E+03  0.00000000000E+00 0. -1.
         25    1    1    2    0    0 -0.11261551006E+03  0.25997019945E+03  0.11975627939E+04  0.12369512533E+04  0.12500000000E+03 0.  0.
         21    1    1    2  503  502  0.11261551006E+03 -0.25997019945E+03 -0.74473009920E+02  0.29293853777E+03  0.00000000000E+00 0. -1.
<mgrwt>
<rscale>  3 0.30966394E+03</rscale>
<asrwt>0</asrwt>
<pdfrwt beam="1">  1       21 0.20407535E+00 0.30966394E+03</pdfrwt>
<pdfrwt beam="2">  1       21 0.31292309E-01 0.30966394E+03</pdfrwt>
<totfact> 0.11197750E+03</totfact>
</mgrwt>
</event>
<event>
 4    0  0.1296604E-001  0.4358058E+03  0.7546771E-02  0.1032041E+00
         21   -1    0    0  502  501  0.00000000000E+00  0.00000000000E+00  0.34360125657E+03  0.34360125657E+03  0.00000000000E+00 0. -1.
         21   -1    0    0  503  502 -0.00000000000E+00 -0.00000000000E+00 -0.67299234429E+03  0.67299234429E+03  0.00000000000E+00 0. -1.
         25    1    1    2    0    0  0.17038611212E+03  0.38114337592E+03  0.66964492049E+02  0.44092056360E+03  0.12500000000E+03 0.  0.
         21    1    1    2  503  501 -0.17038611212E+03 -0.38114337592E+03 -0.39635557978E+03  0.57567303726E+03  0.00000000000E+00 0. -1.
<mgrwt>
<rscale>  3 0.43580581E+03</rscale>
<asrwt>0</asrwt>
<pdfrwt beam="1">  1       21 0.52861732E-01 0.43580581E+03</pdfrwt>
<pdfrwt beam="2">  1       21 0.10353728E+00 0.43580581E+03</pdfrwt>
<totfact> 0.22257737E+03</totfact>
</mgrwt>
</event>
<event>
 4    0  0.1003929E-001  0.2410407E+03  0.7546771E-02  0.1119101E+00
         21   -1    0    0  503  501  0.00000000000E+00  0.00000000000E+00  0.37724922489E+03  0.37724922489E+03  0.00000000000E+00 0.  1.
         21   -1    0    0  501  502 -0.00000000000E+00 -0.00000000000E+00 -0.17006032003E+03  0.17006032003E+03  0.00000000000E+00 0. -1.
         25    1    1    2    0    0 -0.59199672048E+02  0.19741083292E+03  0.23821524155E+03  0.33889104360E+03  0.12500000000E+03 0.  0.
         21    1    1    2  503  502  0.59199672048E+02 -0.19741083292E+03 -0.31026336693E+02  0.20841850133E+03  0.00000000000E+00 0. -1.
<mgrwt>
<rscale>  3 0.24104074E+03</rscale>
<asrwt>0</asrwt>
<pdfrwt beam="1">  1       21 0.58038342E-01 0.24104074E+03</pdfrwt>
<pdfrwt beam="2">  1       21 0.26163126E-01 0.24104074E+03</pdfrwt>
<totfact> 0.37732923E+04</totfact>
</mgrwt>
</event>
<event>
 4    0  0.1380943E-001  0.2601589E+03  0.7546771E-02  0.1107048E+00
         21   -1    0    0  503  501  0.00000000000E+00  0.00000000000E+00  0.10014398752E+04  0.10014398752E+04  0.00000000000E+00 0. -1.
         21   -1    0    0  501  502 -0.00000000000E+00 -0.00000000000E+00 -0.82329872586E+02  0.82329872586E+02  0.00000000000E+00 0. -1.
         25    1    1    2    0    0  0.18130086235E+01 -0.22815431458E+03  0.76605807260E+03  0.80902883067E+03  0.12500000000E+03 0.  0.
         21    1    1    2  503  502 -0.18130086235E+01  0.22815431458E+03  0.15305193004E+03  0.27474091714E+03  0.00000000000E+00 0. -1.
<mgrwt>
<rscale>  3 0.26015895E+03</rscale>
<asrwt>0</asrwt>
<pdfrwt beam="1">  1       21 0.15406766E+00 0.26015895E+03</pdfrwt>
<pdfrwt beam="2">  1       21 0.12666135E-01 0.26015895E+03</pdfrwt>
<totfact> 0.14209515E+04</totfact>
</mgrwt>
</event>
<event>
 4    0  0.1210240E-001  0.2714763E+03  0.7546771E-02  0.1100438E+00
         21   -1    0    0  503  501  0.00000000000E+00  0.00000000000E+00  0.54952249361E+02  0.54952249361E+02  0.00000000000E+00 0. -1.
         21   -1    0    0  501  502 -0.00000000000E+00 -0.00000000000E+00 -0.12725671078E+04  0.12725671078E+04  0.00000000000E+00 0. -1.
         25    1    1    2    0    0 -0.24083646665E+03 -0.84964639748E+01 -0.80667404832E+03  0.85113008042E+03  0.12500000000E+03 0.  0.
         21    1    1    2  503  502  0.24083646665E+03  0.84964639748E+01 -0.41094081010E+03  0.47638927672E+03  0.00000000000E+00 0. -1.
<mgrwt>
<rscale>  3 0.27147632E+03</rscale>
<asrwt>0</asrwt>
<pdfrwt beam="1">  1       21 0.84541932E-02 0.27147632E+03</pdfrwt>
<pdfrwt beam="2">  1       21 0.19577953E+00 0.27147632E+03</pdfrwt>
<totfact> 0.14769487E+04</totfact>
</mgrwt>
</event>
<event>
 4    0  0.1003929E-001  0.3031864E+03  0.7546771E-02  0.1083659E+00
         21   -1    0    0  503  501  0.00000000000E+00  0.00000000000E+00  0.81551769979E+02  0.81551769979E+02  0.00000000000E+00 0.  1.
         21   -1    0    0  501  502 -0.00000000000E+00 -0.00000000000E+00 -0.14278874135E+04  0.14278874135E+04  0.00000000000E+00 0.  1.
         25    1    1    2    0    0 -0.51532054059E+02 -0.27136958192E+03 -0.10942708344E+04  0.11354957779E+04  0.12500000000E+03 0.  0.
         21    1    1    2  503  502  0.51532054059E+02  0.27136958192E+03 -0.25206480913E+03  0.37394340560E+03  0.00000000000E+00 0.  1.
<mgrwt>
<rscale>  3 0.30318642E+03</rscale>
<asrwt>0</asrwt>
<pdfrwt beam="1">  1       21 0.12546426E-01 0.30318642E+03</pdfrwt>
<pdfrwt beam="2">  1       21 0.21967498E+00 0.30318642E+03</pdfrwt>
<totfact> 0.50274825E+03</totfact>
</mgrwt>
</event>
<event>
 4    0  0.1003929E-001  0.2421759E+03  0.7546771E-02  0.1118352E+00
         21   -1    0    0  502  501  0.00000000000E+00  0.00000000000E+00  0.18917016981E+03  0.18917016981E+03  0.00000000000E+00 0.  1.
         21   -1    0    0  503  502 -0.00000000000E+00 -0.00000000000E+00 -0.26716128024E+03  0.26716128024E+03  0.00000000000E+00 0. -1.
         25    1    1    2    0    0 -0.10858173597E+03  0.17673191981E+03 -0.39929283193E+02  0.24544553881E+03  0.12500000000E+03 0.  0.
         21    1    1    2  503  501  0.10858173597E+03 -0.17673191981E+03 -0.38061827239E+02  0.21088591124E+03  0.00000000000E+00 0. -1.
<mgrwt>
<rscale>  3 0.24217590E+03</rscale>
<asrwt>0</asrwt>
<pdfrwt beam="1">  1       21 0.29103103E-01 0.24217590E+03</pdfrwt>
<pdfrwt beam="2">  1       21 0.41101735E-01 0.24217590E+03</pdfrwt>
<totfact> 0.63104998E+04</totfact>
</mgrwt>
</event>
<event>
 4    0  0.1329602E-001  0.2657581E+03  0.7546771E-02  0.1103732E+00
         21   -1    0    0  503  501  0.00000000000E+00  0.00000000000E+00  0.39465436780E+03  0.39465436780E+03  0.00000000000E+00 0.  1.
         21   -1    0    0  501  502 -0.00000000000E+00 -0.00000000000E+00 -0.16218186595E+03  0.16218186595E+03  0.00000000000E+00 0.  1.
         25    1    1    2    0    0  0.20019093099E+03 -0.12217176130E+03  0.81724272008E+02  0.27803993372E+03  0.12500000000E+03 0.  0.
         21    1    1    2  503  502 -0.20019093099E+03  0.12217176130E+03  0.15074822985E+03  0.27879630003E+03  0.00000000000E+00 0.  1.
<mgrwt>
<rscale>  3 0.26575806E+03</rscale>
<asrwt>0</asrwt>
<pdfrwt beam="1">  1       21 0.60716056E-01 0.26575806E+03</pdfrwt>
<pdfrwt beam="2">  1       21 0.24951056E-01 0.26575806E+03</pdfrwt>
<totfact> 0.37122350E+04</totfact>
</mgrwt>
</event>
<event>
 4    0  0.1542916E-001  0.2468780E+03  0.7546771E-02  0.1115294E+00
         21   -1    0    0  503  501  0.00000000000E+00  0.00000000000E+00  0.11275934227E+03  0.11275934227E+03  0.00000000000E+00 0. -1.
         21   -1    0    0  501  502 -0.00000000000E+00 -0.00000000000E+00 -0.67473583585E+03  0.67473583585E+03  0.00000000000E+00 0. -1.
         25    1    1    2    0    0 -0.19086547602E+03  0.94308521717E+02 -0.78233181851E+02  0.25897713789E+03  0.12500000000E+03 0.  0.
         21    1    1    2  503  502  0.19086547602E+03 -0.94308521717E+02 -0.48374331173E+03  0.52851804023E+03  0.00000000000E+00 0. -1.
<mgrwt>
<rscale>  3 0.24687796E+03</rscale>
<asrwt>0</asrwt>
<pdfrwt beam="1">  1       21 0.17347591E-01 0.24687796E+03</pdfrwt>
<pdfrwt beam="2">  1       21 0.10380551E+00 0.24687796E+03</pdfrwt>
<totfact> 0.21894029E+04</totfact>
</mgrwt>
</event>
<event>
 4    0  0.1003929E-001  0.8036660E+03  0.7546771E-02  0.9554726E-01
         21   -1    0    0  503  501  0.00000000000E+00  0.00000000000E+00  0.87602977656E+03  0.87602977656E+03  0.00000000000E+00 0.  1.
         21   -1    0    0  501  502 -0.00000000000E+00 -0.00000000000E+00 -0.14755240006E+04  0.14755240006E+04  0.00000000000E+00 0. -1.
         25    1    1    2    0    0  0.59741548134E+03  0.52282762856E+03  0.53603437408E+03  0.96602890057E+03  0.12500000000E+03 0.  0.
         21    1    1    2  503  502 -0.59741548134E+03 -0.52282762856E+03 -0.11355285981E+04  0.13855248766E+04  0.00000000000E+00 0. -1.
<mgrwt>
<rscale>  3 0.80366597E+03</rscale>
<asrwt>0</asrwt>
<pdfrwt beam="1">  1       21 0.13477381E+00 0.80366597E+03</pdfrwt>
<pdfrwt beam="2">  1       21 0.22700369E+00 0.80366597E+03</pdfrwt>
<totfact> 0.23243310E+01</totfact>
</mgrwt>
</event>
<event>
 4    0  0.1003929E-001  0.4600456E+03  0.7546771E-02  0.1024768E+00
         21   -1    0    0  503  501  0.00000000000E+00  0.00000000000E+00  0.94239297746E+03  0.94239297746E+03  0.00000000000E+00 0. -1.
         21   -1    0    0  501  502 -0.00000000000E+00 -0.00000000000E+00 -0.76560130710E+03  0.76560130710E+03  0.00000000000E+00 0. -1.
         25    1    1    2    0    0 -0.41165600911E+03 -0.16296100711E+03  0.81226612511E+03  0.93349784021E+03  0.12500000000E+03 0.  0.
         21    1    1    2  503  502  0.41165600911E+03  0.16296100711E+03 -0.63547445475E+03  0.77449644435E+03  0.00000000000E+00 0. -1.
<mgrwt>
<rscale>  3 0.46004561E+03</rscale>
<asrwt>0</asrwt>
<pdfrwt beam="1">  1       21 0.14498353E+00 0.46004561E+03</pdfrwt>
<pdfrwt beam="2">  1       21 0.11778482E+00 0.46004561E+03</pdfrwt>
<totfact> 0.14565953E+02</totfact>
</mgrwt>
</event>
<event>
 4    0  0.1003929E-001  0.2940115E+03  0.7546771E-02  0.1088273E+00
         21   -1    0    0  502  501  0.00000000000E+00  0.00000000000E+00  0.53978664666E+03  0.53978664666E+03  0.00000000000E+00 0. -1.
         21   -1    0    0  503  502 -0.00000000000E+00 -0.00000000000E+00 -0.10281796462E+04  0.10281796462E+04  0.00000000000E+00 0. -1.
         25    1    1    2    0    0  0.14537049997E+03 -0.22290168107E+03  0.48043270333E+03  0.56325688999E+03  0.12500000000E+03 0.  0.
         21    1    1    2  503  501 -0.14537049997E+03  0.22290168107E+03 -0.96882570284E+03  0.10047094029E+04  0.00000000000E+00 0. -1.
<mgrwt>
<rscale>  3 0.29401147E+03</rscale>
<asrwt>0</asrwt>
<pdfrwt beam="1">  1       21 0.83044100E-01 0.29401147E+03</pdfrwt>
<pdfrwt beam="2">  1       21 0.15818148E+00 0.29401147E+03</pdfrwt>
<totfact> 0.29678386E+02</totfact>
</mgrwt>
</event>
<event>
 4    0  0.1371498E-001  0.2732193E+03  0.7546771E-02  0.1099451E+00
         21   -1    0    0  502  501  0.00000000000E+00  0.00000000000E+00  0.58929209574E+02  0.58929209574E+02  0.00000000000E+00 0. -1.
         21   -1    0    0  503  502 -0.00000000000E+00 -0.00000000000E+00 -0.11303257133E+04  0.11303257133E+04  0.00000000000E+00 0. -1.
         25    1    1    2    0    0 -0.18745341964E+03  0.15454766925E+03 -0.57038322689E+03  0.63244429962E+03  0.12500000000E+03 0.  0.
         21    1    1    2  503  501  0.18745341964E+03 -0.15454766925E+03 -0.50101327685E+03  0.55681062327E+03  0.00000000000E+00 0. -1.
<mgrwt>
<rscale>  3 0.27321926E+03</rscale>
<asrwt>0</asrwt>
<pdfrwt beam="1">  1       21 0.90660329E-02 0.27321926E+03</pdfrwt>
<pdfrwt beam="2">  1       21 0.17389625E+00 0.27321926E+03</pdfrwt>
<totfact> 0.18383612E+04</totfact>
</mgrwt>
</event>
<event>
 4    0  0.1440130E-001  0.2984937E+03  0.7546771E-02  0.1085996E+00
         21   -1    0    0  503  501  0.00000000000E+00  0.00000000000E+00  0.14955922187E+03  0.14955922187E+03  0.00000000000E+00 0.  1.
         21   -1    0    0  501  502 -0.00000000000E+00 -0.00000000000E+00 -0.54465617749E+03  0.54465617749E+03  0.00000000000E+00 0.  1.
         25    1    1    2    0    0  0.26128349689E+03  0.72141795224E+02 -0.23008644200E+03  0.37687965607E+03  0.12500000000E+03 0.  0.
         21    1    1    2  503  502 -0.26128349689E+03 -0.72141795224E+02 -0.16501051363E+03  0.31733574329E+03  0.00000000000E+00 0.  1.
<mgrwt>
<rscale>  3 0.29849373E+03</rscale>
<asrwt>0</asrwt>
<pdfrwt beam="1">  1       21 0.23009111E-01 0.29849373E+03</pdfrwt>
<pdfrwt beam="2">  1       21 0.83793258E-01 0.29849373E+03</pdfrwt>
<totfact> 0.20827608E+04</totfact>
</mgrwt>
</event>
<event>
 4    0  0.1311231E-001  0.4512599E+03  0.7546771E-02  0.1027347E+00
         21   -1    0    0  503  501  0.00000000000E+00  0.00000000000E+00  0.52793863352E+03  0.52793863352E+03  0.00000000000E+00 0.  1.
         21   -1    0    0  501  502 -0.00000000000E+00 -0.00000000000E+00 -0.57321874999E+03  0.57321874999E+03  0.00000000000E+00 0. -1.
         25    1    1    2    0    0  0.67656928119E+02 -0.42829082454E+03  0.30422628472E+03  0.54423259974E+03  0.12500000000E+03 0.  0.
         21    1    1    2  503  502 -0.67656928119E+02  0.42829082454E+03 -0.34950640120E+03  0.55692478377E+03  0.00000000000E+00 0. -1.
<mgrwt>
<rscale>  3 0.45125989E+03</rscale>
<asrwt>0</asrwt>
<pdfrwt beam="1">  1       21 0.81221328E-01 0.45125989E+03</pdfrwt>
<pdfrwt beam="2">  1       21 0.88187500E-01 0.45125989E+03</pdfrwt>
<totfact> 0.12500861E+03</totfact>
</mgrwt>
</event>
<event>
 4    0  0.1434840E-001  0.3976567E+03  0.7546771E-02  0.1044594E+00
         21   -1    0    0  503  501  0.00000000000E+00  0.00000000000E+00  0.78213892781E+03  0.78213892781E+03  0.00000000000E+00 0.  1.
         21   -1    0    0  501  502 -0.00000000000E+00 -0.00000000000E+00 -0.20498332375E+03  0.20498332375E+03  0.00000000000E+00 0.  1.
         25    1    1    2    0    0  0.17459280149E+03  0.33469872450E+03  0.41950230029E+03  0.57802513999E+03  0.12500000000E+03 0.  0.
         21    1    1    2  503  502 -0.17459280149E+03 -0.33469872450E+03  0.15765330378E+03  0.40909711158E+03  0.00000000000E+00 0.  1.
<mgrwt>
<rscale>  3 0.39765674E+03</rscale>
<asrwt>0</asrwt>
<pdfrwt beam="1">  1       21 0.12032906E+00 0.39765674E+03</pdfrwt>
<pdfrwt beam="2">  1       21 0.31535896E-01 0.39765674E+03</pdfrwt>
<totfact> 0.45166166E+03</totfact>
</mgrwt>
</event>
<event>
 4    0  0.1395476E-001  0.2810061E+03  0.7546771E-02  0.1095141E+00
         21   -1    0    0  503  501  0.00000000000E+00  0.00000000000E+00  0.31437294747E+03  0.31437294747E+03  0.00000000000E+00 0.  1.
         21   -1    0    0  501  502 -0.00000000000E+00 -0.00000000000E+00 -0.23501844963E+03  0.23501844963E+03  0.00000000000E+00 0.  1.
         25    1    1    2    0    0  0.15257302443E+03 -0.20015218926E+03 -0.13003132225E+02  0.28130678643E+03  0.12500000000E+03 0.  0.
         21    1    1    2  503  502 -0.15257302443E+03  0.20015218926E+03  0.92357630058E+02  0.26808461067E+03  0.00000000000E+00 0.  1.
<mgrwt>
<rscale>  3 0.28100610E+03</rscale>
<asrwt>0</asrwt>
<pdfrwt beam="1">  1       21 0.48365069E-01 0.28100610E+03</pdfrwt>
<pdfrwt beam="2">  1       21 0.36156685E-01 0.28100610E+03</pdfrwt>
<totfact> 0.28886064E+04</totfact>
</mgrwt>
</event>
<event>
 4    0  0.1234549E-001  0.2393313E+03  0.7546771E-02  0.1120239E+00
         21   -1    0    0  503  501  0.00000000000E+00  0.00000000000E+00  0.88961023994E+03  0.88961023994E+03  0.00000000000E+00 0.  1.
         21   -1    0    0  501  502 -0.00000000000E+00 -0.00000000000E+00 -0.85331616447E+02  0.85331616447E+02  0.00000000000E+00 0.  1.
         25    1    1    2    0    0  0.50281622702E+02 -0.19780352043E+03  0.71164042129E+03  0.75080727454E+03  0.12500000000E+03 0.  0.
         21    1    1    2  503  502 -0.50281622702E+02  0.19780352043E+03  0.92638202196E+02  0.22413458185E+03  0.00000000000E+00 0.  1.
<mgrwt>
<rscale>  3 0.23933131E+03</rscale>
<asrwt>0</asrwt>
<pdfrwt beam="1">  1       21 0.13686311E+00 0.23933131E+03</pdfrwt>
<pdfrwt beam="2">  1       21 0.13127942E-01 0.23933131E+03</pdfrwt>
<totfact> 0.18405499E+04</totfact>
</mgrwt>
</event>
<event>
 4    0  0.1003929E-001  0.2503945E+03  0.7546771E-02  0.1113056E+00
         21   -1    0    0  502  501  0.00000000000E+00  0.00000000000E+00  0.32173368025E+03  0.32173368025E+03  0.00000000000E+00 0.  1.
         21   -1    0    0  503  502 -0.00000000000E+00 -0.00000000000E+00 -0.83687922719E+03  0.83687922719E+03  0.00000000000E+00 0.  1.
         25    1    1    2    0    0  0.21125345817E+03  0.49440788576E+02  0.25566048359E+03  0.35785429721E+03  0.12500000000E+03 0.  0.
         21    1    1    2  503  501 -0.21125345817E+03 -0.49440788576E+02 -0.77080603052E+03  0.80075861023E+03  0.00000000000E+00 0.  1.
<mgrwt>
<rscale>  3 0.25039452E+03</rscale>
<asrwt>0</asrwt>
<pdfrwt beam="1">  1       21 0.49497490E-01 0.25039452E+03</pdfrwt>
<pdfrwt beam="2">  1       21 0.12875065E+00 0.25039452E+03</pdfrwt>
<totfact> 0.16403978E+03</totfact>
</mgrwt>
</event>
<event>
 4    0  0.1003929E-001  0.2417268E+03  0.7546771E-02  0.1118648E+00
         21   -1    0    0  503  501  0.00000000000E+00  0.00000000000E+00  0.19138091231E+04  0.19138091231E+04  0.00000000000E+00 0.  1.
         21   -1    0    0  501  502 -0.00000000000E+00 -0.00000000000E+00 -0.39039117549E+02  0.39039117549E+02  0.00000000000E+00 0.  1.
         25    1    1    2    0    0 -0.20184104538E+03  0.45464502548E+02  0.15432304402E+04  0.15620473809E+04  0.12500000000E+03 0.  0.
         21    1    1    2  503  502  0.20184104538E+03 -0.45464502548E+02  0.33153956533E+03  0.39080085974E+03  0.00000000000E+00 0.  1.
<mgrwt>
<rscale>  3 0.24172676E+03</rscale>
<asrwt>0</asrwt>
<pdfrwt beam="1">  1       21 0.29443210E+00 0.24172676E+03</pdfrwt>
<pdfrwt beam="2">  1       21 0.60060196E-02 0.24172676E+03</pdfrwt>
<totfact> 0.68875222E+03</totfact>
</mgrwt>
</event>
<event>
 4    0  0.1119045E-001  0.2666653E+03  0.7546771E-02  0.1103203E+00
         21   -1    0    0  502  501  0.00000000000E+00  0.00000000000E+00  0.81605582174E+02  0.81605582174E+02  0.00000000000E+00 0. -1.
         21   -1    0    0  503  502 -0.00000000000E+00 -0.00000000000E+00 -0.88458238958E+03  0.88458238958E+03  0.00000000000E+00 0. -1.
         25    1    1    2    0    0 -0.23499163617E+03 -0.16257039052E+02 -0.59474108524E+03  0.65178778668E+03  0.12500000000E+03 0.  0.
         21    1    1    2  503  501  0.23499163617E+03  0.16257039052E+02 -0.20823572217E+03  0.31440018508E+03  0.00000000000E+00 0. -1.
<mgrwt>
<rscale>  3 0.26666526E+03</rscale>
<asrwt>0</asrwt>
<pdfrwt beam="1">  1       21 0.12554705E-01 0.26666526E+03</pdfrwt>
<pdfrwt beam="2">  1       21 0.13608959E+00 0.26666526E+03</pdfrwt>
<totfact> 0.19961037E+04</totfact>
</mgrwt>
</event>
<event>
 4    0  0.1563468E-001  0.2413135E+03  0.7546771E-02  0.1118921E+00
         21   -1    0    0  503  501  0.00000000000E+00  0.00000000000E+00  0.23880532193E+03  0.23880532193E+03  0.00000000000E+00 0. -1.
         21   -1    0    0  501  502 -0.00000000000E+00 -0.00000000000E+00 -0.21277719873E+03  0.21277719873E+03  0.00000000000E+00 0. -1.
         25    1    1    2    0    0  0.11401209293E+03 -0.17207101777E+03  0.40381965427E+02  0.24466895108E+03  0.12500000000E+03 0.  0.
         21    1    1    2  503  502 -0.11401209293E+03  0.17207101777E+03 -0.14353842225E+02  0.20691356958E+03  0.00000000000E+00 0. -1.
<mgrwt>
<rscale>  3 0.24131347E+03</rscale>
<asrwt>0</asrwt>
<pdfrwt beam="1">  1       21 0.36739280E-01 0.24131347E+03</pdfrwt>
<pdfrwt beam="2">  1       21 0.32734954E-01 0.24131347E+03</pdfrwt>
<totfact> 0.62860792E+04</totfact>
</mgrwt>
</event>
<event>
 4    0  0.1003929E-001  0.2416191E+03  0.7546771E-02  0.1118719E+00
         21   -1    0    0  503  501  0.00000000000E+00  0.00000000000E+00  0.62798881442E+02  0.62798881442E+02  0.00000000000E+00 0. -1.
         21   -1    0    0  501  502 -0.00000000000E+00 -0.00000000000E+00 -0.89480766244E+03  0.89480766244E+03  0.00000000000E+00 0.  1.
         25    1    1    2    0    0  0.19829636758E+03 -0.58594518098E+02 -0.28981317889E+03  0.37732140889E+03  0.12500000000E+03 0.  0.
         21    1    1    2  503  502 -0.19829636758E+03  0.58594518098E+02 -0.54219560211E+03  0.58028513499E+03  0.00000000000E+00 0.  1.
<mgrwt>
<rscale>  3 0.24161905E+03</rscale>
<asrwt>0</asrwt>
<pdfrwt beam="1">  1       21 0.96613665E-02 0.24161905E+03</pdfrwt>
<pdfrwt beam="2">  1       21 0.13766272E+00 0.24161905E+03</pdfrwt>
<totfact> 0.31352466E+04</totfact>
</mgrwt>
</event>
<event>
 4    0  0.1214114E-001  0.2525400E+03  0.7546771E-02  0.1111710E+00
         21   -1    0    0  502  501  0.00000000000E+00  0.00000000000E+00  0.25607703244E+03  0.25607703244E+03  0.00000000000E+00 0.  1.
         21   -1    0    0  503  502 -0.00000000000E+00 -0.00000000000E+00 -0.33498271772E+03  0.33498271772E+03  0.00000000000E+00 0. -1.
         25    1    1    2    0    0  0.21510502574E+03 -0.43373962443E+02  0.13350629859E+03  0.28565784512E+03  0.12500000000E+03 0.  0.
         21    1    1    2  503  501 -0.21510502574E+03  0.43373962443E+02 -0.21241198386E+03  0.30540190504E+03  0.00000000000E+00 0. -1.
<mgrwt>
<rscale>  3 0.25254004E+03</rscale>
<asrwt>0</asrwt>
<pdfrwt beam="1">  1       21 0.39396467E-01 0.25254004E+03</pdfrwt>
<pdfrwt beam="2">  1       21 0.51535803E-01 0.25254004E+03</pdfrwt>
<totfact> 0.21518230E+04</totfact>
</mgrwt>
</event>
<event>
 4    0  0.1392638E-001  0.3223281E+03  0.7546771E-02  0.1074583E+00
         21   -1    0    0  503  501  0.00000000000E+00  0.00000000000E+00  0.99079352748E+03  0.99079352748E+03  0.00000000000E+00 0.  1.
         21   -1    0    0  501  502 -0.00000000000E+00 -0.00000000000E+00 -0.10396513412E+03  0.10396513412E+03  0.00000000000E+00 0.  1.
         25    1    1    2    0    0 -0.44279670221E+02 -0.29378518737E+03  0.60366606443E+03  0.68433043396E+03  0.12500000000E+03 0.  0.
         21    1    1    2  503  502  0.44279670221E+02  0.29378518737E+03  0.28316232894E+03  0.41042822763E+03  0.00000000000E+00 0.  1.
<mgrwt>
<rscale>  3 0.32232813E+03</rscale>
<asrwt>0</asrwt>
<pdfrwt beam="1">  1       21 0.15242977E+00 0.32232813E+03</pdfrwt>
<pdfrwt beam="2">  1       21 0.15994637E-01 0.32232813E+03</pdfrwt>
<totfact> 0.92452156E+03</totfact>
</mgrwt>
</event>
<event>
 4    0  0.1397468E-001  0.2611025E+03  0.7546771E-02  0.1106483E+00
         21   -1    0    0  503  501  0.00000000000E+00  0.00000000000E+00  0.70745864926E+03  0.70745864926E+03  0.00000000000E+00 0.  1.
         21   -1    0    0  501  502 -0.00000000000E+00 -0.00000000000E+00 -0.87799851388E+02  0.87799851388E+02  0.00000000000E+00 0.  1.
         25    1    1    2    0    0  0.19304349826E+03 -0.12362737200E+03  0.40063559939E+03  0.47820853487E+03  0.12500000000E+03 0.  0.
         21    1    1    2  503  502 -0.19304349826E+03  0.12362737200E+03  0.21902319849E+03  0.31704996578E+03  0.00000000000E+00 0.  1.
<mgrwt>
<rscale>  3 0.26110251E+03</rscale>
<asrwt>0</asrwt>
<pdfrwt beam="1">  1       21 0.10883979E+00 0.26110251E+03</pdfrwt>
<pdfrwt beam="2">  1       21 0.13507670E-01 0.26110251E+03</pdfrwt>
<totfact> 0.30689261E+04</totfact>
</mgrwt>
</event>
<event>
 4    0  0.1469197E-001  0.2598006E+03  0.7546771E-02  0.1107263E+00
         21   -1    0    0  502  501  0.00000000000E+00  0.00000000000E+00  0.17300553727E+03  0.17300553727E+03  0.00000000000E+00 0. -1.
         21   -1    0    0  503  502 -0.00000000000E+00 -0.00000000000E+00 -0.45726663589E+03  0.45726663589E+03  0.00000000000E+00 0. -1.
         25    1    1    2    0    0  0.86508085614E+02  0.21068394339E+03  0.77857740606E+01  0.25991727753E+03  0.12500000000E+03 0.  0.
         21    1    1    2  503  501 -0.86508085614E+02 -0.21068394339E+03 -0.29204687268E+03  0.37035489563E+03  0.00000000000E+00 0. -1.
<mgrwt>
<rscale>  3 0.25980064E+03</rscale>
<asrwt>0</asrwt>
<pdfrwt beam="1">  1       21 0.26616237E-01 0.25980064E+03</pdfrwt>
<pdfrwt beam="2">  1       21 0.70348713E-01 0.25980064E+03</pdfrwt>
<totfact> 0.23776927E+04</totfact>
</mgrwt>
</event>
<event>
 4    0  0.1186411E-001  0.2909752E+03  0.7546771E-02  0.1089841E+00
         21   -1    0    0  503  501  0.00000000000E+00  0.00000000000E+00  0.68856576975E+03  0.68856576975E+03  0.00000000000E+00 0. -1.
         21   -1    0    0  501  502 -0.00000000000E+00 -0.00000000000E+00 -0.25005736776E+03  0.25005736776E+03  0.00000000000E+00 0. -1.
         25    1    1    2    0    0  0.15602181265E+03 -0.21142083857E+03  0.57359239945E+03  0.64317557301E+03  0.12500000000E+03 0.  0.
         21    1    1    2  503  502 -0.15602181265E+03  0.21142083857E+03 -0.13508399746E+03  0.29544756451E+03  0.00000000000E+00 0. -1.
<mgrwt>
<rscale>  3 0.29097522E+03</rscale>
<asrwt>0</asrwt>
<pdfrwt beam="1">  1       21 0.10593319E+00 0.29097522E+03</pdfrwt>
<pdfrwt beam="2">  1       21 0.38470365E-01 0.29097522E+03</pdfrwt>
<totfact> 0.43623356E+03</totfact>
</mgrwt>
</event>
<event>
 4    0  0.1570494E-001  0.2517896E+03  0.7546771E-02  0.1112179E+00
         21   -1    0    0  503  501  0.00000000000E+00  0.00000000000E+00  0.67650698350E+02  0.67650698350E+02  0.00000000000E+00 0. -1.
         21   -1    0    0  501  502 -0.00000000000E+00 -0.00000000000E+00 -0.90422360311E+03  0.90422360311E+03  0.00000000000E+00 0. -1.
         25    1    1    2    0    0 -0.21845008121E+03 -0.72506976868E+01 -0.29491217599E+03  0.38777725842E+03  0.12500000000E+03 0.  0.
         21    1    1    2  503  502  0.21845008121E+03  0.72506976868E+01 -0.54166072877E+03  0.58409704304E+03  0.00000000000E+00 0. -1.
<mgrwt>
<rscale>  3 0.25178962E+03</rscale>
<asrwt>0</asrwt>
<pdfrwt beam="1">  1       21 0.10407800E-01 0.25178962E+03</pdfrwt>
<pdfrwt beam="2">  1       21 0.13911132E+00 0.25178962E+03</pdfrwt>
<totfact> 0.26596270E+04</totfact>
</mgrwt>
</event>
<event>
 4    0  0.1356686E-001  0.3267568E+03  0.7546771E-02  0.1072581E+00
         21   -1    0    0  503  501  0.00000000000E+00  0.00000000000E+00  0.79699128545E+02  0.79699128545E+02  0.00000000000E+00 0.  1.
         21   -1    0    0  501  502 -0.00000000000E+00 -0.00000000000E+00 -0.12447382623E+04  0.12447382623E+04  0.00000000000E+00 0.  1.
         25    1    1    2    0    0 -0.24121175052E+03  0.18155415284E+03 -0.56336222134E+03  0.65126569957E+03  0.12500000000E+03 0.  0.
         21    1    1    2  503  502  0.24121175052E+03 -0.18155415284E+03 -0.60167691241E+03  0.67317169128E+03  0.00000000000E+00 0.  1.
<mgrwt>
<rscale>  3 0.32675682E+03</rscale>
<asrwt>0</asrwt>
<pdfrwt beam="1">  1       21 0.12261405E-01 0.32675682E+03</pdfrwt>
<pdfrwt beam="2">  1       21 0.19149819E+00 0.32675682E+03</pdfrwt>
<totfact> 0.78807290E+03</totfact>
</mgrwt>
</event>
<event>
 4    0  0.1387767E-001  0.2801000E+03  0.7546771E-02  0.1095634E+00
         21   -1    0    0  503  501  0.00000000000E+00  0.00000000000E+00  0.54190271743E+03  0.54190271743E+03  0.00000000000E+00 0.  1.
         21   -1    0    0  501  502 -0.00000000000E+00 -0.00000000000E+00 -0.17186406382E+03  0.17186406382E+03  0.00000000000E+00 0.  1.
         25    1    1    2    0    0 -0.12833618324E+03 -0.21531571750E+03  0.36879246431E+03  0.46310248959E+03  0.12500000000E+03 0.  0.
         21    1    1    2  503  502  0.12833618324E+03  0.21531571750E+03  0.12461892978E+01  0.25066429167E+03  0.00000000000E+00 0.  1.
<mgrwt>
<rscale>  3 0.28010004E+03</rscale>
<asrwt>0</asrwt>
<pdfrwt beam="1">  1       21 0.83369648E-01 0.28010004E+03</pdfrwt>
<pdfrwt beam="2">  1       21 0.26440625E-01 0.28010004E+03</pdfrwt>
<totfact> 0.16251838E+04</totfact>
</mgrwt>
</event>
<event>
 4    0  0.1574012E-001  0.2633112E+03  0.7546771E-02  0.1105170E+00
         21   -1    0    0  502  501  0.00000000000E+00  0.00000000000E+00  0.35923072260E+03  0.35923072260E+03  0.00000000000E+00 0. -1.
         21   -1    0    0  503  502 -0.00000000000E+00 -0.00000000000E+00 -0.17065148501E+03  0.17065148501E+03  0.00000000000E+00 0. -1.
         25    1    1    2    0    0  0.23161349956E+03 -0.79371958851E+01  0.94258736878E+02  0.27967395613E+03  0.12500000000E+03 0.  0.
         21    1    1    2  503  501 -0.23161349956E+03  0.79371958851E+01  0.94320500712E+02  0.25020825149E+03  0.00000000000E+00 0. -1.
<mgrwt>
<rscale>  3 0.26331125E+03</rscale>
<asrwt>0</asrwt>
<pdfrwt beam="1">  1       21 0.55266265E-01 0.26331125E+03</pdfrwt>
<pdfrwt beam="2">  1       21 0.26254075E-01 0.26331125E+03</pdfrwt>
<totfact> 0.41238302E+04</totfact>
</mgrwt>
</event>
<event>
 4    0  0.1399792E-001  0.2652323E+03  0.7546771E-02  0.1104040E+00
         21   -1    0    0  502  501  0.00000000000E+00  0.00000000000E+00  0.15475027402E+03  0.15475027402E+03  0.00000000000E+00 0.  1.
         21   -1    0    0  503  502 -0.00000000000E+00 -0.00000000000E+00 -0.50771582728E+03  0.50771582728E+03  0.00000000000E+00 0.  1.
         25    1    1    2    0    0  0.64554177499E+01  0.23384075952E+03 -0.34722523931E+02  0.26749547081E+03  0.12500000000E+03 0.  0.
         21    1    1    2  503  501 -0.64554177499E+01 -0.23384075952E+03 -0.31824302933E+03  0.39497063049E+03  0.00000000000E+00 0.  1.
<mgrwt>
<rscale>  3 0.26523230E+03</rscale>
<asrwt>0</asrwt>
<pdfrwt beam="1">  1       21 0.23807735E-01 0.26523230E+03</pdfrwt>
<pdfrwt beam="2">  1       21 0.78110127E-01 0.26523230E+03</pdfrwt>
<totfact> 0.23238332E+04</totfact>
</mgrwt>
</event>
<event>
 4    0  0.1003929E-001  0.3439734E+03  0.7546771E-02  0.1065116E+00
         21   -1    0    0  502  501  0.00000000000E+00  0.00000000000E+00  0.15765478488E+03  0.15765478488E+03  0.00000000000E+00 0. -1.
         21   -1    0    0  503  502 -0.00000000000E+00 -0.00000000000E+00 -0.22310383140E+04  0.22310383140E+04  0.00000000000E+00 0. -1.
         25    1    1    2    0    0 -0.26598663749E+03  0.17872840345E+03 -0.59021728819E+02  0.34900042693E+03  0.12500000000E+03 0.  0.
         21    1    1    2  503  501  0.26598663749E+03 -0.17872840345E+03 -0.20143618003E+04  0.20396926720E+04  0.00000000000E+00 0. -1.
<mgrwt>
<rscale>  3 0.34397345E+03</rscale>
<asrwt>0</asrwt>
<pdfrwt beam="1">  1       21 0.24254583E-01 0.34397345E+03</pdfrwt>
<pdfrwt beam="2">  1       21 0.34323665E+00 0.34397345E+03</pdfrwt>
<totfact> 0.25781110E+02</totfact>
</mgrwt>
</event>
<event>
 4    0  0.1003929E-001  0.2685524E+03  0.7546771E-02  0.1102111E+00
         21   -1    0    0  503  501  0.00000000000E+00  0.00000000000E+00  0.70497408791E+03  0.70497408791E+03  0.00000000000E+00 0.  1.
         21   -1    0    0  501  502 -0.00000000000E+00 -0.00000000000E+00 -0.94790521163E+02  0.94790521163E+02  0.00000000000E+00 0. -1.
         25    1    1    2    0    0  0.18943039721E+03  0.14356702501E+03  0.24187447674E+03  0.36141891006E+03  0.12500000000E+03 0.  0.
         21    1    1    2  503  502 -0.18943039721E+03 -0.14356702501E+03  0.36830909001E+03  0.43834569900E+03  0.00000000000E+00 0. -1.
<mgrwt>
<rscale>  3 0.26855235E+03</rscale>
<asrwt>0</asrwt>
<pdfrwt beam="1">  1       21 0.10845755E+00 0.26855235E+03</pdfrwt>
<pdfrwt beam="2">  1       21 0.14583158E-01 0.26855235E+03</pdfrwt>
<totfact> 0.26826575E+04</totfact>
</mgrwt>
</event>
<event>
 4    0  0.1522321E-001  0.3944436E+03  0.7546771E-02  0.1045721E+00
         21   -1    0    0  502  501  0.00000000000E+00  0.00000000000E+00  0.15446341770E+03  0.15446341770E+03  0.00000000000E+00 0. -1.
         21   -1    0    0  503  502 -0.00000000000E+00 -0.00000000000E+00 -0.96186086752E+03  0.96186086752E+03  0.00000000000E+00 0. -1.
         25    1    1    2    0    0  0.33614314268E+03 -0.16422101164E+03 -0.45779764025E+03  0.60428836862E+03  0.12500000000E+03 0.  0.
         21    1    1    2  503  501 -0.33614314268E+03  0.16422101164E+03 -0.34959980957E+03  0.51203591660E+03  0.00000000000E+00 0. -1.
<mgrwt>
<rscale>  3 0.39444360E+03</rscale>
<asrwt>0</asrwt>
<pdfrwt beam="1">  1       21 0.23763602E-01 0.39444360E+03</pdfrwt>
<pdfrwt beam="2">  1       21 0.14797860E+00 0.39444360E+03</pdfrwt>
<totfact> 0.45912438E+03</totfact>
</mgrwt>
</event>
<event>
 4    0  0.1607142E-001  0.2604912E+03  0.7546771E-02  0.1106848E+00
         21   -1    0    0  502  501  0.00000000000E+00  0.00000000000E+00  0.36564063292E+03  0.36564063292E+03  0.00000000000E+00 0. -1.
         21   -1    0    0  503  502 -0.00000000000E+00 -0.00000000000E+00 -0.20383002553E+03  0.20383002553E+03  0.00000000000E+00 0. -1.
         25    1    1    2    0    0  0.22538662917E+03 -0.37835525232E+02  0.21155905370E+03  0.33557844505E+03  0.12500000000E+03 0.  0.
         21    1    1    2  503  501 -0.22538662917E+03  0.37835525232E+02 -0.49748446305E+02  0.23389221340E+03  0.00000000000E+00 0. -1.
<mgrwt>
<rscale>  3 0.26049119E+03</rscale>
<asrwt>0</asrwt>
<pdfrwt beam="1">  1       21 0.56252405E-01 0.26049119E+03</pdfrwt>
<pdfrwt beam="2">  1       21 0.31358465E-01 0.26049119E+03</pdfrwt>
<totfact> 0.28098594E+04</totfact>
</mgrwt>
</event>
<event>
 4    0  0.1239497E-001  0.2974174E+03  0.7546771E-02  0.1086539E+00
         21   -1    0    0  503  501  0.00000000000E+00  0.00000000000E+00  0.26981020294E+03  0.26981020294E+03  0.00000000000E+00 0. -1.
         21   -1    0    0  501  502 -0.00000000000E+00 -0.00000000000E+00 -0.60241910920E+03  0.60241910920E+03  0.00000000000E+00 0. -1.
         25    1    1    2    0    0 -0.16040623349E+03  0.21702987751E+03  0.13943892105E+03  0.32848187192E+03  0.12500000000E+03 0.  0.
         21    1    1    2  503  502  0.16040623349E+03 -0.21702987751E+03 -0.47204782731E+03  0.54374744022E+03  0.00000000000E+00 0. -1.
<mgrwt>
<rscale>  3 0.29741743E+03</rscale>
<asrwt>0</asrwt>
<pdfrwt beam="1">  1       21 0.41509262E-01 0.29741743E+03</pdfrwt>
<pdfrwt beam="2">  1       21 0.92679862E-01 0.29741743E+03</pdfrwt>
<totfact> 0.51283235E+03</totfact>
</mgrwt>
</event>
<event>
 4    0  0.1003929E-001  0.2552906E+03  0.7546771E-02  0.1110006E+00
         21   -1    0    0  503  501  0.00000000000E+00  0.00000000000E+00  0.13646973109E+04  0.13646973109E+04  0.00000000000E+00 0. -1.
         21   -1    0    0  501  502 -0.00000000000E+00 -0.00000000000E+00 -0.42604374086E+02  0.42604374086E+02  0.00000000000E+00 0.  1.
         25    1    1    2    0    0  0.16817971777E+03  0.14582144731E+03  0.79973440580E+03  0.83949296113E+03  0.12500000000E+03 0.  0.
         21    1    1    2  503  502 -0.16817971777E+03 -0.14582144731E+03  0.52235853102E+03  0.56780872386E+03  0.00000000000E+00 0.  1.
<mgrwt>
<rscale>  3 0.25529064E+03</rscale>
<asrwt>0</asrwt>
<pdfrwt beam="1">  1       21 0.20995340E+00 0.25529064E+03</pdfrwt>
<pdfrwt beam="2">  1       21 0.65545201E-02 0.25529064E+03</pdfrwt>
<totfact> 0.18827477E+04</totfact>
</mgrwt>
</event>
<event>
 4    0  0.1003929E-001  0.2369264E+03  0.7546771E-02  0.1121857E+00
         21   -1    0    0  503  501  0.00000000000E+00  0.00000000000E+00  0.68549578379E+02  0.68549578379E+02  0.00000000000E+00 0.  1.
         21   -1    0    0  501  502 -0.00000000000E+00 -0.00000000000E+00 -0.70573542192E+03  0.70573542192E+03  0.00000000000E+00 0.  1.
         25    1    1    2    0    0  0.13845877106E+03  0.14607637245E+03 -0.31038580000E+03  0.39047853041E+03  0.12500000000E+03 0.  0.
         21    1    1    2  503  502 -0.13845877106E+03 -0.14607637245E+03 -0.32680004355E+03  0.38380646989E+03  0.00000000000E+00 0.  1.
<mgrwt>
<rscale>  3 0.23692644E+03</rscale>
<asrwt>0</asrwt>
<pdfrwt beam="1">  1       21 0.10546089E-01 0.23692644E+03</pdfrwt>
<pdfrwt beam="2">  1       21 0.10857468E+00 0.23692644E+03</pdfrwt>
<totfact> 0.48710900E+04</totfact>
</mgrwt>
</event>
<event>
 4    0  0.1003929E-001  0.2579851E+03  0.7546771E-02  0.1108360E+00
         21   -1    0    0  503  501  0.00000000000E+00  0.00000000000E+00  0.79125836645E+03  0.79125836645E+03  0.00000000000E+00 0. -1.
         21   -1    0    0  501  502 -0.00000000000E+00 -0.00000000000E+00 -0.11198854302E+03  0.11198854302E+03  0.00000000000E+00 0. -1.
         25    1    1    2    0    0  0.22279676548E+03 -0.35957446135E+02  0.91651480019E+02  0.27378153778E+03  0.12500000000E+03 0.  0.
         21    1    1    2  503  502 -0.22279676548E+03  0.35957446135E+02  0.58761834341E+03  0.62946537169E+03  0.00000000000E+00 0. -1.
<mgrwt>
<rscale>  3 0.25798515E+03</rscale>
<asrwt>0</asrwt>
<pdfrwt beam="1">  1       21 0.12173205E+00 0.25798515E+03</pdfrwt>
<pdfrwt beam="2">  1       21 0.17229007E-01 0.25798515E+03</pdfrwt>
<totfact> 0.14914647E+04</totfact>
</mgrwt>
</event>
<event>
 4    0  0.1091581E-001  0.3789763E+03  0.7546771E-02  0.1051313E+00
         21   -1    0    0  503  501  0.00000000000E+00  0.00000000000E+00  0.54037198621E+03  0.54037198621E+03  0.00000000000E+00 0.  1.
         21   -1    0    0  501  502 -0.00000000000E+00 -0.00000000000E+00 -0.56238387709E+03  0.56238387709E+03  0.00000000000E+00 0.  1.
         25    1    1    2    0    0 -0.16008463051E+03 -0.31995461025E+03  0.39897839467E+03  0.55027883928E+03  0.12500000000E+03 0.  0.
         21    1    1    2  503  502  0.16008463051E+03  0.31995461025E+03 -0.42099028555E+03  0.55247702402E+03  0.00000000000E+00 0.  1.
<mgrwt>
<rscale>  3 0.37897631E+03</rscale>
<asrwt>0</asrwt>
<pdfrwt beam="1">  1       21 0.83134152E-01 0.37897631E+03</pdfrwt>
<pdfrwt beam="2">  1       21 0.86520596E-01 0.37897631E+03</pdfrwt>
<totfact> 0.12785189E+03</totfact>
</mgrwt>
</event>
<event>
 4    0  0.1003929E-001  0.2514705E+03  0.7546771E-02  0.1112379E+00
         21   -1    0    0  503  501  0.00000000000E+00  0.00000000000E+00  0.14527297838E+03  0.14527297838E+03  0.00000000000E+00 0.  1.
         21   -1    0    0  501  502 -0.00000000000E+00 -0.00000000000E+00 -0.46474013894E+03  0.46474013894E+03  0.00000000000E+00 0. -1.
         25    1    1    2    0    0 -0.10513914460E+03 -0.19120194313E+03 -0.38708712516E+02  0.25443228413E+03  0.12500000000E+03 0.  0.
         21    1    1    2  503  502  0.10513914460E+03  0.19120194313E+03 -0.28075844804E+03  0.35558083319E+03  0.00000000000E+00 0. -1.
<mgrwt>
<rscale>  3 0.25147052E+03</rscale>
<asrwt>0</asrwt>
<pdfrwt beam="1">  1       21 0.22349689E-01 0.25147052E+03</pdfrwt>
<pdfrwt beam="2">  1       21 0.71498484E-01 0.25147052E+03</pdfrwt>
<totfact> 0.32177595E+04</totfact>
</mgrwt>
</event>
<event>
 4    0  0.1158833E-001  0.2940743E+03  0.7546771E-02  0.1088241E+00
         21   -1    0    0  503  501  0.00000000000E+00  0.00000000000E+00  0.18517467796E+04  0.18517467796E+04  0.00000000000E+00 0.  1.
         21   -1    0    0  501  502 -0.00000000000E+00 -0.00000000000E+00 -0.47710445844E+02  0.47710445844E+02  0.00000000000E+00 0.  1.
         25    1    1    2    0    0  0.40044376241E+02  0.26315611930E+03  0.12590691140E+04  0.12929558109E+04  0.12500000000E+03 0.  0.
         21    1    1    2  503  502 -0.40044376241E+02 -0.26315611930E+03  0.54496721976E+03  0.60650141451E+03  0.00000000000E+00 0.  1.
<mgrwt>
<rscale>  3 0.29407430E+03</rscale>
<asrwt>0</asrwt>
<pdfrwt beam="1">  1       21 0.28488406E+00 0.29407430E+03</pdfrwt>
<pdfrwt beam="2">  1       21 0.73400700E-02 0.29407430E+03</pdfrwt>
<totfact> 0.53060093E+03</totfact>
</mgrwt>
</event>
<event>
 4    0  0.1343251E-001  0.2559953E+03  0.7546771E-02  0.1109573E+00
         21   -1    0    0  502  501  0.00000000000E+00  0.00000000000E+00  0.20177565096E+03  0.20177565096E+03  0.00000000000E+00 0.  1.
         21   -1    0    0  503  502 -0.00000000000E+00 -0.00000000000E+00 -0.46336724910E+03  0.46336724910E+03  0.00000000000E+00 0.  1.
         25    1    1    2    0    0 -0.92129054634E+02 -0.20352106633E+03  0.69929273497E+02  0.26537462283E+03  0.12500000000E+03 0.  0.
         21    1    1    2  503  501  0.92129054634E+02  0.20352106633E+03 -0.33152087163E+03  0.39976827723E+03  0.00000000000E+00 0.  1.
<mgrwt>
<rscale>  3 0.25599529E+03</rscale>
<asrwt>0</asrwt>
<pdfrwt beam="1">  1       21 0.31042408E-01 0.25599529E+03</pdfrwt>
<pdfrwt beam="2">  1       21 0.71287268E-01 0.25599529E+03</pdfrwt>
<totfact> 0.17125284E+04</totfact>
</mgrwt>
</event>
<event>
 4    0  0.1484208E-001  0.2582129E+03  0.7546771E-02  0.1108222E+00
         21   -1    0    0  502  501  0.00000000000E+00  0.00000000000E+00  0.25263216854E+03  0.25263216854E+03  0.00000000000E+00 0. -1.
         21   -1    0    0  503  502 -0.00000000000E+00 -0.00000000000E+00 -0.40819208446E+03  0.40819208446E+03  0.00000000000E+00 0.  1.
         25    1    1    2    0    0 -0.20545270459E+03  0.94011091446E+02  0.13610155625E+03  0.29188616403E+03  0.12500000000E+03 0.  0.
         21    1    1    2  503  501  0.20545270459E+03 -0.94011091446E+02 -0.29166147218E+03  0.36893808897E+03  0.00000000000E+00 0.  1.
<mgrwt>
<rscale>  3 0.25821289E+03</rscale>
<asrwt>0</asrwt>
<pdfrwt beam="1">  1       21 0.38866488E-01 0.25821289E+03</pdfrwt>
<pdfrwt beam="2">  1       21 0.62798782E-01 0.25821289E+03</pdfrwt>
<totfact> 0.14439480E+04</totfact>
</mgrwt>
</event>
<event>
 4    0  0.1346831E-001  0.2633757E+03  0.7546771E-02  0.1105132E+00
         21   -1    0    0  503  501  0.00000000000E+00  0.00000000000E+00  0.77992668810E+02  0.77992668810E+02  0.00000000000E+00 0. -1.
         21   -1    0    0  501  502 -0.00000000000E+00 -0.00000000000E+00 -0.80685588033E+03  0.80685588033E+03  0.00000000000E+00 0. -1.
         25    1    1    2    0    0  0.22367596504E+03 -0.60916662329E+02 -0.45797436826E+03  0.52830606572E+03  0.12500000000E+03 0.  0.
         21    1    1    2  503  502 -0.22367596504E+03  0.60916662329E+02 -0.27088884326E+03  0.35654248343E+03  0.00000000000E+00 0. -1.
<mgrwt>
<rscale>  3 0.26337573E+03</rscale>
<asrwt>0</asrwt>
<pdfrwt beam="1">  1       21 0.11998872E-01 0.26337573E+03</pdfrwt>
<pdfrwt beam="2">  1       21 0.12413168E+00 0.26337573E+03</pdfrwt>
<totfact> 0.27432186E+04</totfact>
</mgrwt>
</event>
<event>
 4    0  0.1003929E-001  0.2463406E+03  0.7546771E-02  0.1115640E+00
         21   -1    0    0  503  501  0.00000000000E+00  0.00000000000E+00  0.18944311263E+03  0.18944311263E+03  0.00000000000E+00 0.  1.
         21   -1    0    0  501  502 -0.00000000000E+00 -0.00000000000E+00 -0.50479421693E+03  0.50479421693E+03  0.00000000000E+00 0.  1.
         25    1    1    2    0    0  0.99047254212E+02  0.18774540297E+03 -0.39665848335E+03  0.46692788235E+03  0.12500000000E+03 0.  0.
         21    1    1    2  503  502 -0.99047254212E+02 -0.18774540297E+03  0.81307379048E+02  0.22730944721E+03  0.00000000000E+00 0.  1.
<mgrwt>
<rscale>  3 0.24634061E+03</rscale>
<asrwt>0</asrwt>
<pdfrwt beam="1">  1       21 0.29145094E-01 0.24634061E+03</pdfrwt>
<pdfrwt beam="2">  1       21 0.77660648E-01 0.24634061E+03</pdfrwt>
<totfact> 0.16068495E+04</totfact>
</mgrwt>
</event>
<event>
 4    0  0.1627817E-001  0.2861129E+03  0.7546771E-02  0.1092396E+00
         21   -1    0    0  502  501  0.00000000000E+00  0.00000000000E+00  0.45235561336E+03  0.45235561336E+03  0.00000000000E+00 0. -1.
         21   -1    0    0  503  502 -0.00000000000E+00 -0.00000000000E+00 -0.16713506262E+03  0.16713506262E+03  0.00000000000E+00 0. -1.
         25    1    1    2    0    0  0.13843799898E+03 -0.21695742598E+03  0.19721368571E+03  0.34749653534E+03  0.12500000000E+03 0.  0.
         21    1    1    2  503  501 -0.13843799898E+03  0.21695742598E+03  0.88006865031E+02  0.27199414063E+03  0.00000000000E+00 0. -1.
<mgrwt>
<rscale>  3 0.28611292E+03</rscale>
<asrwt>0</asrwt>
<pdfrwt beam="1">  1       21 0.69593171E-01 0.28611292E+03</pdfrwt>
<pdfrwt beam="2">  1       21 0.25713087E-01 0.28611292E+03</pdfrwt>
<totfact> 0.25746782E+04</totfact>
</mgrwt>
</event>
<event>
 4    0  0.1101890E-001  0.2591680E+03  0.7546771E-02  0.1107644E+00
         21   -1    0    0  502  501  0.00000000000E+00  0.00000000000E+00  0.50594385276E+02  0.50594385276E+02  0.00000000000E+00 0. -1.
         21   -1    0    0  503  502 -0.00000000000E+00 -0.00000000000E+00 -0.12567000214E+04  0.12567000214E+04  0.00000000000E+00 0. -1.
         25    1    1    2    0    0  0.21457446116E+03 -0.74167590646E+02 -0.81334545282E+03  0.85363859830E+03  0.12500000000E+03 0.  0.
         21    1    1    2  503  501 -0.21457446116E+03  0.74167590646E+02 -0.39276018330E+03  0.45365580837E+03  0.00000000000E+00 0. -1.
<mgrwt>
<rscale>  3 0.25916796E+03</rscale>
<asrwt>0</asrwt>
<pdfrwt beam="1">  1       21 0.77837528E-02 0.25916796E+03</pdfrwt>
<pdfrwt beam="2">  1       21 0.19333843E+00 0.25916796E+03</pdfrwt>
<totfact> 0.17847933E+04</totfact>
</mgrwt>
</event>
<event>
 4    0  0.1149376E-001  0.3817937E+03  0.7546771E-02  0.1050273E+00
         21   -1    0    0  502  501  0.00000000000E+00  0.00000000000E+00  0.12736160734E+04  0.12736160734E+04  0.00000000000E+00 0. -1.
         21   -1    0    0  503  502 -0.00000000000E+00 -0.00000000000E+00 -0.13384009357E+03  0.13384009357E+03  0.00000000000E+00 0. -1.
         25    1    1    2    0    0  0.12432204400E+03  0.33865239378E+03  0.89068318726E+03  0.96906292598E+03  0.12500000000E+03 0.  0.
         21    1    1    2  503  501 -0.12432204400E+03 -0.33865239378E+03  0.24909279258E+03  0.43839324100E+03  0.00000000000E+00 0. -1.
<mgrwt>
<rscale>  3 0.38179368E+03</rscale>
<asrwt>0</asrwt>
<pdfrwt beam="1">  1       21 0.19594093E+00 0.38179368E+03</pdfrwt>
<pdfrwt beam="2">  1       21 0.20590784E-01 0.38179368E+03</pdfrwt>
<totfact> 0.27357052E+03</totfact>
</mgrwt>
</event>
<event>
 4    0  0.1003929E-001  0.2423918E+03  0.7546771E-02  0.1118210E+00
         21   -1    0    0  502  501  0.00000000000E+00  0.00000000000E+00  0.19340431505E+04  0.19340431505E+04  0.00000000000E+00 0.  1.
         21   -1    0    0  503  502 -0.00000000000E+00 -0.00000000000E+00 -0.26186970616E+02  0.26186970616E+02  0.00000000000E+00 0.  1.
         25    1    1    2    0    0 -0.16133119691E+03 -0.13077090790E+03  0.10162084510E+04  0.10447169001E+04  0.12500000000E+03 0.  0.
         21    1    1    2  503  501  0.16133119691E+03  0.13077090790E+03  0.89164772886E+03  0.91551322101E+03  0.00000000000E+00 0.  1.
<mgrwt>
<rscale>  3 0.24239180E+03</rscale>
<asrwt>0</asrwt>
<pdfrwt beam="1">  1       21 0.29754499E+00 0.24239180E+03</pdfrwt>
<pdfrwt beam="2">  1       21 0.40287662E-02 0.24239180E+03</pdfrwt>
<totfact> 0.13029735E+04</totfact>
</mgrwt>
</event>
<event>
 4    0  0.1003929E-001  0.3509727E+03  0.7546771E-02  0.1062217E+00
         21   -1    0    0  502  501  0.00000000000E+00  0.00000000000E+00  0.42212749041E+02  0.42212749041E+02  0.00000000000E+00 0.  1.
         21   -1    0    0  503  502 -0.00000000000E+00 -0.00000000000E+00 -0.27569760708E+04  0.27569760708E+04  0.00000000000E+00 0.  1.
         25    1    1    2    0    0 -0.30532040984E+03 -0.11973411281E+03 -0.12643391756E+04  0.13121491384E+04  0.12500000000E+03 0.  0.
         21    1    1    2  503  501  0.30532040984E+03  0.11973411281E+03 -0.14504241462E+04  0.14870396815E+04  0.00000000000E+00 0.  1.
<mgrwt>
<rscale>  3 0.35097266E+03</rscale>
<asrwt>0</asrwt>
<pdfrwt beam="1">  1       21 0.64942661E-02 0.35097266E+03</pdfrwt>
<pdfrwt beam="2">  1       21 0.42415036E+00 0.35097266E+03</pdfrwt>
<totfact> 0.88303482E+02</totfact>
</mgrwt>
</event>
<event>
 4    0  0.1491816E-001  0.2710677E+03  0.7546771E-02  0.1100670E+00
         21   -1    0    0  502  501  0.00000000000E+00  0.00000000000E+00  0.52078890243E+03  0.52078890243E+03  0.00000000000E+00 0. -1.
         21   -1    0    0  503  502 -0.00000000000E+00 -0.00000000000E+00 -0.12596775182E+03  0.12596775182E+03  0.00000000000E+00 0. -1.
         25    1    1    2    0    0 -0.64241475440E+01 -0.24044009909E+03  0.22562646291E+03  0.35268259340E+03  0.12500000000E+03 0.  0.
         21    1    1    2  503  501  0.64241475440E+01  0.24044009909E+03  0.16919468771E+03  0.29407406086E+03  0.00000000000E+00 0. -1.
<mgrwt>
<rscale>  3 0.27106772E+03</rscale>
<asrwt>0</asrwt>
<pdfrwt beam="1">  1       21 0.80121368E-01 0.27106772E+03</pdfrwt>
<pdfrwt beam="2">  1       21 0.19379654E-01 0.27106772E+03</pdfrwt>
<totfact> 0.32313834E+04</totfact>
</mgrwt>
</event>
<event>
 4    0  0.1099897E-001  0.3730898E+03  0.7546771E-02  0.1053518E+00
         21   -1    0    0  502  501  0.00000000000E+00  0.00000000000E+00  0.23903247498E+03  0.23903247498E+03  0.00000000000E+00 0.  1.
         21   -1    0    0  503  502 -0.00000000000E+00 -0.00000000000E+00 -0.75118587668E+03  0.75118587668E+03  0.00000000000E+00 0.  1.
         25    1    1    2    0    0 -0.19014735622E+03  0.29566020980E+03 -0.49691469655E+01  0.37312286067E+03  0.12500000000E+03 0.  0.
         21    1    1    2  503  501  0.19014735622E+03 -0.29566020980E+03 -0.50718425474E+03  0.61709549098E+03  0.00000000000E+00 0.  1.
<mgrwt>
<rscale>  3 0.37308977E+03</rscale>
<asrwt>0</asrwt>
<pdfrwt beam="1">  1       21 0.36774227E-01 0.37308977E+03</pdfrwt>
<pdfrwt beam="2">  1       21 0.11556706E+00 0.37308977E+03</pdfrwt>
<totfact> 0.37077731E+03</totfact>
</mgrwt>
</event>
<event>
 4    0  0.1347686E-001  0.4245920E+03  0.7546771E-02  0.1035582E+00
         21   -1    0    0  503  501  0.00000000000E+00  0.00000000000E+00  0.33845772707E+03  0.33845772707E+03  0.00000000000E+00 0. -1.
         21   -1    0    0  501  502 -0.00000000000E+00 -0.00000000000E+00 -0.68935386091E+03  0.68935386091E+03  0.00000000000E+00 0. -1.
         25    1    1    2    0    0 -0.40146379823E+03 -0.58993044790E+02  0.84204612994E+02  0.43286115264E+03  0.12500000000E+03 0.  0.
         21    1    1    2  503  502  0.40146379823E+03  0.58993044790E+02 -0.43510074683E+03  0.59495043534E+03  0.00000000000E+00 0. -1.
<mgrwt>
<rscale>  3 0.42459199E+03</rscale>
<asrwt>0</asrwt>
<pdfrwt beam="1">  1       21 0.52070420E-01 0.42459199E+03</pdfrwt>
<pdfrwt beam="2">  1       21 0.10605444E+00 0.42459199E+03</pdfrwt>
<totfact> 0.21765677E+03</totfact>
</mgrwt>
</event>
<event>
 4    0  0.1003929E-001  0.4669335E+03  0.7546771E-02  0.1022789E+00
         21   -1    0    0  502  501  0.00000000000E+00  0.00000000000E+00  0.72471364795E+02  0.72471364795E+02  0.00000000000E+00 0.  1.
         21   -1    0    0  503  502 -0.00000000000E+00 -0.00000000000E+00 -0.29561924302E+04  0.29561924302E+04  0.00000000000E+00 0.  1.
         25    1    1    2    0    0 -0.16456133918E+03 -0.41871400291E+03 -0.16775424010E+04  0.17413142616E+04  0.12500000000E+03 0.  0.
         21    1    1    2  503  501  0.16456133918E+03  0.41871400291E+03 -0.12061786643E+04  0.12873495333E+04  0.00000000000E+00 0.  1.
<mgrwt>
<rscale>  3 0.46693345E+03</rscale>
<asrwt>0</asrwt>
<pdfrwt beam="1">  1       21 0.11149442E-01 0.46693345E+03</pdfrwt>
<pdfrwt beam="2">  1       21 0.45479880E+00 0.46693345E+03</pdfrwt>
<totfact> 0.19393679E+02</totfact>
</mgrwt>
</event>
<event>
 4    0  0.1003929E-001  0.2894201E+03  0.7546771E-02  0.1090652E+00
         21   -1    0    0  503  501  0.00000000000E+00  0.00000000000E+00  0.19033694077E+03  0.19033694077E+03  0.00000000000E+00 0. -1.
         21   -1    0    0  501  502 -0.00000000000E+00 -0.00000000000E+00 -0.41401051244E+03  0.41401051244E+03  0.00000000000E+00 0.  1.
         25    1    1    2    0    0 -0.21770205766E+03  0.14403058228E+03 -0.57994383884E+02  0.29517341192E+03  0.12500000000E+03 0.  0.
         21    1    1    2  503  502  0.21770205766E+03 -0.14403058228E+03 -0.16567918779E+03  0.30917404129E+03  0.00000000000E+00 0.  1.
<mgrwt>
<rscale>  3 0.28942010E+03</rscale>
<asrwt>0</asrwt>
<pdfrwt beam="1">  1       21 0.29282606E-01 0.28942010E+03</pdfrwt>
<pdfrwt beam="2">  1       21 0.63693925E-01 0.28942010E+03</pdfrwt>
<totfact> 0.24274804E+04</totfact>
</mgrwt>
</event>
<event>
 4    0  0.1104505E-001  0.2373745E+03  0.7546771E-02  0.1121554E+00
         21   -1    0    0  503  501  0.00000000000E+00  0.00000000000E+00  0.44680570819E+02  0.44680570819E+02  0.00000000000E+00 0.  1.
         21   -1    0    0  501  502 -0.00000000000E+00 -0.00000000000E+00 -0.12977666331E+04  0.12977666331E+04  0.00000000000E+00 0.  1.
         25    1    1    2    0    0  0.19883848630E+03  0.34422271451E+02 -0.39401996388E+03  0.45999822646E+03  0.12500000000E+03 0.  0.
         21    1    1    2  503  502 -0.19883848630E+03 -0.34422271451E+02 -0.85906609840E+03  0.88244897746E+03  0.00000000000E+00 0.  1.
<mgrwt>
<rscale>  3 0.23737446E+03</rscale>
<asrwt>0</asrwt>
<pdfrwt beam="1">  1       21 0.68739338E-02 0.23737446E+03</pdfrwt>
<pdfrwt beam="2">  1       21 0.19965641E+00 0.23737446E+03</pdfrwt>
<totfact> 0.20411047E+04</totfact>
</mgrwt>
</event>
<event>
 4    0  0.1086884E-001  0.2867430E+03  0.7546771E-02  0.1092062E+00
         21   -1    0    0  503  501  0.00000000000E+00  0.00000000000E+00  0.99119268137E+03  0.99119268137E+03  0.00000000000E+00 0. -1.
         21   -1    0    0  501  502 -0.00000000000E+00 -0.00000000000E+00 -0.33392532429E+03  0.33392532429E+03  0.00000000000E+00 0. -1.
         25    1    1    2    0    0 -0.10913265038E+03 -0.23385172264E+03  0.91591329749E+03  0.95974930689E+03  0.12500000000E+03 0.  0.
         21    1    1    2  503  502  0.10913265038E+03  0.23385172264E+03 -0.25864594041E+03  0.36536869878E+03  0.00000000000E+00 0. -1.
<mgrwt>
<rscale>  3 0.28674303E+03</rscale>
<asrwt>0</asrwt>
<pdfrwt beam="1">  1       21 0.15249118E+00 0.28674303E+03</pdfrwt>
<pdfrwt beam="2">  1       21 0.51373127E-01 0.28674303E+03</pdfrwt>
<totfact> 0.94940484E+02</totfact>
</mgrwt>
</event>
<event>
 4    0  0.1416689E-001  0.2388610E+03  0.7546771E-02  0.1120554E+00
         21   -1    0    0  503  501  0.00000000000E+00  0.00000000000E+00  0.11548035744E+03  0.11548035744E+03  0.00000000000E+00 0.  1.
         21   -1    0    0  501  502 -0.00000000000E+00 -0.00000000000E+00 -0.43431711438E+03  0.43431711438E+03  0.00000000000E+00 0.  1.
         25    1    1    2    0    0 -0.18163886202E+03 -0.91852552745E+02 -0.12900848658E+03  0.27147330854E+03  0.12500000000E+03 0.  0.
         21    1    1    2  503  502  0.18163886202E+03  0.91852552745E+02 -0.18982827035E+03  0.27832416328E+03  0.00000000000E+00 0.  1.
<mgrwt>
<rscale>  3 0.23886098E+03</rscale>
<asrwt>0</asrwt>
<pdfrwt beam="1">  1       21 0.17766209E-01 0.23886098E+03</pdfrwt>
<pdfrwt beam="2">  1       21 0.66818017E-01 0.23886098E+03</pdfrwt>
<totfact> 0.57825225E+04</totfact>
</mgrwt>
</event>
<event>
 4    0  0.1012541E-001  0.2613204E+03  0.7546771E-02  0.1106352E+00
         21   -1    0    0  502  501  0.00000000000E+00  0.00000000000E+00  0.13324849847E+03  0.13324849847E+03  0.00000000000E+00 0.  1.
         21   -1    0    0  503  502 -0.00000000000E+00 -0.00000000000E+00 -0.14640721684E+04  0.14640721684E+04  0.00000000000E+00 0.  1.
         25    1    1    2    0    0 -0.15218554761E+03 -0.17176412620E+03 -0.15124213078E+02  0.26175770814E+03  0.12500000000E+03 0.  0.
         21    1    1    2  503  501  0.15218554761E+03  0.17176412620E+03 -0.13156994569E+04  0.13355629588E+04  0.00000000000E+00 0.  1.
<mgrwt>
<rscale>  3 0.26132041E+03</rscale>
<asrwt>0</asrwt>
<pdfrwt beam="1">  1       21 0.20499768E-01 0.26132041E+03</pdfrwt>
<pdfrwt beam="2">  1       21 0.22524188E+00 0.26132041E+03</pdfrwt>
<totfact> 0.19298482E+03</totfact>
</mgrwt>
</event>
<event>
 4    0  0.1003929E-001  0.2376345E+03  0.7546771E-02  0.1121379E+00
         21   -1    0    0  503  501  0.00000000000E+00  0.00000000000E+00  0.57225415535E+03  0.57225415535E+03  0.00000000000E+00 0. -1.
         21   -1    0    0  501  502 -0.00000000000E+00 -0.00000000000E+00 -0.93364581223E+02  0.93364581223E+02  0.00000000000E+00 0.  1.
         25    1    1    2    0    0 -0.58877120618E+02 -0.19333560280E+03  0.35933265923E+03  0.43080173007E+03  0.12500000000E+03 0.  0.
         21    1    1    2  503  502  0.58877120618E+02  0.19333560280E+03  0.11955691490E+03  0.23481700650E+03  0.00000000000E+00 0.  1.
<mgrwt>
<rscale>  3 0.23763453E+03</rscale>
<asrwt>0</asrwt>
<pdfrwt beam="1">  1       21 0.88039099E-01 0.23763453E+03</pdfrwt>
<pdfrwt beam="2">  1       21 0.14363782E-01 0.23763453E+03</pdfrwt>
<totfact> 0.45912442E+04</totfact>
</mgrwt>
</event>
<event>
 4    0  0.1221481E-001  0.3281465E+03  0.7546771E-02  0.1071960E+00
         21   -1    0    0  502  501  0.00000000000E+00  0.00000000000E+00  0.21318378199E+04  0.21318378199E+04  0.00000000000E+00 0. -1.
         21   -1    0    0  503  502 -0.00000000000E+00 -0.00000000000E+00 -0.30112314287E+03  0.30112314287E+03  0.00000000000E+00 0.  1.
         25    1    1    2    0    0 -0.44963595057E+02 -0.30005565776E+03  0.20388105342E+04  0.20650492772E+04  0.12500000000E+03 0.  0.
         21    1    1    2  503  501  0.44963595057E+02  0.30005565776E+03 -0.20809585719E+03  0.36791168562E+03  0.00000000000E+00 0.  1.
<mgrwt>
<rscale>  3 0.32814650E+03</rscale>
<asrwt>0</asrwt>
<pdfrwt beam="1">  1       21 0.32797504E+00 0.32814650E+03</pdfrwt>
<pdfrwt beam="2">  1       21 0.46326639E-01 0.32814650E+03</pdfrwt>
<totfact> 0.88352028E+01</totfact>
</mgrwt>
</event>
<event>
 4    0  0.1257553E-001  0.2753504E+03  0.7546771E-02  0.1098256E+00
         21   -1    0    0  503  501  0.00000000000E+00  0.00000000000E+00  0.30306656236E+03  0.30306656236E+03  0.00000000000E+00 0.  1.
         21   -1    0    0  501  502 -0.00000000000E+00 -0.00000000000E+00 -0.34493094400E+03  0.34493094400E+03  0.00000000000E+00 0. -1.
         25    1    1    2    0    0  0.35906385634E+02 -0.24270063969E+03  0.17020062067E+03  0.32370684316E+03  0.12500000000E+03 0.  0.
         21    1    1    2  503  502 -0.35906385634E+02  0.24270063969E+03 -0.21206500231E+03  0.32429066320E+03  0.00000000000E+00 0. -1.
<mgrwt>
<rscale>  3 0.27535045E+03</rscale>
<asrwt>0</asrwt>
<pdfrwt beam="1">  1       21 0.46625625E-01 0.27535045E+03</pdfrwt>
<pdfrwt beam="2">  1       21 0.53066299E-01 0.27535045E+03</pdfrwt>
<totfact> 0.14153988E+04</totfact>
</mgrwt>
</event>
<event>
 4    0  0.1170280E-001  0.2929364E+03  0.7546771E-02  0.1088826E+00
         21   -1    0    0  503  501  0.00000000000E+00  0.00000000000E+00  0.19834582839E+04  0.19834582839E+04  0.00000000000E+00 0. -1.
         21   -1    0    0  501  502 -0.00000000000E+00 -0.00000000000E+00 -0.90463424379E+02  0.90463424379E+02  0.00000000000E+00 0.  1.
         25    1    1    2    0    0  0.21609152324E+03  0.15326833888E+03  0.17470804378E+04  0.17714688217E+04  0.12500000000E+03 0.  0.
         21    1    1    2  503  502 -0.21609152324E+03 -0.15326833888E+03  0.14591442167E+03  0.30245288653E+03  0.00000000000E+00 0.  1.
<mgrwt>
<rscale>  3 0.29293639E+03</rscale>
<asrwt>0</asrwt>
<pdfrwt beam="1">  1       21 0.30514740E+00 0.29293639E+03</pdfrwt>
<pdfrwt beam="2">  1       21 0.13917451E-01 0.29293639E+03</pdfrwt>
<totfact> 0.12873357E+03</totfact>
</mgrwt>
</event>
<event>
 4    0  0.1003929E-001  0.4428895E+03  0.7546771E-02  0.1029864E+00
         21   -1    0    0  503  501  0.00000000000E+00  0.00000000000E+00  0.88798583120E+03  0.88798583120E+03  0.00000000000E+00 0. -1.
         21   -1    0    0  501  502 -0.00000000000E+00 -0.00000000000E+00 -0.60603037616E+03  0.60603037616E+03  0.00000000000E+00 0. -1.
         25    1    1    2    0    0  0.30117050376E+03 -0.29970390060E+03  0.74429351721E+03  0.86609695770E+03  0.12500000000E+03 0.  0.
         21    1    1    2  503  502 -0.30117050376E+03  0.29970390060E+03 -0.46233806217E+03  0.62791924967E+03  0.00000000000E+00 0. -1.
<mgrwt>
<rscale>  3 0.44288949E+03</rscale>
<asrwt>0</asrwt>
<pdfrwt beam="1">  1       21 0.13661320E+00 0.44288949E+03</pdfrwt>
<pdfrwt beam="2">  1       21 0.93235443E-01 0.44288949E+03</pdfrwt>
<totfact> 0.30559515E+02</totfact>
</mgrwt>
</event>
<event>
 4    0  0.1767016E-001  0.2837797E+03  0.7546771E-02  0.1093642E+00
         21   -1    0    0  503  501  0.00000000000E+00  0.00000000000E+00  0.20095064047E+03  0.20095064047E+03  0.00000000000E+00 0. -1.
         21   -1    0    0  501  502 -0.00000000000E+00 -0.00000000000E+00 -0.11715445774E+04  0.11715445774E+04  0.00000000000E+00 0.  1.
         25    1    1    2    0    0  0.24300986095E+03 -0.76499011256E+02  0.77265054161E+02  0.29411014915E+03  0.12500000000E+03 0.  0.
         21    1    1    2  503  502 -0.24300986095E+03  0.76499011256E+02 -0.10478589911E+04  0.10783850687E+04  0.00000000000E+00 0.  1.
<mgrwt>
<rscale>  3 0.28377965E+03</rscale>
<asrwt>0</asrwt>
<pdfrwt beam="1">  1       21 0.30915482E-01 0.28377965E+03</pdfrwt>
<pdfrwt beam="2">  1       21 0.18023763E+00 0.28377965E+03</pdfrwt>
<totfact> 0.16857083E+03</totfact>
</mgrwt>
</event>
<event>
 4    0  0.1304093E-001  0.2866101E+03  0.7546771E-02  0.1092132E+00
         21   -1    0    0  503  501  0.00000000000E+00  0.00000000000E+00  0.14400791836E+04  0.14400791836E+04  0.00000000000E+00 0.  1.
         21   -1    0    0  501  502 -0.00000000000E+00 -0.00000000000E+00 -0.52548871251E+02  0.52548871251E+02  0.00000000000E+00 0.  1.
         25    1    1    2    0    0 -0.25302242169E+03  0.50000199378E+02  0.83615597556E+03  0.88391299418E+03  0.12500000000E+03 0.  0.
         21    1    1    2  503  502  0.25302242169E+03 -0.50000199378E+02  0.55137433680E+03  0.60871506068E+03  0.00000000000E+00 0.  1.
<mgrwt>
<rscale>  3 0.28661013E+03</rscale>
<asrwt>0</asrwt>
<pdfrwt beam="1">  1       21 0.22155061E+00 0.28661013E+03</pdfrwt>
<pdfrwt beam="2">  1       21 0.80844428E-02 0.28661013E+03</pdfrwt>
<totfact> 0.10827759E+04</totfact>
</mgrwt>
</event>
<event>
 4    0  0.1003929E-001  0.2569444E+03  0.7546771E-02  0.1108993E+00
         21   -1    0    0  502  501  0.00000000000E+00  0.00000000000E+00  0.34607303746E+02  0.34607303746E+02  0.00000000000E+00 0.  1.
         21   -1    0    0  503  502 -0.00000000000E+00 -0.00000000000E+00 -0.17225189055E+04  0.17225189055E+04  0.00000000000E+00 0. -1.
         25    1    1    2    0    0  0.18138994442E+03 -0.13226159138E+03 -0.75265996400E+03  0.79530966416E+03  0.12500000000E+03 0.  0.
         21    1    1    2  503  501 -0.18138994442E+03  0.13226159138E+03 -0.93525163771E+03  0.96181654504E+03  0.00000000000E+00 0. -1.
<mgrwt>
<rscale>  3 0.25694443E+03</rscale>
<asrwt>0</asrwt>
<pdfrwt beam="1">  1       21 0.53242003E-02 0.25694443E+03</pdfrwt>
<pdfrwt beam="2">  1       21 0.26500292E+00 0.25694443E+03</pdfrwt>
<totfact> 0.12442739E+04</totfact>
</mgrwt>
</event>
<event>
 4    0  0.1003929E-001  0.3127029E+03  0.7546771E-02  0.1079057E+00
         21   -1    0    0  502  501  0.00000000000E+00  0.00000000000E+00  0.83221084893E+03  0.83221084893E+03  0.00000000000E+00 0.  1.
         21   -1    0    0  503  502 -0.00000000000E+00 -0.00000000000E+00 -0.11209176459E+03  0.11209176459E+03  0.00000000000E+00 0. -1.
         25    1    1    2    0    0  0.16456836093E+03  0.23468146060E+03  0.46629085409E+03  0.56143592152E+03  0.12500000000E+03 0.  0.
         21    1    1    2  503  501 -0.16456836093E+03 -0.23468146060E+03  0.25382823025E+03  0.38286669200E+03  0.00000000000E+00 0. -1.
<mgrwt>
<rscale>  3 0.31270295E+03</rscale>
<asrwt>0</asrwt>
<pdfrwt beam="1">  1       21 0.12803243E+00 0.31270295E+03</pdfrwt>
<pdfrwt beam="2">  1       21 0.17244887E-01 0.31270295E+03</pdfrwt>
<totfact> 0.12762650E+04</totfact>
</mgrwt>
</event>
<event>
 4    0  0.1541543E-001  0.2527629E+03  0.7546771E-02  0.1111571E+00
         21   -1    0    0  503  501  0.00000000000E+00  0.00000000000E+00  0.19490303448E+03  0.19490303448E+03  0.00000000000E+00 0. -1.
         21   -1    0    0  501  502 -0.00000000000E+00 -0.00000000000E+00 -0.36434847637E+03  0.36434847637E+03  0.00000000000E+00 0. -1.
         25    1    1    2    0    0  0.20158233989E+03 -0.87342041207E+02  0.39777147188E+02  0.25587358862E+03  0.12500000000E+03 0.  0.
         21    1    1    2  503  502 -0.20158233989E+03  0.87342041207E+02 -0.20922258907E+03  0.30337792223E+03  0.00000000000E+00 0. -1.
<mgrwt>
<rscale>  3 0.25276288E+03</rscale>
<asrwt>0</asrwt>
<pdfrwt beam="1">  1       21 0.29985082E-01 0.25276288E+03</pdfrwt>
<pdfrwt beam="2">  1       21 0.56053611E-01 0.25276288E+03</pdfrwt>
<totfact> 0.31023282E+04</totfact>
</mgrwt>
</event>
<event>
 4    0  0.1564467E-001  0.2759884E+03  0.7546771E-02  0.1097900E+00
         21   -1    0    0  503  501  0.00000000000E+00  0.00000000000E+00  0.18324587970E+03  0.18324587970E+03  0.00000000000E+00 0. -1.
         21   -1    0    0  501  502 -0.00000000000E+00 -0.00000000000E+00 -0.47884661111E+03  0.47884661111E+03  0.00000000000E+00 0. -1.
         25    1    1    2    0    0 -0.20896438219E+03 -0.12991730886E+03  0.19332793914E+01  0.27599521325E+03  0.12500000000E+03 0.  0.
         21    1    1    2  503  502  0.20896438219E+03  0.12991730886E+03 -0.29753401080E+03  0.38609727757E+03  0.00000000000E+00 0. -1.
<mgrwt>
<rscale>  3 0.27598844E+03</rscale>
<asrwt>0</asrwt>
<pdfrwt beam="1">  1       21 0.28191673E-01 0.27598844E+03</pdfrwt>
<pdfrwt beam="2">  1       21 0.73668710E-01 0.27598844E+03</pdfrwt>
<totfact> 0.19041461E+04</totfact>
</mgrwt>
</event>
<event>
 4    0  0.1386957E-001  0.3801710E+03  0.7546771E-02  0.1050871E+00
         21   -1    0    0  502  501  0.00000000000E+00  0.00000000000E+00  0.46487258952E+03  0.46487258952E+03  0.00000000000E+00 0. -1.
         21   -1    0    0  503  502 -0.00000000000E+00 -0.00000000000E+00 -0.51294935708E+03  0.51294935708E+03  0.00000000000E+00 0.  1.
         25    1    1    2    0    0 -0.33788037185E+03  0.12141594729E+03  0.29501939973E+03  0.48121349124E+03  0.12500000000E+03 0.  0.
         21    1    1    2  503  501  0.33788037185E+03 -0.12141594729E+03 -0.34309616728E+03  0.49660845536E+03  0.00000000000E+00 0.  1.
<mgrwt>
<rscale>  3 0.38017099E+03</rscale>
<asrwt>0</asrwt>
<pdfrwt beam="1">  1       21 0.71518860E-01 0.38017099E+03</pdfrwt>
<pdfrwt beam="2">  1       21 0.78915286E-01 0.38017099E+03</pdfrwt>
<totfact> 0.22300851E+03</totfact>
</mgrwt>
</event>
<event>
 4    0  0.1463995E-001  0.3231892E+03  0.7546771E-02  0.1074191E+00
         21   -1    0    0  503  501  0.00000000000E+00  0.00000000000E+00  0.13128528993E+04  0.13128528993E+04  0.00000000000E+00 0. -1.
         21   -1    0    0  501  502 -0.00000000000E+00 -0.00000000000E+00 -0.20729465908E+03  0.20729465908E+03  0.00000000000E+00 0.  1.
         25    1    1    2    0    0 -0.13794449122E+03 -0.26419225307E+03  0.11711946085E+04  0.12149683289E+04  0.12500000000E+03 0.  0.
         21    1    1    2  503  502  0.13794449122E+03  0.26419225307E+03 -0.65636368318E+02  0.30517922944E+03  0.00000000000E+00 0.  1.
<mgrwt>
<rscale>  3 0.32318915E+03</rscale>
<asrwt>0</asrwt>
<pdfrwt beam="1">  1       21 0.20197736E+00 0.32318915E+03</pdfrwt>
<pdfrwt beam="2">  1       21 0.31891487E-01 0.32318915E+03</pdfrwt>
<totfact> 0.11028025E+03</totfact>
</mgrwt>
</event>
<event>
 4    0  0.1525763E-001  0.2403033E+03  0.7546771E-02  0.1119591E+00
         21   -1    0    0  502  501  0.00000000000E+00  0.00000000000E+00  0.36907461629E+03  0.36907461629E+03  0.00000000000E+00 0. -1.
         21   -1    0    0  503  502 -0.00000000000E+00 -0.00000000000E+00 -0.21772834451E+03  0.21772834451E+03  0.00000000000E+00 0. -1.
         25    1    1    2    0    0  0.35182171274E+02  0.20219513353E+03  0.26044936473E+03  0.35437202032E+03  0.12500000000E+03 0.  0.
         21    1    1    2  503  501 -0.35182171274E+02 -0.20219513353E+03 -0.10910309295E+03  0.23243094047E+03  0.00000000000E+00 0. -1.
<mgrwt>
<rscale>  3 0.24030326E+03</rscale>
<asrwt>0</asrwt>
<pdfrwt beam="1">  1       21 0.56780710E-01 0.24030326E+03</pdfrwt>
<pdfrwt beam="2">  1       21 0.33496668E-01 0.24030326E+03</pdfrwt>
<totfact> 0.24394760E+04</totfact>
</mgrwt>
</event>
<event>
 4    0  0.1003929E-001  0.2413949E+03  0.7546771E-02  0.1118867E+00
         21   -1    0    0  502  501  0.00000000000E+00  0.00000000000E+00  0.38499920213E+03  0.38499920213E+03  0.00000000000E+00 0.  1.
         21   -1    0    0  503  502 -0.00000000000E+00 -0.00000000000E+00 -0.16389006660E+03  0.16389006660E+03  0.00000000000E+00 0. -1.
         25    1    1    2    0    0  0.19925583008E+03 -0.54254853214E+02  0.24139635963E+03  0.34138494015E+03  0.12500000000E+03 0.  0.
         21    1    1    2  503  501 -0.19925583008E+03  0.54254853214E+02 -0.20287224106E+02  0.20750432858E+03  0.00000000000E+00 0. -1.
<mgrwt>
<rscale>  3 0.24139485E+03</rscale>
<asrwt>0</asrwt>
<pdfrwt beam="1">  1       21 0.59230646E-01 0.24139485E+03</pdfrwt>
<pdfrwt beam="2">  1       21 0.25213856E-01 0.24139485E+03</pdfrwt>
<totfact> 0.38774548E+04</totfact>
</mgrwt>
</event>
<event>
 4    0  0.1088060E-001  0.3206565E+03  0.7546771E-02  0.1075348E+00
         21   -1    0    0  503  501  0.00000000000E+00  0.00000000000E+00  0.23170366040E+03  0.23170366040E+03  0.00000000000E+00 0. -1.
         21   -1    0    0  501  502 -0.00000000000E+00 -0.00000000000E+00 -0.56436419955E+03  0.56436419955E+03  0.00000000000E+00 0. -1.
         25    1    1    2    0    0  0.28855445458E+03 -0.62705104842E+02 -0.37977817182E+03  0.49704332127E+03  0.12500000000E+03 0.  0.
         21    1    1    2  503  502 -0.28855445458E+03  0.62705104842E+02  0.47117632662E+02  0.29902453869E+03  0.00000000000E+00 0. -1.
<mgrwt>
<rscale>  3 0.32065652E+03</rscale>
<asrwt>0</asrwt>
<pdfrwt beam="1">  1       21 0.35646717E-01 0.32065652E+03</pdfrwt>
<pdfrwt beam="2">  1       21 0.86825261E-01 0.32065652E+03</pdfrwt>
<totfact> 0.80529035E+03</totfact>
</mgrwt>
</event>
<event>
 4    0  0.1254944E-001  0.3971726E+03  0.7546771E-02  0.1044763E+00
         21   -1    0    0  502  501  0.00000000000E+00  0.00000000000E+00  0.11904669461E+04  0.11904669461E+04  0.00000000000E+00 0.  1.
         21   -1    0    0  503  502 -0.00000000000E+00 -0.00000000000E+00 -0.12703051523E+03  0.12703051523E+03  0.00000000000E+00 0.  1.
         25    1    1    2    0    0 -0.17626622102E+03  0.33324354184E+03  0.48222891444E+03  0.62473255459E+03  0.12500000000E+03 0.  0.
         21    1    1    2  503  501  0.17626622102E+03 -0.33324354184E+03  0.58120751644E+03  0.69276490674E+03  0.00000000000E+00 0.  1.
<mgrwt>
<rscale>  3 0.39717256E+03</rscale>
<asrwt>0</asrwt>
<pdfrwt beam="1">  1       21 0.18314875E+00 0.39717256E+03</pdfrwt>
<pdfrwt beam="2">  1       21 0.19543157E-01 0.39717256E+03</pdfrwt>
<totfact> 0.36654135E+03</totfact>
</mgrwt>
</event>
<event>
 4    0  0.1562321E-001  0.2706847E+03  0.7546771E-02  0.1100888E+00
         21   -1    0    0  503  501  0.00000000000E+00  0.00000000000E+00  0.51587676916E+03  0.51587676916E+03  0.00000000000E+00 0. -1.
         21   -1    0    0  501  502 -0.00000000000E+00 -0.00000000000E+00 -0.24002702935E+03  0.24002702935E+03  0.00000000000E+00 0.  1.
         25    1    1    2    0    0 -0.22206429279E+03 -0.91283332255E+02  0.40203692402E+03  0.48466884071E+03  0.12500000000E+03 0.  0.
         21    1    1    2  503  502  0.22206429279E+03  0.91283332255E+02 -0.12618718420E+03  0.27123495780E+03  0.00000000000E+00 0.  1.
<mgrwt>
<rscale>  3 0.27068468E+03</rscale>
<asrwt>0</asrwt>
<pdfrwt beam="1">  1       21 0.79365657E-01 0.27068468E+03</pdfrwt>
<pdfrwt beam="2">  1       21 0.36927235E-01 0.27068468E+03</pdfrwt>
<totfact> 0.94460212E+03</totfact>
</mgrwt>
</event>
<event>
 4    0  0.1306233E-001  0.2751312E+03  0.7546771E-02  0.1098378E+00
         21   -1    0    0  503  501  0.00000000000E+00  0.00000000000E+00  0.56383047433E+03  0.56383047433E+03  0.00000000000E+00 0.  1.
         21   -1    0    0  501  502 -0.00000000000E+00 -0.00000000000E+00 -0.12237292339E+03  0.12237292339E+03  0.00000000000E+00 0.  1.
         25    1    1    2    0    0  0.15880097668E+03  0.18669339817E+03  0.18551695424E+03  0.33183386721E+03  0.12500000000E+03 0.  0.
         21    1    1    2  503  502 -0.15880097668E+03 -0.18669339817E+03  0.25594059671E+03  0.35436953052E+03  0.00000000000E+00 0.  1.
<mgrwt>
<rscale>  3 0.27513120E+03</rscale>
<asrwt>0</asrwt>
<pdfrwt beam="1">  1       21 0.86743148E-01 0.27513120E+03</pdfrwt>
<pdfrwt beam="2">  1       21 0.18826604E-01 0.27513120E+03</pdfrwt>
<totfact> 0.28372260E+04</totfact>
</mgrwt>
</event>
<event>
 4    0  0.1003929E-001  0.4234312E+03  0.7546771E-02  0.1035955E+00
         21   -1    0    0  502  501  0.00000000000E+00  0.00000000000E+00  0.66503591122E+03  0.66503591122E+03  0.00000000000E+00 0. -1.
         21   -1    0    0  503  502 -0.00000000000E+00 -0.00000000000E+00 -0.17978464246E+04  0.17978464246E+04  0.00000000000E+00 0. -1.
         25    1    1    2    0    0 -0.29018238991E+03 -0.28189213299E+03  0.57146777047E+03  0.71124496957E+03  0.12500000000E+03 0.  0.
         21    1    1    2  503  501  0.29018238991E+03  0.28189213299E+03 -0.17042782838E+04  0.17516373662E+04  0.00000000000E+00 0. -1.
<mgrwt>
<rscale>  3 0.42343122E+03</rscale>
<asrwt>0</asrwt>
<pdfrwt beam="1">  1       21 0.10231322E+00 0.42343122E+03</pdfrwt>
<pdfrwt beam="2">  1       21 0.27659176E+00 0.42343122E+03</pdfrwt>
<totfact> 0.27929640E+01</totfact>
</mgrwt>
</event>
<event>
 4    0  0.1842569E-001  0.3000990E+03  0.7546771E-02  0.1085191E+00
         21   -1    0    0  502  501  0.00000000000E+00  0.00000000000E+00  0.12863910052E+04  0.12863910052E+04  0.00000000000E+00 0. -1.
         21   -1    0    0  503  502 -0.00000000000E+00 -0.00000000000E+00 -0.25336417800E+03  0.25336417800E+03  0.00000000000E+00 0.  1.
         25    1    1    2    0    0 -0.10614748519E+03 -0.25133074068E+03  0.11884564799E+04  0.12257602680E+04  0.12500000000E+03 0.  0.
         21    1    1    2  503  501  0.10614748519E+03  0.25133074068E+03 -0.15542965276E+03  0.31399491521E+03  0.00000000000E+00 0.  1.
<mgrwt>
<rscale>  3 0.30009903E+03</rscale>
<asrwt>0</asrwt>
<pdfrwt beam="1">  1       21 0.19790630E+00 0.30009903E+03</pdfrwt>
<pdfrwt beam="2">  1       21 0.38979105E-01 0.30009903E+03</pdfrwt>
<totfact> 0.79623576E+02</totfact>
</mgrwt>
</event>
<event>
 4    0  0.1003929E-001  0.2596179E+03  0.7546771E-02  0.1107373E+00
         21   -1    0    0  503  501  0.00000000000E+00  0.00000000000E+00  0.25201605783E+04  0.25201605783E+04  0.00000000000E+00 0.  1.
         21   -1    0    0  501  502 -0.00000000000E+00 -0.00000000000E+00 -0.10880238497E+03  0.10880238497E+03  0.00000000000E+00 0.  1.
         25    1    1    2    0    0 -0.22623273180E+03 -0.24397014373E+02  0.23859174649E+04  0.24000007526E+04  0.12500000000E+03 0.  0.
         21    1    1    2  503  502  0.22623273180E+03  0.24397014373E+02  0.25440728449E+02  0.22896221067E+03  0.00000000000E+00 0.  1.
<mgrwt>
<rscale>  3 0.25961792E+03</rscale>
<asrwt>0</asrwt>
<pdfrwt beam="1">  1       21 0.38771697E+00 0.25961792E+03</pdfrwt>
<pdfrwt beam="2">  1       21 0.16738830E-01 0.25961792E+03</pdfrwt>
<totfact> 0.30267686E+02</totfact>
</mgrwt>
</event>
<event>
 4    0  0.1706416E-001  0.2861141E+03  0.7546771E-02  0.1092396E+00
         21   -1    0    0  503  501  0.00000000000E+00  0.00000000000E+00  0.40806350635E+03  0.40806350635E+03  0.00000000000E+00 0. -1.
         21   -1    0    0  501  502 -0.00000000000E+00 -0.00000000000E+00 -0.18669650823E+03  0.18669650823E+03  0.00000000000E+00 0. -1.
         25    1    1    2    0    0 -0.25210565817E+03  0.51759358696E+02  0.16842682242E+03  0.33200736227E+03  0.12500000000E+03 0.  0.
         21    1    1    2  503  502  0.25210565817E+03 -0.51759358696E+02  0.52940175703E+02  0.26275265231E+03  0.00000000000E+00 0. -1.
<mgrwt>
<rscale>  3 0.28611413E+03</rscale>
<asrwt>0</asrwt>
<pdfrwt beam="1">  1       21 0.62779001E-01 0.28611413E+03</pdfrwt>
<pdfrwt beam="2">  1       21 0.28722540E-01 0.28611413E+03</pdfrwt>
<totfact> 0.26056394E+04</totfact>
</mgrwt>
</event>
<event>
 4    0  0.1136941E-001  0.4126850E+03  0.7546771E-02  0.1039474E+00
         21   -1    0    0  503  501  0.00000000000E+00  0.00000000000E+00  0.22093224355E+03  0.22093224355E+03  0.00000000000E+00 0. -1.
         21   -1    0    0  501  502 -0.00000000000E+00 -0.00000000000E+00 -0.10224983756E+04  0.10224983756E+04  0.00000000000E+00 0.  1.
         25    1    1    2    0    0 -0.22835343530E+03 -0.32021657771E+03 -0.78157854944E+02  0.42002094989E+03  0.12500000000E+03 0.  0.
         21    1    1    2  503  502  0.22835343530E+03  0.32021657771E+03 -0.72340827710E+03  0.82340966926E+03  0.00000000000E+00 0.  1.
<mgrwt>
<rscale>  3 0.41268505E+03</rscale>
<asrwt>0</asrwt>
<pdfrwt beam="1">  1       21 0.33989576E-01 0.41268505E+03</pdfrwt>
<pdfrwt beam="2">  1       21 0.15730744E+00 0.41268505E+03</pdfrwt>
<totfact> 0.19054032E+03</totfact>
</mgrwt>
</event>
<event>
 4    0  0.1724289E-001  0.2913584E+03  0.7546771E-02  0.1089642E+00
         21   -1    0    0  502  501  0.00000000000E+00  0.00000000000E+00  0.44160797246E+03  0.44160797246E+03  0.00000000000E+00 0. -1.
         21   -1    0    0  503  502 -0.00000000000E+00 -0.00000000000E+00 -0.39469154737E+03  0.39469154737E+03  0.00000000000E+00 0.  1.
         25    1    1    2    0    0 -0.21153089805E+03 -0.15658677337E+03  0.33642026759E+03  0.44504868820E+03  0.12500000000E+03 0.  0.
         21    1    1    2  503  501  0.21153089805E+03  0.15658677337E+03 -0.28950384250E+03  0.39125083163E+03  0.00000000000E+00 0.  1.
<mgrwt>
<rscale>  3 0.29135844E+03</rscale>
<asrwt>0</asrwt>
<pdfrwt beam="1">  1       21 0.67939688E-01 0.29135844E+03</pdfrwt>
<pdfrwt beam="2">  1       21 0.60721777E-01 0.29135844E+03</pdfrwt>
<totfact> 0.46863050E+03</totfact>
</mgrwt>
</event>
<event>
 4    0  0.1067205E-001  0.3419353E+03  0.7546771E-02  0.1065975E+00
         21   -1    0    0  502  501  0.00000000000E+00  0.00000000000E+00  0.11027913063E+04  0.11027913063E+04  0.00000000000E+00 0. -1.
         21   -1    0    0  503  502 -0.00000000000E+00 -0.00000000000E+00 -0.20298339658E+03  0.20298339658E+03  0.00000000000E+00 0. -1.
         25    1    1    2    0    0  0.14059686749E+03 -0.28552979038E+03  0.92532834623E+03  0.98648481421E+03  0.12500000000E+03 0.  0.
         21    1    1    2  503  501 -0.14059686749E+03  0.28552979038E+03 -0.25520436473E+02  0.31928988869E+03  0.00000000000E+00 0. -1.
<mgrwt>
<rscale>  3 0.34193529E+03</rscale>
<asrwt>0</asrwt>
<pdfrwt beam="1">  1       21 0.16966020E+00 0.34193529E+03</pdfrwt>
<pdfrwt beam="2">  1       21 0.31228215E-01 0.34193529E+03</pdfrwt>
<totfact> 0.18930238E+03</totfact>
</mgrwt>
</event>
<event>
 4    0  0.1076842E-001  0.2467851E+03  0.7546771E-02  0.1115354E+00
         21   -1    0    0  502  501  0.00000000000E+00  0.00000000000E+00  0.13878161458E+04  0.13878161458E+04  0.00000000000E+00 0. -1.
         21   -1    0    0  503  502 -0.00000000000E+00 -0.00000000000E+00 -0.40734560325E+02  0.40734560325E+02  0.00000000000E+00 0. -1.
         25    1    1    2    0    0 -0.19871365939E+03 -0.76097062843E+02  0.53706066248E+03  0.59104740638E+03  0.12500000000E+03 0.  0.
         21    1    1    2  503  501  0.19871365939E+03  0.76097062843E+02  0.81002092299E+03  0.83750329974E+03  0.00000000000E+00 0. -1.
<mgrwt>
<rscale>  3 0.24678509E+03</rscale>
<asrwt>0</asrwt>
<pdfrwt beam="1">  1       21 0.21351014E+00 0.24678509E+03</pdfrwt>
<pdfrwt beam="2">  1       21 0.62668565E-02 0.24678509E+03</pdfrwt>
<totfact> 0.19420793E+04</totfact>
</mgrwt>
</event>
<event>
 4    0  0.1082208E-001  0.4398807E+03  0.7546771E-02  0.1030783E+00
         21   -1    0    0  502  501  0.00000000000E+00  0.00000000000E+00  0.12246394951E+04  0.12246394951E+04  0.00000000000E+00 0.  1.
         21   -1    0    0  503  502 -0.00000000000E+00 -0.00000000000E+00 -0.19119124913E+03  0.19119124913E+03  0.00000000000E+00 0.  1.
         25    1    1    2    0    0  0.27879538775E+03  0.31645401116E+03  0.84761275654E+03  0.95495675004E+03  0.12500000000E+03 0.  0.
         21    1    1    2  503  501 -0.27879538775E+03 -0.31645401116E+03  0.18583548947E+03  0.46087399422E+03  0.00000000000E+00 0.  1.
<mgrwt>
<rscale>  3 0.43988068E+03</rscale>
<asrwt>0</asrwt>
<pdfrwt beam="1">  1       21 0.18840607E+00 0.43988068E+03</pdfrwt>
<pdfrwt beam="2">  1       21 0.29414039E-01 0.43988068E+03</pdfrwt>
<totfact> 0.14993837E+03</totfact>
</mgrwt>
</event>
<event>
 4    0  0.1003929E-001  0.2369770E+03  0.7546771E-02  0.1121823E+00
         21   -1    0    0  503  501  0.00000000000E+00  0.00000000000E+00  0.10403835844E+04  0.10403835844E+04  0.00000000000E+00 0. -1.
         21   -1    0    0  501  502 -0.00000000000E+00 -0.00000000000E+00 -0.33821299844E+03  0.33821299844E+03  0.00000000000E+00 0.  1.
         25    1    1    2    0    0  0.10093724074E+03  0.17419757413E+03  0.99522460388E+03  0.10230494287E+04  0.12500000000E+03 0.  0.
         21    1    1    2  503  502 -0.10093724074E+03 -0.17419757413E+03 -0.29305401792E+03  0.35554715414E+03  0.00000000000E+00 0.  1.
<mgrwt>
<rscale>  3 0.23697705E+03</rscale>
<asrwt>0</asrwt>
<pdfrwt beam="1">  1       21 0.16005901E+00 0.23697705E+03</pdfrwt>
<pdfrwt beam="2">  1       21 0.52032770E-01 0.23697705E+03</pdfrwt>
<totfact> 0.84345053E+02</totfact>
</mgrwt>
</event>
<event>
 4    0  0.1003929E-001  0.2879782E+03  0.7546771E-02  0.1091410E+00
         21   -1    0    0  502  501  0.00000000000E+00  0.00000000000E+00  0.13766610392E+04  0.13766610392E+04  0.00000000000E+00 0.  1.
         21   -1    0    0  503  502 -0.00000000000E+00 -0.00000000000E+00 -0.19682371300E+03  0.19682371300E+03  0.00000000000E+00 0.  1.
         25    1    1    2    0    0  0.22184461455E+03 -0.13450423057E+03  0.12673738804E+04  0.12996799506E+04  0.12500000000E+03 0.  0.
         21    1    1    2  503  501 -0.22184461455E+03  0.13450423057E+03 -0.87536554287E+02  0.27380480160E+03  0.00000000000E+00 0.  1.
<mgrwt>
<rscale>  3 0.28797816E+03</rscale>
<asrwt>0</asrwt>
<pdfrwt beam="1">  1       21 0.21179400E+00 0.28797816E+03</pdfrwt>
<pdfrwt beam="2">  1       21 0.30280572E-01 0.28797816E+03</pdfrwt>
<totfact> 0.10825840E+03</totfact>
</mgrwt>
</event>
<event>
 4    0  0.1003929E-001  0.2811640E+03  0.7546771E-02  0.1095055E+00
         21   -1    0    0  502  501  0.00000000000E+00  0.00000000000E+00  0.13712624620E+03  0.13712624620E+03  0.00000000000E+00 0.  1.
         21   -1    0    0  503  502 -0.00000000000E+00 -0.00000000000E+00 -0.60177207015E+03  0.60177207015E+03  0.00000000000E+00 0. -1.
         25    1    1    2    0    0  0.18039428972E+03 -0.17574439001E+03 -0.10562278079E+03  0.30034873431E+03  0.12500000000E+03 0.  0.
         21    1    1    2  503  501 -0.18039428972E+03  0.17574439001E+03 -0.35902304316E+03  0.43854958203E+03  0.00000000000E+00 0. -1.
<mgrwt>
<rscale>  3 0.28116399E+03</rscale>
<asrwt>0</asrwt>
<pdfrwt beam="1">  1       21 0.21096346E-01 0.28116399E+03</pdfrwt>
<pdfrwt beam="2">  1       21 0.92580318E-01 0.28116399E+03</pdfrwt>
<totfact> 0.19614323E+04</totfact>
</mgrwt>
</event>
<event>
 4    0  0.1432714E-001  0.2626866E+03  0.7546771E-02  0.1105540E+00
         21   -1    0    0  502  501  0.00000000000E+00  0.00000000000E+00  0.10224933089E+03  0.10224933089E+03  0.00000000000E+00 0. -1.
         21   -1    0    0  503  502 -0.00000000000E+00 -0.00000000000E+00 -0.59602972709E+03  0.59602972709E+03  0.00000000000E+00 0. -1.
         25    1    1    2    0    0 -0.14553498735E+03  0.17944023604E+03 -0.26057688610E+03  0.37000614106E+03  0.12500000000E+03 0.  0.
         21    1    1    2  503  501  0.14553498735E+03 -0.17944023604E+03 -0.23320351010E+03  0.32827291691E+03  0.00000000000E+00 0. -1.
<mgrwt>
<rscale>  3 0.26268656E+03</rscale>
<asrwt>0</asrwt>
<pdfrwt beam="1">  1       21 0.15730666E-01 0.26268656E+03</pdfrwt>
<pdfrwt beam="2">  1       21 0.91696880E-01 0.26268656E+03</pdfrwt>
<totfact> 0.34973338E+04</totfact>
</mgrwt>
</event>
<event>
 4    0  0.1422304E-001  0.3518672E+03  0.7546771E-02  0.1061851E+00
         21   -1    0    0  503  501  0.00000000000E+00  0.00000000000E+00  0.12671755469E+03  0.12671755469E+03  0.00000000000E+00 0. -1.
         21   -1    0    0  501  502 -0.00000000000E+00 -0.00000000000E+00 -0.93452406626E+03  0.93452406626E+03  0.00000000000E+00 0. -1.
         25    1    1    2    0    0 -0.27135736793E+03  0.18587810671E+03 -0.49511359298E+03  0.60741086724E+03  0.12500000000E+03 0.  0.
         21    1    1    2  503  502  0.27135736793E+03 -0.18587810671E+03 -0.31269291859E+03  0.45383075372E+03  0.00000000000E+00 0. -1.
<mgrwt>
<rscale>  3 0.35186715E+03</rscale>
<asrwt>0</asrwt>
<pdfrwt beam="1">  1       21 0.19495008E-01 0.35186715E+03</pdfrwt>
<pdfrwt beam="2">  1       21 0.14377294E+00 0.35186715E+03</pdfrwt>
<totfact> 0.73694887E+03</totfact>
</mgrwt>
</event>
<event>
 4    0  0.1145392E-001  0.3372409E+03  0.7546771E-02  0.1067977E+00
         21   -1    0    0  502  501  0.00000000000E+00  0.00000000000E+00  0.96956785444E+03  0.96956785444E+03  0.00000000000E+00 0.  1.
         21   -1    0    0  503  502 -0.00000000000E+00 -0.00000000000E+00 -0.17595767531E+03  0.17595767531E+03  0.00000000000E+00 0.  1.
         25    1    1    2    0    0 -0.16882997267E+03  0.26382357034E+03  0.75881361850E+03  0.83037915650E+03  0.12500000000E+03 0.  0.
         21    1    1    2  503  501  0.16882997267E+03 -0.26382357034E+03  0.34796560627E+02  0.31514637325E+03  0.00000000000E+00 0.  1.
<mgrwt>
<rscale>  3 0.33724092E+03</rscale>
<asrwt>0</asrwt>
<pdfrwt beam="1">  1       21 0.14916428E+00 0.33724092E+03</pdfrwt>
<pdfrwt beam="2">  1       21 0.27070412E-01 0.33724092E+03</pdfrwt>
<totfact> 0.35817758E+03</totfact>
</mgrwt>
</event>
<event>
 4    0  0.1205853E-001  0.2407099E+03  0.7546771E-02  0.1119321E+00
         21   -1    0    0  503  501  0.00000000000E+00  0.00000000000E+00  0.17419742537E+03  0.17419742537E+03  0.00000000000E+00 0. -1.
         21   -1    0    0  501  502 -0.00000000000E+00 -0.00000000000E+00 -0.33337052138E+03  0.33337052138E+03  0.00000000000E+00 0. -1.
         25    1    1    2    0    0  0.53041982474E+02 -0.19875310217E+03 -0.18034103619E+03  0.30077256667E+03  0.12500000000E+03 0.  0.
         21    1    1    2  503  502 -0.53041982474E+02  0.19875310217E+03  0.21167940181E+02  0.20679538007E+03  0.00000000000E+00 0. -1.
<mgrwt>
<rscale>  3 0.24070988E+03</rscale>
<asrwt>0</asrwt>
<pdfrwt beam="1">  1       21 0.26799604E-01 0.24070988E+03</pdfrwt>
<pdfrwt beam="2">  1       21 0.51287772E-01 0.24070988E+03</pdfrwt>
<totfact> 0.46854348E+04</totfact>
</mgrwt>
</event>
<event>
 4    0  0.1197902E-001  0.2611382E+03  0.7546771E-02  0.1106461E+00
         21   -1    0    0  502  501  0.00000000000E+00  0.00000000000E+00  0.54657681329E+03  0.54657681329E+03  0.00000000000E+00 0.  1.
         21   -1    0    0  503  502 -0.00000000000E+00 -0.00000000000E+00 -0.11301053765E+03  0.11301053765E+03  0.00000000000E+00 0.  1.
         25    1    1    2    0    0  0.83914787479E+02  0.21336934256E+03  0.17683175747E+03  0.31537697816E+03  0.12500000000E+03 0.  0.
         21    1    1    2  503  501 -0.83914787479E+02 -0.21336934256E+03  0.25673451817E+03  0.34421037277E+03  0.00000000000E+00 0.  1.
<mgrwt>
<rscale>  3 0.26113822E+03</rscale>
<asrwt>0</asrwt>
<pdfrwt beam="1">  1       21 0.84088739E-01 0.26113822E+03</pdfrwt>
<pdfrwt beam="2">  1       21 0.17386237E-01 0.26113822E+03</pdfrwt>
<totfact> 0.35567916E+04</totfact>
</mgrwt>
</event>
<event>
 4    0  0.1449097E-001  0.3018493E+03  0.7546771E-02  0.1084320E+00
         21   -1    0    0  503  501  0.00000000000E+00  0.00000000000E+00  0.15942257189E+03  0.15942257189E+03  0.00000000000E+00 0.  1.
         21   -1    0    0  501  502 -0.00000000000E+00 -0.00000000000E+00 -0.52163720670E+03  0.52163720670E+03  0.00000000000E+00 0.  1.
         25    1    1    2    0    0 -0.18667440627E+03 -0.20159534190E+03 -0.19742180471E+03  0.36067767440E+03  0.12500000000E+03 0.  0.
         21    1    1    2  503  502  0.18667440627E+03  0.20159534190E+03 -0.16479283010E+03  0.32038210419E+03  0.00000000000E+00 0.  1.
<mgrwt>
<rscale>  3 0.30184933E+03</rscale>
<asrwt>0</asrwt>
<pdfrwt beam="1">  1       21 0.24526549E-01 0.30184933E+03</pdfrwt>
<pdfrwt beam="2">  1       21 0.80251879E-01 0.30184933E+03</pdfrwt>
<totfact> 0.20320603E+04</totfact>
</mgrwt>
</event>
<event>
 4    0  0.1188637E-001  0.2734296E+03  0.7546771E-02  0.1099333E+00
         21   -1    0    0  503  501  0.00000000000E+00  0.00000000000E+00  0.22557920265E+04  0.22557920265E+04  0.00000000000E+00 0. -1.
         21   -1    0    0  501  502 -0.00000000000E+00 -0.00000000000E+00 -0.10458474374E+03  0.10458474374E+03  0.00000000000E+00 0.  1.
         25    1    1    2    0    0  0.21521083671E+03 -0.11323880125E+03  0.20923905800E+04  0.21101805775E+04  0.12500000000E+03 0.  0.
         21    1    1    2  503  502 -0.21521083671E+03  0.11323880125E+03  0.58816702777E+02  0.25019619276E+03  0.00000000000E+00 0.  1.
<mgrwt>
<rscale>  3 0.27342957E+03</rscale>
<asrwt>0</asrwt>
<pdfrwt beam="1">  1       21 0.34704489E+00 0.27342957E+03</pdfrwt>
<pdfrwt beam="2">  1       21 0.16089962E-01 0.27342957E+03</pdfrwt>
<totfact> 0.56706266E+02</totfact>
</mgrwt>
</event>
<event>
 4    0  0.1271609E-001  0.3331985E+03  0.7546771E-02  0.1069730E+00
         21   -1    0    0  502  501  0.00000000000E+00  0.00000000000E+00  0.86949839055E+03  0.86949839055E+03  0.00000000000E+00 0.  1.
         21   -1    0    0  503  502 -0.00000000000E+00 -0.00000000000E+00 -0.17313198609E+03  0.17313198609E+03  0.00000000000E+00 0.  1.
         25    1    1    2    0    0  0.18641252479E+03 -0.24626532315E+03  0.64983986337E+03  0.73028288136E+03  0.12500000000E+03 0.  0.
         21    1    1    2  503  501 -0.18641252479E+03  0.24626532315E+03  0.46526541096E+02  0.31234749529E+03  0.00000000000E+00 0.  1.
<mgrwt>
<rscale>  3 0.33319850E+03</rscale>
<asrwt>0</asrwt>
<pdfrwt beam="1">  1       21 0.13376898E+00 0.33319850E+03</pdfrwt>
<pdfrwt beam="2">  1       21 0.26635691E-01 0.33319850E+03</pdfrwt>
<totfact> 0.49379402E+03</totfact>
</mgrwt>
</event>
<event>
 4    0  0.1014520E-001  0.4573795E+03  0.7546771E-02  0.1025544E+00
         21   -1    0    0  502  501  0.00000000000E+00  0.00000000000E+00  0.13776011015E+04  0.13776011015E+04  0.00000000000E+00 0.  1.
         21   -1    0    0  503  502 -0.00000000000E+00 -0.00000000000E+00 -0.19239726962E+03  0.19239726962E+03  0.00000000000E+00 0.  1.
         25    1    1    2    0    0 -0.38405515381E+03  0.21464533398E+03  0.98623623592E+03  0.10871328776E+04  0.12500000000E+03 0.  0.
         21    1    1    2  503  501  0.38405515381E+03 -0.21464533398E+03  0.19896759595E+03  0.48286549349E+03  0.00000000000E+00 0.  1.
<mgrwt>
<rscale>  3 0.45737947E+03</rscale>
<asrwt>0</asrwt>
<pdfrwt beam="1">  1       21 0.21193862E+00 0.45737947E+03</pdfrwt>
<pdfrwt beam="2">  1       21 0.29599581E-01 0.45737947E+03</pdfrwt>
<totfact> 0.10234934E+03</totfact>
</mgrwt>
</event>
<event>
 4    0  0.1277246E-001  0.2507386E+03  0.7546771E-02  0.1112839E+00
         21   -1    0    0  503  501  0.00000000000E+00  0.00000000000E+00  0.15941130157E+04  0.15941130157E+04  0.00000000000E+00 0. -1.
         21   -1    0    0  501  502 -0.00000000000E+00 -0.00000000000E+00 -0.57543920935E+02  0.57543920935E+02  0.00000000000E+00 0. -1.
         25    1    1    2    0    0 -0.15909171455E+03 -0.14810356173E+03  0.13243522450E+04  0.13478793371E+04  0.12500000000E+03 0.  0.
         21    1    1    2  503  502  0.15909171455E+03  0.14810356173E+03  0.21221684978E+03  0.30377759951E+03  0.00000000000E+00 0. -1.
<mgrwt>
<rscale>  3 0.25073859E+03</rscale>
<asrwt>0</asrwt>
<pdfrwt beam="1">  1       21 0.24524812E+00 0.25073859E+03</pdfrwt>
<pdfrwt beam="2">  1       21 0.88529121E-02 0.25073859E+03</pdfrwt>
<totfact> 0.67759878E+03</totfact>
</mgrwt>
</event>
<event>
 4    0  0.1546914E-001  0.2467390E+03  0.7546771E-02  0.1115383E+00
         21   -1    0    0  503  501  0.00000000000E+00  0.00000000000E+00  0.20407264114E+03  0.20407264114E+03  0.00000000000E+00 0. -1.
         21   -1    0    0  501  502 -0.00000000000E+00 -0.00000000000E+00 -0.39420973611E+03  0.39420973611E+03  0.00000000000E+00 0. -1.
         25    1    1    2    0    0  0.16539275553E+03 -0.13379228069E+03  0.75434652469E+02  0.25801264455E+03  0.12500000000E+03 0.  0.
         21    1    1    2  503  502 -0.16539275553E+03  0.13379228069E+03 -0.26557174744E+03  0.34026973270E+03  0.00000000000E+00 0. -1.
<mgrwt>
<rscale>  3 0.24673901E+03</rscale>
<asrwt>0</asrwt>
<pdfrwt beam="1">  1       21 0.31395791E-01 0.24673901E+03</pdfrwt>
<pdfrwt beam="2">  1       21 0.60647651E-01 0.24673901E+03</pdfrwt>
<totfact> 0.23990059E+04</totfact>
</mgrwt>
</event>
<event>
 4    0  0.1003929E-001  0.2667795E+03  0.7546771E-02  0.1103137E+00
         21   -1    0    0  503  501  0.00000000000E+00  0.00000000000E+00  0.12191729674E+04  0.12191729674E+04  0.00000000000E+00 0. -1.
         21   -1    0    0  501  502 -0.00000000000E+00 -0.00000000000E+00 -0.63896508424E+02  0.63896508424E+02  0.00000000000E+00 0.  1.
         25    1    1    2    0    0 -0.21485510385E+03  0.96868780924E+02  0.88564430301E+03  0.92495248950E+03  0.12500000000E+03 0.  0.
         21    1    1    2  503  502  0.21485510385E+03 -0.96868780924E+02  0.26963215598E+03  0.35811698634E+03  0.00000000000E+00 0.  1.
<mgrwt>
<rscale>  3 0.26677945E+03</rscale>
<asrwt>0</asrwt>
<pdfrwt beam="1">  1       21 0.18756505E+00 0.26677945E+03</pdfrwt>
<pdfrwt beam="2">  1       21 0.98302330E-02 0.26677945E+03</pdfrwt>
<totfact> 0.12866621E+04</totfact>
</mgrwt>
</event>
<event>
 4    0  0.1003929E-001  0.2378324E+03  0.7546771E-02  0.1121245E+00
         21   -1    0    0  503  501  0.00000000000E+00  0.00000000000E+00  0.21761024150E+03  0.21761024150E+03  0.00000000000E+00 0. -1.
         21   -1    0    0  501  502 -0.00000000000E+00 -0.00000000000E+00 -0.22298121868E+03  0.22298121868E+03  0.00000000000E+00 0. -1.
         25    1    1    2    0    0  0.14636775790E+03  0.13969870108E+03  0.63572117408E+01  0.23791734232E+03  0.12500000000E+03 0.  0.
         21    1    1    2  503  502 -0.14636775790E+03 -0.13969870108E+03 -0.11728188919E+02  0.20267411786E+03  0.00000000000E+00 0. -1.
<mgrwt>
<rscale>  3 0.23783239E+03</rscale>
<asrwt>0</asrwt>
<pdfrwt beam="1">  1       21 0.33478499E-01 0.23783239E+03</pdfrwt>
<pdfrwt beam="2">  1       21 0.34304803E-01 0.23783239E+03</pdfrwt>
<totfact> 0.69046939E+04</totfact>
</mgrwt>
</event>
<event>
 4    0  0.1187751E-001  0.2440104E+03  0.7546771E-02  0.1117150E+00
         21   -1    0    0  503  501  0.00000000000E+00  0.00000000000E+00  0.14886327606E+03  0.14886327606E+03  0.00000000000E+00 0.  1.
         21   -1    0    0  501  502 -0.00000000000E+00 -0.00000000000E+00 -0.49950889231E+03  0.49950889231E+03  0.00000000000E+00 0.  1.
         25    1    1    2    0    0  0.20855430748E+03  0.20522201132E+02 -0.48813529978E+01  0.24405918855E+03  0.12500000000E+03 0.  0.
         21    1    1    2  503  502 -0.20855430748E+03 -0.20522201132E+02 -0.34576426326E+03  0.40431297982E+03  0.00000000000E+00 0.  1.
<mgrwt>
<rscale>  3 0.24401037E+03</rscale>
<asrwt>0</asrwt>
<pdfrwt beam="1">  1       21 0.22902043E-01 0.24401037E+03</pdfrwt>
<pdfrwt beam="2">  1       21 0.76847521E-01 0.24401037E+03</pdfrwt>
<totfact> 0.26217518E+04</totfact>
</mgrwt>
</event>
<event>
 4    0  0.1310370E-001  0.2575045E+03  0.7546771E-02  0.1108652E+00
         21   -1    0    0  502  501  0.00000000000E+00  0.00000000000E+00  0.52973385945E+03  0.52973385945E+03  0.00000000000E+00 0.  1.
         21   -1    0    0  503  502 -0.00000000000E+00 -0.00000000000E+00 -0.14739293970E+03  0.14739293970E+03  0.00000000000E+00 0.  1.
         25    1    1    2    0    0  0.21962887904E+03  0.49464266165E+02  0.37113413540E+03  0.45171794806E+03  0.12500000000E+03 0.  0.
         21    1    1    2  503  501 -0.21962887904E+03 -0.49464266165E+02  0.11206784352E+02  0.22540885109E+03  0.00000000000E+00 0.  1.
<mgrwt>
<rscale>  3 0.25750448E+03</rscale>
<asrwt>0</asrwt>
<pdfrwt beam="1">  1       21 0.81497516E-01 0.25750448E+03</pdfrwt>
<pdfrwt beam="2">  1       21 0.22675837E-01 0.25750448E+03</pdfrwt>
<totfact> 0.23233277E+04</totfact>
</mgrwt>
</event>
<event>
 4    0  0.1431995E-001  0.2692024E+03  0.7546771E-02  0.1101737E+00
         21   -1    0    0  503  501  0.00000000000E+00  0.00000000000E+00  0.12503574559E+03  0.12503574559E+03  0.00000000000E+00 0.  1.
         21   -1    0    0  501  502 -0.00000000000E+00 -0.00000000000E+00 -0.10322013410E+04  0.10322013410E+04  0.00000000000E+00 0. -1.
         25    1    1    2    0    0 -0.21554220249E+03 -0.10191425103E+03 -0.58192021975E+02  0.27542016455E+03  0.12500000000E+03 0.  0.
         21    1    1    2  503  502  0.21554220249E+03  0.10191425103E+03 -0.84897357343E+03  0.88181692205E+03  0.00000000000E+00 0. -1.
<mgrwt>
<rscale>  3 0.26920244E+03</rscale>
<asrwt>0</asrwt>
<pdfrwt beam="1">  1       21 0.19236269E-01 0.26920244E+03</pdfrwt>
<pdfrwt beam="2">  1       21 0.15880021E+00 0.26920244E+03</pdfrwt>
<totfact> 0.60344359E+03</totfact>
</mgrwt>
</event>
<event>
 4    0  0.1003929E-001  0.3304659E+03  0.7546771E-02  0.1070931E+00
         21   -1    0    0  502  501  0.00000000000E+00  0.00000000000E+00  0.21470907795E+03  0.21470907795E+03  0.00000000000E+00 0.  1.
         21   -1    0    0  503  502 -0.00000000000E+00 -0.00000000000E+00 -0.48520475361E+03  0.48520475361E+03  0.00000000000E+00 0. -1.
         25    1    1    2    0    0 -0.74391630070E+02 -0.29672989177E+03 -0.81638660817E+02  0.34040066720E+03  0.12500000000E+03 0.  0.
         21    1    1    2  503  501  0.74391630070E+02  0.29672989177E+03 -0.18885701484E+03  0.35951316436E+03  0.00000000000E+00 0. -1.
<mgrwt>
<rscale>  3 0.33046595E+03</rscale>
<asrwt>0</asrwt>
<pdfrwt beam="1">  1       21 0.33032166E-01 0.33046595E+03</pdfrwt>
<pdfrwt beam="2">  1       21 0.74646884E-01 0.33046595E+03</pdfrwt>
<totfact> 0.13217150E+04</totfact>
</mgrwt>
</event>
<event>
 4    0  0.1416906E-001  0.3436799E+03  0.7546771E-02  0.1065239E+00
         21   -1    0    0  503  501  0.00000000000E+00  0.00000000000E+00  0.11249125089E+03  0.11249125089E+03  0.00000000000E+00 0. -1.
         21   -1    0    0  501  502 -0.00000000000E+00 -0.00000000000E+00 -0.11075000993E+04  0.11075000993E+04  0.00000000000E+00 0. -1.
         25    1    1    2    0    0  0.31695868927E+03 -0.45033981159E+02 -0.30569573600E+03  0.45996277368E+03  0.12500000000E+03 0.  0.
         21    1    1    2  503  502 -0.31695868927E+03  0.45033981159E+02 -0.68931311239E+03  0.76002857648E+03  0.00000000000E+00 0. -1.
<mgrwt>
<rscale>  3 0.34367989E+03</rscale>
<asrwt>0</asrwt>
<pdfrwt beam="1">  1       21 0.17306346E-01 0.34367989E+03</pdfrwt>
<pdfrwt beam="2">  1       21 0.17038464E+00 0.34367989E+03</pdfrwt>
<totfact> 0.58118879E+03</totfact>
</mgrwt>
</event>
<event>
 4    0  0.1003929E-001  0.2775969E+03  0.7546771E-02  0.1097009E+00
         21   -1    0    0  502  501  0.00000000000E+00  0.00000000000E+00  0.10561475697E+03  0.10561475697E+03  0.00000000000E+00 0. -1.
         21   -1    0    0  503  502 -0.00000000000E+00 -0.00000000000E+00 -0.70486397857E+03  0.70486397857E+03  0.00000000000E+00 0.  1.
         25    1    1    2    0    0  0.14611190073E+03  0.20021572348E+03 -0.20618919281E+03  0.34579474648E+03  0.12500000000E+03 0.  0.
         21    1    1    2  503  501 -0.14611190073E+03 -0.20021572348E+03 -0.39306002879E+03  0.46468398906E+03  0.00000000000E+00 0.  1.
<mgrwt>
<rscale>  3 0.27759687E+03</rscale>
<asrwt>0</asrwt>
<pdfrwt beam="1">  1       21 0.16248424E-01 0.27759687E+03</pdfrwt>
<pdfrwt beam="2">  1       21 0.10844061E+00 0.27759687E+03</pdfrwt>
<totfact> 0.21907765E+04</totfact>
</mgrwt>
</event>
<event>
 4    0  0.1343513E-001  0.3231999E+03  0.7546771E-02  0.1074186E+00
         21   -1    0    0  503  501  0.00000000000E+00  0.00000000000E+00  0.54330611302E+03  0.54330611302E+03  0.00000000000E+00 0.  1.
         21   -1    0    0  501  502 -0.00000000000E+00 -0.00000000000E+00 -0.28893086380E+03  0.28893086380E+03  0.00000000000E+00 0.  1.
         25    1    1    2    0    0 -0.27480962344E+03 -0.11538117483E+03  0.38853228606E+03  0.50538646791E+03  0.12500000000E+03 0.  0.
         21    1    1    2  503  502  0.27480962344E+03  0.11538117483E+03 -0.13415703684E+03  0.32685050891E+03  0.00000000000E+00 0.  1.
<mgrwt>
<rscale>  3 0.32319985E+03</rscale>
<asrwt>0</asrwt>
<pdfrwt beam="1">  1       21 0.83585556E-01 0.32319985E+03</pdfrwt>
<pdfrwt beam="2">  1       21 0.44450902E-01 0.32319985E+03</pdfrwt>
<totfact> 0.55957432E+03</totfact>
</mgrwt>
</event>
<event>
 4    0  0.1462170E-001  0.3506561E+03  0.7546771E-02  0.1062346E+00
         21   -1    0    0  503  501  0.00000000000E+00  0.00000000000E+00  0.13385668525E+03  0.13385668525E+03  0.00000000000E+00 0. -1.
         21   -1    0    0  501  502 -0.00000000000E+00 -0.00000000000E+00 -0.11176931667E+04  0.11176931667E+04  0.00000000000E+00 0. -1.
         25    1    1    2    0    0  0.14762635945E+03 -0.29247423439E+03 -0.20397562801E+03  0.40566707607E+03  0.12500000000E+03 0.  0.
         21    1    1    2  503  502 -0.14762635945E+03  0.29247423439E+03 -0.77986085346E+03  0.84588277589E+03  0.00000000000E+00 0. -1.
<mgrwt>
<rscale>  3 0.35065613E+03</rscale>
<asrwt>0</asrwt>
<pdfrwt beam="1">  1       21 0.20593337E-01 0.35065613E+03</pdfrwt>
<pdfrwt beam="2">  1       21 0.17195279E+00 0.35065613E+03</pdfrwt>
<totfact> 0.40685801E+03</totfact>
</mgrwt>
</event>
<event>
 4    0  0.1003929E-001  0.2726891E+03  0.7546771E-02  0.1099750E+00
         21   -1    0    0  502  501  0.00000000000E+00  0.00000000000E+00  0.15525770297E+03  0.15525770297E+03  0.00000000000E+00 0. -1.
         21   -1    0    0  503  502 -0.00000000000E+00 -0.00000000000E+00 -0.48366844063E+03  0.48366844063E+03  0.00000000000E+00 0.  1.
         25    1    1    2    0    0 -0.20472092508E+03  0.12970623902E+03 -0.63700067723E+02  0.28003047019E+03  0.12500000000E+03 0.  0.
         21    1    1    2  503  501  0.20472092508E+03 -0.12970623902E+03 -0.26471066994E+03  0.35889567341E+03  0.00000000000E+00 0.  1.
<mgrwt>
<rscale>  3 0.27268914E+03</rscale>
<asrwt>0</asrwt>
<pdfrwt beam="1">  1       21 0.23885801E-01 0.27268914E+03</pdfrwt>
<pdfrwt beam="2">  1       21 0.74410529E-01 0.27268914E+03</pdfrwt>
<totfact> 0.25685387E+04</totfact>
</mgrwt>
</event>
<event>
 4    0  0.1236471E-001  0.2961172E+03  0.7546771E-02  0.1087198E+00
         21   -1    0    0  503  501  0.00000000000E+00  0.00000000000E+00  0.19005796395E+04  0.19005796395E+04  0.00000000000E+00 0. -1.
         21   -1    0    0  501  502 -0.00000000000E+00 -0.00000000000E+00 -0.44035762177E+02  0.44035762177E+02  0.00000000000E+00 0. -1.
         25    1    1    2    0    0 -0.23143394829E+03 -0.13601011518E+03  0.11842367277E+04  0.12206973626E+04  0.12500000000E+03 0.  0.
         21    1    1    2  503  502  0.23143394829E+03  0.13601011518E+03  0.67230714963E+03  0.72391803908E+03  0.00000000000E+00 0. -1.
<mgrwt>
<rscale>  3 0.29611725E+03</rscale>
<asrwt>0</asrwt>
<pdfrwt beam="1">  1       21 0.29239680E+00 0.29611725E+03</pdfrwt>
<pdfrwt beam="2">  1       21 0.67747341E-02 0.29611725E+03</pdfrwt>
<totfact> 0.55024790E+03</totfact>
</mgrwt>
</event>
<event>
 4    0  0.1155173E-001  0.2849260E+03  0.7546771E-02  0.1093028E+00
         21   -1    0    0  503  501  0.00000000000E+00  0.00000000000E+00  0.33728547810E+03  0.33728547810E+03  0.00000000000E+00 0. -1.
         21   -1    0    0  501  502 -0.00000000000E+00 -0.00000000000E+00 -0.29228976232E+03  0.29228976232E+03  0.00000000000E+00 0.  1.
         25    1    1    2    0    0  0.88871497370E+02 -0.24012431347E+03  0.18307583925E+03  0.33867328191E+03  0.12500000000E+03 0.  0.
         21    1    1    2  503  502 -0.88871497370E+02  0.24012431347E+03 -0.13808012348E+03  0.29090195851E+03  0.00000000000E+00 0.  1.
<mgrwt>
<rscale>  3 0.28492601E+03</rscale>
<asrwt>0</asrwt>
<pdfrwt beam="1">  1       21 0.51890073E-01 0.28492601E+03</pdfrwt>
<pdfrwt beam="2">  1       21 0.44967656E-01 0.28492601E+03</pdfrwt>
<totfact> 0.15933273E+04</totfact>
</mgrwt>
</event>
<event>
 4    0  0.1003929E-001  0.2634850E+03  0.7546771E-02  0.1105067E+00
         21   -1    0    0  503  501  0.00000000000E+00  0.00000000000E+00  0.16514089750E+04  0.16514089750E+04  0.00000000000E+00 0. -1.
         21   -1    0    0  501  502 -0.00000000000E+00 -0.00000000000E+00 -0.15646256398E+03  0.15646256398E+03  0.00000000000E+00 0. -1.
         25    1    1    2    0    0 -0.20170521632E+03 -0.11451781347E+03  0.15477275246E+04  0.15699951638E+04  0.12500000000E+03 0.  0.
         21    1    1    2  503  502  0.20170521632E+03  0.11451781347E+03 -0.52781113639E+02  0.23787637514E+03  0.00000000000E+00 0. -1.
<mgrwt>
<rscale>  3 0.26348496E+03</rscale>
<asrwt>0</asrwt>
<pdfrwt beam="1">  1       21 0.25406291E+00 0.26348496E+03</pdfrwt>
<pdfrwt beam="2">  1       21 0.24071165E-01 0.26348496E+03</pdfrwt>
<totfact> 0.94978583E+02</totfact>
</mgrwt>
</event>
<event>
 4    0  0.1252827E-001  0.2950367E+03  0.7546771E-02  0.1087748E+00
         21   -1    0    0  502  501  0.00000000000E+00  0.00000000000E+00  0.16732173121E+03  0.16732173121E+03  0.00000000000E+00 0.  1.
         21   -1    0    0  503  502 -0.00000000000E+00 -0.00000000000E+00 -0.79366546953E+03  0.79366546953E+03  0.00000000000E+00 0. -1.
         25    1    1    2    0    0 -0.66757366306E+02 -0.25877617027E+03 -0.16897514153E+02  0.29552018246E+03  0.12500000000E+03 0.  0.
         21    1    1    2  503  501  0.66757366306E+02  0.25877617027E+03 -0.60944622417E+03  0.66546701828E+03  0.00000000000E+00 0. -1.
<mgrwt>
<rscale>  3 0.29503670E+03</rscale>
<asrwt>0</asrwt>
<pdfrwt beam="1">  1       21 0.25741804E-01 0.29503670E+03</pdfrwt>
<pdfrwt beam="2">  1       21 0.12210238E+00 0.29503670E+03</pdfrwt>
<totfact> 0.67892085E+03</totfact>
</mgrwt>
</event>
<event>
 4    0  0.1702734E-001  0.2484359E+03  0.7546771E-02  0.1114297E+00
         21   -1    0    0  503  501  0.00000000000E+00  0.00000000000E+00  0.31784003136E+03  0.31784003136E+03  0.00000000000E+00 0. -1.
         21   -1    0    0  501  502 -0.00000000000E+00 -0.00000000000E+00 -0.18145478847E+03  0.18145478847E+03  0.00000000000E+00 0. -1.
         25    1    1    2    0    0 -0.27149643716E+02  0.21297491248E+03  0.13880534740E+03  0.28458274889E+03  0.12500000000E+03 0.  0.
         21    1    1    2  503  502  0.27149643716E+02 -0.21297491248E+03 -0.24201045074E+01  0.21471207093E+03  0.00000000000E+00 0. -1.
<mgrwt>
<rscale>  3 0.24843594E+03</rscale>
<asrwt>0</asrwt>
<pdfrwt beam="1">  1       21 0.48898467E-01 0.24843594E+03</pdfrwt>
<pdfrwt beam="2">  1       21 0.27916121E-01 0.24843594E+03</pdfrwt>
<totfact> 0.47694791E+04</totfact>
</mgrwt>
</event>
<event>
 4    0  0.1325675E-001  0.3683848E+03  0.7546771E-02  0.1055312E+00
         21   -1    0    0  503  501  0.00000000000E+00  0.00000000000E+00  0.89998966336E+03  0.89998966336E+03  0.00000000000E+00 0. -1.
         21   -1    0    0  501  502 -0.00000000000E+00 -0.00000000000E+00 -0.14205093243E+03  0.14205093243E+03  0.00000000000E+00 0. -1.
         25    1    1    2    0    0  0.30270023242E+03 -0.16868583206E+03  0.37845453208E+03  0.52814313732E+03  0.12500000000E+03 0.  0.
         21    1    1    2  503  502 -0.30270023242E+03  0.16868583206E+03  0.37948419884E+03  0.51389745846E+03  0.00000000000E+00 0. -1.
<mgrwt>
<rscale>  3 0.36838477E+03</rscale>
<asrwt>0</asrwt>
<pdfrwt beam="1">  1       21 0.13845994E+00 0.36838477E+03</pdfrwt>
<pdfrwt beam="2">  1       21 0.21853990E-01 0.36838477E+03</pdfrwt>
<totfact> 0.65079888E+03</totfact>
</mgrwt>
</event>
<event>
 4    0  0.1521857E-001  0.2618257E+03  0.7546771E-02  0.1106051E+00
         21   -1    0    0  502  501  0.00000000000E+00  0.00000000000E+00  0.29432695286E+03  0.29432695286E+03  0.00000000000E+00 0. -1.
         21   -1    0    0  503  502 -0.00000000000E+00 -0.00000000000E+00 -0.33581075924E+03  0.33581075924E+03  0.00000000000E+00 0. -1.
         25    1    1    2    0    0  0.21890522607E+03 -0.70768550123E+02  0.17444563697E+03  0.31461717363E+03  0.12500000000E+03 0.  0.
         21    1    1    2  503  501 -0.21890522607E+03  0.70768550123E+02 -0.21592944335E+03  0.31552053847E+03  0.00000000000E+00 0. -1.
<mgrwt>
<rscale>  3 0.26182568E+03</rscale>
<asrwt>0</asrwt>
<pdfrwt beam="1">  1       21 0.45281069E-01 0.26182568E+03</pdfrwt>
<pdfrwt beam="2">  1       21 0.51663194E-01 0.26182568E+03</pdfrwt>
<totfact> 0.16020752E+04</totfact>
</mgrwt>
</event>
<event>
 4    0  0.1003929E-001  0.2483785E+03  0.7546771E-02  0.1114334E+00
         21   -1    0    0  503  501  0.00000000000E+00  0.00000000000E+00  0.79933450940E+02  0.79933450940E+02  0.00000000000E+00 0. -1.
         21   -1    0    0  501  502 -0.00000000000E+00 -0.00000000000E+00 -0.68102552517E+03  0.68102552517E+03  0.00000000000E+00 0.  1.
         25    1    1    2    0    0  0.20994882052E+03 -0.44591380028E+02 -0.27491596967E+03  0.37050059216E+03  0.12500000000E+03 0.  0.
         21    1    1    2  503  502 -0.20994882052E+03  0.44591380028E+02 -0.32617610455E+03  0.39045838395E+03  0.00000000000E+00 0.  1.
<mgrwt>
<rscale>  3 0.24837854E+03</rscale>
<asrwt>0</asrwt>
<pdfrwt beam="1">  1       21 0.12297454E-01 0.24837854E+03</pdfrwt>
<pdfrwt beam="2">  1       21 0.10477316E+00 0.24837854E+03</pdfrwt>
<totfact> 0.40123797E+04</totfact>
</mgrwt>
</event>
<event>
 4    0  0.1479605E-001  0.2428342E+03  0.7546771E-02  0.1117919E+00
         21   -1    0    0  502  501  0.00000000000E+00  0.00000000000E+00  0.27127332805E+03  0.27127332805E+03  0.00000000000E+00 0.  1.
         21   -1    0    0  503  502 -0.00000000000E+00 -0.00000000000E+00 -0.24385176173E+03  0.24385176173E+03  0.00000000000E+00 0.  1.
         25    1    1    2    0    0  0.78839661472E+02  0.19268567215E+03  0.13808600028E+03  0.27934960882E+03  0.12500000000E+03 0.  0.
         21    1    1    2  503  501 -0.78839661472E+02 -0.19268567215E+03 -0.11066443396E+03  0.23577548095E+03  0.00000000000E+00 0.  1.
<mgrwt>
<rscale>  3 0.24283422E+03</rscale>
<asrwt>0</asrwt>
<pdfrwt beam="1">  1       21 0.41734358E-01 0.24283422E+03</pdfrwt>
<pdfrwt beam="2">  1       21 0.37515656E-01 0.24283422E+03</pdfrwt>
<totfact> 0.36965189E+04</totfact>
</mgrwt>
</event>
<event>
 4    0  0.1075203E-001  0.2893411E+03  0.7546771E-02  0.1090694E+00
         21   -1    0    0  503  501  0.00000000000E+00  0.00000000000E+00  0.16684891916E+03  0.16684891916E+03  0.00000000000E+00 0. -1.
         21   -1    0    0  501  502 -0.00000000000E+00 -0.00000000000E+00 -0.58520205122E+03  0.58520205122E+03  0.00000000000E+00 0.  1.
         25    1    1    2    0    0 -0.82522337581E+02  0.24755474263E+03 -0.39498402708E+02  0.29202467467E+03  0.12500000000E+03 0.  0.
         21    1    1    2  503  502  0.82522337581E+02 -0.24755474263E+03 -0.37885472935E+03  0.46002629572E+03  0.00000000000E+00 0.  1.
<mgrwt>
<rscale>  3 0.28934113E+03</rscale>
<asrwt>0</asrwt>
<pdfrwt beam="1">  1       21 0.25669064E-01 0.28934113E+03</pdfrwt>
<pdfrwt beam="2">  1       21 0.90031086E-01 0.28934113E+03</pdfrwt>
<totfact> 0.14337988E+04</totfact>
</mgrwt>
</event>
<event>
 4    0  0.1393524E-001  0.2629532E+03  0.7546771E-02  0.1105382E+00
         21   -1    0    0  503  501  0.00000000000E+00  0.00000000000E+00  0.24614966113E+03  0.24614966113E+03  0.00000000000E+00 0.  1.
         21   -1    0    0  501  502 -0.00000000000E+00 -0.00000000000E+00 -0.32720129755E+03  0.32720129755E+03  0.00000000000E+00 0.  1.
         25    1    1    2    0    0  0.90262771577E+02  0.21300708760E+03  0.98198432456E+02  0.28069078973E+03  0.12500000000E+03 0.  0.
         21    1    1    2  503  502 -0.90262771577E+02 -0.21300708760E+03 -0.17925006887E+03  0.29266016895E+03  0.00000000000E+00 0.  1.
<mgrwt>
<rscale>  3 0.26295320E+03</rscale>
<asrwt>0</asrwt>
<pdfrwt beam="1">  1       21 0.37869179E-01 0.26295320E+03</pdfrwt>
<pdfrwt beam="2">  1       21 0.50338661E-01 0.26295320E+03</pdfrwt>
<totfact> 0.24378424E+04</totfact>
</mgrwt>
</event>
<event>
 4    0  0.1003929E-001  0.2924711E+03  0.7546771E-02  0.1089066E+00
         21   -1    0    0  502  501  0.00000000000E+00  0.00000000000E+00  0.10625976507E+03  0.10625976507E+03  0.00000000000E+00 0. -1.
         21   -1    0    0  503  502 -0.00000000000E+00 -0.00000000000E+00 -0.16622110695E+04  0.16622110695E+04  0.00000000000E+00 0. -1.
         25    1    1    2    0    0 -0.51004364115E+02 -0.25944728644E+03 -0.13322907917E+03  0.32138656963E+03  0.12500000000E+03 0.  0.
         21    1    1    2  503  501  0.51004364115E+02  0.25944728644E+03 -0.14227222253E+04  0.14470842649E+04  0.00000000000E+00 0. -1.
<mgrwt>
<rscale>  3 0.29247109E+03</rscale>
<asrwt>0</asrwt>
<pdfrwt beam="1">  1       21 0.16347657E-01 0.29247109E+03</pdfrwt>
<pdfrwt beam="2">  1       21 0.25572476E+00 0.29247109E+03</pdfrwt>
<totfact> 0.18772769E+03</totfact>
</mgrwt>
</event>
<event>
 4    0  0.1084509E-001  0.7008848E+03  0.7546771E-02  0.9715720E-01
         21   -1    0    0  503  501  0.00000000000E+00  0.00000000000E+00  0.90031536159E+03  0.90031536159E+03  0.00000000000E+00 0.  1.
         21   -1    0    0  501  502 -0.00000000000E+00 -0.00000000000E+00 -0.60067500295E+03  0.60067500295E+03  0.00000000000E+00 0.  1.
         25    1    1    2    0    0 -0.21305937805E+03 -0.65591174759E+03  0.39540280250E+03  0.80472535403E+03  0.12500000000E+03 0.  0.
         21    1    1    2  503  502  0.21305937805E+03  0.65591174759E+03 -0.95762443862E+02  0.69626501050E+03  0.00000000000E+00 0.  1.
<mgrwt>
<rscale>  3 0.70088481E+03</rscale>
<asrwt>0</asrwt>
<pdfrwt beam="1">  1       21 0.13851006E+00 0.70088481E+03</pdfrwt>
<pdfrwt beam="2">  1       21 0.92411539E-01 0.70088481E+03</pdfrwt>
<totfact> 0.27255493E+02</totfact>
</mgrwt>
</event>
<event>
 4    0  0.1432632E-001  0.3152096E+03  0.7546771E-02  0.1077875E+00
         21   -1    0    0  503  501  0.00000000000E+00  0.00000000000E+00  0.77736556549E+03  0.77736556549E+03  0.00000000000E+00 0.  1.
         21   -1    0    0  501  502 -0.00000000000E+00 -0.00000000000E+00 -0.13269934558E+03  0.13269934558E+03  0.00000000000E+00 0.  1.
         25    1    1    2    0    0 -0.28936458883E+03 -0.49431410847E+00  0.48817201549E+03  0.58109295842E+03  0.12500000000E+03 0.  0.
         21    1    1    2  503  502  0.28936458883E+03  0.49431410847E+00  0.15649420442E+03  0.32897195266E+03  0.00000000000E+00 0.  1.
<mgrwt>
<rscale>  3 0.31520963E+03</rscale>
<asrwt>0</asrwt>
<pdfrwt beam="1">  1       21 0.11959470E+00 0.31520963E+03</pdfrwt>
<pdfrwt beam="2">  1       21 0.20415284E-01 0.31520963E+03</pdfrwt>
<totfact> 0.11040450E+04</totfact>
</mgrwt>
</event>
<event>
 4    0  0.1003929E-001  0.3546295E+03  0.7546771E-02  0.1060731E+00
         21   -1    0    0  502  501  0.00000000000E+00  0.00000000000E+00  0.54590220183E+03  0.54590220183E+03  0.00000000000E+00 0.  1.
         21   -1    0    0  503  502 -0.00000000000E+00 -0.00000000000E+00 -0.10733960622E+04  0.10733960622E+04  0.00000000000E+00 0.  1.
         25    1    1    2    0    0  0.30179460406E+03 -0.13804743451E+03  0.45810321893E+03  0.57932774524E+03  0.12500000000E+03 0.  0.
         21    1    1    2  503  501 -0.30179460406E+03  0.13804743451E+03 -0.98559707927E+03  0.10399705188E+04  0.00000000000E+00 0.  1.
<mgrwt>
<rscale>  3 0.35462949E+03</rscale>
<asrwt>0</asrwt>
<pdfrwt beam="1">  1       21 0.83984954E-01 0.35462949E+03</pdfrwt>
<pdfrwt beam="2">  1       21 0.16513786E+00 0.35462949E+03</pdfrwt>
<totfact> 0.24573022E+02</totfact>
</mgrwt>
</event>
<event>
 4    0  0.1003929E-001  0.2368109E+03  0.7546771E-02  0.1121936E+00
         21   -1    0    0  503  501  0.00000000000E+00  0.00000000000E+00  0.14787194670E+04  0.14787194670E+04  0.00000000000E+00 0.  1.
         21   -1    0    0  501  502 -0.00000000000E+00 -0.00000000000E+00 -0.32714541776E+02  0.32714541776E+02  0.00000000000E+00 0.  1.
         25    1    1    2    0    0 -0.25263380380E+02  0.19953984332E+03  0.85214786545E+03  0.88444071144E+03  0.12500000000E+03 0.  0.
         21    1    1    2  503  502  0.25263380380E+02 -0.19953984332E+03  0.59385705976E+03  0.62699329733E+03  0.00000000000E+00 0.  1.
<mgrwt>
<rscale>  3 0.23681087E+03</rscale>
<asrwt>0</asrwt>
<pdfrwt beam="1">  1       21 0.22749525E+00 0.23681087E+03</pdfrwt>
<pdfrwt beam="2">  1       21 0.50330076E-02 0.23681087E+03</pdfrwt>
<totfact> 0.23308370E+04</totfact>
</mgrwt>
</event>
<event>
 4    0  0.1563463E-001  0.3308543E+03  0.7546771E-02  0.1070760E+00
         21   -1    0    0  502  501  0.00000000000E+00  0.00000000000E+00  0.38247702446E+03  0.38247702446E+03  0.00000000000E+00 0.  1.
         21   -1    0    0  503  502 -0.00000000000E+00 -0.00000000000E+00 -0.28025366907E+03  0.28025366907E+03  0.00000000000E+00 0.  1.
         25    1    1    2    0    0 -0.30258149456E+03  0.47791111707E+02  0.12925890907E+03  0.35520756859E+03  0.12500000000E+03 0.  0.
         21    1    1    2  503  501  0.30258149456E+03 -0.47791111707E+02 -0.27035553673E+02  0.30752312494E+03  0.00000000000E+00 0.  1.
<mgrwt>
<rscale>  3 0.33085427E+03</rscale>
<asrwt>0</asrwt>
<pdfrwt beam="1">  1       21 0.58842619E-01 0.33085427E+03</pdfrwt>
<pdfrwt beam="2">  1       21 0.43115949E-01 0.33085427E+03</pdfrwt>
<totfact> 0.13029275E+04</totfact>
</mgrwt>
</event>
<event>
 4    0  0.1333366E-001  0.2379970E+03  0.7546771E-02  0.1121134E+00
         21   -1    0    0  503  501  0.00000000000E+00  0.00000000000E+00  0.89851363126E+02  0.89851363126E+02  0.00000000000E+00 0. -1.
         21   -1    0    0  501  502 -0.00000000000E+00 -0.00000000000E+00 -0.54411988551E+03  0.54411988551E+03  0.00000000000E+00 0. -1.
         25    1    1    2    0    0  0.16303752205E+03 -0.12015123012E+03 -0.27293120158E+03  0.36212427769E+03  0.12500000000E+03 0.  0.
         21    1    1    2  503  502 -0.16303752205E+03  0.12015123012E+03 -0.18133732081E+03  0.27184697095E+03  0.00000000000E+00 0. -1.
<mgrwt>
<rscale>  3 0.23799696E+03</rscale>
<asrwt>0</asrwt>
<pdfrwt beam="1">  1       21 0.13823286E-01 0.23799696E+03</pdfrwt>
<pdfrwt beam="2">  1       21 0.83710753E-01 0.23799696E+03</pdfrwt>
<totfact> 0.55294188E+04</totfact>
</mgrwt>
</event>
<event>
 4    0  0.1332051E-001  0.3258448E+03  0.7546771E-02  0.1072990E+00
         21   -1    0    0  502  501  0.00000000000E+00  0.00000000000E+00  0.38627003506E+03  0.38627003506E+03  0.00000000000E+00 0.  1.
         21   -1    0    0  503  502 -0.00000000000E+00 -0.00000000000E+00 -0.34469340828E+03  0.34469340828E+03  0.00000000000E+00 0.  1.
         25    1    1    2    0    0  0.96075271786E+02  0.28516551930E+03  0.20850853308E+03  0.38684704938E+03  0.12500000000E+03 0.  0.
         21    1    1    2  503  501 -0.96075271786E+02 -0.28516551930E+03 -0.16693190630E+03  0.34411639395E+03  0.00000000000E+00 0.  1.
<mgrwt>
<rscale>  3 0.32584480E+03</rscale>
<asrwt>0</asrwt>
<pdfrwt beam="1">  1       21 0.59426160E-01 0.32584480E+03</pdfrwt>
<pdfrwt beam="2">  1       21 0.53029755E-01 0.32584480E+03</pdfrwt>
<totfact> 0.82770150E+03</totfact>
</mgrwt>
</event>
<event>
 4    0  0.1488649E-001  0.3171976E+03  0.7546771E-02  0.1076946E+00
         21   -1    0    0  502  501  0.00000000000E+00  0.00000000000E+00  0.50929251037E+03  0.50929251037E+03  0.00000000000E+00 0.  1.
         21   -1    0    0  503  502 -0.00000000000E+00 -0.00000000000E+00 -0.18549885841E+03  0.18549885841E+03  0.00000000000E+00 0.  1.
         25    1    1    2    0    0 -0.16205633553E+03  0.24233673454E+03  0.21697837143E+03  0.38430972205E+03  0.12500000000E+03 0.  0.
         21    1    1    2  503  501  0.16205633553E+03 -0.24233673454E+03  0.10681528053E+03  0.31048164672E+03  0.00000000000E+00 0.  1.
<mgrwt>
<rscale>  3 0.31719765E+03</rscale>
<asrwt>0</asrwt>
<pdfrwt beam="1">  1       21 0.78352693E-01 0.31719765E+03</pdfrwt>
<pdfrwt beam="2">  1       21 0.28538286E-01 0.31719765E+03</pdfrwt>
<totfact> 0.15894733E+04</totfact>
</mgrwt>
</event>
<event>
 4    0  0.1003929E-001  0.2864494E+03  0.7546771E-02  0.1092218E+00
         21   -1    0    0  503  501  0.00000000000E+00  0.00000000000E+00  0.24629037345E+04  0.24629037345E+04  0.00000000000E+00 0. -1.
         21   -1    0    0  501  502 -0.00000000000E+00 -0.00000000000E+00 -0.31449160371E+02  0.31449160371E+02  0.00000000000E+00 0. -1.
         25    1    1    2    0    0  0.11747029815E+02 -0.25746894744E+03  0.15388182488E+04  0.15652523294E+04  0.12500000000E+03 0.  0.
         21    1    1    2  503  502 -0.11747029815E+02  0.25746894744E+03  0.89263632528E+03  0.92910056550E+03  0.00000000000E+00 0. -1.
<mgrwt>
<rscale>  3 0.28644939E+03</rscale>
<asrwt>0</asrwt>
<pdfrwt beam="1">  1       21 0.37890812E+00 0.28644939E+03</pdfrwt>
<pdfrwt beam="2">  1       21 0.48383343E-02 0.28644939E+03</pdfrwt>
<totfact> 0.30055960E+03</totfact>
</mgrwt>
</event>
<event>
 4    0  0.1452775E-001  0.2687191E+03  0.7546771E-02  0.1102015E+00
         21   -1    0    0  503  501  0.00000000000E+00  0.00000000000E+00  0.15659569059E+03  0.15659569059E+03  0.00000000000E+00 0.  1.
         21   -1    0    0  501  502 -0.00000000000E+00 -0.00000000000E+00 -0.40971513336E+03  0.40971513336E+03  0.00000000000E+00 0.  1.
         25    1    1    2    0    0 -0.17965748264E+03 -0.15591065914E+03 -0.13434383188E+03  0.30043004155E+03  0.12500000000E+03 0.  0.
         21    1    1    2  503  502  0.17965748264E+03  0.15591065914E+03 -0.11877561089E+03  0.26588078239E+03  0.00000000000E+00 0.  1.
<mgrwt>
<rscale>  3 0.26871908E+03</rscale>
<asrwt>0</asrwt>
<pdfrwt beam="1">  1       21 0.24091645E-01 0.26871908E+03</pdfrwt>
<pdfrwt beam="2">  1       21 0.63033096E-01 0.26871908E+03</pdfrwt>
<totfact> 0.36555597E+04</totfact>
</mgrwt>
</event>
<event>
 4    0  0.1003929E-001  0.5323894E+03  0.7546771E-02  0.1005654E+00
         21   -1    0    0  502  501  0.00000000000E+00  0.00000000000E+00  0.26426684778E+03  0.26426684778E+03  0.00000000000E+00 0. -1.
         21   -1    0    0  503  502 -0.00000000000E+00 -0.00000000000E+00 -0.10628162992E+04  0.10628162992E+04  0.00000000000E+00 0.  1.
         25    1    1    2    0    0  0.38076475851E+03 -0.35047353206E+03 -0.31371718494E+03  0.61794576633E+03  0.12500000000E+03 0.  0.
         21    1    1    2  503  501 -0.38076475851E+03  0.35047353206E+03 -0.48483226646E+03  0.70913738062E+03  0.00000000000E+00 0.  1.
<mgrwt>
<rscale>  3 0.53238942E+03</rscale>
<asrwt>0</asrwt>
<pdfrwt beam="1">  1       21 0.40656438E-01 0.53238942E+03</pdfrwt>
<pdfrwt beam="2">  1       21 0.16351020E+00 0.53238942E+03</pdfrwt>
<totfact> 0.11315319E+03</totfact>
</mgrwt>
</event>
<event>
 4    0  0.1413722E-001  0.2500243E+03  0.7546771E-02  0.1113289E+00
         21   -1    0    0  503  501  0.00000000000E+00  0.00000000000E+00  0.57667646105E+03  0.57667646105E+03  0.00000000000E+00 0. -1.
         21   -1    0    0  501  502 -0.00000000000E+00 -0.00000000000E+00 -0.10207206565E+03  0.10207206565E+03  0.00000000000E+00 0. -1.
         25    1    1    2    0    0 -0.81775681464E+02 -0.20049913542E+03  0.34606972325E+03  0.42693842499E+03  0.12500000000E+03 0.  0.
         21    1    1    2  503  502  0.81775681464E+02  0.20049913542E+03  0.12853467214E+03  0.25181010171E+03  0.00000000000E+00 0. -1.
<mgrwt>
<rscale>  3 0.25002433E+03</rscale>
<asrwt>0</asrwt>
<pdfrwt beam="1">  1       21 0.88719453E-01 0.25002433E+03</pdfrwt>
<pdfrwt beam="2">  1       21 0.15703395E-01 0.25002433E+03</pdfrwt>
<totfact> 0.38100633E+04</totfact>
</mgrwt>
</event>
<event>
 4    0  0.1080529E-001  0.3696497E+03  0.7546771E-02  0.1054827E+00
         21   -1    0    0  503  501  0.00000000000E+00  0.00000000000E+00  0.13460496478E+04  0.13460496478E+04  0.00000000000E+00 0. -1.
         21   -1    0    0  501  502 -0.00000000000E+00 -0.00000000000E+00 -0.17300954917E+03  0.17300954917E+03  0.00000000000E+00 0. -1.
         25    1    1    2    0    0 -0.34785593763E+03  0.34834880423E+01  0.11042123825E+04  0.11644423015E+04  0.12500000000E+03 0.  0.
         21    1    1    2  503  502  0.34785593763E+03 -0.34834880423E+01  0.68827716198E+02  0.35461689546E+03  0.00000000000E+00 0. -1.
<mgrwt>
<rscale>  3 0.36964968E+03</rscale>
<asrwt>0</asrwt>
<pdfrwt beam="1">  1       21 0.20708455E+00 0.36964968E+03</pdfrwt>
<pdfrwt beam="2">  1       21 0.26616855E-01 0.36964968E+03</pdfrwt>
<totfact> 0.14178733E+03</totfact>
</mgrwt>
</event>
<event>
 4    0  0.1251983E-001  0.4615779E+03  0.7546771E-02  0.1024325E+00
         21   -1    0    0  503  501  0.00000000000E+00  0.00000000000E+00  0.82286099691E+03  0.82286099691E+03  0.00000000000E+00 0. -1.
         21   -1    0    0  501  502 -0.00000000000E+00 -0.00000000000E+00 -0.37733256929E+03  0.37733256929E+03  0.00000000000E+00 0.  1.
         25    1    1    2    0    0  0.44383196982E+03 -0.21031863944E+02  0.57503650322E+03  0.73737448883E+03  0.12500000000E+03 0.  0.
         21    1    1    2  503  502 -0.44383196982E+03  0.21031863944E+02 -0.12950807559E+03  0.46281907737E+03  0.00000000000E+00 0.  1.
<mgrwt>
<rscale>  3 0.46157790E+03</rscale>
<asrwt>0</asrwt>
<pdfrwt beam="1">  1       21 0.12659400E+00 0.46157790E+03</pdfrwt>
<pdfrwt beam="2">  1       21 0.58051165E-01 0.46157790E+03</pdfrwt>
<totfact> 0.10865619E+03</totfact>
</mgrwt>
</event>
<event>
 4    0  0.1492600E-001  0.2515046E+03  0.7546771E-02  0.1112358E+00
         21   -1    0    0  503  501  0.00000000000E+00  0.00000000000E+00  0.29308536734E+03  0.29308536734E+03  0.00000000000E+00 0.  1.
         21   -1    0    0  501  502 -0.00000000000E+00 -0.00000000000E+00 -0.24718936891E+03  0.24718936891E+03  0.00000000000E+00 0.  1.
         25    1    1    2    0    0 -0.21316858588E+03 -0.46783987188E+02  0.15587153114E+03  0.29588937406E+03  0.12500000000E+03 0.  0.
         21    1    1    2  503  502  0.21316858588E+03  0.46783987188E+02 -0.10997553270E+03  0.24438536220E+03  0.00000000000E+00 0.  1.
<mgrwt>
<rscale>  3 0.25150465E+03</rscale>
<asrwt>0</asrwt>
<pdfrwt beam="1">  1       21 0.45090056E-01 0.25150465E+03</pdfrwt>
<pdfrwt beam="2">  1       21 0.38029134E-01 0.25150465E+03</pdfrwt>
<totfact> 0.30563811E+04</totfact>
</mgrwt>
</event>
<event>
 4    0  0.1391971E-001  0.3074592E+03  0.7546771E-02  0.1081570E+00
         21   -1    0    0  502  501  0.00000000000E+00  0.00000000000E+00  0.65726329533E+03  0.65726329533E+03  0.00000000000E+00 0. -1.
         21   -1    0    0  503  502 -0.00000000000E+00 -0.00000000000E+00 -0.13618994255E+03  0.13618994255E+03  0.00000000000E+00 0. -1.
         25    1    1    2    0    0 -0.20144589669E+03  0.19576951062E+03  0.19970873506E+03  0.36662614397E+03  0.12500000000E+03 0.  0.
         21    1    1    2  503  501  0.20144589669E+03 -0.19576951062E+03  0.32136461771E+03  0.42682709391E+03  0.00000000000E+00 0. -1.
<mgrwt>
<rscale>  3 0.30745919E+03</rscale>
<asrwt>0</asrwt>
<pdfrwt beam="1">  1       21 0.10111743E+00 0.30745919E+03</pdfrwt>
<pdfrwt beam="2">  1       21 0.20952299E-01 0.30745919E+03</pdfrwt>
<totfact> 0.15927487E+04</totfact>
</mgrwt>
</event>
<event>
 4    0  0.1365297E-001  0.2637125E+03  0.7546771E-02  0.1104933E+00
         21   -1    0    0  503  501  0.00000000000E+00  0.00000000000E+00  0.69295226718E+03  0.69295226718E+03  0.00000000000E+00 0.  1.
         21   -1    0    0  501  502 -0.00000000000E+00 -0.00000000000E+00 -0.99890145892E+02  0.99890145892E+02  0.00000000000E+00 0.  1.
         25    1    1    2    0    0 -0.44547020504E+02 -0.22789223144E+03  0.44554925508E+03  0.51774360922E+03  0.12500000000E+03 0.  0.
         21    1    1    2  503  502  0.44547020504E+02  0.22789223144E+03  0.14751286621E+03  0.27509880385E+03  0.00000000000E+00 0.  1.
<mgrwt>
<rscale>  3 0.26371254E+03</rscale>
<asrwt>0</asrwt>
<pdfrwt beam="1">  1       21 0.10660804E+00 0.26371254E+03</pdfrwt>
<pdfrwt beam="2">  1       21 0.15367715E-01 0.26371254E+03</pdfrwt>
<totfact> 0.25465783E+04</totfact>
</mgrwt>
</event>
<event>
 4    0  0.1003929E-001  0.2450855E+03  0.7546771E-02  0.1116451E+00
         21   -1    0    0  502  501  0.00000000000E+00  0.00000000000E+00  0.43882948800E+02  0.43882948800E+02  0.00000000000E+00 0.  1.
         21   -1    0    0  503  502 -0.00000000000E+00 -0.00000000000E+00 -0.12358178751E+04  0.12358178751E+04  0.00000000000E+00 0. -1.
         25    1    1    2    0    0 -0.16307414787E+03 -0.13359920245E+03 -0.50832520641E+03  0.56432387870E+03  0.12500000000E+03 0.  0.
         21    1    1    2  503  501  0.16307414787E+03  0.13359920245E+03 -0.68360971992E+03  0.71537694523E+03  0.00000000000E+00 0. -1.
<mgrwt>
<rscale>  3 0.24508555E+03</rscale>
<asrwt>0</asrwt>
<pdfrwt beam="1">  1       21 0.67512242E-02 0.24508555E+03</pdfrwt>
<pdfrwt beam="2">  1       21 0.19012579E+00 0.24508555E+03</pdfrwt>
<totfact> 0.24215795E+04</totfact>
</mgrwt>
</event>
<event>
 4    0  0.1003929E-001  0.3299993E+03  0.7546771E-02  0.1071137E+00
         21   -1    0    0  502  501  0.00000000000E+00  0.00000000000E+00  0.26028067837E+03  0.26028067837E+03  0.00000000000E+00 0.  1.
         21   -1    0    0  503  502 -0.00000000000E+00 -0.00000000000E+00 -0.39911411805E+03  0.39911411805E+03  0.00000000000E+00 0. -1.
         25    1    1    2    0    0  0.35759080466E+02 -0.30330814725E+03 -0.16547420791E+02  0.33041392397E+03  0.12500000000E+03 0.  0.
         21    1    1    2  503  501 -0.35759080466E+02  0.30330814725E+03 -0.12228601889E+03  0.32898087245E+03  0.00000000000E+00 0. -1.
<mgrwt>
<rscale>  3 0.32999931E+03</rscale>
<asrwt>0</asrwt>
<pdfrwt beam="1">  1       21 0.40043181E-01 0.32999931E+03</pdfrwt>
<pdfrwt beam="2">  1       21 0.61402172E-01 0.32999931E+03</pdfrwt>
<totfact> 0.13831659E+04</totfact>
</mgrwt>
</event>
<event>
 4    0  0.1503858E-001  0.2463463E+03  0.7546771E-02  0.1115636E+00
         21   -1    0    0  503  501  0.00000000000E+00  0.00000000000E+00  0.20054073149E+03  0.20054073149E+03  0.00000000000E+00 0. -1.
         21   -1    0    0  501  502 -0.00000000000E+00 -0.00000000000E+00 -0.32821253914E+03  0.32821253914E+03  0.00000000000E+00 0. -1.
         25    1    1    2    0    0  0.20180529318E+03  0.65849282067E+02  0.50670413800E+02  0.25150346944E+03  0.12500000000E+03 0.  0.
         21    1    1    2  503  502 -0.20180529318E+03 -0.65849282067E+02 -0.17834222145E+03  0.27724980118E+03  0.00000000000E+00 0. -1.
<mgrwt>
<rscale>  3 0.24634631E+03</rscale>
<asrwt>0</asrwt>
<pdfrwt beam="1">  1       21 0.30852420E-01 0.24634631E+03</pdfrwt>
<pdfrwt beam="2">  1       21 0.50494237E-01 0.24634631E+03</pdfrwt>
<totfact> 0.36699665E+04</totfact>
</mgrwt>
</event>
<event>
 4    0  0.1061906E-001  0.6130853E+03  0.7546771E-02  0.9878624E-01
         21   -1    0    0  503  501  0.00000000000E+00  0.00000000000E+00  0.13711197298E+04  0.13711197298E+04  0.00000000000E+00 0.  1.
         21   -1    0    0  501  502 -0.00000000000E+00 -0.00000000000E+00 -0.43542017338E+03  0.43542017338E+03  0.00000000000E+00 0. -1.
         25    1    1    2    0    0  0.23635529813E+03  0.55171079105E+03  0.10303104771E+04  0.11989217252E+04  0.12500000000E+03 0.  0.
         21    1    1    2  503  502 -0.23635529813E+03 -0.55171079105E+03 -0.94610920671E+02  0.60761817799E+03  0.00000000000E+00 0. -1.
<mgrwt>
<rscale>  3 0.61308533E+03</rscale>
<asrwt>0</asrwt>
<pdfrwt beam="1">  1       21 0.21094150E+00 0.61308533E+03</pdfrwt>
<pdfrwt beam="2">  1       21 0.66987719E-01 0.61308533E+03</pdfrwt>
<totfact> 0.17437720E+02</totfact>
</mgrwt>
</event>
<event>
 4    0  0.1337802E-001  0.2453136E+03  0.7546771E-02  0.1116303E+00
         21   -1    0    0  503  501  0.00000000000E+00  0.00000000000E+00  0.81128601611E+03  0.81128601611E+03  0.00000000000E+00 0.  1.
         21   -1    0    0  501  502 -0.00000000000E+00 -0.00000000000E+00 -0.91684981302E+02  0.91684981302E+02  0.00000000000E+00 0.  1.
         25    1    1    2    0    0 -0.39278110557E+01 -0.21104107520E+03  0.62546745282E+03  0.67185437236E+03  0.12500000000E+03 0.  0.
         21    1    1    2  503  502  0.39278110557E+01  0.21104107520E+03  0.94133581991E+02  0.23111662506E+03  0.00000000000E+00 0.  1.
<mgrwt>
<rscale>  3 0.24531360E+03</rscale>
<asrwt>0</asrwt>
<pdfrwt beam="1">  1       21 0.12481323E+00 0.24531360E+03</pdfrwt>
<pdfrwt beam="2">  1       21 0.14105382E-01 0.24531360E+03</pdfrwt>
<totfact> 0.20362590E+04</totfact>
</mgrwt>
</event>
<event>
 4    0  0.1151330E-001  0.3119014E+03  0.7546771E-02  0.1079438E+00
         21   -1    0    0  503  501  0.00000000000E+00  0.00000000000E+00  0.16815580206E+03  0.16815580206E+03  0.00000000000E+00 0. -1.
         21   -1    0    0  501  502 -0.00000000000E+00 -0.00000000000E+00 -0.10217176248E+04  0.10217176248E+04  0.00000000000E+00 0. -1.
         25    1    1    2    0    0  0.21699452590E+03  0.18593242454E+03 -0.24402876058E+02  0.31285458463E+03  0.12500000000E+03 0.  0.
         21    1    1    2  503  502 -0.21699452590E+03 -0.18593242454E+03 -0.82915894666E+03  0.87701884221E+03  0.00000000000E+00 0. -1.
<mgrwt>
<rscale>  3 0.31190141E+03</rscale>
<asrwt>0</asrwt>
<pdfrwt beam="1">  1       21 0.25870122E-01 0.31190141E+03</pdfrwt>
<pdfrwt beam="2">  1       21 0.15718733E+00 0.31190141E+03</pdfrwt>
<totfact> 0.34413747E+03</totfact>
</mgrwt>
</event>
<event>
 4    0  0.1114330E-001  0.2908062E+03  0.7546771E-02  0.1089929E+00
         21   -1    0    0  502  501  0.00000000000E+00  0.00000000000E+00  0.72862542021E+03  0.72862542021E+03  0.00000000000E+00 0.  1.
         21   -1    0    0  503  502 -0.00000000000E+00 -0.00000000000E+00 -0.19984644899E+03  0.19984644899E+03  0.00000000000E+00 0.  1.
         25    1    1    2    0    0  0.25999497813E+03  0.36685726705E+02  0.59096238309E+03  0.65863857268E+03  0.12500000000E+03 0.  0.
         21    1    1    2  503  501 -0.25999497813E+03 -0.36685726705E+02 -0.62183411863E+02  0.26983329652E+03  0.00000000000E+00 0.  1.
<mgrwt>
<rscale>  3 0.29080617E+03</rscale>
<asrwt>0</asrwt>
<pdfrwt beam="1">  1       21 0.11209622E+00 0.29080617E+03</pdfrwt>
<pdfrwt beam="2">  1       21 0.30745608E-01 0.29080617E+03</pdfrwt>
<totfact> 0.59483406E+03</totfact>
</mgrwt>
</event>
<event>
 4    0  0.1469061E-001  0.2482129E+03  0.7546771E-02  0.1114439E+00
         21   -1    0    0  503  501  0.00000000000E+00  0.00000000000E+00  0.10176858019E+03  0.10176858019E+03  0.00000000000E+00 0.  1.
         21   -1    0    0  501  502 -0.00000000000E+00 -0.00000000000E+00 -0.54305724486E+03  0.54305724486E+03  0.00000000000E+00 0.  1.
         25    1    1    2    0    0 -0.21293585292E+03  0.25356567720E+02 -0.17894730068E+03  0.30599308719E+03  0.12500000000E+03 0.  0.
         21    1    1    2  503  502  0.21293585292E+03 -0.25356567720E+02 -0.26234136400E+03  0.33883273787E+03  0.00000000000E+00 0.  1.
<mgrwt>
<rscale>  3 0.24821288E+03</rscale>
<asrwt>0</asrwt>
<pdfrwt beam="1">  1       21 0.15656705E-01 0.24821288E+03</pdfrwt>
<pdfrwt beam="2">  1       21 0.83547268E-01 0.24821288E+03</pdfrwt>
<totfact> 0.44046217E+04</totfact>
</mgrwt>
</event>
<event>
 4    0  0.1479687E-001  0.2393350E+03  0.7546771E-02  0.1120237E+00
         21   -1    0    0  503  501  0.00000000000E+00  0.00000000000E+00  0.57365268731E+03  0.57365268731E+03  0.00000000000E+00 0. -1.
         21   -1    0    0  501  502 -0.00000000000E+00 -0.00000000000E+00 -0.86993958991E+02  0.86993958991E+02  0.00000000000E+00 0. -1.
         25    1    1    2    0    0 -0.19301737728E+03 -0.66336509506E+02  0.30263636172E+03  0.38583676323E+03  0.12500000000E+03 0.  0.
         21    1    1    2  503  502  0.19301737728E+03  0.66336509506E+02  0.18402236660E+03  0.27480988307E+03  0.00000000000E+00 0. -1.
<mgrwt>
<rscale>  3 0.23933500E+03</rscale>
<asrwt>0</asrwt>
<pdfrwt beam="1">  1       21 0.88254257E-01 0.23933500E+03</pdfrwt>
<pdfrwt beam="2">  1       21 0.13383686E-01 0.23933500E+03</pdfrwt>
<totfact> 0.51877098E+04</totfact>
</mgrwt>
</event>
<event>
 4    0  0.1003929E-001  0.2386759E+03  0.7546771E-02  0.1120678E+00
         21   -1    0    0  502  501  0.00000000000E+00  0.00000000000E+00  0.73621945796E+03  0.73621945796E+03  0.00000000000E+00 0.  1.
         21   -1    0    0  503  502 -0.00000000000E+00 -0.00000000000E+00 -0.79487840688E+03  0.79487840688E+03  0.00000000000E+00 0.  1.
         25    1    1    2    0    0 -0.20125790038E+03  0.28921412968E+02  0.70318570132E+03  0.74258758483E+03  0.12500000000E+03 0.  0.
         21    1    1    2  503  501  0.20125790038E+03 -0.28921412968E+02 -0.76184465024E+03  0.78851028002E+03  0.00000000000E+00 0.  1.
<mgrwt>
<rscale>  3 0.23867591E+03</rscale>
<asrwt>0</asrwt>
<pdfrwt beam="1">  1       21 0.11326453E+00 0.23867591E+03</pdfrwt>
<pdfrwt beam="2">  1       21 0.12228899E+00 0.23867591E+03</pdfrwt>
<totfact> 0.29145370E+02</totfact>
</mgrwt>
</event>
<event>
 4    0  0.1020598E-001  0.3081518E+03  0.7546771E-02  0.1081235E+00
         21   -1    0    0  503  501  0.00000000000E+00  0.00000000000E+00  0.31017624375E+03  0.31017624375E+03  0.00000000000E+00 0.  1.
         21   -1    0    0  501  502 -0.00000000000E+00 -0.00000000000E+00 -0.35283215874E+03  0.35283215874E+03  0.00000000000E+00 0. -1.
         25    1    1    2    0    0  0.22410634576E+03 -0.17061329335E+03  0.12800334569E+03  0.33368009618E+03  0.12500000000E+03 0.  0.
         21    1    1    2  503  502 -0.22410634576E+03  0.17061329335E+03 -0.17065926068E+03  0.32932830631E+03  0.00000000000E+00 0. -1.
<mgrwt>
<rscale>  3 0.30815183E+03</rscale>
<asrwt>0</asrwt>
<pdfrwt beam="1">  1       21 0.47719422E-01 0.30815183E+03</pdfrwt>
<pdfrwt beam="2">  1       21 0.54281870E-01 0.30815183E+03</pdfrwt>
<totfact> 0.12665619E+04</totfact>
</mgrwt>
</event>
<event>
 4    0  0.1003929E-001  0.2663577E+03  0.7546771E-02  0.1103382E+00
         21   -1    0    0  502  501  0.00000000000E+00  0.00000000000E+00  0.33527527161E+02  0.33527527161E+02  0.00000000000E+00 0.  1.
         21   -1    0    0  503  502 -0.00000000000E+00 -0.00000000000E+00 -0.18948417565E+04  0.18948417565E+04  0.00000000000E+00 0.  1.
         25    1    1    2    0    0  0.22999293727E+03 -0.49240844421E+02 -0.89143663456E+03  0.93037932339E+03  0.12500000000E+03 0.  0.
         21    1    1    2  503  501 -0.22999293727E+03  0.49240844421E+02 -0.96987759481E+03  0.99798996030E+03  0.00000000000E+00 0.  1.
<mgrwt>
<rscale>  3 0.26635768E+03</rscale>
<asrwt>0</asrwt>
<pdfrwt beam="1">  1       21 0.51580798E-02 0.26635768E+03</pdfrwt>
<pdfrwt beam="2">  1       21 0.29151419E+00 0.26635768E+03</pdfrwt>
<totfact> 0.91125531E+03</totfact>
</mgrwt>
</event>
<event>
 4    0  0.2029323E-001  0.2420299E+03  0.7546771E-02  0.1118448E+00
         21   -1    0    0  503  501  0.00000000000E+00  0.00000000000E+00  0.69696076825E+03  0.69696076825E+03  0.00000000000E+00 0. -1.
         21   -1    0    0  501  502 -0.00000000000E+00 -0.00000000000E+00 -0.31347410089E+03  0.31347410089E+03  0.00000000000E+00 0.  1.
         25    1    1    2    0    0 -0.40680873938E+02 -0.20322044166E+03  0.63791009836E+03  0.68228130195E+03  0.12500000000E+03 0.  0.
         21    1    1    2  503  502  0.40680873938E+02  0.20322044166E+03 -0.25442343100E+03  0.32815356718E+03  0.00000000000E+00 0.  1.
<mgrwt>
<rscale>  3 0.24202992E+03</rscale>
<asrwt>0</asrwt>
<pdfrwt beam="1">  1       21 0.10722473E+00 0.24202992E+03</pdfrwt>
<pdfrwt beam="2">  1       21 0.48226785E-01 0.24202992E+03</pdfrwt>
<totfact> 0.27430237E+03</totfact>
</mgrwt>
</event>
<event>
 4    0  0.1706065E-001  0.4399616E+03  0.7546771E-02  0.1030759E+00
         21   -1    0    0  502  501  0.00000000000E+00  0.00000000000E+00  0.31612655302E+03  0.31612655302E+03  0.00000000000E+00 0. -1.
         21   -1    0    0  503  502 -0.00000000000E+00 -0.00000000000E+00 -0.60273435236E+03  0.60273435236E+03  0.00000000000E+00 0. -1.
         25    1    1    2    0    0  0.35431067562E+03 -0.22892178081E+03 -0.72816982674E+02  0.44594680126E+03  0.12500000000E+03 0.  0.
         21    1    1    2  503  501 -0.35431067562E+03  0.22892178081E+03 -0.21379081666E+03  0.47291410412E+03  0.00000000000E+00 0. -1.
<mgrwt>
<rscale>  3 0.43996163E+03</rscale>
<asrwt>0</asrwt>
<pdfrwt beam="1">  1       21 0.48634855E-01 0.43996163E+03</pdfrwt>
<pdfrwt beam="2">  1       21 0.92728361E-01 0.43996163E+03</pdfrwt>
<totfact> 0.34641418E+03</totfact>
</mgrwt>
</event>
<event>
 4    0  0.1010129E-001  0.2624989E+03  0.7546771E-02  0.1105651E+00
         21   -1    0    0  502  501  0.00000000000E+00  0.00000000000E+00  0.30519472653E+02  0.30519472653E+02  0.00000000000E+00 0. -1.
         21   -1    0    0  503  502 -0.00000000000E+00 -0.00000000000E+00 -0.20036112833E+04  0.20036112833E+04  0.00000000000E+00 0. -1.
         25    1    1    2    0    0  0.63603002709E+02 -0.22189041413E+03 -0.11214551092E+04  0.11517670163E+04  0.12500000000E+03 0.  0.
         21    1    1    2  503  501 -0.63603002709E+02  0.22189041413E+03 -0.85163670141E+03  0.88236373964E+03  0.00000000000E+00 0. -1.
<mgrwt>
<rscale>  3 0.26249895E+03</rscale>
<asrwt>0</asrwt>
<pdfrwt beam="1">  1       21 0.46953033E-02 0.26249895E+03</pdfrwt>
<pdfrwt beam="2">  1       21 0.30824790E+00 0.26249895E+03</pdfrwt>
<totfact> 0.85624003E+03</totfact>
</mgrwt>
</event>
<event>
 4    0  0.1422701E-001  0.2994991E+03  0.7546771E-02  0.1085491E+00
         21   -1    0    0  503  501  0.00000000000E+00  0.00000000000E+00  0.15007014677E+04  0.15007014677E+04  0.00000000000E+00 0.  1.
         21   -1    0    0  501  502 -0.00000000000E+00 -0.00000000000E+00 -0.15376440735E+03  0.15376440735E+03  0.00000000000E+00 0. -1.
         25    1    1    2    0    0  0.19834055220E+03 -0.18637519775E+03  0.13494514925E+04  0.13822876038E+04  0.12500000000E+03 0.  0.
         21    1    1    2  503  502 -0.19834055220E+03  0.18637519775E+03 -0.25144321324E+01  0.27217827127E+03  0.00000000000E+00 0. -1.
<mgrwt>
<rscale>  3 0.29949906E+03</rscale>
<asrwt>0</asrwt>
<pdfrwt beam="1">  1       21 0.23087714E+00 0.29949906E+03</pdfrwt>
<pdfrwt beam="2">  1       21 0.23656064E-01 0.29949906E+03</pdfrwt>
<totfact> 0.13172608E+03</totfact>
</mgrwt>
</event>
<event>
 4    0  0.1406364E-001  0.2712335E+03  0.7546771E-02  0.1100576E+00
         21   -1    0    0  503  501  0.00000000000E+00  0.00000000000E+00  0.76181835431E+02  0.76181835431E+02  0.00000000000E+00 0.  1.
         21   -1    0    0  501  502 -0.00000000000E+00 -0.00000000000E+00 -0.90880717273E+03  0.90880717273E+03  0.00000000000E+00 0.  1.
         25    1    1    2    0    0 -0.12659142509E+03 -0.20473697727E+03 -0.32595119987E+03  0.42404221897E+03  0.12500000000E+03 0.  0.
         21    1    1    2  503  502  0.12659142509E+03  0.20473697727E+03 -0.50667413743E+03  0.56094678920E+03  0.00000000000E+00 0.  1.
<mgrwt>
<rscale>  3 0.27123351E+03</rscale>
<asrwt>0</asrwt>
<pdfrwt beam="1">  1       21 0.11720283E-01 0.27123351E+03</pdfrwt>
<pdfrwt beam="2">  1       21 0.13981648E+00 0.27123351E+03</pdfrwt>
<totfact> 0.21016483E+04</totfact>
</mgrwt>
</event>
<event>
 4    0  0.1383480E-001  0.2573391E+03  0.7546771E-02  0.1108753E+00
         21   -1    0    0  502  501  0.00000000000E+00  0.00000000000E+00  0.15705071776E+03  0.15705071776E+03  0.00000000000E+00 0.  1.
         21   -1    0    0  503  502 -0.00000000000E+00 -0.00000000000E+00 -0.57176279581E+03  0.57176279581E+03  0.00000000000E+00 0. -1.
         25    1    1    2    0    0  0.22488002680E+03  0.52313337887E+01 -0.35772505173E+00  0.25733931156E+03  0.12500000000E+03 0.  0.
         21    1    1    2  503  501 -0.22488002680E+03 -0.52313337887E+01 -0.41435435301E+03  0.47147420201E+03  0.00000000000E+00 0. -1.
<mgrwt>
<rscale>  3 0.25733906E+03</rscale>
<asrwt>0</asrwt>
<pdfrwt beam="1">  1       21 0.24161649E-01 0.25733906E+03</pdfrwt>
<pdfrwt beam="2">  1       21 0.87963508E-01 0.25733906E+03</pdfrwt>
<totfact> 0.17262704E+04</totfact>
</mgrwt>
</event>
<event>
 4    0  0.1387961E-001  0.2496140E+03  0.7546771E-02  0.1113549E+00
         21   -1    0    0  502  501  0.00000000000E+00  0.00000000000E+00  0.43601256952E+03  0.43601256952E+03  0.00000000000E+00 0.  1.
         21   -1    0    0  503  502 -0.00000000000E+00 -0.00000000000E+00 -0.16807282843E+03  0.16807282843E+03  0.00000000000E+00 0.  1.
         25    1    1    2    0    0  0.14957783592E+03  0.15591220270E+03  0.29488926736E+03  0.38635064897E+03  0.12500000000E+03 0.  0.
         21    1    1    2  503  501 -0.14957783592E+03 -0.15591220270E+03 -0.26949526274E+02  0.21773474899E+03  0.00000000000E+00 0.  1.
<mgrwt>
<rscale>  3 0.24961399E+03</rscale>
<asrwt>0</asrwt>
<pdfrwt beam="1">  1       21 0.67078856E-01 0.24961399E+03</pdfrwt>
<pdfrwt beam="2">  1       21 0.25857358E-01 0.24961399E+03</pdfrwt>
<totfact> 0.28065277E+04</totfact>
</mgrwt>
</event>
<event>
 4    0  0.1281204E-001  0.2444854E+03  0.7546771E-02  0.1116840E+00
         21   -1    0    0  502  501  0.00000000000E+00  0.00000000000E+00  0.86247796482E+03  0.86247796482E+03  0.00000000000E+00 0.  1.
         21   -1    0    0  503  502 -0.00000000000E+00 -0.00000000000E+00 -0.60838699363E+02  0.60838699363E+02  0.00000000000E+00 0.  1.
         25    1    1    2    0    0  0.61439595337E+02 -0.20093104155E+03  0.48774128824E+03  0.54558653905E+03  0.12500000000E+03 0.  0.
         21    1    1    2  503  501 -0.61439595337E+02  0.20093104155E+03  0.31389797721E+03  0.37773012513E+03  0.00000000000E+00 0.  1.
<mgrwt>
<rscale>  3 0.24448539E+03</rscale>
<asrwt>0</asrwt>
<pdfrwt beam="1">  1       21 0.13268891E+00 0.24448539E+03</pdfrwt>
<pdfrwt beam="2">  1       21 0.93598005E-02 0.24448539E+03</pdfrwt>
<totfact> 0.36399903E+04</totfact>
</mgrwt>
</event>
<event>
 4    0  0.1424347E-001  0.2759843E+03  0.7546771E-02  0.1097903E+00
         21   -1    0    0  503  501  0.00000000000E+00  0.00000000000E+00  0.91448919081E+02  0.91448919081E+02  0.00000000000E+00 0.  1.
         21   -1    0    0  501  502 -0.00000000000E+00 -0.00000000000E+00 -0.87065736661E+03  0.87065736661E+03  0.00000000000E+00 0.  1.
         25    1    1    2    0    0 -0.15998221556E+02 -0.24553284770E+03 -0.22623441579E+03  0.35686038345E+03  0.12500000000E+03 0.  0.
         21    1    1    2  503  502  0.15998221556E+02  0.24553284770E+03 -0.55297403174E+03  0.60524590224E+03  0.00000000000E+00 0.  1.
<mgrwt>
<rscale>  3 0.27598428E+03</rscale>
<asrwt>0</asrwt>
<pdfrwt beam="1">  1       21 0.14069064E-01 0.27598428E+03</pdfrwt>
<pdfrwt beam="2">  1       21 0.13394729E+00 0.27598428E+03</pdfrwt>
<totfact> 0.16828110E+04</totfact>
</mgrwt>
</event>
<event>
 4    0  0.1003929E-001  0.2862055E+03  0.7546771E-02  0.1092347E+00
         21   -1    0    0  502  501  0.00000000000E+00  0.00000000000E+00  0.36472044508E+02  0.36472044508E+02  0.00000000000E+00 0.  1.
         21   -1    0    0  503  502 -0.00000000000E+00 -0.00000000000E+00 -0.20271846519E+04  0.20271846519E+04  0.00000000000E+00 0.  1.
         25    1    1    2    0    0 -0.45733391505E+02 -0.25337139720E+03 -0.10721949008E+04  0.11097366865E+04  0.12500000000E+03 0.  0.
         21    1    1    2  503  501  0.45733391505E+02  0.25337139720E+03 -0.91851770658E+03  0.95392000991E+03  0.00000000000E+00 0.  1.
<mgrwt>
<rscale>  3 0.28620553E+03</rscale>
<asrwt>0</asrwt>
<pdfrwt beam="1">  1       21 0.56110828E-02 0.28620553E+03</pdfrwt>
<pdfrwt beam="2">  1       21 0.31187462E+00 0.28620553E+03</pdfrwt>
<totfact> 0.58966159E+03</totfact>
</mgrwt>
</event>
<event>
 4    0  0.1003929E-001  0.6237583E+03  0.7546771E-02  0.9857305E-01
         21   -1    0    0  502  501  0.00000000000E+00  0.00000000000E+00  0.95132251519E+03  0.95132251519E+03  0.00000000000E+00 0.  1.
         21   -1    0    0  503  502 -0.00000000000E+00 -0.00000000000E+00 -0.46677740891E+03  0.46677740891E+03  0.00000000000E+00 0.  1.
         25    1    1    2    0    0 -0.47348579071E+03  0.38634257328E+03 -0.22304109905E+02  0.62415691237E+03  0.12500000000E+03 0.  0.
         21    1    1    2  503  501  0.47348579071E+03 -0.38634257328E+03  0.50684921618E+03  0.79394301173E+03  0.00000000000E+00 0.  1.
<mgrwt>
<rscale>  3 0.62375827E+03</rscale>
<asrwt>0</asrwt>
<pdfrwt beam="1">  1       21 0.14635731E+00 0.62375827E+03</pdfrwt>
<pdfrwt beam="2">  1       21 0.71811909E-01 0.62375827E+03</pdfrwt>
<totfact> 0.43416830E+02</totfact>
</mgrwt>
</event>
<event>
 4    0  0.1003929E-001  0.3757541E+03  0.7546771E-02  0.1052514E+00
         21   -1    0    0  503  501  0.00000000000E+00  0.00000000000E+00  0.60796898152E+03  0.60796898152E+03  0.00000000000E+00 0.  1.
         21   -1    0    0  501  502 -0.00000000000E+00 -0.00000000000E+00 -0.15280475421E+04  0.15280475421E+04  0.00000000000E+00 0.  1.
         25    1    1    2    0    0 -0.28437828116E+03  0.21141223200E+03  0.52640800672E+03  0.64675847747E+03  0.12500000000E+03 0.  0.
         21    1    1    2  503  502  0.28437828116E+03 -0.21141223200E+03 -0.14464865673E+04  0.14892580461E+04  0.00000000000E+00 0.  1.
<mgrwt>
<rscale>  3 0.37575409E+03</rscale>
<asrwt>0</asrwt>
<pdfrwt beam="1">  1       21 0.93533691E-01 0.37575409E+03</pdfrwt>
<pdfrwt beam="2">  1       21 0.23508423E+00 0.37575409E+03</pdfrwt>
<totfact> 0.64297787E+01</totfact>
</mgrwt>
</event>
<event>
 4    0  0.1596112E-001  0.2427035E+03  0.7546771E-02  0.1118005E+00
         21   -1    0    0  503  501  0.00000000000E+00  0.00000000000E+00  0.10486609974E+03  0.10486609974E+03  0.00000000000E+00 0. -1.
         21   -1    0    0  501  502 -0.00000000000E+00 -0.00000000000E+00 -0.63932483609E+03  0.63932483609E+03  0.00000000000E+00 0. -1.
         25    1    1    2    0    0  0.20780106346E+03 -0.99353687254E+01 -0.10001180321E+03  0.26250210344E+03  0.12500000000E+03 0.  0.
         21    1    1    2  503  502 -0.20780106346E+03  0.99353687254E+01 -0.43444693315E+03  0.48168883239E+03  0.00000000000E+00 0. -1.
<mgrwt>
<rscale>  3 0.24270351E+03</rscale>
<asrwt>0</asrwt>
<pdfrwt beam="1">  1       21 0.16133247E-01 0.24270351E+03</pdfrwt>
<pdfrwt beam="2">  1       21 0.98357665E-01 0.24270351E+03</pdfrwt>
<totfact> 0.28546923E+04</totfact>
</mgrwt>
</event>
<event>
 4    0  0.1388368E-001  0.2430019E+03  0.7546771E-02  0.1117809E+00
         21   -1    0    0  502  501  0.00000000000E+00  0.00000000000E+00  0.31142778261E+03  0.31142778261E+03  0.00000000000E+00 0.  1.
         21   -1    0    0  503  502 -0.00000000000E+00 -0.00000000000E+00 -0.26304957120E+03  0.26304957120E+03  0.00000000000E+00 0.  1.
         25    1    1    2    0    0 -0.19757635839E+03 -0.66245755033E+02  0.20166686269E+03  0.31578385165E+03  0.12500000000E+03 0.  0.
         21    1    1    2  503  501  0.19757635839E+03  0.66245755033E+02 -0.15328865128E+03  0.25869350217E+03  0.00000000000E+00 0.  1.
<mgrwt>
<rscale>  3 0.24300189E+03</rscale>
<asrwt>0</asrwt>
<pdfrwt beam="1">  1       21 0.47911967E-01 0.24300189E+03</pdfrwt>
<pdfrwt beam="2">  1       21 0.40469165E-01 0.24300189E+03</pdfrwt>
<totfact> 0.23846589E+04</totfact>
</mgrwt>
</event>
<event>
 4    0  0.1003929E-001  0.2592214E+03  0.7546771E-02  0.1107612E+00
         21   -1    0    0  503  501  0.00000000000E+00  0.00000000000E+00  0.79449688289E+02  0.79449688289E+02  0.00000000000E+00 0. -1.
         21   -1    0    0  501  502 -0.00000000000E+00 -0.00000000000E+00 -0.23670071664E+04  0.23670071664E+04  0.00000000000E+00 0. -1.
         25    1    1    2    0    0 -0.13439470423E+03 -0.18305406485E+03 -0.15538592571E+03  0.30222593054E+03  0.12500000000E+03 0.  0.
         21    1    1    2  503  502  0.13439470423E+03  0.18305406485E+03 -0.21321715524E+04  0.21442309241E+04  0.00000000000E+00 0. -1.
<mgrwt>
<rscale>  3 0.25922139E+03</rscale>
<asrwt>0</asrwt>
<pdfrwt beam="1">  1       21 0.12223029E-01 0.25922139E+03</pdfrwt>
<pdfrwt beam="2">  1       21 0.36415495E+00 0.25922139E+03</pdfrwt>
<totfact> 0.75013450E+02</totfact>
</mgrwt>
</event>
<event>
 4    0  0.1244592E-001  0.2552117E+03  0.7546771E-02  0.1110055E+00
         21   -1    0    0  503  501  0.00000000000E+00  0.00000000000E+00  0.86267266683E+02  0.86267266683E+02  0.00000000000E+00 0. -1.
         21   -1    0    0  501  502 -0.00000000000E+00 -0.00000000000E+00 -0.71869457958E+03  0.71869457958E+03  0.00000000000E+00 0. -1.
         25    1    1    2    0    0 -0.13592099241E+03 -0.17616321519E+03 -0.44957803628E+03  0.51696557455E+03  0.12500000000E+03 0.  0.
         21    1    1    2  503  502  0.13592099241E+03  0.17616321519E+03 -0.18284927662E+03  0.28799627172E+03  0.00000000000E+00 0. -1.
<mgrwt>
<rscale>  3 0.25521167E+03</rscale>
<asrwt>0</asrwt>
<pdfrwt beam="1">  1       21 0.13271888E-01 0.25521167E+03</pdfrwt>
<pdfrwt beam="2">  1       21 0.11056839E+00 0.25521167E+03</pdfrwt>
<totfact> 0.30572477E+04</totfact>
</mgrwt>
</event>
<event>
 4    0  0.1475525E-001  0.2527468E+03  0.7546771E-02  0.1111581E+00
         21   -1    0    0  502  501  0.00000000000E+00  0.00000000000E+00  0.42949234780E+03  0.42949234780E+03  0.00000000000E+00 0.  1.
         21   -1    0    0  503  502 -0.00000000000E+00 -0.00000000000E+00 -0.13114688791E+03  0.13114688791E+03  0.00000000000E+00 0.  1.
         25    1    1    2    0    0 -0.15920655942E+03  0.15135786729E+03  0.18668509855E+03  0.31421689734E+03  0.12500000000E+03 0.  0.
         21    1    1    2  503  501  0.15920655942E+03 -0.15135786729E+03  0.11166036134E+03  0.24642233837E+03  0.00000000000E+00 0.  1.
<mgrwt>
<rscale>  3 0.25274678E+03</rscale>
<asrwt>0</asrwt>
<pdfrwt beam="1">  1       21 0.66075745E-01 0.25274678E+03</pdfrwt>
<pdfrwt beam="2">  1       21 0.20176445E-01 0.25274678E+03</pdfrwt>
<totfact> 0.46464469E+04</totfact>
</mgrwt>
</event>
<event>
 4    0  0.1237281E-001  0.3398454E+03  0.7546771E-02  0.1066862E+00
         21   -1    0    0  502  501  0.00000000000E+00  0.00000000000E+00  0.24074280985E+03  0.24074280985E+03  0.00000000000E+00 0.  1.
         21   -1    0    0  503  502 -0.00000000000E+00 -0.00000000000E+00 -0.70209743535E+03  0.70209743535E+03  0.00000000000E+00 0. -1.
         25    1    1    2    0    0 -0.16711290504E+03  0.26822219321E+03  0.48197444578E+02  0.34324606571E+03  0.12500000000E+03 0.  0.
         21    1    1    2  503  501  0.16711290504E+03 -0.26822219321E+03 -0.50955207008E+03  0.59959417949E+03  0.00000000000E+00 0. -1.
<mgrwt>
<rscale>  3 0.33984536E+03</rscale>
<asrwt>0</asrwt>
<pdfrwt beam="1">  1       21 0.37037356E-01 0.33984536E+03</pdfrwt>
<pdfrwt beam="2">  1       21 0.10801499E+00 0.33984536E+03</pdfrwt>
<totfact> 0.43832174E+03</totfact>
</mgrwt>
</event>
<event>
 4    0  0.1176189E-001  0.6389920E+03  0.7546771E-02  0.9827657E-01
         21   -1    0    0  502  501  0.00000000000E+00  0.00000000000E+00  0.95822579484E+03  0.95822579484E+03  0.00000000000E+00 0.  1.
         21   -1    0    0  503  502 -0.00000000000E+00 -0.00000000000E+00 -0.44198861811E+03  0.44198861811E+03  0.00000000000E+00 0.  1.
         25    1    1    2    0    0  0.30699673516E+03 -0.54629546479E+03  0.42387218908E+03  0.76679747191E+03  0.12500000000E+03 0.  0.
         21    1    1    2  503  501 -0.30699673516E+03  0.54629546479E+03  0.92364987651E+02  0.63341694104E+03  0.00000000000E+00 0.  1.
<mgrwt>
<rscale>  3 0.63899196E+03</rscale>
<asrwt>0</asrwt>
<pdfrwt beam="1">  1       21 0.14741935E+00 0.63899196E+03</pdfrwt>
<pdfrwt beam="2">  1       21 0.67998249E-01 0.63899196E+03</pdfrwt>
<totfact> 0.47944014E+02</totfact>
</mgrwt>
</event>
<event>
 4    0  0.1012310E-001  0.2702538E+03  0.7546771E-02  0.1101134E+00
         21   -1    0    0  502  501  0.00000000000E+00  0.00000000000E+00  0.57983244256E+03  0.57983244256E+03  0.00000000000E+00 0. -1.
         21   -1    0    0  503  502 -0.00000000000E+00 -0.00000000000E+00 -0.13547471229E+03  0.13547471229E+03  0.00000000000E+00 0.  1.
         25    1    1    2    0    0  0.23939942775E+03  0.10002547274E+02  0.38161800691E+03  0.46762104332E+03  0.12500000000E+03 0.  0.
         21    1    1    2  503  501 -0.23939942775E+03 -0.10002547274E+02  0.62739723357E+02  0.24768611153E+03  0.00000000000E+00 0.  1.
<mgrwt>
<rscale>  3 0.27025384E+03</rscale>
<asrwt>0</asrwt>
<pdfrwt beam="1">  1       21 0.89204989E-01 0.27025384E+03</pdfrwt>
<pdfrwt beam="2">  1       21 0.20842264E-01 0.27025384E+03</pdfrwt>
<totfact> 0.22000280E+04</totfact>
</mgrwt>
</event>
<event>
 4    0  0.1310200E-001  0.2372847E+03  0.7546771E-02  0.1121615E+00
         21   -1    0    0  503  501  0.00000000000E+00  0.00000000000E+00  0.44880853021E+02  0.44880853021E+02  0.00000000000E+00 0. -1.
         21   -1    0    0  501  502 -0.00000000000E+00 -0.00000000000E+00 -0.12530148128E+04  0.12530148128E+04  0.00000000000E+00 0. -1.
         25    1    1    2    0    0  0.14277502743E+03 -0.14245809804E+03 -0.40101551520E+03  0.46595864793E+03  0.12500000000E+03 0.  0.
         21    1    1    2  503  502 -0.14277502743E+03  0.14245809804E+03 -0.80711844462E+03  0.83193701793E+03  0.00000000000E+00 0. -1.
<mgrwt>
<rscale>  3 0.23728468E+03</rscale>
<asrwt>0</asrwt>
<pdfrwt beam="1">  1       21 0.69047461E-02 0.23728468E+03</pdfrwt>
<pdfrwt beam="2">  1       21 0.19277152E+00 0.23728468E+03</pdfrwt>
<totfact> 0.22471408E+04</totfact>
</mgrwt>
</event>
<event>
 4    0  0.1291084E-001  0.3913271E+03  0.7546771E-02  0.1046825E+00
         21   -1    0    0  503  501  0.00000000000E+00  0.00000000000E+00  0.53124129067E+03  0.53124129067E+03  0.00000000000E+00 0. -1.
         21   -1    0    0  501  502 -0.00000000000E+00 -0.00000000000E+00 -0.37184513477E+03  0.37184513477E+03  0.00000000000E+00 0. -1.
         25    1    1    2    0    0 -0.32344521846E+03  0.18137001409E+03  0.31359663941E+03  0.50147756042E+03  0.12500000000E+03 0.  0.
         21    1    1    2  503  502  0.32344521846E+03 -0.18137001409E+03 -0.15420048351E+03  0.40160886503E+03  0.00000000000E+00 0. -1.
<mgrwt>
<rscale>  3 0.39132709E+03</rscale>
<asrwt>0</asrwt>
<pdfrwt beam="1">  1       21 0.81729429E-01 0.39132709E+03</pdfrwt>
<pdfrwt beam="2">  1       21 0.57206944E-01 0.39132709E+03</pdfrwt>
<totfact> 0.33526277E+03</totfact>
</mgrwt>
</event>
<event>
 4    0  0.1187647E-001  0.2391527E+03  0.7546771E-02  0.1120359E+00
         21   -1    0    0  502  501  0.00000000000E+00  0.00000000000E+00  0.10208469523E+03  0.10208469523E+03  0.00000000000E+00 0. -1.
         21   -1    0    0  503  502 -0.00000000000E+00 -0.00000000000E+00 -0.65415984224E+03  0.65415984224E+03  0.00000000000E+00 0.  1.
         25    1    1    2    0    0  0.20383770144E+03  0.43830990418E+01 -0.97918947349E+02  0.25842240680E+03  0.12500000000E+03 0.  0.
         21    1    1    2  503  501 -0.20383770144E+03 -0.43830990418E+01 -0.45415619966E+03  0.49782213066E+03  0.00000000000E+00 0.  1.
<mgrwt>
<rscale>  3 0.23915271E+03</rscale>
<asrwt>0</asrwt>
<pdfrwt beam="1">  1       21 0.15705338E-01 0.23915271E+03</pdfrwt>
<pdfrwt beam="2">  1       21 0.10063997E+00 0.23915271E+03</pdfrwt>
<totfact> 0.28446211E+04</totfact>
</mgrwt>
</event>
<event>
 4    0  0.1207202E-001  0.2368285E+03  0.7546771E-02  0.1121924E+00
         21   -1    0    0  503  501  0.00000000000E+00  0.00000000000E+00  0.35083682942E+03  0.35083682942E+03  0.00000000000E+00 0.  1.
         21   -1    0    0  501  502 -0.00000000000E+00 -0.00000000000E+00 -0.14235788194E+03  0.14235788194E+03  0.00000000000E+00 0.  1.
         25    1    1    2    0    0  0.20056694840E+03  0.15351107406E+02  0.16142539201E+03  0.28661108575E+03  0.12500000000E+03 0.  0.
         21    1    1    2  503  502 -0.20056694840E+03 -0.15351107406E+02  0.47053555465E+02  0.20658362561E+03  0.00000000000E+00 0.  1.
<mgrwt>
<rscale>  3 0.23682854E+03</rscale>
<asrwt>0</asrwt>
<pdfrwt beam="1">  1       21 0.53974897E-01 0.23682854E+03</pdfrwt>
<pdfrwt beam="2">  1       21 0.21901213E-01 0.23682854E+03</pdfrwt>
<totfact> 0.61982597E+04</totfact>
</mgrwt>
</event>
<event>
 4    0  0.1214888E-001  0.2423523E+03  0.7546771E-02  0.1118236E+00
         21   -1    0    0  502  501  0.00000000000E+00  0.00000000000E+00  0.39177036438E+03  0.39177036438E+03  0.00000000000E+00 0.  1.
         21   -1    0    0  503  502 -0.00000000000E+00 -0.00000000000E+00 -0.29778837010E+03  0.29778837010E+03  0.00000000000E+00 0.  1.
         25    1    1    2    0    0  0.17899669130E+03 -0.10521315115E+03  0.30763992373E+03  0.39163368771E+03  0.12500000000E+03 0.  0.
         21    1    1    2  503  501 -0.17899669130E+03  0.10521315115E+03 -0.21365792946E+03  0.29792504677E+03  0.00000000000E+00 0.  1.
<mgrwt>
<rscale>  3 0.24235227E+03</rscale>
<asrwt>0</asrwt>
<pdfrwt beam="1">  1       21 0.60272364E-01 0.24235227E+03</pdfrwt>
<pdfrwt beam="2">  1       21 0.45813595E-01 0.24235227E+03</pdfrwt>
<totfact> 0.11364851E+04</totfact>
</mgrwt>
</event>
<event>
 4    0  0.1019640E-001  0.2600183E+03  0.7546771E-02  0.1107132E+00
         21   -1    0    0  503  501  0.00000000000E+00  0.00000000000E+00  0.34868124264E+02  0.34868124264E+02  0.00000000000E+00 0. -1.
         21   -1    0    0  501  502 -0.00000000000E+00 -0.00000000000E+00 -0.17743366995E+04  0.17743366995E+04  0.00000000000E+00 0. -1.
         25    1    1    2    0    0  0.69295638185E+02  0.21721566287E+03 -0.10997238115E+04  0.11300451279E+04  0.12500000000E+03 0.  0.
         21    1    1    2  503  502 -0.69295638185E+02 -0.21721566287E+03 -0.63974476377E+03  0.67915969583E+03  0.00000000000E+00 0. -1.
<mgrwt>
<rscale>  3 0.26001833E+03</rscale>
<asrwt>0</asrwt>
<pdfrwt beam="1">  1       21 0.53643277E-02 0.26001833E+03</pdfrwt>
<pdfrwt beam="2">  1       21 0.27297483E+00 0.26001833E+03</pdfrwt>
<totfact> 0.10999461E+04</totfact>
</mgrwt>
</event>
<event>
 4    0  0.1951358E-001  0.2472268E+03  0.7546771E-02  0.1115070E+00
         21   -1    0    0  502  501  0.00000000000E+00  0.00000000000E+00  0.32388999277E+03  0.32388999277E+03  0.00000000000E+00 0. -1.
         21   -1    0    0  503  502 -0.00000000000E+00 -0.00000000000E+00 -0.68572355134E+03  0.68572355134E+03  0.00000000000E+00 0.  1.
         25    1    1    2    0    0 -0.16233869866E+02  0.21267940249E+03  0.25606490465E+03  0.35593581187E+03  0.12500000000E+03 0.  0.
         21    1    1    2  503  501  0.16233869866E+02 -0.21267940249E+03 -0.61789846323E+03  0.65367773225E+03  0.00000000000E+00 0.  1.
<mgrwt>
<rscale>  3 0.24722675E+03</rscale>
<asrwt>0</asrwt>
<pdfrwt beam="1">  1       21 0.49829230E-01 0.24722675E+03</pdfrwt>
<pdfrwt beam="2">  1       21 0.10549593E+00 0.24722675E+03</pdfrwt>
<totfact> 0.26550376E+03</totfact>
</mgrwt>
</event>
<event>
 4    0  0.1003929E-001  0.2927080E+03  0.7546771E-02  0.1088944E+00
         21   -1    0    0  502  501  0.00000000000E+00  0.00000000000E+00  0.27425873440E+03  0.27425873440E+03  0.00000000000E+00 0. -1.
         21   -1    0    0  503  502 -0.00000000000E+00 -0.00000000000E+00 -0.33694289860E+03  0.33694289860E+03  0.00000000000E+00 0.  1.
         25    1    1    2    0    0 -0.26358508776E+03 -0.23997271705E+02  0.89257405876E+02  0.30601446378E+03  0.12500000000E+03 0.  0.
         21    1    1    2  503  501  0.26358508776E+03  0.23997271705E+02 -0.15194157008E+03  0.30518716922E+03  0.00000000000E+00 0.  1.
<mgrwt>
<rscale>  3 0.29270799E+03</rscale>
<asrwt>0</asrwt>
<pdfrwt beam="1">  1       21 0.42193651E-01 0.29270799E+03</pdfrwt>
<pdfrwt beam="2">  1       21 0.51837370E-01 0.29270799E+03</pdfrwt>
<totfact> 0.18150846E+04</totfact>
</mgrwt>
</event>
<event>
 4    0  0.1333911E-001  0.2810202E+03  0.7546771E-02  0.1095133E+00
         21   -1    0    0  502  501  0.00000000000E+00  0.00000000000E+00  0.73055093569E+03  0.73055093569E+03  0.00000000000E+00 0.  1.
         21   -1    0    0  503  502 -0.00000000000E+00 -0.00000000000E+00 -0.12849962859E+03  0.12849962859E+03  0.00000000000E+00 0.  1.
         25    1    1    2    0    0 -0.10759487185E+03  0.22753170607E+03  0.52559454164E+03  0.59600499655E+03  0.12500000000E+03 0.  0.
         21    1    1    2  503  501  0.10759487185E+03 -0.22753170607E+03  0.76456765462E+02  0.26304556773E+03  0.00000000000E+00 0.  1.
<mgrwt>
<rscale>  3 0.28102017E+03</rscale>
<asrwt>0</asrwt>
<pdfrwt beam="1">  1       21 0.11239245E+00 0.28102017E+03</pdfrwt>
<pdfrwt beam="2">  1       21 0.19769174E-01 0.28102017E+03</pdfrwt>
<totfact> 0.13899678E+04</totfact>
</mgrwt>
</event>
<event>
 4    0  0.1350630E-001  0.2585334E+03  0.7546771E-02  0.1108028E+00
         21   -1    0    0  503  501  0.00000000000E+00  0.00000000000E+00  0.91611231125E+03  0.91611231125E+03  0.00000000000E+00 0.  1.
         21   -1    0    0  501  502 -0.00000000000E+00 -0.00000000000E+00 -0.67034664156E+02  0.67034664156E+02  0.00000000000E+00 0.  1.
         25    1    1    2    0    0 -0.21762942018E+03  0.62063948222E+02  0.55332451021E+03  0.61074340913E+03  0.12500000000E+03 0.  0.
         21    1    1    2  503  502  0.21762942018E+03 -0.62063948222E+02  0.29575313688E+03  0.37240356627E+03  0.00000000000E+00 0.  1.
<mgrwt>
<rscale>  3 0.25853336E+03</rscale>
<asrwt>0</asrwt>
<pdfrwt beam="1">  1       21 0.14094035E+00 0.25853336E+03</pdfrwt>
<pdfrwt beam="2">  1       21 0.10313026E-01 0.25853336E+03</pdfrwt>
<totfact> 0.26040045E+04</totfact>
</mgrwt>
</event>
<event>
 4    0  0.1003929E-001  0.3001068E+03  0.7546771E-02  0.1085187E+00
         21   -1    0    0  503  501  0.00000000000E+00  0.00000000000E+00  0.63103416660E+03  0.63103416660E+03  0.00000000000E+00 0. -1.
         21   -1    0    0  501  502 -0.00000000000E+00 -0.00000000000E+00 -0.88509456814E+03  0.88509456814E+03  0.00000000000E+00 0. -1.
         25    1    1    2    0    0  0.27122978324E+03 -0.29555363764E+02  0.57212543638E+03  0.64605853435E+03  0.12500000000E+03 0.  0.
         21    1    1    2  503  502 -0.27122978324E+03  0.29555363764E+02 -0.82618583791E+03  0.87007020039E+03  0.00000000000E+00 0. -1.
<mgrwt>
<rscale>  3 0.30010684E+03</rscale>
<asrwt>0</asrwt>
<pdfrwt beam="1">  1       21 0.97082180E-01 0.30010684E+03</pdfrwt>
<pdfrwt beam="2">  1       21 0.13616839E+00 0.30010684E+03</pdfrwt>
<totfact> 0.30531908E+02</totfact>
</mgrwt>
</event>
<event>
 4    0  0.1003929E-001  0.3327891E+03  0.7546771E-02  0.1069909E+00
         21   -1    0    0  502  501  0.00000000000E+00  0.00000000000E+00  0.37894916404E+03  0.37894916404E+03  0.00000000000E+00 0.  1.
         21   -1    0    0  503  502 -0.00000000000E+00 -0.00000000000E+00 -0.29206032722E+03  0.29206032722E+03  0.00000000000E+00 0. -1.
         25    1    1    2    0    0  0.18756550447E+03  0.24483216991E+03  0.13448821124E+03  0.35893688700E+03  0.12500000000E+03 0.  0.
         21    1    1    2  503  501 -0.18756550447E+03 -0.24483216991E+03 -0.47599374416E+02  0.31207260426E+03  0.00000000000E+00 0. -1.
<mgrwt>
<rscale>  3 0.33278914E+03</rscale>
<asrwt>0</asrwt>
<pdfrwt beam="1">  1       21 0.58299871E-01 0.33278914E+03</pdfrwt>
<pdfrwt beam="2">  1       21 0.44932358E-01 0.33278914E+03</pdfrwt>
<totfact> 0.12193902E+04</totfact>
</mgrwt>
</event>
<event>
 4    0  0.1339491E-001  0.2496357E+03  0.7546771E-02  0.1113535E+00
         21   -1    0    0  502  501  0.00000000000E+00  0.00000000000E+00  0.27121205179E+03  0.27121205179E+03  0.00000000000E+00 0. -1.
         21   -1    0    0  503  502 -0.00000000000E+00 -0.00000000000E+00 -0.21387147693E+03  0.21387147693E+03  0.00000000000E+00 0. -1.
         25    1    1    2    0    0  0.13625076134E+03 -0.16771623621E+03 -0.31167794588E+02  0.25157392010E+03  0.12500000000E+03 0.  0.
         21    1    1    2  503  501 -0.13625076134E+03  0.16771623621E+03  0.88508369456E+02  0.23350960862E+03  0.00000000000E+00 0. -1.
<mgrwt>
<rscale>  3 0.24963575E+03</rscale>
<asrwt>0</asrwt>
<pdfrwt beam="1">  1       21 0.41724931E-01 0.24963575E+03</pdfrwt>
<pdfrwt beam="2">  1       21 0.32903304E-01 0.24963575E+03</pdfrwt>
<totfact> 0.47927261E+04</totfact>
</mgrwt>
</event>
<event>
 4    0  0.2113396E-001  0.2495064E+03  0.7546771E-02  0.1113617E+00
         21   -1    0    0  503  501  0.00000000000E+00  0.00000000000E+00  0.63248831293E+03  0.63248831293E+03  0.00000000000E+00 0. -1.
         21   -1    0    0  501  502 -0.00000000000E+00 -0.00000000000E+00 -0.47637164525E+03  0.47637164525E+03  0.00000000000E+00 0.  1.
         25    1    1    2    0    0 -0.17127528130E+03  0.13150376716E+03  0.58096909002E+03  0.63228043329E+03  0.12500000000E+03 0.  0.
         21    1    1    2  503  502  0.17127528130E+03 -0.13150376716E+03 -0.42485242235E+03  0.47657952488E+03  0.00000000000E+00 0.  1.
<mgrwt>
<rscale>  3 0.24950644E+03</rscale>
<asrwt>0</asrwt>
<pdfrwt beam="1">  1       21 0.97305894E-01 0.24950644E+03</pdfrwt>
<pdfrwt beam="2">  1       21 0.73287945E-01 0.24950644E+03</pdfrwt>
<totfact> 0.13959130E+03</totfact>
</mgrwt>
</event>
<event>
 4    0  0.1428502E-001  0.4006965E+03  0.7546771E-02  0.1043539E+00
         21   -1    0    0  502  501  0.00000000000E+00  0.00000000000E+00  0.38775035627E+03  0.38775035627E+03  0.00000000000E+00 0.  1.
         21   -1    0    0  503  502 -0.00000000000E+00 -0.00000000000E+00 -0.40521838504E+03  0.40521838504E+03  0.00000000000E+00 0.  1.
         25    1    1    2    0    0  0.28918042530E+03  0.24760332437E+03  0.57963979631E+02  0.40486732092E+03  0.12500000000E+03 0.  0.
         21    1    1    2  503  501 -0.28918042530E+03 -0.24760332437E+03 -0.75432008395E+02  0.38810142039E+03  0.00000000000E+00 0.  1.
<mgrwt>
<rscale>  3 0.40069655E+03</rscale>
<asrwt>0</asrwt>
<pdfrwt beam="1">  1       21 0.59653901E-01 0.40069655E+03</pdfrwt>
<pdfrwt beam="2">  1       21 0.62341290E-01 0.40069655E+03</pdfrwt>
<totfact> 0.56148683E+03</totfact>
</mgrwt>
</event>
<event>
 4    0  0.1585952E-001  0.2653700E+03  0.7546771E-02  0.1103959E+00
         21   -1    0    0  503  501  0.00000000000E+00  0.00000000000E+00  0.18773079278E+03  0.18773079278E+03  0.00000000000E+00 0.  1.
         21   -1    0    0  501  502 -0.00000000000E+00 -0.00000000000E+00 -0.36707267395E+03  0.36707267395E+03  0.00000000000E+00 0.  1.
         25    1    1    2    0    0  0.21578207424E+03 -0.90743187829E+02 -0.94032801064E+01  0.26553653492E+03  0.12500000000E+03 0.  0.
         21    1    1    2  503  502 -0.21578207424E+03  0.90743187829E+02 -0.16993860107E+03  0.28926693180E+03  0.00000000000E+00 0.  1.
<mgrwt>
<rscale>  3 0.26536999E+03</rscale>
<asrwt>0</asrwt>
<pdfrwt beam="1">  1       21 0.28881661E-01 0.26536999E+03</pdfrwt>
<pdfrwt beam="2">  1       21 0.56472717E-01 0.26536999E+03</pdfrwt>
<totfact> 0.32684953E+04</totfact>
</mgrwt>
</event>
<event>
 4    0  0.1003929E-001  0.6891607E+03  0.7546771E-02  0.9735950E-01
         21   -1    0    0  502  501  0.00000000000E+00  0.00000000000E+00  0.50557222676E+03  0.50557222676E+03  0.00000000000E+00 0.  1.
         21   -1    0    0  503  502 -0.00000000000E+00 -0.00000000000E+00 -0.10548548235E+04  0.10548548235E+04  0.00000000000E+00 0.  1.
         25    1    1    2    0    0  0.60022110121E+03 -0.31472545075E+03 -0.17575686338E+01  0.68916294789E+03  0.12500000000E+03 0.  0.
         21    1    1    2  503  501 -0.60022110121E+03  0.31472545075E+03 -0.54752502814E+03  0.87126410241E+03  0.00000000000E+00 0.  1.
<mgrwt>
<rscale>  3 0.68916071E+03</rscale>
<asrwt>0</asrwt>
<pdfrwt beam="1">  1       21 0.77780345E-01 0.68916071E+03</pdfrwt>
<pdfrwt beam="2">  1       21 0.16228535E+00 0.68916071E+03</pdfrwt>
<totfact> 0.26551076E+02</totfact>
</mgrwt>
</event>
<event>
 4    0  0.1517981E-001  0.2834364E+03  0.7546771E-02  0.1093827E+00
         21   -1    0    0  503  501  0.00000000000E+00  0.00000000000E+00  0.26144973374E+03  0.26144973374E+03  0.00000000000E+00 0.  1.
         21   -1    0    0  501  502 -0.00000000000E+00 -0.00000000000E+00 -0.68525814915E+03  0.68525814915E+03  0.00000000000E+00 0. -1.
         25    1    1    2    0    0  0.16659548513E+03  0.19224234577E+03  0.14881113300E+03  0.32012642577E+03  0.12500000000E+03 0.  0.
         21    1    1    2  503  502 -0.16659548513E+03 -0.19224234577E+03 -0.57261954841E+03  0.62658145711E+03  0.00000000000E+00 0. -1.
<mgrwt>
<rscale>  3 0.28343637E+03</rscale>
<asrwt>0</asrwt>
<pdfrwt beam="1">  1       21 0.40223037E-01 0.28343637E+03</pdfrwt>
<pdfrwt beam="2">  1       21 0.10542433E+00 0.28343637E+03</pdfrwt>
<totfact> 0.40480205E+03</totfact>
</mgrwt>
</event>
<event>
 4    0  0.1219839E-001  0.2890663E+03  0.7546771E-02  0.1090838E+00
         21   -1    0    0  502  501  0.00000000000E+00  0.00000000000E+00  0.70346301983E+02  0.70346301983E+02  0.00000000000E+00 0.  1.
         21   -1    0    0  503  502 -0.00000000000E+00 -0.00000000000E+00 -0.10991756254E+04  0.10991756254E+04  0.00000000000E+00 0.  1.
         25    1    1    2    0    0  0.25727570528E+03 -0.41756018128E+02 -0.62896077309E+03  0.69220734441E+03  0.12500000000E+03 0.  0.
         21    1    1    2  503  501 -0.25727570528E+03  0.41756018128E+02 -0.39986855035E+03  0.47731458299E+03  0.00000000000E+00 0.  1.
<mgrwt>
<rscale>  3 0.28906635E+03</rscale>
<asrwt>0</asrwt>
<pdfrwt beam="1">  1       21 0.10822509E-01 0.28906635E+03</pdfrwt>
<pdfrwt beam="2">  1       21 0.16910393E+00 0.28906635E+03</pdfrwt>
<totfact> 0.14387284E+04</totfact>
</mgrwt>
</event>
<event>
 4    0  0.1003929E-001  0.2599850E+03  0.7546771E-02  0.1107152E+00
         21   -1    0    0  502  501  0.00000000000E+00  0.00000000000E+00  0.73705203251E+03  0.73705203251E+03  0.00000000000E+00 0. -1.
         21   -1    0    0  503  502 -0.00000000000E+00 -0.00000000000E+00 -0.98961084243E+02  0.98961084243E+02  0.00000000000E+00 0.  1.
         25    1    1    2    0    0 -0.72933133447E+02 -0.21598144171E+03  0.51508951802E+03  0.57698304715E+03  0.12500000000E+03 0.  0.
         21    1    1    2  503  501  0.72933133447E+02  0.21598144171E+03  0.12300143025E+03  0.25903006961E+03  0.00000000000E+00 0.  1.
<mgrwt>
<rscale>  3 0.25998505E+03</rscale>
<asrwt>0</asrwt>
<pdfrwt beam="1">  1       21 0.11339262E+00 0.25998505E+03</pdfrwt>
<pdfrwt beam="2">  1       21 0.15224783E-01 0.25998505E+03</pdfrwt>
<totfact> 0.22320855E+04</totfact>
</mgrwt>
</event>
<event>
 4    0  0.1546356E-001  0.2874215E+03  0.7546771E-02  0.1091703E+00
         21   -1    0    0  502  501  0.00000000000E+00  0.00000000000E+00  0.82923597001E+03  0.82923597001E+03  0.00000000000E+00 0. -1.
         21   -1    0    0  503  502 -0.00000000000E+00 -0.00000000000E+00 -0.92077841686E+02  0.92077841686E+02  0.00000000000E+00 0. -1.
         25    1    1    2    0    0 -0.22987360722E+03  0.11892954005E+03  0.45728438811E+03  0.54011121300E+03  0.12500000000E+03 0.  0.
         21    1    1    2  503  501  0.22987360722E+03 -0.11892954005E+03  0.27987374021E+03  0.38120259870E+03  0.00000000000E+00 0. -1.
<mgrwt>
<rscale>  3 0.28742149E+03</rscale>
<asrwt>0</asrwt>
<pdfrwt beam="1">  1       21 0.12757476E+00 0.28742149E+03</pdfrwt>
<pdfrwt beam="2">  1       21 0.14165822E-01 0.28742149E+03</pdfrwt>
<totfact> 0.18726046E+04</totfact>
</mgrwt>
</event>
<event>
 4    0  0.1353130E-001  0.2597418E+03  0.7546771E-02  0.1107298E+00
         21   -1    0    0  502  501  0.00000000000E+00  0.00000000000E+00  0.10116158028E+03  0.10116158028E+03  0.00000000000E+00 0. -1.
         21   -1    0    0  503  502 -0.00000000000E+00 -0.00000000000E+00 -0.59063187308E+03  0.59063187308E+03  0.00000000000E+00 0. -1.
         25    1    1    2    0    0 -0.63757726529E+01 -0.22759650796E+03 -0.23421199945E+03  0.34974430889E+03  0.12500000000E+03 0.  0.
         21    1    1    2  503  501  0.63757726529E+01  0.22759650796E+03 -0.25525829334E+03  0.34204914447E+03  0.00000000000E+00 0. -1.
<mgrwt>
<rscale>  3 0.25974184E+03</rscale>
<asrwt>0</asrwt>
<pdfrwt beam="1">  1       21 0.15563320E-01 0.25974184E+03</pdfrwt>
<pdfrwt beam="2">  1       21 0.90866442E-01 0.25974184E+03</pdfrwt>
<totfact> 0.36481589E+04</totfact>
</mgrwt>
</event>
<event>
 4    0  0.1048295E-001  0.2448291E+03  0.7546771E-02  0.1116617E+00
         21   -1    0    0  503  501  0.00000000000E+00  0.00000000000E+00  0.29829597438E+03  0.29829597438E+03  0.00000000000E+00 0. -1.
         21   -1    0    0  501  502 -0.00000000000E+00 -0.00000000000E+00 -0.23334640444E+03  0.23334640444E+03  0.00000000000E+00 0.  1.
         25    1    1    2    0    0  0.16998520428E+03  0.12418256980E+03  0.16833027463E+03  0.29711338185E+03  0.12500000000E+03 0.  0.
         21    1    1    2  503  502 -0.16998520428E+03 -0.12418256980E+03 -0.10338070469E+03  0.23452899697E+03  0.00000000000E+00 0.  1.
<mgrwt>
<rscale>  3 0.24482908E+03</rscale>
<asrwt>0</asrwt>
<pdfrwt beam="1">  1       21 0.45891688E-01 0.24482908E+03</pdfrwt>
<pdfrwt beam="2">  1       21 0.35899447E-01 0.24482908E+03</pdfrwt>
<totfact> 0.33186540E+04</totfact>
</mgrwt>
</event>
<event>
 4    0  0.1265897E-001  0.3541752E+03  0.7546771E-02  0.1060914E+00
         21   -1    0    0  503  501  0.00000000000E+00  0.00000000000E+00  0.20186935685E+03  0.20186935685E+03  0.00000000000E+00 0.  1.
         21   -1    0    0  501  502 -0.00000000000E+00 -0.00000000000E+00 -0.84453592918E+03  0.84453592918E+03  0.00000000000E+00 0.  1.
         25    1    1    2    0    0 -0.18932893117E+03 -0.27197361677E+03 -0.37121167589E+02  0.35611525308E+03  0.12500000000E+03 0.  0.
         21    1    1    2  503  502  0.18932893117E+03  0.27197361677E+03 -0.60554540474E+03  0.69029003296E+03  0.00000000000E+00 0.  1.
<mgrwt>
<rscale>  3 0.35417523E+03</rscale>
<asrwt>0</asrwt>
<pdfrwt beam="1">  1       21 0.31056824E-01 0.35417523E+03</pdfrwt>
<pdfrwt beam="2">  1       21 0.12992861E+00 0.35417523E+03</pdfrwt>
<totfact> 0.38978489E+03</totfact>
</mgrwt>
</event>
<event>
 4    0  0.1197726E-001  0.2363923E+03  0.7546771E-02  0.1122220E+00
         21   -1    0    0  502  501  0.00000000000E+00  0.00000000000E+00  0.82678178456E+02  0.82678178456E+02  0.00000000000E+00 0. -1.
         21   -1    0    0  503  502 -0.00000000000E+00 -0.00000000000E+00 -0.12628376934E+04  0.12628376934E+04  0.00000000000E+00 0. -1.
         25    1    1    2    0    0 -0.31014062533E+02  0.19822830645E+03 -0.11731991853E+03  0.26390395381E+03  0.12500000000E+03 0.  0.
         21    1    1    2  503  501  0.31014062533E+02 -0.19822830645E+03 -0.10628395964E+04  0.10816119180E+04  0.00000000000E+00 0. -1.
<mgrwt>
<rscale>  3 0.23639233E+03</rscale>
<asrwt>0</asrwt>
<pdfrwt beam="1">  1       21 0.12719721E-01 0.23639233E+03</pdfrwt>
<pdfrwt beam="2">  1       21 0.19428270E+00 0.23639233E+03</pdfrwt>
<totfact> 0.74619759E+03</totfact>
</mgrwt>
</event>
<event>
 4    0  0.1160402E-001  0.2437709E+03  0.7546771E-02  0.1117306E+00
         21   -1    0    0  502  501  0.00000000000E+00  0.00000000000E+00  0.65682415709E+03  0.65682415709E+03  0.00000000000E+00 0.  1.
         21   -1    0    0  503  502 -0.00000000000E+00 -0.00000000000E+00 -0.31164987043E+03  0.31164987043E+03  0.00000000000E+00 0.  1.
         25    1    1    2    0    0  0.20860956152E+03 -0.16772342482E+02  0.59474686981E+03  0.64276597590E+03  0.12500000000E+03 0.  0.
         21    1    1    2  503  501 -0.20860956152E+03  0.16772342482E+02 -0.24957258314E+03  0.32570805162E+03  0.00000000000E+00 0.  1.
<mgrwt>
<rscale>  3 0.24377092E+03</rscale>
<asrwt>0</asrwt>
<pdfrwt beam="1">  1       21 0.10104987E+00 0.24377092E+03</pdfrwt>
<pdfrwt beam="2">  1       21 0.47946134E-01 0.24377092E+03</pdfrwt>
<totfact> 0.32001622E+03</totfact>
</mgrwt>
</event>
<event>
 4    0  0.1003929E-001  0.2964020E+03  0.7546771E-02  0.1087053E+00
         21   -1    0    0  503  501  0.00000000000E+00  0.00000000000E+00  0.63051981336E+03  0.63051981336E+03  0.00000000000E+00 0. -1.
         21   -1    0    0  501  502 -0.00000000000E+00 -0.00000000000E+00 -0.15105648203E+03  0.15105648203E+03  0.00000000000E+00 0.  1.
         25    1    1    2    0    0 -0.22516309737E+03 -0.14673359499E+03  0.40651161759E+03  0.50309627662E+03  0.12500000000E+03 0.  0.
         21    1    1    2  503  502  0.22516309737E+03  0.14673359499E+03  0.72951713749E+02  0.27848001877E+03  0.00000000000E+00 0.  1.
<mgrwt>
<rscale>  3 0.29640204E+03</rscale>
<asrwt>0</asrwt>
<pdfrwt beam="1">  1       21 0.97003047E-01 0.29640204E+03</pdfrwt>
<pdfrwt beam="2">  1       21 0.23239459E-01 0.29640204E+03</pdfrwt>
<totfact> 0.14511458E+04</totfact>
</mgrwt>
</event>
<event>
 4    0  0.1317893E-001  0.2410247E+03  0.7546771E-02  0.1119112E+00
         21   -1    0    0  503  501  0.00000000000E+00  0.00000000000E+00  0.45905179132E+03  0.45905179132E+03  0.00000000000E+00 0. -1.
         21   -1    0    0  501  502 -0.00000000000E+00 -0.00000000000E+00 -0.29856226458E+03  0.29856226458E+03  0.00000000000E+00 0. -1.
         25    1    1    2    0    0 -0.18281778243E+03 -0.95108282037E+02  0.38414184554E+03  0.45349518672E+03  0.12500000000E+03 0.  0.
         21    1    1    2  503  502  0.18281778243E+03  0.95108282037E+02 -0.22365231881E+03  0.30411886918E+03  0.00000000000E+00 0. -1.
<mgrwt>
<rscale>  3 0.24102474E+03</rscale>
<asrwt>0</asrwt>
<pdfrwt beam="1">  1       21 0.70623352E-01 0.24102474E+03</pdfrwt>
<pdfrwt beam="2">  1       21 0.45932656E-01 0.24102474E+03</pdfrwt>
<totfact> 0.79938963E+03</totfact>
</mgrwt>
</event>
<event>
 4    0  0.1258553E-001  0.2475486E+03  0.7546771E-02  0.1114864E+00
         21   -1    0    0  502  501  0.00000000000E+00  0.00000000000E+00  0.68183607100E+03  0.68183607100E+03  0.00000000000E+00 0. -1.
         21   -1    0    0  503  502 -0.00000000000E+00 -0.00000000000E+00 -0.14351295037E+03  0.14351295037E+03  0.00000000000E+00 0. -1.
         25    1    1    2    0    0  0.20866688706E+03  0.45972095467E+02  0.55832576754E+03  0.61074378099E+03  0.12500000000E+03 0.  0.
         21    1    1    2  503  501 -0.20866688706E+03 -0.45972095467E+02 -0.20002646908E+02  0.21460524038E+03  0.00000000000E+00 0. -1.
<mgrwt>
<rscale>  3 0.24754859E+03</rscale>
<asrwt>0</asrwt>
<pdfrwt beam="1">  1       21 0.10489786E+00 0.24754859E+03</pdfrwt>
<pdfrwt beam="2">  1       21 0.22078916E-01 0.24754859E+03</pdfrwt>
<totfact> 0.13577248E+04</totfact>
</mgrwt>
</event>
<event>
 4    0  0.1292199E-001  0.4708193E+03  0.7546771E-02  0.1021689E+00
         21   -1    0    0  503  501  0.00000000000E+00  0.00000000000E+00  0.27996679116E+03  0.27996679116E+03  0.00000000000E+00 0. -1.
         21   -1    0    0  501  502 -0.00000000000E+00 -0.00000000000E+00 -0.12211702126E+04  0.12211702126E+04  0.00000000000E+00 0.  1.
         25    1    1    2    0    0 -0.19084232715E+03 -0.41185561285E+03 -0.16591873852E+02  0.47111158970E+03  0.12500000000E+03 0.  0.
         21    1    1    2  503  502  0.19084232715E+03  0.41185561285E+03 -0.92461154763E+03  0.10300254141E+04  0.00000000000E+00 0.  1.
<mgrwt>
<rscale>  3 0.47081933E+03</rscale>
<asrwt>0</asrwt>
<pdfrwt beam="1">  1       21 0.43071814E-01 0.47081933E+03</pdfrwt>
<pdfrwt beam="2">  1       21 0.18787234E+00 0.47081933E+03</pdfrwt>
<totfact> 0.68760292E+02</totfact>
</mgrwt>
</event>
<event>
 4    0  0.1093755E-001  0.2525102E+03  0.7546771E-02  0.1111729E+00
         21   -1    0    0  503  501  0.00000000000E+00  0.00000000000E+00  0.39179071554E+03  0.39179071554E+03  0.00000000000E+00 0.  1.
         21   -1    0    0  501  502 -0.00000000000E+00 -0.00000000000E+00 -0.45576380046E+03  0.45576380046E+03  0.00000000000E+00 0.  1.
         25    1    1    2    0    0 -0.18982692855E+03  0.11000964070E+03  0.31860227406E+03  0.40653264677E+03  0.12500000000E+03 0.  0.
         21    1    1    2  503  502  0.18982692855E+03 -0.11000964070E+03 -0.38257535897E+03  0.44102186923E+03  0.00000000000E+00 0.  1.
<mgrwt>
<rscale>  3 0.25251017E+03</rscale>
<asrwt>0</asrwt>
<pdfrwt beam="1">  1       21 0.60275495E-01 0.25251017E+03</pdfrwt>
<pdfrwt beam="2">  1       21 0.70117508E-01 0.25251017E+03</pdfrwt>
<totfact> 0.45397925E+03</totfact>
</mgrwt>
</event>
<event>
 4    0  0.1227917E-001  0.3121374E+03  0.7546771E-02  0.1079326E+00
         21   -1    0    0  502  501  0.00000000000E+00  0.00000000000E+00  0.18296372246E+04  0.18296372246E+04  0.00000000000E+00 0. -1.
         21   -1    0    0  503  502 -0.00000000000E+00 -0.00000000000E+00 -0.65497416328E+02  0.65497416328E+02  0.00000000000E+00 0. -1.
         25    1    1    2    0    0 -0.28132579024E+03  0.51580551968E+02  0.13876598165E+04  0.14223324224E+04  0.12500000000E+03 0.  0.
         21    1    1    2  503  501  0.28132579024E+03 -0.51580551968E+02  0.37647999175E+03  0.47280221846E+03  0.00000000000E+00 0. -1.
<mgrwt>
<rscale>  3 0.31213740E+03</rscale>
<asrwt>0</asrwt>
<pdfrwt beam="1">  1       21 0.28148261E+00 0.31213740E+03</pdfrwt>
<pdfrwt beam="2">  1       21 0.10076527E-01 0.31213740E+03</pdfrwt>
<totfact> 0.31344793E+03</totfact>
</mgrwt>
</event>
<event>
 4    0  0.1176511E-001  0.2631327E+03  0.7546771E-02  0.1105276E+00
         21   -1    0    0  502  501  0.00000000000E+00  0.00000000000E+00  0.26861511790E+03  0.26861511790E+03  0.00000000000E+00 0. -1.
         21   -1    0    0  503  502 -0.00000000000E+00 -0.00000000000E+00 -0.25915727816E+03  0.25915727816E+03  0.00000000000E+00 0. -1.
         25    1    1    2    0    0  0.22699706294E+03  0.45674325297E+02 -0.86707117725E+02  0.27705041931E+03  0.12500000000E+03 0.  0.
         21    1    1    2  503  501 -0.22699706294E+03 -0.45674325297E+02  0.96164957463E+02  0.25072197674E+03  0.00000000000E+00 0. -1.
<mgrwt>
<rscale>  3 0.26313269E+03</rscale>
<asrwt>0</asrwt>
<pdfrwt beam="1">  1       21 0.41325403E-01 0.26313269E+03</pdfrwt>
<pdfrwt beam="2">  1       21 0.39870351E-01 0.26313269E+03</pdfrwt>
<totfact> 0.33061255E+04</totfact>
</mgrwt>
</event>
<event>
 4    0  0.1478930E-001  0.2961784E+03  0.7546771E-02  0.1087167E+00
         21   -1    0    0  503  501  0.00000000000E+00  0.00000000000E+00  0.90344318448E+03  0.90344318448E+03  0.00000000000E+00 0. -1.
         21   -1    0    0  501  502 -0.00000000000E+00 -0.00000000000E+00 -0.90883680945E+02  0.90883680945E+02  0.00000000000E+00 0. -1.
         25    1    1    2    0    0  0.23719322173E+03  0.12584122206E+03  0.51033972988E+03  0.59005785945E+03  0.12500000000E+03 0.  0.
         21    1    1    2  503  502 -0.23719322173E+03 -0.12584122206E+03  0.30221977366E+03  0.40426900598E+03  0.00000000000E+00 0. -1.
<mgrwt>
<rscale>  3 0.29617839E+03</rscale>
<asrwt>0</asrwt>
<pdfrwt beam="1">  1       21 0.13899125E+00 0.29617839E+03</pdfrwt>
<pdfrwt beam="2">  1       21 0.13982105E-01 0.29617839E+03</pdfrwt>
<totfact> 0.15317038E+04</totfact>
</mgrwt>
</event>
<event>
 4    0  0.1003929E-001  0.3355516E+03  0.7546771E-02  0.1068707E+00
         21   -1    0    0  502  501  0.00000000000E+00  0.00000000000E+00  0.38793271154E+03  0.38793271154E+03  0.00000000000E+00 0.  1.
         21   -1    0    0  503  502 -0.00000000000E+00 -0.00000000000E+00 -0.28894244829E+03  0.28894244829E+03  0.00000000000E+00 0. -1.
         25    1    1    2    0    0  0.24820830724E+03  0.18804918357E+03  0.13843632810E+03  0.36298688153E+03  0.12500000000E+03 0.  0.
         21    1    1    2  503  501 -0.24820830724E+03 -0.18804918357E+03 -0.39446064853E+02  0.31388827830E+03  0.00000000000E+00 0. -1.
<mgrwt>
<rscale>  3 0.33555157E+03</rscale>
<asrwt>0</asrwt>
<pdfrwt beam="1">  1       21 0.59681955E-01 0.33555157E+03</pdfrwt>
<pdfrwt beam="2">  1       21 0.44452684E-01 0.33555157E+03</pdfrwt>
<totfact> 0.11837872E+04</totfact>
</mgrwt>
</event>
<event>
 4    0  0.1253538E-001  0.2496031E+03  0.7546771E-02  0.1113556E+00
         21   -1    0    0  502  501  0.00000000000E+00  0.00000000000E+00  0.11326921093E+04  0.11326921093E+04  0.00000000000E+00 0.  1.
         21   -1    0    0  503  502 -0.00000000000E+00 -0.00000000000E+00 -0.58930041389E+02  0.58930041389E+02  0.00000000000E+00 0.  1.
         25    1    1    2    0    0 -0.13412907233E+03 -0.16936971744E+03  0.82601961384E+03  0.86290793928E+03  0.12500000000E+03 0.  0.
         21    1    1    2  503  501  0.13412907233E+03  0.16936971744E+03  0.24774245407E+03  0.32871421140E+03  0.00000000000E+00 0.  1.
<mgrwt>
<rscale>  3 0.24960310E+03</rscale>
<asrwt>0</asrwt>
<pdfrwt beam="1">  1       21 0.17426031E+00 0.24960310E+03</pdfrwt>
<pdfrwt beam="2">  1       21 0.90661611E-02 0.24960310E+03</pdfrwt>
<totfact> 0.18514551E+04</totfact>
</mgrwt>
</event>
<event>
 4    0  0.1472988E-001  0.3429737E+03  0.7546771E-02  0.1065536E+00
         21   -1    0    0  502  501  0.00000000000E+00  0.00000000000E+00  0.29857711518E+03  0.29857711518E+03  0.00000000000E+00 0. -1.
         21   -1    0    0  503  502 -0.00000000000E+00 -0.00000000000E+00 -0.37502963090E+03  0.37502963090E+03  0.00000000000E+00 0. -1.
         25    1    1    2    0    0  0.88277996184E+02 -0.30694133247E+03 -0.87756998842E+02  0.35402298941E+03  0.12500000000E+03 0.  0.
         21    1    1    2  503  501 -0.88277996184E+02  0.30694133247E+03  0.11304483126E+02  0.31958375667E+03  0.00000000000E+00 0. -1.
<mgrwt>
<rscale>  3 0.34297374E+03</rscale>
<asrwt>0</asrwt>
<pdfrwt beam="1">  1       21 0.45934941E-01 0.34297374E+03</pdfrwt>
<pdfrwt beam="2">  1       21 0.57696866E-01 0.34297374E+03</pdfrwt>
<totfact> 0.11864092E+04</totfact>
</mgrwt>
</event>
<event>
 4    0  0.1003929E-001  0.3629856E+03  0.7546771E-02  0.1057408E+00
         21   -1    0    0  503  501  0.00000000000E+00  0.00000000000E+00  0.13380197604E+03  0.13380197604E+03  0.00000000000E+00 0. -1.
         21   -1    0    0  501  502 -0.00000000000E+00 -0.00000000000E+00 -0.96006045939E+03  0.96006045939E+03  0.00000000000E+00 0.  1.
         25    1    1    2    0    0 -0.22947606226E+03  0.25194100348E+03 -0.52953500980E+03  0.64200144780E+03  0.12500000000E+03 0.  0.
         21    1    1    2  503  502  0.22947606226E+03 -0.25194100348E+03 -0.29672347355E+03  0.45186098763E+03  0.00000000000E+00 0.  1.
<mgrwt>
<rscale>  3 0.36298558E+03</rscale>
<asrwt>0</asrwt>
<pdfrwt beam="1">  1       21 0.20584921E-01 0.36298558E+03</pdfrwt>
<pdfrwt beam="2">  1       21 0.14770160E+00 0.36298558E+03</pdfrwt>
<totfact> 0.61563164E+03</totfact>
</mgrwt>
</event>
<event>
 4    0  0.1003929E-001  0.2597058E+03  0.7546771E-02  0.1107320E+00
         21   -1    0    0  503  501  0.00000000000E+00  0.00000000000E+00  0.18067426093E+04  0.18067426093E+04  0.00000000000E+00 0. -1.
         21   -1    0    0  501  502 -0.00000000000E+00 -0.00000000000E+00 -0.32887091510E+02  0.32887091510E+02  0.00000000000E+00 0. -1.
         25    1    1    2    0    0  0.20706332467E+03 -0.94587936348E+02  0.92115823210E+03  0.95706822468E+03  0.12500000000E+03 0.  0.
         21    1    1    2  503  502 -0.20706332467E+03  0.94587936348E+02  0.85269728572E+03  0.88256147616E+03  0.00000000000E+00 0. -1.
<mgrwt>
<rscale>  3 0.25970579E+03</rscale>
<asrwt>0</asrwt>
<pdfrwt beam="1">  1       21 0.27796032E+00 0.25970579E+03</pdfrwt>
<pdfrwt beam="2">  1       21 0.50595539E-02 0.25970579E+03</pdfrwt>
<totfact> 0.11366641E+04</totfact>
</mgrwt>
</event>
<event>
 4    0  0.1104485E-001  0.3124534E+03  0.7546771E-02  0.1079176E+00
         21   -1    0    0  502  501  0.00000000000E+00  0.00000000000E+00  0.72353115092E+03  0.72353115092E+03  0.00000000000E+00 0.  1.
         21   -1    0    0  503  502 -0.00000000000E+00 -0.00000000000E+00 -0.27604567748E+03  0.27604567748E+03  0.00000000000E+00 0.  1.
         25    1    1    2    0    0  0.28207369796E+03 -0.49361653369E+02  0.59900643864E+03  0.67560036814E+03  0.12500000000E+03 0.  0.
         21    1    1    2  503  501 -0.28207369796E+03  0.49361653369E+02 -0.15152096519E+03  0.32397646025E+03  0.00000000000E+00 0.  1.
<mgrwt>
<rscale>  3 0.31245343E+03</rscale>
<asrwt>0</asrwt>
<pdfrwt beam="1">  1       21 0.11131248E+00 0.31245343E+03</pdfrwt>
<pdfrwt beam="2">  1       21 0.42468566E-01 0.31245343E+03</pdfrwt>
<totfact> 0.31205239E+03</totfact>
</mgrwt>
</event>
<event>
 4    0  0.1360513E-001  0.3026899E+03  0.7546771E-02  0.1083904E+00
         21   -1    0    0  502  501  0.00000000000E+00  0.00000000000E+00  0.30915843246E+03  0.30915843246E+03  0.00000000000E+00 0.  1.
         21   -1    0    0  503  502 -0.00000000000E+00 -0.00000000000E+00 -0.40144967377E+03  0.40144967377E+03  0.00000000000E+00 0.  1.
         25    1    1    2    0    0 -0.25558988958E+03  0.10329567709E+03  0.15518120811E+03  0.34015054890E+03  0.12500000000E+03 0.  0.
         21    1    1    2  503  501  0.25558988958E+03 -0.10329567709E+03 -0.24747244942E+03  0.37045755734E+03  0.00000000000E+00 0.  1.
<mgrwt>
<rscale>  3 0.30268992E+03</rscale>
<asrwt>0</asrwt>
<pdfrwt beam="1">  1       21 0.47562836E-01 0.30268992E+03</pdfrwt>
<pdfrwt beam="2">  1       21 0.61761488E-01 0.30268992E+03</pdfrwt>
<totfact> 0.96742867E+03</totfact>
</mgrwt>
</event>
<event>
 4    0  0.1400825E-001  0.2485181E+03  0.7546771E-02  0.1114245E+00
         21   -1    0    0  502  501  0.00000000000E+00  0.00000000000E+00  0.16596820112E+03  0.16596820112E+03  0.00000000000E+00 0.  1.
         21   -1    0    0  503  502 -0.00000000000E+00 -0.00000000000E+00 -0.32753521101E+03  0.32753521101E+03  0.00000000000E+00 0.  1.
         25    1    1    2    0    0 -0.18774004306E+03 -0.10435472007E+03 -0.11443658116E+03  0.27360000452E+03  0.12500000000E+03 0.  0.
         21    1    1    2  503  501  0.18774004306E+03  0.10435472007E+03 -0.47130428726E+02  0.21990340761E+03  0.00000000000E+00 0.  1.
<mgrwt>
<rscale>  3 0.24851807E+03</rscale>
<asrwt>0</asrwt>
<pdfrwt beam="1">  1       21 0.25533570E-01 0.24851807E+03</pdfrwt>
<pdfrwt beam="2">  1       21 0.50390032E-01 0.24851807E+03</pdfrwt>
<totfact> 0.53217555E+04</totfact>
</mgrwt>
</event>
<event>
 4    0  0.1003929E-001  0.2361582E+03  0.7546771E-02  0.1122379E+00
         21   -1    0    0  503  501  0.00000000000E+00  0.00000000000E+00  0.64124326457E+02  0.64124326457E+02  0.00000000000E+00 0.  1.
         21   -1    0    0  501  502 -0.00000000000E+00 -0.00000000000E+00 -0.10052962341E+04  0.10052962341E+04  0.00000000000E+00 0.  1.
         25    1    1    2    0    0  0.12941937833E+03  0.15295856691E+03 -0.77160345413E+03  0.80693406738E+03  0.12500000000E+03 0.  0.
         21    1    1    2  503  502 -0.12941937833E+03 -0.15295856691E+03 -0.16956845353E+03  0.26248649319E+03  0.00000000000E+00 0.  1.
<mgrwt>
<rscale>  3 0.23615821E+03</rscale>
<asrwt>0</asrwt>
<pdfrwt beam="1">  1       21 0.98652814E-02 0.23615821E+03</pdfrwt>
<pdfrwt beam="2">  1       21 0.15466095E+00 0.23615821E+03</pdfrwt>
<totfact> 0.22296401E+04</totfact>
</mgrwt>
</event>
<event>
 4    0  0.1452478E-001  0.2776223E+03  0.7546771E-02  0.1096995E+00
         21   -1    0    0  502  501  0.00000000000E+00  0.00000000000E+00  0.12740832417E+03  0.12740832417E+03  0.00000000000E+00 0.  1.
         21   -1    0    0  503  502 -0.00000000000E+00 -0.00000000000E+00 -0.56017271145E+03  0.56017271145E+03  0.00000000000E+00 0.  1.
         25    1    1    2    0    0  0.19348494784E+03  0.15496031834E+03 -0.16620352926E+03  0.32357029906E+03  0.12500000000E+03 0.  0.
         21    1    1    2  503  501 -0.19348494784E+03 -0.15496031834E+03 -0.26656085803E+03  0.36401073656E+03  0.00000000000E+00 0.  1.
<mgrwt>
<rscale>  3 0.27762227E+03</rscale>
<asrwt>0</asrwt>
<pdfrwt beam="1">  1       21 0.19601281E-01 0.27762227E+03</pdfrwt>
<pdfrwt beam="2">  1       21 0.86180416E-01 0.27762227E+03</pdfrwt>
<totfact> 0.26676582E+04</totfact>
</mgrwt>
</event>
<event>
 4    0  0.1085826E-001  0.2457515E+03  0.7546771E-02  0.1116020E+00
         21   -1    0    0  502  501  0.00000000000E+00  0.00000000000E+00  0.26717464680E+03  0.26717464680E+03  0.00000000000E+00 0. -1.
         21   -1    0    0  503  502 -0.00000000000E+00 -0.00000000000E+00 -0.26355272704E+03  0.26355272704E+03  0.00000000000E+00 0.  1.
         25    1    1    2    0    0 -0.20924042554E+03  0.31420192562E+02  0.13626492102E+03  0.28100162434E+03  0.12500000000E+03 0.  0.
         21    1    1    2  503  501  0.20924042554E+03 -0.31420192562E+02 -0.13264300125E+03  0.24972574950E+03  0.00000000000E+00 0.  1.
<mgrwt>
<rscale>  3 0.24575147E+03</rscale>
<asrwt>0</asrwt>
<pdfrwt beam="1">  1       21 0.41103792E-01 0.24575147E+03</pdfrwt>
<pdfrwt beam="2">  1       21 0.40546573E-01 0.24575147E+03</pdfrwt>
<totfact> 0.32540853E+04</totfact>
</mgrwt>
</event>
<event>
 4    0  0.1221997E-001  0.2596613E+03  0.7546771E-02  0.1107347E+00
         21   -1    0    0  502  501  0.00000000000E+00  0.00000000000E+00  0.60978818840E+03  0.60978818840E+03  0.00000000000E+00 0.  1.
         21   -1    0    0  503  502 -0.00000000000E+00 -0.00000000000E+00 -0.17038952205E+03  0.17038952205E+03  0.00000000000E+00 0.  1.
         25    1    1    2    0    0 -0.41756944480E+02 -0.22373055205E+03  0.48306724002E+03  0.54843227541E+03  0.12500000000E+03 0.  0.
         21    1    1    2  503  501  0.41756944480E+02  0.22373055205E+03 -0.43668573675E+02  0.23174543504E+03  0.00000000000E+00 0.  1.
<mgrwt>
<rscale>  3 0.25966132E+03</rscale>
<asrwt>0</asrwt>
<pdfrwt beam="1">  1       21 0.93813566E-01 0.25966132E+03</pdfrwt>
<pdfrwt beam="2">  1       21 0.26213773E-01 0.25966132E+03</pdfrwt>
<totfact> 0.12679500E+04</totfact>
</mgrwt>
</event>
<event>
 4    0  0.1318378E-001  0.2499490E+03  0.7546771E-02  0.1113337E+00
         21   -1    0    0  503  501  0.00000000000E+00  0.00000000000E+00  0.11384410334E+03  0.11384410334E+03  0.00000000000E+00 0.  1.
         21   -1    0    0  501  502 -0.00000000000E+00 -0.00000000000E+00 -0.49590352835E+03  0.49590352835E+03  0.00000000000E+00 0.  1.
         25    1    1    2    0    0 -0.18639767732E+03 -0.11002447059E+03 -0.26254086710E+03  0.36249439325E+03  0.12500000000E+03 0.  0.
         21    1    1    2  503  502  0.18639767732E+03  0.11002447059E+03 -0.11951855791E+03  0.24725323845E+03  0.00000000000E+00 0.  1.
<mgrwt>
<rscale>  3 0.24994895E+03</rscale>
<asrwt>0</asrwt>
<pdfrwt beam="1">  1       21 0.17514478E-01 0.24994895E+03</pdfrwt>
<pdfrwt beam="2">  1       21 0.76292850E-01 0.24994895E+03</pdfrwt>
<totfact> 0.43996296E+04</totfact>
</mgrwt>
</event>
<event>
 4    0  0.1403945E-001  0.3049498E+03  0.7546771E-02  0.1082792E+00
         21   -1    0    0  503  501  0.00000000000E+00  0.00000000000E+00  0.74969266853E+02  0.74969266853E+02  0.00000000000E+00 0. -1.
         21   -1    0    0  501  502 -0.00000000000E+00 -0.00000000000E+00 -0.11475484807E+04  0.11475484807E+04  0.00000000000E+00 0. -1.
         25    1    1    2    0    0 -0.19013573469E+03 -0.20302161338E+03 -0.62740477922E+03  0.69758951403E+03  0.12500000000E+03 0.  0.
         21    1    1    2  503  502  0.19013573469E+03  0.20302161338E+03 -0.44517443466E+03  0.52492823355E+03  0.00000000000E+00 0. -1.
<mgrwt>
<rscale>  3 0.30494979E+03</rscale>
<asrwt>0</asrwt>
<pdfrwt beam="1">  1       21 0.11533733E-01 0.30494979E+03</pdfrwt>
<pdfrwt beam="2">  1       21 0.17654592E+00 0.30494979E+03</pdfrwt>
<totfact> 0.11272980E+04</totfact>
</mgrwt>
</event>
<event>
 4    0  0.1183067E-001  0.2726940E+03  0.7546771E-02  0.1099748E+00
         21   -1    0    0  503  501  0.00000000000E+00  0.00000000000E+00  0.12943230054E+03  0.12943230054E+03  0.00000000000E+00 0.  1.
         21   -1    0    0  501  502 -0.00000000000E+00 -0.00000000000E+00 -0.81030144101E+03  0.81030144101E+03  0.00000000000E+00 0. -1.
         25    1    1    2    0    0  0.13175350762E+03  0.20341588955E+03 -0.68523642537E+02  0.28117165661E+03  0.12500000000E+03 0.  0.
         21    1    1    2  503  502 -0.13175350762E+03 -0.20341588955E+03 -0.61234549793E+03  0.65856208494E+03  0.00000000000E+00 0. -1.
<mgrwt>
<rscale>  3 0.27269399E+03</rscale>
<asrwt>0</asrwt>
<pdfrwt beam="1">  1       21 0.19912662E-01 0.27269399E+03</pdfrwt>
<pdfrwt beam="2">  1       21 0.12466176E+00 0.27269399E+03</pdfrwt>
<totfact> 0.10635969E+04</totfact>
</mgrwt>
</event>
<event>
 4    0  0.1003929E-001  0.5006543E+03  0.7546771E-02  0.1013608E+00
         21   -1    0    0  502  501  0.00000000000E+00  0.00000000000E+00  0.24026183285E+04  0.24026183285E+04  0.00000000000E+00 0.  1.
         21   -1    0    0  503  502 -0.00000000000E+00 -0.00000000000E+00 -0.12907307496E+03  0.12907307496E+03  0.00000000000E+00 0. -1.
         25    1    1    2    0    0 -0.38543090727E+03 -0.29406243559E+03  0.17408766097E+04  0.18114375701E+04  0.12500000000E+03 0.  0.
         21    1    1    2  503  501  0.38543090727E+03  0.29406243559E+03  0.53266864386E+03  0.72025383335E+03  0.00000000000E+00 0. -1.
<mgrwt>
<rscale>  3 0.50065427E+03</rscale>
<asrwt>0</asrwt>
<pdfrwt beam="1">  1       21 0.36963356E+00 0.50065427E+03</pdfrwt>
<pdfrwt beam="2">  1       21 0.19857398E-01 0.50065427E+03</pdfrwt>
<totfact> 0.23334085E+02</totfact>
</mgrwt>
</event>
<event>
 4    0  0.1708826E-001  0.2909931E+03  0.7546771E-02  0.1089832E+00
         21   -1    0    0  502  501  0.00000000000E+00  0.00000000000E+00  0.55619977476E+03  0.55619977476E+03  0.00000000000E+00 0.  1.
         21   -1    0    0  503  502 -0.00000000000E+00 -0.00000000000E+00 -0.14246738941E+03  0.14246738941E+03  0.00000000000E+00 0.  1.
         25    1    1    2    0    0  0.26264676299E+03  0.82865606671E+01  0.27995642028E+03  0.40379770486E+03  0.12500000000E+03 0.  0.
         21    1    1    2  503  501 -0.26264676299E+03 -0.82865606671E+01  0.13377596508E+03  0.29486945930E+03  0.00000000000E+00 0.  1.
<mgrwt>
<rscale>  3 0.29099311E+03</rscale>
<asrwt>0</asrwt>
<pdfrwt beam="1">  1       21 0.85569195E-01 0.29099311E+03</pdfrwt>
<pdfrwt beam="2">  1       21 0.21918060E-01 0.29099311E+03</pdfrwt>
<totfact> 0.21834201E+04</totfact>
</mgrwt>
</event>
<event>
 4    0  0.1087497E-001  0.2668585E+03  0.7546771E-02  0.1103091E+00
         21   -1    0    0  503  501  0.00000000000E+00  0.00000000000E+00  0.16972465364E+03  0.16972465364E+03  0.00000000000E+00 0. -1.
         21   -1    0    0  501  502 -0.00000000000E+00 -0.00000000000E+00 -0.12881261834E+04  0.12881261834E+04  0.00000000000E+00 0. -1.
         25    1    1    2    0    0  0.72670263099E+02  0.22429333363E+03  0.45150996187E+02  0.27065121301E+03  0.12500000000E+03 0.  0.
         21    1    1    2  503  502 -0.72670263099E+02 -0.22429333363E+03 -0.11635525259E+04  0.11871996240E+04  0.00000000000E+00 0. -1.
<mgrwt>
<rscale>  3 0.26685851E+03</rscale>
<asrwt>0</asrwt>
<pdfrwt beam="1">  1       21 0.26111485E-01 0.26685851E+03</pdfrwt>
<pdfrwt beam="2">  1       21 0.19817326E+00 0.26685851E+03</pdfrwt>
<totfact> 0.17983845E+03</totfact>
</mgrwt>
</event>
<event>
 4    0  0.1458228E-001  0.2546517E+03  0.7546771E-02  0.1110400E+00
         21   -1    0    0  502  501  0.00000000000E+00  0.00000000000E+00  0.14460504082E+03  0.14460504082E+03  0.00000000000E+00 0.  1.
         21   -1    0    0  503  502 -0.00000000000E+00 -0.00000000000E+00 -0.49497086941E+03  0.49497086941E+03  0.00000000000E+00 0.  1.
         25    1    1    2    0    0  0.78498357636E+02 -0.20751028091E+03 -0.39556671943E+02  0.25770572196E+03  0.12500000000E+03 0.  0.
         21    1    1    2  503  501 -0.78498357636E+02  0.20751028091E+03 -0.31080915665E+03  0.38187018827E+03  0.00000000000E+00 0.  1.
<mgrwt>
<rscale>  3 0.25465174E+03</rscale>
<asrwt>0</asrwt>
<pdfrwt beam="1">  1       21 0.22246930E-01 0.25465174E+03</pdfrwt>
<pdfrwt beam="2">  1       21 0.76149364E-01 0.25465174E+03</pdfrwt>
<totfact> 0.28143599E+04</totfact>
</mgrwt>
</event>
<event>
 4    0  0.1003929E-001  0.4385365E+03  0.7546771E-02  0.1031197E+00
         21   -1    0    0  503  501  0.00000000000E+00  0.00000000000E+00  0.13527224016E+04  0.13527224016E+04  0.00000000000E+00 0.  1.
         21   -1    0    0  501  502 -0.00000000000E+00 -0.00000000000E+00 -0.10199700074E+04  0.10199700074E+04  0.00000000000E+00 0.  1.
         25    1    1    2    0    0 -0.97438059040E+02 -0.40889500549E+03  0.12710325534E+04  0.13445586833E+04  0.12500000000E+03 0.  0.
         21    1    1    2  503  502  0.97438059040E+02  0.40889500549E+03 -0.93828015918E+03  0.10281337257E+04  0.00000000000E+00 0.  1.
<mgrwt>
<rscale>  3 0.43853654E+03</rscale>
<asrwt>0</asrwt>
<pdfrwt beam="1">  1       21 0.20811114E+00 0.43853654E+03</pdfrwt>
<pdfrwt beam="2">  1       21 0.15691846E+00 0.43853654E+03</pdfrwt>
<totfact> 0.24391700E+01</totfact>
</mgrwt>
</event>
<event>
 4    0  0.1162991E-001  0.2661744E+03  0.7546771E-02  0.1103489E+00
         21   -1    0    0  502  501  0.00000000000E+00  0.00000000000E+00  0.76849139516E+03  0.76849139516E+03  0.00000000000E+00 0.  1.
         21   -1    0    0  503  502 -0.00000000000E+00 -0.00000000000E+00 -0.17585127095E+03  0.17585127095E+03  0.00000000000E+00 0.  1.
         25    1    1    2    0    0 -0.22872580436E+03 -0.53928740544E+02  0.65005001701E+03  0.70243421561E+03  0.12500000000E+03 0.  0.
         21    1    1    2  503  501  0.22872580436E+03  0.53928740544E+02 -0.57409892801E+02  0.24190845051E+03  0.00000000000E+00 0.  1.
<mgrwt>
<rscale>  3 0.26617438E+03</rscale>
<asrwt>0</asrwt>
<pdfrwt beam="1">  1       21 0.11822944E+00 0.26617438E+03</pdfrwt>
<pdfrwt beam="2">  1       21 0.27054042E-01 0.26617438E+03</pdfrwt>
<totfact> 0.67907165E+03</totfact>
</mgrwt>
</event>
<event>
 4    0  0.1627654E-001  0.2446554E+03  0.7546771E-02  0.1116730E+00
         21   -1    0    0  502  501  0.00000000000E+00  0.00000000000E+00  0.17037141352E+03  0.17037141352E+03  0.00000000000E+00 0. -1.
         21   -1    0    0  503  502 -0.00000000000E+00 -0.00000000000E+00 -0.31861888195E+03  0.31861888195E+03  0.00000000000E+00 0. -1.
         25    1    1    2    0    0  0.17653108269E+03 -0.11431560380E+03 -0.26769802774E+02  0.24611562886E+03  0.12500000000E+03 0.  0.
         21    1    1    2  503  501 -0.17653108269E+03  0.11431560380E+03 -0.12147766566E+03  0.24287466661E+03  0.00000000000E+00 0. -1.
<mgrwt>
<rscale>  3 0.24465543E+03</rscale>
<asrwt>0</asrwt>
<pdfrwt beam="1">  1       21 0.26210987E-01 0.24465543E+03</pdfrwt>
<pdfrwt beam="2">  1       21 0.49018289E-01 0.24465543E+03</pdfrwt>
<totfact> 0.53693602E+04</totfact>
</mgrwt>
</event>
<event>
 4    0  0.1407665E-001  0.3353937E+03  0.7546771E-02  0.1068775E+00
         21   -1    0    0  503  501  0.00000000000E+00  0.00000000000E+00  0.15640498793E+03  0.15640498793E+03  0.00000000000E+00 0.  1.
         21   -1    0    0  501  502 -0.00000000000E+00 -0.00000000000E+00 -0.74138085617E+03  0.74138085617E+03  0.00000000000E+00 0.  1.
         25    1    1    2    0    0  0.16927233132E+03 -0.26117205021E+03 -0.16152423190E+03  0.37226205750E+03  0.12500000000E+03 0.  0.
         21    1    1    2  503  502 -0.16927233132E+03  0.26117205021E+03 -0.42345163634E+03  0.52552378660E+03  0.00000000000E+00 0.  1.
<mgrwt>
<rscale>  3 0.33539374E+03</rscale>
<asrwt>0</asrwt>
<pdfrwt beam="1">  1       21 0.24062305E-01 0.33539374E+03</pdfrwt>
<pdfrwt beam="2">  1       21 0.11405860E+00 0.33539374E+03</pdfrwt>
<totfact> 0.89977187E+03</totfact>
</mgrwt>
</event>
<event>
 4    0  0.1132771E-001  0.2450695E+03  0.7546771E-02  0.1116461E+00
         21   -1    0    0  502  501  0.00000000000E+00  0.00000000000E+00  0.68271331048E+03  0.68271331048E+03  0.00000000000E+00 0.  1.
         21   -1    0    0  503  502 -0.00000000000E+00 -0.00000000000E+00 -0.10852218515E+03  0.10852218515E+03  0.00000000000E+00 0.  1.
         25    1    1    2    0    0  0.21027435015E+03  0.14791203454E+02  0.51805179961E+03  0.57309401419E+03  0.12500000000E+03 0.  0.
         21    1    1    2  503  501 -0.21027435015E+03 -0.14791203454E+02  0.56139325719E+02  0.21814148144E+03  0.00000000000E+00 0.  1.
<mgrwt>
<rscale>  3 0.24506955E+03</rscale>
<asrwt>0</asrwt>
<pdfrwt beam="1">  1       21 0.10503281E+00 0.24506955E+03</pdfrwt>
<pdfrwt beam="2">  1       21 0.16695721E-01 0.24506955E+03</pdfrwt>
<totfact> 0.22864442E+04</totfact>
</mgrwt>
</event>
<event>
 4    0  0.1443556E-001  0.2625921E+03  0.7546771E-02  0.1105596E+00
         21   -1    0    0  502  501  0.00000000000E+00  0.00000000000E+00  0.50698390112E+03  0.50698390112E+03  0.00000000000E+00 0. -1.
         21   -1    0    0  503  502 -0.00000000000E+00 -0.00000000000E+00 -0.12011511855E+03  0.12011511855E+03  0.00000000000E+00 0. -1.
         25    1    1    2    0    0 -0.15643912116E+03  0.16987168572E+03  0.20302616164E+03  0.33192500742E+03  0.12500000000E+03 0.  0.
         21    1    1    2  503  501  0.15643912116E+03 -0.16987168572E+03  0.18384262093E+03  0.29517401226E+03  0.00000000000E+00 0. -1.
<mgrwt>
<rscale>  3 0.26259206E+03</rscale>
<asrwt>0</asrwt>
<pdfrwt beam="1">  1       21 0.77997522E-01 0.26259206E+03</pdfrwt>
<pdfrwt beam="2">  1       21 0.18479249E-01 0.26259206E+03</pdfrwt>
<totfact> 0.37680579E+04</totfact>
</mgrwt>
</event>
<event>
 4    0  0.1435417E-001  0.2587137E+03  0.7546771E-02  0.1107919E+00
         21   -1    0    0  502  501  0.00000000000E+00  0.00000000000E+00  0.18388745173E+03  0.18388745173E+03  0.00000000000E+00 0.  1.
         21   -1    0    0  503  502 -0.00000000000E+00 -0.00000000000E+00 -0.46020688620E+03  0.46020688620E+03  0.00000000000E+00 0.  1.
         25    1    1    2    0    0 -0.22505588918E+03  0.25643863890E+02  0.32889216921E+02  0.26079582358E+03  0.12500000000E+03 0.  0.
         21    1    1    2  503  501  0.22505588918E+03 -0.25643863890E+02 -0.30920865139E+03  0.38329851435E+03  0.00000000000E+00 0.  1.
<mgrwt>
<rscale>  3 0.25871367E+03</rscale>
<asrwt>0</asrwt>
<pdfrwt beam="1">  1       21 0.28290377E-01 0.25871367E+03</pdfrwt>
<pdfrwt beam="2">  1       21 0.70801060E-01 0.25871367E+03</pdfrwt>
<totfact> 0.20830998E+04</totfact>
</mgrwt>
</event>
<event>
 4    0  0.1317931E-001  0.2627006E+03  0.7546771E-02  0.1105531E+00
         21   -1    0    0  502  501  0.00000000000E+00  0.00000000000E+00  0.11666598373E+03  0.11666598373E+03  0.00000000000E+00 0.  1.
         21   -1    0    0  503  502 -0.00000000000E+00 -0.00000000000E+00 -0.69746194714E+03  0.69746194714E+03  0.00000000000E+00 0.  1.
         25    1    1    2    0    0  0.22836069236E+03 -0.35185528827E+02 -0.10072701415E+03  0.28134953107E+03  0.12500000000E+03 0.  0.
         21    1    1    2  503  501 -0.22836069236E+03  0.35185528827E+02 -0.48006894926E+03  0.53277839980E+03  0.00000000000E+00 0.  1.
<mgrwt>
<rscale>  3 0.26270064E+03</rscale>
<asrwt>0</asrwt>
<pdfrwt beam="1">  1       21 0.17948613E-01 0.26270064E+03</pdfrwt>
<pdfrwt beam="2">  1       21 0.10730184E+00 0.26270064E+03</pdfrwt>
<totfact> 0.18819717E+04</totfact>
</mgrwt>
</event>
<event>
 4    0  0.1003929E-001  0.2631713E+03  0.7546771E-02  0.1105253E+00
         21   -1    0    0  502  501  0.00000000000E+00  0.00000000000E+00  0.50434355087E+02  0.50434355087E+02  0.00000000000E+00 0. -1.
         21   -1    0    0  503  502 -0.00000000000E+00 -0.00000000000E+00 -0.17672509899E+04  0.17672509899E+04  0.00000000000E+00 0. -1.
         25    1    1    2    0    0 -0.12514865694E+03 -0.19486397082E+03 -0.14041016847E+04  0.14285519572E+04  0.12500000000E+03 0.  0.
         21    1    1    2  503  501  0.12514865694E+03  0.19486397082E+03 -0.31271495009E+03  0.38913338775E+03  0.00000000000E+00 0. -1.
<mgrwt>
<rscale>  3 0.26317134E+03</rscale>
<asrwt>0</asrwt>
<pdfrwt beam="1">  1       21 0.77591318E-02 0.26317134E+03</pdfrwt>
<pdfrwt beam="2">  1       21 0.27188476E+00 0.26317134E+03</pdfrwt>
<totfact> 0.58788040E+03</totfact>
</mgrwt>
</event>
<event>
 4    0  0.1753688E-001  0.2629691E+03  0.7546771E-02  0.1105372E+00
         21   -1    0    0  503  501  0.00000000000E+00  0.00000000000E+00  0.79704379542E+03  0.79704379542E+03  0.00000000000E+00 0.  1.
         21   -1    0    0  501  502 -0.00000000000E+00 -0.00000000000E+00 -0.22916531837E+03  0.22916531837E+03  0.00000000000E+00 0. -1.
         25    1    1    2    0    0 -0.14628703401E+03 -0.17924242750E+03  0.70831964043E+03  0.75555903618E+03  0.12500000000E+03 0.  0.
         21    1    1    2  503  502  0.14628703401E+03  0.17924242750E+03 -0.14044116338E+03  0.27065007760E+03  0.00000000000E+00 0. -1.
<mgrwt>
<rscale>  3 0.26296909E+03</rscale>
<asrwt>0</asrwt>
<pdfrwt beam="1">  1       21 0.12262212E+00 0.26296909E+03</pdfrwt>
<pdfrwt beam="2">  1       21 0.35256203E-01 0.26296909E+03</pdfrwt>
<totfact> 0.36846113E+03</totfact>
</mgrwt>
</event>
<event>
 4    0  0.1003929E-001  0.3146069E+03  0.7546771E-02  0.1078158E+00
         21   -1    0    0  503  501  0.00000000000E+00  0.00000000000E+00  0.20369641277E+04  0.20369641277E+04  0.00000000000E+00 0. -1.
         21   -1    0    0  501  502 -0.00000000000E+00 -0.00000000000E+00 -0.86811707794E+02  0.86811707794E+02  0.00000000000E+00 0.  1.
         25    1    1    2    0    0 -0.27443268468E+03 -0.89661429118E+02  0.17360918982E+04  0.17643674643E+04  0.12500000000E+03 0.  0.
         21    1    1    2  503  502  0.27443268468E+03  0.89661429118E+02  0.21406052171E+03  0.35940837114E+03  0.00000000000E+00 0.  1.
<mgrwt>
<rscale>  3 0.31460685E+03</rscale>
<asrwt>0</asrwt>
<pdfrwt beam="1">  1       21 0.31337906E+00 0.31460685E+03</pdfrwt>
<pdfrwt beam="2">  1       21 0.13355649E-01 0.31460685E+03</pdfrwt>
<totfact> 0.12188743E+03</totfact>
</mgrwt>
</event>
<event>
 4    0  0.1147123E-001  0.4070975E+03  0.7546771E-02  0.1041349E+00
         21   -1    0    0  502  501  0.00000000000E+00  0.00000000000E+00  0.14671824454E+04  0.14671824454E+04  0.00000000000E+00 0. -1.
         21   -1    0    0  503  502 -0.00000000000E+00 -0.00000000000E+00 -0.19194927138E+03  0.19194927138E+03  0.00000000000E+00 0.  1.
         25    1    1    2    0    0 -0.30420563782E+03 -0.23992147611E+03  0.11963948959E+04  0.12637599185E+04  0.12500000000E+03 0.  0.
         21    1    1    2  503  501  0.30420563782E+03  0.23992147611E+03  0.78838278176E+02  0.39537179829E+03  0.00000000000E+00 0.  1.
<mgrwt>
<rscale>  3 0.40709751E+03</rscale>
<asrwt>0</asrwt>
<pdfrwt beam="1">  1       21 0.22572037E+00 0.40709751E+03</pdfrwt>
<pdfrwt beam="2">  1       21 0.29530658E-01 0.40709751E+03</pdfrwt>
<totfact> 0.86041459E+02</totfact>
</mgrwt>
</event>
<event>
 4    0  0.1568066E-001  0.2787869E+03  0.7546771E-02  0.1096353E+00
         21   -1    0    0  502  501  0.00000000000E+00  0.00000000000E+00  0.13694897519E+03  0.13694897519E+03  0.00000000000E+00 0. -1.
         21   -1    0    0  503  502 -0.00000000000E+00 -0.00000000000E+00 -0.58969763676E+03  0.58969763676E+03  0.00000000000E+00 0. -1.
         25    1    1    2    0    0  0.25631962303E+02 -0.24787122169E+03 -0.10300408672E+03  0.29720696814E+03  0.12500000000E+03 0.  0.
         21    1    1    2  503  501 -0.25631962303E+02  0.24787122169E+03 -0.34974457485E+03  0.42943964380E+03  0.00000000000E+00 0. -1.
<mgrwt>
<rscale>  3 0.27878691E+03</rscale>
<asrwt>0</asrwt>
<pdfrwt beam="1">  1       21 0.21069073E-01 0.27878691E+03</pdfrwt>
<pdfrwt beam="2">  1       21 0.90722714E-01 0.27878691E+03</pdfrwt>
<totfact> 0.20642527E+04</totfact>
</mgrwt>
</event>
<event>
 4    0  0.1243016E-001  0.3014845E+03  0.7546771E-02  0.1084501E+00
         21   -1    0    0  503  501  0.00000000000E+00  0.00000000000E+00  0.10729597350E+03  0.10729597350E+03  0.00000000000E+00 0.  1.
         21   -1    0    0  501  502 -0.00000000000E+00 -0.00000000000E+00 -0.10381740844E+04  0.10381740844E+04  0.00000000000E+00 0.  1.
         25    1    1    2    0    0  0.22402857496E+03  0.15836378478E+03 -0.19232222561E+03  0.35760415153E+03  0.12500000000E+03 0.  0.
         21    1    1    2  503  502 -0.22402857496E+03 -0.15836378478E+03 -0.73855588533E+03  0.78786590641E+03  0.00000000000E+00 0.  1.
<mgrwt>
<rscale>  3 0.30148448E+03</rscale>
<asrwt>0</asrwt>
<pdfrwt beam="1">  1       21 0.16507072E-01 0.30148448E+03</pdfrwt>
<pdfrwt beam="2">  1       21 0.15971909E+00 0.30148448E+03</pdfrwt>
<totfact> 0.77588563E+03</totfact>
</mgrwt>
</event>
<event>
 4    0  0.1039870E-001  0.2736179E+03  0.7546771E-02  0.1099227E+00
         21   -1    0    0  503  501  0.00000000000E+00  0.00000000000E+00  0.49262200752E+03  0.49262200752E+03  0.00000000000E+00 0. -1.
         21   -1    0    0  501  502 -0.00000000000E+00 -0.00000000000E+00 -0.17598368131E+03  0.17598368131E+03  0.00000000000E+00 0. -1.
         25    1    1    2    0    0 -0.95511171806E+02 -0.22387354621E+03  0.56272158585E+01  0.27367574644E+03  0.12500000000E+03 0.  0.
         21    1    1    2  503  502  0.95511171806E+02  0.22387354621E+03  0.31101111035E+03  0.39492994238E+03  0.00000000000E+00 0. -1.
<mgrwt>
<rscale>  3 0.27361789E+03</rscale>
<asrwt>0</asrwt>
<pdfrwt beam="1">  1       21 0.75788001E-01 0.27361789E+03</pdfrwt>
<pdfrwt beam="2">  1       21 0.27074413E-01 0.27361789E+03</pdfrwt>
<totfact> 0.19347085E+04</totfact>
</mgrwt>
</event>
<event>
 4    0  0.1003929E-001  0.3420272E+03  0.7546771E-02  0.1065936E+00
         21   -1    0    0  502  501  0.00000000000E+00  0.00000000000E+00  0.20296528420E+04  0.20296528420E+04  0.00000000000E+00 0.  1.
         21   -1    0    0  503  502 -0.00000000000E+00 -0.00000000000E+00 -0.68551345667E+02  0.68551345667E+02  0.00000000000E+00 0.  1.
         25    1    1    2    0    0  0.14715320812E+03  0.28231812658E+03  0.14958349240E+04  0.15344395430E+04  0.12500000000E+03 0.  0.
         21    1    1    2  503  501 -0.14715320812E+03 -0.28231812658E+03  0.46526657236E+03  0.56376464470E+03  0.00000000000E+00 0.  1.
<mgrwt>
<rscale>  3 0.34202718E+03</rscale>
<asrwt>0</asrwt>
<pdfrwt beam="1">  1       21 0.31225424E+00 0.34202718E+03</pdfrwt>
<pdfrwt beam="2">  1       21 0.10546362E-01 0.34202718E+03</pdfrwt>
<totfact> 0.18581590E+03</totfact>
</mgrwt>
</event>
<event>
 4    0  0.1528654E-001  0.2528947E+03  0.7546771E-02  0.1111489E+00
         21   -1    0    0  503  501  0.00000000000E+00  0.00000000000E+00  0.14165849099E+03  0.14165849099E+03  0.00000000000E+00 0. -1.
         21   -1    0    0  501  502 -0.00000000000E+00 -0.00000000000E+00 -0.48098806447E+03  0.48098806447E+03  0.00000000000E+00 0. -1.
         25    1    1    2    0    0  0.17057443541E+03 -0.13869054592E+03 -0.47565541227E+02  0.25732894562E+03  0.12500000000E+03 0.  0.
         21    1    1    2  503  502 -0.17057443541E+03  0.13869054592E+03 -0.29176403225E+03  0.36531760984E+03  0.00000000000E+00 0. -1.
<mgrwt>
<rscale>  3 0.25289465E+03</rscale>
<asrwt>0</asrwt>
<pdfrwt beam="1">  1       21 0.21793614E-01 0.25289465E+03</pdfrwt>
<pdfrwt beam="2">  1       21 0.73998165E-01 0.25289465E+03</pdfrwt>
<totfact> 0.31237455E+04</totfact>
</mgrwt>
</event>
<event>
 4    0  0.1115349E-001  0.2434865E+03  0.7546771E-02  0.1117492E+00
         21   -1    0    0  502  501  0.00000000000E+00  0.00000000000E+00  0.10216236716E+04  0.10216236716E+04  0.00000000000E+00 0.  1.
         21   -1    0    0  503  502 -0.00000000000E+00 -0.00000000000E+00 -0.12036211798E+03  0.12036211798E+03  0.00000000000E+00 0.  1.
         25    1    1    2    0    0 -0.18098288970E+03 -0.10443119765E+03  0.90070312853E+03  0.93303365810E+03  0.12500000000E+03 0.  0.
         21    1    1    2  503  501  0.18098288970E+03  0.10443119765E+03  0.55842507646E+00  0.20895213147E+03  0.00000000000E+00 0.  1.
<mgrwt>
<rscale>  3 0.24348651E+03</rscale>
<asrwt>0</asrwt>
<pdfrwt beam="1">  1       21 0.15717287E+00 0.24348651E+03</pdfrwt>
<pdfrwt beam="2">  1       21 0.18517250E-01 0.24348651E+03</pdfrwt>
<totfact> 0.67735122E+03</totfact>
</mgrwt>
</event>
<event>
 4    0  0.1676016E-001  0.2984996E+03  0.7546771E-02  0.1085993E+00
         21   -1    0    0  502  501  0.00000000000E+00  0.00000000000E+00  0.18047767506E+03  0.18047767506E+03  0.00000000000E+00 0. -1.
         21   -1    0    0  503  502 -0.00000000000E+00 -0.00000000000E+00 -0.52147736721E+03  0.52147736721E+03  0.00000000000E+00 0. -1.
         25    1    1    2    0    0  0.16750058341E+03  0.21312099754E+03 -0.47195226063E+02  0.30220753531E+03  0.12500000000E+03 0.  0.
         21    1    1    2  503  501 -0.16750058341E+03 -0.21312099754E+03 -0.29380446609E+03  0.39974750697E+03  0.00000000000E+00 0. -1.
<mgrwt>
<rscale>  3 0.29849959E+03</rscale>
<asrwt>0</asrwt>
<pdfrwt beam="1">  1       21 0.27765796E-01 0.29849959E+03</pdfrwt>
<pdfrwt beam="2">  1       21 0.80227287E-01 0.29849959E+03</pdfrwt>
<totfact> 0.16011422E+04</totfact>
</mgrwt>
</event>
<event>
 4    0  0.1003929E-001  0.2778079E+03  0.7546771E-02  0.1096892E+00
         21   -1    0    0  502  501  0.00000000000E+00  0.00000000000E+00  0.85361027424E+02  0.85361027424E+02  0.00000000000E+00 0. -1.
         21   -1    0    0  503  502 -0.00000000000E+00 -0.00000000000E+00 -0.10790936095E+04  0.10790936095E+04  0.00000000000E+00 0.  1.
         25    1    1    2    0    0  0.96123718603E+01  0.24791094636E+03 -0.22754917870E+03  0.35910425192E+03  0.12500000000E+03 0.  0.
         21    1    1    2  503  501 -0.96123718603E+01 -0.24791094636E+03 -0.76618340334E+03  0.80535038498E+03  0.00000000000E+00 0.  1.
<mgrwt>
<rscale>  3 0.27780791E+03</rscale>
<asrwt>0</asrwt>
<pdfrwt beam="1">  1       21 0.13132465E-01 0.27780791E+03</pdfrwt>
<pdfrwt beam="2">  1       21 0.16601441E+00 0.27780791E+03</pdfrwt>
<totfact> 0.10746029E+04</totfact>
</mgrwt>
</event>
<event>
 4    0  0.1293211E-001  0.2410839E+03  0.7546771E-02  0.1119073E+00
         21   -1    0    0  503  501  0.00000000000E+00  0.00000000000E+00  0.39102289731E+03  0.39102289731E+03  0.00000000000E+00 0.  1.
         21   -1    0    0  501  502 -0.00000000000E+00 -0.00000000000E+00 -0.13076408980E+03  0.13076408980E+03  0.00000000000E+00 0.  1.
         25    1    1    2    0    0  0.46691815504E+02 -0.20078929796E+03  0.10143753913E+03  0.26155504613E+03  0.12500000000E+03 0.  0.
         21    1    1    2  503  502 -0.46691815504E+02  0.20078929796E+03  0.15882126839E+03  0.26023194098E+03  0.00000000000E+00 0.  1.
<mgrwt>
<rscale>  3 0.24108394E+03</rscale>
<asrwt>0</asrwt>
<pdfrwt beam="1">  1       21 0.60157368E-01 0.24108394E+03</pdfrwt>
<pdfrwt beam="2">  1       21 0.20117552E-01 0.24108394E+03</pdfrwt>
<totfact> 0.57587537E+04</totfact>
</mgrwt>
</event>
<event>
 4    0  0.1432174E-001  0.2437756E+03  0.7546771E-02  0.1117303E+00
         21   -1    0    0  503  501  0.00000000000E+00  0.00000000000E+00  0.29504426693E+03  0.29504426693E+03  0.00000000000E+00 0.  1.
         21   -1    0    0  501  502 -0.00000000000E+00 -0.00000000000E+00 -0.20811390284E+03  0.20811390284E+03  0.00000000000E+00 0.  1.
         25    1    1    2    0    0 -0.13597138618E+03 -0.15910158076E+03  0.14794612773E+03  0.28515712786E+03  0.12500000000E+03 0.  0.
         21    1    1    2  503  502  0.13597138618E+03  0.15910158076E+03 -0.61015763635E+02  0.21800104191E+03  0.00000000000E+00 0.  1.
<mgrwt>
<rscale>  3 0.24377557E+03</rscale>
<asrwt>0</asrwt>
<pdfrwt beam="1">  1       21 0.45391426E-01 0.24377557E+03</pdfrwt>
<pdfrwt beam="2">  1       21 0.32017523E-01 0.24377557E+03</pdfrwt>
<totfact> 0.42642796E+04</totfact>
</mgrwt>
</event>
<event>
 4    0  0.1003929E-001  0.2633621E+03  0.7546771E-02  0.1105140E+00
         21   -1    0    0  502  501  0.00000000000E+00  0.00000000000E+00  0.16856189592E+03  0.16856189592E+03  0.00000000000E+00 0.  1.
         21   -1    0    0  503  502 -0.00000000000E+00 -0.00000000000E+00 -0.33969161394E+04  0.33969161394E+04  0.00000000000E+00 0.  1.
         25    1    1    2    0    0  0.56659497581E+02  0.22477604607E+03  0.59058446539E+02  0.26990270406E+03  0.12500000000E+03 0.  0.
         21    1    1    2  503  501 -0.56659497581E+02 -0.22477604607E+03 -0.32874126900E+04  0.32955753313E+04  0.00000000000E+00 0.  1.
<mgrwt>
<rscale>  3 0.26336205E+03</rscale>
<asrwt>0</asrwt>
<pdfrwt beam="1">  1       21 0.25932601E-01 0.26336205E+03</pdfrwt>
<pdfrwt beam="2">  1       21 0.52260246E+00 0.26336205E+03</pdfrwt>
<totfact> 0.16300476E+01</totfact>
</mgrwt>
</event>
<event>
 4    0  0.1100030E-001  0.2745478E+03  0.7546771E-02  0.1098705E+00
         21   -1    0    0  502  501  0.00000000000E+00  0.00000000000E+00  0.81311091639E+03  0.81311091639E+03  0.00000000000E+00 0. -1.
         21   -1    0    0  503  502 -0.00000000000E+00 -0.00000000000E+00 -0.42360406038E+03  0.42360406038E+03  0.00000000000E+00 0. -1.
         25    1    1    2    0    0 -0.16704027595E+03  0.17846305924E+03  0.75140877825E+03  0.79999479332E+03  0.12500000000E+03 0.  0.
         21    1    1    2  503  501  0.16704027595E+03 -0.17846305924E+03 -0.36190192224E+03  0.43672018344E+03  0.00000000000E+00 0. -1.
<mgrwt>
<rscale>  3 0.27454784E+03</rscale>
<asrwt>0</asrwt>
<pdfrwt beam="1">  1       21 0.12509399E+00 0.27454784E+03</pdfrwt>
<pdfrwt beam="2">  1       21 0.65169855E-01 0.27454784E+03</pdfrwt>
<totfact> 0.96101881E+02</totfact>
</mgrwt>
</event>
<event>
 4    0  0.1633762E-001  0.2360820E+03  0.7546771E-02  0.1122431E+00
         21   -1    0    0  503  501  0.00000000000E+00  0.00000000000E+00  0.12437178137E+04  0.12437178137E+04  0.00000000000E+00 0.  1.
         21   -1    0    0  501  502 -0.00000000000E+00 -0.00000000000E+00 -0.86296886388E+02  0.86296886388E+02  0.00000000000E+00 0. -1.
         25    1    1    2    0    0  0.20015031270E+03  0.70390014413E+01  0.10951145226E+04  0.11202725172E+04  0.12500000000E+03 0.  0.
         21    1    1    2  503  502 -0.20015031270E+03 -0.70390014413E+01  0.62306404738E+02  0.20974218290E+03  0.00000000000E+00 0. -1.
<mgrwt>
<rscale>  3 0.23608197E+03</rscale>
<asrwt>0</asrwt>
<pdfrwt beam="1">  1       21 0.19134119E+00 0.23608197E+03</pdfrwt>
<pdfrwt beam="2">  1       21 0.13276445E-01 0.23608197E+03</pdfrwt>
<totfact> 0.72234116E+03</totfact>
</mgrwt>
</event>
<event>
 4    0  0.1450797E-001  0.3410208E+03  0.7546771E-02  0.1066362E+00
         21   -1    0    0  502  501  0.00000000000E+00  0.00000000000E+00  0.15404058862E+03  0.15404058862E+03  0.00000000000E+00 0. -1.
         21   -1    0    0  503  502 -0.00000000000E+00 -0.00000000000E+00 -0.77380215571E+03  0.77380215571E+03  0.00000000000E+00 0. -1.
         25    1    1    2    0    0  0.25855625693E+03 -0.18389909784E+03 -0.18011875669E+03  0.38566563588E+03  0.12500000000E+03 0.  0.
         21    1    1    2  503  501 -0.25855625693E+03  0.18389909784E+03 -0.43964281040E+03  0.54217710845E+03  0.00000000000E+00 0. -1.
<mgrwt>
<rscale>  3 0.34102084E+03</rscale>
<asrwt>0</asrwt>
<pdfrwt beam="1">  1       21 0.23698552E-01 0.34102084E+03</pdfrwt>
<pdfrwt beam="2">  1       21 0.11904648E+00 0.34102084E+03</pdfrwt>
<totfact> 0.83088142E+03</totfact>
</mgrwt>
</event>
<event>
 4    0  0.1417756E-001  0.2621496E+03  0.7546771E-02  0.1105859E+00
         21   -1    0    0  503  501  0.00000000000E+00  0.00000000000E+00  0.44382117198E+03  0.44382117198E+03  0.00000000000E+00 0.  1.
         21   -1    0    0  501  502 -0.00000000000E+00 -0.00000000000E+00 -0.20718417285E+03  0.20718417285E+03  0.00000000000E+00 0.  1.
         25    1    1    2    0    0 -0.12881832248E+03  0.19105829833E+03  0.31297622344E+03  0.40826039486E+03  0.12500000000E+03 0.  0.
         21    1    1    2  503  502  0.12881832248E+03 -0.19105829833E+03 -0.76339224321E+02  0.24274494997E+03  0.00000000000E+00 0.  1.
<mgrwt>
<rscale>  3 0.26214964E+03</rscale>
<asrwt>0</asrwt>
<pdfrwt beam="1">  1       21 0.68280180E-01 0.26214964E+03</pdfrwt>
<pdfrwt beam="2">  1       21 0.31874488E-01 0.26214964E+03</pdfrwt>
<totfact> 0.17833983E+04</totfact>
</mgrwt>
</event>
<event>
 4    0  0.1298530E-001  0.2619600E+03  0.7546771E-02  0.1105971E+00
         21   -1    0    0  503  501  0.00000000000E+00  0.00000000000E+00  0.32661796687E+03  0.32661796687E+03  0.00000000000E+00 0. -1.
         21   -1    0    0  501  502 -0.00000000000E+00 -0.00000000000E+00 -0.18682350982E+03  0.18682350982E+03  0.00000000000E+00 0. -1.
         25    1    1    2    0    0  0.22882656173E+03  0.25227961642E+02  0.96647694538E+02  0.27922002482E+03  0.12500000000E+03 0.  0.
         21    1    1    2  503  502 -0.22882656173E+03 -0.25227961642E+02  0.43146762513E+02  0.23422145187E+03  0.00000000000E+00 0. -1.
<mgrwt>
<rscale>  3 0.26196001E+03</rscale>
<asrwt>0</asrwt>
<pdfrwt beam="1">  1       21 0.50248918E-01 0.26196001E+03</pdfrwt>
<pdfrwt beam="2">  1       21 0.28742078E-01 0.26196001E+03</pdfrwt>
<totfact> 0.42330231E+04</totfact>
</mgrwt>
</event>
<event>
 4    0  0.1219749E-001  0.2447052E+03  0.7546771E-02  0.1116697E+00
         21   -1    0    0  502  501  0.00000000000E+00  0.00000000000E+00  0.32891405945E+02  0.32891405945E+02  0.00000000000E+00 0. -1.
         21   -1    0    0  503  502 -0.00000000000E+00 -0.00000000000E+00 -0.18000299462E+04  0.18000299462E+04  0.00000000000E+00 0. -1.
         25    1    1    2    0    0 -0.20937026892E+03 -0.20487118754E+02 -0.61796961690E+03  0.66465560928E+03  0.12500000000E+03 0.  0.
         21    1    1    2  503  501  0.20937026892E+03  0.20487118754E+02 -0.11491689234E+04  0.11682657429E+04  0.00000000000E+00 0. -1.
<mgrwt>
<rscale>  3 0.24470519E+03</rscale>
<asrwt>0</asrwt>
<pdfrwt beam="1">  1       21 0.50602164E-02 0.24470519E+03</pdfrwt>
<pdfrwt beam="2">  1       21 0.27692768E+00 0.24470519E+03</pdfrwt>
<totfact> 0.11657807E+04</totfact>
</mgrwt>
</event>
<event>
 4    0  0.1415992E-001  0.2584033E+03  0.7546771E-02  0.1108106E+00
         21   -1    0    0  502  501  0.00000000000E+00  0.00000000000E+00  0.32243610878E+03  0.32243610878E+03  0.00000000000E+00 0.  1.
         21   -1    0    0  503  502 -0.00000000000E+00 -0.00000000000E+00 -0.28862531261E+03  0.28862531261E+03  0.00000000000E+00 0.  1.
         25    1    1    2    0    0 -0.22230100888E+03  0.41587295027E+02  0.20301368303E+03  0.32861344640E+03  0.12500000000E+03 0.  0.
         21    1    1    2  503  501  0.22230100888E+03 -0.41587295027E+02 -0.16920288686E+03  0.28244797499E+03  0.00000000000E+00 0.  1.
<mgrwt>
<rscale>  3 0.25840325E+03</rscale>
<asrwt>0</asrwt>
<pdfrwt beam="1">  1       21 0.49605555E-01 0.25840325E+03</pdfrwt>
<pdfrwt beam="2">  1       21 0.44403894E-01 0.25840325E+03</pdfrwt>
<totfact> 0.18201403E+04</totfact>
</mgrwt>
</event>
<event>
 4    0  0.1467827E-001  0.2527873E+03  0.7546771E-02  0.1111556E+00
         21   -1    0    0  503  501  0.00000000000E+00  0.00000000000E+00  0.13079490427E+03  0.13079490427E+03  0.00000000000E+00 0.  1.
         21   -1    0    0  501  502 -0.00000000000E+00 -0.00000000000E+00 -0.47751206184E+03  0.47751206184E+03  0.00000000000E+00 0.  1.
         25    1    1    2    0    0 -0.21875615700E+03 -0.20547205376E+02 -0.85242023826E+02  0.26677264946E+03  0.12500000000E+03 0.  0.
         21    1    1    2  503  502  0.21875615700E+03  0.20547205376E+02 -0.26147513375E+03  0.34153431664E+03  0.00000000000E+00 0.  1.
<mgrwt>
<rscale>  3 0.25278735E+03</rscale>
<asrwt>0</asrwt>
<pdfrwt beam="1">  1       21 0.20122293E-01 0.25278735E+03</pdfrwt>
<pdfrwt beam="2">  1       21 0.73463395E-01 0.25278735E+03</pdfrwt>
<totfact> 0.36913171E+04</totfact>
</mgrwt>
</event>
<event>
 4    0  0.1161377E-001  0.4397050E+03  0.7546771E-02  0.1030837E+00
         21   -1    0    0  502  501  0.00000000000E+00  0.00000000000E+00  0.70830775679E+03  0.70830775679E+03  0.00000000000E+00 0. -1.
         21   -1    0    0  503  502 -0.00000000000E+00 -0.00000000000E+00 -0.13486150672E+04  0.13486150672E+04  0.00000000000E+00 0.  1.
         25    1    1    2    0    0  0.37065370650E+03  0.20082657422E+03  0.60174626747E+03  0.74527783643E+03  0.12500000000E+03 0.  0.
         21    1    1    2  503  501 -0.37065370650E+03 -0.20082657422E+03 -0.12420535779E+04  0.13116449876E+04  0.00000000000E+00 0.  1.
<mgrwt>
<rscale>  3 0.43970500E+03</rscale>
<asrwt>0</asrwt>
<pdfrwt beam="1">  1       21 0.10897042E+00 0.43970500E+03</pdfrwt>
<pdfrwt beam="2">  1       21 0.20747924E+00 0.43970500E+03</pdfrwt>
<totfact> 0.63605011E+01</totfact>
</mgrwt>
</event>
<event>
 4    0  0.1003929E-001  0.5543819E+03  0.7546771E-02  0.1000485E+00
         21   -1    0    0  502  501  0.00000000000E+00  0.00000000000E+00  0.10892331736E+04  0.10892331736E+04  0.00000000000E+00 0. -1.
         21   -1    0    0  503  502 -0.00000000000E+00 -0.00000000000E+00 -0.88685347696E+03  0.88685347696E+03  0.00000000000E+00 0. -1.
         25    1    1    2    0    0 -0.53087938303E+03 -0.99405312379E+02  0.92229617455E+03  0.10760899447E+04  0.12500000000E+03 0.  0.
         21    1    1    2  503  501  0.53087938303E+03  0.99405312379E+02 -0.71991647790E+03  0.89999670588E+03  0.00000000000E+00 0. -1.
<mgrwt>
<rscale>  3 0.55438194E+03</rscale>
<asrwt>0</asrwt>
<pdfrwt beam="1">  1       21 0.16757433E+00 0.55438194E+03</pdfrwt>
<pdfrwt beam="2">  1       21 0.13643900E+00 0.55438194E+03</pdfrwt>
<totfact> 0.63646542E+01</totfact>
</mgrwt>
</event>
<event>
 4    0  0.1029868E-001  0.5873466E+03  0.7546771E-02  0.9932011E-01
         21   -1    0    0  503  501  0.00000000000E+00  0.00000000000E+00  0.10774183677E+04  0.10774183677E+04  0.00000000000E+00 0.  1.
         21   -1    0    0  501  502 -0.00000000000E+00 -0.00000000000E+00 -0.42668073873E+03  0.42668073873E+03  0.00000000000E+00 0. -1.
         25    1    1    2    0    0  0.47363872611E+03 -0.32406389891E+03  0.71647913800E+03  0.92645475261E+03  0.12500000000E+03 0.  0.
         21    1    1    2  503  502 -0.47363872611E+03  0.32406389891E+03 -0.65741509058E+02  0.57764435378E+03  0.00000000000E+00 0. -1.
<mgrwt>
<rscale>  3 0.58734662E+03</rscale>
<asrwt>0</asrwt>
<pdfrwt beam="1">  1       21 0.16575667E+00 0.58734662E+03</pdfrwt>
<pdfrwt beam="2">  1       21 0.65643191E-01 0.58734662E+03</pdfrwt>
<totfact> 0.38079956E+02</totfact>
</mgrwt>
</event>
<event>
 4    0  0.1003929E-001  0.2513996E+03  0.7546771E-02  0.1112423E+00
         21   -1    0    0  502  501  0.00000000000E+00  0.00000000000E+00  0.43004282542E+03  0.43004282542E+03  0.00000000000E+00 0.  1.
         21   -1    0    0  503  502 -0.00000000000E+00 -0.00000000000E+00 -0.15259145434E+04  0.15259145434E+04  0.00000000000E+00 0.  1.
         25    1    1    2    0    0  0.21314538877E+03  0.46322910428E+02  0.38461478534E+03  0.45948917494E+03  0.12500000000E+03 0.  0.
         21    1    1    2  503  501 -0.21314538877E+03 -0.46322910428E+02 -0.14804865033E+04  0.14964681939E+04  0.00000000000E+00 0.  1.
<mgrwt>
<rscale>  3 0.25139962E+03</rscale>
<asrwt>0</asrwt>
<pdfrwt beam="1">  1       21 0.66160435E-01 0.25139962E+03</pdfrwt>
<pdfrwt beam="2">  1       21 0.23475608E+00 0.25139962E+03</pdfrwt>
<totfact> 0.15944076E+02</totfact>
</mgrwt>
</event>
<event>
 4    0  0.1297683E-001  0.2859931E+03  0.7546771E-02  0.1092460E+00
         21   -1    0    0  503  501  0.00000000000E+00  0.00000000000E+00  0.11625882836E+04  0.11625882836E+04  0.00000000000E+00 0. -1.
         21   -1    0    0  501  502 -0.00000000000E+00 -0.00000000000E+00 -0.10523085505E+03  0.10523085505E+03  0.00000000000E+00 0. -1.
         25    1    1    2    0    0  0.15491482558E+03  0.20534961370E+03  0.94462803634E+03  0.98697223572E+03  0.12500000000E+03 0.  0.
         21    1    1    2  503  502 -0.15491482558E+03 -0.20534961370E+03  0.11272939224E+03  0.28084690297E+03  0.00000000000E+00 0. -1.
<mgrwt>
<rscale>  3 0.28599312E+03</rscale>
<asrwt>0</asrwt>
<pdfrwt beam="1">  1       21 0.17885973E+00 0.28599312E+03</pdfrwt>
<pdfrwt beam="2">  1       21 0.16189363E-01 0.28599312E+03</pdfrwt>
<totfact> 0.59095736E+03</totfact>
</mgrwt>
</event>
<event>
 4    0  0.1491985E-001  0.2412310E+03  0.7546771E-02  0.1118975E+00
         21   -1    0    0  502  501  0.00000000000E+00  0.00000000000E+00  0.17891203223E+03  0.17891203223E+03  0.00000000000E+00 0.  1.
         21   -1    0    0  503  502 -0.00000000000E+00 -0.00000000000E+00 -0.31645375258E+03  0.31645375258E+03  0.00000000000E+00 0.  1.
         25    1    1    2    0    0  0.34573426217E+02 -0.20340124657E+03  0.10451945667E+02  0.24145730901E+03  0.12500000000E+03 0.  0.
         21    1    1    2  503  501 -0.34573426217E+02  0.20340124657E+03 -0.14799366602E+03  0.25390847581E+03  0.00000000000E+00 0.  1.
<mgrwt>
<rscale>  3 0.24123099E+03</rscale>
<asrwt>0</asrwt>
<pdfrwt beam="1">  1       21 0.27524928E-01 0.24123099E+03</pdfrwt>
<pdfrwt beam="2">  1       21 0.48685192E-01 0.24123099E+03</pdfrwt>
<totfact> 0.49614781E+04</totfact>
</mgrwt>
</event>
<event>
 4    0  0.1435820E-001  0.3132950E+03  0.7546771E-02  0.1078777E+00
         21   -1    0    0  503  501  0.00000000000E+00  0.00000000000E+00  0.59543039934E+03  0.59543039934E+03  0.00000000000E+00 0. -1.
         21   -1    0    0  501  502 -0.00000000000E+00 -0.00000000000E+00 -0.18823422959E+03  0.18823422959E+03  0.00000000000E+00 0. -1.
         25    1    1    2    0    0  0.11441636405E+02  0.28705020160E+03  0.38380004236E+03  0.49543536591E+03  0.12500000000E+03 0.  0.
         21    1    1    2  503  502 -0.11441636405E+02 -0.28705020160E+03  0.23396127390E+02  0.28822926302E+03  0.00000000000E+00 0. -1.
<mgrwt>
<rscale>  3 0.31329496E+03</rscale>
<asrwt>0</asrwt>
<pdfrwt beam="1">  1       21 0.91604676E-01 0.31329496E+03</pdfrwt>
<pdfrwt beam="2">  1       21 0.28959113E-01 0.31329496E+03</pdfrwt>
<totfact> 0.10770200E+04</totfact>
</mgrwt>
</event>
<event>
 4    0  0.1394989E-001  0.2607589E+03  0.7546771E-02  0.1106688E+00
         21   -1    0    0  502  501  0.00000000000E+00  0.00000000000E+00  0.56638554028E+03  0.56638554028E+03  0.00000000000E+00 0.  1.
         21   -1    0    0  503  502 -0.00000000000E+00 -0.00000000000E+00 -0.13668919163E+03  0.13668919163E+03  0.00000000000E+00 0.  1.
         25    1    1    2    0    0 -0.40375009335E+02  0.22525549794E+03  0.39250423775E+03  0.47122686403E+03  0.12500000000E+03 0.  0.
         21    1    1    2  503  501  0.40375009335E+02 -0.22525549794E+03  0.37192110902E+02  0.23184786788E+03  0.00000000000E+00 0.  1.
<mgrwt>
<rscale>  3 0.26075886E+03</rscale>
<asrwt>0</asrwt>
<pdfrwt beam="1">  1       21 0.87136235E-01 0.26075886E+03</pdfrwt>
<pdfrwt beam="2">  1       21 0.21029107E-01 0.26075886E+03</pdfrwt>
<totfact> 0.22943946E+04</totfact>
</mgrwt>
</event>
<event>
 4    0  0.1045644E-001  0.4196761E+03  0.7546771E-02  0.1037172E+00
         21   -1    0    0  502  501  0.00000000000E+00  0.00000000000E+00  0.15311094341E+03  0.15311094341E+03  0.00000000000E+00 0.  1.
         21   -1    0    0  503  502 -0.00000000000E+00 -0.00000000000E+00 -0.14191045937E+04  0.14191045937E+04  0.00000000000E+00 0.  1.
         25    1    1    2    0    0  0.31289017030E+03 -0.25020538751E+03 -0.27093266413E+03  0.49953228434E+03  0.12500000000E+03 0.  0.
         21    1    1    2  503  501 -0.31289017030E+03  0.25020538751E+03 -0.99506098617E+03  0.10726832528E+04  0.00000000000E+00 0.  1.
<mgrwt>
<rscale>  3 0.41967606E+03</rscale>
<asrwt>0</asrwt>
<pdfrwt beam="1">  1       21 0.23555529E-01 0.41967606E+03</pdfrwt>
<pdfrwt beam="2">  1       21 0.21832379E+00 0.41967606E+03</pdfrwt>
<totfact> 0.14816468E+03</totfact>
</mgrwt>
</event>
<event>
 4    0  0.1309946E-001  0.2455697E+03  0.7546771E-02  0.1116137E+00
         21   -1    0    0  502  501  0.00000000000E+00  0.00000000000E+00  0.53099274413E+03  0.53099274413E+03  0.00000000000E+00 0.  1.
         21   -1    0    0  503  502 -0.00000000000E+00 -0.00000000000E+00 -0.19829160246E+03  0.19829160246E+03  0.00000000000E+00 0.  1.
         25    1    1    2    0    0  0.19788943122E+03 -0.74291608212E+02  0.43109334501E+03  0.49613097278E+03  0.12500000000E+03 0.  0.
         21    1    1    2  503  501 -0.19788943122E+03  0.74291608212E+02 -0.98392203335E+02  0.23315337381E+03  0.00000000000E+00 0.  1.
<mgrwt>
<rscale>  3 0.24556968E+03</rscale>
<asrwt>0</asrwt>
<pdfrwt beam="1">  1       21 0.81691191E-01 0.24556968E+03</pdfrwt>
<pdfrwt beam="2">  1       21 0.30506401E-01 0.24556968E+03</pdfrwt>
<totfact> 0.13102620E+04</totfact>
</mgrwt>
</event>
<event>
 4    0  0.1314691E-001  0.2562031E+03  0.7546771E-02  0.1109446E+00
         21   -1    0    0  502  501  0.00000000000E+00  0.00000000000E+00  0.46395998989E+03  0.46395998989E+03  0.00000000000E+00 0.  1.
         21   -1    0    0  503  502 -0.00000000000E+00 -0.00000000000E+00 -0.22803517033E+03  0.22803517033E+03  0.00000000000E+00 0.  1.
         25    1    1    2    0    0 -0.11284842208E+03 -0.19308091322E+03  0.35565078731E+03  0.43832349690E+03  0.12500000000E+03 0.  0.
         21    1    1    2  503  501  0.11284842208E+03  0.19308091322E+03 -0.11972596775E+03  0.25367166332E+03  0.00000000000E+00 0.  1.
<mgrwt>
<rscale>  3 0.25620306E+03</rscale>
<asrwt>0</asrwt>
<pdfrwt beam="1">  1       21 0.71378460E-01 0.25620306E+03</pdfrwt>
<pdfrwt beam="2">  1       21 0.35082334E-01 0.25620306E+03</pdfrwt>
<totfact> 0.13394284E+04</totfact>
</mgrwt>
</event>
<event>
 4    0  0.1256733E-001  0.2641524E+03  0.7546771E-02  0.1104674E+00
         21   -1    0    0  503  501  0.00000000000E+00  0.00000000000E+00  0.13395730574E+03  0.13395730574E+03  0.00000000000E+00 0. -1.
         21   -1    0    0  501  502 -0.00000000000E+00 -0.00000000000E+00 -0.93412295276E+03  0.93412295276E+03  0.00000000000E+00 0. -1.
         25    1    1    2    0    0 -0.47805047822E+02  0.22774150156E+03 -0.32769502543E+02  0.26617729886E+03  0.12500000000E+03 0.  0.
         21    1    1    2  503  502  0.47805047822E+02 -0.22774150156E+03 -0.76739614448E+03  0.80190295965E+03  0.00000000000E+00 0. -1.
<mgrwt>
<rscale>  3 0.26415244E+03</rscale>
<asrwt>0</asrwt>
<pdfrwt beam="1">  1       21 0.20608816E-01 0.26415244E+03</pdfrwt>
<pdfrwt beam="2">  1       21 0.14371122E+00 0.26415244E+03</pdfrwt>
<totfact> 0.69440785E+03</totfact>
</mgrwt>
</event>
<event>
 4    0  0.1487444E-001  0.2516358E+03  0.7546771E-02  0.1112275E+00
         21   -1    0    0  503  501  0.00000000000E+00  0.00000000000E+00  0.32089861041E+03  0.32089861041E+03  0.00000000000E+00 0.  1.
         21   -1    0    0  501  502 -0.00000000000E+00 -0.00000000000E+00 -0.26774755693E+03  0.26774755693E+03  0.00000000000E+00 0.  1.
         25    1    1    2    0    0  0.21797408406E+03 -0.13524036380E+02  0.20339911407E+03  0.32356112326E+03  0.12500000000E+03 0.  0.
         21    1    1    2  503  502 -0.21797408406E+03  0.13524036380E+02 -0.15024806060E+03  0.26508504408E+03  0.00000000000E+00 0.  1.
<mgrwt>
<rscale>  3 0.25163585E+03</rscale>
<asrwt>0</asrwt>
<pdfrwt beam="1">  1       21 0.49369017E-01 0.25163585E+03</pdfrwt>
<pdfrwt beam="2">  1       21 0.41191932E-01 0.25163585E+03</pdfrwt>
<totfact> 0.21517661E+04</totfact>
</mgrwt>
</event>
<event>
 4    0  0.1003929E-001  0.4842120E+03  0.7546771E-02  0.1017984E+00
         21   -1    0    0  503  501  0.00000000000E+00  0.00000000000E+00  0.45008059304E+03  0.45008059304E+03  0.00000000000E+00 0. -1.
         21   -1    0    0  501  502 -0.00000000000E+00 -0.00000000000E+00 -0.85762984756E+03  0.85762984756E+03  0.00000000000E+00 0. -1.
         25    1    1    2    0    0  0.10049186005E+03 -0.45687813239E+03  0.21432988798E+03  0.52952671573E+03  0.12500000000E+03 0.  0.
         21    1    1    2  503  502 -0.10049186005E+03  0.45687813239E+03 -0.62187914249E+03  0.77818372487E+03  0.00000000000E+00 0. -1.
<mgrwt>
<rscale>  3 0.48421198E+03</rscale>
<asrwt>0</asrwt>
<pdfrwt beam="1">  1       21 0.69243168E-01 0.48421198E+03</pdfrwt>
<pdfrwt beam="2">  1       21 0.13194305E+00 0.48421198E+03</pdfrwt>
<totfact> 0.65426306E+02</totfact>
</mgrwt>
</event>
<event>
 4    0  0.1251864E-001  0.2891476E+03  0.7546771E-02  0.1090795E+00
         21   -1    0    0  502  501  0.00000000000E+00  0.00000000000E+00  0.12600706744E+04  0.12600706744E+04  0.00000000000E+00 0.  1.
         21   -1    0    0  503  502 -0.00000000000E+00 -0.00000000000E+00 -0.11368887654E+03  0.11368887654E+03  0.00000000000E+00 0. -1.
         25    1    1    2    0    0 -0.21706747975E+02 -0.25982711728E+03  0.10605543995E+04  0.10992642758E+04  0.12500000000E+03 0.  0.
         21    1    1    2  503  501  0.21706747975E+02  0.25982711728E+03  0.85827398422E+02  0.27449527519E+03  0.00000000000E+00 0. -1.
<mgrwt>
<rscale>  3 0.28914756E+03</rscale>
<asrwt>0</asrwt>
<pdfrwt beam="1">  1       21 0.19385702E+00 0.28914756E+03</pdfrwt>
<pdfrwt beam="2">  1       21 0.17490597E-01 0.28914756E+03</pdfrwt>
<totfact> 0.40422477E+03</totfact>
</mgrwt>
</event>
<event>
 4    0  0.1003929E-001  0.3047844E+03  0.7546771E-02  0.1082873E+00
         21   -1    0    0  503  501  0.00000000000E+00  0.00000000000E+00  0.63532026252E+02  0.63532026252E+02  0.00000000000E+00 0.  1.
         21   -1    0    0  501  502 -0.00000000000E+00 -0.00000000000E+00 -0.14836800597E+04  0.14836800597E+04  0.00000000000E+00 0. -1.
         25    1    1    2    0    0 -0.11577746539E+02 -0.27773093663E+03 -0.49595750451E+03  0.58212315162E+03  0.12500000000E+03 0.  0.
         21    1    1    2  503  502  0.11577746539E+02  0.27773093663E+03 -0.92419052896E+03  0.96508893434E+03  0.00000000000E+00 0. -1.
<mgrwt>
<rscale>  3 0.30478438E+03</rscale>
<asrwt>0</asrwt>
<pdfrwt beam="1">  1       21 0.97741582E-02 0.30478438E+03</pdfrwt>
<pdfrwt beam="2">  1       21 0.22825846E+00 0.30478438E+03</pdfrwt>
<totfact> 0.69554639E+03</totfact>
</mgrwt>
</event>
<event>
 4    0  0.1346729E-001  0.2401648E+03  0.7546771E-02  0.1119683E+00
         21   -1    0    0  503  501  0.00000000000E+00  0.00000000000E+00  0.34165226233E+03  0.34165226233E+03  0.00000000000E+00 0.  1.
         21   -1    0    0  501  502 -0.00000000000E+00 -0.00000000000E+00 -0.22281716925E+03  0.22281716925E+03  0.00000000000E+00 0.  1.
         25    1    1    2    0    0  0.14262903799E+03  0.14734678298E+03  0.22886031785E+03  0.33174713566E+03  0.12500000000E+03 0.  0.
         21    1    1    2  503  502 -0.14262903799E+03 -0.14734678298E+03 -0.11002522477E+03  0.23272229592E+03  0.00000000000E+00 0.  1.
<mgrwt>
<rscale>  3 0.24016477E+03</rscale>
<asrwt>0</asrwt>
<pdfrwt beam="1">  1       21 0.52561886E-01 0.24016477E+03</pdfrwt>
<pdfrwt beam="2">  1       21 0.34279565E-01 0.24016477E+03</pdfrwt>
<totfact> 0.27456072E+04</totfact>
</mgrwt>
</event>
<event>
 4    0  0.1564796E-001  0.2783055E+03  0.7546771E-02  0.1096618E+00
         21   -1    0    0  502  501  0.00000000000E+00  0.00000000000E+00  0.11810220543E+03  0.11810220543E+03  0.00000000000E+00 0. -1.
         21   -1    0    0  503  502 -0.00000000000E+00 -0.00000000000E+00 -0.74835991022E+03  0.74835991022E+03  0.00000000000E+00 0. -1.
         25    1    1    2    0    0  0.16890491242E+03 -0.18248314049E+03 -0.12864233265E+03  0.30659878629E+03  0.12500000000E+03 0.  0.
         21    1    1    2  503  501 -0.16890491242E+03  0.18248314049E+03 -0.50161537214E+03  0.55986332937E+03  0.00000000000E+00 0. -1.
<mgrwt>
<rscale>  3 0.27830553E+03</rscale>
<asrwt>0</asrwt>
<pdfrwt beam="1">  1       21 0.18169571E-01 0.27830553E+03</pdfrwt>
<pdfrwt beam="2">  1       21 0.11513229E+00 0.27830553E+03</pdfrwt>
<totfact> 0.15364048E+04</totfact>
</mgrwt>
</event>
<event>
 4    0  0.1053995E-001  0.3353708E+03  0.7546771E-02  0.1068785E+00
         21   -1    0    0  502  501  0.00000000000E+00  0.00000000000E+00  0.49230858804E+03  0.49230858804E+03  0.00000000000E+00 0.  1.
         21   -1    0    0  503  502 -0.00000000000E+00 -0.00000000000E+00 -0.27936287947E+03  0.27936287947E+03  0.00000000000E+00 0. -1.
         25    1    1    2    0    0 -0.22098887915E+02 -0.31041942042E+03  0.29844476924E+03  0.44893524890E+03  0.12500000000E+03 0.  0.
         21    1    1    2  503  501  0.22098887915E+02  0.31041942042E+03 -0.85499060667E+02  0.32273621860E+03  0.00000000000E+00 0. -1.
<mgrwt>
<rscale>  3 0.33537081E+03</rscale>
<asrwt>0</asrwt>
<pdfrwt beam="1">  1       21 0.75739783E-01 0.33537081E+03</pdfrwt>
<pdfrwt beam="2">  1       21 0.42978905E-01 0.33537081E+03</pdfrwt>
<totfact> 0.74789031E+03</totfact>
</mgrwt>
</event>
<event>
 4    0  0.1443796E-001  0.2500766E+03  0.7546771E-02  0.1113256E+00
         21   -1    0    0  502  501  0.00000000000E+00  0.00000000000E+00  0.73527919367E+03  0.73527919367E+03  0.00000000000E+00 0. -1.
         21   -1    0    0  503  502 -0.00000000000E+00 -0.00000000000E+00 -0.75636779282E+02  0.75636779282E+02  0.00000000000E+00 0. -1.
         25    1    1    2    0    0  0.63061895136E+02 -0.20721129630E+03  0.41161276609E+03  0.48162578123E+03  0.12500000000E+03 0.  0.
         21    1    1    2  503  501 -0.63061895136E+02  0.20721129630E+03  0.24802964829E+03  0.32929019172E+03  0.00000000000E+00 0. -1.
<mgrwt>
<rscale>  3 0.25007664E+03</rscale>
<asrwt>0</asrwt>
<pdfrwt beam="1">  1       21 0.11311987E+00 0.25007664E+03</pdfrwt>
<pdfrwt beam="2">  1       21 0.11636428E-01 0.25007664E+03</pdfrwt>
<totfact> 0.36743953E+04</totfact>
</mgrwt>
</event>
<event>
 4    0  0.1003929E-001  0.2654436E+03  0.7546771E-02  0.1103916E+00
         21   -1    0    0  502  501  0.00000000000E+00  0.00000000000E+00  0.16720040228E+04  0.16720040228E+04  0.00000000000E+00 0.  1.
         21   -1    0    0  503  502 -0.00000000000E+00 -0.00000000000E+00 -0.49636017758E+02  0.49636017758E+02  0.00000000000E+00 0. -1.
         25    1    1    2    0    0 -0.83283827090E+02  0.21885861300E+03  0.12774846012E+04  0.13047709357E+04  0.12500000000E+03 0.  0.
         21    1    1    2  503  501  0.83283827090E+02 -0.21885861300E+03  0.34488340383E+03  0.41686910484E+03  0.00000000000E+00 0. -1.
<mgrwt>
<rscale>  3 0.26544357E+03</rscale>
<asrwt>0</asrwt>
<pdfrwt beam="1">  1       21 0.25723134E+00 0.26544357E+03</pdfrwt>
<pdfrwt beam="2">  1       21 0.76363117E-02 0.26544357E+03</pdfrwt>
<totfact> 0.73671644E+03</totfact>
</mgrwt>
</event>
<event>
 4    0  0.1139970E-001  0.3624208E+03  0.7546771E-02  0.1057629E+00
         21   -1    0    0  502  501  0.00000000000E+00  0.00000000000E+00  0.14900050861E+03  0.14900050861E+03  0.00000000000E+00 0.  1.
         21   -1    0    0  503  502 -0.00000000000E+00 -0.00000000000E+00 -0.11064029065E+04  0.11064029065E+04  0.00000000000E+00 0.  1.
         25    1    1    2    0    0 -0.21266431743E+03  0.26551407089E+03 -0.17544337060E+03  0.40265271642E+03  0.12500000000E+03 0.  0.
         21    1    1    2  503  501  0.21266431743E+03 -0.26551407089E+03 -0.78195902733E+03  0.85275069872E+03  0.00000000000E+00 0.  1.
<mgrwt>
<rscale>  3 0.36242080E+03</rscale>
<asrwt>0</asrwt>
<pdfrwt beam="1">  1       21 0.22923156E-01 0.36242080E+03</pdfrwt>
<pdfrwt beam="2">  1       21 0.17021583E+00 0.36242080E+03</pdfrwt>
<totfact> 0.33928483E+03</totfact>
</mgrwt>
</event>
<event>
 4    0  0.1003929E-001  0.2726112E+03  0.7546771E-02  0.1099794E+00
         21   -1    0    0  502  501  0.00000000000E+00  0.00000000000E+00  0.18515448918E+03  0.18515448918E+03  0.00000000000E+00 0.  1.
         21   -1    0    0  503  502 -0.00000000000E+00 -0.00000000000E+00 -0.36164209389E+03  0.36164209389E+03  0.00000000000E+00 0. -1.
         25    1    1    2    0    0  0.22307635763E+03 -0.94492411600E+02 -0.12100706001E+03  0.29826093568E+03  0.12500000000E+03 0.  0.
         21    1    1    2  503  501 -0.22307635763E+03  0.94492411600E+02 -0.55480544703E+02  0.24853564739E+03  0.00000000000E+00 0. -1.
<mgrwt>
<rscale>  3 0.27261122E+03</rscale>
<asrwt>0</asrwt>
<pdfrwt beam="1">  1       21 0.28485306E-01 0.27261122E+03</pdfrwt>
<pdfrwt beam="2">  1       21 0.55637245E-01 0.27261122E+03</pdfrwt>
<totfact> 0.34567074E+04</totfact>
</mgrwt>
</event>
<event>
 4    0  0.1046775E-001  0.2369262E+03  0.7546771E-02  0.1121858E+00
         21   -1    0    0  503  501  0.00000000000E+00  0.00000000000E+00  0.38134028516E+02  0.38134028516E+02  0.00000000000E+00 0.  1.
         21   -1    0    0  501  502 -0.00000000000E+00 -0.00000000000E+00 -0.13930322692E+04  0.13930322692E+04  0.00000000000E+00 0.  1.
         25    1    1    2    0    0 -0.25136785315E+02  0.19969263896E+03 -0.50581099232E+03  0.55855059573E+03  0.12500000000E+03 0.  0.
         21    1    1    2  503  502  0.25136785315E+02 -0.19969263896E+03 -0.84908724839E+03  0.87261570202E+03  0.00000000000E+00 0.  1.
<mgrwt>
<rscale>  3 0.23692617E+03</rscale>
<asrwt>0</asrwt>
<pdfrwt beam="1">  1       21 0.58667738E-02 0.23692617E+03</pdfrwt>
<pdfrwt beam="2">  1       21 0.21431265E+00 0.23692617E+03</pdfrwt>
<totfact> 0.21640522E+04</totfact>
</mgrwt>
</event>
<event>
 4    0  0.1003929E-001  0.2573145E+03  0.7546771E-02  0.1108768E+00
         21   -1    0    0  502  501  0.00000000000E+00  0.00000000000E+00  0.18519564292E+03  0.18519564292E+03  0.00000000000E+00 0.  1.
         21   -1    0    0  503  502 -0.00000000000E+00 -0.00000000000E+00 -0.38559387464E+03  0.38559387464E+03  0.00000000000E+00 0. -1.
         25    1    1    2    0    0  0.12044983913E+02  0.22458997769E+03  0.17141682234E+02  0.25788481341E+03  0.12500000000E+03 0.  0.
         21    1    1    2  503  501 -0.12044983913E+02 -0.22458997769E+03 -0.21753991396E+03  0.31290470415E+03  0.00000000000E+00 0. -1.
<mgrwt>
<rscale>  3 0.25731448E+03</rscale>
<asrwt>0</asrwt>
<pdfrwt beam="1">  1       21 0.28491637E-01 0.25731448E+03</pdfrwt>
<pdfrwt beam="2">  1       21 0.59322135E-01 0.25731448E+03</pdfrwt>
<totfact> 0.30295249E+04</totfact>
</mgrwt>
</event>
<event>
 4    0  0.1583061E-001  0.3720472E+03  0.7546771E-02  0.1053913E+00
         21   -1    0    0  503  501  0.00000000000E+00  0.00000000000E+00  0.45777830009E+03  0.45777830009E+03  0.00000000000E+00 0. -1.
         21   -1    0    0  501  502 -0.00000000000E+00 -0.00000000000E+00 -0.79594472835E+03  0.79594472835E+03  0.00000000000E+00 0.  1.
         25    1    1    2    0    0 -0.59630102672E+02 -0.34530905916E+03  0.33124570272E+03  0.49813934903E+03  0.12500000000E+03 0.  0.
         21    1    1    2  503  502  0.59630102672E+02  0.34530905916E+03 -0.66941213098E+03  0.75558367941E+03  0.00000000000E+00 0.  1.
<mgrwt>
<rscale>  3 0.37204717E+03</rscale>
<asrwt>0</asrwt>
<pdfrwt beam="1">  1       21 0.70427431E-01 0.37204717E+03</pdfrwt>
<pdfrwt beam="2">  1       21 0.12245304E+00 0.37204717E+03</pdfrwt>
<totfact> 0.80421522E+02</totfact>
</mgrwt>
</event>
<event>
 4    0  0.1491556E-001  0.4684983E+03  0.7546771E-02  0.1022345E+00
         21   -1    0    0  503  501  0.00000000000E+00  0.00000000000E+00  0.43202021099E+03  0.43202021099E+03  0.00000000000E+00 0.  1.
         21   -1    0    0  501  502 -0.00000000000E+00 -0.00000000000E+00 -0.50804038727E+03  0.50804038727E+03  0.00000000000E+00 0.  1.
         25    1    1    2    0    0  0.18748727632E+03  0.41074836567E+03  0.50346433731E+02  0.47119577892E+03  0.12500000000E+03 0.  0.
         21    1    1    2  503  502 -0.18748727632E+03 -0.41074836567E+03 -0.12636661001E+03  0.46886481933E+03  0.00000000000E+00 0.  1.
<mgrwt>
<rscale>  3 0.46849834E+03</rscale>
<asrwt>0</asrwt>
<pdfrwt beam="1">  1       21 0.66464647E-01 0.46849834E+03</pdfrwt>
<pdfrwt beam="2">  1       21 0.78160060E-01 0.46849834E+03</pdfrwt>
<totfact> 0.25959139E+03</totfact>
</mgrwt>
</event>
<event>
 4    0  0.1003929E-001  0.2359205E+03  0.7546771E-02  0.1122541E+00
         21   -1    0    0  502  501  0.00000000000E+00  0.00000000000E+00  0.75496107156E+02  0.75496107156E+02  0.00000000000E+00 0.  1.
         21   -1    0    0  503  502 -0.00000000000E+00 -0.00000000000E+00 -0.79957218178E+03  0.79957218178E+03  0.00000000000E+00 0.  1.
         25    1    1    2    0    0  0.33857419057E+02 -0.19719832361E+03 -0.58671749888E+03  0.63237324986E+03  0.12500000000E+03 0.  0.
         21    1    1    2  503  501 -0.33857419057E+02  0.19719832361E+03 -0.13735857575E+03  0.24269503907E+03  0.00000000000E+00 0.  1.
<mgrwt>
<rscale>  3 0.23592055E+03</rscale>
<asrwt>0</asrwt>
<pdfrwt beam="1">  1       21 0.11614786E-01 0.23592055E+03</pdfrwt>
<pdfrwt beam="2">  1       21 0.12301111E+00 0.23592055E+03</pdfrwt>
<totfact> 0.30151472E+04</totfact>
</mgrwt>
</event>
<event>
 4    0  0.1235664E-001  0.2535268E+03  0.7546771E-02  0.1111096E+00
         21   -1    0    0  503  501  0.00000000000E+00  0.00000000000E+00  0.60424239570E+02  0.60424239570E+02  0.00000000000E+00 0.  1.
         21   -1    0    0  501  502 -0.00000000000E+00 -0.00000000000E+00 -0.11726542583E+04  0.11726542583E+04  0.00000000000E+00 0.  1.
         25    1    1    2    0    0  0.19279236444E+03  0.10715387625E+03 -0.30682553356E+03  0.39801728232E+03  0.12500000000E+03 0.  0.
         21    1    1    2  503  502 -0.19279236444E+03 -0.10715387625E+03 -0.80540448518E+03  0.83506121556E+03  0.00000000000E+00 0.  1.
<mgrwt>
<rscale>  3 0.25352682E+03</rscale>
<asrwt>0</asrwt>
<pdfrwt beam="1">  1       21 0.92960370E-02 0.25352682E+03</pdfrwt>
<pdfrwt beam="2">  1       21 0.18040835E+00 0.25352682E+03</pdfrwt>
<totfact> 0.16017120E+04</totfact>
</mgrwt>
</event>
<event>
 4    0  0.1003929E-001  0.2746405E+03  0.7546771E-02  0.1098653E+00
         21   -1    0    0  503  501  0.00000000000E+00  0.00000000000E+00  0.13674917694E+04  0.13674917694E+04  0.00000000000E+00 0. -1.
         21   -1    0    0  501  502 -0.00000000000E+00 -0.00000000000E+00 -0.52351134678E+02  0.52351134678E+02  0.00000000000E+00 0.  1.
         25    1    1    2    0    0  0.17261563744E+03 -0.17322316751E+03  0.86515658115E+03  0.90770222758E+03  0.12500000000E+03 0.  0.
         21    1    1    2  503  502 -0.17261563744E+03  0.17322316751E+03  0.44998405354E+03  0.51214067646E+03  0.00000000000E+00 0.  1.
<mgrwt>
<rscale>  3 0.27464054E+03</rscale>
<asrwt>0</asrwt>
<pdfrwt beam="1">  1       21 0.21038332E+00 0.27464054E+03</pdfrwt>
<pdfrwt beam="2">  1       21 0.80540218E-02 0.27464054E+03</pdfrwt>
<totfact> 0.12911452E+04</totfact>
</mgrwt>
</event>
<event>
 4    0  0.1460804E-001  0.2429827E+03  0.7546771E-02  0.1117822E+00
         21   -1    0    0  502  501  0.00000000000E+00  0.00000000000E+00  0.24256455936E+03  0.24256455936E+03  0.00000000000E+00 0. -1.
         21   -1    0    0  503  502 -0.00000000000E+00 -0.00000000000E+00 -0.42290166871E+03  0.42290166871E+03  0.00000000000E+00 0. -1.
         25    1    1    2    0    0 -0.14466297502E+03  0.14996071689E+03  0.14215945331E+03  0.28151359313E+03  0.12500000000E+03 0.  0.
         21    1    1    2  503  501  0.14466297502E+03 -0.14996071689E+03 -0.32249656267E+03  0.38395263495E+03  0.00000000000E+00 0. -1.
<mgrwt>
<rscale>  3 0.24298270E+03</rscale>
<asrwt>0</asrwt>
<pdfrwt beam="1">  1       21 0.37317624E-01 0.24298270E+03</pdfrwt>
<pdfrwt beam="2">  1       21 0.65061795E-01 0.24298270E+03</pdfrwt>
<totfact> 0.14621502E+04</totfact>
</mgrwt>
</event>
<event>
 4    0  0.1003929E-001  0.2601226E+03  0.7546771E-02  0.1107070E+00
         21   -1    0    0  503  501  0.00000000000E+00  0.00000000000E+00  0.50865554788E+02  0.50865554788E+02  0.00000000000E+00 0. -1.
         21   -1    0    0  501  502 -0.00000000000E+00 -0.00000000000E+00 -0.13085424837E+04  0.13085424837E+04  0.00000000000E+00 0.  1.
         25    1    1    2    0    0  0.43456514830E+02 -0.22394263391E+03 -0.44630036332E+03  0.51657311802E+03  0.12500000000E+03 0.  0.
         21    1    1    2  503  502 -0.43456514830E+02  0.22394263391E+03 -0.81137656556E+03  0.84283492043E+03  0.00000000000E+00 0.  1.
<mgrwt>
<rscale>  3 0.26012261E+03</rscale>
<asrwt>0</asrwt>
<pdfrwt beam="1">  1       21 0.78254709E-02 0.26012261E+03</pdfrwt>
<pdfrwt beam="2">  1       21 0.20131421E+00 0.26012261E+03</pdfrwt>
<totfact> 0.15666350E+04</totfact>
</mgrwt>
</event>
<event>
 4    0  0.1003929E-001  0.2780124E+03  0.7546771E-02  0.1096780E+00
         21   -1    0    0  503  501  0.00000000000E+00  0.00000000000E+00  0.30075966734E+04  0.30075966734E+04  0.00000000000E+00 0. -1.
         21   -1    0    0  501  502 -0.00000000000E+00 -0.00000000000E+00 -0.23320019343E+02  0.23320019343E+02  0.00000000000E+00 0.  1.
         25    1    1    2    0    0 -0.24797997731E+03  0.13107679503E+02  0.14058402558E+04  0.14330658412E+04  0.12500000000E+03 0.  0.
         21    1    1    2  503  502  0.24797997731E+03 -0.13107679503E+02  0.15784363983E+04  0.15978508516E+04  0.00000000000E+00 0.  1.
<mgrwt>
<rscale>  3 0.27801237E+03</rscale>
<asrwt>0</asrwt>
<pdfrwt beam="1">  1       21 0.46270687E+00 0.27801237E+03</pdfrwt>
<pdfrwt beam="2">  1       21 0.35876977E-02 0.27801237E+03</pdfrwt>
<totfact> 0.14420177E+03</totfact>
</mgrwt>
</event>
<event>
 4    0  0.1149655E-001  0.2388932E+03  0.7546771E-02  0.1120532E+00
         21   -1    0    0  502  501  0.00000000000E+00  0.00000000000E+00  0.12101917747E+04  0.12101917747E+04  0.00000000000E+00 0.  1.
         21   -1    0    0  503  502 -0.00000000000E+00 -0.00000000000E+00 -0.56163856841E+02  0.56163856841E+02  0.00000000000E+00 0.  1.
         25    1    1    2    0    0 -0.47301884871E+02  0.19800882409E+03  0.94438217492E+03  0.97412917779E+03  0.12500000000E+03 0.  0.
         21    1    1    2  503  501  0.47301884871E+02 -0.19800882409E+03  0.20964574291E+03  0.29222645371E+03  0.00000000000E+00 0.  1.
<mgrwt>
<rscale>  3 0.23889320E+03</rscale>
<asrwt>0</asrwt>
<pdfrwt beam="1">  1       21 0.18618333E+00 0.23889320E+03</pdfrwt>
<pdfrwt beam="2">  1       21 0.86405943E-02 0.23889320E+03</pdfrwt>
<totfact> 0.16792427E+04</totfact>
</mgrwt>
</event>
<event>
 4    0  0.1268369E-001  0.3750632E+03  0.7546771E-02  0.1052774E+00
         21   -1    0    0  502  501  0.00000000000E+00  0.00000000000E+00  0.38126122327E+03  0.38126122327E+03  0.00000000000E+00 0. -1.
         21   -1    0    0  503  502 -0.00000000000E+00 -0.00000000000E+00 -0.64069858732E+03  0.64069858732E+03  0.00000000000E+00 0. -1.
         25    1    1    2    0    0  0.33275624494E+03 -0.11966920684E+03  0.21339552594E+03  0.43152066938E+03  0.12500000000E+03 0.  0.
         21    1    1    2  503  501 -0.33275624494E+03  0.11966920684E+03 -0.47283288999E+03  0.59043914121E+03  0.00000000000E+00 0. -1.
<mgrwt>
<rscale>  3 0.37506324E+03</rscale>
<asrwt>0</asrwt>
<pdfrwt beam="1">  1       21 0.58655573E-01 0.37506324E+03</pdfrwt>
<pdfrwt beam="2">  1       21 0.98569013E-01 0.37506324E+03</pdfrwt>
<totfact> 0.20559907E+03</totfact>
</mgrwt>
</event>
<event>
 4    0  0.1118480E-001  0.2728550E+03  0.7546771E-02  0.1099657E+00
         21   -1    0    0  503  501  0.00000000000E+00  0.00000000000E+00  0.12657715840E+04  0.12657715840E+04  0.00000000000E+00 0. -1.
         21   -1    0    0  501  502 -0.00000000000E+00 -0.00000000000E+00 -0.72465884207E+02  0.72465884207E+02  0.00000000000E+00 0. -1.
         25    1    1    2    0    0  0.24164606533E+03  0.20784753240E+02  0.97315845077E+03  0.10106864980E+04  0.12500000000E+03 0.  0.
         21    1    1    2  503  502 -0.24164606533E+03 -0.20784753240E+02  0.22014724901E+03  0.32755097023E+03  0.00000000000E+00 0. -1.
<mgrwt>
<rscale>  3 0.27285496E+03</rscale>
<asrwt>0</asrwt>
<pdfrwt beam="1">  1       21 0.19473407E+00 0.27285496E+03</pdfrwt>
<pdfrwt beam="2">  1       21 0.11148599E-01 0.27285496E+03</pdfrwt>
<totfact> 0.91712730E+03</totfact>
</mgrwt>
</event>
<event>
 4    0  0.1673151E-001  0.2627004E+03  0.7546771E-02  0.1105532E+00
         21   -1    0    0  503  501  0.00000000000E+00  0.00000000000E+00  0.23812616097E+03  0.23812616097E+03  0.00000000000E+00 0.  1.
         21   -1    0    0  501  502 -0.00000000000E+00 -0.00000000000E+00 -0.61534367143E+03  0.61534367143E+03  0.00000000000E+00 0. -1.
         25    1    1    2    0    0 -0.20702595331E+03 -0.10259996027E+03  0.13220934683E+03  0.29409319710E+03  0.12500000000E+03 0.  0.
         21    1    1    2  503  502  0.20702595331E+03  0.10259996027E+03 -0.50942685729E+03  0.55937663530E+03  0.00000000000E+00 0. -1.
<mgrwt>
<rscale>  3 0.26270039E+03</rscale>
<asrwt>0</asrwt>
<pdfrwt beam="1">  1       21 0.36634795E-01 0.26270039E+03</pdfrwt>
<pdfrwt beam="2">  1       21 0.94668255E-01 0.26270039E+03</pdfrwt>
<totfact> 0.64060161E+03</totfact>
</mgrwt>
</event>
<event>
 4    0  0.1003929E-001  0.3359096E+03  0.7546771E-02  0.1068552E+00
         21   -1    0    0  502  501  0.00000000000E+00  0.00000000000E+00  0.22083495707E+04  0.22083495707E+04  0.00000000000E+00 0. -1.
         21   -1    0    0  503  502 -0.00000000000E+00 -0.00000000000E+00 -0.49425460203E+02  0.49425460203E+02  0.00000000000E+00 0.  1.
         25    1    1    2    0    0  0.11458090314E+03  0.28996802211E+03  0.13412660182E+04  0.13826893248E+04  0.12500000000E+03 0.  0.
         21    1    1    2  503  501 -0.11458090314E+03 -0.28996802211E+03  0.81765809229E+03  0.87508570614E+03  0.00000000000E+00 0.  1.
<mgrwt>
<rscale>  3 0.33590957E+03</rscale>
<asrwt>0</asrwt>
<pdfrwt beam="1">  1       21 0.33974601E+00 0.33590957E+03</pdfrwt>
<pdfrwt beam="2">  1       21 0.76039187E-02 0.33590957E+03</pdfrwt>
<totfact> 0.22853865E+03</totfact>
</mgrwt>
</event>
<event>
 4    0  0.1360449E-001  0.2646100E+03  0.7546771E-02  0.1104405E+00
         21   -1    0    0  503  501  0.00000000000E+00  0.00000000000E+00  0.40332462636E+03  0.40332462636E+03  0.00000000000E+00 0.  1.
         21   -1    0    0  501  502 -0.00000000000E+00 -0.00000000000E+00 -0.15642008053E+03  0.15642008053E+03  0.00000000000E+00 0.  1.
         25    1    1    2    0    0 -0.22015429286E+03 -0.76977543361E+02  0.93739652418E+02  0.28072331090E+03  0.12500000000E+03 0.  0.
         21    1    1    2  503  502  0.22015429286E+03  0.76977543361E+02  0.15316489341E+03  0.27902139599E+03  0.00000000000E+00 0.  1.
<mgrwt>
<rscale>  3 0.26461001E+03</rscale>
<asrwt>0</asrwt>
<pdfrwt beam="1">  1       21 0.62049942E-01 0.26461001E+03</pdfrwt>
<pdfrwt beam="2">  1       21 0.24064628E-01 0.26461001E+03</pdfrwt>
<totfact> 0.37973690E+04</totfact>
</mgrwt>
</event>
<event>
 4    0  0.1044264E-001  0.3490327E+03  0.7546771E-02  0.1063013E+00
         21   -1    0    0  503  501  0.00000000000E+00  0.00000000000E+00  0.34902144605E+03  0.34902144605E+03  0.00000000000E+00 0.  1.
         21   -1    0    0  501  502 -0.00000000000E+00 -0.00000000000E+00 -0.86485126286E+03  0.86485126286E+03  0.00000000000E+00 0.  1.
         25    1    1    2    0    0  0.31536531332E+03 -0.82119124949E+02  0.21759711139E+03  0.41130564597E+03  0.12500000000E+03 0.  0.
         21    1    1    2  503  502 -0.31536531332E+03  0.82119124949E+02 -0.73342692819E+03  0.80256706294E+03  0.00000000000E+00 0.  1.
<mgrwt>
<rscale>  3 0.34903271E+03</rscale>
<asrwt>0</asrwt>
<pdfrwt beam="1">  1       21 0.53695607E-01 0.34903271E+03</pdfrwt>
<pdfrwt beam="2">  1       21 0.13305404E+00 0.34903271E+03</pdfrwt>
<totfact> 0.11917303E+03</totfact>
</mgrwt>
</event>
<event>
 4    0  0.1297155E-001  0.3248418E+03  0.7546771E-02  0.1073442E+00
         21   -1    0    0  503  501  0.00000000000E+00  0.00000000000E+00  0.15647864685E+03  0.15647864685E+03  0.00000000000E+00 0. -1.
         21   -1    0    0  501  502 -0.00000000000E+00 -0.00000000000E+00 -0.69318925373E+03  0.69318925373E+03  0.00000000000E+00 0. -1.
         25    1    1    2    0    0 -0.74797944463E+02  0.29034884636E+03 -0.41269385889E+03  0.52520320472E+03  0.12500000000E+03 0.  0.
         21    1    1    2  503  502  0.74797944463E+02 -0.29034884636E+03 -0.12401674799E+03  0.32446469586E+03  0.00000000000E+00 0. -1.
<mgrwt>
<rscale>  3 0.32484178E+03</rscale>
<asrwt>0</asrwt>
<pdfrwt beam="1">  1       21 0.24073638E-01 0.32484178E+03</pdfrwt>
<pdfrwt beam="2">  1       21 0.10664450E+00 0.32484178E+03</pdfrwt>
<totfact> 0.10654550E+04</totfact>
</mgrwt>
</event>
<event>
 4    0  0.1301692E-001  0.2494116E+03  0.7546771E-02  0.1113677E+00
         21   -1    0    0  502  501  0.00000000000E+00  0.00000000000E+00  0.84906077742E+02  0.84906077742E+02  0.00000000000E+00 0.  1.
         21   -1    0    0  503  502 -0.00000000000E+00 -0.00000000000E+00 -0.65919450518E+03  0.65919450518E+03  0.00000000000E+00 0.  1.
         25    1    1    2    0    0  0.28216698330E+02 -0.21397426456E+03 -0.37479988419E+03  0.45020120074E+03  0.12500000000E+03 0.  0.
         21    1    1    2  503  501 -0.28216698330E+02  0.21397426456E+03 -0.19948854325E+03  0.29389938218E+03  0.00000000000E+00 0.  1.
<mgrwt>
<rscale>  3 0.24941164E+03</rscale>
<asrwt>0</asrwt>
<pdfrwt beam="1">  1       21 0.13062473E-01 0.24941164E+03</pdfrwt>
<pdfrwt beam="2">  1       21 0.10141454E+00 0.24941164E+03</pdfrwt>
<totfact> 0.38901306E+04</totfact>
</mgrwt>
</event>
<event>
 4    0  0.1025921E-001  0.2462425E+03  0.7546771E-02  0.1115703E+00
         21   -1    0    0  503  501  0.00000000000E+00  0.00000000000E+00  0.70355557270E+02  0.70355557270E+02  0.00000000000E+00 0. -1.
         21   -1    0    0  501  502 -0.00000000000E+00 -0.00000000000E+00 -0.17378037944E+04  0.17378037944E+04  0.00000000000E+00 0. -1.
         25    1    1    2    0    0  0.18169294399E+03 -0.10953567847E+03 -0.17840578100E+03  0.30407895923E+03  0.12500000000E+03 0.  0.
         21    1    1    2  503  502 -0.18169294399E+03  0.10953567847E+03 -0.14890424561E+04  0.15040803924E+04  0.00000000000E+00 0. -1.
<mgrwt>
<rscale>  3 0.24624254E+03</rscale>
<asrwt>0</asrwt>
<pdfrwt beam="1">  1       21 0.10823931E-01 0.24624254E+03</pdfrwt>
<pdfrwt beam="2">  1       21 0.26735444E+00 0.24624254E+03</pdfrwt>
<totfact> 0.35200227E+03</totfact>
</mgrwt>
</event>
