<event>
 5    0  0.1911311E+001  0.4842005E+03  0.7546771E-02  0.1017987E+00
         21   -1    0    0  502  501  0.00000000000E+00  0.00000000000E+00  0.59255768112E+03  0.59255768112E+03  0.00000000000E+00 0. -1.
         21   -1    0    0  504  502 -0.00000000000E+00 -0.00000000000E+00 -0.10046973022E+04  0.10046973022E+04  0.00000000000E+00 0. -1.
         25    1    1    2    0    0  0.52534753605E+03 -0.10135609959E+03  0.13711635358E+03  0.56629408171E+03  0.12500000000E+03 0.  0.
         21    1    1    2  503  501 -0.76232673343E+02  0.27570324074E+02  0.16510392436E+03  0.18393164245E+03  0.00000000000E+00 0.  1.
         21    1    1    2  504  503 -0.44911486271E+03  0.73785775515E+02 -0.71435989900E+03  0.84702925916E+03  0.00000000000E+00 0. -1.
<mgrwt>
<rscale>  4 0.48420049E+03</rscale>
<asrwt>0</asrwt>
<pdfrwt beam="1">  1       21 0.91162721E-01 0.48420049E+03</pdfrwt>
<pdfrwt beam="2">  1       21 0.15456881E+00 0.48420049E+03</pdfrwt>
<totfact> 0.22661394E+02</totfact>
</mgrwt>
</event>
<event>
 5    0  0.1911311E+001  0.4077585E+03  0.7546771E-02  0.1041126E+00
         21   -1    0    0  504  501  0.00000000000E+00  0.00000000000E+00  0.21766134148E+04  0.21766134148E+04  0.00000000000E+00 0.  1.
         21   -1    0    0  501  502 -0.00000000000E+00 -0.00000000000E+00 -0.93487201102E+02  0.93487201102E+02  0.00000000000E+00 0.  1.
         25    1    1    2    0    0 -0.26135827703E+03 -0.32383483288E+03  0.91035815352E+03  0.10087388739E+04  0.12500000000E+03 0.  0.
         21    1    1    2  503  502 -0.22358649423E+02  0.92881181200E+02  0.30558506465E+03  0.32017035272E+03  0.00000000000E+00 0.  1.
         21    1    1    2  504  503  0.28371692646E+03  0.23095365168E+03  0.86718299550E+03  0.94119138929E+03  0.00000000000E+00 0.  1.
<mgrwt>
<rscale>  4 0.40775851E+03</rscale>
<asrwt>0</asrwt>
<pdfrwt beam="1">  1       21 0.33486356E+00 0.40775851E+03</pdfrwt>
<pdfrwt beam="2">  1       21 0.14382648E-01 0.40775851E+03</pdfrwt>
<totfact> 0.73969198E+02</totfact>
</mgrwt>
</event>
<event>
 5    0  0.1911311E+001  0.2715073E+03  0.7546771E-02  0.1100420E+00
         21   -1    0    0  502  501  0.00000000000E+00  0.00000000000E+00  0.72874905709E+03  0.72874905709E+03  0.00000000000E+00 0.  1.
         21   -1    0    0  504  502 -0.00000000000E+00 -0.00000000000E+00 -0.23115422327E+03  0.23115422327E+03  0.00000000000E+00 0.  1.
         25    1    1    2    0    0 -0.30779461479E+03  0.63721383626E+02  0.92608578074E+02  0.35071254377E+03  0.12500000000E+03 0.  0.
         21    1    1    2  503  501  0.22643652471E+03  0.20461892329E+02  0.43277777516E+03  0.48886479872E+03  0.00000000000E+00 0.  1.
         21    1    1    2  504  503  0.81358090079E+02 -0.84183275956E+02 -0.27791519413E+02  0.12032593787E+03  0.00000000000E+00 0.  1.
<mgrwt>
<rscale>  4 0.27150734E+03</rscale>
<asrwt>0</asrwt>
<pdfrwt beam="1">  1       21 0.11211524E+00 0.27150734E+03</pdfrwt>
<pdfrwt beam="2">  1       21 0.35562189E-01 0.27150734E+03</pdfrwt>
<totfact> 0.44993653E+03</totfact>
</mgrwt>
</event>
