<event>
 5    0  0.1911311E+001  0.6045985E+03  0.7546771E-02  0.9895911E-01
         21   -1    0    0  502  501  0.00000000000E+00  0.00000000000E+00  0.28801507814E+03  0.28801507814E+03  0.00000000000E+00 0. -1.
         21   -1    0    0  504  502 -0.00000000000E+00 -0.00000000000E+00 -0.18899340581E+04  0.18899340581E+04  0.00000000000E+00 0.  1.
         25    1    1    2    0    0 -0.14467534307E+03  0.60362706301E+03 -0.31600784297E+03  0.70765990625E+03  0.12500000000E+03 0.  0.
         21    1    1    2  503  501  0.50476364620E+02 -0.28735855354E+02  0.53615557605E+00  0.58085284117E+02  0.00000000000E+00 0.  1.
         21    1    1    2  504  503  0.94198978446E+02 -0.57489120766E+03 -0.12864472926E+04  0.14122039459E+04  0.00000000000E+00 0.  1.
<mgrwt>
<rscale>  4 0.60459852E+03</rscale>
<asrwt>0</asrwt>
<pdfrwt beam="1">  1       21 0.44310014E-01 0.60459852E+03</pdfrwt>
<pdfrwt beam="2">  1       21 0.29075907E+00 0.60459852E+03</pdfrwt>
<totfact> 0.13587436E+02</totfact>
</mgrwt>
</event>
<event>
 5    0  0.1911311E+001  0.4425743E+03  0.7546771E-02  0.1029960E+00
         21   -1    0    0  504  501  0.00000000000E+00  0.00000000000E+00  0.87224453254E+02  0.87224453254E+02  0.00000000000E+00 0.  1.
         21   -1    0    0  503  502 -0.00000000000E+00 -0.00000000000E+00 -0.30132782822E+04  0.30132782822E+04  0.00000000000E+00 0.  1.
         25    1    1    2    0    0 -0.18546116571E+03 -0.39082936985E+03 -0.98569711428E+03  0.10836822604E+04  0.12500000000E+03 0.  0.
         21    1    1    2  503  501  0.19644315543E+03  0.37234211535E+03 -0.19487749676E+04  0.19937282760E+04  0.00000000000E+00 0.  1.
         21    1    1    2  504  502 -0.10981989722E+02  0.18487254496E+02  0.84182529245E+01  0.23092199102E+02  0.00000000000E+00 0.  1.
<mgrwt>
<rscale>  4 0.44257434E+03</rscale>
<asrwt>0</asrwt>
<pdfrwt beam="1">  1       21 0.13419148E-01 0.44257434E+03</pdfrwt>
<pdfrwt beam="2">  1       21 0.46358124E+00 0.44257434E+03</pdfrwt>
<totfact> 0.12245995E+02</totfact>
</mgrwt>
</event>
<event>
 5    0  0.1911311E+001  0.4607797E+03  0.7546771E-02  0.1024555E+00
         21   -1    0    0  502  501  0.00000000000E+00  0.00000000000E+00  0.16126166992E+03  0.16126166992E+03  0.00000000000E+00 0. -1.
         21   -1    0    0  504  502 -0.00000000000E+00 -0.00000000000E+00 -0.16251826415E+04  0.16251826415E+04  0.00000000000E+00 0. -1.
         25    1    1    2    0    0 -0.40932838329E+03  0.18462540075E+03 -0.10420433536E+04  0.11415408949E+04  0.12500000000E+03 0.  0.
         21    1    1    2  503  501  0.19922025051E+02  0.64087827550E+01  0.17663956545E+02  0.27385670329E+02  0.00000000000E+00 0.  1.
         21    1    1    2  504  503  0.38940635824E+03 -0.19103418350E+03 -0.43954157451E+03  0.61751774617E+03  0.00000000000E+00 0. -1.
<mgrwt>
<rscale>  4 0.46077966E+03</rscale>
<asrwt>0</asrwt>
<pdfrwt beam="1">  1       21 0.24809487E-01 0.46077966E+03</pdfrwt>
<pdfrwt beam="2">  1       21 0.25002811E+00 0.46077966E+03</pdfrwt>
<totfact> 0.83177063E+02</totfact>
</mgrwt>
</event>
<event>
 5    0  0.1911311E+001  0.2680215E+03  0.7546771E-02  0.1102417E+00
         21   -1    0    0  504  501  0.00000000000E+00  0.00000000000E+00  0.57591965294E+03  0.57591965294E+03  0.00000000000E+00 0. -1.
         21   -1    0    0  503  502 -0.00000000000E+00 -0.00000000000E+00 -0.20897483680E+03  0.20897483680E+03  0.00000000000E+00 0. -1.
         25    1    1    2    0    0  0.14056145704E+03 -0.17515398431E+03  0.93242196168E+01  0.25719327848E+03  0.12500000000E+03 0.  0.
         21    1    1    2  503  501  0.21818584820E+02 -0.22549672521E+01 -0.49898430415E+02  0.54506778282E+02  0.00000000000E+00 0.  1.
         21    1    1    2  504  502 -0.16238004186E+03  0.17740895156E+03  0.40751902694E+03  0.47319443298E+03  0.00000000000E+00 0. -1.
<mgrwt>
<rscale>  4 0.26802151E+03</rscale>
<asrwt>0</asrwt>
<pdfrwt beam="1">  1       21 0.88603023E-01 0.26802151E+03</pdfrwt>
<pdfrwt beam="2">  1       21 0.32149975E-01 0.26802151E+03</pdfrwt>
<totfact> 0.96806909E+03</totfact>
</mgrwt>
</event>
