<event>
 5    0  0.1856407E+000  0.3037484E+03  0.7546771E-02  0.1083382E+00
         21   -1    0    0  502  501  0.00000000000E+00  0.00000000000E+00  0.17895822107E+04  0.17895822107E+04  0.00000000000E+00 0. -1.
         21   -1    0    0  503  502 -0.00000000000E+00 -0.00000000000E+00 -0.58415829741E+02  0.58415829741E+02  0.00000000000E+00 0. -1.
         25    1    1    2    0    0  0.25555350864E+03 -0.10644490772E+03  0.53793936392E+03  0.61777170008E+03  0.12500000000E+03 0.  0.
         21    1    1    2  503  504 -0.16335278720E+03  0.14574267724E+02  0.77715212527E+03  0.79426819663E+03  0.00000000000E+00 0. -1.
         21    1    1    2  504  501 -0.92200721449E+02  0.91870639996E+02  0.41607489176E+03  0.43595814373E+03  0.00000000000E+00 0. -1.
<mgrwt>
<rscale>  4 0.30374844E+03</rscale>
<asrwt>0</asrwt>
<pdfrwt beam="1">  1       21 0.27532030E+00 0.30374844E+03</pdfrwt>
<pdfrwt beam="2">  1       21 0.89870521E-02 0.30374844E+03</pdfrwt>
<totfact> 0.42035688E+03</totfact>
</mgrwt>
</event>
<event>
 5    0  0.1856407E+000  0.2507546E+03  0.7546771E-02  0.1112829E+00
         21   -1    0    0  502  501  0.00000000000E+00  0.00000000000E+00  0.37525834173E+03  0.37525834173E+03  0.00000000000E+00 0. -1.
         21   -1    0    0  503  502 -0.00000000000E+00 -0.00000000000E+00 -0.24036524546E+03  0.24036524546E+03  0.00000000000E+00 0. -1.
         25    1    1    2    0    0  0.21394602185E+03 -0.38470235834E+02 -0.11858911301E+03  0.27738283479E+03  0.12500000000E+03 0.  0.
         21    1    1    2  503  504 -0.55873634632E+02  0.25472039013E+02  0.10114669707E+03  0.11832726713E+03  0.00000000000E+00 0. -1.
         21    1    1    2  504  501 -0.15807238722E+03  0.12998196821E+02  0.15233551223E+03  0.21991348527E+03  0.00000000000E+00 0. -1.
<mgrwt>
<rscale>  4 0.25075458E+03</rscale>
<asrwt>0</asrwt>
<pdfrwt beam="1">  1       21 0.57732053E-01 0.25075458E+03</pdfrwt>
<pdfrwt beam="2">  1       21 0.36979269E-01 0.25075458E+03</pdfrwt>
<totfact> 0.19223051E+04</totfact>
</mgrwt>
</event>
<event>
 5    0  0.1966544E+000  0.2706466E+03  0.7546771E-02  0.1100910E+00
         21   -1    0    0  502  501  0.00000000000E+00  0.00000000000E+00  0.77352562910E+02  0.77352562910E+02  0.00000000000E+00 0.  1.
         21   -1    0    0  503  502 -0.00000000000E+00 -0.00000000000E+00 -0.98364604295E+03  0.98364604295E+03  0.00000000000E+00 0. -1.
         25    1    1    2    0    0  0.19525464782E+03 -0.13964310004E+03 -0.28229389989E+03  0.39107469721E+03  0.12500000000E+03 0.  0.
         21    1    1    2  503  504 -0.22137831978E+02  0.35143456125E+02 -0.10307685817E+03  0.11113048548E+03  0.00000000000E+00 0.  1.
         21    1    1    2  504  501 -0.17311681584E+03  0.10449964391E+03 -0.52092272198E+03  0.55879342317E+03  0.00000000000E+00 0. -1.
<mgrwt>
<rscale>  4 0.27064658E+03</rscale>
<asrwt>0</asrwt>
<pdfrwt beam="1">  1       21 0.11900395E-01 0.27064658E+03</pdfrwt>
<pdfrwt beam="2">  1       21 0.15133015E+00 0.27064658E+03</pdfrwt>
<totfact> 0.16591459E+04</totfact>
</mgrwt>
</event>
<event>
 5    0  0.1856407E+000  0.3300459E+03  0.7546771E-02  0.1071117E+00
         21   -1    0    0  502  501  0.00000000000E+00  0.00000000000E+00  0.16894792270E+03  0.16894792270E+03  0.00000000000E+00 0. -1.
         21   -1    0    0  503  502 -0.00000000000E+00 -0.00000000000E+00 -0.12187689238E+04  0.12187689238E+04  0.00000000000E+00 0. -1.
         25    1    1    2    0    0  0.17455740408E+03  0.26690434631E+03 -0.69472455782E+02  0.34951343252E+03  0.12500000000E+03 0.  0.
         21    1    1    2  503  504 -0.14229565503E+03 -0.22212116213E+03 -0.62194534710E+03  0.67557522074E+03  0.00000000000E+00 0. -1.
         21    1    1    2  504  501 -0.32261749057E+02 -0.44783184189E+02 -0.35840319826E+03  0.36262819328E+03  0.00000000000E+00 0. -1.
<mgrwt>
<rscale>  4 0.33004593E+03</rscale>
<asrwt>0</asrwt>
<pdfrwt beam="1">  1       21 0.25991989E-01 0.33004593E+03</pdfrwt>
<pdfrwt beam="2">  1       21 0.18750291E+00 0.33004593E+03</pdfrwt>
<totfact> 0.20494306E+03</totfact>
</mgrwt>
</event>
<event>
 5    0  0.1856407E+000  0.2477372E+03  0.7546771E-02  0.1114743E+00
         21   -1    0    0  502  501  0.00000000000E+00  0.00000000000E+00  0.13783692725E+04  0.13783692725E+04  0.00000000000E+00 0. -1.
         21   -1    0    0  503  502 -0.00000000000E+00 -0.00000000000E+00 -0.98242557781E+02  0.98242557781E+02  0.00000000000E+00 0. -1.
         25    1    1    2    0    0 -0.20943352485E+03 -0.43432026344E+02  0.11983016658E+04  0.12236423597E+04  0.12500000000E+03 0.  0.
         21    1    1    2  503  504  0.11909437685E+03  0.70631194415E+02  0.19338027482E+02  0.13980770911E+03  0.00000000000E+00 0. -1.
         21    1    1    2  504  501  0.90339148006E+02 -0.27199168071E+02  0.62487021447E+02  0.11316176145E+03  0.00000000000E+00 0. -1.
<mgrwt>
<rscale>  4 0.24773724E+03</rscale>
<asrwt>0</asrwt>
<pdfrwt beam="1">  1       21 0.21205680E+00 0.24773724E+03</pdfrwt>
<pdfrwt beam="2">  1       21 0.15114241E-01 0.24773724E+03</pdfrwt>
<totfact> 0.41538681E+03</totfact>
</mgrwt>
</event>
<event>
 5    0  0.1856407E+000  0.2927960E+03  0.7546771E-02  0.1088898E+00
         21   -1    0    0  502  501  0.00000000000E+00  0.00000000000E+00  0.15537113993E+03  0.15537113993E+03  0.00000000000E+00 0.  1.
         21   -1    0    0  503  502 -0.00000000000E+00 -0.00000000000E+00 -0.84293279527E+03  0.84293279527E+03  0.00000000000E+00 0.  1.
         25    1    1    2    0    0 -0.26264272667E+03 -0.33515478610E+02 -0.41966157410E+02  0.29578818020E+03  0.12500000000E+03 0.  0.
         21    1    1    2  503  504  0.14455616198E+03  0.59037812441E+02 -0.37059396865E+03  0.40214653655E+03  0.00000000000E+00 0.  1.
         21    1    1    2  504  501  0.11808656469E+03 -0.25522333831E+02 -0.27500152928E+03  0.30036921844E+03  0.00000000000E+00 0. -1.
<mgrwt>
<rscale>  4 0.29279599E+03</rscale>
<asrwt>0</asrwt>
<pdfrwt beam="1">  1       21 0.23903253E-01 0.29279599E+03</pdfrwt>
<pdfrwt beam="2">  1       21 0.12968197E+00 0.29279599E+03</pdfrwt>
<totfact> 0.67272850E+03</totfact>
</mgrwt>
</event>
<event>
 5    0  0.1856407E+000  0.2475583E+03  0.7546771E-02  0.1114858E+00
         21   -1    0    0  502  501  0.00000000000E+00  0.00000000000E+00  0.93041896806E+03  0.93041896806E+03  0.00000000000E+00 0.  1.
         21   -1    0    0  503  502 -0.00000000000E+00 -0.00000000000E+00 -0.67468443495E+02  0.67468443495E+02  0.00000000000E+00 0. -1.
         25    1    1    2    0    0  0.60778303304E+02 -0.20485628676E+03  0.63698269027E+03  0.68339743055E+03  0.12500000000E+03 0.  0.
         21    1    1    2  503  504 -0.47676455371E+02  0.14136668605E+03  0.18557394073E+03  0.23810768950E+03  0.00000000000E+00 0. -1.
         21    1    1    2  504  501 -0.13101847933E+02  0.63489600715E+02  0.40393893566E+02  0.76382291505E+02  0.00000000000E+00 0.  1.
<mgrwt>
<rscale>  4 0.24755828E+03</rscale>
<asrwt>0</asrwt>
<pdfrwt beam="1">  1       21 0.14314137E+00 0.24755828E+03</pdfrwt>
<pdfrwt beam="2">  1       21 0.10379761E-01 0.24755828E+03</pdfrwt>
<totfact> 0.24854699E+04</totfact>
</mgrwt>
</event>
<event>
 5    0  0.1856407E+000  0.2765362E+03  0.7546771E-02  0.1097596E+00
         21   -1    0    0  502  501  0.00000000000E+00  0.00000000000E+00  0.11305881848E+04  0.11305881848E+04  0.00000000000E+00 0.  1.
         21   -1    0    0  503  502 -0.00000000000E+00 -0.00000000000E+00 -0.83717293080E+02  0.83717293080E+02  0.00000000000E+00 0.  1.
         25    1    1    2    0    0  0.14200196927E+03  0.20169954211E+03  0.84115483320E+03  0.88544549125E+03  0.12500000000E+03 0.  0.
         21    1    1    2  503  504 -0.61363925340E+02 -0.62269548847E+02  0.11348120009E+03  0.14325156481E+03  0.00000000000E+00 0.  1.
         21    1    1    2  504  501 -0.80638043926E+02 -0.13942999326E+03  0.92234858478E+02  0.18560842187E+03  0.00000000000E+00 0.  1.
<mgrwt>
<rscale>  4 0.27653619E+03</rscale>
<asrwt>0</asrwt>
<pdfrwt beam="1">  1       21 0.17393663E+00 0.27653619E+03</pdfrwt>
<pdfrwt beam="2">  1       21 0.12879584E-01 0.27653619E+03</pdfrwt>
<totfact> 0.97796212E+03</totfact>
</mgrwt>
</event>
<event>
 5    0  0.1856407E+000  0.3090741E+03  0.7546771E-02  0.1080791E+00
         21   -1    0    0  502  501  0.00000000000E+00  0.00000000000E+00  0.53734668712E+02  0.53734668712E+02  0.00000000000E+00 0. -1.
         21   -1    0    0  503  502 -0.00000000000E+00 -0.00000000000E+00 -0.19728231989E+04  0.19728231989E+04  0.00000000000E+00 0. -1.
         25    1    1    2    0    0  0.98390051684E+02 -0.26499278935E+03 -0.58356075948E+03  0.66035591970E+03  0.12500000000E+03 0.  0.
         21    1    1    2  503  504 -0.77976116440E+02  0.20701588549E+03 -0.11391211415E+04  0.11604020108E+04  0.00000000000E+00 0. -1.
         21    1    1    2  504  501 -0.20413935244E+02  0.57976903853E+02 -0.19640662922E+03  0.20579993715E+03  0.00000000000E+00 0. -1.
<mgrwt>
<rscale>  4 0.30907407E+03</rscale>
<asrwt>0</asrwt>
<pdfrwt beam="1">  1       21 0.82668711E-02 0.30907407E+03</pdfrwt>
<pdfrwt beam="2">  1       21 0.30351130E+00 0.30907407E+03</pdfrwt>
<totfact> 0.33077315E+03</totfact>
</mgrwt>
</event>
<event>
 5    0  0.2240673E+000  0.3045474E+03  0.7546771E-02  0.1082989E+00
         21   -1    0    0  502  501  0.00000000000E+00  0.00000000000E+00  0.42358278840E+03  0.42358278840E+03  0.00000000000E+00 0.  1.
         21   -1    0    0  503  502 -0.00000000000E+00 -0.00000000000E+00 -0.23749983257E+03  0.23749983257E+03  0.00000000000E+00 0.  1.
         25    1    1    2    0    0  0.80342545916E+01  0.27759605100E+03  0.19088423182E+03  0.35942441032E+03  0.12500000000E+03 0.  0.
         21    1    1    2  503  504 -0.43434849234E+02 -0.19217402981E+03 -0.42920376322E+02  0.20164226384E+03  0.00000000000E+00 0.  1.
         21    1    1    2  504  501  0.35400594642E+02 -0.85422021190E+02  0.38119100339E+02  0.10001594681E+03  0.00000000000E+00 0.  1.
<mgrwt>
<rscale>  4 0.30454740E+03</rscale>
<asrwt>0</asrwt>
<pdfrwt beam="1">  1       21 0.65166583E-01 0.30454740E+03</pdfrwt>
<pdfrwt beam="2">  1       21 0.36538436E-01 0.30454740E+03</pdfrwt>
<totfact> 0.14771620E+04</totfact>
</mgrwt>
</event>
<event>
 5    0  0.1856407E+000  0.4497252E+03  0.7546771E-02  0.1027804E+00
         21   -1    0    0  502  501  0.00000000000E+00  0.00000000000E+00  0.48935294896E+03  0.48935294896E+03  0.00000000000E+00 0. -1.
         21   -1    0    0  503  502 -0.00000000000E+00 -0.00000000000E+00 -0.92618967263E+03  0.92618967263E+03  0.00000000000E+00 0. -1.
         25    1    1    2    0    0  0.42443281477E+03  0.84144209449E+02  0.30447714659E+03  0.54364951489E+03  0.12500000000E+03 0.  0.
         21    1    1    2  503  504 -0.99770287290E+01  0.23098862840E+02 -0.16491806393E+02  0.30084518359E+02  0.00000000000E+00 0. -1.
         21    1    1    2  504  501 -0.41445578604E+03 -0.10724307229E+03 -0.72482206387E+03  0.84180858834E+03  0.00000000000E+00 0. -1.
<mgrwt>
<rscale>  4 0.44972515E+03</rscale>
<asrwt>0</asrwt>
<pdfrwt beam="1">  1       21 0.75285070E-01 0.44972515E+03</pdfrwt>
<pdfrwt beam="2">  1       21 0.14249072E+00 0.44972515E+03</pdfrwt>
<totfact> 0.44847859E+02</totfact>
</mgrwt>
</event>
<event>
 5    0  0.1856407E+000  0.4760365E+03  0.7546771E-02  0.1020503E+00
         21   -1    0    0  502  501  0.00000000000E+00  0.00000000000E+00  0.39911357232E+03  0.39911357232E+03  0.00000000000E+00 0. -1.
         21   -1    0    0  503  502 -0.00000000000E+00 -0.00000000000E+00 -0.12407286580E+04  0.12407286580E+04  0.00000000000E+00 0.  1.
         25    1    1    2    0    0 -0.89665857943E+02  0.44635428671E+03  0.18590859699E+03  0.50740429815E+03  0.12500000000E+03 0.  0.
         21    1    1    2  503  504  0.81794148278E+02 -0.25662598152E+03 -0.44948515123E+03  0.52400770820E+03  0.00000000000E+00 0.  1.
         21    1    1    2  504  501  0.78717096654E+01 -0.18972830519E+03 -0.57803853144E+03  0.60843022397E+03  0.00000000000E+00 0.  1.
<mgrwt>
<rscale>  4 0.47505429E+03</rscale>
<asrwt>0</asrwt>
<pdfrwt beam="1">  1       21 0.61402088E-01 0.47603650E+03</pdfrwt>
<pdfrwt beam="2">  1       21 0.19088133E+00 0.47603650E+03</pdfrwt>
<totfact> 0.30622114E+02</totfact>
</mgrwt>
</event>
<event>
 5    0  0.1856407E+000  0.2433354E+03  0.7546771E-02  0.1117591E+00
         21   -1    0    0  502  501  0.00000000000E+00  0.00000000000E+00  0.13749462259E+03  0.13749462259E+03  0.00000000000E+00 0.  1.
         21   -1    0    0  503  502 -0.00000000000E+00 -0.00000000000E+00 -0.99437571859E+03  0.99437571859E+03  0.00000000000E+00 0. -1.
         25    1    1    2    0    0  0.67468068740E+02 -0.23447702420E+03 -0.54783288611E+02  0.27956685048E+03  0.12500000000E+03 0.  0.
         21    1    1    2  503  504 -0.91141705940E+02  0.12097173327E+03 -0.28919000494E+03  0.32645341133E+03  0.00000000000E+00 0. -1.
         21    1    1    2  504  501  0.23673637200E+02  0.11350529093E+03 -0.51290780244E+03  0.52585007937E+03  0.00000000000E+00 0. -1.
<mgrwt>
<rscale>  4 0.24333539E+03</rscale>
<asrwt>0</asrwt>
<pdfrwt beam="1">  1       21 0.21153019E-01 0.24333539E+03</pdfrwt>
<pdfrwt beam="2">  1       21 0.15298088E+00 0.24333539E+03</pdfrwt>
<totfact> 0.56751560E+03</totfact>
</mgrwt>
</event>
<event>
 5    0  0.1856407E+000  0.3157323E+03  0.7546771E-02  0.1077630E+00
         21   -1    0    0  502  501  0.00000000000E+00  0.00000000000E+00  0.40866355030E+03  0.40866355030E+03  0.00000000000E+00 0.  1.
         21   -1    0    0  503  502 -0.00000000000E+00 -0.00000000000E+00 -0.24350323959E+03  0.24350323959E+03  0.00000000000E+00 0.  1.
         25    1    1    2    0    0 -0.23976803732E+03  0.16301281723E+03  0.50003460304E+02  0.31966738392E+03  0.12500000000E+03 0.  0.
         21    1    1    2  503  504  0.17802564642E+03 -0.98511072258E+02  0.23961000532E+02  0.20486993847E+03  0.00000000000E+00 0.  1.
         21    1    1    2  504  501  0.61742390898E+02 -0.64501744976E+02  0.91195849879E+02  0.12762946750E+03  0.00000000000E+00 0.  1.
<mgrwt>
<rscale>  4 0.31573231E+03</rscale>
<asrwt>0</asrwt>
<pdfrwt beam="1">  1       21 0.62871315E-01 0.31573231E+03</pdfrwt>
<pdfrwt beam="2">  1       21 0.37462037E-01 0.31573231E+03</pdfrwt>
<totfact> 0.15126896E+04</totfact>
</mgrwt>
</event>
<event>
 5    0  0.1856407E+000  0.4479659E+03  0.7546771E-02  0.1028330E+00
         21   -1    0    0  502  501  0.00000000000E+00  0.00000000000E+00  0.15016873461E+04  0.15016873461E+04  0.00000000000E+00 0. -1.
         21   -1    0    0  503  502 -0.00000000000E+00 -0.00000000000E+00 -0.37100213974E+03  0.37100213974E+03  0.00000000000E+00 0. -1.
         25    1    1    2    0    0 -0.10931700291E+03  0.41449397696E+03  0.12753885691E+04  0.13512943670E+04  0.12500000000E+03 0.  0.
         21    1    1    2  503  504  0.28448962949E+02  0.22215064663E+02  0.27156645194E+02  0.45170078250E+02  0.00000000000E+00 0.  1.
         21    1    1    2  504  501  0.80868039963E+02 -0.43670904162E+03 -0.17186000797E+03  0.47622504056E+03  0.00000000000E+00 0. -1.
<mgrwt>
<rscale>  4 0.44796592E+03</rscale>
<asrwt>0</asrwt>
<pdfrwt beam="1">  1       21 0.23102882E+00 0.44796592E+03</pdfrwt>
<pdfrwt beam="2">  1       21 0.57077253E-01 0.44796592E+03</pdfrwt>
<totfact> 0.19935356E+02</totfact>
</mgrwt>
</event>
