<event>
 5    0  0.2720079E+000  0.5876450E+03  0.7546771E-02  0.9931376E-01
         21   -1    0    0  503  501  0.00000000000E+00  0.00000000000E+00  0.28122062507E+03  0.28122062507E+03  0.00000000000E+00 0. -1.
         21   -1    0    0  504  502 -0.00000000000E+00 -0.00000000000E+00 -0.53380893174E+03  0.53380893174E+03  0.00000000000E+00 0. -1.
         25    1    1    2    0    0  0.22170843005E+03  0.14351310532E+03 -0.72867157699E+02  0.30113993762E+03  0.12500000000E+03 0.  0.
         21    1    1    2  503  502  0.66158972776E+01 -0.24371707430E+02  0.11774749755E+03  0.12042517759E+03  0.00000000000E+00 0. -1.
         21    1    1    2  504  501 -0.22832432733E+03 -0.11914139789E+03 -0.29746864652E+03  0.39346444160E+03  0.00000000000E+00 0. -1.
<mgrwt>
<rscale>  4 0.58764499E+03</rscale>
<asrwt>0</asrwt>
<pdfrwt beam="1">  1       21 0.43264712E-01 0.58764499E+03</pdfrwt>
<pdfrwt beam="2">  1       21 0.82124450E-01 0.58764499E+03</pdfrwt>
<totfact> 0.56521426E+03</totfact>
</mgrwt>
</event>
<event>
 5    0  0.2720079E+000  0.7040578E+03  0.7546771E-02  0.9710318E-01
         21   -1    0    0  502  501  0.00000000000E+00  0.00000000000E+00  0.95865941631E+02  0.95865941631E+02  0.00000000000E+00 0. -1.
         21   -1    0    0  504  502 -0.00000000000E+00 -0.00000000000E+00 -0.19098573826E+04  0.19098573826E+04  0.00000000000E+00 0. -1.
         25    1    1    2    0    0 -0.85116145672E+02  0.29110031476E+03 -0.39240026542E+03  0.51145588257E+03  0.12500000000E+03 0.  0.
         21    1    1    2  503  501  0.36030520471E+02 -0.85757650571E+02 -0.48242734702E+02  0.10478518258E+03  0.00000000000E+00 0. -1.
         21    1    1    2  504  503  0.49085625200E+02 -0.20534266419E+03 -0.13733484408E+04  0.13894822591E+04  0.00000000000E+00 0. -1.
<mgrwt>
<rscale>  4 0.70405776E+03</rscale>
<asrwt>0</asrwt>
<pdfrwt beam="1">  1       21 0.14748608E-01 0.70405776E+03</pdfrwt>
<pdfrwt beam="2">  1       21 0.29382419E+00 0.70405776E+03</pdfrwt>
<totfact> 0.10972030E+03</totfact>
</mgrwt>
</event>
<event>
 5    0  0.2720079E+000  0.4581883E+03  0.7546771E-02  0.1025308E+00
         21   -1    0    0  503  501  0.00000000000E+00  0.00000000000E+00  0.40145181622E+03  0.40145181622E+03  0.00000000000E+00 0. -1.
         21   -1    0    0  504  502 -0.00000000000E+00 -0.00000000000E+00 -0.16735078956E+04  0.16735078956E+04  0.00000000000E+00 0. -1.
         25    1    1    2    0    0  0.22080814925E+03 -0.57772576315E+02 -0.94323402689E+03  0.97847296275E+03  0.12500000000E+03 0.  0.
         21    1    1    2  503  502 -0.19413412014E+03  0.38532530597E+02 -0.69816771136E+03  0.72567965777E+03  0.00000000000E+00 0. -1.
         21    1    1    2  504  501 -0.26674029114E+02  0.19240045717E+02  0.36934565890E+03  0.37080709127E+03  0.00000000000E+00 0. -1.
<mgrwt>
<rscale>  4 0.45818827E+03</rscale>
<asrwt>0</asrwt>
<pdfrwt beam="1">  1       21 0.61761818E-01 0.45818827E+03</pdfrwt>
<pdfrwt beam="2">  1       21 0.25746275E+00 0.45818827E+03</pdfrwt>
<totfact> 0.11444039E+02</totfact>
</mgrwt>
</event>
<event>
 5    0  0.2720079E+000  0.3959987E+03  0.7546771E-02  0.1045174E+00
         21   -1    0    0  503  501  0.00000000000E+00  0.00000000000E+00  0.24078043459E+02  0.24078043459E+02  0.00000000000E+00 0. -1.
         21   -1    0    0  504  502 -0.00000000000E+00 -0.00000000000E+00 -0.30319809554E+04  0.30319809554E+04  0.00000000000E+00 0. -1.
         25    1    1    2    0    0  0.20048872663E+03 -0.15996521553E+02 -0.19936344706E+04  0.20076491278E+04  0.12500000000E+03 0.  0.
         21    1    1    2  503  502 -0.46007517252E+02  0.26974196721E+02 -0.54597880254E+02  0.76323177742E+02  0.00000000000E+00 0. -1.
         21    1    1    2  504  501 -0.15448120938E+03 -0.10977675168E+02 -0.95967056112E+03  0.97208669330E+03  0.00000000000E+00 0. -1.
<mgrwt>
<rscale>  4 0.39599868E+03</rscale>
<asrwt>0</asrwt>
<pdfrwt beam="1">  1       21 0.37043137E-02 0.39599868E+03</pdfrwt>
<pdfrwt beam="2">  1       21 0.46645870E+00 0.39599868E+03</pdfrwt>
<totfact> 0.11648456E+03</totfact>
</mgrwt>
</event>
<event>
 5    0  0.2720079E+000  0.1192278E+04  0.7546771E-02  0.9119643E-01
         21   -1    0    0  502  501  0.00000000000E+00  0.00000000000E+00  0.33810102044E+03  0.33810102044E+03  0.00000000000E+00 0.  1.
         21   -1    0    0  504  502 -0.00000000000E+00 -0.00000000000E+00 -0.16480867415E+04  0.16480867415E+04  0.00000000000E+00 0.  1.
         25    1    1    2    0    0 -0.34246991787E+03  0.46330825746E+03 -0.10645783674E+04  0.12169191782E+04  0.12500000000E+03 0.  0.
         21    1    1    2  503  501  0.47506840506E+02 -0.22462225237E+02  0.11605212154E+03  0.12739523685E+03  0.00000000000E+00 0.  1.
         21    1    1    2  504  503  0.29496307736E+03 -0.44084603222E+03 -0.36145947518E+03  0.64187334680E+03  0.00000000000E+00 0.  1.
<mgrwt>
<rscale>  4 0.11922775E+04</rscale>
<asrwt>0</asrwt>
<pdfrwt beam="1">  1       21 0.52015541E-01 0.11922775E+04</pdfrwt>
<pdfrwt beam="2">  1       21 0.25355181E+00 0.11922775E+04</pdfrwt>
<totfact> 0.13815980E+02</totfact>
</mgrwt>
</event>
<event>
 5    0  0.2720079E+000  0.5188636E+03  0.7546771E-02  0.1008969E+00
         21   -1    0    0  502  501  0.00000000000E+00  0.00000000000E+00  0.78461857810E+03  0.78461857810E+03  0.00000000000E+00 0. -1.
         21   -1    0    0  503  502 -0.00000000000E+00 -0.00000000000E+00 -0.51325002328E+03  0.51325002328E+03  0.00000000000E+00 0.  1.
         25    1    1    2    0    0  0.19738386849E+03  0.93925309516E+02 -0.42855294399E+03  0.49705631583E+03  0.12500000000E+03 0.  0.
         21    1    1    2  503  504 -0.10575412903E+03 -0.85236351297E+02  0.50516997526E+02  0.14491769536E+03  0.00000000000E+00 0. -1.
         21    1    1    2  504  501 -0.91629739466E+02 -0.86889582190E+01  0.64940450129E+03  0.65589459019E+03  0.00000000000E+00 0. -1.
<mgrwt>
<rscale>  4 0.51886362E+03</rscale>
<asrwt>0</asrwt>
<pdfrwt beam="1">  1       21 0.12071055E+00 0.51886362E+03</pdfrwt>
<pdfrwt beam="2">  1       21 0.78961542E-01 0.51886362E+03</pdfrwt>
<totfact> 0.60207458E+02</totfact>
</mgrwt>
</event>
<event>
 5    0  0.2720079E+000  0.4491441E+03  0.7546771E-02  0.1027978E+00
         21   -1    0    0  502  501  0.00000000000E+00  0.00000000000E+00  0.69222980579E+03  0.69222980579E+03  0.00000000000E+00 0.  1.
         21   -1    0    0  503  502 -0.00000000000E+00 -0.00000000000E+00 -0.14592033988E+03  0.14592033988E+03  0.00000000000E+00 0. -1.
         25    1    1    2    0    0  0.56764216649E+02 -0.20170920783E+03  0.49614118294E+02  0.24898863739E+03  0.12500000000E+03 0.  0.
         21    1    1    2  503  504 -0.39786060578E+02  0.18597499922E+03  0.15139061335E+03  0.24308177382E+03  0.00000000000E+00 0.  1.
         21    1    1    2  504  501 -0.16978156071E+02  0.15734208607E+02  0.34530473426E+03  0.34607973446E+03  0.00000000000E+00 0.  1.
<mgrwt>
<rscale>  4 0.44914406E+03</rscale>
<asrwt>0</asrwt>
<pdfrwt beam="1">  1       21 0.10649689E+00 0.44914406E+03</pdfrwt>
<pdfrwt beam="2">  1       21 0.22449284E-01 0.44914406E+03</pdfrwt>
<totfact> 0.11704417E+04</totfact>
</mgrwt>
</event>
<event>
 5    0  0.2720079E+000  0.1126359E+04  0.7546771E-02  0.9179875E-01
         21   -1    0    0  504  501  0.00000000000E+00  0.00000000000E+00  0.18651203043E+04  0.18651203043E+04  0.00000000000E+00 0.  1.
         21   -1    0    0  503  502 -0.00000000000E+00 -0.00000000000E+00 -0.30602788406E+03  0.30602788406E+03  0.00000000000E+00 0.  1.
         25    1    1    2    0    0  0.15224895663E+02  0.47273349414E+03  0.68246619034E+03  0.83969866910E+03  0.12500000000E+03 0.  0.
         21    1    1    2  503  501 -0.19182362109E+02 -0.50055593659E+03  0.48964433418E+02  0.50331076326E+03  0.00000000000E+00 0.  1.
         21    1    1    2  504  502  0.39574664462E+01  0.27822442449E+02  0.82766179643E+03  0.82813875596E+03  0.00000000000E+00 0.  1.
<mgrwt>
<rscale>  4 0.11263585E+04</rscale>
<asrwt>0</asrwt>
<pdfrwt beam="1">  1       21 0.28694158E+00 0.11263585E+04</pdfrwt>
<pdfrwt beam="2">  1       21 0.47081214E-01 0.11263585E+04</pdfrwt>
<totfact> 0.10709488E+02</totfact>
</mgrwt>
</event>
<event>
 5    0  0.2720079E+000  0.5421510E+03  0.7546771E-02  0.1003327E+00
         21   -1    0    0  504  501  0.00000000000E+00  0.00000000000E+00  0.44085182314E+03  0.44085182314E+03  0.00000000000E+00 0. -1.
         21   -1    0    0  503  502 -0.00000000000E+00 -0.00000000000E+00 -0.65584550224E+03  0.65584550224E+03  0.00000000000E+00 0. -1.
         25    1    1    2    0    0  0.42778968663E+03 -0.53943407090E+02 -0.29760594256E+03  0.53861693643E+03  0.12500000000E+03 0.  0.
         21    1    1    2  503  501 -0.20534571479E+02  0.90324278998E+02 -0.75697992427E+02  0.11962579178E+03  0.00000000000E+00 0.  1.
         21    1    1    2  504  502 -0.40725511515E+03 -0.36380871908E+02  0.15831025589E+03  0.43845459717E+03  0.00000000000E+00 0. -1.
<mgrwt>
<rscale>  4 0.54215096E+03</rscale>
<asrwt>0</asrwt>
<pdfrwt beam="1">  1       21 0.67823358E-01 0.54215096E+03</pdfrwt>
<pdfrwt beam="2">  1       21 0.10089931E+00 0.54215096E+03</pdfrwt>
<totfact> 0.13214383E+03</totfact>
</mgrwt>
</event>
<event>
 5    0  0.2720079E+000  0.3709512E+03  0.7546771E-02  0.1054330E+00
         21   -1    0    0  504  501  0.00000000000E+00  0.00000000000E+00  0.75025862481E+03  0.75025862481E+03  0.00000000000E+00 0.  1.
         21   -1    0    0  501  502 -0.00000000000E+00 -0.00000000000E+00 -0.33985630514E+03  0.33985630514E+03  0.00000000000E+00 0. -1.
         25    1    1    2    0    0  0.11460656290E+03 -0.18761192897E+03 -0.26901723043E+03  0.36922644870E+03  0.12500000000E+03 0.  0.
         21    1    1    2  503  502 -0.35341048790E+02  0.99164395481E+01  0.49641468902E+02  0.61738164353E+02  0.00000000000E+00 0.  1.
         21    1    1    2  504  503 -0.79265514109E+02  0.17769548942E+03  0.62977808121E+03  0.65915031689E+03  0.00000000000E+00 0.  1.
<mgrwt>
<rscale>  4 0.37095117E+03</rscale>
<asrwt>0</asrwt>
<pdfrwt beam="1">  1       21 0.11542440E+00 0.37095117E+03</pdfrwt>
<pdfrwt beam="2">  1       21 0.52285586E-01 0.37095117E+03</pdfrwt>
<totfact> 0.17911444E+03</totfact>
</mgrwt>
</event>
<event>
 5    0  0.2720079E+000  0.7665625E+03  0.7546771E-02  0.9609719E-01
         21   -1    0    0  503  501  0.00000000000E+00  0.00000000000E+00  0.22045089094E+03  0.22045089094E+03  0.00000000000E+00 0.  1.
         21   -1    0    0  504  502 -0.00000000000E+00 -0.00000000000E+00 -0.12647334014E+04  0.12647334014E+04  0.00000000000E+00 0.  1.
         25    1    1    2    0    0  0.30260498260E+03 -0.35488462572E+01 -0.70648111256E+03  0.77866740796E+03  0.12500000000E+03 0.  0.
         21    1    1    2  503  502  0.89965162391E+02 -0.85252961566E+02  0.62540781717E+02  0.13882776119E+03  0.00000000000E+00 0.  1.
         21    1    1    2  504  501 -0.39257014499E+03  0.88801807823E+02 -0.40034217962E+03  0.56768912319E+03  0.00000000000E+00 0.  1.
<mgrwt>
<rscale>  4 0.76656253E+03</rscale>
<asrwt>0</asrwt>
<pdfrwt beam="1">  1       21 0.33915521E-01 0.76656253E+03</pdfrwt>
<pdfrwt beam="2">  1       21 0.19457437E+00 0.76656253E+03</pdfrwt>
<totfact> 0.91594851E+02</totfact>
</mgrwt>
</event>
<event>
 5    0  0.2720079E+000  0.7728378E+03  0.7546771E-02  0.9600187E-01
         21   -1    0    0  502  501  0.00000000000E+00  0.00000000000E+00  0.33026106185E+03  0.33026106185E+03  0.00000000000E+00 0.  1.
         21   -1    0    0  503  502 -0.00000000000E+00 -0.00000000000E+00 -0.56026356601E+03  0.56026356601E+03  0.00000000000E+00 0. -1.
         25    1    1    2    0    0  0.36015454556E+03  0.12242939704E+03 -0.22174009342E+03  0.45770506112E+03  0.12500000000E+03 0.  0.
         21    1    1    2  503  504 -0.33985832650E+03 -0.12344457416E+03 -0.69584773320E+02  0.36821771503E+03  0.00000000000E+00 0.  1.
         21    1    1    2  504  501 -0.20296219063E+02  0.10151771253E+01  0.61322362578E+02  0.64601851715E+02  0.00000000000E+00 0.  1.
<mgrwt>
<rscale>  4 0.77283779E+03</rscale>
<asrwt>0</asrwt>
<pdfrwt beam="1">  1       21 0.50809395E-01 0.77283779E+03</pdfrwt>
<pdfrwt beam="2">  1       21 0.86194394E-01 0.77283779E+03</pdfrwt>
<totfact> 0.34427735E+03</totfact>
</mgrwt>
</event>
<event>
 5    0  0.2720079E+000  0.5581956E+03  0.7546771E-02  0.9996146E-01
         21   -1    0    0  502  501  0.00000000000E+00  0.00000000000E+00  0.41150753247E+03  0.41150753247E+03  0.00000000000E+00 0.  1.
         21   -1    0    0  503  502 -0.00000000000E+00 -0.00000000000E+00 -0.52810628863E+03  0.52810628863E+03  0.00000000000E+00 0.  1.
         25    1    1    2    0    0 -0.91720212314E+02  0.36259271203E+03 -0.29111762083E+03  0.49016379030E+03  0.12500000000E+03 0.  0.
         21    1    1    2  503  504  0.34442285903E+01 -0.14640644556E+03 -0.17016029260E+02  0.14743220565E+03  0.00000000000E+00 0. -1.
         21    1    1    2  504  501  0.88275983724E+02 -0.21618626648E+03  0.19153489392E+03  0.30201782514E+03  0.00000000000E+00 0.  1.
<mgrwt>
<rscale>  4 0.55819558E+03</rscale>
<asrwt>0</asrwt>
<pdfrwt beam="1">  1       21 0.63308851E-01 0.55819558E+03</pdfrwt>
<pdfrwt beam="2">  1       21 0.81247122E-01 0.55819558E+03</pdfrwt>
<totfact> 0.25713237E+03</totfact>
</mgrwt>
</event>
<event>
 5    0  0.2720079E+000  0.4339047E+03  0.7546771E-02  0.1032634E+00
         21   -1    0    0  503  501  0.00000000000E+00  0.00000000000E+00  0.64097988492E+03  0.64097988492E+03  0.00000000000E+00 0.  1.
         21   -1    0    0  504  502 -0.00000000000E+00 -0.00000000000E+00 -0.26453938156E+03  0.26453938156E+03  0.00000000000E+00 0.  1.
         25    1    1    2    0    0 -0.84912538109E+02 -0.18518575578E+03 -0.16885356519E+02  0.23961222535E+03  0.12500000000E+03 0.  0.
         21    1    1    2  503  502  0.29159833589E+02  0.29081404686E+01  0.46227774810E+03  0.46320564500E+03  0.00000000000E+00 0.  1.
         21    1    1    2  504  501  0.55752704520E+02  0.18227761531E+03 -0.68951888209E+02  0.20270139613E+03  0.00000000000E+00 0.  1.
<mgrwt>
<rscale>  4 0.43390472E+03</rscale>
<asrwt>0</asrwt>
<pdfrwt beam="1">  1       21 0.98612290E-01 0.43390472E+03</pdfrwt>
<pdfrwt beam="2">  1       21 0.40698366E-01 0.43390472E+03</pdfrwt>
<totfact> 0.43467677E+03</totfact>
</mgrwt>
</event>
<event>
 5    0  0.2720079E+000  0.9307276E+03  0.7546771E-02  0.9387965E-01
         21   -1    0    0  503  501  0.00000000000E+00  0.00000000000E+00  0.81935647363E+03  0.81935647363E+03  0.00000000000E+00 0.  1.
         21   -1    0    0  504  502 -0.00000000000E+00 -0.00000000000E+00 -0.53293441342E+03  0.53293441342E+03  0.00000000000E+00 0. -1.
         25    1    1    2    0    0 -0.27069460821E+03  0.44017561435E+03 -0.11394527140E+02  0.53177530746E+03  0.12500000000E+03 0.  0.
         21    1    1    2  503  502  0.29383464289E+02 -0.12922013362E+03  0.39369682915E+03  0.41540152165E+03  0.00000000000E+00 0.  1.
         21    1    1    2  504  501  0.24131114392E+03 -0.31095548073E+03 -0.95880241798E+02  0.40511405794E+03  0.00000000000E+00 0.  1.
<mgrwt>
<rscale>  4 0.93072757E+03</rscale>
<asrwt>0</asrwt>
<pdfrwt beam="1">  1       21 0.12605484E+00 0.93072757E+03</pdfrwt>
<pdfrwt beam="2">  1       21 0.81989910E-01 0.93072757E+03</pdfrwt>
<totfact> 0.43956004E+02</totfact>
</mgrwt>
</event>
<event>
 5    0  0.2720079E+000  0.7537785E+03  0.7546771E-02  0.9629441E-01
         21   -1    0    0  503  501  0.00000000000E+00  0.00000000000E+00  0.83250784151E+02  0.83250784151E+02  0.00000000000E+00 0. -1.
         21   -1    0    0  504  502 -0.00000000000E+00 -0.00000000000E+00 -0.22710044985E+04  0.22710044985E+04  0.00000000000E+00 0. -1.
         25    1    1    2    0    0  0.33856507928E+03  0.16665669058E+03 -0.12648893380E+04  0.13258849131E+04  0.12500000000E+03 0.  0.
         21    1    1    2  503  502 -0.18440922597E+02 -0.16884763495E+02  0.12865890718E+02  0.28119281792E+02  0.00000000000E+00 0. -1.
         21    1    1    2  504  501 -0.32012415668E+03 -0.14977192709E+03 -0.93573026705E+03  0.10002510877E+04  0.00000000000E+00 0. -1.
<mgrwt>
<rscale>  4 0.75377851E+03</rscale>
<asrwt>0</asrwt>
<pdfrwt beam="1">  1       21 0.12807811E-01 0.75377851E+03</pdfrwt>
<pdfrwt beam="2">  1       21 0.34938536E+00 0.75377851E+03</pdfrwt>
<totfact> 0.63713922E+02</totfact>
</mgrwt>
</event>
<event>
 5    0  0.2720079E+000  0.4438317E+03  0.7546771E-02  0.1029578E+00
         21   -1    0    0  503  501  0.00000000000E+00  0.00000000000E+00  0.48436772321E+03  0.48436772321E+03  0.00000000000E+00 0.  1.
         21   -1    0    0  504  502 -0.00000000000E+00 -0.00000000000E+00 -0.11747066092E+04  0.11747066092E+04  0.00000000000E+00 0. -1.
         25    1    1    2    0    0 -0.11706844219E+03  0.18807183332E+03 -0.66509623962E+03  0.71207727292E+03  0.12500000000E+03 0.  0.
         21    1    1    2  503  502 -0.80689289658E+01 -0.46030396737E+02  0.44116701596E+03  0.44363525673E+03  0.00000000000E+00 0.  1.
         21    1    1    2  504  501  0.12513737116E+03 -0.14204143658E+03 -0.46640966233E+03  0.50336180276E+03  0.00000000000E+00 0. -1.
<mgrwt>
<rscale>  4 0.44383166E+03</rscale>
<asrwt>0</asrwt>
<pdfrwt beam="1">  1       21 0.74518111E-01 0.44383166E+03</pdfrwt>
<pdfrwt beam="2">  1       21 0.18072409E+00 0.44383166E+03</pdfrwt>
<totfact> 0.23723156E+02</totfact>
</mgrwt>
</event>
<event>
 5    0  0.2720079E+000  0.4888192E+03  0.7546771E-02  0.1016739E+00
         21   -1    0    0  504  501  0.00000000000E+00  0.00000000000E+00  0.59717888153E+03  0.59717888153E+03  0.00000000000E+00 0. -1.
         21   -1    0    0  501  502 -0.00000000000E+00 -0.00000000000E+00 -0.12281743589E+03  0.12281743589E+03  0.00000000000E+00 0. -1.
         25    1    1    2    0    0  0.21663692936E+01  0.22472875430E+03  0.31281705655E+03  0.40495335168E+03  0.12500000000E+03 0.  0.
         21    1    1    2  503  502  0.13998848089E+01 -0.20036274472E+03  0.57975272709E+02  0.20858648421E+03  0.00000000000E+00 0. -1.
         21    1    1    2  504  503 -0.35662541025E+01 -0.24366009582E+02  0.10356911638E+03  0.10645648153E+03  0.00000000000E+00 0.  1.
<mgrwt>
<rscale>  4 0.48881917E+03</rscale>
<asrwt>0</asrwt>
<pdfrwt beam="1">  1       21 0.91873672E-01 0.48881917E+03</pdfrwt>
<pdfrwt beam="2">  1       21 0.18894990E-01 0.48881917E+03</pdfrwt>
<totfact> 0.23034403E+04</totfact>
</mgrwt>
</event>
<event>
 5    0  0.2720079E+000  0.9132953E+03  0.7546771E-02  0.9409113E-01
         21   -1    0    0  504  501  0.00000000000E+00  0.00000000000E+00  0.28927861194E+03  0.28927861194E+03  0.00000000000E+00 0. -1.
         21   -1    0    0  501  502 -0.00000000000E+00 -0.00000000000E+00 -0.80205632297E+03  0.80205632297E+03  0.00000000000E+00 0.  1.
         25    1    1    2    0    0  0.21905602806E+03  0.40106853030E+02 -0.73034611039E+03  0.77370830683E+03  0.12500000000E+03 0.  0.
         21    1    1    2  503  502 -0.20878477550E+03 -0.21389686376E+02  0.19368396761E+03  0.28559075699E+03  0.00000000000E+00 0. -1.
         21    1    1    2  504  503 -0.10271252551E+02 -0.18717166654E+02  0.23884431760E+02  0.32035871098E+02  0.00000000000E+00 0. -1.
<mgrwt>
<rscale>  4 0.91329527E+03</rscale>
<asrwt>0</asrwt>
<pdfrwt beam="1">  1       21 0.44504403E-01 0.91329527E+03</pdfrwt>
<pdfrwt beam="2">  1       21 0.12339328E+00 0.91329527E+03</pdfrwt>
<totfact> 0.18240822E+03</totfact>
</mgrwt>
</event>
<event>
 5    0  0.2720079E+000  0.3846714E+03  0.7546771E-02  0.1049221E+00
         21   -1    0    0  504  501  0.00000000000E+00  0.00000000000E+00  0.83638265903E+03  0.83638265903E+03  0.00000000000E+00 0. -1.
         21   -1    0    0  501  502 -0.00000000000E+00 -0.00000000000E+00 -0.10707053782E+03  0.10707053782E+03  0.00000000000E+00 0. -1.
         25    1    1    2    0    0  0.18374441104E+03  0.91448849505E+02  0.27755662321E+03  0.36713428027E+03  0.12500000000E+03 0.  0.
         21    1    1    2  503  502 -0.62185493102E+02 -0.84968045871E+02 -0.32176784965E+01  0.10534209902E+03  0.00000000000E+00 0. -1.
         21    1    1    2  504  503 -0.12155891794E+03 -0.64808036348E+01  0.45497317650E+03  0.47097681756E+03  0.00000000000E+00 0. -1.
<mgrwt>
<rscale>  4 0.38467138E+03</rscale>
<asrwt>0</asrwt>
<pdfrwt beam="1">  1       21 0.12867425E+00 0.38467138E+03</pdfrwt>
<pdfrwt beam="2">  1       21 0.16472391E-01 0.38467138E+03</pdfrwt>
<totfact> 0.13339456E+04</totfact>
</mgrwt>
</event>
<event>
 5    0  0.2720079E+000  0.5315895E+03  0.7546771E-02  0.1005847E+00
         21   -1    0    0  504  501  0.00000000000E+00  0.00000000000E+00  0.85778965167E+03  0.85778965167E+03  0.00000000000E+00 0. -1.
         21   -1    0    0  501  502 -0.00000000000E+00 -0.00000000000E+00 -0.14845752884E+03  0.14845752884E+03  0.00000000000E+00 0. -1.
         25    1    1    2    0    0  0.18500835114E+03  0.16500044551E+03  0.17842276414E+03  0.33001957483E+03  0.12500000000E+03 0.  0.
         21    1    1    2  503  502 -0.21187215207E+03 -0.13987523643E+03  0.15276222738E+03  0.29629577909E+03  0.00000000000E+00 0. -1.
         21    1    1    2  504  503  0.26863800935E+02 -0.25125209076E+02  0.37814713131E+03  0.37993182659E+03  0.00000000000E+00 0. -1.
<mgrwt>
<rscale>  4 0.53158953E+03</rscale>
<asrwt>0</asrwt>
<pdfrwt beam="1">  1       21 0.13196764E+00 0.53158953E+03</pdfrwt>
<pdfrwt beam="2">  1       21 0.22839620E-01 0.53158953E+03</pdfrwt>
<totfact> 0.64159580E+03</totfact>
</mgrwt>
</event>
<event>
 5    0  0.2720079E+000  0.6065340E+03  0.7546771E-02  0.9891942E-01
         21   -1    0    0  504  501  0.00000000000E+00  0.00000000000E+00  0.54427496040E+03  0.54427496040E+03  0.00000000000E+00 0.  1.
         21   -1    0    0  501  502 -0.00000000000E+00 -0.00000000000E+00 -0.90313147909E+03  0.90313147909E+03  0.00000000000E+00 0. -1.
         25    1    1    2    0    0  0.15830618307E+03 -0.15882235013E+03 -0.66528343816E+03  0.71310058168E+03  0.12500000000E+03 0.  0.
         21    1    1    2  503  502 -0.20796603447E+03  0.15208721171E+03 -0.13443257278E+03  0.29060713701E+03  0.00000000000E+00 0.  1.
         21    1    1    2  504  503  0.49659851401E+02  0.67351384294E+01  0.44085949225E+03  0.44369872080E+03  0.00000000000E+00 0.  1.
<mgrwt>
<rscale>  4 0.60653399E+03</rscale>
<asrwt>0</asrwt>
<pdfrwt beam="1">  1       21 0.83734610E-01 0.60653399E+03</pdfrwt>
<pdfrwt beam="2">  1       21 0.13894330E+00 0.60653399E+03</pdfrwt>
<totfact> 0.35225889E+02</totfact>
</mgrwt>
</event>
<event>
 5    0  0.2720079E+000  0.6165602E+03  0.7546771E-02  0.9871632E-01
         21   -1    0    0  502  501  0.00000000000E+00  0.00000000000E+00  0.59850678955E+03  0.59850678955E+03  0.00000000000E+00 0. -1.
         21   -1    0    0  503  502 -0.00000000000E+00 -0.00000000000E+00 -0.25956913581E+03  0.25956913581E+03  0.00000000000E+00 0. -1.
         25    1    1    2    0    0  0.20333845500E+03 -0.24273668630E+03  0.12721334118E+02  0.34066766577E+03  0.12500000000E+03 0.  0.
         21    1    1    2  503  504 -0.15998098777E+03  0.21489147320E+03  0.10089944620E+03  0.28627427398E+03  0.00000000000E+00 0. -1.
         21    1    1    2  504  501 -0.43357467232E+02  0.27845213101E+02  0.22531687342E+03  0.23113398561E+03  0.00000000000E+00 0. -1.
<mgrwt>
<rscale>  4 0.61656023E+03</rscale>
<asrwt>0</asrwt>
<pdfrwt beam="1">  1       21 0.92077967E-01 0.61656023E+03</pdfrwt>
<pdfrwt beam="2">  1       21 0.39933713E-01 0.61656023E+03</pdfrwt>
<totfact> 0.50592296E+03</totfact>
</mgrwt>
</event>
<event>
 5    0  0.2720079E+000  0.5346830E+03  0.7546771E-02  0.1005103E+00
         21   -1    0    0  503  501  0.00000000000E+00  0.00000000000E+00  0.12669490562E+03  0.12669490562E+03  0.00000000000E+00 0. -1.
         21   -1    0    0  504  502 -0.00000000000E+00 -0.00000000000E+00 -0.71982919891E+03  0.71982919891E+03  0.00000000000E+00 0.  1.
         25    1    1    2    0    0 -0.18095027583E+03  0.15384182851E+03 -0.29981836673E+03  0.40240074994E+03  0.12500000000E+03 0.  0.
         21    1    1    2  503  502 -0.32372266860E+02  0.54520826310E+01  0.15571135819E+02  0.36333856627E+02  0.00000000000E+00 0. -1.
         21    1    1    2  504  501  0.21332254269E+03 -0.15929391114E+03 -0.30888706237E+03  0.40778949796E+03  0.00000000000E+00 0.  1.
<mgrwt>
<rscale>  4 0.53468303E+03</rscale>
<asrwt>0</asrwt>
<pdfrwt beam="1">  1       21 0.19491524E-01 0.53468303E+03</pdfrwt>
<pdfrwt beam="2">  1       21 0.11074295E+00 0.53468303E+03</pdfrwt>
<totfact> 0.13607221E+04</totfact>
</mgrwt>
</event>
<event>
 5    0  0.2720079E+000  0.5236990E+03  0.7546771E-02  0.1007772E+00
         21   -1    0    0  502  501  0.00000000000E+00  0.00000000000E+00  0.13731332553E+03  0.13731332553E+03  0.00000000000E+00 0. -1.
         21   -1    0    0  504  502 -0.00000000000E+00 -0.00000000000E+00 -0.56923440404E+03  0.56923440404E+03  0.00000000000E+00 0.  1.
         25    1    1    2    0    0  0.20421609366E+03  0.66485608604E+02 -0.49661774458E+02  0.25340844679E+03  0.12500000000E+03 0.  0.
         21    1    1    2  503  501 -0.25098609670E+02 -0.12560319143E+02 -0.56381074280E+00  0.28071688708E+02  0.00000000000E+00 0. -1.
         21    1    1    2  504  503 -0.17911748399E+03 -0.53925289461E+02 -0.38169549331E+03  0.42506759407E+03  0.00000000000E+00 0.  1.
<mgrwt>
<rscale>  4 0.52369900E+03</rscale>
<asrwt>0</asrwt>
<pdfrwt beam="1">  1       21 0.21125127E-01 0.52369900E+03</pdfrwt>
<pdfrwt beam="2">  1       21 0.87574523E-01 0.52369900E+03</pdfrwt>
<totfact> 0.20693763E+04</totfact>
</mgrwt>
</event>
<event>
 5    0  0.2720079E+000  0.4353084E+03  0.7546771E-02  0.1032196E+00
         21   -1    0    0  502  501  0.00000000000E+00  0.00000000000E+00  0.23707908641E+03  0.23707908641E+03  0.00000000000E+00 0. -1.
         21   -1    0    0  504  502 -0.00000000000E+00 -0.00000000000E+00 -0.59138100301E+03  0.59138100301E+03  0.00000000000E+00 0.  1.
         25    1    1    2    0    0  0.54497309075E+02  0.20982419441E+03 -0.31097686229E+03  0.39915881318E+03  0.12500000000E+03 0.  0.
         21    1    1    2  503  501  0.23229737692E+02 -0.42680556106E+02  0.15268544794E+03  0.16023138455E+03  0.00000000000E+00 0. -1.
         21    1    1    2  504  503 -0.77727046766E+02 -0.16714363830E+03 -0.19601050225E+03  0.26906989169E+03  0.00000000000E+00 0.  1.
<mgrwt>
<rscale>  4 0.43530841E+03</rscale>
<asrwt>0</asrwt>
<pdfrwt beam="1">  1       21 0.36473706E-01 0.43530841E+03</pdfrwt>
<pdfrwt beam="2">  1       21 0.90981692E-01 0.43530841E+03</pdfrwt>
<totfact> 0.65937988E+03</totfact>
</mgrwt>
</event>
<event>
 5    0  0.2720079E+000  0.4153412E+03  0.7546771E-02  0.1038593E+00
         21   -1    0    0  503  501  0.00000000000E+00  0.00000000000E+00  0.11509637089E+03  0.11509637089E+03  0.00000000000E+00 0.  1.
         21   -1    0    0  504  502 -0.00000000000E+00 -0.00000000000E+00 -0.69662140093E+03  0.69662140093E+03  0.00000000000E+00 0.  1.
         25    1    1    2    0    0 -0.13544226752E+03  0.14921054741E+03 -0.30570696470E+03  0.38689810487E+03  0.12500000000E+03 0.  0.
         21    1    1    2  503  502  0.11968907775E+03 -0.12526136298E+03 -0.32477027024E+03  0.36809185378E+03  0.00000000000E+00 0.  1.
         21    1    1    2  504  501  0.15753189770E+02 -0.23949184430E+02  0.48952204901E+02  0.56727813174E+02  0.00000000000E+00 0.  1.
<mgrwt>
<rscale>  4 0.41534118E+03</rscale>
<asrwt>0</asrwt>
<pdfrwt beam="1">  1       21 0.17707134E-01 0.41534118E+03</pdfrwt>
<pdfrwt beam="2">  1       21 0.10717252E+00 0.41534118E+03</pdfrwt>
<totfact> 0.18275594E+04</totfact>
</mgrwt>
</event>
<event>
 5    0  0.2720079E+000  0.4510504E+03  0.7546771E-02  0.1027409E+00
         21   -1    0    0  503  501  0.00000000000E+00  0.00000000000E+00  0.73637132054E+02  0.73637132054E+02  0.00000000000E+00 0.  1.
         21   -1    0    0  504  502 -0.00000000000E+00 -0.00000000000E+00 -0.80761668454E+03  0.80761668454E+03  0.00000000000E+00 0.  1.
         25    1    1    2    0    0 -0.20360345725E+03 -0.47899429658E+02 -0.33193972210E+03  0.41177384846E+03  0.12500000000E+03 0.  0.
         21    1    1    2  503  502  0.14931250933E+02 -0.33473779938E+02 -0.52684854516E+02  0.64180449462E+02  0.00000000000E+00 0.  1.
         21    1    1    2  504  501  0.18867220631E+03  0.81373209595E+02 -0.34935497587E+03  0.40529951867E+03  0.00000000000E+00 0.  1.
<mgrwt>
<rscale>  4 0.45105035E+03</rscale>
<asrwt>0</asrwt>
<pdfrwt beam="1">  1       21 0.11328789E-01 0.45105035E+03</pdfrwt>
<pdfrwt beam="2">  1       21 0.12424872E+00 0.45105035E+03</pdfrwt>
<totfact> 0.28468170E+04</totfact>
</mgrwt>
</event>
<event>
 5    0  0.2720079E+000  0.4166780E+03  0.7546771E-02  0.1038153E+00
         21   -1    0    0  503  501  0.00000000000E+00  0.00000000000E+00  0.10975339823E+03  0.10975339823E+03  0.00000000000E+00 0. -1.
         21   -1    0    0  504  502 -0.00000000000E+00 -0.00000000000E+00 -0.11525415067E+04  0.11525415067E+04  0.00000000000E+00 0. -1.
         25    1    1    2    0    0  0.12071819669E+03  0.15976587483E+03 -0.81568248346E+03  0.84915306723E+03  0.12500000000E+03 0.  0.
         21    1    1    2  503  502 -0.46306189314E+02 -0.15180957302E+02  0.63554851197E+02  0.80087100984E+02  0.00000000000E+00 0. -1.
         21    1    1    2  504  501 -0.74412007381E+02 -0.14458491753E+03 -0.29066047620E+03  0.33305473670E+03  0.00000000000E+00 0. -1.
<mgrwt>
<rscale>  4 0.41667799E+03</rscale>
<asrwt>0</asrwt>
<pdfrwt beam="1">  1       21 0.16885139E-01 0.41667799E+03</pdfrwt>
<pdfrwt beam="2">  1       21 0.17731407E+00 0.41667799E+03</pdfrwt>
<totfact> 0.52599310E+03</totfact>
</mgrwt>
</event>
<event>
 5    0  0.2720079E+000  0.4631068E+03  0.7546771E-02  0.1023884E+00
         21   -1    0    0  503  501  0.00000000000E+00  0.00000000000E+00  0.58870851615E+03  0.58870851615E+03  0.00000000000E+00 0.  1.
         21   -1    0    0  504  502 -0.00000000000E+00 -0.00000000000E+00 -0.29119566619E+03  0.29119566619E+03  0.00000000000E+00 0.  1.
         25    1    1    2    0    0  0.22497789423E+03  0.31748842366E+02 -0.10582589863E+02  0.25953811491E+03  0.12500000000E+03 0.  0.
         21    1    1    2  503  502 -0.19171739285E+03 -0.24679139712E+02 -0.95317406633E+02  0.21552268249E+03  0.00000000000E+00 0.  1.
         21    1    1    2  504  501 -0.33260501371E+02 -0.70697026543E+01  0.40341284646E+03  0.40484338494E+03  0.00000000000E+00 0.  1.
<mgrwt>
<rscale>  4 0.46310685E+03</rscale>
<asrwt>0</asrwt>
<pdfrwt beam="1">  1       21 0.90570541E-01 0.46310685E+03</pdfrwt>
<pdfrwt beam="2">  1       21 0.44799333E-01 0.46310685E+03</pdfrwt>
<totfact> 0.43211758E+03</totfact>
</mgrwt>
</event>
<event>
 5    0  0.2720079E+000  0.5822419E+03  0.7546771E-02  0.9942949E-01
         21   -1    0    0  502  501  0.00000000000E+00  0.00000000000E+00  0.22422017946E+03  0.22422017946E+03  0.00000000000E+00 0. -1.
         21   -1    0    0  503  502 -0.00000000000E+00 -0.00000000000E+00 -0.71260699868E+03  0.71260699868E+03  0.00000000000E+00 0. -1.
         25    1    1    2    0    0  0.17142769307E+03  0.17528913472E+03 -0.89806437821E+02  0.28948908611E+03  0.12500000000E+03 0.  0.
         21    1    1    2  503  504 -0.16642173117E+03 -0.11951190478E+03 -0.49506001707E+03  0.53578326635E+03  0.00000000000E+00 0. -1.
         21    1    1    2  504  501 -0.50059619017E+01 -0.55777229931E+02  0.96479635673E+02  0.11155482568E+03  0.00000000000E+00 0. -1.
<mgrwt>
<rscale>  4 0.58224195E+03</rscale>
<asrwt>0</asrwt>
<pdfrwt beam="1">  1       21 0.34495413E-01 0.58224195E+03</pdfrwt>
<pdfrwt beam="2">  1       21 0.10963184E+00 0.58224195E+03</pdfrwt>
<totfact> 0.44921829E+03</totfact>
</mgrwt>
</event>
<event>
 5    0  0.2720079E+000  0.4615847E+03  0.7546771E-02  0.1024323E+00
         21   -1    0    0  504  501  0.00000000000E+00  0.00000000000E+00  0.64182746078E+02  0.64182746078E+02  0.00000000000E+00 0.  1.
         21   -1    0    0  501  502 -0.00000000000E+00 -0.00000000000E+00 -0.12578222506E+04  0.12578222506E+04  0.00000000000E+00 0.  1.
         25    1    1    2    0    0 -0.20191147745E+03 -0.48622195629E+01 -0.57335462466E+03  0.62060648686E+03  0.12500000000E+03 0.  0.
         21    1    1    2  503  502  0.22232176299E+03 -0.13320726478E+02 -0.63315500956E+03  0.67118527560E+03  0.00000000000E+00 0.  1.
         21    1    1    2  504  503 -0.20410285536E+02  0.18182946041E+02  0.12870129715E+02  0.30213234207E+02  0.00000000000E+00 0.  1.
<mgrwt>
<rscale>  4 0.46158473E+03</rscale>
<asrwt>0</asrwt>
<pdfrwt beam="1">  1       21 0.98742679E-02 0.46158473E+03</pdfrwt>
<pdfrwt beam="2">  1       21 0.19351113E+00 0.46158473E+03</pdfrwt>
<totfact> 0.10682168E+04</totfact>
</mgrwt>
</event>
<event>
 5    0  0.2720079E+000  0.4878371E+03  0.7546771E-02  0.1017003E+00
         21   -1    0    0  502  501  0.00000000000E+00  0.00000000000E+00  0.12867648564E+03  0.12867648564E+03  0.00000000000E+00 0.  1.
         21   -1    0    0  504  502 -0.00000000000E+00 -0.00000000000E+00 -0.55832109220E+03  0.55832109220E+03  0.00000000000E+00 0.  1.
         25    1    1    2    0    0  0.14038041119E+03 -0.18602774754E+03 -0.31142725431E+03  0.40856445933E+03  0.12500000000E+03 0.  0.
         21    1    1    2  503  501  0.84863517168E+01  0.37998658624E+02 -0.32331706541E+01  0.39068780570E+02  0.00000000000E+00 0.  1.
         21    1    1    2  504  503 -0.14886676290E+03  0.14802908892E+03 -0.11498418159E+03  0.23936433794E+03  0.00000000000E+00 0.  1.
<mgrwt>
<rscale>  4 0.48783708E+03</rscale>
<asrwt>0</asrwt>
<pdfrwt beam="1">  1       21 0.19796382E-01 0.48783708E+03</pdfrwt>
<pdfrwt beam="2">  1       21 0.85895553E-01 0.48783708E+03</pdfrwt>
<totfact> 0.24726822E+04</totfact>
</mgrwt>
</event>
<event>
 5    0  0.2720079E+000  0.3671404E+03  0.7546771E-02  0.1055792E+00
         21   -1    0    0  503  501  0.00000000000E+00  0.00000000000E+00  0.33833090005E+03  0.33833090005E+03  0.00000000000E+00 0. -1.
         21   -1    0    0  504  502 -0.00000000000E+00 -0.00000000000E+00 -0.20973816405E+03  0.20973816405E+03  0.00000000000E+00 0.  1.
         25    1    1    2    0    0  0.19193546250E+03 -0.65569714331E+02 -0.11844487240E+02  0.23854538579E+03  0.12500000000E+03 0.  0.
         21    1    1    2  503  502 -0.78551690392E+02  0.53871869126E+01  0.16128323179E+03  0.17947610065E+03  0.00000000000E+00 0. -1.
         21    1    1    2  504  501 -0.11338377211E+03  0.60182527418E+02 -0.20846008552E+02  0.13004757767E+03  0.00000000000E+00 0. -1.
<mgrwt>
<rscale>  4 0.36714044E+03</rscale>
<asrwt>0</asrwt>
<pdfrwt beam="1">  1       21 0.52050908E-01 0.36714044E+03</pdfrwt>
<pdfrwt beam="2">  1       21 0.32267410E-01 0.36714044E+03</pdfrwt>
<totfact> 0.30168378E+04</totfact>
</mgrwt>
</event>
<event>
 5    0  0.2720079E+000  0.6210338E+03  0.7546771E-02  0.9862703E-01
         21   -1    0    0  504  501  0.00000000000E+00  0.00000000000E+00  0.12900716615E+04  0.12900716615E+04  0.00000000000E+00 0.  1.
         21   -1    0    0  503  502 -0.00000000000E+00 -0.00000000000E+00 -0.25990175784E+03  0.25990175784E+03  0.00000000000E+00 0.  1.
         25    1    1    2    0    0  0.15067451545E+03 -0.21792699484E+03  0.32278597443E+02  0.29472341702E+03  0.12500000000E+03 0.  0.
         21    1    1    2  503  501 -0.18324742964E+03  0.27039987662E+03  0.81337531487E+02  0.33661774726E+03  0.00000000000E+00 0.  1.
         21    1    1    2  504  502  0.32572914184E+02 -0.52472881773E+02  0.91655377471E+03  0.91863225503E+03  0.00000000000E+00 0.  1.
<mgrwt>
<rscale>  4 0.62103385E+03</rscale>
<asrwt>0</asrwt>
<pdfrwt beam="1">  1       21 0.19847256E+00 0.62103385E+03</pdfrwt>
<pdfrwt beam="2">  1       21 0.39984887E-01 0.62103385E+03</pdfrwt>
<totfact> 0.64090236E+02</totfact>
</mgrwt>
</event>
<event>
 5    0  0.2720079E+000  0.4669844E+03  0.7546771E-02  0.1022775E+00
         21   -1    0    0  503  501  0.00000000000E+00  0.00000000000E+00  0.11677811997E+04  0.11677811997E+04  0.00000000000E+00 0.  1.
         21   -1    0    0  504  502 -0.00000000000E+00 -0.00000000000E+00 -0.92923390625E+02  0.92923390625E+02  0.00000000000E+00 0. -1.
         25    1    1    2    0    0  0.51631358284E+02 -0.23456012321E+03  0.24270453565E+03  0.36361344885E+03  0.12500000000E+03 0.  0.
         21    1    1    2  503  502 -0.53137615452E+02  0.18336098618E+03  0.25952775588E+03  0.32217931886E+03  0.00000000000E+00 0.  1.
         21    1    1    2  504  501  0.15062571683E+01  0.51199137028E+02  0.57262551753E+03  0.57491182260E+03  0.00000000000E+00 0.  1.
<mgrwt>
<rscale>  4 0.46698442E+03</rscale>
<asrwt>0</asrwt>
<pdfrwt beam="1">  1       21 0.17965864E+00 0.46698442E+03</pdfrwt>
<pdfrwt beam="2">  1       21 0.14295907E-01 0.46698442E+03</pdfrwt>
<totfact> 0.67726232E+03</totfact>
</mgrwt>
</event>
<event>
 5    0  0.2720079E+000  0.6245114E+03  0.7546771E-02  0.9855818E-01
         21   -1    0    0  502  501  0.00000000000E+00  0.00000000000E+00  0.16140360009E+03  0.16140360009E+03  0.00000000000E+00 0.  1.
         21   -1    0    0  503  502 -0.00000000000E+00 -0.00000000000E+00 -0.14642405531E+04  0.14642405531E+04  0.00000000000E+00 0.  1.
         25    1    1    2    0    0  0.10759515265E+03 -0.25227686248E+03 -0.10938629575E+04  0.11346283541E+04  0.12500000000E+03 0.  0.
         21    1    1    2  503  504 -0.64691023755E+02  0.24473043787E+03 -0.29854289458E+03  0.39141509383E+03  0.00000000000E+00 0.  1.
         21    1    1    2  504  501 -0.42904128895E+02  0.75464246085E+01  0.89568899066E+02  0.99600705222E+02  0.00000000000E+00 0.  1.
<mgrwt>
<rscale>  4 0.62451145E+03</rscale>
<asrwt>0</asrwt>
<pdfrwt beam="1">  1       21 0.24831323E-01 0.62451145E+03</pdfrwt>
<pdfrwt beam="2">  1       21 0.22526778E+00 0.62451145E+03</pdfrwt>
<totfact> 0.11120132E+03</totfact>
</mgrwt>
</event>
<event>
 5    0  0.2720079E+000  0.5214659E+03  0.7546771E-02  0.1008323E+00
         21   -1    0    0  504  501  0.00000000000E+00  0.00000000000E+00  0.12279223285E+04  0.12279223285E+04  0.00000000000E+00 0. -1.
         21   -1    0    0  501  502 -0.00000000000E+00 -0.00000000000E+00 -0.96134601895E+02  0.96134601895E+02  0.00000000000E+00 0.  1.
         25    1    1    2    0    0 -0.22727237854E+03  0.21440328779E+02  0.13137699443E+03  0.29154302669E+03  0.12500000000E+03 0.  0.
         21    1    1    2  503  502  0.16333746851E+03  0.21201535486E+02  0.50509244553E+03  0.53126924648E+03  0.00000000000E+00 0. -1.
         21    1    1    2  504  503  0.63934910030E+02 -0.42641864264E+02  0.49531828661E+03  0.50124465718E+03  0.00000000000E+00 0. -1.
<mgrwt>
<rscale>  4 0.52146590E+03</rscale>
<asrwt>0</asrwt>
<pdfrwt beam="1">  1       21 0.18891112E+00 0.52146590E+03</pdfrwt>
<pdfrwt beam="2">  1       21 0.14789940E-01 0.52146590E+03</pdfrwt>
<totfact> 0.53822406E+03</totfact>
</mgrwt>
</event>
<event>
 5    0  0.2720079E+000  0.6406205E+03  0.7546771E-02  0.9824540E-01
         21   -1    0    0  502  501  0.00000000000E+00  0.00000000000E+00  0.14374804444E+04  0.14374804444E+04  0.00000000000E+00 0.  1.
         21   -1    0    0  504  502 -0.00000000000E+00 -0.00000000000E+00 -0.89582218477E+02  0.89582218477E+02  0.00000000000E+00 0. -1.
         25    1    1    2    0    0  0.49698047493E+02  0.33724765256E+03  0.67446327795E+03  0.76598406536E+03  0.12500000000E+03 0.  0.
         21    1    1    2  503  501 -0.51989220272E+01 -0.64461009335E+02  0.22680099430E+03  0.23584092420E+03  0.00000000000E+00 0.  1.
         21    1    1    2  504  503 -0.44499125466E+02 -0.27278664322E+03  0.44663395365E+03  0.52523767329E+03  0.00000000000E+00 0. -1.
<mgrwt>
<rscale>  4 0.64062046E+03</rscale>
<asrwt>0</asrwt>
<pdfrwt beam="1">  1       21 0.22115082E+00 0.64062046E+03</pdfrwt>
<pdfrwt beam="2">  1       21 0.13781881E-01 0.64062046E+03</pdfrwt>
<totfact> 0.36078845E+03</totfact>
</mgrwt>
</event>
<event>
 5    0  0.2720079E+000  0.5900795E+03  0.7546771E-02  0.9926204E-01
         21   -1    0    0  503  501  0.00000000000E+00  0.00000000000E+00  0.96365367451E+03  0.96365367451E+03  0.00000000000E+00 0.  1.
         21   -1    0    0  504  502 -0.00000000000E+00 -0.00000000000E+00 -0.26513898082E+03  0.26513898082E+03  0.00000000000E+00 0.  1.
         25    1    1    2    0    0 -0.29243856865E+03  0.12955723224E+03  0.17026404295E+03  0.38330175734E+03  0.12500000000E+03 0.  0.
         21    1    1    2  503  502  0.94128778607E+02 -0.17878080187E+03  0.59671885746E+03  0.62999698168E+03  0.00000000000E+00 0.  1.
         21    1    1    2  504  501  0.19830979004E+03  0.49223569635E+02 -0.68468206722E+02  0.21549391631E+03  0.00000000000E+00 0.  1.
<mgrwt>
<rscale>  4 0.59007954E+03</rscale>
<asrwt>0</asrwt>
<pdfrwt beam="1">  1       21 0.14825441E+00 0.59007954E+03</pdfrwt>
<pdfrwt beam="2">  1       21 0.40790613E-01 0.59007954E+03</pdfrwt>
<totfact> 0.14469217E+03</totfact>
</mgrwt>
</event>
<event>
 5    0  0.2720079E+000  0.4998750E+03  0.7546771E-02  0.1013812E+00
         21   -1    0    0  503  501  0.00000000000E+00  0.00000000000E+00  0.54329566310E+03  0.54329566310E+03  0.00000000000E+00 0. -1.
         21   -1    0    0  504  502 -0.00000000000E+00 -0.00000000000E+00 -0.14520235189E+03  0.14520235189E+03  0.00000000000E+00 0. -1.
         25    1    1    2    0    0 -0.22189515585E+03 -0.67552097021E+02  0.77496473885E+02  0.27464786449E+03  0.12500000000E+03 0.  0.
         21    1    1    2  503  502  0.19487641654E+03  0.11952112572E+02  0.27396415838E+03  0.33641645440E+03  0.00000000000E+00 0. -1.
         21    1    1    2  504  501  0.27018739316E+02  0.55599984449E+02  0.46632678943E+02  0.77433696091E+02  0.00000000000E+00 0. -1.
<mgrwt>
<rscale>  4 0.49987501E+03</rscale>
<asrwt>0</asrwt>
<pdfrwt beam="1">  1       21 0.83583947E-01 0.49987501E+03</pdfrwt>
<pdfrwt beam="2">  1       21 0.22338824E-01 0.49987501E+03</pdfrwt>
<totfact> 0.20852014E+04</totfact>
</mgrwt>
</event>
<event>
 5    0  0.2720079E+000  0.6155043E+03  0.7546771E-02  0.9873752E-01
         21   -1    0    0  502  501  0.00000000000E+00  0.00000000000E+00  0.30927381275E+03  0.30927381275E+03  0.00000000000E+00 0.  1.
         21   -1    0    0  503  502 -0.00000000000E+00 -0.00000000000E+00 -0.14421937772E+04  0.14421937772E+04  0.00000000000E+00 0. -1.
         25    1    1    2    0    0  0.95696627120E+02 -0.30532852332E+03 -0.12599649165E+04  0.13059555668E+04  0.12500000000E+03 0.  0.
         21    1    1    2  503  504 -0.50924854347E+02  0.14236569015E+03 -0.85709489560E+02  0.17380289734E+03  0.00000000000E+00 0.  1.
         21    1    1    2  504  501 -0.44771772774E+02  0.16296283317E+03  0.21275444161E+03  0.27170912583E+03  0.00000000000E+00 0.  1.
<mgrwt>
<rscale>  4 0.61550427E+03</rscale>
<asrwt>0</asrwt>
<pdfrwt beam="1">  1       21 0.47580586E-01 0.61550427E+03</pdfrwt>
<pdfrwt beam="2">  1       21 0.22187597E+00 0.61550427E+03</pdfrwt>
<totfact> 0.31211825E+02</totfact>
</mgrwt>
</event>
<event>
 5    0  0.2720079E+000  0.6032639E+03  0.7546771E-02  0.9898658E-01
         21   -1    0    0  504  501  0.00000000000E+00  0.00000000000E+00  0.75842729707E+03  0.75842729707E+03  0.00000000000E+00 0.  1.
         21   -1    0    0  501  502 -0.00000000000E+00 -0.00000000000E+00 -0.15526088963E+03  0.15526088963E+03  0.00000000000E+00 0.  1.
         25    1    1    2    0    0 -0.26569907026E+03  0.10859282681E+03  0.47273079589E+03  0.56699894476E+03  0.12500000000E+03 0.  0.
         21    1    1    2  503  502  0.19358701309E+03 -0.82102930863E+02  0.18722009691E+02  0.21110977368E+03  0.00000000000E+00 0.  1.
         21    1    1    2  504  503  0.72112057168E+02 -0.26489895949E+02  0.11171360185E+03  0.13557946826E+03  0.00000000000E+00 0. -1.
<mgrwt>
<rscale>  4 0.60326389E+03</rscale>
<asrwt>0</asrwt>
<pdfrwt beam="1">  1       21 0.11668112E+00 0.60326389E+03</pdfrwt>
<pdfrwt beam="2">  1       21 0.23886291E-01 0.60326389E+03</pdfrwt>
<totfact> 0.79354784E+03</totfact>
</mgrwt>
</event>
<event>
 5    0  0.2720079E+000  0.8136719E+03  0.7546771E-02  0.9540436E-01
         21   -1    0    0  502  501  0.00000000000E+00  0.00000000000E+00  0.10088900303E+04  0.10088900303E+04  0.00000000000E+00 0.  1.
         21   -1    0    0  504  502 -0.00000000000E+00 -0.00000000000E+00 -0.17663137234E+03  0.17663137234E+03  0.00000000000E+00 0. -1.
         25    1    1    2    0    0 -0.33450815365E+03 -0.19932185702E+03  0.25770438127E+03  0.48338541110E+03  0.12500000000E+03 0.  0.
         21    1    1    2  503  501  0.44787818233E+00  0.26548480495E+02  0.51022018593E+02  0.57517552041E+02  0.00000000000E+00 0.  1.
         21    1    1    2  504  503  0.33406027546E+03  0.17277337652E+03  0.52353225809E+03  0.64461843950E+03  0.00000000000E+00 0.  1.
<mgrwt>
<rscale>  4 0.81367192E+03</rscale>
<asrwt>0</asrwt>
<pdfrwt beam="1">  1       21 0.15521385E+00 0.81367192E+03</pdfrwt>
<pdfrwt beam="2">  1       21 0.27174058E-01 0.81367192E+03</pdfrwt>
<totfact> 0.27511825E+03</totfact>
</mgrwt>
</event>
<event>
 5    0  0.2720079E+000  0.4963475E+03  0.7546771E-02  0.1014737E+00
         21   -1    0    0  502  501  0.00000000000E+00  0.00000000000E+00  0.51524770791E+03  0.51524770791E+03  0.00000000000E+00 0. -1.
         21   -1    0    0  504  502 -0.00000000000E+00 -0.00000000000E+00 -0.21019942418E+03  0.21019942418E+03  0.00000000000E+00 0. -1.
         25    1    1    2    0    0  0.79500278330E+02  0.28409927237E+03  0.10584352535E+03  0.33743227865E+03  0.12500000000E+03 0.  0.
         21    1    1    2  503  501 -0.56018722871E+02 -0.11121358084E+03  0.17059924996E+03  0.21121236224E+03  0.00000000000E+00 0. -1.
         21    1    1    2  504  503 -0.23481555459E+02 -0.17288569153E+03  0.28605508418E+02  0.17680249120E+03  0.00000000000E+00 0.  1.
<mgrwt>
<rscale>  4 0.49634752E+03</rscale>
<asrwt>0</asrwt>
<pdfrwt beam="1">  1       21 0.79268878E-01 0.49634752E+03</pdfrwt>
<pdfrwt beam="2">  1       21 0.32338373E-01 0.49634752E+03</pdfrwt>
<totfact> 0.11404234E+04</totfact>
</mgrwt>
</event>
<event>
 5    0  0.2720079E+000  0.5982823E+03  0.7546771E-02  0.9908976E-01
         21   -1    0    0  502  501  0.00000000000E+00  0.00000000000E+00  0.36833205421E+03  0.36833205421E+03  0.00000000000E+00 0.  1.
         21   -1    0    0  504  502 -0.00000000000E+00 -0.00000000000E+00 -0.50732627760E+03  0.50732627760E+03  0.00000000000E+00 0. -1.
         25    1    1    2    0    0  0.11883518470E+03 -0.23874651891E+03 -0.26509951090E+03  0.39626310968E+03  0.12500000000E+03 0.  0.
         21    1    1    2  503  501 -0.11573892765E+02 -0.19429995116E+02  0.19104651468E+03  0.19238048361E+03  0.00000000000E+00 0.  1.
         21    1    1    2  504  503 -0.10726129193E+03  0.25817651402E+03 -0.64941227180E+02  0.28701473852E+03  0.00000000000E+00 0.  1.
<mgrwt>
<rscale>  4 0.59828232E+03</rscale>
<asrwt>0</asrwt>
<pdfrwt beam="1">  1       21 0.56666470E-01 0.59828232E+03</pdfrwt>
<pdfrwt beam="2">  1       21 0.78050197E-01 0.59828232E+03</pdfrwt>
<totfact> 0.35642214E+03</totfact>
</mgrwt>
</event>
<event>
 5    0  0.2720079E+000  0.5770552E+03  0.7546771E-02  0.9954187E-01
         21   -1    0    0  504  501  0.00000000000E+00  0.00000000000E+00  0.70668988715E+02  0.70668988715E+02  0.00000000000E+00 0. -1.
         21   -1    0    0  501  502 -0.00000000000E+00 -0.00000000000E+00 -0.14005485858E+04  0.14005485858E+04  0.00000000000E+00 0.  1.
         25    1    1    2    0    0  0.27885867908E+02 -0.22253846140E+03 -0.11390409742E+04  0.11676216550E+04  0.12500000000E+03 0.  0.
         21    1    1    2  503  502 -0.10561204873E+02  0.20669429583E+03 -0.18860859990E+03  0.28001299065E+03  0.00000000000E+00 0. -1.
         21    1    1    2  504  503 -0.17324663036E+02  0.15844165563E+02 -0.22300230491E+01  0.23582928879E+02  0.00000000000E+00 0. -1.
<mgrwt>
<rscale>  4 0.57705518E+03</rscale>
<asrwt>0</asrwt>
<pdfrwt beam="1">  1       21 0.10872152E-01 0.57705518E+03</pdfrwt>
<pdfrwt beam="2">  1       21 0.21546902E+00 0.57705518E+03</pdfrwt>
<totfact> 0.61841340E+03</totfact>
</mgrwt>
</event>
<event>
 5    0  0.2720079E+000  0.6340346E+03  0.7546771E-02  0.9837207E-01
         21   -1    0    0  503  501  0.00000000000E+00  0.00000000000E+00  0.33317150223E+03  0.33317150223E+03  0.00000000000E+00 0. -1.
         21   -1    0    0  504  502 -0.00000000000E+00 -0.00000000000E+00 -0.44024112120E+03  0.44024112120E+03  0.00000000000E+00 0.  1.
         25    1    1    2    0    0 -0.80332879595E+02 -0.29814207360E+03  0.11992068697E+02  0.33333298262E+03  0.12500000000E+03 0.  0.
         21    1    1    2  503  502 -0.93600485837E+01  0.58848864558E+02  0.91339945892E+02  0.10905863141E+03  0.00000000000E+00 0. -1.
         21    1    1    2  504  501  0.89692928178E+02  0.23929320904E+03 -0.21040163355E+03  0.33102100939E+03  0.00000000000E+00 0. -1.
<mgrwt>
<rscale>  4 0.63403460E+03</rscale>
<asrwt>0</asrwt>
<pdfrwt beam="1">  1       21 0.51257154E-01 0.63403460E+03</pdfrwt>
<pdfrwt beam="2">  1       21 0.67729403E-01 0.63403460E+03</pdfrwt>
<totfact> 0.60733801E+03</totfact>
</mgrwt>
</event>
