<event>
 4    0  0.1003929E-001  0.2542067E+03  0.7546771E-02  0.1110675E+00
         21   -1    0    0  502  501  0.00000000000E+00  0.00000000000E+00  0.14384393465E+04  0.14384393465E+04  0.00000000000E+00 0.  1.
         21   -1    0    0  503  502 -0.00000000000E+00 -0.00000000000E+00 -0.77222472630E+02  0.77222472630E+02  0.00000000000E+00 0.  1.
         25    1    1    2    0    0  0.11087515267E+03  0.19157964043E+03  0.12349246850E+04  0.12608172095E+04  0.12500000000E+03 0.  0.
         21    1    1    2  503  501 -0.11087515267E+03 -0.19157964043E+03  0.12629218890E+03  0.25484460968E+03  0.00000000000E+00 0.  1.
<mgrwt>
<rscale>  3 0.25420672E+03</rscale>
<asrwt>0</asrwt>
<pdfrwt beam="1">  1       21 0.22129834E+00 0.25420672E+03</pdfrwt>
<pdfrwt beam="2">  1       21 0.11880381E-01 0.25420672E+03</pdfrwt>
<totfact> 0.56013826E+03</totfact>
</mgrwt>
</event>
<event>
 4    0  0.1003929E-001  0.3058542E+03  0.7546771E-02  0.1082350E+00
         21   -1    0    0  503  501  0.00000000000E+00  0.00000000000E+00  0.16640406455E+03  0.16640406455E+03  0.00000000000E+00 0.  1.
         21   -1    0    0  501  502 -0.00000000000E+00 -0.00000000000E+00 -0.66969694985E+03  0.66969694985E+03  0.00000000000E+00 0. -1.
         25    1    1    2    0    0  0.17651114375E+03 -0.21625361037E+03 -0.59151234311E+02  0.31152155044E+03  0.12500000000E+03 0.  0.
         21    1    1    2  503  502 -0.17651114375E+03  0.21625361037E+03 -0.44414165098E+03  0.52457946396E+03  0.00000000000E+00 0. -1.
<mgrwt>
<rscale>  3 0.30585423E+03</rscale>
<asrwt>0</asrwt>
<pdfrwt beam="1">  1       21 0.25600625E-01 0.30585423E+03</pdfrwt>
<pdfrwt beam="2">  1       21 0.10303030E+00 0.30585423E+03</pdfrwt>
<totfact> 0.10377447E+04</totfact>
</mgrwt>
</event>
<event>
 4    0  0.1371345E-001  0.3979991E+03  0.7546771E-02  0.1044475E+00
         21   -1    0    0  503  501  0.00000000000E+00  0.00000000000E+00  0.21164372452E+03  0.21164372452E+03  0.00000000000E+00 0. -1.
         21   -1    0    0  501  502 -0.00000000000E+00 -0.00000000000E+00 -0.71106689739E+03  0.71106689739E+03  0.00000000000E+00 0. -1.
         25    1    1    2    0    0  0.11923831251E+03  0.35855332804E+03 -0.25840996626E+03  0.47453026761E+03  0.12500000000E+03 0.  0.
         21    1    1    2  503  502 -0.11923831251E+03 -0.35855332804E+03 -0.24101320661E+03  0.44818035430E+03  0.00000000000E+00 0. -1.
<mgrwt>
<rscale>  3 0.39799908E+03</rscale>
<asrwt>0</asrwt>
<pdfrwt beam="1">  1       21 0.32560572E-01 0.39799908E+03</pdfrwt>
<pdfrwt beam="2">  1       21 0.10939491E+00 0.39799908E+03</pdfrwt>
<totfact> 0.53738755E+03</totfact>
</mgrwt>
</event>
<event>
 4    0  0.1037761E-001  0.4036691E+03  0.7546771E-02  0.1042517E+00
         21   -1    0    0  503  501  0.00000000000E+00  0.00000000000E+00  0.29820274169E+03  0.29820274169E+03  0.00000000000E+00 0. -1.
         21   -1    0    0  501  502 -0.00000000000E+00 -0.00000000000E+00 -0.92907390827E+03  0.92907390827E+03  0.00000000000E+00 0. -1.
         25    1    1    2    0    0  0.69728466313E+02 -0.37744101286E+03  0.87272343164E+02  0.41299544681E+03  0.12500000000E+03 0.  0.
         21    1    1    2  503  502 -0.69728466313E+02  0.37744101286E+03 -0.71814350974E+03  0.81428120314E+03  0.00000000000E+00 0. -1.
<mgrwt>
<rscale>  3 0.40366914E+03</rscale>
<asrwt>0</asrwt>
<pdfrwt beam="1">  1       21 0.45877346E-01 0.40366914E+03</pdfrwt>
<pdfrwt beam="2">  1       21 0.14293445E+00 0.40366914E+03</pdfrwt>
<totfact> 0.13399872E+03</totfact>
</mgrwt>
</event>
<event>
 4    0  0.1037151E-001  0.2635338E+03  0.7546771E-02  0.1105038E+00
         21   -1    0    0  502  501  0.00000000000E+00  0.00000000000E+00  0.15096817256E+04  0.15096817256E+04  0.00000000000E+00 0.  1.
         21   -1    0    0  503  502 -0.00000000000E+00 -0.00000000000E+00 -0.73511366462E+02  0.73511366462E+02  0.00000000000E+00 0. -1.
         25    1    1    2    0    0  0.22865225008E+03 -0.39283586393E+02  0.12719190364E+04  0.12989334420E+04  0.12500000000E+03 0.  0.
         21    1    1    2  503  501 -0.22865225008E+03  0.39283586393E+02  0.16425132274E+03  0.28425965005E+03  0.00000000000E+00 0. -1.
<mgrwt>
<rscale>  3 0.26353378E+03</rscale>
<asrwt>0</asrwt>
<pdfrwt beam="1">  1       21 0.23225870E+00 0.26353378E+03</pdfrwt>
<pdfrwt beam="2">  1       21 0.11309442E-01 0.26353378E+03</pdfrwt>
<totfact> 0.52029697E+03</totfact>
</mgrwt>
</event>
<event>
 4    0  0.1003929E-001  0.4189455E+03  0.7546771E-02  0.1037410E+00
         21   -1    0    0  503  501  0.00000000000E+00  0.00000000000E+00  0.27782086465E+04  0.27782086465E+04  0.00000000000E+00 0.  1.
         21   -1    0    0  501  502 -0.00000000000E+00 -0.00000000000E+00 -0.85571110435E+02  0.85571110435E+02  0.00000000000E+00 0.  1.
         25    1    1    2    0    0 -0.30848443607E+03  0.25441641135E+03  0.21459564050E+04  0.21864684424E+04  0.12500000000E+03 0.  0.
         21    1    1    2  503  502  0.30848443607E+03 -0.25441641135E+03  0.54668113103E+03  0.67731131445E+03  0.00000000000E+00 0.  1.
<mgrwt>
<rscale>  3 0.41894553E+03</rscale>
<asrwt>0</asrwt>
<pdfrwt beam="1">  1       21 0.42741665E+00 0.41894553E+03</pdfrwt>
<pdfrwt beam="2">  1       21 0.13164788E-01 0.41894553E+03</pdfrwt>
<totfact> 0.22591473E+02</totfact>
</mgrwt>
</event>
<event>
 4    0  0.1003929E-001  0.3135717E+03  0.7546771E-02  0.1078646E+00
         21   -1    0    0  502  501  0.00000000000E+00  0.00000000000E+00  0.14037855204E+03  0.14037855204E+03  0.00000000000E+00 0.  1.
         21   -1    0    0  503  502 -0.00000000000E+00 -0.00000000000E+00 -0.64894638342E+03  0.64894638342E+03  0.00000000000E+00 0. -1.
         25    1    1    2    0    0  0.11006955120E+03 -0.26568193527E+03 -0.22935492446E+03  0.38849823449E+03  0.12500000000E+03 0.  0.
         21    1    1    2  503  501 -0.11006955120E+03  0.26568193527E+03 -0.27921290692E+03  0.40082670098E+03  0.00000000000E+00 0. -1.
<mgrwt>
<rscale>  3 0.31357168E+03</rscale>
<asrwt>0</asrwt>
<pdfrwt beam="1">  1       21 0.21596701E-01 0.31357168E+03</pdfrwt>
<pdfrwt beam="2">  1       21 0.99837902E-01 0.31357168E+03</pdfrwt>
<totfact> 0.15466807E+04</totfact>
</mgrwt>
</event>
<event>
 4    0  0.1320875E-001  0.2533403E+03  0.7546771E-02  0.1111212E+00
         21   -1    0    0  503  501  0.00000000000E+00  0.00000000000E+00  0.10584390669E+03  0.10584390669E+03  0.00000000000E+00 0.  1.
         21   -1    0    0  501  502 -0.00000000000E+00 -0.00000000000E+00 -0.55375982053E+03  0.55375982053E+03  0.00000000000E+00 0.  1.
         25    1    1    2    0    0  0.13734397054E+03 -0.17231645107E+03 -0.17072170692E+03  0.30549505195E+03  0.12500000000E+03 0.  0.
         21    1    1    2  503  502 -0.13734397054E+03  0.17231645107E+03 -0.27719420691E+03  0.35410867527E+03  0.00000000000E+00 0.  1.
<mgrwt>
<rscale>  3 0.25334034E+03</rscale>
<asrwt>0</asrwt>
<pdfrwt beam="1">  1       21 0.16283678E-01 0.25334034E+03</pdfrwt>
<pdfrwt beam="2">  1       21 0.85193819E-01 0.25334034E+03</pdfrwt>
<totfact> 0.39090353E+04</totfact>
</mgrwt>
</event>
<event>
 4    0  0.1336145E-001  0.2428704E+03  0.7546771E-02  0.1117895E+00
         21   -1    0    0  502  501  0.00000000000E+00  0.00000000000E+00  0.82988968697E+03  0.82988968697E+03  0.00000000000E+00 0. -1.
         21   -1    0    0  503  502 -0.00000000000E+00 -0.00000000000E+00 -0.65125812588E+02  0.65125812588E+02  0.00000000000E+00 0. -1.
         25    1    1    2    0    0  0.57260958096E+01  0.20815439771E+03  0.51815785356E+03  0.57225309319E+03  0.12500000000E+03 0.  0.
         21    1    1    2  503  501 -0.57260958096E+01 -0.20815439771E+03  0.24660602082E+03  0.32276240637E+03  0.00000000000E+00 0. -1.
<mgrwt>
<rscale>  3 0.24287042E+03</rscale>
<asrwt>0</asrwt>
<pdfrwt beam="1">  1       21 0.12767533E+00 0.24287042E+03</pdfrwt>
<pdfrwt beam="2">  1       21 0.10019356E-01 0.24287042E+03</pdfrwt>
<totfact> 0.35610998E+04</totfact>
</mgrwt>
</event>
<event>
 4    0  0.1003929E-001  0.2808645E+03  0.7546771E-02  0.1095218E+00
         21   -1    0    0  503  501  0.00000000000E+00  0.00000000000E+00  0.11997366510E+04  0.11997366510E+04  0.00000000000E+00 0.  1.
         21   -1    0    0  501  502 -0.00000000000E+00 -0.00000000000E+00 -0.12138580934E+03  0.12138580934E+03  0.00000000000E+00 0.  1.
         25    1    1    2    0    0  0.19051386770E+03  0.16420812384E+03  0.80660540087E+02  0.29221732400E+03  0.12500000000E+03 0.  0.
         21    1    1    2  503  502 -0.19051386770E+03 -0.16420812384E+03  0.99769030154E+03  0.10289051363E+04  0.00000000000E+00 0.  1.
<mgrwt>
<rscale>  3 0.28086445E+03</rscale>
<asrwt>0</asrwt>
<pdfrwt beam="1">  1       21 0.18457486E+00 0.28086445E+03</pdfrwt>
<pdfrwt beam="2">  1       21 0.18674741E-01 0.28086445E+03</pdfrwt>
<totfact> 0.41515752E+03</totfact>
</mgrwt>
</event>
<event>
 4    0  0.1087056E-001  0.3244151E+03  0.7546771E-02  0.1073635E+00
         21   -1    0    0  502  501  0.00000000000E+00  0.00000000000E+00  0.16339633993E+03  0.16339633993E+03  0.00000000000E+00 0.  1.
         21   -1    0    0  503  502 -0.00000000000E+00 -0.00000000000E+00 -0.83823513537E+03  0.83823513537E+03  0.00000000000E+00 0.  1.
         25    1    1    2    0    0  0.29149703761E+03  0.68188415658E+02 -0.77604772972E+02  0.33356810962E+03  0.12500000000E+03 0.  0.
         21    1    1    2  503  501 -0.29149703761E+03 -0.68188415658E+02 -0.59723402247E+03  0.66806336568E+03  0.00000000000E+00 0.  1.
<mgrwt>
<rscale>  3 0.32441514E+03</rscale>
<asrwt>0</asrwt>
<pdfrwt beam="1">  1       21 0.25137898E-01 0.32441514E+03</pdfrwt>
<pdfrwt beam="2">  1       21 0.12895925E+00 0.32441514E+03</pdfrwt>
<totfact> 0.60966125E+03</totfact>
</mgrwt>
</event>
<event>
 4    0  0.1235428E-001  0.2483283E+03  0.7546771E-02  0.1114366E+00
         21   -1    0    0  502  501  0.00000000000E+00  0.00000000000E+00  0.67572936030E+03  0.67572936030E+03  0.00000000000E+00 0.  1.
         21   -1    0    0  503  502 -0.00000000000E+00 -0.00000000000E+00 -0.12899504547E+03  0.12899504547E+03  0.00000000000E+00 0.  1.
         25    1    1    2    0    0 -0.14775919779E+03  0.15559295717E+03  0.53500733632E+03  0.58983031354E+03  0.12500000000E+03 0.  0.
         21    1    1    2  503  501  0.14775919779E+03 -0.15559295717E+03  0.11726978509E+02  0.21489409223E+03  0.00000000000E+00 0.  1.
<mgrwt>
<rscale>  3 0.24832831E+03</rscale>
<asrwt>0</asrwt>
<pdfrwt beam="1">  1       21 0.10395836E+00 0.24832831E+03</pdfrwt>
<pdfrwt beam="2">  1       21 0.19845392E-01 0.24832831E+03</pdfrwt>
<totfact> 0.16962349E+04</totfact>
</mgrwt>
</event>
<event>
 4    0  0.1720328E-001  0.2569098E+03  0.7546771E-02  0.1109014E+00
         21   -1    0    0  503  501  0.00000000000E+00  0.00000000000E+00  0.43587520646E+03  0.43587520646E+03  0.00000000000E+00 0.  1.
         21   -1    0    0  501  502 -0.00000000000E+00 -0.00000000000E+00 -0.41984130767E+03  0.41984130767E+03  0.00000000000E+00 0. -1.
         25    1    1    2    0    0 -0.19279341954E+03  0.11492744753E+03  0.36165029852E+03  0.44361420089E+03  0.12500000000E+03 0.  0.
         21    1    1    2  503  502  0.19279341954E+03 -0.11492744753E+03 -0.34561639973E+03  0.41210231323E+03  0.00000000000E+00 0. -1.
<mgrwt>
<rscale>  3 0.25690975E+03</rscale>
<asrwt>0</asrwt>
<pdfrwt beam="1">  1       21 0.67057724E-01 0.25690975E+03</pdfrwt>
<pdfrwt beam="2">  1       21 0.64590970E-01 0.25690975E+03</pdfrwt>
<totfact> 0.42989700E+03</totfact>
</mgrwt>
</event>
<event>
 4    0  0.1219579E-001  0.2703313E+03  0.7546771E-02  0.1101090E+00
         21   -1    0    0  502  501  0.00000000000E+00  0.00000000000E+00  0.82577336926E+03  0.82577336926E+03  0.00000000000E+00 0.  1.
         21   -1    0    0  503  502 -0.00000000000E+00 -0.00000000000E+00 -0.79037772965E+02  0.79037772965E+02  0.00000000000E+00 0.  1.
         25    1    1    2    0    0 -0.19314695250E+03  0.14194466793E+03  0.36859375284E+03  0.45709997664E+03  0.12500000000E+03 0.  0.
         21    1    1    2  503  501  0.19314695250E+03 -0.14194466793E+03  0.37814184345E+03  0.44771116558E+03  0.00000000000E+00 0.  1.
<mgrwt>
<rscale>  3 0.27033134E+03</rscale>
<asrwt>0</asrwt>
<pdfrwt beam="1">  1       21 0.12704205E+00 0.27033134E+03</pdfrwt>
<pdfrwt beam="2">  1       21 0.12159658E-01 0.27033134E+03</pdfrwt>
<totfact> 0.25173960E+04</totfact>
</mgrwt>
</event>
<event>
 4    0  0.1471095E-001  0.3369469E+03  0.7546771E-02  0.1068104E+00
         21   -1    0    0  502  501  0.00000000000E+00  0.00000000000E+00  0.52474683148E+03  0.52474683148E+03  0.00000000000E+00 0.  1.
         21   -1    0    0  503  502 -0.00000000000E+00 -0.00000000000E+00 -0.22992199436E+03  0.22992199436E+03  0.00000000000E+00 0.  1.
         25    1    1    2    0    0  0.21301410272E+03  0.22920117784E+03  0.28548353381E+03  0.44162657976E+03  0.12500000000E+03 0.  0.
         21    1    1    2  503  501 -0.21301410272E+03 -0.22920117784E+03  0.93413033168E+01  0.31304224607E+03  0.00000000000E+00 0.  1.
<mgrwt>
<rscale>  3 0.33694686E+03</rscale>
<asrwt>0</asrwt>
<pdfrwt beam="1">  1       21 0.80730281E-01 0.33694686E+03</pdfrwt>
<pdfrwt beam="2">  1       21 0.35372615E-01 0.33694686E+03</pdfrwt>
<totfact> 0.96123682E+03</totfact>
</mgrwt>
</event>
<event>
 4    0  0.1497218E-001  0.3075158E+03  0.7546771E-02  0.1081543E+00
         21   -1    0    0  503  501  0.00000000000E+00  0.00000000000E+00  0.43569158443E+03  0.43569158443E+03  0.00000000000E+00 0. -1.
         21   -1    0    0  501  502 -0.00000000000E+00 -0.00000000000E+00 -0.20031352436E+03  0.20031352436E+03  0.00000000000E+00 0. -1.
         25    1    1    2    0    0 -0.12939874875E+03 -0.24939314177E+03  0.94552716512E+02  0.32172378143E+03  0.12500000000E+03 0.  0.
         21    1    1    2  503  502  0.12939874875E+03  0.24939314177E+03  0.14082534355E+03  0.31428132736E+03  0.00000000000E+00 0. -1.
<mgrwt>
<rscale>  3 0.30751581E+03</rscale>
<asrwt>0</asrwt>
<pdfrwt beam="1">  1       21 0.67029474E-01 0.30751581E+03</pdfrwt>
<pdfrwt beam="2">  1       21 0.30817465E-01 0.30751581E+03</pdfrwt>
<totfact> 0.19477372E+04</totfact>
</mgrwt>
</event>
<event>
 4    0  0.1328089E-001  0.2764222E+03  0.7546771E-02  0.1097659E+00
         21   -1    0    0  503  501  0.00000000000E+00  0.00000000000E+00  0.12671044551E+03  0.12671044551E+03  0.00000000000E+00 0. -1.
         21   -1    0    0  501  502 -0.00000000000E+00 -0.00000000000E+00 -0.55217819750E+03  0.55217819750E+03  0.00000000000E+00 0. -1.
         25    1    1    2    0    0 -0.24654452292E+03 -0.14362082781E+00 -0.27575108542E+03  0.39044574977E+03  0.12500000000E+03 0.  0.
         21    1    1    2  503  502  0.24654452292E+03  0.14362082781E+00 -0.14971666658E+03  0.28844289324E+03  0.00000000000E+00 0. -1.
<mgrwt>
<rscale>  3 0.27642218E+03</rscale>
<asrwt>0</asrwt>
<pdfrwt beam="1">  1       21 0.19493915E-01 0.27642218E+03</pdfrwt>
<pdfrwt beam="2">  1       21 0.84950491E-01 0.27642218E+03</pdfrwt>
<totfact> 0.27879002E+04</totfact>
</mgrwt>
</event>
<event>
 4    0  0.1330741E-001  0.2547121E+03  0.7546771E-02  0.1110363E+00
         21   -1    0    0  502  501  0.00000000000E+00  0.00000000000E+00  0.96904555997E+03  0.96904555997E+03  0.00000000000E+00 0.  1.
         21   -1    0    0  503  502 -0.00000000000E+00 -0.00000000000E+00 -0.67343063124E+02  0.67343063124E+02  0.00000000000E+00 0.  1.
         25    1    1    2    0    0  0.20464500560E+03 -0.85870231362E+02  0.66404655255E+03  0.71122155402E+03  0.12500000000E+03 0.  0.
         21    1    1    2  503  501 -0.20464500560E+03  0.85870231362E+02  0.23765594429E+03  0.32516706907E+03  0.00000000000E+00 0.  1.
<mgrwt>
<rscale>  3 0.25471214E+03</rscale>
<asrwt>0</asrwt>
<pdfrwt beam="1">  1       21 0.14908392E+00 0.25471214E+03</pdfrwt>
<pdfrwt beam="2">  1       21 0.10360472E-01 0.25471214E+03</pdfrwt>
<totfact> 0.22315618E+04</totfact>
</mgrwt>
</event>
<event>
 4    0  0.1866270E-001  0.3323230E+03  0.7546771E-02  0.1070114E+00
         21   -1    0    0  503  501  0.00000000000E+00  0.00000000000E+00  0.51366689813E+03  0.51366689813E+03  0.00000000000E+00 0. -1.
         21   -1    0    0  501  502 -0.00000000000E+00 -0.00000000000E+00 -0.78033217723E+03  0.78033217723E+03  0.00000000000E+00 0.  1.
         25    1    1    2    0    0 -0.29546470711E+03  0.86684541409E+02  0.42346331187E+03  0.53829339525E+03  0.12500000000E+03 0.  0.
         21    1    1    2  503  502  0.29546470711E+03 -0.86684541409E+02 -0.69012859097E+03  0.75570568010E+03  0.00000000000E+00 0.  1.
<mgrwt>
<rscale>  3 0.33232304E+03</rscale>
<asrwt>0</asrwt>
<pdfrwt beam="1">  1       21 0.79025677E-01 0.33232304E+03</pdfrwt>
<pdfrwt beam="2">  1       21 0.12005110E+00 0.33232304E+03</pdfrwt>
<totfact> 0.66621452E+02</totfact>
</mgrwt>
</event>
<event>
 4    0  0.1479999E-001  0.2601345E+03  0.7546771E-02  0.1107062E+00
         21   -1    0    0  502  501  0.00000000000E+00  0.00000000000E+00  0.81174406688E+02  0.81174406688E+02  0.00000000000E+00 0.  1.
         21   -1    0    0  503  502 -0.00000000000E+00 -0.00000000000E+00 -0.76707720058E+03  0.76707720058E+03  0.00000000000E+00 0.  1.
         25    1    1    2    0    0  0.22786108495E+03  0.11147577385E+02 -0.45203882227E+03  0.52154485843E+03  0.12500000000E+03 0.  0.
         21    1    1    2  503  501 -0.22786108495E+03 -0.11147577385E+02 -0.23386397163E+03  0.32670674884E+03  0.00000000000E+00 0.  1.
<mgrwt>
<rscale>  3 0.26013447E+03</rscale>
<asrwt>0</asrwt>
<pdfrwt beam="1">  1       21 0.12488370E-01 0.26013447E+03</pdfrwt>
<pdfrwt beam="2">  1       21 0.11801188E+00 0.26013447E+03</pdfrwt>
<totfact> 0.29018043E+04</totfact>
</mgrwt>
</event>
<event>
 4    0  0.1439599E-001  0.2510716E+03  0.7546771E-02  0.1112629E+00
         21   -1    0    0  502  501  0.00000000000E+00  0.00000000000E+00  0.25465970293E+03  0.25465970293E+03  0.00000000000E+00 0. -1.
         21   -1    0    0  503  502 -0.00000000000E+00 -0.00000000000E+00 -0.32276450546E+03  0.32276450546E+03  0.00000000000E+00 0. -1.
         25    1    1    2    0    0  0.24883246080E+02  0.21631641247E+03  0.13027926512E+03  0.28285977650E+03  0.12500000000E+03 0.  0.
         21    1    1    2  503  501 -0.24883246080E+02 -0.21631641247E+03 -0.19838406765E+03  0.29456443189E+03  0.00000000000E+00 0. -1.
<mgrwt>
<rscale>  3 0.25107164E+03</rscale>
<asrwt>0</asrwt>
<pdfrwt beam="1">  1       21 0.39178416E-01 0.25107164E+03</pdfrwt>
<pdfrwt beam="2">  1       21 0.49656077E-01 0.25107164E+03</pdfrwt>
<totfact> 0.23546137E+04</totfact>
</mgrwt>
</event>
<event>
 4    0  0.1183556E-001  0.2595068E+03  0.7546771E-02  0.1107440E+00
         21   -1    0    0  503  501  0.00000000000E+00  0.00000000000E+00  0.70758333232E+02  0.70758333232E+02  0.00000000000E+00 0.  1.
         21   -1    0    0  501  502 -0.00000000000E+00 -0.00000000000E+00 -0.11757055978E+04  0.11757055978E+04  0.00000000000E+00 0.  1.
         25    1    1    2    0    0 -0.44363046757E+02 -0.22304866465E+03 -0.24476371801E+03  0.35672547480E+03  0.12500000000E+03 0.  0.
         21    1    1    2  503  502  0.44363046757E+02  0.22304866465E+03 -0.86018354656E+03  0.88973845623E+03  0.00000000000E+00 0.  1.
<mgrwt>
<rscale>  3 0.25950681E+03</rscale>
<asrwt>0</asrwt>
<pdfrwt beam="1">  1       21 0.10885897E-01 0.25950681E+03</pdfrwt>
<pdfrwt beam="2">  1       21 0.18087779E+00 0.25950681E+03</pdfrwt>
<totfact> 0.11963167E+04</totfact>
</mgrwt>
</event>
<event>
 4    0  0.1089510E-001  0.3018990E+03  0.7546771E-02  0.1084295E+00
         21   -1    0    0  503  501  0.00000000000E+00  0.00000000000E+00  0.18391695387E+04  0.18391695387E+04  0.00000000000E+00 0.  1.
         21   -1    0    0  501  502 -0.00000000000E+00 -0.00000000000E+00 -0.45310443288E+02  0.45310443288E+02  0.00000000000E+00 0.  1.
         25    1    1    2    0    0  0.26796260914E+03 -0.60943039058E+02  0.98350946028E+03  0.10288021541E+04  0.12500000000E+03 0.  0.
         21    1    1    2  503  502 -0.26796260914E+03  0.60943039058E+02  0.81034963509E+03  0.85567782780E+03  0.00000000000E+00 0.  1.
<mgrwt>
<rscale>  3 0.30189901E+03</rscale>
<asrwt>0</asrwt>
<pdfrwt beam="1">  1       21 0.28294910E+00 0.30189901E+03</pdfrwt>
<pdfrwt beam="2">  1       21 0.69708388E-02 0.30189901E+03</pdfrwt>
<totfact> 0.59285502E+03</totfact>
</mgrwt>
</event>
<event>
 4    0  0.1557205E-001  0.2476219E+03  0.7546771E-02  0.1114817E+00
         21   -1    0    0  503  501  0.00000000000E+00  0.00000000000E+00  0.24889367420E+03  0.24889367420E+03  0.00000000000E+00 0. -1.
         21   -1    0    0  501  502 -0.00000000000E+00 -0.00000000000E+00 -0.22745115750E+03  0.22745115750E+03  0.00000000000E+00 0. -1.
         25    1    1    2    0    0  0.14797381219E+03  0.15425741499E+03  0.69628452812E+02  0.25722503886E+03  0.12500000000E+03 0.  0.
         21    1    1    2  503  502 -0.14797381219E+03 -0.15425741499E+03 -0.48185936115E+02  0.21911979284E+03  0.00000000000E+00 0. -1.
<mgrwt>
<rscale>  3 0.24762189E+03</rscale>
<asrwt>0</asrwt>
<pdfrwt beam="1">  1       21 0.38291335E-01 0.24762189E+03</pdfrwt>
<pdfrwt beam="2">  1       21 0.34992486E-01 0.24762189E+03</pdfrwt>
<totfact> 0.50529127E+04</totfact>
</mgrwt>
</event>
<event>
 4    0  0.1301759E-001  0.2611049E+03  0.7546771E-02  0.1106481E+00
         21   -1    0    0  502  501  0.00000000000E+00  0.00000000000E+00  0.35098750802E+03  0.35098750802E+03  0.00000000000E+00 0.  1.
         21   -1    0    0  503  502 -0.00000000000E+00 -0.00000000000E+00 -0.27994840470E+03  0.27994840470E+03  0.00000000000E+00 0.  1.
         25    1    1    2    0    0  0.11364732160E+03  0.19908550122E+03  0.23324515883E+03  0.35011291696E+03  0.12500000000E+03 0.  0.
         21    1    1    2  503  501 -0.11364732160E+03 -0.19908550122E+03 -0.16220605551E+03  0.28082299576E+03  0.00000000000E+00 0.  1.
<mgrwt>
<rscale>  3 0.26110486E+03</rscale>
<asrwt>0</asrwt>
<pdfrwt beam="1">  1       21 0.53998078E-01 0.26110486E+03</pdfrwt>
<pdfrwt beam="2">  1       21 0.43068985E-01 0.26110486E+03</pdfrwt>
<totfact> 0.16182792E+04</totfact>
</mgrwt>
</event>
<event>
 4    0  0.1182452E-001  0.2410348E+03  0.7546771E-02  0.1119105E+00
         21   -1    0    0  503  501  0.00000000000E+00  0.00000000000E+00  0.94864458700E+02  0.94864458700E+02  0.00000000000E+00 0.  1.
         21   -1    0    0  501  502 -0.00000000000E+00 -0.00000000000E+00 -0.52949359035E+03  0.52949359035E+03  0.00000000000E+00 0.  1.
         25    1    1    2    0    0  0.20066213538E+03 -0.46983648295E+02 -0.25617847388E+03  0.35174588307E+03  0.12500000000E+03 0.  0.
         21    1    1    2  503  502 -0.20066213538E+03  0.46983648295E+02 -0.17845065778E+03  0.27261216598E+03  0.00000000000E+00 0.  1.
<mgrwt>
<rscale>  3 0.24103476E+03</rscale>
<asrwt>0</asrwt>
<pdfrwt beam="1">  1       21 0.14594532E-01 0.24103476E+03</pdfrwt>
<pdfrwt beam="2">  1       21 0.81460554E-01 0.24103476E+03</pdfrwt>
<totfact> 0.53240807E+04</totfact>
</mgrwt>
</event>
<event>
 4    0  0.1098275E-001  0.2799618E+03  0.7546771E-02  0.1095710E+00
         21   -1    0    0  502  501  0.00000000000E+00  0.00000000000E+00  0.14548601482E+03  0.14548601482E+03  0.00000000000E+00 0. -1.
         21   -1    0    0  503  502 -0.00000000000E+00 -0.00000000000E+00 -0.69822695172E+03  0.69822695172E+03  0.00000000000E+00 0.  1.
         25    1    1    2    0    0 -0.16677575977E+03  0.18692094440E+03 -0.53330196242E+02  0.28499597074E+03  0.12500000000E+03 0.  0.
         21    1    1    2  503  501  0.16677575977E+03 -0.18692094440E+03 -0.49941074067E+03  0.55871699580E+03  0.00000000000E+00 0.  1.
<mgrwt>
<rscale>  3 0.27996177E+03</rscale>
<asrwt>0</asrwt>
<pdfrwt beam="1">  1       21 0.22382464E-01 0.27996177E+03</pdfrwt>
<pdfrwt beam="2">  1       21 0.10741953E+00 0.27996177E+03</pdfrwt>
<totfact> 0.12281306E+04</totfact>
</mgrwt>
</event>
<event>
 4    0  0.1003929E-001  0.3730298E+03  0.7546771E-02  0.1053540E+00
         21   -1    0    0  503  501  0.00000000000E+00  0.00000000000E+00  0.10456919434E+04  0.10456919434E+04  0.00000000000E+00 0.  1.
         21   -1    0    0  501  502 -0.00000000000E+00 -0.00000000000E+00 -0.24659400087E+03  0.24659400087E+03  0.00000000000E+00 0.  1.
         25    1    1    2    0    0  0.23870137862E+03 -0.25796878369E+03  0.85831266396E+03  0.93586957992E+03  0.12500000000E+03 0.  0.
         21    1    1    2  503  502 -0.23870137862E+03  0.25796878369E+03 -0.59214721462E+02  0.35641636431E+03  0.00000000000E+00 0.  1.
<mgrwt>
<rscale>  3 0.37302981E+03</rscale>
<asrwt>0</asrwt>
<pdfrwt beam="1">  1       21 0.16087568E+00 0.37302981E+03</pdfrwt>
<pdfrwt beam="2">  1       21 0.37937539E-01 0.37302981E+03</pdfrwt>
<totfact> 0.14610595E+03</totfact>
</mgrwt>
</event>
<event>
 4    0  0.1003929E-001  0.2655035E+03  0.7546771E-02  0.1103881E+00
         21   -1    0    0  502  501  0.00000000000E+00  0.00000000000E+00  0.58172440668E+03  0.58172440668E+03  0.00000000000E+00 0.  1.
         21   -1    0    0  503  502 -0.00000000000E+00 -0.00000000000E+00 -0.13876831878E+03  0.13876831878E+03  0.00000000000E+00 0.  1.
         25    1    1    2    0    0  0.12149636695E+03  0.20026417750E+03  0.60980714444E+02  0.27241651108E+03  0.12500000000E+03 0.  0.
         21    1    1    2  503  501 -0.12149636695E+03 -0.20026417750E+03  0.38197537345E+03  0.44807621438E+03  0.00000000000E+00 0.  1.
<mgrwt>
<rscale>  3 0.26550350E+03</rscale>
<asrwt>0</asrwt>
<pdfrwt beam="1">  1       21 0.89496062E-01 0.26550350E+03</pdfrwt>
<pdfrwt beam="2">  1       21 0.21348972E-01 0.26550350E+03</pdfrwt>
<totfact> 0.20908754E+04</totfact>
</mgrwt>
</event>
<event>
 4    0  0.1032498E-001  0.2466832E+03  0.7546771E-02  0.1115419E+00
         21   -1    0    0  503  501  0.00000000000E+00  0.00000000000E+00  0.17583098749E+03  0.17583098749E+03  0.00000000000E+00 0. -1.
         21   -1    0    0  501  502 -0.00000000000E+00 -0.00000000000E+00 -0.12476425068E+04  0.12476425068E+04  0.00000000000E+00 0. -1.
         25    1    1    2    0    0 -0.13137718935E+03 -0.16723519991E+03  0.74432373802E+02  0.25766791853E+03  0.12500000000E+03 0.  0.
         21    1    1    2  503  502  0.13137718935E+03  0.16723519991E+03 -0.11462438931E+04  0.11658055758E+04  0.00000000000E+00 0. -1.
<mgrwt>
<rscale>  3 0.24668315E+03</rscale>
<asrwt>0</asrwt>
<pdfrwt beam="1">  1       21 0.27050921E-01 0.24668315E+03</pdfrwt>
<pdfrwt beam="2">  1       21 0.19194500E+00 0.24668315E+03</pdfrwt>
<totfact> 0.18758184E+03</totfact>
</mgrwt>
</event>
<event>
 4    0  0.1318667E-001  0.4466873E+03  0.7546771E-02  0.1028715E+00
         21   -1    0    0  503  501  0.00000000000E+00  0.00000000000E+00  0.10893881084E+04  0.10893881084E+04  0.00000000000E+00 0. -1.
         21   -1    0    0  501  502 -0.00000000000E+00 -0.00000000000E+00 -0.17936906638E+03  0.17936906638E+03  0.00000000000E+00 0. -1.
         25    1    1    2    0    0  0.17317992101E+03  0.39231785240E+03  0.37606524529E+03  0.58391322221E+03  0.12500000000E+03 0.  0.
         21    1    1    2  503  502 -0.17317992101E+03 -0.39231785240E+03  0.53395379676E+03  0.68484395261E+03  0.00000000000E+00 0. -1.
<mgrwt>
<rscale>  3 0.44668734E+03</rscale>
<asrwt>0</asrwt>
<pdfrwt beam="1">  1       21 0.16759817E+00 0.44668734E+03</pdfrwt>
<pdfrwt beam="2">  1       21 0.27595242E-01 0.44668734E+03</pdfrwt>
<totfact> 0.23821979E+03</totfact>
</mgrwt>
</event>
<event>
 4    0  0.1003929E-001  0.3011643E+03  0.7546771E-02  0.1084660E+00
         21   -1    0    0  502  501  0.00000000000E+00  0.00000000000E+00  0.82446771102E+03  0.82446771102E+03  0.00000000000E+00 0. -1.
         21   -1    0    0  503  502 -0.00000000000E+00 -0.00000000000E+00 -0.78153060964E+03  0.78153060964E+03  0.00000000000E+00 0. -1.
         25    1    1    2    0    0  0.27479629583E+02  0.27261656903E+03  0.77118834589E+03  0.82790783822E+03  0.12500000000E+03 0.  0.
         21    1    1    2  503  501 -0.27479629583E+02 -0.27261656903E+03 -0.72825124450E+03  0.77809048244E+03  0.00000000000E+00 0. -1.
<mgrwt>
<rscale>  3 0.30116428E+03</rscale>
<asrwt>0</asrwt>
<pdfrwt beam="1">  1       21 0.12684119E+00 0.30116428E+03</pdfrwt>
<pdfrwt beam="2">  1       21 0.12023548E+00 0.30116428E+03</pdfrwt>
<totfact> 0.21697864E+02</totfact>
</mgrwt>
</event>
<event>
 4    0  0.1846645E-001  0.2913669E+03  0.7546771E-02  0.1089638E+00
         21   -1    0    0  503  501  0.00000000000E+00  0.00000000000E+00  0.55924271159E+03  0.55924271159E+03  0.00000000000E+00 0.  1.
         21   -1    0    0  501  502 -0.00000000000E+00 -0.00000000000E+00 -0.59126344243E+03  0.59126344243E+03  0.00000000000E+00 0. -1.
         25    1    1    2    0    0  0.23186801588E+03 -0.12452679449E+03  0.48760634204E+03  0.56802697483E+03  0.12500000000E+03 0.  0.
         21    1    1    2  503  502 -0.23186801588E+03  0.12452679449E+03 -0.51962707287E+03  0.58247917919E+03  0.00000000000E+00 0. -1.
<mgrwt>
<rscale>  3 0.29136695E+03</rscale>
<asrwt>0</asrwt>
<pdfrwt beam="1">  1       21 0.86037340E-01 0.29136695E+03</pdfrwt>
<pdfrwt beam="2">  1       21 0.90963606E-01 0.29136695E+03</pdfrwt>
<totfact> 0.11027256E+03</totfact>
</mgrwt>
</event>
<event>
 4    0  0.1197646E-001  0.2564452E+03  0.7546771E-02  0.1109298E+00
         21   -1    0    0  502  501  0.00000000000E+00  0.00000000000E+00  0.10221569400E+04  0.10221569400E+04  0.00000000000E+00 0.  1.
         21   -1    0    0  503  502 -0.00000000000E+00 -0.00000000000E+00 -0.70836613198E+02  0.70836613198E+02  0.00000000000E+00 0.  1.
         25    1    1    2    0    0  0.95675259460E+02  0.20244847459E+03  0.74727026863E+03  0.79004872921E+03  0.12500000000E+03 0.  0.
         21    1    1    2  503  501 -0.95675259460E+02 -0.20244847459E+03  0.20405005814E+03  0.30294482396E+03  0.00000000000E+00 0.  1.
<mgrwt>
<rscale>  3 0.25644520E+03</rscale>
<asrwt>0</asrwt>
<pdfrwt beam="1">  1       21 0.15725490E+00 0.25644520E+03</pdfrwt>
<pdfrwt beam="2">  1       21 0.10897941E-01 0.25644520E+03</pdfrwt>
<totfact> 0.17655603E+04</totfact>
</mgrwt>
</event>
<event>
 4    0  0.1359747E-001  0.2436977E+03  0.7546771E-02  0.1117354E+00
         21   -1    0    0  502  501  0.00000000000E+00  0.00000000000E+00  0.50024730399E+03  0.50024730399E+03  0.00000000000E+00 0. -1.
         21   -1    0    0  503  502 -0.00000000000E+00 -0.00000000000E+00 -0.17012848637E+03  0.17012848637E+03  0.00000000000E+00 0. -1.
         25    1    1    2    0    0  0.10892033083E+03  0.17860555292E+03  0.38358743306E+03  0.45445340884E+03  0.12500000000E+03 0.  0.
         21    1    1    2  503  501 -0.10892033083E+03 -0.17860555292E+03 -0.53468615451E+02  0.21592238152E+03  0.00000000000E+00 0. -1.
<mgrwt>
<rscale>  3 0.24369773E+03</rscale>
<asrwt>0</asrwt>
<pdfrwt beam="1">  1       21 0.76961123E-01 0.24369773E+03</pdfrwt>
<pdfrwt beam="2">  1       21 0.26173614E-01 0.24369773E+03</pdfrwt>
<totfact> 0.20235451E+04</totfact>
</mgrwt>
</event>
<event>
 4    0  0.1003929E-001  0.3143988E+03  0.7546771E-02  0.1078256E+00
         21   -1    0    0  503  501  0.00000000000E+00  0.00000000000E+00  0.94482879229E+03  0.94482879229E+03  0.00000000000E+00 0.  1.
         21   -1    0    0  501  502 -0.00000000000E+00 -0.00000000000E+00 -0.13504030840E+03  0.13504030840E+03  0.00000000000E+00 0.  1.
         25    1    1    2    0    0  0.53961782047E+02  0.28338974076E+03  0.12780902322E+03  0.33938439196E+03  0.12500000000E+03 0.  0.
         21    1    1    2  503  502 -0.53961782047E+02 -0.28338974076E+03  0.68197946067E+03  0.74048470873E+03  0.00000000000E+00 0.  1.
<mgrwt>
<rscale>  3 0.31439882E+03</rscale>
<asrwt>0</asrwt>
<pdfrwt beam="1">  1       21 0.14535827E+00 0.31439882E+03</pdfrwt>
<pdfrwt beam="2">  1       21 0.20775433E-01 0.31439882E+03</pdfrwt>
<totfact> 0.64574704E+03</totfact>
</mgrwt>
</event>
<event>
 4    0  0.1249471E-001  0.2998865E+03  0.7546771E-02  0.1085297E+00
         21   -1    0    0  503  501  0.00000000000E+00  0.00000000000E+00  0.19357604364E+03  0.19357604364E+03  0.00000000000E+00 0.  1.
         21   -1    0    0  501  502 -0.00000000000E+00 -0.00000000000E+00 -0.61470621534E+03  0.61470621534E+03  0.00000000000E+00 0.  1.
         25    1    1    2    0    0  0.15151568810E+03 -0.22660519488E+03  0.78849212785E+01  0.29999014995E+03  0.12500000000E+03 0.  0.
         21    1    1    2  503  502 -0.15151568810E+03  0.22660519488E+03 -0.42901509298E+03  0.50829210902E+03  0.00000000000E+00 0.  1.
<mgrwt>
<rscale>  3 0.29988651E+03</rscale>
<asrwt>0</asrwt>
<pdfrwt beam="1">  1       21 0.29780930E-01 0.29988651E+03</pdfrwt>
<pdfrwt beam="2">  1       21 0.94570185E-01 0.29988651E+03</pdfrwt>
<totfact> 0.95118866E+03</totfact>
</mgrwt>
</event>
<event>
 4    0  0.1277452E-001  0.3045226E+03  0.7546771E-02  0.1083001E+00
         21   -1    0    0  502  501  0.00000000000E+00  0.00000000000E+00  0.22076473277E+03  0.22076473277E+03  0.00000000000E+00 0. -1.
         21   -1    0    0  503  502 -0.00000000000E+00 -0.00000000000E+00 -0.66731397402E+03  0.66731397402E+03  0.00000000000E+00 0.  1.
         25    1    1    2    0    0  0.26987014383E+03  0.65415180961E+02  0.60030563683E+02  0.31038316483E+03  0.12500000000E+03 0.  0.
         21    1    1    2  503  501 -0.26987014383E+03 -0.65415180961E+02 -0.50657980493E+03  0.57769554196E+03  0.00000000000E+00 0.  1.
<mgrwt>
<rscale>  3 0.30452264E+03</rscale>
<asrwt>0</asrwt>
<pdfrwt beam="1">  1       21 0.33963806E-01 0.30452264E+03</pdfrwt>
<pdfrwt beam="2">  1       21 0.10266369E+00 0.30452264E+03</pdfrwt>
<totfact> 0.60077387E+03</totfact>
</mgrwt>
</event>
<event>
 4    0  0.1003929E-001  0.2439020E+03  0.7546771E-02  0.1117220E+00
         21   -1    0    0  502  501  0.00000000000E+00  0.00000000000E+00  0.32424645930E+02  0.32424645930E+02  0.00000000000E+00 0. -1.
         21   -1    0    0  503  502 -0.00000000000E+00 -0.00000000000E+00 -0.31237327194E+04  0.31237327194E+04  0.00000000000E+00 0. -1.
         25    1    1    2    0    0 -0.15214835247E+02  0.20888201230E+03 -0.49915496202E+03  0.55555725392E+03  0.12500000000E+03 0.  0.
         21    1    1    2  503  501  0.15214835247E+02 -0.20888201230E+03 -0.25921531114E+04  0.26006001114E+04  0.00000000000E+00 0. -1.
<mgrwt>
<rscale>  3 0.24390200E+03</rscale>
<asrwt>0</asrwt>
<pdfrwt beam="1">  1       21 0.49884047E-02 0.24390200E+03</pdfrwt>
<pdfrwt beam="2">  1       21 0.48057449E+00 0.24390200E+03</pdfrwt>
<totfact> 0.64788620E+02</totfact>
</mgrwt>
</event>
<event>
 4    0  0.1506140E-001  0.2384948E+03  0.7546771E-02  0.1120800E+00
         21   -1    0    0  502  501  0.00000000000E+00  0.00000000000E+00  0.38392229043E+03  0.38392229043E+03  0.00000000000E+00 0. -1.
         21   -1    0    0  503  502 -0.00000000000E+00 -0.00000000000E+00 -0.15133933975E+03  0.15133933975E+03  0.00000000000E+00 0. -1.
         25    1    1    2    0    0  0.38930863531E+01  0.20307542878E+03  0.23117057796E+03  0.33214397783E+03  0.12500000000E+03 0.  0.
         21    1    1    2  503  501 -0.38930863531E+01 -0.20307542878E+03  0.14123727228E+01  0.20311765234E+03  0.00000000000E+00 0. -1.
<mgrwt>
<rscale>  3 0.23849483E+03</rscale>
<asrwt>0</asrwt>
<pdfrwt beam="1">  1       21 0.59064967E-01 0.23849483E+03</pdfrwt>
<pdfrwt beam="2">  1       21 0.23282975E-01 0.23849483E+03</pdfrwt>
<totfact> 0.45488106E+04</totfact>
</mgrwt>
</event>
<event>
 4    0  0.1257011E-001  0.2870590E+03  0.7546771E-02  0.1091895E+00
         21   -1    0    0  503  501  0.00000000000E+00  0.00000000000E+00  0.43123524128E+03  0.43123524128E+03  0.00000000000E+00 0.  1.
         21   -1    0    0  501  502 -0.00000000000E+00 -0.00000000000E+00 -0.36100181073E+03  0.36100181073E+03  0.00000000000E+00 0.  1.
         25    1    1    2    0    0 -0.24469853319E+03 -0.83069226753E+02  0.32205283858E+03  0.43141731469E+03  0.12500000000E+03 0.  0.
         21    1    1    2  503  502  0.24469853319E+03  0.83069226753E+02 -0.25181940803E+03  0.36081973732E+03  0.00000000000E+00 0.  1.
<mgrwt>
<rscale>  3 0.28705900E+03</rscale>
<asrwt>0</asrwt>
<pdfrwt beam="1">  1       21 0.66343884E-01 0.28705900E+03</pdfrwt>
<pdfrwt beam="2">  1       21 0.55538740E-01 0.28705900E+03</pdfrwt>
<totfact> 0.60008131E+03</totfact>
</mgrwt>
</event>
<event>
 4    0  0.1123949E-001  0.3539576E+03  0.7546771E-02  0.1061002E+00
         21   -1    0    0  502  501  0.00000000000E+00  0.00000000000E+00  0.81262387422E+02  0.81262387422E+02  0.00000000000E+00 0. -1.
         21   -1    0    0  503  502 -0.00000000000E+00 -0.00000000000E+00 -0.15601037858E+04  0.15601037858E+04  0.00000000000E+00 0. -1.
         25    1    1    2    0    0  0.32404710119E+03  0.68223372692E+02 -0.53844128659E+03  0.64436400541E+03  0.12500000000E+03 0.  0.
         21    1    1    2  503  501 -0.32404710119E+03 -0.68223372692E+02 -0.94040011183E+03  0.99700216785E+03  0.00000000000E+00 0. -1.
<mgrwt>
<rscale>  3 0.35395756E+03</rscale>
<asrwt>0</asrwt>
<pdfrwt beam="1">  1       21 0.12501906E-01 0.35395756E+03</pdfrwt>
<pdfrwt beam="2">  1       21 0.24001596E+00 0.35395756E+03</pdfrwt>
<totfact> 0.36728381E+03</totfact>
</mgrwt>
</event>
<event>
 4    0  0.1003929E-001  0.2442098E+03  0.7546771E-02  0.1117020E+00
         21   -1    0    0  502  501  0.00000000000E+00  0.00000000000E+00  0.26911840546E+03  0.26911840546E+03  0.00000000000E+00 0. -1.
         21   -1    0    0  503  502 -0.00000000000E+00 -0.00000000000E+00 -0.25714535313E+03  0.25714535313E+03  0.00000000000E+00 0.  1.
         25    1    1    2    0    0 -0.17830756820E+03  0.11054345962E+03  0.13901283909E+03  0.28100358498E+03  0.12500000000E+03 0.  0.
         21    1    1    2  503  501  0.17830756820E+03 -0.11054345962E+03 -0.12703978676E+03  0.24526017361E+03  0.00000000000E+00 0.  1.
<mgrwt>
<rscale>  3 0.24420984E+03</rscale>
<asrwt>0</asrwt>
<pdfrwt beam="1">  1       21 0.41402832E-01 0.24420984E+03</pdfrwt>
<pdfrwt beam="2">  1       21 0.39560823E-01 0.24420984E+03</pdfrwt>
<totfact> 0.33730868E+04</totfact>
</mgrwt>
</event>
<event>
 4    0  0.1003929E-001  0.3012687E+03  0.7546771E-02  0.1084608E+00
         21   -1    0    0  503  501  0.00000000000E+00  0.00000000000E+00  0.13374388361E+03  0.13374388361E+03  0.00000000000E+00 0. -1.
         21   -1    0    0  501  502 -0.00000000000E+00 -0.00000000000E+00 -0.21948512006E+04  0.21948512006E+04  0.00000000000E+00 0. -1.
         25    1    1    2    0    0 -0.26342382587E+03 -0.75800511148E+02 -0.57976950709E+02  0.30679660419E+03  0.12500000000E+03 0.  0.
         21    1    1    2  503  502  0.26342382587E+03  0.75800511148E+02 -0.20031303662E+04  0.20217984800E+04  0.00000000000E+00 0. -1.
<mgrwt>
<rscale>  3 0.30126870E+03</rscale>
<asrwt>0</asrwt>
<pdfrwt beam="1">  1       21 0.20575984E-01 0.30126870E+03</pdfrwt>
<pdfrwt beam="2">  1       21 0.33766938E+00 0.30126870E+03</pdfrwt>
<totfact> 0.39639961E+02</totfact>
</mgrwt>
</event>
<event>
 4    0  0.1003929E-001  0.2636537E+03  0.7546771E-02  0.1104968E+00
         21   -1    0    0  503  501  0.00000000000E+00  0.00000000000E+00  0.14960799689E+03  0.14960799689E+03  0.00000000000E+00 0.  1.
         21   -1    0    0  501  502 -0.00000000000E+00 -0.00000000000E+00 -0.51212933519E+03  0.51212933519E+03  0.00000000000E+00 0. -1.
         25    1    1    2    0    0  0.12276853166E+03 -0.19701817577E+03 -0.43534307185E+02  0.26722370750E+03  0.12500000000E+03 0.  0.
         21    1    1    2  503  502 -0.12276853166E+03  0.19701817577E+03 -0.31898703112E+03  0.39451362457E+03  0.00000000000E+00 0. -1.
<mgrwt>
<rscale>  3 0.26365370E+03</rscale>
<asrwt>0</asrwt>
<pdfrwt beam="1">  1       21 0.23016616E-01 0.26365370E+03</pdfrwt>
<pdfrwt beam="2">  1       21 0.78789126E-01 0.26365370E+03</pdfrwt>
<totfact> 0.24322916E+04</totfact>
</mgrwt>
</event>
<event>
 4    0  0.1003929E-001  0.3699497E+03  0.7546771E-02  0.1054712E+00
         21   -1    0    0  502  501  0.00000000000E+00  0.00000000000E+00  0.12619912280E+03  0.12619912280E+03  0.00000000000E+00 0. -1.
         21   -1    0    0  503  502 -0.00000000000E+00 -0.00000000000E+00 -0.16483810599E+04  0.16483810599E+04  0.00000000000E+00 0. -1.
         25    1    1    2    0    0  0.19455995016E+03 -0.28876317926E+03 -0.22842673617E+03  0.43478905425E+03  0.12500000000E+03 0.  0.
         21    1    1    2  503  501 -0.19455995016E+03  0.28876317926E+03 -0.12937552009E+04  0.13397911284E+04  0.00000000000E+00 0. -1.
<mgrwt>
<rscale>  3 0.36994966E+03</rscale>
<asrwt>0</asrwt>
<pdfrwt beam="1">  1       21 0.19415250E-01 0.36994966E+03</pdfrwt>
<pdfrwt beam="2">  1       21 0.25359708E+00 0.36994966E+03</pdfrwt>
<totfact> 0.13301153E+03</totfact>
</mgrwt>
</event>
<event>
 4    0  0.1003929E-001  0.2425080E+03  0.7546771E-02  0.1118133E+00
         21   -1    0    0  502  501  0.00000000000E+00  0.00000000000E+00  0.20467332921E+04  0.20467332921E+04  0.00000000000E+00 0. -1.
         21   -1    0    0  503  502 -0.00000000000E+00 -0.00000000000E+00 -0.25701269158E+02  0.25701269158E+02  0.00000000000E+00 0. -1.
         25    1    1    2    0    0 -0.20737043648E+03 -0.13514502987E+02  0.12822850859E+04  0.13050153950E+04  0.12500000000E+03 0.  0.
         21    1    1    2  503  501  0.20737043648E+03  0.13514502987E+02  0.73874693703E+03  0.76741916623E+03  0.00000000000E+00 0. -1.
<mgrwt>
<rscale>  3 0.24250802E+03</rscale>
<asrwt>0</asrwt>
<pdfrwt beam="1">  1       21 0.31488192E+00 0.24250802E+03</pdfrwt>
<pdfrwt beam="2">  1       21 0.39540430E-02 0.24250802E+03</pdfrwt>
<totfact> 0.10651414E+04</totfact>
</mgrwt>
</event>
<event>
 4    0  0.1046493E-001  0.2866810E+03  0.7546771E-02  0.1092095E+00
         21   -1    0    0  502  501  0.00000000000E+00  0.00000000000E+00  0.81782885906E+02  0.81782885906E+02  0.00000000000E+00 0.  1.
         21   -1    0    0  503  502 -0.00000000000E+00 -0.00000000000E+00 -0.10161136231E+04  0.10161136231E+04  0.00000000000E+00 0.  1.
         25    1    1    2    0    0  0.19336140316E+03  0.17079915694E+03 -0.66888309220E+03  0.72772974055E+03  0.12500000000E+03 0.  0.
         21    1    1    2  503  501 -0.19336140316E+03 -0.17079915694E+03 -0.26544764501E+03  0.37016676848E+03  0.00000000000E+00 0.  1.
<mgrwt>
<rscale>  3 0.28668098E+03</rscale>
<asrwt>0</asrwt>
<pdfrwt beam="1">  1       21 0.12581982E-01 0.28668098E+03</pdfrwt>
<pdfrwt beam="2">  1       21 0.15632518E+00 0.28668098E+03</pdfrwt>
<totfact> 0.13635319E+04</totfact>
</mgrwt>
</event>
<event>
 4    0  0.2081602E-001  0.2469806E+03  0.7546771E-02  0.1115228E+00
         21   -1    0    0  502  501  0.00000000000E+00  0.00000000000E+00  0.53782302546E+03  0.53782302546E+03  0.00000000000E+00 0.  1.
         21   -1    0    0  503  502 -0.00000000000E+00 -0.00000000000E+00 -0.78619688051E+03  0.78619688051E+03  0.00000000000E+00 0. -1.
         25    1    1    2    0    0  0.16516016974E+03 -0.13452337036E+03  0.49367124209E+03  0.55200608159E+03  0.12500000000E+03 0.  0.
         21    1    1    2  503  501 -0.16516016974E+03  0.13452337036E+03 -0.74204509714E+03  0.77201382438E+03  0.00000000000E+00 0. -1.
<mgrwt>
<rscale>  3 0.24698060E+03</rscale>
<asrwt>0</asrwt>
<pdfrwt beam="1">  1       21 0.82742004E-01 0.24698060E+03</pdfrwt>
<pdfrwt beam="2">  1       21 0.12095337E+00 0.24698060E+03</pdfrwt>
<totfact> 0.62589552E+02</totfact>
</mgrwt>
</event>
<event>
 4    0  0.1641338E-001  0.2900064E+03  0.7546771E-02  0.1090346E+00
         21   -1    0    0  503  501  0.00000000000E+00  0.00000000000E+00  0.85742001922E+02  0.85742001922E+02  0.00000000000E+00 0. -1.
         21   -1    0    0  501  502 -0.00000000000E+00 -0.00000000000E+00 -0.98400689715E+03  0.98400689715E+03  0.00000000000E+00 0. -1.
         25    1    1    2    0    0 -0.26162374040E+03 -0.56334526679E+01 -0.30256522981E+03  0.41910551848E+03  0.12500000000E+03 0.  0.
         21    1    1    2  503  502  0.26162374040E+03  0.56334526679E+01 -0.59569966542E+03  0.65064338059E+03  0.00000000000E+00 0. -1.
<mgrwt>
<rscale>  3 0.29000641E+03</rscale>
<asrwt>0</asrwt>
<pdfrwt beam="1">  1       21 0.13191077E-01 0.29000641E+03</pdfrwt>
<pdfrwt beam="2">  1       21 0.15138568E+00 0.29000641E+03</pdfrwt>
<totfact> 0.13623153E+04</totfact>
</mgrwt>
</event>
<event>
 4    0  0.1112410E-001  0.2970463E+03  0.7546771E-02  0.1086727E+00
         21   -1    0    0  502  501  0.00000000000E+00  0.00000000000E+00  0.82976188208E+03  0.82976188208E+03  0.00000000000E+00 0.  1.
         21   -1    0    0  503  502 -0.00000000000E+00 -0.00000000000E+00 -0.18154959609E+03  0.18154959609E+03  0.00000000000E+00 0.  1.
         25    1    1    2    0    0  0.24957211890E+03 -0.10161336554E+03  0.67798856822E+03  0.74020606403E+03  0.12500000000E+03 0.  0.
         21    1    1    2  503  501 -0.24957211890E+03  0.10161336554E+03 -0.29776282237E+02  0.27110541414E+03  0.00000000000E+00 0.  1.
<mgrwt>
<rscale>  3 0.29704632E+03</rscale>
<asrwt>0</asrwt>
<pdfrwt beam="1">  1       21 0.12765567E+00 0.29704632E+03</pdfrwt>
<pdfrwt beam="2">  1       21 0.27930708E-01 0.29704632E+03</pdfrwt>
<totfact> 0.51697446E+03</totfact>
</mgrwt>
</event>
<event>
 4    0  0.1275267E-001  0.2791770E+03  0.7546771E-02  0.1096139E+00
         21   -1    0    0  503  501  0.00000000000E+00  0.00000000000E+00  0.71869767532E+02  0.71869767532E+02  0.00000000000E+00 0.  1.
         21   -1    0    0  501  502 -0.00000000000E+00 -0.00000000000E+00 -0.10958894800E+04  0.10958894800E+04  0.00000000000E+00 0.  1.
         25    1    1    2    0    0 -0.65837687001E+02 -0.24079076831E+03 -0.34192811612E+03  0.44142341547E+03  0.12500000000E+03 0.  0.
         21    1    1    2  503  502  0.65837687001E+02  0.24079076831E+03 -0.68209159638E+03  0.72633583210E+03  0.00000000000E+00 0.  1.
<mgrwt>
<rscale>  3 0.27917700E+03</rscale>
<asrwt>0</asrwt>
<pdfrwt beam="1">  1       21 0.11056888E-01 0.27917700E+03</pdfrwt>
<pdfrwt beam="2">  1       21 0.16859837E+00 0.27917700E+03</pdfrwt>
<totfact> 0.14032207E+04</totfact>
</mgrwt>
</event>
<event>
 4    0  0.1337399E-001  0.3117488E+03  0.7546771E-02  0.1079511E+00
         21   -1    0    0  502  501  0.00000000000E+00  0.00000000000E+00  0.83554850536E+02  0.83554850536E+02  0.00000000000E+00 0. -1.
         21   -1    0    0  503  502 -0.00000000000E+00 -0.00000000000E+00 -0.10911171650E+04  0.10911171650E+04  0.00000000000E+00 0. -1.
         25    1    1    2    0    0  0.69065592043E+02  0.27711421560E+03 -0.61149876930E+03  0.68638042612E+03  0.12500000000E+03 0.  0.
         21    1    1    2  503  501 -0.69065592043E+02 -0.27711421560E+03 -0.39606354516E+03  0.48829158942E+03  0.00000000000E+00 0. -1.
<mgrwt>
<rscale>  3 0.31174885E+03</rscale>
<asrwt>0</asrwt>
<pdfrwt beam="1">  1       21 0.12854593E-01 0.31174885E+03</pdfrwt>
<pdfrwt beam="2">  1       21 0.16786417E+00 0.31174885E+03</pdfrwt>
<totfact> 0.10645323E+04</totfact>
</mgrwt>
</event>
<event>
 4    0  0.1003929E-001  0.2375938E+03  0.7546771E-02  0.1121406E+00
         21   -1    0    0  503  501  0.00000000000E+00  0.00000000000E+00  0.34016876024E+03  0.34016876024E+03  0.00000000000E+00 0.  1.
         21   -1    0    0  501  502 -0.00000000000E+00 -0.00000000000E+00 -0.19793034599E+03  0.19793034599E+03  0.00000000000E+00 0.  1.
         25    1    1    2    0    0 -0.19946294879E+02  0.20106706199E+03 -0.67370221215E+02  0.24696065436E+03  0.12500000000E+03 0.  0.
         21    1    1    2  503  502  0.19946294879E+02 -0.20106706199E+03  0.20960863546E+03  0.29113845187E+03  0.00000000000E+00 0.  1.
<mgrwt>
<rscale>  3 0.23759381E+03</rscale>
<asrwt>0</asrwt>
<pdfrwt beam="1">  1       21 0.52333655E-01 0.23759381E+03</pdfrwt>
<pdfrwt beam="2">  1       21 0.30450823E-01 0.23759381E+03</pdfrwt>
<totfact> 0.35057965E+04</totfact>
</mgrwt>
</event>
<event>
 4    0  0.1473649E-001  0.3505816E+03  0.7546771E-02  0.1062377E+00
         21   -1    0    0  502  501  0.00000000000E+00  0.00000000000E+00  0.52539589774E+03  0.52539589774E+03  0.00000000000E+00 0. -1.
         21   -1    0    0  503  502 -0.00000000000E+00 -0.00000000000E+00 -0.29526503627E+03  0.29526503627E+03  0.00000000000E+00 0. -1.
         25    1    1    2    0    0  0.25959271844E+03  0.19973506439E+03  0.32667265878E+03  0.47918942122E+03  0.12500000000E+03 0.  0.
         21    1    1    2  503  501 -0.25959271844E+03 -0.19973506439E+03 -0.96541797305E+02  0.34147151278E+03  0.00000000000E+00 0. -1.
<mgrwt>
<rscale>  3 0.35058162E+03</rscale>
<asrwt>0</asrwt>
<pdfrwt beam="1">  1       21 0.80830138E-01 0.35058162E+03</pdfrwt>
<pdfrwt beam="2">  1       21 0.45425390E-01 0.35058162E+03</pdfrwt>
<totfact> 0.57092218E+03</totfact>
</mgrwt>
</event>
<event>
 4    0  0.1274183E-001  0.2708000E+03  0.7546771E-02  0.1100823E+00
         21   -1    0    0  503  501  0.00000000000E+00  0.00000000000E+00  0.65746918831E+03  0.65746918831E+03  0.00000000000E+00 0.  1.
         21   -1    0    0  501  502 -0.00000000000E+00 -0.00000000000E+00 -0.16363597604E+03  0.16363597604E+03  0.00000000000E+00 0.  1.
         25    1    1    2    0    0 -0.23713398238E+03  0.38407165777E+02  0.51303112037E+03  0.58011513207E+03  0.12500000000E+03 0.  0.
         21    1    1    2  503  502  0.23713398238E+03 -0.38407165777E+02 -0.19197908102E+02  0.24099003228E+03  0.00000000000E+00 0.  1.
<mgrwt>
<rscale>  3 0.27079999E+03</rscale>
<asrwt>0</asrwt>
<pdfrwt beam="1">  1       21 0.10114910E+00 0.27079999E+03</pdfrwt>
<pdfrwt beam="2">  1       21 0.25174766E-01 0.27079999E+03</pdfrwt>
<totfact> 0.11396226E+04</totfact>
</mgrwt>
</event>
<event>
 4    0  0.1311940E-001  0.2569028E+03  0.7546771E-02  0.1109018E+00
         21   -1    0    0  502  501  0.00000000000E+00  0.00000000000E+00  0.82850664304E+02  0.82850664304E+02  0.00000000000E+00 0.  1.
         21   -1    0    0  503  502 -0.00000000000E+00 -0.00000000000E+00 -0.18075558527E+04  0.18075558527E+04  0.00000000000E+00 0. -1.
         25    1    1    2    0    0 -0.20531008267E+03  0.90674222153E+02 -0.14532426462E+03  0.29515790096E+03  0.12500000000E+03 0.  0.
         21    1    1    2  503  501  0.20531008267E+03 -0.90674222153E+02 -0.15793809238E+04  0.15952486161E+04  0.00000000000E+00 0. -1.
<mgrwt>
<rscale>  3 0.25690279E+03</rscale>
<asrwt>0</asrwt>
<pdfrwt beam="1">  1       21 0.12746259E-01 0.25690279E+03</pdfrwt>
<pdfrwt beam="2">  1       21 0.27808546E+00 0.25690279E+03</pdfrwt>
<totfact> 0.22481492E+03</totfact>
</mgrwt>
</event>
<event>
 4    0  0.1172897E-001  0.2389244E+03  0.7546771E-02  0.1120511E+00
         21   -1    0    0  503  501  0.00000000000E+00  0.00000000000E+00  0.11729073941E+03  0.11729073941E+03  0.00000000000E+00 0. -1.
         21   -1    0    0  501  502 -0.00000000000E+00 -0.00000000000E+00 -0.44165501471E+03  0.44165501471E+03  0.00000000000E+00 0. -1.
         25    1    1    2    0    0  0.16109797075E+03  0.12452831629E+03 -0.23966739155E+03  0.33841589252E+03  0.12500000000E+03 0.  0.
         21    1    1    2  503  502 -0.16109797075E+03 -0.12452831629E+03 -0.84696883751E+02  0.22052986159E+03  0.00000000000E+00 0. -1.
<mgrwt>
<rscale>  3 0.23892438E+03</rscale>
<asrwt>0</asrwt>
<pdfrwt beam="1">  1       21 0.18044729E-01 0.23892438E+03</pdfrwt>
<pdfrwt beam="2">  1       21 0.67946925E-01 0.23892438E+03</pdfrwt>
<totfact> 0.54141938E+04</totfact>
</mgrwt>
</event>
<event>
 4    0  0.1003929E-001  0.2658894E+03  0.7546771E-02  0.1103656E+00
         21   -1    0    0  503  501  0.00000000000E+00  0.00000000000E+00  0.29158151758E+02  0.29158151758E+02  0.00000000000E+00 0.  1.
         21   -1    0    0  501  502 -0.00000000000E+00 -0.00000000000E+00 -0.21518326522E+04  0.21518326522E+04  0.00000000000E+00 0. -1.
         25    1    1    2    0    0 -0.23018602332E+03 -0.45678811326E+02 -0.10834457412E+04  0.11155948338E+04  0.12500000000E+03 0.  0.
         21    1    1    2  503  502  0.23018602332E+03  0.45678811326E+02 -0.10392287593E+04  0.10653959702E+04  0.00000000000E+00 0. -1.
<mgrwt>
<rscale>  3 0.26588937E+03</rscale>
<asrwt>0</asrwt>
<pdfrwt beam="1">  1       21 0.44858701E-02 0.26588937E+03</pdfrwt>
<pdfrwt beam="2">  1       21 0.33105113E+00 0.26588937E+03</pdfrwt>
<totfact> 0.67733698E+03</totfact>
</mgrwt>
</event>
<event>
 4    0  0.1390264E-001  0.2859356E+03  0.7546771E-02  0.1092490E+00
         21   -1    0    0  502  501  0.00000000000E+00  0.00000000000E+00  0.19871990860E+03  0.19871990860E+03  0.00000000000E+00 0.  1.
         21   -1    0    0  503  502 -0.00000000000E+00 -0.00000000000E+00 -0.39016973146E+03  0.39016973146E+03  0.00000000000E+00 0.  1.
         25    1    1    2    0    0 -0.25261813398E+03 -0.48148196738E+02 -0.16560067218E+03  0.33042813605E+03  0.12500000000E+03 0.  0.
         21    1    1    2  503  501  0.25261813398E+03  0.48148196738E+02 -0.25849150677E+02  0.25846150401E+03  0.00000000000E+00 0.  1.
<mgrwt>
<rscale>  3 0.28593561E+03</rscale>
<asrwt>0</asrwt>
<pdfrwt beam="1">  1       21 0.30572294E-01 0.28593561E+03</pdfrwt>
<pdfrwt beam="2">  1       21 0.60026112E-01 0.28593561E+03</pdfrwt>
<totfact> 0.25415087E+04</totfact>
</mgrwt>
</event>
<event>
 4    0  0.1198846E-001  0.2782879E+03  0.7546771E-02  0.1096628E+00
         21   -1    0    0  502  501  0.00000000000E+00  0.00000000000E+00  0.12134840619E+03  0.12134840619E+03  0.00000000000E+00 0. -1.
         21   -1    0    0  503  502 -0.00000000000E+00 -0.00000000000E+00 -0.10826055643E+04  0.10826055643E+04  0.00000000000E+00 0.  1.
         25    1    1    2    0    0  0.24665704703E+03  0.31295967193E+02 -0.81851191665E+02  0.29007542810E+03  0.12500000000E+03 0.  0.
         21    1    1    2  503  501 -0.24665704703E+03 -0.31295967193E+02 -0.87940596643E+03  0.91387854237E+03  0.00000000000E+00 0.  1.
<mgrwt>
<rscale>  3 0.27828787E+03</rscale>
<asrwt>0</asrwt>
<pdfrwt beam="1">  1       21 0.18668985E-01 0.27828787E+03</pdfrwt>
<pdfrwt beam="2">  1       21 0.16655471E+00 0.27828787E+03</pdfrwt>
<totfact> 0.55671299E+03</totfact>
</mgrwt>
</event>
<event>
 4    0  0.1451152E-001  0.2865313E+03  0.7546771E-02  0.1092174E+00
         21   -1    0    0  503  501  0.00000000000E+00  0.00000000000E+00  0.70097563855E+03  0.70097563855E+03  0.00000000000E+00 0. -1.
         21   -1    0    0  501  502 -0.00000000000E+00 -0.00000000000E+00 -0.10595560098E+03  0.10595560098E+03  0.00000000000E+00 0. -1.
         25    1    1    2    0    0  0.17235547287E+03  0.19175186505E+03  0.29274778562E+03  0.40963575621E+03  0.12500000000E+03 0.  0.
         21    1    1    2  503  502 -0.17235547287E+03 -0.19175186505E+03  0.30227225195E+03  0.39729548333E+03  0.00000000000E+00 0. -1.
<mgrwt>
<rscale>  3 0.28653130E+03</rscale>
<asrwt>0</asrwt>
<pdfrwt beam="1">  1       21 0.10784240E+00 0.28653130E+03</pdfrwt>
<pdfrwt beam="2">  1       21 0.16300862E-01 0.28653130E+03</pdfrwt>
<totfact> 0.21988038E+04</totfact>
</mgrwt>
</event>
<event>
 4    0  0.1134112E-001  0.2424501E+03  0.7546771E-02  0.1118171E+00
         21   -1    0    0  502  501  0.00000000000E+00  0.00000000000E+00  0.34919294302E+02  0.34919294302E+02  0.00000000000E+00 0. -1.
         21   -1    0    0  503  502 -0.00000000000E+00 -0.00000000000E+00 -0.14776669744E+04  0.14776669744E+04  0.00000000000E+00 0. -1.
         25    1    1    2    0    0 -0.35513694568E+02 -0.20468471313E+03 -0.67471035075E+03  0.71694916954E+03  0.12500000000E+03 0.  0.
         21    1    1    2  503  501  0.35513694568E+02  0.20468471313E+03 -0.76803732932E+03  0.79563709914E+03  0.00000000000E+00 0. -1.
<mgrwt>
<rscale>  3 0.24245011E+03</rscale>
<asrwt>0</asrwt>
<pdfrwt beam="1">  1       21 0.53721983E-02 0.24245011E+03</pdfrwt>
<pdfrwt beam="2">  1       21 0.22733342E+00 0.24245011E+03</pdfrwt>
<totfact> 0.20823025E+04</totfact>
</mgrwt>
</event>
<event>
 4    0  0.1003929E-001  0.2508001E+03  0.7546771E-02  0.1112800E+00
         21   -1    0    0  502  501  0.00000000000E+00  0.00000000000E+00  0.34180528180E+03  0.34180528180E+03  0.00000000000E+00 0.  1.
         21   -1    0    0  503  502 -0.00000000000E+00 -0.00000000000E+00 -0.19027776071E+03  0.19027776071E+03  0.00000000000E+00 0. -1.
         25    1    1    2    0    0 -0.19140865045E+03  0.10314259105E+03  0.18559123145E+03  0.31200123517E+03  0.12500000000E+03 0.  0.
         21    1    1    2  503  501  0.19140865045E+03 -0.10314259105E+03 -0.34063710355E+02  0.22008180734E+03  0.00000000000E+00 0. -1.
<mgrwt>
<rscale>  3 0.25080005E+03</rscale>
<asrwt>0</asrwt>
<pdfrwt beam="1">  1       21 0.52585428E-01 0.25080005E+03</pdfrwt>
<pdfrwt beam="2">  1       21 0.29273502E-01 0.25080005E+03</pdfrwt>
<totfact> 0.37276935E+04</totfact>
</mgrwt>
</event>
<event>
 4    0  0.1028626E-001  0.3114777E+03  0.7546771E-02  0.1079640E+00
         21   -1    0    0  503  501  0.00000000000E+00  0.00000000000E+00  0.44030478912E+02  0.44030478912E+02  0.00000000000E+00 0. -1.
         21   -1    0    0  501  502 -0.00000000000E+00 -0.00000000000E+00 -0.20472650798E+04  0.20472650798E+04  0.00000000000E+00 0. -1.
         25    1    1    2    0    0 -0.27176170449E+03 -0.86827171722E+02 -0.11608174044E+04  0.12018799558E+04  0.12500000000E+03 0.  0.
         21    1    1    2  503  502  0.27176170449E+03  0.86827171722E+02 -0.84241719645E+03  0.88941560289E+03  0.00000000000E+00 0. -1.
<mgrwt>
<rscale>  3 0.31147774E+03</rscale>
<asrwt>0</asrwt>
<pdfrwt beam="1">  1       21 0.67739209E-02 0.31147774E+03</pdfrwt>
<pdfrwt beam="2">  1       21 0.31496381E+00 0.31147774E+03</pdfrwt>
<totfact> 0.40048061E+03</totfact>
</mgrwt>
</event>
<event>
 4    0  0.1003929E-001  0.2868285E+03  0.7546771E-02  0.1092017E+00
         21   -1    0    0  503  501  0.00000000000E+00  0.00000000000E+00  0.98933520691E+02  0.98933520691E+02  0.00000000000E+00 0.  1.
         21   -1    0    0  501  502 -0.00000000000E+00 -0.00000000000E+00 -0.16178732077E+04  0.16178732077E+04  0.00000000000E+00 0.  1.
         25    1    1    2    0    0 -0.67831569933E+02 -0.24908727287E+03 -0.14989450447E+03  0.32363398131E+03  0.12500000000E+03 0.  0.
         21    1    1    2  503  502  0.67831569933E+02  0.24908727287E+03 -0.13690451825E+04  0.13931727471E+04  0.00000000000E+00 0.  1.
<mgrwt>
<rscale>  3 0.28682851E+03</rscale>
<asrwt>0</asrwt>
<pdfrwt beam="1">  1       21 0.15220540E-01 0.28682851E+03</pdfrwt>
<pdfrwt beam="2">  1       21 0.24890359E+00 0.28682851E+03</pdfrwt>
<totfact> 0.23634062E+03</totfact>
</mgrwt>
</event>
<event>
 4    0  0.1315722E-001  0.2866803E+03  0.7546771E-02  0.1092095E+00
         21   -1    0    0  502  501  0.00000000000E+00  0.00000000000E+00  0.60298961944E+02  0.60298961944E+02  0.00000000000E+00 0. -1.
         21   -1    0    0  503  502 -0.00000000000E+00 -0.00000000000E+00 -0.13547132538E+04  0.13547132538E+04  0.00000000000E+00 0. -1.
         25    1    1    2    0    0  0.71700823579E+02 -0.24782974114E+03 -0.46375556778E+03  0.54521079900E+03  0.12500000000E+03 0.  0.
         21    1    1    2  503  501 -0.71700823579E+02  0.24782974114E+03 -0.83065872409E+03  0.86980141677E+03  0.00000000000E+00 0. -1.
<mgrwt>
<rscale>  3 0.28668029E+03</rscale>
<asrwt>0</asrwt>
<pdfrwt beam="1">  1       21 0.92767631E-02 0.28668029E+03</pdfrwt>
<pdfrwt beam="2">  1       21 0.20841743E+00 0.28668029E+03</pdfrwt>
<totfact> 0.10283767E+04</totfact>
</mgrwt>
</event>
<event>
 4    0  0.1003929E-001  0.2938367E+03  0.7546771E-02  0.1088363E+00
         21   -1    0    0  503  501  0.00000000000E+00  0.00000000000E+00  0.48456820136E+03  0.48456820136E+03  0.00000000000E+00 0. -1.
         21   -1    0    0  501  502 -0.00000000000E+00 -0.00000000000E+00 -0.16755408573E+03  0.16755408573E+03  0.00000000000E+00 0.  1.
         25    1    1    2    0    0  0.24178008634E+03  0.11071319839E+03  0.10502435878E+03  0.31204188563E+03  0.12500000000E+03 0.  0.
         21    1    1    2  503  502 -0.24178008634E+03 -0.11071319839E+03  0.21198975685E+03  0.34008040146E+03  0.00000000000E+00 0.  1.
<mgrwt>
<rscale>  3 0.29383673E+03</rscale>
<asrwt>0</asrwt>
<pdfrwt beam="1">  1       21 0.74548953E-01 0.29383673E+03</pdfrwt>
<pdfrwt beam="2">  1       21 0.25777552E-01 0.29383673E+03</pdfrwt>
<totfact> 0.21895803E+04</totfact>
</mgrwt>
</event>
<event>
 4    0  0.1113890E-001  0.2586888E+03  0.7546771E-02  0.1107934E+00
         21   -1    0    0  502  501  0.00000000000E+00  0.00000000000E+00  0.11746645264E+03  0.11746645264E+03  0.00000000000E+00 0. -1.
         21   -1    0    0  503  502 -0.00000000000E+00 -0.00000000000E+00 -0.22735840352E+04  0.22735840352E+04  0.00000000000E+00 0.  1.
         25    1    1    2    0    0  0.20090787108E+03 -0.10455116176E+03 -0.38715191002E+02  0.26156984555E+03  0.12500000000E+03 0.  0.
         21    1    1    2  503  501 -0.20090787108E+03  0.10455116176E+03 -0.21174023916E+04  0.21294806423E+04  0.00000000000E+00 0.  1.
<mgrwt>
<rscale>  3 0.25868884E+03</rscale>
<asrwt>0</asrwt>
<pdfrwt beam="1">  1       21 0.18071761E-01 0.25868884E+03</pdfrwt>
<pdfrwt beam="2">  1       21 0.34978218E+00 0.25868884E+03</pdfrwt>
<totfact> 0.44753187E+02</totfact>
</mgrwt>
</event>
<event>
 4    0  0.1382150E-001  0.4092676E+03  0.7546771E-02  0.1040617E+00
         21   -1    0    0  503  501  0.00000000000E+00  0.00000000000E+00  0.83416288876E+03  0.83416288876E+03  0.00000000000E+00 0.  1.
         21   -1    0    0  501  502 -0.00000000000E+00 -0.00000000000E+00 -0.19837581055E+03  0.19837581055E+03  0.00000000000E+00 0.  1.
         25    1    1    2    0    0 -0.20667738528E+03 -0.33039283014E+03  0.42273672742E+03  0.58839298475E+03  0.12500000000E+03 0.  0.
         21    1    1    2  503  502  0.20667738528E+03  0.33039283014E+03  0.21305035079E+03  0.44414571456E+03  0.00000000000E+00 0.  1.
<mgrwt>
<rscale>  3 0.40926759E+03</rscale>
<asrwt>0</asrwt>
<pdfrwt beam="1">  1       21 0.12833275E+00 0.40926759E+03</pdfrwt>
<pdfrwt beam="2">  1       21 0.30519356E-01 0.40926759E+03</pdfrwt>
<totfact> 0.40694509E+03</totfact>
</mgrwt>
</event>
<event>
 4    0  0.1003929E-001  0.2666483E+03  0.7546771E-02  0.1103213E+00
         21   -1    0    0  502  501  0.00000000000E+00  0.00000000000E+00  0.56791765427E+03  0.56791765427E+03  0.00000000000E+00 0.  1.
         21   -1    0    0  503  502 -0.00000000000E+00 -0.00000000000E+00 -0.13575013888E+03  0.13575013888E+03  0.00000000000E+00 0. -1.
         25    1    1    2    0    0  0.23083637035E+03  0.46806949600E+02  0.37698384759E+03  0.46175549996E+03  0.12500000000E+03 0.  0.
         21    1    1    2  503  501 -0.23083637035E+03 -0.46806949600E+02  0.55183667799E+02  0.24191229319E+03  0.00000000000E+00 0. -1.
<mgrwt>
<rscale>  3 0.26664831E+03</rscale>
<asrwt>0</asrwt>
<pdfrwt beam="1">  1       21 0.87371946E-01 0.26664831E+03</pdfrwt>
<pdfrwt beam="2">  1       21 0.20884637E-01 0.26664831E+03</pdfrwt>
<totfact> 0.23038008E+04</totfact>
</mgrwt>
</event>
<event>
 4    0  0.1715290E-001  0.2921263E+03  0.7546771E-02  0.1089244E+00
         21   -1    0    0  502  501  0.00000000000E+00  0.00000000000E+00  0.37940448268E+03  0.37940448268E+03  0.00000000000E+00 0. -1.
         21   -1    0    0  503  502 -0.00000000000E+00 -0.00000000000E+00 -0.20894824157E+03  0.20894824157E+03  0.00000000000E+00 0. -1.
         25    1    1    2    0    0  0.10649489116E+03 -0.24160216956E+03  0.13548358166E+03  0.32201486158E+03  0.12500000000E+03 0.  0.
         21    1    1    2  503  501 -0.10649489116E+03  0.24160216956E+03  0.34972659449E+02  0.26633786266E+03  0.00000000000E+00 0. -1.
<mgrwt>
<rscale>  3 0.29212629E+03</rscale>
<asrwt>0</asrwt>
<pdfrwt beam="1">  1       21 0.58369921E-01 0.29212629E+03</pdfrwt>
<pdfrwt beam="2">  1       21 0.32145883E-01 0.29212629E+03</pdfrwt>
<totfact> 0.24390380E+04</totfact>
</mgrwt>
</event>
<event>
 4    0  0.1246173E-001  0.3502627E+03  0.7546771E-02  0.1062507E+00
         21   -1    0    0  503  501  0.00000000000E+00  0.00000000000E+00  0.12615018581E+04  0.12615018581E+04  0.00000000000E+00 0.  1.
         21   -1    0    0  501  502 -0.00000000000E+00 -0.00000000000E+00 -0.91214768943E+02  0.91214768943E+02  0.00000000000E+00 0.  1.
         25    1    1    2    0    0 -0.31309438789E+03  0.95031013051E+02  0.64115800756E+03  0.73059399110E+03  0.12500000000E+03 0.  0.
         21    1    1    2  503  502  0.31309438789E+03 -0.95031013051E+02  0.52912908163E+03  0.62212263597E+03  0.00000000000E+00 0.  1.
<mgrwt>
<rscale>  3 0.35026274E+03</rscale>
<asrwt>0</asrwt>
<pdfrwt beam="1">  1       21 0.19407720E+00 0.35026274E+03</pdfrwt>
<pdfrwt beam="2">  1       21 0.14033042E-01 0.35026274E+03</pdfrwt>
<totfact> 0.58508040E+03</totfact>
</mgrwt>
</event>
<event>
 4    0  0.1268744E-001  0.2441296E+03  0.7546771E-02  0.1117072E+00
         21   -1    0    0  502  501  0.00000000000E+00  0.00000000000E+00  0.41602026946E+03  0.41602026946E+03  0.00000000000E+00 0.  1.
         21   -1    0    0  503  502 -0.00000000000E+00 -0.00000000000E+00 -0.12386460657E+03  0.12386460657E+03  0.00000000000E+00 0.  1.
         25    1    1    2    0    0  0.20718044788E+03 -0.32412047880E+02  0.16462708726E+03  0.29445094106E+03  0.12500000000E+03 0.  0.
         21    1    1    2  503  501 -0.20718044788E+03  0.32412047880E+02  0.12752857563E+03  0.24543393497E+03  0.00000000000E+00 0.  1.
<mgrwt>
<rscale>  3 0.24412964E+03</rscale>
<asrwt>0</asrwt>
<pdfrwt beam="1">  1       21 0.64003118E-01 0.24412964E+03</pdfrwt>
<pdfrwt beam="2">  1       21 0.19056094E-01 0.24412964E+03</pdfrwt>
<totfact> 0.55650873E+04</totfact>
</mgrwt>
</event>
<event>
 4    0  0.1003929E-001  0.3513415E+03  0.7546771E-02  0.1062066E+00
         21   -1    0    0  503  501  0.00000000000E+00  0.00000000000E+00  0.15688358367E+04  0.15688358367E+04  0.00000000000E+00 0.  1.
         21   -1    0    0  501  502 -0.00000000000E+00 -0.00000000000E+00 -0.83271653509E+02  0.83271653509E+02  0.00000000000E+00 0.  1.
         25    1    1    2    0    0  0.18485358831E+02 -0.32783245017E+03  0.48389114757E+03  0.59798952045E+03  0.12500000000E+03 0.  0.
         21    1    1    2  503  502 -0.18485358831E+02  0.32783245017E+03  0.10016730356E+04  0.10541179698E+04  0.00000000000E+00 0.  1.
<mgrwt>
<rscale>  3 0.35134146E+03</rscale>
<asrwt>0</asrwt>
<pdfrwt beam="1">  1       21 0.24135934E+00 0.35134146E+03</pdfrwt>
<pdfrwt beam="2">  1       21 0.12811025E-01 0.35134146E+03</pdfrwt>
<totfact> 0.34521547E+03</totfact>
</mgrwt>
</event>
<event>
 4    0  0.1312551E-001  0.2667018E+03  0.7546771E-02  0.1103182E+00
         21   -1    0    0  503  501  0.00000000000E+00  0.00000000000E+00  0.10341976578E+03  0.10341976578E+03  0.00000000000E+00 0. -1.
         21   -1    0    0  501  502 -0.00000000000E+00 -0.00000000000E+00 -0.86009435227E+03  0.86009435227E+03  0.00000000000E+00 0. -1.
         25    1    1    2    0    0 -0.38420521466E+02 -0.23244073946E+03 -0.13547127721E+03  0.29913592358E+03  0.12500000000E+03 0.  0.
         21    1    1    2  503  502  0.38420521466E+02  0.23244073946E+03 -0.62120330928E+03  0.66437819448E+03  0.00000000000E+00 0. -1.
<mgrwt>
<rscale>  3 0.26670177E+03</rscale>
<asrwt>0</asrwt>
<pdfrwt beam="1">  1       21 0.15910734E-01 0.26670177E+03</pdfrwt>
<pdfrwt beam="2">  1       21 0.13232220E+00 0.26670177E+03</pdfrwt>
<totfact> 0.13920250E+04</totfact>
</mgrwt>
</event>
<event>
 4    0  0.1003929E-001  0.4120295E+03  0.7546771E-02  0.1039692E+00
         21   -1    0    0  503  501  0.00000000000E+00  0.00000000000E+00  0.27415854519E+04  0.27415854519E+04  0.00000000000E+00 0. -1.
         21   -1    0    0  501  502 -0.00000000000E+00 -0.00000000000E+00 -0.59893252106E+02  0.59893252106E+02  0.00000000000E+00 0.  1.
         25    1    1    2    0    0  0.12707994301E+03 -0.37147541568E+03  0.15399445343E+04  0.15941133790E+04  0.12500000000E+03 0.  0.
         21    1    1    2  503  502 -0.12707994301E+03  0.37147541568E+03  0.11417476654E+04  0.12073653250E+04  0.00000000000E+00 0.  1.
<mgrwt>
<rscale>  3 0.41202948E+03</rscale>
<asrwt>0</asrwt>
<pdfrwt beam="1">  1       21 0.42178228E+00 0.41202948E+03</pdfrwt>
<pdfrwt beam="2">  1       21 0.92143486E-02 0.41202948E+03</pdfrwt>
<totfact> 0.47129957E+02</totfact>
</mgrwt>
</event>
<event>
 4    0  0.1256812E-001  0.2886147E+03  0.7546771E-02  0.1091075E+00
         21   -1    0    0  503  501  0.00000000000E+00  0.00000000000E+00  0.68954301029E+03  0.68954301029E+03  0.00000000000E+00 0. -1.
         21   -1    0    0  501  502 -0.00000000000E+00 -0.00000000000E+00 -0.24192533026E+03  0.24192533026E+03  0.00000000000E+00 0. -1.
         25    1    1    2    0    0  0.24994276698E+03 -0.72125285625E+02  0.57383236695E+03  0.64232548521E+03  0.12500000000E+03 0.  0.
         21    1    1    2  503  502 -0.24994276698E+03  0.72125285625E+02 -0.12621468693E+03  0.28914285533E+03  0.00000000000E+00 0. -1.
<mgrwt>
<rscale>  3 0.28861470E+03</rscale>
<asrwt>0</asrwt>
<pdfrwt beam="1">  1       21 0.10608354E+00 0.28861470E+03</pdfrwt>
<pdfrwt beam="2">  1       21 0.37219282E-01 0.28861470E+03</pdfrwt>
<totfact> 0.46541009E+03</totfact>
</mgrwt>
</event>
<event>
 4    0  0.1397403E-001  0.3650746E+03  0.7546771E-02  0.1056592E+00
         21   -1    0    0  503  501  0.00000000000E+00  0.00000000000E+00  0.84316641867E+03  0.84316641867E+03  0.00000000000E+00 0. -1.
         21   -1    0    0  501  502 -0.00000000000E+00 -0.00000000000E+00 -0.17119361346E+03  0.17119361346E+03  0.00000000000E+00 0. -1.
         25    1    1    2    0    0  0.54496006313E+02  0.33865117321E+03  0.52900762466E+03  0.64275072833E+03  0.12500000000E+03 0.  0.
         21    1    1    2  503  502 -0.54496006313E+02 -0.33865117321E+03  0.14296518055E+03  0.37160930380E+03  0.00000000000E+00 0. -1.
<mgrwt>
<rscale>  3 0.36507456E+03</rscale>
<asrwt>0</asrwt>
<pdfrwt beam="1">  1       21 0.12971791E+00 0.36507456E+03</pdfrwt>
<pdfrwt beam="2">  1       21 0.26337479E-01 0.36507456E+03</pdfrwt>
<totfact> 0.53867034E+03</totfact>
</mgrwt>
</event>
<event>
 4    0  0.1158977E-001  0.2679713E+03  0.7546771E-02  0.1102446E+00
         21   -1    0    0  503  501  0.00000000000E+00  0.00000000000E+00  0.64047620820E+03  0.64047620820E+03  0.00000000000E+00 0. -1.
         21   -1    0    0  501  502 -0.00000000000E+00 -0.00000000000E+00 -0.15467099442E+03  0.15467099442E+03  0.00000000000E+00 0.  1.
         25    1    1    2    0    0  0.18280740605E+03 -0.15088093193E+03  0.48954306591E+03  0.55808692576E+03  0.12500000000E+03 0.  0.
         21    1    1    2  503  502 -0.18280740605E+03  0.15088093193E+03 -0.37378521340E+01  0.23706027686E+03  0.00000000000E+00 0.  1.
<mgrwt>
<rscale>  3 0.26797127E+03</rscale>
<asrwt>0</asrwt>
<pdfrwt beam="1">  1       21 0.98534800E-01 0.26797127E+03</pdfrwt>
<pdfrwt beam="2">  1       21 0.23795538E-01 0.26797127E+03</pdfrwt>
<totfact> 0.13539411E+04</totfact>
</mgrwt>
</event>
<event>
 4    0  0.1173581E-001  0.3883872E+03  0.7546771E-02  0.1047877E+00
         21   -1    0    0  503  501  0.00000000000E+00  0.00000000000E+00  0.15031241601E+04  0.15031241601E+04  0.00000000000E+00 0.  1.
         21   -1    0    0  501  502 -0.00000000000E+00 -0.00000000000E+00 -0.97323893631E+02  0.97323893631E+02  0.00000000000E+00 0.  1.
         25    1    1    2    0    0 -0.34250226421E+03 -0.13383503731E+03  0.84298241347E+03  0.92815083237E+03  0.12500000000E+03 0.  0.
         21    1    1    2  503  502  0.34250226421E+03  0.13383503731E+03  0.56281785302E+03  0.67229722138E+03  0.00000000000E+00 0.  1.
<mgrwt>
<rscale>  3 0.38838720E+03</rscale>
<asrwt>0</asrwt>
<pdfrwt beam="1">  1       21 0.23124985E+00 0.38838720E+03</pdfrwt>
<pdfrwt beam="2">  1       21 0.14972908E-01 0.38838720E+03</pdfrwt>
<totfact> 0.29350006E+03</totfact>
</mgrwt>
</event>
<event>
 4    0  0.1389853E-001  0.2527126E+03  0.7546771E-02  0.1111602E+00
         21   -1    0    0  503  501  0.00000000000E+00  0.00000000000E+00  0.96435805133E+02  0.96435805133E+02  0.00000000000E+00 0.  1.
         21   -1    0    0  501  502 -0.00000000000E+00 -0.00000000000E+00 -0.61753040514E+03  0.61753040514E+03  0.00000000000E+00 0.  1.
         25    1    1    2    0    0 -0.21868155659E+03  0.20421552239E+02 -0.18797198186E+03  0.31495575714E+03  0.12500000000E+03 0.  0.
         21    1    1    2  503  502  0.21868155659E+03 -0.20421552239E+02 -0.33312261815E+03  0.39901045314E+03  0.00000000000E+00 0.  1.
<mgrwt>
<rscale>  3 0.25271261E+03</rscale>
<asrwt>0</asrwt>
<pdfrwt beam="1">  1       21 0.14836278E-01 0.25271261E+03</pdfrwt>
<pdfrwt beam="2">  1       21 0.95004678E-01 0.25271261E+03</pdfrwt>
<totfact> 0.35980559E+04</totfact>
</mgrwt>
</event>
<event>
 4    0  0.1211147E-001  0.2702141E+03  0.7546771E-02  0.1101157E+00
         21   -1    0    0  502  501  0.00000000000E+00  0.00000000000E+00  0.13229849360E+04  0.13229849360E+04  0.00000000000E+00 0.  1.
         21   -1    0    0  503  502 -0.00000000000E+00 -0.00000000000E+00 -0.49124411878E+02  0.49124411878E+02  0.00000000000E+00 0.  1.
         25    1    1    2    0    0  0.23955894936E+03 -0.14648042698E+01  0.68797911710E+03  0.73914200357E+03  0.12500000000E+03 0.  0.
         21    1    1    2  503  501 -0.23955894936E+03  0.14648042698E+01  0.58588140700E+03  0.63296734429E+03  0.00000000000E+00 0.  1.
<mgrwt>
<rscale>  3 0.27021406E+03</rscale>
<asrwt>0</asrwt>
<pdfrwt beam="1">  1       21 0.20353612E+00 0.27021406E+03</pdfrwt>
<pdfrwt beam="2">  1       21 0.75576028E-02 0.27021406E+03</pdfrwt>
<totfact> 0.16011231E+04</totfact>
</mgrwt>
</event>
<event>
 4    0  0.1246007E-001  0.2876905E+03  0.7546771E-02  0.1091561E+00
         21   -1    0    0  503  501  0.00000000000E+00  0.00000000000E+00  0.11697498293E+03  0.11697498293E+03  0.00000000000E+00 0.  1.
         21   -1    0    0  501  502 -0.00000000000E+00 -0.00000000000E+00 -0.64922756037E+03  0.64922756037E+03  0.00000000000E+00 0.  1.
         25    1    1    2    0    0  0.50261280513E+02  0.25419408107E+03 -0.32779047793E+03  0.43613349401E+03  0.12500000000E+03 0.  0.
         21    1    1    2  503  502 -0.50261280513E+02 -0.25419408107E+03 -0.20446209951E+03  0.33006904930E+03  0.00000000000E+00 0.  1.
<mgrwt>
<rscale>  3 0.28769051E+03</rscale>
<asrwt>0</asrwt>
<pdfrwt beam="1">  1       21 0.17996151E-01 0.28769051E+03</pdfrwt>
<pdfrwt beam="2">  1       21 0.99881164E-01 0.28769051E+03</pdfrwt>
<totfact> 0.22023376E+04</totfact>
</mgrwt>
</event>
<event>
 4    0  0.1448984E-001  0.2520774E+03  0.7546771E-02  0.1111999E+00
         21   -1    0    0  503  501  0.00000000000E+00  0.00000000000E+00  0.51871943930E+03  0.51871943930E+03  0.00000000000E+00 0. -1.
         21   -1    0    0  501  502 -0.00000000000E+00 -0.00000000000E+00 -0.10993095388E+03  0.10993095388E+03  0.00000000000E+00 0. -1.
         25    1    1    2    0    0  0.21492803681E+03 -0.41520245705E+02  0.27039223603E+03  0.36966870724E+03  0.12500000000E+03 0.  0.
         21    1    1    2  503  502 -0.21492803681E+03  0.41520245705E+02  0.13839624939E+03  0.25898168594E+03  0.00000000000E+00 0. -1.
<mgrwt>
<rscale>  3 0.25207735E+03</rscale>
<asrwt>0</asrwt>
<pdfrwt beam="1">  1       21 0.79802989E-01 0.25207735E+03</pdfrwt>
<pdfrwt beam="2">  1       21 0.16912455E-01 0.25207735E+03</pdfrwt>
<totfact> 0.42357236E+04</totfact>
</mgrwt>
</event>
<event>
 4    0  0.1348004E-001  0.3560992E+03  0.7546771E-02  0.1060139E+00
         21   -1    0    0  503  501  0.00000000000E+00  0.00000000000E+00  0.55805062774E+03  0.55805062774E+03  0.00000000000E+00 0.  1.
         21   -1    0    0  501  502 -0.00000000000E+00 -0.00000000000E+00 -0.21378645500E+03  0.21378645500E+03  0.00000000000E+00 0.  1.
         25    1    1    2    0    0  0.27702354799E+03  0.18557906560E+03  0.15440001054E+03  0.38813141974E+03  0.12500000000E+03 0.  0.
         21    1    1    2  503  502 -0.27702354799E+03 -0.18557906560E+03  0.18986416220E+03  0.38370566300E+03  0.00000000000E+00 0.  1.
<mgrwt>
<rscale>  3 0.35609919E+03</rscale>
<asrwt>0</asrwt>
<pdfrwt beam="1">  1       21 0.85853942E-01 0.35609919E+03</pdfrwt>
<pdfrwt beam="2">  1       21 0.32890224E-01 0.35609919E+03</pdfrwt>
<totfact> 0.95743982E+03</totfact>
</mgrwt>
</event>
<event>
 4    0  0.1382566E-001  0.2598511E+03  0.7546771E-02  0.1107233E+00
         21   -1    0    0  502  501  0.00000000000E+00  0.00000000000E+00  0.14799760430E+04  0.14799760430E+04  0.00000000000E+00 0. -1.
         21   -1    0    0  503  502 -0.00000000000E+00 -0.00000000000E+00 -0.44783043051E+02  0.44783043051E+02  0.00000000000E+00 0. -1.
         25    1    1    2    0    0  0.21740449218E+03 -0.68065121269E+02  0.10040512894E+04  0.10371314119E+04  0.12500000000E+03 0.  0.
         21    1    1    2  503  501 -0.21740449218E+03  0.68065121269E+02  0.43114171059E+03  0.48762767412E+03  0.00000000000E+00 0. -1.
<mgrwt>
<rscale>  3 0.25985106E+03</rscale>
<asrwt>0</asrwt>
<pdfrwt beam="1">  1       21 0.22768858E+00 0.25985106E+03</pdfrwt>
<pdfrwt beam="2">  1       21 0.68897001E-02 0.25985106E+03</pdfrwt>
<totfact> 0.13340952E+04</totfact>
</mgrwt>
</event>
<event>
 4    0  0.1175861E-001  0.2637847E+03  0.7546771E-02  0.1104890E+00
         21   -1    0    0  503  501  0.00000000000E+00  0.00000000000E+00  0.31944724973E+03  0.31944724973E+03  0.00000000000E+00 0.  1.
         21   -1    0    0  501  502 -0.00000000000E+00 -0.00000000000E+00 -0.21383782940E+03  0.21383782940E+03  0.00000000000E+00 0.  1.
         25    1    1    2    0    0 -0.12379840765E+02 -0.23195713649E+03 -0.28077325064E+02  0.26527478171E+03  0.12500000000E+03 0.  0.
         21    1    1    2  503  502  0.12379840765E+02  0.23195713649E+03  0.13368674540E+03  0.26801029742E+03  0.00000000000E+00 0.  1.
<mgrwt>
<rscale>  3 0.26378471E+03</rscale>
<asrwt>0</asrwt>
<pdfrwt beam="1">  1       21 0.49145731E-01 0.26378471E+03</pdfrwt>
<pdfrwt beam="2">  1       21 0.32898128E-01 0.26378471E+03</pdfrwt>
<totfact> 0.33968381E+04</totfact>
</mgrwt>
</event>
<event>
 4    0  0.1283114E-001  0.2520618E+03  0.7546771E-02  0.1112009E+00
         21   -1    0    0  502  501  0.00000000000E+00  0.00000000000E+00  0.64826857307E+03  0.64826857307E+03  0.00000000000E+00 0. -1.
         21   -1    0    0  503  502 -0.00000000000E+00 -0.00000000000E+00 -0.87519155396E+02  0.87519155396E+02  0.00000000000E+00 0. -1.
         25    1    1    2    0    0 -0.76689735497E+02  0.20500939760E+03  0.24437267031E+03  0.35107430927E+03  0.12500000000E+03 0.  0.
         21    1    1    2  503  501  0.76689735497E+02 -0.20500939760E+03  0.31637674737E+03  0.38471341920E+03  0.00000000000E+00 0. -1.
<mgrwt>
<rscale>  3 0.25206183E+03</rscale>
<asrwt>0</asrwt>
<pdfrwt beam="1">  1       21 0.99733623E-01 0.25206183E+03</pdfrwt>
<pdfrwt beam="2">  1       21 0.13464486E-01 0.25206183E+03</pdfrwt>
<totfact> 0.38281161E+04</totfact>
</mgrwt>
</event>
<event>
 4    0  0.1361751E-001  0.2391524E+03  0.7546771E-02  0.1120359E+00
         21   -1    0    0  503  501  0.00000000000E+00  0.00000000000E+00  0.26266943785E+03  0.26266943785E+03  0.00000000000E+00 0. -1.
         21   -1    0    0  501  502 -0.00000000000E+00 -0.00000000000E+00 -0.19279777158E+03  0.19279777158E+03  0.00000000000E+00 0. -1.
         25    1    1    2    0    0 -0.68094726569E+01  0.20377073003E+03 -0.23650980289E+01  0.23916411316E+03  0.12500000000E+03 0.  0.
         21    1    1    2  503  502  0.68094726569E+01 -0.20377073003E+03  0.72236764296E+02  0.21630309626E+03  0.00000000000E+00 0. -1.
<mgrwt>
<rscale>  3 0.23915242E+03</rscale>
<asrwt>0</asrwt>
<pdfrwt beam="1">  1       21 0.40410682E-01 0.23915242E+03</pdfrwt>
<pdfrwt beam="2">  1       21 0.29661196E-01 0.23915242E+03</pdfrwt>
<totfact> 0.63014852E+04</totfact>
</mgrwt>
</event>
<event>
 4    0  0.1003929E-001  0.2553927E+03  0.7546771E-02  0.1109943E+00
         21   -1    0    0  502  501  0.00000000000E+00  0.00000000000E+00  0.53883512850E+02  0.53883512850E+02  0.00000000000E+00 0.  1.
         21   -1    0    0  503  502 -0.00000000000E+00 -0.00000000000E+00 -0.21446715200E+04  0.21446715200E+04  0.00000000000E+00 0.  1.
         25    1    1    2    0    0 -0.20867745051E+02  0.22173175958E+03 -0.30006585126E+03  0.39403673824E+03  0.12500000000E+03 0.  0.
         21    1    1    2  503  501  0.20867745051E+02 -0.22173175958E+03 -0.17907221559E+04  0.18045182946E+04  0.00000000000E+00 0.  1.
<mgrwt>
<rscale>  3 0.25539271E+03</rscale>
<asrwt>0</asrwt>
<pdfrwt beam="1">  1       21 0.82897706E-02 0.25539271E+03</pdfrwt>
<pdfrwt beam="2">  1       21 0.32994949E+00 0.25539271E+03</pdfrwt>
<totfact> 0.24062849E+03</totfact>
</mgrwt>
</event>
<event>
 4    0  0.1003929E-001  0.2869377E+03  0.7546771E-02  0.1091959E+00
         21   -1    0    0  502  501  0.00000000000E+00  0.00000000000E+00  0.97287673046E+03  0.97287673046E+03  0.00000000000E+00 0.  1.
         21   -1    0    0  503  502 -0.00000000000E+00 -0.00000000000E+00 -0.42248271649E+03  0.42248271649E+03  0.00000000000E+00 0.  1.
         25    1    1    2    0    0  0.63876356432E+02  0.25025592487E+03  0.90912007941E+03  0.95332708743E+03  0.12500000000E+03 0.  0.
         21    1    1    2  503  501 -0.63876356432E+02 -0.25025592487E+03 -0.35872606543E+03  0.44203235952E+03  0.00000000000E+00 0.  1.
<mgrwt>
<rscale>  3 0.28693765E+03</rscale>
<asrwt>0</asrwt>
<pdfrwt beam="1">  1       21 0.14967334E+00 0.28693765E+03</pdfrwt>
<pdfrwt beam="2">  1       21 0.64997341E-01 0.28693765E+03</pdfrwt>
<totfact> 0.60104182E+02</totfact>
</mgrwt>
</event>
<event>
 4    0  0.1153299E-001  0.4659685E+03  0.7546771E-02  0.1023064E+00
         21   -1    0    0  503  501  0.00000000000E+00  0.00000000000E+00  0.15676702069E+04  0.15676702069E+04  0.00000000000E+00 0. -1.
         21   -1    0    0  501  502 -0.00000000000E+00 -0.00000000000E+00 -0.14522195683E+03  0.14522195683E+03  0.00000000000E+00 0. -1.
         25    1    1    2    0    0 -0.44821105428E+03  0.24666967493E+02  0.96699502854E+03  0.10734085866E+04  0.12500000000E+03 0.  0.
         21    1    1    2  503  502  0.44821105428E+03 -0.24666967493E+02  0.45545322150E+03  0.63948357714E+03  0.00000000000E+00 0. -1.
<mgrwt>
<rscale>  3 0.46596846E+03</rscale>
<asrwt>0</asrwt>
<pdfrwt beam="1">  1       21 0.24118002E+00 0.46596846E+03</pdfrwt>
<pdfrwt beam="2">  1       21 0.22341841E-01 0.46596846E+03</pdfrwt>
<totfact> 0.11524263E+03</totfact>
</mgrwt>
</event>
<event>
 4    0  0.1085353E-001  0.2480959E+03  0.7546771E-02  0.1114514E+00
         21   -1    0    0  502  501  0.00000000000E+00  0.00000000000E+00  0.35977210181E+03  0.35977210181E+03  0.00000000000E+00 0. -1.
         21   -1    0    0  503  502 -0.00000000000E+00 -0.00000000000E+00 -0.70190677404E+03  0.70190677404E+03  0.00000000000E+00 0. -1.
         25    1    1    2    0    0  0.18708494385E+03 -0.10452665471E+03  0.29733985368E+03  0.38725003079E+03  0.12500000000E+03 0.  0.
         21    1    1    2  503  501 -0.18708494385E+03  0.10452665471E+03 -0.63947452591E+03  0.67442884506E+03  0.00000000000E+00 0. -1.
<mgrwt>
<rscale>  3 0.24809594E+03</rscale>
<asrwt>0</asrwt>
<pdfrwt beam="1">  1       21 0.55349554E-01 0.24809594E+03</pdfrwt>
<pdfrwt beam="2">  1       21 0.10798566E+00 0.24809594E+03</pdfrwt>
<totfact> 0.20080158E+03</totfact>
</mgrwt>
</event>
<event>
 4    0  0.1286171E-001  0.2468562E+03  0.7546771E-02  0.1115308E+00
         21   -1    0    0  502  501  0.00000000000E+00  0.00000000000E+00  0.10485467086E+04  0.10485467086E+04  0.00000000000E+00 0. -1.
         21   -1    0    0  503  502 -0.00000000000E+00 -0.00000000000E+00 -0.62843833479E+02  0.62843833479E+02  0.00000000000E+00 0. -1.
         25    1    1    2    0    0 -0.75875403140E+02 -0.19888668180E+03  0.76889665773E+03  0.80755189261E+03  0.12500000000E+03 0.  0.
         21    1    1    2  503  501  0.75875403140E+02  0.19888668180E+03  0.21680621735E+03  0.30383864942E+03  0.00000000000E+00 0. -1.
<mgrwt>
<rscale>  3 0.24685621E+03</rscale>
<asrwt>0</asrwt>
<pdfrwt beam="1">  1       21 0.16131487E+00 0.24685621E+03</pdfrwt>
<pdfrwt beam="2">  1       21 0.96682829E-02 0.24685621E+03</pdfrwt>
<totfact> 0.20493102E+04</totfact>
</mgrwt>
</event>
<event>
 4    0  0.1458685E-001  0.2563049E+03  0.7546771E-02  0.1109384E+00
         21   -1    0    0  502  501  0.00000000000E+00  0.00000000000E+00  0.15087988761E+03  0.15087988761E+03  0.00000000000E+00 0. -1.
         21   -1    0    0  503  502 -0.00000000000E+00 -0.00000000000E+00 -0.38185973646E+03  0.38185973646E+03  0.00000000000E+00 0. -1.
         25    1    1    2    0    0 -0.15811805564E+03  0.15832205813E+03 -0.12296687910E+03  0.28427635668E+03  0.12500000000E+03 0.  0.
         21    1    1    2  503  501  0.15811805564E+03 -0.15832205813E+03 -0.10801296975E+03  0.24846326739E+03  0.00000000000E+00 0. -1.
<mgrwt>
<rscale>  3 0.25630488E+03</rscale>
<asrwt>0</asrwt>
<pdfrwt beam="1">  1       21 0.23212291E-01 0.25630488E+03</pdfrwt>
<pdfrwt beam="2">  1       21 0.58747651E-01 0.25630488E+03</pdfrwt>
<totfact> 0.45951353E+04</totfact>
</mgrwt>
</event>
<event>
 4    0  0.1578909E-001  0.2682274E+03  0.7546771E-02  0.1102298E+00
         21   -1    0    0  503  501  0.00000000000E+00  0.00000000000E+00  0.27158623379E+03  0.27158623379E+03  0.00000000000E+00 0. -1.
         21   -1    0    0  501  502 -0.00000000000E+00 -0.00000000000E+00 -0.23528738877E+03  0.23528738877E+03  0.00000000000E+00 0. -1.
         25    1    1    2    0    0 -0.23452829717E+03 -0.36295925653E+02  0.16764916768E+02  0.26875077456E+03  0.12500000000E+03 0.  0.
         21    1    1    2  503  502  0.23452829717E+03  0.36295925653E+02  0.19533928253E+02  0.23812284801E+03  0.00000000000E+00 0. -1.
<mgrwt>
<rscale>  3 0.26822736E+03</rscale>
<asrwt>0</asrwt>
<pdfrwt beam="1">  1       21 0.41782498E-01 0.26822736E+03</pdfrwt>
<pdfrwt beam="2">  1       21 0.36198060E-01 0.26822736E+03</pdfrwt>
<totfact> 0.39217287E+04</totfact>
</mgrwt>
</event>
<event>
 4    0  0.1320234E-001  0.2638634E+03  0.7546771E-02  0.1104844E+00
         21   -1    0    0  503  501  0.00000000000E+00  0.00000000000E+00  0.10578410626E+04  0.10578410626E+04  0.00000000000E+00 0. -1.
         21   -1    0    0  501  502 -0.00000000000E+00 -0.00000000000E+00 -0.58199514958E+02  0.58199514958E+02  0.00000000000E+00 0. -1.
         25    1    1    2    0    0  0.23211155219E+03 -0.11095705563E+02  0.52812696774E+03  0.59037444169E+03  0.12500000000E+03 0.  0.
         21    1    1    2  503  502 -0.23211155219E+03  0.11095705563E+02  0.47151457994E+03  0.52566613591E+03  0.00000000000E+00 0. -1.
<mgrwt>
<rscale>  3 0.26386339E+03</rscale>
<asrwt>0</asrwt>
<pdfrwt beam="1">  1       21 0.16274477E+00 0.26386339E+03</pdfrwt>
<pdfrwt beam="2">  1       21 0.89537723E-02 0.26386339E+03</pdfrwt>
<totfact> 0.22707021E+04</totfact>
</mgrwt>
</event>
<event>
 4    0  0.1410003E-001  0.2557375E+03  0.7546771E-02  0.1109732E+00
         21   -1    0    0  502  501  0.00000000000E+00  0.00000000000E+00  0.18123878418E+03  0.18123878418E+03  0.00000000000E+00 0.  1.
         21   -1    0    0  503  502 -0.00000000000E+00 -0.00000000000E+00 -0.38294626331E+03  0.38294626331E+03  0.00000000000E+00 0.  1.
         25    1    1    2    0    0  0.21420245928E+02 -0.22207617605E+03  0.10940155489E+02  0.25597136931E+03  0.12500000000E+03 0.  0.
         21    1    1    2  503  501 -0.21420245928E+02  0.22207617605E+03 -0.21264763462E+03  0.30821367818E+03  0.00000000000E+00 0.  1.
<mgrwt>
<rscale>  3 0.25573747E+03</rscale>
<asrwt>0</asrwt>
<pdfrwt beam="1">  1       21 0.27882890E-01 0.25573747E+03</pdfrwt>
<pdfrwt beam="2">  1       21 0.58914810E-01 0.25573747E+03</pdfrwt>
<totfact> 0.32092312E+04</totfact>
</mgrwt>
</event>
<event>
 4    0  0.1275376E-001  0.3070735E+03  0.7546771E-02  0.1081757E+00
         21   -1    0    0  502  501  0.00000000000E+00  0.00000000000E+00  0.39471385137E+03  0.39471385137E+03  0.00000000000E+00 0.  1.
         21   -1    0    0  503  502 -0.00000000000E+00 -0.00000000000E+00 -0.38061358270E+03  0.38061358270E+03  0.00000000000E+00 0.  1.
         25    1    1    2    0    0 -0.27178317833E+03  0.69304016937E+02  0.25996750266E+03  0.40233971371E+03  0.12500000000E+03 0.  0.
         21    1    1    2  503  501  0.27178317833E+03 -0.69304016937E+02 -0.24586723399E+03  0.37298772036E+03  0.00000000000E+00 0.  1.
<mgrwt>
<rscale>  3 0.30707351E+03</rscale>
<asrwt>0</asrwt>
<pdfrwt beam="1">  1       21 0.60725208E-01 0.30707351E+03</pdfrwt>
<pdfrwt beam="2">  1       21 0.58555935E-01 0.30707351E+03</pdfrwt>
<totfact> 0.64376069E+03</totfact>
</mgrwt>
</event>
<event>
 4    0  0.1003929E-001  0.3749958E+03  0.7546771E-02  0.1052799E+00
         21   -1    0    0  502  501  0.00000000000E+00  0.00000000000E+00  0.94465010604E+03  0.94465010604E+03  0.00000000000E+00 0.  1.
         21   -1    0    0  503  502 -0.00000000000E+00 -0.00000000000E+00 -0.66478814308E+03  0.66478814308E+03  0.00000000000E+00 0.  1.
         25    1    1    2    0    0  0.23082484296E+03  0.26779974773E+03  0.85539752222E+03  0.93398433287E+03  0.12500000000E+03 0.  0.
         21    1    1    2  503  501 -0.23082484296E+03 -0.26779974773E+03 -0.57553555926E+03  0.67545391626E+03  0.00000000000E+00 0.  1.
<mgrwt>
<rscale>  3 0.37499575E+03</rscale>
<asrwt>0</asrwt>
<pdfrwt beam="1">  1       21 0.14533079E+00 0.37499575E+03</pdfrwt>
<pdfrwt beam="2">  1       21 0.10227510E+00 0.37499575E+03</pdfrwt>
<totfact> 0.21542276E+02</totfact>
</mgrwt>
</event>
<event>
 4    0  0.1172121E-001  0.3028805E+03  0.7546771E-02  0.1083809E+00
         21   -1    0    0  502  501  0.00000000000E+00  0.00000000000E+00  0.68641352173E+03  0.68641352173E+03  0.00000000000E+00 0.  1.
         21   -1    0    0  503  502 -0.00000000000E+00 -0.00000000000E+00 -0.23890459948E+03  0.23890459948E+03  0.00000000000E+00 0.  1.
         25    1    1    2    0    0 -0.27580921570E+03 -0.63914544868E+01  0.55254752484E+03  0.63011533973E+03  0.12500000000E+03 0.  0.
         21    1    1    2  503  501  0.27580921570E+03  0.63914544868E+01 -0.10503860259E+03  0.29520278147E+03  0.00000000000E+00 0.  1.
<mgrwt>
<rscale>  3 0.30288046E+03</rscale>
<asrwt>0</asrwt>
<pdfrwt beam="1">  1       21 0.10560208E+00 0.30288046E+03</pdfrwt>
<pdfrwt beam="2">  1       21 0.36754554E-01 0.30288046E+03</pdfrwt>
<totfact> 0.47906836E+03</totfact>
</mgrwt>
</event>
<event>
 4    0  0.1455362E-001  0.2477785E+03  0.7546771E-02  0.1114717E+00
         21   -1    0    0  503  501  0.00000000000E+00  0.00000000000E+00  0.10633753125E+03  0.10633753125E+03  0.00000000000E+00 0. -1.
         21   -1    0    0  501  502 -0.00000000000E+00 -0.00000000000E+00 -0.55295380478E+03  0.55295380478E+03  0.00000000000E+00 0. -1.
         25    1    1    2    0    0  0.21381238811E+03 -0.73093162298E+01 -0.13753017711E+03  0.28338791969E+03  0.12500000000E+03 0.  0.
         21    1    1    2  503  502 -0.21381238811E+03  0.73093162298E+01 -0.30908609642E+03  0.37590341634E+03  0.00000000000E+00 0. -1.
<mgrwt>
<rscale>  3 0.24777846E+03</rscale>
<asrwt>0</asrwt>
<pdfrwt beam="1">  1       21 0.16359620E-01 0.24777846E+03</pdfrwt>
<pdfrwt beam="2">  1       21 0.85069817E-01 0.24777846E+03</pdfrwt>
<totfact> 0.38979008E+04</totfact>
</mgrwt>
</event>
<event>
 4    0  0.1152841E-001  0.3509215E+03  0.7546771E-02  0.1062237E+00
         21   -1    0    0  503  501  0.00000000000E+00  0.00000000000E+00  0.13332385899E+04  0.13332385899E+04  0.00000000000E+00 0. -1.
         21   -1    0    0  501  502 -0.00000000000E+00 -0.00000000000E+00 -0.99431354095E+02  0.99431354095E+02  0.00000000000E+00 0. -1.
         25    1    1    2    0    0 -0.84120242221E+01 -0.32779586761E+03  0.89421185937E+03  0.96060436310E+03  0.12500000000E+03 0.  0.
         21    1    1    2  503  502  0.84120242221E+01  0.32779586761E+03  0.33959537645E+03  0.47206558090E+03  0.00000000000E+00 0. -1.
<mgrwt>
<rscale>  3 0.35092149E+03</rscale>
<asrwt>0</asrwt>
<pdfrwt beam="1">  1       21 0.20511362E+00 0.35092149E+03</pdfrwt>
<pdfrwt beam="2">  1       21 0.15297132E-01 0.35092149E+03</pdfrwt>
<totfact> 0.42182952E+03</totfact>
</mgrwt>
</event>
<event>
 4    0  0.1344160E-001  0.2702428E+03  0.7546771E-02  0.1101141E+00
         21   -1    0    0  503  501  0.00000000000E+00  0.00000000000E+00  0.11821317355E+03  0.11821317355E+03  0.00000000000E+00 0. -1.
         21   -1    0    0  501  502 -0.00000000000E+00 -0.00000000000E+00 -0.56645358790E+03  0.56645358790E+03  0.00000000000E+00 0. -1.
         25    1    1    2    0    0  0.19123257083E+03 -0.14434782219E+03 -0.29593345929E+03  0.40075903264E+03  0.12500000000E+03 0.  0.
         21    1    1    2  503  502 -0.19123257083E+03  0.14434782219E+03 -0.15230695506E+03  0.28390772881E+03  0.00000000000E+00 0. -1.
<mgrwt>
<rscale>  3 0.27024284E+03</rscale>
<asrwt>0</asrwt>
<pdfrwt beam="1">  1       21 0.18186642E-01 0.27024284E+03</pdfrwt>
<pdfrwt beam="2">  1       21 0.87146705E-01 0.27024284E+03</pdfrwt>
<totfact> 0.30003419E+04</totfact>
</mgrwt>
</event>
<event>
 4    0  0.1503295E-001  0.3006107E+03  0.7546771E-02  0.1084936E+00
         21   -1    0    0  503  501  0.00000000000E+00  0.00000000000E+00  0.47920989295E+03  0.47920989295E+03  0.00000000000E+00 0.  1.
         21   -1    0    0  501  502 -0.00000000000E+00 -0.00000000000E+00 -0.17259454074E+03  0.17259454074E+03  0.00000000000E+00 0.  1.
         25    1    1    2    0    0  0.98789041361E+02  0.25491665562E+03  0.18141971316E+03  0.35111235855E+03  0.12500000000E+03 0.  0.
         21    1    1    2  503  502 -0.98789041361E+02 -0.25491665562E+03  0.12519563905E+03  0.30069207513E+03  0.00000000000E+00 0.  1.
<mgrwt>
<rscale>  3 0.30061067E+03</rscale>
<asrwt>0</asrwt>
<pdfrwt beam="1">  1       21 0.73724599E-01 0.30061067E+03</pdfrwt>
<pdfrwt beam="2">  1       21 0.26553006E-01 0.30061067E+03</pdfrwt>
<totfact> 0.21141112E+04</totfact>
</mgrwt>
</event>
<event>
 4    0  0.1003929E-001  0.2650793E+03  0.7546771E-02  0.1104129E+00
         21   -1    0    0  503  501  0.00000000000E+00  0.00000000000E+00  0.53385568751E+03  0.53385568751E+03  0.00000000000E+00 0.  1.
         21   -1    0    0  501  502 -0.00000000000E+00 -0.00000000000E+00 -0.10563993528E+04  0.10563993528E+04  0.00000000000E+00 0.  1.
         25    1    1    2    0    0 -0.18879022155E+03  0.13784155803E+03  0.48674779909E+03  0.55424765475E+03  0.12500000000E+03 0.  0.
         21    1    1    2  503  502  0.18879022155E+03 -0.13784155803E+03 -0.10092914644E+04  0.10360073856E+04  0.00000000000E+00 0.  1.
<mgrwt>
<rscale>  3 0.26507931E+03</rscale>
<asrwt>0</asrwt>
<pdfrwt beam="1">  1       21 0.82131645E-01 0.26507931E+03</pdfrwt>
<pdfrwt beam="2">  1       21 0.16252298E+00 0.26507931E+03</pdfrwt>
<totfact> 0.28962682E+02</totfact>
</mgrwt>
</event>
<event>
 4    0  0.1003929E-001  0.2958267E+03  0.7546771E-02  0.1087346E+00
         21   -1    0    0  503  501  0.00000000000E+00  0.00000000000E+00  0.22291650079E+04  0.22291650079E+04  0.00000000000E+00 0. -1.
         21   -1    0    0  501  502 -0.00000000000E+00 -0.00000000000E+00 -0.10768054560E+03  0.10768054560E+03  0.00000000000E+00 0. -1.
         25    1    1    2    0    0 -0.43773115728E+02  0.26452286246E+03  0.20331351740E+04  0.20545442478E+04  0.12500000000E+03 0.  0.
         21    1    1    2  503  502  0.43773115728E+02 -0.26452286246E+03  0.88349288212E+02  0.28230130561E+03  0.00000000000E+00 0. -1.
<mgrwt>
<rscale>  3 0.29582669E+03</rscale>
<asrwt>0</asrwt>
<pdfrwt beam="1">  1       21 0.34294843E+00 0.29582669E+03</pdfrwt>
<pdfrwt beam="2">  1       21 0.16566239E-01 0.29582669E+03</pdfrwt>
<totfact> 0.55595424E+02</totfact>
</mgrwt>
</event>
<event>
 4    0  0.1439947E-001  0.2382625E+03  0.7546771E-02  0.1120956E+00
         21   -1    0    0  502  501  0.00000000000E+00  0.00000000000E+00  0.67022279875E+02  0.67022279875E+02  0.00000000000E+00 0. -1.
         21   -1    0    0  503  502 -0.00000000000E+00 -0.00000000000E+00 -0.93575881780E+03  0.93575881780E+03  0.00000000000E+00 0. -1.
         25    1    1    2    0    0 -0.10868747986E+03 -0.17126306090E+03 -0.22450200887E+03  0.32736853284E+03  0.12500000000E+03 0.  0.
         21    1    1    2  503  501  0.10868747986E+03  0.17126306090E+03 -0.64423452906E+03  0.67541256484E+03  0.00000000000E+00 0. -1.
<mgrwt>
<rscale>  3 0.23826247E+03</rscale>
<asrwt>0</asrwt>
<pdfrwt beam="1">  1       21 0.10311121E-01 0.23826247E+03</pdfrwt>
<pdfrwt beam="2">  1       21 0.14396288E+00 0.23826247E+03</pdfrwt>
<totfact> 0.24896154E+04</totfact>
</mgrwt>
</event>
<event>
 4    0  0.1028065E-001  0.3682711E+03  0.7546771E-02  0.1055356E+00
         21   -1    0    0  502  501  0.00000000000E+00  0.00000000000E+00  0.15502459195E+03  0.15502459195E+03  0.00000000000E+00 0.  1.
         21   -1    0    0  503  502 -0.00000000000E+00 -0.00000000000E+00 -0.10594171451E+04  0.10594171451E+04  0.00000000000E+00 0. -1.
         25    1    1    2    0    0 -0.34393995612E+03  0.41278501901E+02 -0.17662372879E+03  0.40843549026E+03  0.12500000000E+03 0.  0.
         21    1    1    2  503  501  0.34393995612E+03 -0.41278501901E+02 -0.72776882432E+03  0.80600624674E+03  0.00000000000E+00 0. -1.
<mgrwt>
<rscale>  3 0.36827111E+03</rscale>
<asrwt>0</asrwt>
<pdfrwt beam="1">  1       21 0.23849938E-01 0.36827111E+03</pdfrwt>
<pdfrwt beam="2">  1       21 0.16298725E+00 0.36827111E+03</pdfrwt>
<totfact> 0.35406677E+03</totfact>
</mgrwt>
</event>
<event>
 4    0  0.1003929E-001  0.2423634E+03  0.7546771E-02  0.1118228E+00
         21   -1    0    0  503  501  0.00000000000E+00  0.00000000000E+00  0.17197095430E+04  0.17197095430E+04  0.00000000000E+00 0. -1.
         21   -1    0    0  501  502 -0.00000000000E+00 -0.00000000000E+00 -0.55810752929E+02  0.55810752929E+02  0.00000000000E+00 0. -1.
         25    1    1    2    0    0  0.17820993154E+03 -0.10656569836E+03  0.14751007056E+04  0.14948786303E+04  0.12500000000E+03 0.  0.
         21    1    1    2  503  502 -0.17820993154E+03  0.10656569836E+03  0.18879808447E+03  0.28064166559E+03  0.00000000000E+00 0. -1.
<mgrwt>
<rscale>  3 0.24236342E+03</rscale>
<asrwt>0</asrwt>
<pdfrwt beam="1">  1       21 0.26457066E+00 0.24236342E+03</pdfrwt>
<pdfrwt beam="2">  1       21 0.85862710E-02 0.24236342E+03</pdfrwt>
<totfact> 0.55281006E+03</totfact>
</mgrwt>
</event>
<event>
 4    0  0.1321399E-001  0.3804199E+03  0.7546771E-02  0.1050779E+00
         21   -1    0    0  502  501  0.00000000000E+00  0.00000000000E+00  0.31443917329E+03  0.31443917329E+03  0.00000000000E+00 0.  1.
         21   -1    0    0  503  502 -0.00000000000E+00 -0.00000000000E+00 -0.90437619764E+03  0.90437619764E+03  0.00000000000E+00 0. -1.
         25    1    1    2    0    0  0.26689895762E+03 -0.24053949373E+03  0.13990211118E+03  0.40532937512E+03  0.12500000000E+03 0.  0.
         21    1    1    2  503  501 -0.26689895762E+03  0.24053949373E+03 -0.72983913553E+03  0.81348599581E+03  0.00000000000E+00 0. -1.
<mgrwt>
<rscale>  3 0.38041990E+03</rscale>
<asrwt>0</asrwt>
<pdfrwt beam="1">  1       21 0.48375258E-01 0.38041990E+03</pdfrwt>
<pdfrwt beam="2">  1       21 0.13913480E+00 0.38041990E+03</pdfrwt>
<totfact> 0.13021139E+03</totfact>
</mgrwt>
</event>
<event>
 4    0  0.1003929E-001  0.2560151E+03  0.7546771E-02  0.1109561E+00
         21   -1    0    0  502  501  0.00000000000E+00  0.00000000000E+00  0.19674667407E+04  0.19674667407E+04  0.00000000000E+00 0. -1.
         21   -1    0    0  503  502 -0.00000000000E+00 -0.00000000000E+00 -0.30169568721E+02  0.30169568721E+02  0.00000000000E+00 0. -1.
         25    1    1    2    0    0 -0.15241153390E+03  0.16336911485E+03  0.85447417021E+03  0.89200327965E+03  0.12500000000E+03 0.  0.
         21    1    1    2  503  501  0.15241153390E+03 -0.16336911485E+03  0.10828230018E+04  0.11056330298E+04  0.00000000000E+00 0. -1.
<mgrwt>
<rscale>  3 0.25601512E+03</rscale>
<asrwt>0</asrwt>
<pdfrwt beam="1">  1       21 0.30268709E+00 0.25601512E+03</pdfrwt>
<pdfrwt beam="2">  1       21 0.46414737E-02 0.25601512E+03</pdfrwt>
<totfact> 0.94623425E+03</totfact>
</mgrwt>
</event>
<event>
 4    0  0.1359576E-001  0.2392750E+03  0.7546771E-02  0.1120277E+00
         21   -1    0    0  503  501  0.00000000000E+00  0.00000000000E+00  0.13087531803E+03  0.13087531803E+03  0.00000000000E+00 0.  1.
         21   -1    0    0  501  502 -0.00000000000E+00 -0.00000000000E+00 -0.50221330217E+03  0.50221330217E+03  0.00000000000E+00 0.  1.
         25    1    1    2    0    0  0.13538042527E+03  0.15264233774E+03 -0.38010013660E+02  0.24227526484E+03  0.12500000000E+03 0.  0.
         21    1    1    2  503  502 -0.13538042527E+03 -0.15264233774E+03 -0.33332797048E+03  0.39081335535E+03  0.00000000000E+00 0.  1.
<mgrwt>
<rscale>  3 0.23927504E+03</rscale>
<asrwt>0</asrwt>
<pdfrwt beam="1">  1       21 0.20134664E-01 0.23927504E+03</pdfrwt>
<pdfrwt beam="2">  1       21 0.77263584E-01 0.23927504E+03</pdfrwt>
<totfact> 0.33112886E+04</totfact>
</mgrwt>
</event>
<event>
 4    0  0.1121740E-001  0.2441065E+03  0.7546771E-02  0.1117087E+00
         21   -1    0    0  502  501  0.00000000000E+00  0.00000000000E+00  0.87758273540E+03  0.87758273540E+03  0.00000000000E+00 0.  1.
         21   -1    0    0  503  502 -0.00000000000E+00 -0.00000000000E+00 -0.58749210888E+02  0.58749210888E+02  0.00000000000E+00 0.  1.
         25    1    1    2    0    0  0.59012445406E+02 -0.20119770526E+03  0.42225400408E+03  0.48773602417E+03  0.12500000000E+03 0.  0.
         21    1    1    2  503  501 -0.59012445406E+02  0.20119770526E+03  0.39657952043E+03  0.44859592212E+03  0.00000000000E+00 0.  1.
<mgrwt>
<rscale>  3 0.24410650E+03</rscale>
<asrwt>0</asrwt>
<pdfrwt beam="1">  1       21 0.13501272E+00 0.24410650E+03</pdfrwt>
<pdfrwt beam="2">  1       21 0.90383408E-02 0.24410650E+03</pdfrwt>
<totfact> 0.37040997E+04</totfact>
</mgrwt>
</event>
<event>
 4    0  0.1386259E-001  0.2996018E+03  0.7546771E-02  0.1085440E+00
         21   -1    0    0  503  501  0.00000000000E+00  0.00000000000E+00  0.83408324299E+02  0.83408324299E+02  0.00000000000E+00 0. -1.
         21   -1    0    0  501  502 -0.00000000000E+00 -0.00000000000E+00 -0.99410041422E+03  0.99410041422E+03  0.00000000000E+00 0. -1.
         25    1    1    2    0    0  0.14625517912E+03 -0.22966423019E+03 -0.54028851781E+03  0.61779682625E+03  0.12500000000E+03 0.  0.
         21    1    1    2  503  502 -0.14625517912E+03  0.22966423019E+03 -0.37040357211E+03  0.45971191227E+03  0.00000000000E+00 0. -1.
<mgrwt>
<rscale>  3 0.29960180E+03</rscale>
<asrwt>0</asrwt>
<pdfrwt beam="1">  1       21 0.12832050E-01 0.29960180E+03</pdfrwt>
<pdfrwt beam="2">  1       21 0.15293853E+00 0.29960180E+03</pdfrwt>
<totfact> 0.13872682E+04</totfact>
</mgrwt>
</event>
<event>
 4    0  0.1003929E-001  0.4167767E+03  0.7546771E-02  0.1038121E+00
         21   -1    0    0  503  501  0.00000000000E+00  0.00000000000E+00  0.16343004489E+04  0.16343004489E+04  0.00000000000E+00 0.  1.
         21   -1    0    0  501  502 -0.00000000000E+00 -0.00000000000E+00 -0.12702718857E+03  0.12702718857E+03  0.00000000000E+00 0.  1.
         25    1    1    2    0    0  0.36745004819E+03 -0.15184956421E+03  0.11629104702E+04  0.12353394633E+04  0.12500000000E+03 0.  0.
         21    1    1    2  503  502 -0.36745004819E+03  0.15184956421E+03  0.34436279012E+03  0.52598817410E+03  0.00000000000E+00 0.  1.
<mgrwt>
<rscale>  3 0.41677671E+03</rscale>
<asrwt>0</asrwt>
<pdfrwt beam="1">  1       21 0.25143082E+00 0.41677671E+03</pdfrwt>
<pdfrwt beam="2">  1       21 0.19542646E-01 0.41677671E+03</pdfrwt>
<totfact> 0.13186125E+03</totfact>
</mgrwt>
</event>
<event>
 4    0  0.1377796E-001  0.3118522E+03  0.7546771E-02  0.1079461E+00
         21   -1    0    0  502  501  0.00000000000E+00  0.00000000000E+00  0.15626964333E+03  0.15626964333E+03  0.00000000000E+00 0.  1.
         21   -1    0    0  503  502 -0.00000000000E+00 -0.00000000000E+00 -0.65054835833E+03  0.65054835833E+03  0.00000000000E+00 0.  1.
         25    1    1    2    0    0  0.25870490774E+03  0.12123752094E+03 -0.11590614454E+03  0.33269505575E+03  0.12500000000E+03 0.  0.
         21    1    1    2  503  501 -0.25870490774E+03 -0.12123752094E+03 -0.37837257045E+03  0.47412294592E+03  0.00000000000E+00 0.  1.
<mgrwt>
<rscale>  3 0.31185215E+03</rscale>
<asrwt>0</asrwt>
<pdfrwt beam="1">  1       21 0.24041484E-01 0.31185215E+03</pdfrwt>
<pdfrwt beam="2">  1       21 0.10008436E+00 0.31185215E+03</pdfrwt>
<totfact> 0.12533031E+04</totfact>
</mgrwt>
</event>
<event>
 4    0  0.1173291E-001  0.3740390E+03  0.7546771E-02  0.1053159E+00
         21   -1    0    0  503  501  0.00000000000E+00  0.00000000000E+00  0.17821359252E+04  0.17821359252E+04  0.00000000000E+00 0.  1.
         21   -1    0    0  501  502 -0.00000000000E+00 -0.00000000000E+00 -0.20041535875E+03  0.20041535875E+03  0.00000000000E+00 0. -1.
         25    1    1    2    0    0  0.27586518761E+03  0.21949613887E+03  0.15864886929E+04  0.16299851316E+04  0.12500000000E+03 0.  0.
         21    1    1    2  503  502 -0.27586518761E+03 -0.21949613887E+03 -0.47681264548E+01  0.35256615230E+03  0.00000000000E+00 0. -1.
<mgrwt>
<rscale>  3 0.37403898E+03</rscale>
<asrwt>0</asrwt>
<pdfrwt beam="1">  1       21 0.27417475E+00 0.37403898E+03</pdfrwt>
<pdfrwt beam="2">  1       21 0.30833133E-01 0.37403898E+03</pdfrwt>
<totfact> 0.40745020E+02</totfact>
</mgrwt>
</event>
<event>
 4    0  0.1140892E-001  0.3246115E+03  0.7546771E-02  0.1073546E+00
         21   -1    0    0  503  501  0.00000000000E+00  0.00000000000E+00  0.15998699847E+04  0.15998699847E+04  0.00000000000E+00 0. -1.
         21   -1    0    0  501  502 -0.00000000000E+00 -0.00000000000E+00 -0.70269940615E+02  0.70269940615E+02  0.00000000000E+00 0. -1.
         25    1    1    2    0    0  0.33619844146E+02 -0.29768661899E+03  0.10963864915E+04  0.11434316577E+04  0.12500000000E+03 0.  0.
         21    1    1    2  503  502 -0.33619844146E+02  0.29768661899E+03  0.43321355256E+03  0.52670826761E+03  0.00000000000E+00 0. -1.
<mgrwt>
<rscale>  3 0.32461149E+03</rscale>
<asrwt>0</asrwt>
<pdfrwt beam="1">  1       21 0.24613382E+00 0.32461149E+03</pdfrwt>
<pdfrwt beam="2">  1       21 0.10810761E-01 0.32461149E+03</pdfrwt>
<totfact> 0.44589565E+03</totfact>
</mgrwt>
</event>
<event>
 4    0  0.1341498E-001  0.3750186E+03  0.7546771E-02  0.1052790E+00
         21   -1    0    0  503  501  0.00000000000E+00  0.00000000000E+00  0.47402465747E+03  0.47402465747E+03  0.00000000000E+00 0. -1.
         21   -1    0    0  501  502 -0.00000000000E+00 -0.00000000000E+00 -0.37395058204E+03  0.37395058204E+03  0.00000000000E+00 0. -1.
         25    1    1    2    0    0  0.26184071898E+03  0.23759919751E+03  0.26362561840E+03  0.45840746880E+03  0.12500000000E+03 0.  0.
         21    1    1    2  503  502 -0.26184071898E+03 -0.23759919751E+03 -0.16355154297E+03  0.38956777072E+03  0.00000000000E+00 0. -1.
<mgrwt>
<rscale>  3 0.37501859E+03</rscale>
<asrwt>0</asrwt>
<pdfrwt beam="1">  1       21 0.72926871E-01 0.37501859E+03</pdfrwt>
<pdfrwt beam="2">  1       21 0.57530859E-01 0.37501859E+03</pdfrwt>
<totfact> 0.43257809E+03</totfact>
</mgrwt>
</event>
<event>
 4    0  0.1003929E-001  0.3054729E+03  0.7546771E-02  0.1082536E+00
         21   -1    0    0  503  501  0.00000000000E+00  0.00000000000E+00  0.57807024320E+03  0.57807024320E+03  0.00000000000E+00 0.  1.
         21   -1    0    0  501  502 -0.00000000000E+00 -0.00000000000E+00 -0.60250073317E+03  0.60250073317E+03  0.00000000000E+00 0.  1.
         25    1    1    2    0    0  0.52774214836E+02  0.27368522611E+03  0.50042737162E+03  0.58629452923E+03  0.12500000000E+03 0.  0.
         21    1    1    2  503  502 -0.52774214836E+02 -0.27368522611E+03 -0.52485786159E+03  0.59427644713E+03  0.00000000000E+00 0.  1.
<mgrwt>
<rscale>  3 0.30547295E+03</rscale>
<asrwt>0</asrwt>
<pdfrwt beam="1">  1       21 0.88933884E-01 0.30547295E+03</pdfrwt>
<pdfrwt beam="2">  1       21 0.92692421E-01 0.30547295E+03</pdfrwt>
<totfact> 0.96785040E+02</totfact>
</mgrwt>
</event>
<event>
 4    0  0.1176478E-001  0.2880705E+03  0.7546771E-02  0.1091361E+00
         21   -1    0    0  502  501  0.00000000000E+00  0.00000000000E+00  0.70792057204E+03  0.70792057204E+03  0.00000000000E+00 0. -1.
         21   -1    0    0  503  502 -0.00000000000E+00 -0.00000000000E+00 -0.12138472406E+03  0.12138472406E+03  0.00000000000E+00 0. -1.
         25    1    1    2    0    0 -0.25339215545E+03  0.56142773472E+02  0.15867359231E+03  0.32887977188E+03  0.12500000000E+03 0.  0.
         21    1    1    2  503  501  0.25339215545E+03 -0.56142773472E+02  0.42786225568E+03  0.50042552422E+03  0.00000000000E+00 0. -1.
<mgrwt>
<rscale>  3 0.28807047E+03</rscale>
<asrwt>0</asrwt>
<pdfrwt beam="1">  1       21 0.10891085E+00 0.28807047E+03</pdfrwt>
<pdfrwt beam="2">  1       21 0.18674573E-01 0.28807047E+03</pdfrwt>
<totfact> 0.16655594E+04</totfact>
</mgrwt>
</event>
<event>
 4    0  0.1003929E-001  0.2504343E+03  0.7546771E-02  0.1113031E+00
         21   -1    0    0  503  501  0.00000000000E+00  0.00000000000E+00  0.20716945652E+04  0.20716945652E+04  0.00000000000E+00 0.  1.
         21   -1    0    0  501  502 -0.00000000000E+00 -0.00000000000E+00 -0.31167447260E+02  0.31167447260E+02  0.00000000000E+00 0.  1.
         25    1    1    2    0    0 -0.79083109911E+02 -0.20208466845E+03  0.67026389247E+03  0.71552151403E+03  0.12500000000E+03 0.  0.
         21    1    1    2  503  502  0.79083109911E+02  0.20208466845E+03  0.13702632254E+04  0.13873404984E+04  0.00000000000E+00 0.  1.
<mgrwt>
<rscale>  3 0.25043433E+03</rscale>
<asrwt>0</asrwt>
<pdfrwt beam="1">  1       21 0.31872213E+00 0.25043433E+03</pdfrwt>
<pdfrwt beam="2">  1       21 0.47949935E-02 0.25043433E+03</pdfrwt>
<totfact> 0.72468287E+03</totfact>
</mgrwt>
</event>
<event>
 4    0  0.1325987E-001  0.2848821E+03  0.7546771E-02  0.1093052E+00
         21   -1    0    0  503  501  0.00000000000E+00  0.00000000000E+00  0.73276960076E+03  0.73276960076E+03  0.00000000000E+00 0.  1.
         21   -1    0    0  501  502 -0.00000000000E+00 -0.00000000000E+00 -0.11486875903E+03  0.11486875903E+03  0.00000000000E+00 0.  1.
         25    1    1    2    0    0 -0.88741555402E+02 -0.24012031635E+03  0.47655762417E+03  0.55521617334E+03  0.12500000000E+03 0.  0.
         21    1    1    2  503  502  0.88741555402E+02  0.24012031635E+03  0.14134321755E+03  0.29242218645E+03  0.00000000000E+00 0.  1.
<mgrwt>
<rscale>  3 0.28488213E+03</rscale>
<asrwt>0</asrwt>
<pdfrwt beam="1">  1       21 0.11273378E+00 0.28488213E+03</pdfrwt>
<pdfrwt beam="2">  1       21 0.17672117E-01 0.28488213E+03</pdfrwt>
<totfact> 0.16989380E+04</totfact>
</mgrwt>
</event>
<event>
 4    0  0.1081397E-001  0.2565463E+03  0.7546771E-02  0.1109236E+00
         21   -1    0    0  503  501  0.00000000000E+00  0.00000000000E+00  0.53931976683E+03  0.53931976683E+03  0.00000000000E+00 0. -1.
         21   -1    0    0  501  502 -0.00000000000E+00 -0.00000000000E+00 -0.64335615358E+03  0.64335615358E+03  0.00000000000E+00 0. -1.
         25    1    1    2    0    0  0.19568305108E+03 -0.10908325309E+03  0.48708966052E+03  0.55052007227E+03  0.12500000000E+03 0.  0.
         21    1    1    2  503  502 -0.19568305108E+03  0.10908325309E+03 -0.59112604726E+03  0.63215584814E+03  0.00000000000E+00 0. -1.
<mgrwt>
<rscale>  3 0.25654632E+03</rscale>
<asrwt>0</asrwt>
<pdfrwt beam="1">  1       21 0.82972272E-01 0.25654632E+03</pdfrwt>
<pdfrwt beam="2">  1       21 0.98977870E-01 0.25654632E+03</pdfrwt>
<totfact> 0.10065380E+03</totfact>
</mgrwt>
</event>
<event>
 4    0  0.1169199E-001  0.2377018E+03  0.7546771E-02  0.1121333E+00
         21   -1    0    0  503  501  0.00000000000E+00  0.00000000000E+00  0.16105272694E+04  0.16105272694E+04  0.00000000000E+00 0. -1.
         21   -1    0    0  501  502 -0.00000000000E+00 -0.00000000000E+00 -0.35983741848E+02  0.35983741848E+02  0.00000000000E+00 0. -1.
         25    1    1    2    0    0  0.20154759669E+03 -0.15990318612E+02  0.11741194385E+04  0.11979393056E+04  0.12500000000E+03 0.  0.
         21    1    1    2  503  502 -0.20154759669E+03  0.15990318612E+02  0.40042408905E+03  0.44857170565E+03  0.00000000000E+00 0. -1.
<mgrwt>
<rscale>  3 0.23770175E+03</rscale>
<asrwt>0</asrwt>
<pdfrwt beam="1">  1       21 0.24777337E+00 0.23770175E+03</pdfrwt>
<pdfrwt beam="2">  1       21 0.55359615E-02 0.23770175E+03</pdfrwt>
<totfact> 0.14934424E+04</totfact>
</mgrwt>
</event>
<event>
 4    0  0.1003929E-001  0.3085425E+03  0.7546771E-02  0.1081047E+00
         21   -1    0    0  502  501  0.00000000000E+00  0.00000000000E+00  0.10196480674E+04  0.10196480674E+04  0.00000000000E+00 0. -1.
         21   -1    0    0  503  502 -0.00000000000E+00 -0.00000000000E+00 -0.88496339147E+02  0.88496339147E+02  0.00000000000E+00 0.  1.
         25    1    1    2    0    0  0.27612456333E+03 -0.57694716335E+02  0.58706500624E+03  0.66320718959E+03  0.12500000000E+03 0.  0.
         21    1    1    2  503  501 -0.27612456333E+03  0.57694716335E+02  0.34408672198E+03  0.44493721693E+03  0.00000000000E+00 0.  1.
<mgrwt>
<rscale>  3 0.30854247E+03</rscale>
<asrwt>0</asrwt>
<pdfrwt beam="1">  1       21 0.15686893E+00 0.30854247E+03</pdfrwt>
<pdfrwt beam="2">  1       21 0.13614822E-01 0.30854247E+03</pdfrwt>
<totfact> 0.11577403E+04</totfact>
</mgrwt>
</event>
<event>
 4    0  0.1308271E-001  0.2361926E+03  0.7546771E-02  0.1122356E+00
         21   -1    0    0  502  501  0.00000000000E+00  0.00000000000E+00  0.17063905396E+03  0.17063905396E+03  0.00000000000E+00 0.  1.
         21   -1    0    0  503  502 -0.00000000000E+00 -0.00000000000E+00 -0.50394824440E+03  0.50394824440E+03  0.00000000000E+00 0.  1.
         25    1    1    2    0    0 -0.17710611266E+03 -0.93783575608E+02  0.50569976129E+02  0.24154555819E+03  0.12500000000E+03 0.  0.
         21    1    1    2  503  501  0.17710611266E+03  0.93783575608E+02 -0.38387916657E+03  0.43304174017E+03  0.00000000000E+00 0.  1.
<mgrwt>
<rscale>  3 0.23619258E+03</rscale>
<asrwt>0</asrwt>
<pdfrwt beam="1">  1       21 0.26252162E-01 0.23619258E+03</pdfrwt>
<pdfrwt beam="2">  1       21 0.77530499E-01 0.23619258E+03</pdfrwt>
<totfact> 0.19861774E+04</totfact>
</mgrwt>
</event>
<event>
 4    0  0.1411907E-001  0.2440829E+03  0.7546771E-02  0.1117102E+00
         21   -1    0    0  503  501  0.00000000000E+00  0.00000000000E+00  0.32214744358E+03  0.32214744358E+03  0.00000000000E+00 0.  1.
         21   -1    0    0  501  502 -0.00000000000E+00 -0.00000000000E+00 -0.21264621970E+03  0.21264621970E+03  0.00000000000E+00 0.  1.
         25    1    1    2    0    0  0.13852945320E+03  0.15735641253E+03  0.19093081485E+03  0.30988873169E+03  0.12500000000E+03 0.  0.
         21    1    1    2  503  502 -0.13852945320E+03 -0.15735641253E+03 -0.81429590972E+02  0.22490493159E+03  0.00000000000E+00 0.  1.
<mgrwt>
<rscale>  3 0.24408288E+03</rscale>
<asrwt>0</asrwt>
<pdfrwt beam="1">  1       21 0.49561145E-01 0.24408288E+03</pdfrwt>
<pdfrwt beam="2">  1       21 0.32714803E-01 0.24408288E+03</pdfrwt>
<totfact> 0.34029014E+04</totfact>
</mgrwt>
</event>
<event>
 4    0  0.1290689E-001  0.2736286E+03  0.7546771E-02  0.1099221E+00
         21   -1    0    0  503  501  0.00000000000E+00  0.00000000000E+00  0.76978019558E+03  0.76978019558E+03  0.00000000000E+00 0.  1.
         21   -1    0    0  501  502 -0.00000000000E+00 -0.00000000000E+00 -0.93895911628E+02  0.93895911628E+02  0.00000000000E+00 0.  1.
         25    1    1    2    0    0  0.20625388555E+03 -0.12925535848E+03  0.47457062674E+03  0.54780461185E+03  0.12500000000E+03 0.  0.
         21    1    1    2  503  502 -0.20625388555E+03  0.12925535848E+03  0.20131365721E+03  0.31587149536E+03  0.00000000000E+00 0.  1.
<mgrwt>
<rscale>  3 0.27362860E+03</rscale>
<asrwt>0</asrwt>
<pdfrwt beam="1">  1       21 0.11842772E+00 0.27362860E+03</pdfrwt>
<pdfrwt beam="2">  1       21 0.14445525E-01 0.27362860E+03</pdfrwt>
<totfact> 0.21938670E+04</totfact>
</mgrwt>
</event>
<event>
 4    0  0.1050526E-001  0.2695555E+03  0.7546771E-02  0.1101534E+00
         21   -1    0    0  503  501  0.00000000000E+00  0.00000000000E+00  0.45610960547E+03  0.45610960547E+03  0.00000000000E+00 0.  1.
         21   -1    0    0  501  502 -0.00000000000E+00 -0.00000000000E+00 -0.33883447791E+03  0.33883447791E+03  0.00000000000E+00 0.  1.
         25    1    1    2    0    0  0.22873672612E+03  0.68663372647E+02  0.36309584204E+03  0.45221536808E+03  0.12500000000E+03 0.  0.
         21    1    1    2  503  502 -0.22873672612E+03 -0.68663372647E+02 -0.24582071448E+03  0.34272871529E+03  0.00000000000E+00 0.  1.
<mgrwt>
<rscale>  3 0.26955546E+03</rscale>
<asrwt>0</asrwt>
<pdfrwt beam="1">  1       21 0.70170708E-01 0.26955546E+03</pdfrwt>
<pdfrwt beam="2">  1       21 0.52128381E-01 0.26955546E+03</pdfrwt>
<totfact> 0.61216043E+03</totfact>
</mgrwt>
</event>
<event>
 4    0  0.1003929E-001  0.2391504E+03  0.7546771E-02  0.1120360E+00
         21   -1    0    0  503  501  0.00000000000E+00  0.00000000000E+00  0.21306772708E+04  0.21306772708E+04  0.00000000000E+00 0. -1.
         21   -1    0    0  501  502 -0.00000000000E+00 -0.00000000000E+00 -0.36769346134E+02  0.36769346134E+02  0.00000000000E+00 0.  1.
         25    1    1    2    0    0 -0.20121274554E+03 -0.32883949457E+02  0.17602982040E+04  0.17764691638E+04  0.12500000000E+03 0.  0.
         21    1    1    2  503  502  0.20121274554E+03  0.32883949457E+02  0.33360972067E+03  0.39097745309E+03  0.00000000000E+00 0.  1.
<mgrwt>
<rscale>  3 0.23915042E+03</rscale>
<asrwt>0</asrwt>
<pdfrwt beam="1">  1       21 0.32779641E+00 0.23915042E+03</pdfrwt>
<pdfrwt beam="2">  1       21 0.56568242E-02 0.23915042E+03</pdfrwt>
<totfact> 0.48843154E+03</totfact>
</mgrwt>
</event>
<event>
 4    0  0.1080357E-001  0.2960813E+03  0.7546771E-02  0.1087216E+00
         21   -1    0    0  503  501  0.00000000000E+00  0.00000000000E+00  0.29286474495E+02  0.29286474495E+02  0.00000000000E+00 0.  1.
         21   -1    0    0  501  502 -0.00000000000E+00 -0.00000000000E+00 -0.32536865777E+04  0.32536865777E+04  0.00000000000E+00 0.  1.
         25    1    1    2    0    0  0.25377342072E+03  0.87396715820E+02 -0.10141748018E+04  0.10565106074E+04  0.12500000000E+03 0.  0.
         21    1    1    2  503  502 -0.25377342072E+03 -0.87396715820E+02 -0.22102253014E+04  0.22264624448E+04  0.00000000000E+00 0.  1.
<mgrwt>
<rscale>  3 0.29608130E+03</rscale>
<asrwt>0</asrwt>
<pdfrwt beam="1">  1       21 0.45056140E-02 0.29608130E+03</pdfrwt>
<pdfrwt beam="2">  1       21 0.50056688E+00 0.29608130E+03</pdfrwt>
<totfact> 0.52541167E+02</totfact>
</mgrwt>
</event>
<event>
 4    0  0.1003929E-001  0.2451828E+03  0.7546771E-02  0.1116388E+00
         21   -1    0    0  503  501  0.00000000000E+00  0.00000000000E+00  0.36314968601E+04  0.36314968601E+04  0.00000000000E+00 0.  1.
         21   -1    0    0  501  502 -0.00000000000E+00 -0.00000000000E+00 -0.35500039473E+02  0.35500039473E+02  0.00000000000E+00 0. -1.
         25    1    1    2    0    0 -0.15206263917E+03 -0.14617301265E+03  0.32670296046E+04  0.32762168783E+04  0.12500000000E+03 0.  0.
         21    1    1    2  503  502  0.15206263917E+03  0.14617301265E+03  0.32896721600E+03  0.39078002132E+03  0.00000000000E+00 0. -1.
<mgrwt>
<rscale>  3 0.24518278E+03</rscale>
<asrwt>0</asrwt>
<pdfrwt beam="1">  1       21 0.55869153E+00 0.24518278E+03</pdfrwt>
<pdfrwt beam="2">  1       21 0.54615474E-02 0.24518278E+03</pdfrwt>
<totfact> 0.15092737E+02</totfact>
</mgrwt>
</event>
<event>
 4    0  0.1132163E-001  0.2935224E+03  0.7546771E-02  0.1088524E+00
         21   -1    0    0  502  501  0.00000000000E+00  0.00000000000E+00  0.10784069008E+03  0.10784069008E+03  0.00000000000E+00 0. -1.
         21   -1    0    0  503  502 -0.00000000000E+00 -0.00000000000E+00 -0.13368463135E+04  0.13368463135E+04  0.00000000000E+00 0. -1.
         25    1    1    2    0    0 -0.19736908863E+02  0.26484118521E+03 -0.14266809653E+03  0.32635806214E+03  0.12500000000E+03 0.  0.
         21    1    1    2  503  501  0.19736908863E+02 -0.26484118521E+03 -0.10863375269E+04  0.11183289414E+04  0.00000000000E+00 0. -1.
<mgrwt>
<rscale>  3 0.29352240E+03</rscale>
<asrwt>0</asrwt>
<pdfrwt beam="1">  1       21 0.16590875E-01 0.29352240E+03</pdfrwt>
<pdfrwt beam="2">  1       21 0.20566867E+00 0.29352240E+03</pdfrwt>
<totfact> 0.37209336E+03</totfact>
</mgrwt>
</event>
<event>
 4    0  0.1003929E-001  0.2644539E+03  0.7546771E-02  0.1104496E+00
         21   -1    0    0  503  501  0.00000000000E+00  0.00000000000E+00  0.40125638123E+03  0.40125638123E+03  0.00000000000E+00 0. -1.
         21   -1    0    0  501  502 -0.00000000000E+00 -0.00000000000E+00 -0.16454349735E+03  0.16454349735E+03  0.00000000000E+00 0.  1.
         25    1    1    2    0    0  0.17588818795E+02  0.23238217647E+03  0.54587744868E+02  0.27002900655E+03  0.12500000000E+03 0.  0.
         21    1    1    2  503  502 -0.17588818795E+02 -0.23238217647E+03  0.18212513901E+03  0.29577087204E+03  0.00000000000E+00 0.  1.
<mgrwt>
<rscale>  3 0.26445386E+03</rscale>
<asrwt>0</asrwt>
<pdfrwt beam="1">  1       21 0.61731751E-01 0.26445386E+03</pdfrwt>
<pdfrwt beam="2">  1       21 0.25314384E-01 0.26445386E+03</pdfrwt>
<totfact> 0.34844258E+04</totfact>
</mgrwt>
</event>
<event>
 4    0  0.1417653E-001  0.3007736E+03  0.7546771E-02  0.1084855E+00
         21   -1    0    0  502  501  0.00000000000E+00  0.00000000000E+00  0.13783861130E+03  0.13783861130E+03  0.00000000000E+00 0.  1.
         21   -1    0    0  503  502 -0.00000000000E+00 -0.00000000000E+00 -0.66763525041E+03  0.66763525041E+03  0.00000000000E+00 0.  1.
         25    1    1    2    0    0 -0.21208100743E+03 -0.17280447933E+03 -0.14647572618E+03  0.33454428727E+03  0.12500000000E+03 0.  0.
         21    1    1    2  503  501  0.21208100743E+03  0.17280447933E+03 -0.38332091294E+03  0.47092957444E+03  0.00000000000E+00 0.  1.
<mgrwt>
<rscale>  3 0.30077357E+03</rscale>
<asrwt>0</asrwt>
<pdfrwt beam="1">  1       21 0.21205940E-01 0.30077357E+03</pdfrwt>
<pdfrwt beam="2">  1       21 0.10271312E+00 0.30077357E+03</pdfrwt>
<totfact> 0.15031744E+04</totfact>
</mgrwt>
</event>
<event>
 4    0  0.1003929E-001  0.2513461E+03  0.7546771E-02  0.1112457E+00
         21   -1    0    0  503  501  0.00000000000E+00  0.00000000000E+00  0.10665033391E+04  0.10665033391E+04  0.00000000000E+00 0.  1.
         21   -1    0    0  501  502 -0.00000000000E+00 -0.00000000000E+00 -0.78693936669E+02  0.78693936669E+02  0.00000000000E+00 0. -1.
         25    1    1    2    0    0  0.19335334080E+03  0.10081837194E+03  0.85200718285E+03  0.88830799735E+03  0.12500000000E+03 0.  0.
         21    1    1    2  503  502 -0.19335334080E+03 -0.10081837194E+03  0.13580221955E+03  0.25688927840E+03  0.00000000000E+00 0. -1.
<mgrwt>
<rscale>  3 0.25134609E+03</rscale>
<asrwt>0</asrwt>
<pdfrwt beam="1">  1       21 0.16407743E+00 0.25134609E+03</pdfrwt>
<pdfrwt beam="2">  1       21 0.12106760E-01 0.25134609E+03</pdfrwt>
<totfact> 0.13054876E+04</totfact>
</mgrwt>
</event>
<event>
 4    0  0.1003929E-001  0.4794386E+03  0.7546771E-02  0.1019290E+00
         21   -1    0    0  503  501  0.00000000000E+00  0.00000000000E+00  0.11118660360E+03  0.11118660360E+03  0.00000000000E+00 0. -1.
         21   -1    0    0  501  502 -0.00000000000E+00 -0.00000000000E+00 -0.20477479140E+04  0.20477479140E+04  0.00000000000E+00 0. -1.
         25    1    1    2    0    0 -0.24915106382E+03  0.39007700658E+03 -0.81409025156E+03  0.94477736073E+03  0.12500000000E+03 0.  0.
         21    1    1    2  503  502  0.24915106382E+03 -0.39007700658E+03 -0.11224710589E+04  0.12141571569E+04  0.00000000000E+00 0. -1.
<mgrwt>
<rscale>  3 0.47943855E+03</rscale>
<asrwt>0</asrwt>
<pdfrwt beam="1">  1       21 0.17105631E-01 0.47943855E+03</pdfrwt>
<pdfrwt beam="2">  1       21 0.31503814E+00 0.47943855E+03</pdfrwt>
<totfact> 0.67707651E+02</totfact>
</mgrwt>
</event>
<event>
 4    0  0.1160554E-001  0.2373667E+03  0.7546771E-02  0.1121560E+00
         21   -1    0    0  502  501  0.00000000000E+00  0.00000000000E+00  0.69632541075E+02  0.69632541075E+02  0.00000000000E+00 0.  1.
         21   -1    0    0  503  502 -0.00000000000E+00 -0.00000000000E+00 -0.12882276967E+04  0.12882276967E+04  0.00000000000E+00 0.  1.
         25    1    1    2    0    0 -0.20067884873E+03 -0.21117501817E+02 -0.17491684209E+03  0.29485394835E+03  0.12500000000E+03 0.  0.
         21    1    1    2  503  501  0.20067884873E+03  0.21117501817E+02 -0.10436783136E+04  0.10630062894E+04  0.00000000000E+00 0.  1.
<mgrwt>
<rscale>  3 0.23736670E+03</rscale>
<asrwt>0</asrwt>
<pdfrwt beam="1">  1       21 0.10712699E-01 0.23736670E+03</pdfrwt>
<pdfrwt beam="2">  1       21 0.19818888E+00 0.23736670E+03</pdfrwt>
<totfact> 0.95668662E+03</totfact>
</mgrwt>
</event>
<event>
 4    0  0.1373545E-001  0.2909765E+03  0.7546771E-02  0.1089840E+00
         21   -1    0    0  503  501  0.00000000000E+00  0.00000000000E+00  0.16378924136E+03  0.16378924136E+03  0.00000000000E+00 0.  1.
         21   -1    0    0  501  502 -0.00000000000E+00 -0.00000000000E+00 -0.47186829796E+03  0.47186829796E+03  0.00000000000E+00 0.  1.
         25    1    1    2    0    0  0.35193581457E+02  0.26039146852E+03 -0.13313940629E+03  0.31998969759E+03  0.12500000000E+03 0.  0.
         21    1    1    2  503  502 -0.35193581457E+02 -0.26039146852E+03 -0.17493965031E+03  0.31566784173E+03  0.00000000000E+00 0.  1.
<mgrwt>
<rscale>  3 0.29097647E+03</rscale>
<asrwt>0</asrwt>
<pdfrwt beam="1">  1       21 0.25198345E-01 0.29097647E+03</pdfrwt>
<pdfrwt beam="2">  1       21 0.72595123E-01 0.29097647E+03</pdfrwt>
<totfact> 0.24314398E+04</totfact>
</mgrwt>
</event>
<event>
 4    0  0.1263103E-001  0.2600594E+03  0.7546771E-02  0.1107108E+00
         21   -1    0    0  503  501  0.00000000000E+00  0.00000000000E+00  0.63196832208E+03  0.63196832208E+03  0.00000000000E+00 0. -1.
         21   -1    0    0  501  502 -0.00000000000E+00 -0.00000000000E+00 -0.20152407463E+03  0.20152407463E+03  0.00000000000E+00 0. -1.
         25    1    1    2    0    0 -0.15830465148E+03 -0.16415088224E+03  0.52557662101E+03  0.58639718567E+03  0.12500000000E+03 0.  0.
         21    1    1    2  503  502  0.15830465148E+03  0.16415088224E+03 -0.95132373546E+02  0.24709521104E+03  0.00000000000E+00 0. -1.
<mgrwt>
<rscale>  3 0.26005937E+03</rscale>
<asrwt>0</asrwt>
<pdfrwt beam="1">  1       21 0.97225895E-01 0.26005937E+03</pdfrwt>
<pdfrwt beam="2">  1       21 0.31003704E-01 0.26005937E+03</pdfrwt>
<totfact> 0.83964546E+03</totfact>
</mgrwt>
</event>
<event>
 4    0  0.1125894E-001  0.2485203E+03  0.7546771E-02  0.1114244E+00
         21   -1    0    0  502  501  0.00000000000E+00  0.00000000000E+00  0.22807943109E+03  0.22807943109E+03  0.00000000000E+00 0. -1.
         21   -1    0    0  503  502 -0.00000000000E+00 -0.00000000000E+00 -0.33897038123E+03  0.33897038123E+03  0.00000000000E+00 0.  1.
         25    1    1    2    0    0  0.89134816717E+02 -0.19542855069E+03  0.98266744243E+02  0.26724274920E+03  0.12500000000E+03 0.  0.
         21    1    1    2  503  501 -0.89134816717E+02  0.19542855069E+03 -0.20915769439E+03  0.29980706312E+03  0.00000000000E+00 0.  1.
<mgrwt>
<rscale>  3 0.24852029E+03</rscale>
<asrwt>0</asrwt>
<pdfrwt beam="1">  1       21 0.35089143E-01 0.24852029E+03</pdfrwt>
<pdfrwt beam="2">  1       21 0.52149290E-01 0.24852029E+03</pdfrwt>
<totfact> 0.26544643E+04</totfact>
</mgrwt>
</event>
<event>
 4    0  0.1452696E-001  0.4016665E+03  0.7546771E-02  0.1043204E+00
         21   -1    0    0  503  501  0.00000000000E+00  0.00000000000E+00  0.49047391279E+03  0.49047391279E+03  0.00000000000E+00 0.  1.
         21   -1    0    0  501  502 -0.00000000000E+00 -0.00000000000E+00 -0.87118085880E+03  0.87118085880E+03  0.00000000000E+00 0. -1.
         25    1    1    2    0    0  0.25610231304E+03 -0.28305936575E+03  0.35290388810E+03  0.53467481100E+03  0.12500000000E+03 0.  0.
         21    1    1    2  503  502 -0.25610231304E+03  0.28305936575E+03 -0.73361083411E+03  0.82697996059E+03  0.00000000000E+00 0. -1.
<mgrwt>
<rscale>  3 0.40166653E+03</rscale>
<asrwt>0</asrwt>
<pdfrwt beam="1">  1       21 0.75457526E-01 0.40166653E+03</pdfrwt>
<pdfrwt beam="2">  1       21 0.13402782E+00 0.40166653E+03</pdfrwt>
<totfact> 0.53692124E+02</totfact>
</mgrwt>
</event>
<event>
 4    0  0.1003929E-001  0.3011980E+03  0.7546771E-02  0.1084643E+00
         21   -1    0    0  503  501  0.00000000000E+00  0.00000000000E+00  0.89339208334E+03  0.89339208334E+03  0.00000000000E+00 0. -1.
         21   -1    0    0  501  502 -0.00000000000E+00 -0.00000000000E+00 -0.92598924014E+02  0.92598924014E+02  0.00000000000E+00 0.  1.
         25    1    1    2    0    0 -0.27281723535E+03 -0.25806916095E+02  0.42266674440E+03  0.51900618267E+03  0.12500000000E+03 0.  0.
         21    1    1    2  503  502  0.27281723535E+03  0.25806916095E+02  0.37812641493E+03  0.46698482469E+03  0.00000000000E+00 0.  1.
<mgrwt>
<rscale>  3 0.30119801E+03</rscale>
<asrwt>0</asrwt>
<pdfrwt beam="1">  1       21 0.13744493E+00 0.30119801E+03</pdfrwt>
<pdfrwt beam="2">  1       21 0.14245989E-01 0.30119801E+03</pdfrwt>
<totfact> 0.15206623E+04</totfact>
</mgrwt>
</event>
<event>
 4    0  0.1135429E-001  0.2390633E+03  0.7546771E-02  0.1120418E+00
         21   -1    0    0  503  501  0.00000000000E+00  0.00000000000E+00  0.25372513269E+03  0.25372513269E+03  0.00000000000E+00 0.  1.
         21   -1    0    0  501  502 -0.00000000000E+00 -0.00000000000E+00 -0.55770007017E+03  0.55770007017E+03  0.00000000000E+00 0.  1.
         25    1    1    2    0    0 -0.16531733980E+03  0.11914889711E+03  0.17143681348E+03  0.29417998494E+03  0.12500000000E+03 0.  0.
         21    1    1    2  503  502  0.16531733980E+03 -0.11914889711E+03 -0.47541175096E+03  0.51724521793E+03  0.00000000000E+00 0.  1.
<mgrwt>
<rscale>  3 0.23906334E+03</rscale>
<asrwt>0</asrwt>
<pdfrwt beam="1">  1       21 0.39034635E-01 0.23906334E+03</pdfrwt>
<pdfrwt beam="2">  1       21 0.85800012E-01 0.23906334E+03</pdfrwt>
<totfact> 0.71896411E+03</totfact>
</mgrwt>
</event>
<event>
 4    0  0.1329027E-001  0.2625788E+03  0.7546771E-02  0.1105604E+00
         21   -1    0    0  503  501  0.00000000000E+00  0.00000000000E+00  0.42325172746E+03  0.42325172746E+03  0.00000000000E+00 0.  1.
         21   -1    0    0  501  502 -0.00000000000E+00 -0.00000000000E+00 -0.19034617206E+03  0.19034617206E+03  0.00000000000E+00 0.  1.
         25    1    1    2    0    0 -0.13728134277E+02 -0.23050852297E+03  0.27349584100E+03  0.37914062810E+03  0.12500000000E+03 0.  0.
         21    1    1    2  503  502  0.13728134277E+02  0.23050852297E+03 -0.40590285605E+02  0.23445727141E+03  0.00000000000E+00 0.  1.
<mgrwt>
<rscale>  3 0.26257883E+03</rscale>
<asrwt>0</asrwt>
<pdfrwt beam="1">  1       21 0.65115650E-01 0.26257883E+03</pdfrwt>
<pdfrwt beam="2">  1       21 0.29284027E-01 0.26257883E+03</pdfrwt>
<totfact> 0.23388725E+04</totfact>
</mgrwt>
</event>
<event>
 4    0  0.1507221E-001  0.2426168E+03  0.7546771E-02  0.1118062E+00
         21   -1    0    0  503  501  0.00000000000E+00  0.00000000000E+00  0.12253635897E+03  0.12253635897E+03  0.00000000000E+00 0. -1.
         21   -1    0    0  501  502 -0.00000000000E+00 -0.00000000000E+00 -0.55493599216E+03  0.55493599216E+03  0.00000000000E+00 0. -1.
         25    1    1    2    0    0  0.20785015432E+03 -0.60187625740E+01 -0.58387461215E+02  0.24954359896E+03  0.12500000000E+03 0.  0.
         21    1    1    2  503  502 -0.20785015432E+03  0.60187625740E+01 -0.37401217198E+03  0.42792875218E+03  0.00000000000E+00 0. -1.
<mgrwt>
<rscale>  3 0.24261680E+03</rscale>
<asrwt>0</asrwt>
<pdfrwt beam="1">  1       21 0.18851747E-01 0.24261680E+03</pdfrwt>
<pdfrwt beam="2">  1       21 0.85374769E-01 0.24261680E+03</pdfrwt>
<totfact> 0.29785021E+04</totfact>
</mgrwt>
</event>
<event>
 4    0  0.1473815E-001  0.2486359E+03  0.7546771E-02  0.1114170E+00
         21   -1    0    0  502  501  0.00000000000E+00  0.00000000000E+00  0.39196677027E+03  0.39196677027E+03  0.00000000000E+00 0.  1.
         21   -1    0    0  503  502 -0.00000000000E+00 -0.00000000000E+00 -0.16793790770E+03  0.16793790770E+03  0.00000000000E+00 0.  1.
         25    1    1    2    0    0  0.36471790823E+00  0.21492952757E+03  0.23844275215E+03  0.34449206216E+03  0.12500000000E+03 0.  0.
         21    1    1    2  503  501 -0.36471790823E+00 -0.21492952757E+03 -0.14413889582E+02  0.21541261581E+03  0.00000000000E+00 0.  1.
<mgrwt>
<rscale>  3 0.24863595E+03</rscale>
<asrwt>0</asrwt>
<pdfrwt beam="1">  1       21 0.60302580E-01 0.24863595E+03</pdfrwt>
<pdfrwt beam="2">  1       21 0.25836601E-01 0.24863595E+03</pdfrwt>
<totfact> 0.35479947E+04</totfact>
</mgrwt>
</event>
<event>
 4    0  0.1385193E-001  0.3565331E+03  0.7546771E-02  0.1059965E+00
         21   -1    0    0  502  501  0.00000000000E+00  0.00000000000E+00  0.32213520689E+03  0.32213520689E+03  0.00000000000E+00 0. -1.
         21   -1    0    0  503  502 -0.00000000000E+00 -0.00000000000E+00 -0.46210828083E+03  0.46210828083E+03  0.00000000000E+00 0. -1.
         25    1    1    2    0    0 -0.55368079812E+02  0.32927990397E+03  0.10320956739E+03  0.37117124649E+03  0.12500000000E+03 0.  0.
         21    1    1    2  503  501  0.55368079812E+02 -0.32927990397E+03 -0.24318264133E+03  0.41307224122E+03  0.00000000000E+00 0. -1.
<mgrwt>
<rscale>  3 0.35653314E+03</rscale>
<asrwt>0</asrwt>
<pdfrwt beam="1">  1       21 0.49559263E-01 0.35653314E+03</pdfrwt>
<pdfrwt beam="2">  1       21 0.71093581E-01 0.35653314E+03</pdfrwt>
<totfact> 0.63502390E+03</totfact>
</mgrwt>
</event>
<event>
 4    0  0.1163055E-001  0.2407593E+03  0.7546771E-02  0.1119288E+00
         21   -1    0    0  502  501  0.00000000000E+00  0.00000000000E+00  0.67671270856E+03  0.67671270856E+03  0.00000000000E+00 0.  1.
         21   -1    0    0  503  502 -0.00000000000E+00 -0.00000000000E+00 -0.30334833987E+03  0.30334833987E+03  0.00000000000E+00 0.  1.
         25    1    1    2    0    0  0.16354242886E+03 -0.12487552920E+03  0.61632135518E+03  0.66167744157E+03  0.12500000000E+03 0.  0.
         21    1    1    2  503  501 -0.16354242886E+03  0.12487552920E+03 -0.24295698649E+03  0.31838360686E+03  0.00000000000E+00 0.  1.
<mgrwt>
<rscale>  3 0.24075927E+03</rscale>
<asrwt>0</asrwt>
<pdfrwt beam="1">  1       21 0.10410965E+00 0.24075927E+03</pdfrwt>
<pdfrwt beam="2">  1       21 0.46668976E-01 0.24075927E+03</pdfrwt>
<totfact> 0.31570221E+03</totfact>
</mgrwt>
</event>
<event>
 4    0  0.1003929E-001  0.3714312E+03  0.7546771E-02  0.1054147E+00
         21   -1    0    0  503  501  0.00000000000E+00  0.00000000000E+00  0.18361594043E+04  0.18361594043E+04  0.00000000000E+00 0.  1.
         21   -1    0    0  501  502 -0.00000000000E+00 -0.00000000000E+00 -0.72925194992E+02  0.72925194992E+02  0.00000000000E+00 0.  1.
         25    1    1    2    0    0 -0.27238240485E+03 -0.21941729236E+03  0.10695628531E+04  0.11322216300E+04  0.12500000000E+03 0.  0.
         21    1    1    2  503  502  0.27238240485E+03  0.21941729236E+03  0.69367135615E+03  0.77686296926E+03  0.00000000000E+00 0.  1.
<mgrwt>
<rscale>  3 0.37143118E+03</rscale>
<asrwt>0</asrwt>
<pdfrwt beam="1">  1       21 0.28248603E+00 0.37143118E+03</pdfrwt>
<pdfrwt beam="2">  1       21 0.11219262E-01 0.37143118E+03</pdfrwt>
<totfact> 0.24527286E+03</totfact>
</mgrwt>
</event>
<event>
 4    0  0.1003929E-001  0.4173376E+03  0.7546771E-02  0.1037936E+00
         21   -1    0    0  502  501  0.00000000000E+00  0.00000000000E+00  0.34797669635E+03  0.34797669635E+03  0.00000000000E+00 0.  1.
         21   -1    0    0  503  502 -0.00000000000E+00 -0.00000000000E+00 -0.26082147687E+04  0.26082147687E+04  0.00000000000E+00 0. -1.
         25    1    1    2    0    0  0.32335333365E+03  0.23235386660E+03  0.20081283600E+03  0.46313766075E+03  0.12500000000E+03 0.  0.
         21    1    1    2  503  501 -0.32335333365E+03 -0.23235386660E+03 -0.24610509084E+04  0.24930538044E+04  0.00000000000E+00 0. -1.
<mgrwt>
<rscale>  3 0.41733763E+03</rscale>
<asrwt>0</asrwt>
<pdfrwt beam="1">  1       21 0.53534876E-01 0.41733763E+03</pdfrwt>
<pdfrwt beam="2">  1       21 0.40126381E+00 0.41733763E+03</pdfrwt>
<totfact> 0.21181800E+01</totfact>
</mgrwt>
</event>
<event>
 4    0  0.1463531E-001  0.2845902E+03  0.7546771E-02  0.1093208E+00
         21   -1    0    0  502  501  0.00000000000E+00  0.00000000000E+00  0.15206816201E+03  0.15206816201E+03  0.00000000000E+00 0. -1.
         21   -1    0    0  503  502 -0.00000000000E+00 -0.00000000000E+00 -0.98932186022E+03  0.98932186022E+03  0.00000000000E+00 0.  1.
         25    1    1    2    0    0  0.25334575561E+03 -0.34387737074E+02 -0.20242192439E+02  0.28530919141E+03  0.12500000000E+03 0.  0.
         21    1    1    2  503  501 -0.25334575561E+03  0.34387737074E+02 -0.81701150577E+03  0.85608083082E+03  0.00000000000E+00 0.  1.
<mgrwt>
<rscale>  3 0.28459021E+03</rscale>
<asrwt>0</asrwt>
<pdfrwt beam="1">  1       21 0.23395102E-01 0.28459021E+03</pdfrwt>
<pdfrwt beam="2">  1       21 0.15220336E+00 0.28459021E+03</pdfrwt>
<totfact> 0.46284363E+03</totfact>
</mgrwt>
</event>
<event>
 4    0  0.1003929E-001  0.2380280E+03  0.7546771E-02  0.1121113E+00
         21   -1    0    0  503  501  0.00000000000E+00  0.00000000000E+00  0.13874472153E+04  0.13874472153E+04  0.00000000000E+00 0. -1.
         21   -1    0    0  501  502 -0.00000000000E+00 -0.00000000000E+00 -0.37125778282E+03  0.37125778282E+03  0.00000000000E+00 0.  1.
         25    1    1    2    0    0 -0.26827941866E+00  0.20256426185E+03  0.13485960130E+04  0.13694409657E+04  0.12500000000E+03 0.  0.
         21    1    1    2  503  502  0.26827941866E+00 -0.20256426185E+03 -0.33240658055E+03  0.38926403243E+03  0.00000000000E+00 0.  1.
<mgrwt>
<rscale>  3 0.23802805E+03</rscale>
<asrwt>0</asrwt>
<pdfrwt beam="1">  1       21 0.21345342E+00 0.23802805E+03</pdfrwt>
<pdfrwt beam="2">  1       21 0.57116583E-01 0.23802805E+03</pdfrwt>
<totfact> 0.30116049E+02</totfact>
</mgrwt>
</event>
<event>
 4    0  0.1003929E-001  0.2382751E+03  0.7546771E-02  0.1120947E+00
         21   -1    0    0  503  501  0.00000000000E+00  0.00000000000E+00  0.14064855039E+03  0.14064855039E+03  0.00000000000E+00 0.  1.
         21   -1    0    0  501  502 -0.00000000000E+00 -0.00000000000E+00 -0.41752182022E+03  0.41752182022E+03  0.00000000000E+00 0.  1.
         25    1    1    2    0    0 -0.61947547040E+02  0.19316451975E+03 -0.26293441486E+03  0.35483733850E+03  0.12500000000E+03 0.  0.
         21    1    1    2  503  502  0.61947547040E+02 -0.19316451975E+03 -0.13938854970E+02  0.20333303212E+03  0.00000000000E+00 0.  1.
<mgrwt>
<rscale>  3 0.23827511E+03</rscale>
<asrwt>0</asrwt>
<pdfrwt beam="1">  1       21 0.21638239E-01 0.23827511E+03</pdfrwt>
<pdfrwt beam="2">  1       21 0.64234125E-01 0.23827511E+03</pdfrwt>
<totfact> 0.43583159E+04</totfact>
</mgrwt>
</event>
<event>
 4    0  0.1003929E-001  0.2973203E+03  0.7546771E-02  0.1086588E+00
         21   -1    0    0  503  501  0.00000000000E+00  0.00000000000E+00  0.76635716775E+03  0.76635716775E+03  0.00000000000E+00 0.  1.
         21   -1    0    0  501  502 -0.00000000000E+00 -0.00000000000E+00 -0.10869872846E+03  0.10869872846E+03  0.00000000000E+00 0. -1.
         25    1    1    2    0    0 -0.20196634898E+03  0.17884064678E+03  0.42586062692E+03  0.51938103222E+03  0.12500000000E+03 0.  0.
         21    1    1    2  503  502  0.20196634898E+03 -0.17884064678E+03  0.23179781236E+03  0.35567486400E+03  0.00000000000E+00 0. -1.
<mgrwt>
<rscale>  3 0.29732034E+03</rscale>
<asrwt>0</asrwt>
<pdfrwt beam="1">  1       21 0.11790110E+00 0.29732034E+03</pdfrwt>
<pdfrwt beam="2">  1       21 0.16722882E-01 0.29732034E+03</pdfrwt>
<totfact> 0.16759846E+04</totfact>
</mgrwt>
</event>
<event>
 4    0  0.1070213E-001  0.3262318E+03  0.7546771E-02  0.1072816E+00
         21   -1    0    0  503  501  0.00000000000E+00  0.00000000000E+00  0.78091406425E+03  0.78091406425E+03  0.00000000000E+00 0.  1.
         21   -1    0    0  501  502 -0.00000000000E+00 -0.00000000000E+00 -0.18244022202E+03  0.18244022202E+03  0.00000000000E+00 0. -1.
         25    1    1    2    0    0 -0.20646399836E+03 -0.21948763052E+03  0.57501021292E+03  0.66110812091E+03  0.12500000000E+03 0.  0.
         21    1    1    2  503  502  0.20646399836E+03  0.21948763052E+03  0.23463629312E+02  0.30224616536E+03  0.00000000000E+00 0. -1.
<mgrwt>
<rscale>  3 0.32623182E+03</rscale>
<asrwt>0</asrwt>
<pdfrwt beam="1">  1       21 0.12014062E+00 0.32623182E+03</pdfrwt>
<pdfrwt beam="2">  1       21 0.28067727E-01 0.32623182E+03</pdfrwt>
<totfact> 0.58860877E+03</totfact>
</mgrwt>
</event>
<event>
 4    0  0.1008282E-001  0.3954172E+03  0.7546771E-02  0.1045378E+00
         21   -1    0    0  503  501  0.00000000000E+00  0.00000000000E+00  0.46871490015E+03  0.46871490015E+03  0.00000000000E+00 0. -1.
         21   -1    0    0  501  502 -0.00000000000E+00 -0.00000000000E+00 -0.66292492077E+03  0.66292492077E+03  0.00000000000E+00 0. -1.
         25    1    1    2    0    0 -0.10324239305E+03 -0.36065325860E+03  0.31051741962E+03  0.50276816979E+03  0.12500000000E+03 0.  0.
         21    1    1    2  503  502  0.10324239305E+03  0.36065325860E+03 -0.50472744024E+03  0.62887165113E+03  0.00000000000E+00 0. -1.
<mgrwt>
<rscale>  3 0.39541720E+03</rscale>
<asrwt>0</asrwt>
<pdfrwt beam="1">  1       21 0.72109984E-01 0.39541720E+03</pdfrwt>
<pdfrwt beam="2">  1       21 0.10198845E+00 0.39541720E+03</pdfrwt>
<totfact> 0.11867989E+03</totfact>
</mgrwt>
</event>
<event>
 4    0  0.1465087E-001  0.2621549E+03  0.7546771E-02  0.1105855E+00
         21   -1    0    0  503  501  0.00000000000E+00  0.00000000000E+00  0.35724700407E+03  0.35724700407E+03  0.00000000000E+00 0. -1.
         21   -1    0    0  501  502 -0.00000000000E+00 -0.00000000000E+00 -0.25316057963E+03  0.25316057963E+03  0.00000000000E+00 0. -1.
         25    1    1    2    0    0  0.19899205567E+03 -0.11619966459E+03  0.22918020684E+03  0.34820793713E+03  0.12500000000E+03 0.  0.
         21    1    1    2  503  502 -0.19899205567E+03  0.11619966459E+03 -0.12509378240E+03  0.26219964658E+03  0.00000000000E+00 0. -1.
<mgrwt>
<rscale>  3 0.26215492E+03</rscale>
<asrwt>0</asrwt>
<pdfrwt beam="1">  1       21 0.54961078E-01 0.26215492E+03</pdfrwt>
<pdfrwt beam="2">  1       21 0.38947781E-01 0.26215492E+03</pdfrwt>
<totfact> 0.19129398E+04</totfact>
</mgrwt>
</event>
<event>
 4    0  0.1535848E-001  0.3112132E+03  0.7546771E-02  0.1079766E+00
         21   -1    0    0  503  501  0.00000000000E+00  0.00000000000E+00  0.65692437861E+03  0.65692437861E+03  0.00000000000E+00 0. -1.
         21   -1    0    0  501  502 -0.00000000000E+00 -0.00000000000E+00 -0.18497337322E+03  0.18497337322E+03  0.00000000000E+00 0. -1.
         25    1    1    2    0    0 -0.27604292103E+03 -0.70915388644E+02  0.46158913217E+03  0.55670298502E+03  0.12500000000E+03 0.  0.
         21    1    1    2  503  502  0.27604292103E+03  0.70915388644E+02  0.10361873226E+02  0.28519476681E+03  0.00000000000E+00 0. -1.
<mgrwt>
<rscale>  3 0.31121325E+03</rscale>
<asrwt>0</asrwt>
<pdfrwt beam="1">  1       21 0.10106529E+00 0.31121325E+03</pdfrwt>
<pdfrwt beam="2">  1       21 0.28457442E-01 0.31121325E+03</pdfrwt>
<totfact> 0.88277375E+03</totfact>
</mgrwt>
</event>
<event>
 4    0  0.1309456E-001  0.2735094E+03  0.7546771E-02  0.1099288E+00
         21   -1    0    0  502  501  0.00000000000E+00  0.00000000000E+00  0.29326740502E+03  0.29326740502E+03  0.00000000000E+00 0. -1.
         21   -1    0    0  503  502 -0.00000000000E+00 -0.00000000000E+00 -0.36740803578E+03  0.36740803578E+03  0.00000000000E+00 0. -1.
         25    1    1    2    0    0  0.12315689535E+03  0.20979696979E+03  0.16509768002E+03  0.31947555987E+03  0.12500000000E+03 0.  0.
         21    1    1    2  503  501 -0.12315689535E+03 -0.20979696979E+03 -0.23923831078E+03  0.34119988094E+03  0.00000000000E+00 0. -1.
<mgrwt>
<rscale>  3 0.27350940E+03</rscale>
<asrwt>0</asrwt>
<pdfrwt beam="1">  1       21 0.45118063E-01 0.27350940E+03</pdfrwt>
<pdfrwt beam="2">  1       21 0.56524313E-01 0.27350940E+03</pdfrwt>
<totfact> 0.13256494E+04</totfact>
</mgrwt>
</event>
<event>
 4    0  0.1171645E-001  0.2707702E+03  0.7546771E-02  0.1100840E+00
         21   -1    0    0  503  501  0.00000000000E+00  0.00000000000E+00  0.43733481355E+02  0.43733481355E+02  0.00000000000E+00 0.  1.
         21   -1    0    0  501  502 -0.00000000000E+00 -0.00000000000E+00 -0.15125860161E+04  0.15125860161E+04  0.00000000000E+00 0.  1.
         25    1    1    2    0    0  0.10083614516E+03  0.21799901277E+03 -0.68817964307E+03  0.73953209455E+03  0.12500000000E+03 0.  0.
         21    1    1    2  503  502 -0.10083614516E+03 -0.21799901277E+03 -0.78067289172E+03  0.81678740294E+03  0.00000000000E+00 0.  1.
<mgrwt>
<rscale>  3 0.27077019E+03</rscale>
<asrwt>0</asrwt>
<pdfrwt beam="1">  1       21 0.67282287E-02 0.27077019E+03</pdfrwt>
<pdfrwt beam="2">  1       21 0.23270551E+00 0.27077019E+03</pdfrwt>
<totfact> 0.12858608E+04</totfact>
</mgrwt>
</event>
<event>
 4    0  0.1003929E-001  0.2605975E+03  0.7546771E-02  0.1106785E+00
         21   -1    0    0  502  501  0.00000000000E+00  0.00000000000E+00  0.72949258232E+02  0.72949258232E+02  0.00000000000E+00 0.  1.
         21   -1    0    0  503  502 -0.00000000000E+00 -0.00000000000E+00 -0.12007970043E+04  0.12007970043E+04  0.00000000000E+00 0. -1.
         25    1    1    2    0    0  0.10594204076E+03  0.20263850225E+03 -0.23111089066E+03  0.34831497581E+03  0.12500000000E+03 0.  0.
         21    1    1    2  503  501 -0.10594204076E+03 -0.20263850225E+03 -0.89673685545E+03  0.92543128676E+03  0.00000000000E+00 0. -1.
<mgrwt>
<rscale>  3 0.26059754E+03</rscale>
<asrwt>0</asrwt>
<pdfrwt beam="1">  1       21 0.11222963E-01 0.26059754E+03</pdfrwt>
<pdfrwt beam="2">  1       21 0.18473799E+00 0.26059754E+03</pdfrwt>
<totfact> 0.10652979E+04</totfact>
</mgrwt>
</event>
<event>
 4    0  0.1554783E-001  0.2592852E+03  0.7546771E-02  0.1107573E+00
         21   -1    0    0  502  501  0.00000000000E+00  0.00000000000E+00  0.70254814169E+02  0.70254814169E+02  0.00000000000E+00 0. -1.
         21   -1    0    0  503  502 -0.00000000000E+00 -0.00000000000E+00 -0.86354032408E+03  0.86354032408E+03  0.00000000000E+00 0. -1.
         25    1    1    2    0    0 -0.20575923025E+03  0.96264958055E+02 -0.34869082926E+03  0.43452744147E+03  0.12500000000E+03 0.  0.
         21    1    1    2  503  501  0.20575923025E+03 -0.96264958055E+02 -0.44459468066E+03  0.49926769678E+03  0.00000000000E+00 0. -1.
<mgrwt>
<rscale>  3 0.25928518E+03</rscale>
<asrwt>0</asrwt>
<pdfrwt beam="1">  1       21 0.10808433E-01 0.25928518E+03</pdfrwt>
<pdfrwt beam="2">  1       21 0.13285236E+00 0.25928518E+03</pdfrwt>
<totfact> 0.27896578E+04</totfact>
</mgrwt>
</event>
<event>
 4    0  0.1003929E-001  0.3487399E+03  0.7546771E-02  0.1063133E+00
         21   -1    0    0  502  501  0.00000000000E+00  0.00000000000E+00  0.93602109245E+03  0.93602109245E+03  0.00000000000E+00 0.  1.
         21   -1    0    0  503  502 -0.00000000000E+00 -0.00000000000E+00 -0.21171990239E+03  0.21171990239E+03  0.00000000000E+00 0.  1.
         25    1    1    2    0    0 -0.19824483214E+03  0.25825079002E+03  0.74389561356E+03  0.82158393843E+03  0.12500000000E+03 0.  0.
         21    1    1    2  503  501  0.19824483214E+03 -0.25825079002E+03 -0.19594423491E+02  0.32615705641E+03  0.00000000000E+00 0.  1.
<mgrwt>
<rscale>  3 0.34873985E+03</rscale>
<asrwt>0</asrwt>
<pdfrwt beam="1">  1       21 0.14400324E+00 0.34873985E+03</pdfrwt>
<pdfrwt beam="2">  1       21 0.32572293E-01 0.34873985E+03</pdfrwt>
<totfact> 0.27159606E+03</totfact>
</mgrwt>
</event>
<event>
 4    0  0.1288493E-001  0.2482785E+03  0.7546771E-02  0.1114398E+00
         21   -1    0    0  502  501  0.00000000000E+00  0.00000000000E+00  0.71754994854E+03  0.71754994854E+03  0.00000000000E+00 0.  1.
         21   -1    0    0  503  502 -0.00000000000E+00 -0.00000000000E+00 -0.10504572787E+03  0.10504572787E+03  0.00000000000E+00 0.  1.
         25    1    1    2    0    0  0.53411252941E+02 -0.20776061141E+03  0.54305261890E+03  0.59711672267E+03  0.12500000000E+03 0.  0.
         21    1    1    2  503  501 -0.53411252941E+02  0.20776061141E+03  0.69451601770E+02  0.22547895374E+03  0.00000000000E+00 0.  1.
<mgrwt>
<rscale>  3 0.24827854E+03</rscale>
<asrwt>0</asrwt>
<pdfrwt beam="1">  1       21 0.11039230E+00 0.24827854E+03</pdfrwt>
<pdfrwt beam="2">  1       21 0.16160882E-01 0.24827854E+03</pdfrwt>
<totfact> 0.21480169E+04</totfact>
</mgrwt>
</event>
<event>
 4    0  0.1326943E-001  0.2431650E+03  0.7546771E-02  0.1117702E+00
         21   -1    0    0  502  501  0.00000000000E+00  0.00000000000E+00  0.27010980519E+03  0.27010980519E+03  0.00000000000E+00 0. -1.
         21   -1    0    0  503  502 -0.00000000000E+00 -0.00000000000E+00 -0.33527783123E+03  0.33527783123E+03  0.00000000000E+00 0. -1.
         25    1    1    2    0    0 -0.94139001231E+01 -0.20836405368E+03  0.16569951278E+03  0.29425419099E+03  0.12500000000E+03 0.  0.
         21    1    1    2  503  501  0.94139001231E+01  0.20836405368E+03 -0.23086753883E+03  0.31113344543E+03  0.00000000000E+00 0. -1.
<mgrwt>
<rscale>  3 0.24316497E+03</rscale>
<asrwt>0</asrwt>
<pdfrwt beam="1">  1       21 0.41555355E-01 0.24316497E+03</pdfrwt>
<pdfrwt beam="2">  1       21 0.51581205E-01 0.24316497E+03</pdfrwt>
<totfact> 0.19354536E+04</totfact>
</mgrwt>
</event>
<event>
 4    0  0.1072418E-001  0.2435558E+03  0.7546771E-02  0.1117446E+00
         21   -1    0    0  502  501  0.00000000000E+00  0.00000000000E+00  0.54639494210E+03  0.54639494210E+03  0.00000000000E+00 0.  1.
         21   -1    0    0  503  502 -0.00000000000E+00 -0.00000000000E+00 -0.44556488983E+03  0.44556488983E+03  0.00000000000E+00 0.  1.
         25    1    1    2    0    0  0.17219558355E+03 -0.11850371450E+03  0.49169496464E+03  0.54871065927E+03  0.12500000000E+03 0.  0.
         21    1    1    2  503  501 -0.17219558355E+03  0.11850371450E+03 -0.39086491237E+03  0.44324917266E+03  0.00000000000E+00 0.  1.
<mgrwt>
<rscale>  3 0.24355584E+03</rscale>
<asrwt>0</asrwt>
<pdfrwt beam="1">  1       21 0.84060760E-01 0.24355584E+03</pdfrwt>
<pdfrwt beam="2">  1       21 0.68548445E-01 0.24355584E+03</pdfrwt>
<totfact> 0.22888386E+03</totfact>
</mgrwt>
</event>
<event>
 4    0  0.1395817E-001  0.2562277E+03  0.7546771E-02  0.1109431E+00
         21   -1    0    0  502  501  0.00000000000E+00  0.00000000000E+00  0.69535002941E+03  0.69535002941E+03  0.00000000000E+00 0. -1.
         21   -1    0    0  503  502 -0.00000000000E+00 -0.00000000000E+00 -0.10386006817E+03  0.10386006817E+03  0.00000000000E+00 0. -1.
         25    1    1    2    0    0  0.13916298124E+03 -0.17510371304E+03  0.49135382591E+03  0.55414910259E+03  0.12500000000E+03 0.  0.
         21    1    1    2  503  501 -0.13916298124E+03  0.17510371304E+03  0.10013613533E+03  0.24506099499E+03  0.00000000000E+00 0. -1.
<mgrwt>
<rscale>  3 0.25622772E+03</rscale>
<asrwt>0</asrwt>
<pdfrwt beam="1">  1       21 0.10697692E+00 0.25622772E+03</pdfrwt>
<pdfrwt beam="2">  1       21 0.15978472E-01 0.25622772E+03</pdfrwt>
<totfact> 0.23587317E+04</totfact>
</mgrwt>
</event>
<event>
 4    0  0.1445348E-001  0.3187153E+03  0.7546771E-02  0.1076242E+00
         21   -1    0    0  502  501  0.00000000000E+00  0.00000000000E+00  0.10283394163E+03  0.10283394163E+03  0.00000000000E+00 0. -1.
         21   -1    0    0  503  502 -0.00000000000E+00 -0.00000000000E+00 -0.10023698822E+04  0.10023698822E+04  0.00000000000E+00 0. -1.
         25    1    1    2    0    0  0.23483358023E+03 -0.17552096289E+03 -0.29941563599E+03  0.43729754390E+03  0.12500000000E+03 0.  0.
         21    1    1    2  503  501 -0.23483358023E+03  0.17552096289E+03 -0.60012030457E+03  0.66790627993E+03  0.00000000000E+00 0. -1.
<mgrwt>
<rscale>  3 0.31871526E+03</rscale>
<asrwt>0</asrwt>
<pdfrwt beam="1">  1       21 0.15820606E-01 0.31871526E+03</pdfrwt>
<pdfrwt beam="2">  1       21 0.15421076E+00 0.31871526E+03</pdfrwt>
<totfact> 0.91586388E+03</totfact>
</mgrwt>
</event>
<event>
 4    0  0.1003929E-001  0.5030548E+03  0.7546771E-02  0.1012985E+00
         21   -1    0    0  502  501  0.00000000000E+00  0.00000000000E+00  0.29078736277E+03  0.29078736277E+03  0.00000000000E+00 0.  1.
         21   -1    0    0  503  502 -0.00000000000E+00 -0.00000000000E+00 -0.10046996490E+04  0.10046996490E+04  0.00000000000E+00 0. -1.
         25    1    1    2    0    0  0.41372833976E+03  0.25742565387E+03 -0.10205022401E+03  0.51330142666E+03  0.12500000000E+03 0.  0.
         21    1    1    2  503  501 -0.41372833976E+03 -0.25742565387E+03 -0.61186206224E+03  0.78218558514E+03  0.00000000000E+00 0. -1.
<mgrwt>
<rscale>  3 0.50305477E+03</rscale>
<asrwt>0</asrwt>
<pdfrwt beam="1">  1       21 0.44736517E-01 0.50305477E+03</pdfrwt>
<pdfrwt beam="2">  1       21 0.15456918E+00 0.50305477E+03</pdfrwt>
<totfact> 0.10963048E+03</totfact>
</mgrwt>
</event>
<event>
 4    0  0.1227921E-001  0.3355501E+03  0.7546771E-02  0.1068707E+00
         21   -1    0    0  503  501  0.00000000000E+00  0.00000000000E+00  0.28153354089E+03  0.28153354089E+03  0.00000000000E+00 0.  1.
         21   -1    0    0  501  502 -0.00000000000E+00 -0.00000000000E+00 -0.38314296370E+03  0.38314296370E+03  0.00000000000E+00 0.  1.
         25    1    1    2    0    0 -0.12892105349E+02 -0.31113121468E+03 -0.11013320971E+03  0.35316166696E+03  0.12500000000E+03 0.  0.
         21    1    1    2  503  502  0.12892105349E+02  0.31113121468E+03  0.85237868949E+01  0.31151483764E+03  0.00000000000E+00 0.  1.
<mgrwt>
<rscale>  3 0.33555005E+03</rscale>
<asrwt>0</asrwt>
<pdfrwt beam="1">  1       21 0.43312853E-01 0.33555005E+03</pdfrwt>
<pdfrwt beam="2">  1       21 0.58945071E-01 0.33555005E+03</pdfrwt>
<totfact> 0.12834913E+04</totfact>
</mgrwt>
</event>
<event>
 4    0  0.1135195E-001  0.2459135E+03  0.7546771E-02  0.1115915E+00
         21   -1    0    0  502  501  0.00000000000E+00  0.00000000000E+00  0.36486715416E+02  0.36486715416E+02  0.00000000000E+00 0. -1.
         21   -1    0    0  503  502 -0.00000000000E+00 -0.00000000000E+00 -0.15189036754E+04  0.15189036754E+04  0.00000000000E+00 0. -1.
         25    1    1    2    0    0 -0.17843735130E+03  0.11405505653E+03 -0.61148289881E+03  0.65907873566E+03  0.12500000000E+03 0.  0.
         21    1    1    2  503  501  0.17843735130E+03 -0.11405505653E+03 -0.87093406116E+03  0.89631165514E+03  0.00000000000E+00 0. -1.
<mgrwt>
<rscale>  3 0.24591349E+03</rscale>
<asrwt>0</asrwt>
<pdfrwt beam="1">  1       21 0.56133398E-02 0.24591349E+03</pdfrwt>
<pdfrwt beam="2">  1       21 0.23367753E+00 0.24591349E+03</pdfrwt>
<totfact> 0.17625836E+04</totfact>
</mgrwt>
</event>
<event>
 4    0  0.1003929E-001  0.2604307E+03  0.7546771E-02  0.1106885E+00
         21   -1    0    0  503  501  0.00000000000E+00  0.00000000000E+00  0.13054479048E+03  0.13054479048E+03  0.00000000000E+00 0.  1.
         21   -1    0    0  501  502 -0.00000000000E+00 -0.00000000000E+00 -0.48711048823E+03  0.48711048823E+03  0.00000000000E+00 0. -1.
         25    1    1    2    0    0  0.26610541861E+02  0.22691637996E+03 -0.11356134717E+03  0.28411325912E+03  0.12500000000E+03 0.  0.
         21    1    1    2  503  502 -0.26610541861E+02 -0.22691637996E+03 -0.24300435058E+03  0.33354201959E+03  0.00000000000E+00 0. -1.
<mgrwt>
<rscale>  3 0.26043073E+03</rscale>
<asrwt>0</asrwt>
<pdfrwt beam="1">  1       21 0.20083814E-01 0.26043073E+03</pdfrwt>
<pdfrwt beam="2">  1       21 0.74940074E-01 0.26043073E+03</pdfrwt>
<totfact> 0.35314011E+04</totfact>
</mgrwt>
</event>
<event>
 4    0  0.1452315E-001  0.2831291E+03  0.7546771E-02  0.1093992E+00
         21   -1    0    0  503  501  0.00000000000E+00  0.00000000000E+00  0.53327360664E+03  0.53327360664E+03  0.00000000000E+00 0.  1.
         21   -1    0    0  501  502 -0.00000000000E+00 -0.00000000000E+00 -0.13825794413E+03  0.13825794413E+03  0.00000000000E+00 0.  1.
         25    1    1    2    0    0  0.23488328915E+03 -0.96782972908E+02  0.25722798140E+03  0.38252887183E+03  0.12500000000E+03 0.  0.
         21    1    1    2  503  502 -0.23488328915E+03  0.96782972908E+02  0.13778768110E+03  0.28900267894E+03  0.00000000000E+00 0.  1.
<mgrwt>
<rscale>  3 0.28312913E+03</rscale>
<asrwt>0</asrwt>
<pdfrwt beam="1">  1       21 0.82042092E-01 0.28312913E+03</pdfrwt>
<pdfrwt beam="2">  1       21 0.21270453E-01 0.28312913E+03</pdfrwt>
<totfact> 0.25551882E+04</totfact>
</mgrwt>
</event>
<event>
 4    0  0.1477983E-001  0.2650984E+03  0.7546771E-02  0.1104118E+00
         21   -1    0    0  503  501  0.00000000000E+00  0.00000000000E+00  0.39318970379E+03  0.39318970379E+03  0.00000000000E+00 0.  1.
         21   -1    0    0  501  502 -0.00000000000E+00 -0.00000000000E+00 -0.18557328403E+03  0.18557328403E+03  0.00000000000E+00 0.  1.
         25    1    1    2    0    0  0.15009253431E+03  0.17923271911E+03  0.22023372041E+03  0.34464478534E+03  0.12500000000E+03 0.  0.
         21    1    1    2  503  502 -0.15009253431E+03 -0.17923271911E+03 -0.12617300652E+02  0.23411820248E+03  0.00000000000E+00 0.  1.
<mgrwt>
<rscale>  3 0.26509835E+03</rscale>
<asrwt>0</asrwt>
<pdfrwt beam="1">  1       21 0.60490723E-01 0.26509835E+03</pdfrwt>
<pdfrwt beam="2">  1       21 0.28549736E-01 0.26509835E+03</pdfrwt>
<totfact> 0.28832341E+04</totfact>
</mgrwt>
</event>
<event>
 4    0  0.1003929E-001  0.2471231E+03  0.7546771E-02  0.1115137E+00
         21   -1    0    0  503  501  0.00000000000E+00  0.00000000000E+00  0.85870731335E+03  0.85870731335E+03  0.00000000000E+00 0. -1.
         21   -1    0    0  501  502 -0.00000000000E+00 -0.00000000000E+00 -0.62359282398E+02  0.62359282398E+02  0.00000000000E+00 0.  1.
         25    1    1    2    0    0  0.15251614499E+03 -0.14894170551E+03  0.47498466025E+03  0.53542528293E+03  0.12500000000E+03 0.  0.
         21    1    1    2  503  502 -0.15251614499E+03  0.14894170551E+03  0.32136337071E+03  0.38564131283E+03  0.00000000000E+00 0.  1.
<mgrwt>
<rscale>  3 0.24712306E+03</rscale>
<asrwt>0</asrwt>
<pdfrwt beam="1">  1       21 0.13210881E+00 0.24712306E+03</pdfrwt>
<pdfrwt beam="2">  1       21 0.95937364E-02 0.24712306E+03</pdfrwt>
<totfact> 0.35191639E+04</totfact>
</mgrwt>
</event>
<event>
 4    0  0.1014675E-001  0.3648978E+03  0.7546771E-02  0.1056661E+00
         21   -1    0    0  502  501  0.00000000000E+00  0.00000000000E+00  0.10375933868E+04  0.10375933868E+04  0.00000000000E+00 0. -1.
         21   -1    0    0  503  502 -0.00000000000E+00 -0.00000000000E+00 -0.17535031252E+03  0.17535031252E+03  0.00000000000E+00 0.  1.
         25    1    1    2    0    0 -0.27819094620E+03  0.20033774989E+03  0.77890232001E+03  0.86013908218E+03  0.12500000000E+03 0.  0.
         21    1    1    2  503  501  0.27819094620E+03 -0.20033774989E+03  0.83340754304E+02  0.35280461718E+03  0.00000000000E+00 0.  1.
<mgrwt>
<rscale>  3 0.36489782E+03</rscale>
<asrwt>0</asrwt>
<pdfrwt beam="1">  1       21 0.15962975E+00 0.36489782E+03</pdfrwt>
<pdfrwt beam="2">  1       21 0.26976972E-01 0.36489782E+03</pdfrwt>
<totfact> 0.29582056E+03</totfact>
</mgrwt>
</event>
<event>
 4    0  0.1114775E-001  0.2511036E+03  0.7546771E-02  0.1112609E+00
         21   -1    0    0  503  501  0.00000000000E+00  0.00000000000E+00  0.14249135591E+04  0.14249135591E+04  0.00000000000E+00 0.  1.
         21   -1    0    0  501  502 -0.00000000000E+00 -0.00000000000E+00 -0.48937791440E+02  0.48937791440E+02  0.00000000000E+00 0.  1.
         25    1    1    2    0    0  0.11037552075E+03  0.18773722983E+03  0.10649972334E+04  0.10941993101E+04  0.12500000000E+03 0.  0.
         21    1    1    2  503  502 -0.11037552075E+03 -0.18773722983E+03  0.31097853423E+03  0.37965204042E+03  0.00000000000E+00 0.  1.
<mgrwt>
<rscale>  3 0.25110361E+03</rscale>
<asrwt>0</asrwt>
<pdfrwt beam="1">  1       21 0.21921744E+00 0.25110361E+03</pdfrwt>
<pdfrwt beam="2">  1       21 0.75288921E-02 0.25110361E+03</pdfrwt>
<totfact> 0.12972636E+04</totfact>
</mgrwt>
</event>
<event>
 4    0  0.1398218E-001  0.3280811E+03  0.7546771E-02  0.1071989E+00
         21   -1    0    0  503  501  0.00000000000E+00  0.00000000000E+00  0.96379732027E+02  0.96379732027E+02  0.00000000000E+00 0. -1.
         21   -1    0    0  501  502 -0.00000000000E+00 -0.00000000000E+00 -0.10681329774E+04  0.10681329774E+04  0.00000000000E+00 0. -1.
         25    1    1    2    0    0 -0.25794478736E+02 -0.30223645145E+03 -0.40054257098E+03  0.51775629295E+03  0.12500000000E+03 0.  0.
         21    1    1    2  503  502  0.25794478736E+02  0.30223645145E+03 -0.57121067440E+03  0.64675641649E+03  0.00000000000E+00 0. -1.
<mgrwt>
<rscale>  3 0.32808113E+03</rscale>
<asrwt>0</asrwt>
<pdfrwt beam="1">  1       21 0.14827651E-01 0.32808113E+03</pdfrwt>
<pdfrwt beam="2">  1       21 0.16432815E+00 0.32808113E+03</pdfrwt>
<totfact> 0.86302527E+03</totfact>
</mgrwt>
</event>
<event>
 4    0  0.1003929E-001  0.3393405E+03  0.7546771E-02  0.1067077E+00
         21   -1    0    0  502  501  0.00000000000E+00  0.00000000000E+00  0.16307885948E+03  0.16307885948E+03  0.00000000000E+00 0.  1.
         21   -1    0    0  503  502 -0.00000000000E+00 -0.00000000000E+00 -0.86009655689E+03  0.86009655689E+03  0.00000000000E+00 0. -1.
         25    1    1    2    0    0 -0.99521378489E+02 -0.29937015674E+03 -0.10994660490E+03  0.35670751528E+03  0.12500000000E+03 0.  0.
         21    1    1    2  503  501  0.99521378489E+02  0.29937015674E+03 -0.58707109251E+03  0.66646790109E+03  0.00000000000E+00 0. -1.
<mgrwt>
<rscale>  3 0.33934053E+03</rscale>
<asrwt>0</asrwt>
<pdfrwt beam="1">  1       21 0.25089056E-01 0.33934053E+03</pdfrwt>
<pdfrwt beam="2">  1       21 0.13232255E+00 0.33934053E+03</pdfrwt>
<totfact> 0.56871974E+03</totfact>
</mgrwt>
</event>
<event>
 4    0  0.1478951E-001  0.2568280E+03  0.7546771E-02  0.1109064E+00
         21   -1    0    0  503  501  0.00000000000E+00  0.00000000000E+00  0.16809054011E+03  0.16809054011E+03  0.00000000000E+00 0. -1.
         21   -1    0    0  501  502 -0.00000000000E+00 -0.00000000000E+00 -0.41372979853E+03  0.41372979853E+03  0.00000000000E+00 0. -1.
         25    1    1    2    0    0  0.13880190576E+03  0.17626592061E+03 -0.10828507459E+02  0.25705622028E+03  0.12500000000E+03 0.  0.
         21    1    1    2  503  502 -0.13880190576E+03 -0.17626592061E+03 -0.23481075096E+03  0.32476411837E+03  0.00000000000E+00 0. -1.
<mgrwt>
<rscale>  3 0.25682804E+03</rscale>
<asrwt>0</asrwt>
<pdfrwt beam="1">  1       21 0.25860083E-01 0.25682804E+03</pdfrwt>
<pdfrwt beam="2">  1       21 0.63650738E-01 0.25682804E+03</pdfrwt>
<totfact> 0.31382110E+04</totfact>
</mgrwt>
</event>
<event>
 4    0  0.1485358E-001  0.2633179E+03  0.7546771E-02  0.1105166E+00
         21   -1    0    0  503  501  0.00000000000E+00  0.00000000000E+00  0.92408982660E+02  0.92408982660E+02  0.00000000000E+00 0. -1.
         21   -1    0    0  501  502 -0.00000000000E+00 -0.00000000000E+00 -0.74000238193E+03  0.74000238193E+03  0.00000000000E+00 0. -1.
         25    1    1    2    0    0 -0.14106168139E+03 -0.18388283743E+03 -0.20835041268E+03  0.33577699493E+03  0.12500000000E+03 0.  0.
         21    1    1    2  503  502  0.14106168139E+03  0.18388283743E+03 -0.43924298659E+03  0.49663436966E+03  0.00000000000E+00 0. -1.
<mgrwt>
<rscale>  3 0.26331786E+03</rscale>
<asrwt>0</asrwt>
<pdfrwt beam="1">  1       21 0.14216766E-01 0.26331786E+03</pdfrwt>
<pdfrwt beam="2">  1       21 0.11384652E+00 0.26331786E+03</pdfrwt>
<totfact> 0.25017302E+04</totfact>
</mgrwt>
</event>
<event>
 4    0  0.1341850E-001  0.2384718E+03  0.7546771E-02  0.1120815E+00
         21   -1    0    0  503  501  0.00000000000E+00  0.00000000000E+00  0.24251545532E+03  0.24251545532E+03  0.00000000000E+00 0.  1.
         21   -1    0    0  501  502 -0.00000000000E+00 -0.00000000000E+00 -0.24190121121E+03  0.24190121121E+03  0.00000000000E+00 0.  1.
         25    1    1    2    0    0  0.19924211725E+03 -0.39323892150E+02  0.99668448918E+02  0.25846196914E+03  0.12500000000E+03 0.  0.
         21    1    1    2  503  502 -0.19924211725E+03  0.39323892150E+02 -0.99054204816E+02  0.22595469739E+03  0.00000000000E+00 0.  1.
<mgrwt>
<rscale>  3 0.23847178E+03</rscale>
<asrwt>0</asrwt>
<pdfrwt beam="1">  1       21 0.37310070E-01 0.23847178E+03</pdfrwt>
<pdfrwt beam="2">  1       21 0.37215571E-01 0.23847178E+03</pdfrwt>
<totfact> 0.47236730E+04</totfact>
</mgrwt>
</event>
<event>
 4    0  0.1414432E-001  0.2653961E+03  0.7546771E-02  0.1103944E+00
         21   -1    0    0  503  501  0.00000000000E+00  0.00000000000E+00  0.45202784084E+03  0.45202784084E+03  0.00000000000E+00 0.  1.
         21   -1    0    0  501  502 -0.00000000000E+00 -0.00000000000E+00 -0.17302278652E+03  0.17302278652E+03  0.00000000000E+00 0.  1.
         25    1    1    2    0    0  0.23276405726E+03 -0.25119123996E+02  0.28686589849E+03  0.39080317355E+03  0.12500000000E+03 0.  0.
         21    1    1    2  503  502 -0.23276405726E+03  0.25119123996E+02 -0.78608441674E+01  0.23424745380E+03  0.00000000000E+00 0.  1.
<mgrwt>
<rscale>  3 0.26539608E+03</rscale>
<asrwt>0</asrwt>
<pdfrwt beam="1">  1       21 0.69542744E-01 0.26539608E+03</pdfrwt>
<pdfrwt beam="2">  1       21 0.26618890E-01 0.26539608E+03</pdfrwt>
<totfact> 0.24328355E+04</totfact>
</mgrwt>
</event>
<event>
 4    0  0.1206149E-001  0.2509358E+03  0.7546771E-02  0.1112715E+00
         21   -1    0    0  503  501  0.00000000000E+00  0.00000000000E+00  0.12437373742E+03  0.12437373742E+03  0.00000000000E+00 0.  1.
         21   -1    0    0  501  502 -0.00000000000E+00 -0.00000000000E+00 -0.71997957705E+03  0.71997957705E+03  0.00000000000E+00 0. -1.
         25    1    1    2    0    0  0.15009313743E+03  0.15753032879E+03 -0.48516347948E+02  0.25558284451E+03  0.12500000000E+03 0.  0.
         21    1    1    2  503  502 -0.15009313743E+03 -0.15753032879E+03 -0.54708949168E+03  0.58877046996E+03  0.00000000000E+00 0. -1.
<mgrwt>
<rscale>  3 0.25093576E+03</rscale>
<asrwt>0</asrwt>
<pdfrwt beam="1">  1       21 0.19134422E-01 0.25093576E+03</pdfrwt>
<pdfrwt beam="2">  1       21 0.11076609E+00 0.25093576E+03</pdfrwt>
<totfact> 0.15548295E+04</totfact>
</mgrwt>
</event>
<event>
 4    0  0.1003929E-001  0.2625088E+03  0.7546771E-02  0.1105645E+00
         21   -1    0    0  502  501  0.00000000000E+00  0.00000000000E+00  0.10960704018E+04  0.10960704018E+04  0.00000000000E+00 0. -1.
         21   -1    0    0  503  502 -0.00000000000E+00 -0.00000000000E+00 -0.55528867494E+02  0.55528867494E+02  0.00000000000E+00 0.  1.
         25    1    1    2    0    0 -0.17230343474E+03 -0.15361448820E+03  0.56295932923E+03  0.62115544832E+03  0.12500000000E+03 0.  0.
         21    1    1    2  503  501  0.17230343474E+03  0.15361448820E+03  0.47758220512E+03  0.53044382101E+03  0.00000000000E+00 0.  1.
<mgrwt>
<rscale>  3 0.26250883E+03</rscale>
<asrwt>0</asrwt>
<pdfrwt beam="1">  1       21 0.16862620E+00 0.26250883E+03</pdfrwt>
<pdfrwt beam="2">  1       21 0.85429036E-02 0.26250883E+03</pdfrwt>
<totfact> 0.22378191E+04</totfact>
</mgrwt>
</event>
<event>
 4    0  0.1003929E-001  0.2492438E+03  0.7546771E-02  0.1113784E+00
         21   -1    0    0  502  501  0.00000000000E+00  0.00000000000E+00  0.38269642515E+03  0.38269642515E+03  0.00000000000E+00 0.  1.
         21   -1    0    0  503  502 -0.00000000000E+00 -0.00000000000E+00 -0.14119092504E+03  0.14119092504E+03  0.00000000000E+00 0. -1.
         25    1    1    2    0    0 -0.10187015165E+03  0.19005246042E+03  0.13217111301E+03  0.28211995431E+03  0.12500000000E+03 0.  0.
         21    1    1    2  503  501  0.10187015165E+03 -0.19005246042E+03  0.10933438710E+03  0.24176739588E+03  0.00000000000E+00 0. -1.
<mgrwt>
<rscale>  3 0.24924379E+03</rscale>
<asrwt>0</asrwt>
<pdfrwt beam="1">  1       21 0.58876372E-01 0.24924379E+03</pdfrwt>
<pdfrwt beam="2">  1       21 0.21721681E-01 0.24924379E+03</pdfrwt>
<totfact> 0.52029063E+04</totfact>
</mgrwt>
</event>
<event>
 4    0  0.1369232E-001  0.2748242E+03  0.7546771E-02  0.1098550E+00
         21   -1    0    0  503  501  0.00000000000E+00  0.00000000000E+00  0.18432290215E+03  0.18432290215E+03  0.00000000000E+00 0.  1.
         21   -1    0    0  501  502 -0.00000000000E+00 -0.00000000000E+00 -0.47092025478E+03  0.47092025478E+03  0.00000000000E+00 0.  1.
         25    1    1    2    0    0  0.12092512686E+03  0.21279207359E+03  0.45832434925E+01  0.27486243652E+03  0.12500000000E+03 0.  0.
         21    1    1    2  503  502 -0.12092512686E+03 -0.21279207359E+03 -0.29118059612E+03  0.38038072040E+03  0.00000000000E+00 0.  1.
<mgrwt>
<rscale>  3 0.27482422E+03</rscale>
<asrwt>0</asrwt>
<pdfrwt beam="1">  1       21 0.28357369E-01 0.27482422E+03</pdfrwt>
<pdfrwt beam="2">  1       21 0.72449270E-01 0.27482422E+03</pdfrwt>
<totfact> 0.19553039E+04</totfact>
</mgrwt>
</event>
<event>
 4    0  0.1452263E-001  0.2509999E+03  0.7546771E-02  0.1112675E+00
         21   -1    0    0  503  501  0.00000000000E+00  0.00000000000E+00  0.35941187306E+03  0.35941187306E+03  0.00000000000E+00 0. -1.
         21   -1    0    0  501  502 -0.00000000000E+00 -0.00000000000E+00 -0.20432927676E+03  0.20432927676E+03  0.00000000000E+00 0. -1.
         25    1    1    2    0    0  0.19055722112E+03 -0.10518513367E+03  0.22297704540E+03  0.33573759045E+03  0.12500000000E+03 0.  0.
         21    1    1    2  503  502 -0.19055722112E+03  0.10518513367E+03 -0.67894449105E+02  0.22800355937E+03  0.00000000000E+00 0. -1.
<mgrwt>
<rscale>  3 0.25099993E+03</rscale>
<asrwt>0</asrwt>
<pdfrwt beam="1">  1       21 0.55294134E-01 0.25099993E+03</pdfrwt>
<pdfrwt beam="2">  1       21 0.31435273E-01 0.25099993E+03</pdfrwt>
<totfact> 0.29128871E+04</totfact>
</mgrwt>
</event>
<event>
 4    0  0.1117874E-001  0.2636827E+03  0.7546771E-02  0.1104951E+00
         21   -1    0    0  502  501  0.00000000000E+00  0.00000000000E+00  0.49833131282E+02  0.49833131282E+02  0.00000000000E+00 0. -1.
         21   -1    0    0  503  502 -0.00000000000E+00 -0.00000000000E+00 -0.16299736467E+04  0.16299736467E+04  0.00000000000E+00 0. -1.
         25    1    1    2    0    0  0.92051979559E+02 -0.21314320211E+03 -0.41445055277E+03  0.49122077749E+03  0.12500000000E+03 0.  0.
         21    1    1    2  503  501 -0.92051979559E+02  0.21314320211E+03 -0.11656899627E+04  0.11885860005E+04  0.00000000000E+00 0. -1.
<mgrwt>
<rscale>  3 0.26368275E+03</rscale>
<asrwt>0</asrwt>
<pdfrwt beam="1">  1       21 0.76666352E-02 0.26368275E+03</pdfrwt>
<pdfrwt beam="2">  1       21 0.25076519E+00 0.26368275E+03</pdfrwt>
<totfact> 0.80058263E+03</totfact>
</mgrwt>
</event>
<event>
 4    0  0.1003929E-001  0.3364827E+03  0.7546771E-02  0.1068304E+00
         21   -1    0    0  503  501  0.00000000000E+00  0.00000000000E+00  0.60906845489E+03  0.60906845489E+03  0.00000000000E+00 0. -1.
         21   -1    0    0  501  502 -0.00000000000E+00 -0.00000000000E+00 -0.20385494960E+03  0.20385494960E+03  0.00000000000E+00 0.  1.
         25    1    1    2    0    0 -0.30951795636E+03 -0.42358517229E+02  0.36746502459E+03  0.49824808438E+03  0.12500000000E+03 0.  0.
         21    1    1    2  503  502  0.30951795636E+03  0.42358517229E+02  0.37748480704E+02  0.31467532011E+03  0.00000000000E+00 0.  1.
<mgrwt>
<rscale>  3 0.33648270E+03</rscale>
<asrwt>0</asrwt>
<pdfrwt beam="1">  1       21 0.93702838E-01 0.33648270E+03</pdfrwt>
<pdfrwt beam="2">  1       21 0.31362300E-01 0.33648270E+03</pdfrwt>
<totfact> 0.86363143E+03</totfact>
</mgrwt>
</event>
<event>
 4    0  0.1500670E-001  0.2460644E+03  0.7546771E-02  0.1115818E+00
         21   -1    0    0  502  501  0.00000000000E+00  0.00000000000E+00  0.59991481215E+03  0.59991481215E+03  0.00000000000E+00 0. -1.
         21   -1    0    0  503  502 -0.00000000000E+00 -0.00000000000E+00 -0.91495447924E+02  0.91495447924E+02  0.00000000000E+00 0. -1.
         25    1    1    2    0    0 -0.21183166921E+03 -0.70745572064E+01  0.34507303575E+03  0.42381966146E+03  0.12500000000E+03 0.  0.
         21    1    1    2  503  501  0.21183166921E+03  0.70745572064E+01  0.16334632847E+03  0.26759059861E+03  0.00000000000E+00 0. -1.
<mgrwt>
<rscale>  3 0.24606443E+03</rscale>
<asrwt>0</asrwt>
<pdfrwt beam="1">  1       21 0.92294584E-01 0.24606443E+03</pdfrwt>
<pdfrwt beam="2">  1       21 0.14076223E-01 0.24606443E+03</pdfrwt>
<totfact> 0.42519021E+04</totfact>
</mgrwt>
</event>
<event>
 4    0  0.1026878E-001  0.3615832E+03  0.7546771E-02  0.1057959E+00
         21   -1    0    0  503  501  0.00000000000E+00  0.00000000000E+00  0.15699030791E+04  0.15699030791E+04  0.00000000000E+00 0. -1.
         21   -1    0    0  501  502 -0.00000000000E+00 -0.00000000000E+00 -0.12752606797E+03  0.12752606797E+03  0.00000000000E+00 0. -1.
         25    1    1    2    0    0 -0.15000769325E+03 -0.30432733087E+03  0.12628000171E+04  0.13135472263E+04  0.12500000000E+03 0.  0.
         21    1    1    2  503  502  0.15000769325E+03  0.30432733087E+03  0.17957699399E+03  0.38388192081E+03  0.00000000000E+00 0. -1.
<mgrwt>
<rscale>  3 0.36158323E+03</rscale>
<asrwt>0</asrwt>
<pdfrwt beam="1">  1       21 0.24152354E+00 0.36158323E+03</pdfrwt>
<pdfrwt beam="2">  1       21 0.19619396E-01 0.36158323E+03</pdfrwt>
<totfact> 0.15527139E+03</totfact>
</mgrwt>
</event>
<event>
 4    0  0.1003929E-001  0.2488338E+03  0.7546771E-02  0.1114044E+00
         21   -1    0    0  502  501  0.00000000000E+00  0.00000000000E+00  0.83048636250E+02  0.83048636250E+02  0.00000000000E+00 0.  1.
         21   -1    0    0  503  502 -0.00000000000E+00 -0.00000000000E+00 -0.13664157109E+04  0.13664157109E+04  0.00000000000E+00 0.  1.
         25    1    1    2    0    0  0.21338863700E+03 -0.27542185945E+02 -0.13895700568E+03  0.28500409091E+03  0.12500000000E+03 0.  0.
         21    1    1    2  503  501 -0.21338863700E+03  0.27542185945E+02 -0.11444100690E+04  0.11644602562E+04  0.00000000000E+00 0.  1.
<mgrwt>
<rscale>  3 0.24883384E+03</rscale>
<asrwt>0</asrwt>
<pdfrwt beam="1">  1       21 0.12776714E-01 0.24883384E+03</pdfrwt>
<pdfrwt beam="2">  1       21 0.21021779E+00 0.24883384E+03</pdfrwt>
<totfact> 0.57888164E+03</totfact>
</mgrwt>
</event>
<event>
 4    0  0.1212534E-001  0.2572884E+03  0.7546771E-02  0.1108783E+00
         21   -1    0    0  503  501  0.00000000000E+00  0.00000000000E+00  0.43156634696E+02  0.43156634696E+02  0.00000000000E+00 0. -1.
         21   -1    0    0  501  502 -0.00000000000E+00 -0.00000000000E+00 -0.13471575197E+04  0.13471575197E+04  0.00000000000E+00 0. -1.
         25    1    1    2    0    0  0.11874409625E+03  0.19097687685E+03 -0.70748683024E+03  0.75281800114E+03  0.12500000000E+03 0.  0.
         21    1    1    2  503  502 -0.11874409625E+03 -0.19097687685E+03 -0.59651405482E+03  0.63749615330E+03  0.00000000000E+00 0. -1.
<mgrwt>
<rscale>  3 0.25728841E+03</rscale>
<asrwt>0</asrwt>
<pdfrwt beam="1">  1       21 0.66394816E-02 0.25728841E+03</pdfrwt>
<pdfrwt beam="2">  1       21 0.20725502E+00 0.25728841E+03</pdfrwt>
<totfact> 0.19132004E+04</totfact>
</mgrwt>
</event>
<event>
 4    0  0.1185531E-001  0.2424505E+03  0.7546771E-02  0.1118171E+00
         21   -1    0    0  502  501  0.00000000000E+00  0.00000000000E+00  0.89024567937E+02  0.89024567937E+02  0.00000000000E+00 0.  1.
         21   -1    0    0  503  502 -0.00000000000E+00 -0.00000000000E+00 -0.95483787512E+03  0.95483787512E+03  0.00000000000E+00 0.  1.
         25    1    1    2    0    0 -0.14668632518E+02 -0.20722473569E+03 -0.12167375197E+03  0.27126879987E+03  0.12500000000E+03 0.  0.
         21    1    1    2  503  501  0.14668632518E+02  0.20722473569E+03 -0.74413955522E+03  0.77259364319E+03  0.00000000000E+00 0.  1.
<mgrwt>
<rscale>  3 0.24245053E+03</rscale>
<asrwt>0</asrwt>
<pdfrwt beam="1">  1       21 0.13696087E-01 0.24245053E+03</pdfrwt>
<pdfrwt beam="2">  1       21 0.14689813E+00 0.24245053E+03</pdfrwt>
<totfact> 0.14139891E+04</totfact>
</mgrwt>
</event>
<event>
 4    0  0.1437186E-001  0.3545435E+03  0.7546771E-02  0.1060766E+00
         21   -1    0    0  503  501  0.00000000000E+00  0.00000000000E+00  0.62610856156E+03  0.62610856156E+03  0.00000000000E+00 0. -1.
         21   -1    0    0  501  502 -0.00000000000E+00 -0.00000000000E+00 -0.25744560345E+03  0.25744560345E+03  0.00000000000E+00 0. -1.
         25    1    1    2    0    0 -0.32993858047E+03  0.34880202180E+02  0.41802003622E+03  0.54812575753E+03  0.12500000000E+03 0.  0.
         21    1    1    2  503  502  0.32993858047E+03 -0.34880202180E+02 -0.49357078110E+02  0.33542840748E+03  0.00000000000E+00 0. -1.
<mgrwt>
<rscale>  3 0.35454350E+03</rscale>
<asrwt>0</asrwt>
<pdfrwt beam="1">  1       21 0.96324394E-01 0.35454350E+03</pdfrwt>
<pdfrwt beam="2">  1       21 0.39607016E-01 0.35454350E+03</pdfrwt>
<totfact> 0.50155744E+03</totfact>
</mgrwt>
</event>
<event>
 4    0  0.1075917E-001  0.3442111E+03  0.7546771E-02  0.1065016E+00
         21   -1    0    0  503  501  0.00000000000E+00  0.00000000000E+00  0.82742284763E+03  0.82742284763E+03  0.00000000000E+00 0. -1.
         21   -1    0    0  501  502 -0.00000000000E+00 -0.00000000000E+00 -0.13635816136E+03  0.13635816136E+03  0.00000000000E+00 0. -1.
         25    1    1    2    0    0  0.31989800762E+03  0.22837852708E+02  0.28880755667E+03  0.44932294354E+03  0.12500000000E+03 0.  0.
         21    1    1    2  503  502 -0.31989800762E+03 -0.22837852708E+02  0.40225712960E+03  0.51445806545E+03  0.00000000000E+00 0. -1.
<mgrwt>
<rscale>  3 0.34421113E+03</rscale>
<asrwt>0</asrwt>
<pdfrwt beam="1">  1       21 0.12729582E+00 0.34421113E+03</pdfrwt>
<pdfrwt beam="2">  1       21 0.20978179E-01 0.34421113E+03</pdfrwt>
<totfact> 0.88365008E+03</totfact>
</mgrwt>
</event>
<event>
 4    0  0.1395305E-001  0.3717190E+03  0.7546771E-02  0.1054038E+00
         21   -1    0    0  502  501  0.00000000000E+00  0.00000000000E+00  0.67375744177E+03  0.67375744177E+03  0.00000000000E+00 0. -1.
         21   -1    0    0  503  502 -0.00000000000E+00 -0.00000000000E+00 -0.23443011259E+03  0.23443011259E+03  0.00000000000E+00 0. -1.
         25    1    1    2    0    0  0.28843259735E+03  0.19838503239E+03  0.41520175874E+03  0.55728581962E+03  0.12500000000E+03 0.  0.
         21    1    1    2  503  501 -0.28843259735E+03 -0.19838503239E+03  0.24125570442E+02  0.35090173474E+03  0.00000000000E+00 0. -1.
<mgrwt>
<rscale>  3 0.37171896E+03</rscale>
<asrwt>0</asrwt>
<pdfrwt beam="1">  1       21 0.10365499E+00 0.37171896E+03</pdfrwt>
<pdfrwt beam="2">  1       21 0.36066171E-01 0.37171896E+03</pdfrwt>
<totfact> 0.50463278E+03</totfact>
</mgrwt>
</event>
<event>
 4    0  0.1037851E-001  0.3185863E+03  0.7546771E-02  0.1076302E+00
         21   -1    0    0  502  501  0.00000000000E+00  0.00000000000E+00  0.59873025922E+03  0.59873025922E+03  0.00000000000E+00 0. -1.
         21   -1    0    0  503  502 -0.00000000000E+00 -0.00000000000E+00 -0.21005076966E+03  0.21005076966E+03  0.00000000000E+00 0. -1.
         25    1    1    2    0    0 -0.74607007704E+01  0.29294465884E+03 -0.42465656114E+01  0.31861460813E+03  0.12500000000E+03 0.  0.
         21    1    1    2  503  501  0.74607007704E+01 -0.29294465884E+03  0.39292605517E+03  0.49016642074E+03  0.00000000000E+00 0. -1.
<mgrwt>
<rscale>  3 0.31858631E+03</rscale>
<asrwt>0</asrwt>
<pdfrwt beam="1">  1       21 0.92112347E-01 0.31858631E+03</pdfrwt>
<pdfrwt beam="2">  1       21 0.32315503E-01 0.31858631E+03</pdfrwt>
<totfact> 0.85395998E+03</totfact>
</mgrwt>
</event>
<event>
 4    0  0.1637327E-001  0.3271464E+03  0.7546771E-02  0.1072407E+00
         21   -1    0    0  503  501  0.00000000000E+00  0.00000000000E+00  0.46889207875E+03  0.46889207875E+03  0.00000000000E+00 0. -1.
         21   -1    0    0  501  502 -0.00000000000E+00 -0.00000000000E+00 -0.95415333709E+03  0.95415333709E+03  0.00000000000E+00 0.  1.
         25    1    1    2    0    0 -0.65680696853E+02  0.29510304751E+03  0.38297399520E+03  0.50368029899E+03  0.12500000000E+03 0.  0.
         21    1    1    2  503  502  0.65680696853E+02 -0.29510304751E+03 -0.86823525354E+03  0.91936511685E+03  0.00000000000E+00 0.  1.
<mgrwt>
<rscale>  3 0.32714639E+03</rscale>
<asrwt>0</asrwt>
<pdfrwt beam="1">  1       21 0.72137243E-01 0.32714639E+03</pdfrwt>
<pdfrwt beam="2">  1       21 0.14679282E+00 0.32714639E+03</pdfrwt>
<totfact> 0.48822257E+02</totfact>
</mgrwt>
</event>
<event>
 4    0  0.1318340E-001  0.2463915E+03  0.7546771E-02  0.1115607E+00
         21   -1    0    0  503  501  0.00000000000E+00  0.00000000000E+00  0.34189920079E+03  0.34189920079E+03  0.00000000000E+00 0.  1.
         21   -1    0    0  501  502 -0.00000000000E+00 -0.00000000000E+00 -0.26325735380E+03  0.26325735380E+03  0.00000000000E+00 0. -1.
         25    1    1    2    0    0 -0.16992516643E+03 -0.12731531578E+03  0.23576097619E+03  0.34101611357E+03  0.12500000000E+03 0.  0.
         21    1    1    2  503  502  0.16992516643E+03  0.12731531578E+03 -0.15711912921E+03  0.26414044102E+03  0.00000000000E+00 0. -1.
<mgrwt>
<rscale>  3 0.24639146E+03</rscale>
<asrwt>0</asrwt>
<pdfrwt beam="1">  1       21 0.52599877E-01 0.24639146E+03</pdfrwt>
<pdfrwt beam="2">  1       21 0.40501131E-01 0.24639146E+03</pdfrwt>
<totfact> 0.19540170E+04</totfact>
</mgrwt>
</event>
<event>
 4    0  0.1003929E-001  0.2418476E+03  0.7546771E-02  0.1118568E+00
         21   -1    0    0  503  501  0.00000000000E+00  0.00000000000E+00  0.33803415042E+03  0.33803415042E+03  0.00000000000E+00 0. -1.
         21   -1    0    0  501  502 -0.00000000000E+00 -0.00000000000E+00 -0.23621704517E+03  0.23621704517E+03  0.00000000000E+00 0. -1.
         25    1    1    2    0    0 -0.18820015980E+03  0.86290025425E+02 -0.12071527471E+03  0.27030065887E+03  0.12500000000E+03 0.  0.
         21    1    1    2  503  502  0.18820015980E+03 -0.86290025425E+02  0.22253237996E+03  0.30395053672E+03  0.00000000000E+00 0. -1.
<mgrwt>
<rscale>  3 0.24184761E+03</rscale>
<asrwt>0</asrwt>
<pdfrwt beam="1">  1       21 0.52005254E-01 0.24184761E+03</pdfrwt>
<pdfrwt beam="2">  1       21 0.36341084E-01 0.24184761E+03</pdfrwt>
<totfact> 0.24968175E+04</totfact>
</mgrwt>
</event>
<event>
 4    0  0.1003929E-001  0.2360672E+03  0.7546771E-02  0.1122441E+00
         21   -1    0    0  502  501  0.00000000000E+00  0.00000000000E+00  0.19722322995E+03  0.19722322995E+03  0.00000000000E+00 0. -1.
         21   -1    0    0  503  502 -0.00000000000E+00 -0.00000000000E+00 -0.27753989502E+03  0.27753989502E+03  0.00000000000E+00 0.  1.
         25    1    1    2    0    0  0.19797712850E+03 -0.30129062747E+02  0.42474850871E+02  0.23985790958E+03  0.12500000000E+03 0.  0.
         21    1    1    2  503  501 -0.19797712850E+03  0.30129062747E+02 -0.12279151595E+03  0.23490521539E+03  0.00000000000E+00 0.  1.
<mgrwt>
<rscale>  3 0.23606716E+03</rscale>
<asrwt>0</asrwt>
<pdfrwt beam="1">  1       21 0.30342036E-01 0.23606716E+03</pdfrwt>
<pdfrwt beam="2">  1       21 0.42698445E-01 0.23606716E+03</pdfrwt>
<totfact> 0.53931672E+04</totfact>
</mgrwt>
</event>
<event>
 4    0  0.1008634E-001  0.3377271E+03  0.7546771E-02  0.1067768E+00
         21   -1    0    0  502  501  0.00000000000E+00  0.00000000000E+00  0.16254495210E+03  0.16254495210E+03  0.00000000000E+00 0. -1.
         21   -1    0    0  503  502 -0.00000000000E+00 -0.00000000000E+00 -0.14052212086E+04  0.14052212086E+04  0.00000000000E+00 0. -1.
         25    1    1    2    0    0  0.23468762602E+03  0.20822175552E+03 -0.58530076256E+02  0.34276136174E+03  0.12500000000E+03 0.  0.
         21    1    1    2  503  501 -0.23468762602E+03 -0.20822175552E+03 -0.11841461803E+04  0.12250047990E+04  0.00000000000E+00 0. -1.
<mgrwt>
<rscale>  3 0.33772708E+03</rscale>
<asrwt>0</asrwt>
<pdfrwt beam="1">  1       21 0.25006916E-01 0.33772708E+03</pdfrwt>
<pdfrwt beam="2">  1       21 0.21618787E+00 0.33772708E+03</pdfrwt>
<totfact> 0.14249684E+03</totfact>
</mgrwt>
</event>
<event>
 4    0  0.1923938E-001  0.3079404E+03  0.7546771E-02  0.1081337E+00
         21   -1    0    0  502  501  0.00000000000E+00  0.00000000000E+00  0.51212308719E+03  0.51212308719E+03  0.00000000000E+00 0. -1.
         21   -1    0    0  503  502 -0.00000000000E+00 -0.00000000000E+00 -0.81913145862E+03  0.81913145862E+03  0.00000000000E+00 0.  1.
         25    1    1    2    0    0  0.17590965516E+03  0.21967720358E+03  0.43768399586E+03  0.53515844455E+03  0.12500000000E+03 0.  0.
         21    1    1    2  503  501 -0.17590965516E+03 -0.21967720358E+03 -0.74469236728E+03  0.79609610126E+03  0.00000000000E+00 0.  1.
<mgrwt>
<rscale>  3 0.30794038E+03</rscale>
<asrwt>0</asrwt>
<pdfrwt beam="1">  1       21 0.78788167E-01 0.30794038E+03</pdfrwt>
<pdfrwt beam="2">  1       21 0.12602022E+00 0.30794038E+03</pdfrwt>
<totfact> 0.60258170E+02</totfact>
</mgrwt>
</event>
<event>
 4    0  0.1428609E-001  0.2441956E+03  0.7546771E-02  0.1117029E+00
         21   -1    0    0  502  501  0.00000000000E+00  0.00000000000E+00  0.11130283851E+03  0.11130283851E+03  0.00000000000E+00 0.  1.
         21   -1    0    0  503  502 -0.00000000000E+00 -0.00000000000E+00 -0.58349912578E+03  0.58349912578E+03  0.00000000000E+00 0.  1.
         25    1    1    2    0    0 -0.20805810921E+03 -0.26801164741E+02 -0.92726896128E+02  0.26120826270E+03  0.12500000000E+03 0.  0.
         21    1    1    2  503  501  0.20805810921E+03  0.26801164741E+02 -0.37946939114E+03  0.43359370158E+03  0.00000000000E+00 0.  1.
<mgrwt>
<rscale>  3 0.24419558E+03</rscale>
<asrwt>0</asrwt>
<pdfrwt beam="1">  1       21 0.17123513E-01 0.24419558E+03</pdfrwt>
<pdfrwt beam="2">  1       21 0.89769097E-01 0.24419558E+03</pdfrwt>
<totfact> 0.31681619E+04</totfact>
</mgrwt>
</event>
<event>
 4    0  0.1003929E-001  0.2545623E+03  0.7546771E-02  0.1110455E+00
         21   -1    0    0  502  501  0.00000000000E+00  0.00000000000E+00  0.12926044240E+03  0.12926044240E+03  0.00000000000E+00 0.  1.
         21   -1    0    0  503  502 -0.00000000000E+00 -0.00000000000E+00 -0.48024728013E+03  0.48024728013E+03  0.00000000000E+00 0. -1.
         25    1    1    2    0    0 -0.95663441314E+02 -0.20006362678E+03 -0.97209402761E+02  0.27249149849E+03  0.12500000000E+03 0.  0.
         21    1    1    2  503  501  0.95663441314E+02  0.20006362678E+03 -0.25377743497E+03  0.33701622404E+03  0.00000000000E+00 0. -1.
<mgrwt>
<rscale>  3 0.25456227E+03</rscale>
<asrwt>0</asrwt>
<pdfrwt beam="1">  1       21 0.19886221E-01 0.25456227E+03</pdfrwt>
<pdfrwt beam="2">  1       21 0.73884199E-01 0.25456227E+03</pdfrwt>
<totfact> 0.37233303E+04</totfact>
</mgrwt>
</event>
<event>
 4    0  0.1220792E-001  0.2935904E+03  0.7546771E-02  0.1088489E+00
         21   -1    0    0  503  501  0.00000000000E+00  0.00000000000E+00  0.12332406909E+04  0.12332406909E+04  0.00000000000E+00 0. -1.
         21   -1    0    0  501  502 -0.00000000000E+00 -0.00000000000E+00 -0.92660520762E+02  0.92660520762E+02  0.00000000000E+00 0. -1.
         25    1    1    2    0    0 -0.72982778594E+02 -0.25542869683E+03  0.96200705628E+03  0.10058095652E+04  0.12500000000E+03 0.  0.
         21    1    1    2  503  502  0.72982778594E+02  0.25542869683E+03  0.17857311386E+03  0.32009164645E+03  0.00000000000E+00 0. -1.
<mgrwt>
<rscale>  3 0.29359037E+03</rscale>
<asrwt>0</asrwt>
<pdfrwt beam="1">  1       21 0.18972933E+00 0.29359037E+03</pdfrwt>
<pdfrwt beam="2">  1       21 0.14255466E-01 0.29359037E+03</pdfrwt>
<totfact> 0.62666280E+03</totfact>
</mgrwt>
</event>
<event>
 4    0  0.1454243E-001  0.2689420E+03  0.7546771E-02  0.1101887E+00
         21   -1    0    0  502  501  0.00000000000E+00  0.00000000000E+00  0.91095284728E+02  0.91095284728E+02  0.00000000000E+00 0. -1.
         21   -1    0    0  503  502 -0.00000000000E+00 -0.00000000000E+00 -0.70756515793E+03  0.70756515793E+03  0.00000000000E+00 0. -1.
         25    1    1    2    0    0  0.69990365332E+02 -0.22760958649E+03 -0.34774079219E+03  0.43960599820E+03  0.12500000000E+03 0.  0.
         21    1    1    2  503  501 -0.69990365332E+02  0.22760958649E+03 -0.26872908101E+03  0.35905444446E+03  0.00000000000E+00 0. -1.
<mgrwt>
<rscale>  3 0.26894195E+03</rscale>
<asrwt>0</asrwt>
<pdfrwt beam="1">  1       21 0.14014660E-01 0.26894195E+03</pdfrwt>
<pdfrwt beam="2">  1       21 0.10885617E+00 0.26894195E+03</pdfrwt>
<totfact> 0.28587008E+04</totfact>
</mgrwt>
</event>
<event>
 4    0  0.1290077E-001  0.2770286E+03  0.7546771E-02  0.1097323E+00
         21   -1    0    0  502  501  0.00000000000E+00  0.00000000000E+00  0.10553540954E+03  0.10553540954E+03  0.00000000000E+00 0.  1.
         21   -1    0    0  503  502 -0.00000000000E+00 -0.00000000000E+00 -0.65595272329E+03  0.65595272329E+03  0.00000000000E+00 0.  1.
         25    1    1    2    0    0 -0.14511197091E+03  0.20015590393E+03 -0.25792076632E+03  0.37850758471E+03  0.12500000000E+03 0.  0.
         21    1    1    2  503  501  0.14511197091E+03 -0.20015590393E+03 -0.29249654743E+03  0.38298054812E+03  0.00000000000E+00 0.  1.
<mgrwt>
<rscale>  3 0.27702864E+03</rscale>
<asrwt>0</asrwt>
<pdfrwt beam="1">  1       21 0.16236217E-01 0.27702864E+03</pdfrwt>
<pdfrwt beam="2">  1       21 0.10091580E+00 0.27702864E+03</pdfrwt>
<totfact> 0.26125915E+04</totfact>
</mgrwt>
</event>
<event>
 4    0  0.1031120E-001  0.2498680E+03  0.7546771E-02  0.1113388E+00
         21   -1    0    0  502  501  0.00000000000E+00  0.00000000000E+00  0.61796645382E+02  0.61796645382E+02  0.00000000000E+00 0.  1.
         21   -1    0    0  503  502 -0.00000000000E+00 -0.00000000000E+00 -0.96589977567E+03  0.96589977567E+03  0.00000000000E+00 0.  1.
         25    1    1    2    0    0  0.20950731741E+03 -0.53997191488E+02 -0.63509141629E+03  0.68247719359E+03  0.12500000000E+03 0.  0.
         21    1    1    2  503  501 -0.20950731741E+03  0.53997191488E+02 -0.26901171401E+03  0.34521922746E+03  0.00000000000E+00 0.  1.
<mgrwt>
<rscale>  3 0.24986799E+03</rscale>
<asrwt>0</asrwt>
<pdfrwt beam="1">  1       21 0.95071765E-02 0.24986799E+03</pdfrwt>
<pdfrwt beam="2">  1       21 0.14859996E+00 0.24986799E+03</pdfrwt>
<totfact> 0.26287827E+04</totfact>
</mgrwt>
</event>
<event>
 4    0  0.1115875E-001  0.2645406E+03  0.7546771E-02  0.1104445E+00
         21   -1    0    0  503  501  0.00000000000E+00  0.00000000000E+00  0.30098527934E+03  0.30098527934E+03  0.00000000000E+00 0.  1.
         21   -1    0    0  501  502 -0.00000000000E+00 -0.00000000000E+00 -0.69587341600E+03  0.69587341600E+03  0.00000000000E+00 0.  1.
         25    1    1    2    0    0 -0.22243028272E+03 -0.69867670111E+02  0.21693759714E+03  0.34211641739E+03  0.12500000000E+03 0.  0.
         21    1    1    2  503  502  0.22243028272E+03  0.69867670111E+02 -0.61182573379E+03  0.65474227794E+03  0.00000000000E+00 0.  1.
<mgrwt>
<rscale>  3 0.26454059E+03</rscale>
<asrwt>0</asrwt>
<pdfrwt beam="1">  1       21 0.46305427E-01 0.26454059E+03</pdfrwt>
<pdfrwt beam="2">  1       21 0.10705745E+00 0.26454059E+03</pdfrwt>
<totfact> 0.29515097E+03</totfact>
</mgrwt>
</event>
<event>
 4    0  0.1357686E-001  0.2508890E+03  0.7546771E-02  0.1112744E+00
         21   -1    0    0  502  501  0.00000000000E+00  0.00000000000E+00  0.16586945250E+03  0.16586945250E+03  0.00000000000E+00 0.  1.
         21   -1    0    0  503  502 -0.00000000000E+00 -0.00000000000E+00 -0.33096789101E+03  0.33096789101E+03  0.00000000000E+00 0.  1.
         25    1    1    2    0    0 -0.10934278498E+03  0.18805440248E+03 -0.81502065242E+02  0.26379516591E+03  0.12500000000E+03 0.  0.
         21    1    1    2  503  501  0.10934278498E+03 -0.18805440248E+03 -0.83596373274E+02  0.23304217760E+03  0.00000000000E+00 0.  1.
<mgrwt>
<rscale>  3 0.25088903E+03</rscale>
<asrwt>0</asrwt>
<pdfrwt beam="1">  1       21 0.25518378E-01 0.25088903E+03</pdfrwt>
<pdfrwt beam="2">  1       21 0.50918137E-01 0.25088903E+03</pdfrwt>
<totfact> 0.52075184E+04</totfact>
</mgrwt>
</event>
<event>
 4    0  0.1431208E-001  0.2392642E+03  0.7546771E-02  0.1120284E+00
         21   -1    0    0  502  501  0.00000000000E+00  0.00000000000E+00  0.21519310411E+03  0.21519310411E+03  0.00000000000E+00 0.  1.
         21   -1    0    0  503  502 -0.00000000000E+00 -0.00000000000E+00 -0.52975225440E+03  0.52975225440E+03  0.00000000000E+00 0. -1.
         25    1    1    2    0    0 -0.97442308254E+02  0.17924104269E+03  0.11793223378E+03  0.26674963277E+03  0.12500000000E+03 0.  0.
         21    1    1    2  503  501  0.97442308254E+02 -0.17924104269E+03 -0.43249138407E+03  0.47819572574E+03  0.00000000000E+00 0. -1.
<mgrwt>
<rscale>  3 0.23926419E+03</rscale>
<asrwt>0</asrwt>
<pdfrwt beam="1">  1       21 0.33106632E-01 0.23926419E+03</pdfrwt>
<pdfrwt beam="2">  1       21 0.81500346E-01 0.23926419E+03</pdfrwt>
<totfact> 0.11248483E+04</totfact>
</mgrwt>
</event>
<event>
 4    0  0.1003929E-001  0.2428650E+03  0.7546771E-02  0.1117899E+00
         21   -1    0    0  503  501  0.00000000000E+00  0.00000000000E+00  0.17009785333E+02  0.17009785333E+02  0.00000000000E+00 0. -1.
         21   -1    0    0  501  502 -0.00000000000E+00 -0.00000000000E+00 -0.30043062661E+04  0.30043062661E+04  0.00000000000E+00 0. -1.
         25    1    1    2    0    0  0.14630082316E+03  0.14817049855E+03 -0.15064161765E+04  0.15258679905E+04  0.12500000000E+03 0.  0.
         21    1    1    2  503  502 -0.14630082316E+03 -0.14817049855E+03 -0.14808803043E+04  0.14954480610E+04  0.00000000000E+00 0. -1.
<mgrwt>
<rscale>  3 0.24286504E+03</rscale>
<asrwt>0</asrwt>
<pdfrwt beam="1">  1       21 0.26168893E-02 0.24286504E+03</pdfrwt>
<pdfrwt beam="2">  1       21 0.46220111E+00 0.24286504E+03</pdfrwt>
<totfact> 0.25577163E+03</totfact>
</mgrwt>
</event>
<event>
 4    0  0.1293383E-001  0.2441995E+03  0.7546771E-02  0.1117026E+00
         21   -1    0    0  502  501  0.00000000000E+00  0.00000000000E+00  0.76383214113E+02  0.76383214113E+02  0.00000000000E+00 0.  1.
         21   -1    0    0  503  502 -0.00000000000E+00 -0.00000000000E+00 -0.70318549328E+03  0.70318549328E+03  0.00000000000E+00 0.  1.
         25    1    1    2    0    0 -0.93378310047E+02 -0.18785341845E+03 -0.25776152436E+03  0.35506959748E+03  0.12500000000E+03 0.  0.
         21    1    1    2  503  501  0.93378310047E+02  0.18785341845E+03 -0.36904075480E+03  0.42449910991E+03  0.00000000000E+00 0.  1.
<mgrwt>
<rscale>  3 0.24419954E+03</rscale>
<asrwt>0</asrwt>
<pdfrwt beam="1">  1       21 0.11751264E-01 0.24419954E+03</pdfrwt>
<pdfrwt beam="2">  1       21 0.10818238E+00 0.24419954E+03</pdfrwt>
<totfact> 0.40363235E+04</totfact>
</mgrwt>
</event>
<event>
 4    0  0.1343415E-001  0.2561498E+03  0.7546771E-02  0.1109479E+00
         21   -1    0    0  503  501  0.00000000000E+00  0.00000000000E+00  0.95426410844E+02  0.95426410844E+02  0.00000000000E+00 0.  1.
         21   -1    0    0  501  502 -0.00000000000E+00 -0.00000000000E+00 -0.62862010107E+03  0.62862010107E+03  0.00000000000E+00 0.  1.
         25    1    1    2    0    0  0.22349815706E+03 -0.60259748803E+01 -0.21092741429E+03  0.33181789085E+03  0.12500000000E+03 0.  0.
         21    1    1    2  503  502 -0.22349815706E+03  0.60259748803E+01 -0.32226627593E+03  0.39222862107E+03  0.00000000000E+00 0.  1.
<mgrwt>
<rscale>  3 0.25614984E+03</rscale>
<asrwt>0</asrwt>
<pdfrwt beam="1">  1       21 0.14680986E-01 0.25614984E+03</pdfrwt>
<pdfrwt beam="2">  1       21 0.96710789E-01 0.25614984E+03</pdfrwt>
<totfact> 0.35115914E+04</totfact>
</mgrwt>
</event>
<event>
 4    0  0.1003929E-001  0.4479455E+03  0.7546771E-02  0.1028336E+00
         21   -1    0    0  503  501  0.00000000000E+00  0.00000000000E+00  0.41024937475E+03  0.41024937475E+03  0.00000000000E+00 0.  1.
         21   -1    0    0  501  502 -0.00000000000E+00 -0.00000000000E+00 -0.55545449546E+03  0.55545449546E+03  0.00000000000E+00 0. -1.
         25    1    1    2    0    0 -0.35913108053E+03 -0.23675941439E+03  0.11565504579E+03  0.46263510775E+03  0.12500000000E+03 0.  0.
         21    1    1    2  503  502  0.35913108053E+03  0.23675941439E+03 -0.26086016650E+03  0.50306876247E+03  0.00000000000E+00 0. -1.
<mgrwt>
<rscale>  3 0.44794548E+03</rscale>
<asrwt>0</asrwt>
<pdfrwt beam="1">  1       21 0.63115288E-01 0.44794548E+03</pdfrwt>
<pdfrwt beam="2">  1       21 0.85454538E-01 0.44794548E+03</pdfrwt>
<totfact> 0.23845890E+03</totfact>
</mgrwt>
</event>
<event>
 4    0  0.1003929E-001  0.2961178E+03  0.7546771E-02  0.1087198E+00
         21   -1    0    0  502  501  0.00000000000E+00  0.00000000000E+00  0.14769145392E+03  0.14769145392E+03  0.00000000000E+00 0.  1.
         21   -1    0    0  503  502 -0.00000000000E+00 -0.00000000000E+00 -0.69243651431E+03  0.69243651431E+03  0.00000000000E+00 0. -1.
         25    1    1    2    0    0 -0.19340386937E+03 -0.18616045484E+03 -0.85555499584E+02  0.30822964676E+03  0.12500000000E+03 0.  0.
         21    1    1    2  503  501  0.19340386937E+03  0.18616045484E+03 -0.45918956081E+03  0.53189832148E+03  0.00000000000E+00 0. -1.
<mgrwt>
<rscale>  3 0.29611783E+03</rscale>
<asrwt>0</asrwt>
<pdfrwt beam="1">  1       21 0.22721762E-01 0.29611783E+03</pdfrwt>
<pdfrwt beam="2">  1       21 0.10652870E+00 0.29611783E+03</pdfrwt>
<totfact> 0.12086882E+04</totfact>
</mgrwt>
</event>
<event>
 4    0  0.1552131E-001  0.3172558E+03  0.7546771E-02  0.1076919E+00
         21   -1    0    0  502  501  0.00000000000E+00  0.00000000000E+00  0.21979201588E+03  0.21979201588E+03  0.00000000000E+00 0.  1.
         21   -1    0    0  503  502 -0.00000000000E+00 -0.00000000000E+00 -0.42521959028E+03  0.42521959028E+03  0.00000000000E+00 0.  1.
         25    1    1    2    0    0  0.12897328162E+03 -0.26151894704E+03 -0.13655190397E+03  0.34539497609E+03  0.12500000000E+03 0.  0.
         21    1    1    2  503  501 -0.12897328162E+03  0.26151894704E+03 -0.68875670440E+02  0.29961663007E+03  0.00000000000E+00 0.  1.
<mgrwt>
<rscale>  3 0.31725584E+03</rscale>
<asrwt>0</asrwt>
<pdfrwt beam="1">  1       21 0.33814157E-01 0.31725584E+03</pdfrwt>
<pdfrwt beam="2">  1       21 0.65418398E-01 0.31725584E+03</pdfrwt>
<totfact> 0.17025789E+04</totfact>
</mgrwt>
</event>
<event>
 4    0  0.1074809E-001  0.5791709E+03  0.7546771E-02  0.9949588E-01
         21   -1    0    0  503  501  0.00000000000E+00  0.00000000000E+00  0.28180979547E+03  0.28180979547E+03  0.00000000000E+00 0. -1.
         21   -1    0    0  501  502 -0.00000000000E+00 -0.00000000000E+00 -0.12285433271E+04  0.12285433271E+04  0.00000000000E+00 0. -1.
         25    1    1    2    0    0 -0.56146379255E+03  0.67618943040E+02 -0.65390153519E+03  0.87351366877E+03  0.12500000000E+03 0.  0.
         21    1    1    2  503  502  0.56146379255E+03 -0.67618943040E+02 -0.29283199648E+03  0.63683945383E+03  0.00000000000E+00 0. -1.
<mgrwt>
<rscale>  3 0.57917088E+03</rscale>
<asrwt>0</asrwt>
<pdfrwt beam="1">  1       21 0.43355352E-01 0.57917088E+03</pdfrwt>
<pdfrwt beam="2">  1       21 0.18900667E+00 0.57917088E+03</pdfrwt>
<totfact> 0.63785251E+02</totfact>
</mgrwt>
</event>
<event>
 4    0  0.1181074E-001  0.3352525E+03  0.7546771E-02  0.1068836E+00
         21   -1    0    0  503  501  0.00000000000E+00  0.00000000000E+00  0.36742576599E+03  0.36742576599E+03  0.00000000000E+00 0. -1.
         21   -1    0    0  501  502 -0.00000000000E+00 -0.00000000000E+00 -0.80157239494E+03  0.80157239494E+03  0.00000000000E+00 0. -1.
         25    1    1    2    0    0 -0.23284849557E+03 -0.20627849765E+03  0.24949962889E+03  0.41790466054E+03  0.12500000000E+03 0.  0.
         21    1    1    2  503  502  0.23284849557E+03  0.20627849765E+03 -0.68364625784E+03  0.75109350040E+03  0.00000000000E+00 0. -1.
<mgrwt>
<rscale>  3 0.33525250E+03</rscale>
<asrwt>0</asrwt>
<pdfrwt beam="1">  1       21 0.56527042E-01 0.33525250E+03</pdfrwt>
<pdfrwt beam="2">  1       21 0.12331883E+00 0.33525250E+03</pdfrwt>
<totfact> 0.13067286E+03</totfact>
</mgrwt>
</event>
<event>
 4    0  0.1003929E-001  0.2675659E+03  0.7546771E-02  0.1102681E+00
         21   -1    0    0  503  501  0.00000000000E+00  0.00000000000E+00  0.10201895349E+03  0.10201895349E+03  0.00000000000E+00 0.  1.
         21   -1    0    0  501  502 -0.00000000000E+00 -0.00000000000E+00 -0.77728554706E+03  0.77728554706E+03  0.00000000000E+00 0.  1.
         25    1    1    2    0    0  0.21315295239E+03  0.10262722463E+03 -0.54996219215E+03  0.61159622394E+03  0.12500000000E+03 0.  0.
         21    1    1    2  503  502 -0.21315295239E+03 -0.10262722463E+03 -0.12530440143E+03  0.26770827661E+03  0.00000000000E+00 0.  1.
<mgrwt>
<rscale>  3 0.26756593E+03</rscale>
<asrwt>0</asrwt>
<pdfrwt beam="1">  1       21 0.15695224E-01 0.26756593E+03</pdfrwt>
<pdfrwt beam="2">  1       21 0.11958239E+00 0.26756593E+03</pdfrwt>
<totfact> 0.18439824E+04</totfact>
</mgrwt>
</event>
<event>
 4    0  0.1194880E-001  0.3477654E+03  0.7546771E-02  0.1063536E+00
         21   -1    0    0  502  501  0.00000000000E+00  0.00000000000E+00  0.33896980112E+03  0.33896980112E+03  0.00000000000E+00 0.  1.
         21   -1    0    0  503  502 -0.00000000000E+00 -0.00000000000E+00 -0.45258056985E+03  0.45258056985E+03  0.00000000000E+00 0.  1.
         25    1    1    2    0    0  0.22992049297E+03 -0.22902476236E+03  0.14480419564E+03  0.37670814955E+03  0.12500000000E+03 0.  0.
         21    1    1    2  503  501 -0.22992049297E+03  0.22902476236E+03 -0.25841496437E+03  0.41484222142E+03  0.00000000000E+00 0.  1.
<mgrwt>
<rscale>  3 0.34776540E+03</rscale>
<asrwt>0</asrwt>
<pdfrwt beam="1">  1       21 0.52149201E-01 0.34776540E+03</pdfrwt>
<pdfrwt beam="2">  1       21 0.69627779E-01 0.34776540E+03</pdfrwt>
<totfact> 0.59938765E+03</totfact>
</mgrwt>
</event>
<event>
 4    0  0.1353252E-001  0.2761056E+03  0.7546771E-02  0.1097835E+00
         21   -1    0    0  503  501  0.00000000000E+00  0.00000000000E+00  0.86363353870E+02  0.86363353870E+02  0.00000000000E+00 0. -1.
         21   -1    0    0  501  502 -0.00000000000E+00 -0.00000000000E+00 -0.79169987294E+03  0.79169987294E+03  0.00000000000E+00 0. -1.
         25    1    1    2    0    0 -0.17794563976E+03  0.17013135563E+03 -0.39503988304E+03  0.48196559843E+03  0.12500000000E+03 0.  0.
         21    1    1    2  503  502  0.17794563976E+03 -0.17013135563E+03 -0.31029663603E+03  0.39609762838E+03  0.00000000000E+00 0. -1.
<mgrwt>
<rscale>  3 0.27610565E+03</rscale>
<asrwt>0</asrwt>
<pdfrwt beam="1">  1       21 0.13286670E-01 0.27610565E+03</pdfrwt>
<pdfrwt beam="2">  1       21 0.12179998E+00 0.27610565E+03</pdfrwt>
<totfact> 0.23788539E+04</totfact>
</mgrwt>
</event>
<event>
 4    0  0.1230803E-001  0.4321066E+03  0.7546771E-02  0.1033197E+00
         21   -1    0    0  502  501  0.00000000000E+00  0.00000000000E+00  0.11344249440E+04  0.11344249440E+04  0.00000000000E+00 0. -1.
         21   -1    0    0  503  502 -0.00000000000E+00 -0.00000000000E+00 -0.17478840846E+03  0.17478840846E+03  0.00000000000E+00 0. -1.
         25    1    1    2    0    0 -0.59418708284E+02 -0.40934158573E+03  0.69433112300E+03  0.81780916176E+03  0.12500000000E+03 0.  0.
         21    1    1    2  503  501  0.59418708284E+02  0.40934158573E+03  0.26530541252E+03  0.49140419068E+03  0.00000000000E+00 0. -1.
<mgrwt>
<rscale>  3 0.43210660E+03</rscale>
<asrwt>0</asrwt>
<pdfrwt beam="1">  1       21 0.17452691E+00 0.43210660E+03</pdfrwt>
<pdfrwt beam="2">  1       21 0.26890525E-01 0.43210660E+03</pdfrwt>
<totfact> 0.22462548E+03</totfact>
</mgrwt>
</event>
<event>
 4    0  0.1257582E-001  0.2536099E+03  0.7546771E-02  0.1111044E+00
         21   -1    0    0  503  501  0.00000000000E+00  0.00000000000E+00  0.12378747903E+03  0.12378747903E+03  0.00000000000E+00 0.  1.
         21   -1    0    0  501  502 -0.00000000000E+00 -0.00000000000E+00 -0.65439331830E+03  0.65439331830E+03  0.00000000000E+00 0.  1.
         25    1    1    2    0    0  0.55218721408E+02  0.21364432215E+03 -0.63293193456E+02  0.26138866066E+03  0.12500000000E+03 0.  0.
         21    1    1    2  503  502 -0.55218721408E+02 -0.21364432215E+03 -0.46731264582E+03  0.51679213667E+03  0.00000000000E+00 0.  1.
<mgrwt>
<rscale>  3 0.25360994E+03</rscale>
<asrwt>0</asrwt>
<pdfrwt beam="1">  1       21 0.19044228E-01 0.25360994E+03</pdfrwt>
<pdfrwt beam="2">  1       21 0.10067589E+00 0.25360994E+03</pdfrwt>
<totfact> 0.19744089E+04</totfact>
</mgrwt>
</event>
<event>
 4    0  0.1185676E-001  0.3515419E+03  0.7546771E-02  0.1061984E+00
         21   -1    0    0  503  501  0.00000000000E+00  0.00000000000E+00  0.98546366118E+02  0.98546366118E+02  0.00000000000E+00 0. -1.
         21   -1    0    0  501  502 -0.00000000000E+00 -0.00000000000E+00 -0.14126289790E+04  0.14126289790E+04  0.00000000000E+00 0. -1.
         25    1    1    2    0    0 -0.12880301816E+03 -0.30226885952E+03 -0.36470390395E+03  0.50654774551E+03  0.12500000000E+03 0.  0.
         21    1    1    2  503  502  0.12880301816E+03  0.30226885952E+03 -0.94937870890E+03  0.10046275996E+04  0.00000000000E+00 0. -1.
<mgrwt>
<rscale>  3 0.35154186E+03</rscale>
<asrwt>0</asrwt>
<pdfrwt beam="1">  1       21 0.15160979E-01 0.35154186E+03</pdfrwt>
<pdfrwt beam="2">  1       21 0.21732755E+00 0.35154186E+03</pdfrwt>
<totfact> 0.35774888E+03</totfact>
</mgrwt>
</event>
<event>
 4    0  0.1496549E-001  0.3139795E+03  0.7546771E-02  0.1078454E+00
         21   -1    0    0  502  501  0.00000000000E+00  0.00000000000E+00  0.81785466456E+03  0.81785466456E+03  0.00000000000E+00 0. -1.
         21   -1    0    0  503  502 -0.00000000000E+00 -0.00000000000E+00 -0.11082686545E+03  0.11082686545E+03  0.00000000000E+00 0. -1.
         25    1    1    2    0    0 -0.23666021795E+03 -0.16416475977E+03  0.37825481612E+03  0.49158908962E+03  0.12500000000E+03 0.  0.
         21    1    1    2  503  501  0.23666021795E+03  0.16416475977E+03  0.32877298298E+03  0.43709244039E+03  0.00000000000E+00 0. -1.
<mgrwt>
<rscale>  3 0.31397950E+03</rscale>
<asrwt>0</asrwt>
<pdfrwt beam="1">  1       21 0.12582379E+00 0.31397950E+03</pdfrwt>
<pdfrwt beam="2">  1       21 0.17050288E-01 0.31397950E+03</pdfrwt>
<totfact> 0.13619364E+04</totfact>
</mgrwt>
</event>
<event>
 4    0  0.1003929E-001  0.2641960E+03  0.7546771E-02  0.1104648E+00
         21   -1    0    0  503  501  0.00000000000E+00  0.00000000000E+00  0.26595837648E+02  0.26595837648E+02  0.00000000000E+00 0.  1.
         21   -1    0    0  501  502 -0.00000000000E+00 -0.00000000000E+00 -0.23516301833E+04  0.23516301833E+04  0.00000000000E+00 0.  1.
         25    1    1    2    0    0 -0.84957526234E+02 -0.21669504166E+03 -0.11005940367E+04  0.11318598659E+04  0.12500000000E+03 0.  0.
         21    1    1    2  503  502  0.84957526234E+02  0.21669504166E+03 -0.12244403090E+04  0.12463661551E+04  0.00000000000E+00 0.  1.
<mgrwt>
<rscale>  3 0.26419599E+03</rscale>
<asrwt>0</asrwt>
<pdfrwt beam="1">  1       21 0.40916671E-02 0.26419599E+03</pdfrwt>
<pdfrwt beam="2">  1       21 0.36178928E+00 0.26419599E+03</pdfrwt>
<totfact> 0.51913080E+03</totfact>
</mgrwt>
</event>
<event>
 4    0  0.1554778E-001  0.2716278E+03  0.7546771E-02  0.1100352E+00
         21   -1    0    0  503  501  0.00000000000E+00  0.00000000000E+00  0.16890784084E+03  0.16890784084E+03  0.00000000000E+00 0. -1.
         21   -1    0    0  501  502 -0.00000000000E+00 -0.00000000000E+00 -0.47734189421E+03  0.47734189421E+03  0.00000000000E+00 0. -1.
         25    1    1    2    0    0 -0.13335737176E+03 -0.20092906703E+03 -0.23029623636E+02  0.27260235168E+03  0.12500000000E+03 0.  0.
         21    1    1    2  503  502  0.13335737176E+03  0.20092906703E+03 -0.28540442974E+03  0.37364738336E+03  0.00000000000E+00 0. -1.
<mgrwt>
<rscale>  3 0.27162783E+03</rscale>
<asrwt>0</asrwt>
<pdfrwt beam="1">  1       21 0.25985822E-01 0.27162783E+03</pdfrwt>
<pdfrwt beam="2">  1       21 0.73437213E-01 0.27162783E+03</pdfrwt>
<totfact> 0.22507155E+04</totfact>
</mgrwt>
</event>
<event>
 4    0  0.1003929E-001  0.2687276E+03  0.7546771E-02  0.1102010E+00
         21   -1    0    0  503  501  0.00000000000E+00  0.00000000000E+00  0.49808467012E+02  0.49808467012E+02  0.00000000000E+00 0.  1.
         21   -1    0    0  501  502 -0.00000000000E+00 -0.00000000000E+00 -0.13776184453E+04  0.13776184453E+04  0.00000000000E+00 0.  1.
         25    1    1    2    0    0 -0.81095009225E+02 -0.22363619300E+03 -0.88319788466E+03  0.92317552546E+03  0.12500000000E+03 0.  0.
         21    1    1    2  503  502  0.81095009225E+02  0.22363619300E+03 -0.44461209364E+03  0.50425138687E+03  0.00000000000E+00 0.  1.
<mgrwt>
<rscale>  3 0.26872765E+03</rscale>
<asrwt>0</asrwt>
<pdfrwt beam="1">  1       21 0.76628395E-02 0.26872765E+03</pdfrwt>
<pdfrwt beam="2">  1       21 0.21194134E+00 0.26872765E+03</pdfrwt>
<totfact> 0.13820241E+04</totfact>
</mgrwt>
</event>
<event>
 4    0  0.1194849E-001  0.2522422E+03  0.7546771E-02  0.1111896E+00
         21   -1    0    0  502  501  0.00000000000E+00  0.00000000000E+00  0.26420761032E+03  0.26420761032E+03  0.00000000000E+00 0. -1.
         21   -1    0    0  503  502 -0.00000000000E+00 -0.00000000000E+00 -0.23170764702E+03  0.23170764702E+03  0.00000000000E+00 0. -1.
         25    1    1    2    0    0 -0.27458589949E+02 -0.21736406877E+03 -0.58071957127E+02  0.25884061651E+03  0.12500000000E+03 0.  0.
         21    1    1    2  503  501  0.27458589949E+02  0.21736406877E+03  0.90571920424E+02  0.23707464082E+03  0.00000000000E+00 0. -1.
<mgrwt>
<rscale>  3 0.25224217E+03</rscale>
<asrwt>0</asrwt>
<pdfrwt beam="1">  1       21 0.40647325E-01 0.25224217E+03</pdfrwt>
<pdfrwt beam="2">  1       21 0.35647330E-01 0.25224217E+03</pdfrwt>
<totfact> 0.43055186E+04</totfact>
</mgrwt>
</event>
<event>
 4    0  0.1126448E-001  0.3362773E+03  0.7546771E-02  0.1068393E+00
         21   -1    0    0  503  501  0.00000000000E+00  0.00000000000E+00  0.14086522086E+04  0.14086522086E+04  0.00000000000E+00 0.  1.
         21   -1    0    0  501  502 -0.00000000000E+00 -0.00000000000E+00 -0.78512450397E+02  0.78512450397E+02  0.00000000000E+00 0.  1.
         25    1    1    2    0    0 -0.29381728989E+03  0.10549310173E+03  0.85384955350E+03  0.91768265450E+03  0.12500000000E+03 0.  0.
         21    1    1    2  503  502  0.29381728989E+03 -0.10549310173E+03  0.47629020468E+03  0.56948200448E+03  0.00000000000E+00 0.  1.
<mgrwt>
<rscale>  3 0.33627726E+03</rscale>
<asrwt>0</asrwt>
<pdfrwt beam="1">  1       21 0.21671571E+00 0.33627726E+03</pdfrwt>
<pdfrwt beam="2">  1       21 0.12078840E-01 0.33627726E+03</pdfrwt>
<totfact> 0.55157823E+03</totfact>
</mgrwt>
</event>
<event>
 4    0  0.1268817E-001  0.2423580E+03  0.7546771E-02  0.1118232E+00
         21   -1    0    0  503  501  0.00000000000E+00  0.00000000000E+00  0.53235424997E+03  0.53235424997E+03  0.00000000000E+00 0.  1.
         21   -1    0    0  501  502 -0.00000000000E+00 -0.00000000000E+00 -0.17739787586E+03  0.17739787586E+03  0.00000000000E+00 0.  1.
         25    1    1    2    0    0  0.48470249347E+02  0.20189851724E+03  0.42615382529E+03  0.49024938464E+03  0.12500000000E+03 0.  0.
         21    1    1    2  503  502 -0.48470249347E+02 -0.20189851724E+03 -0.71197451184E+02  0.21950274119E+03  0.00000000000E+00 0.  1.
<mgrwt>
<rscale>  3 0.24235795E+03</rscale>
<asrwt>0</asrwt>
<pdfrwt beam="1">  1       21 0.81900653E-01 0.24235795E+03</pdfrwt>
<pdfrwt beam="2">  1       21 0.27291981E-01 0.24235795E+03</pdfrwt>
<totfact> 0.16215119E+04</totfact>
</mgrwt>
</event>
<event>
 4    0  0.1280815E-001  0.3929301E+03  0.7546771E-02  0.1046256E+00
         21   -1    0    0  502  501  0.00000000000E+00  0.00000000000E+00  0.43430132182E+03  0.43430132182E+03  0.00000000000E+00 0.  1.
         21   -1    0    0  503  502 -0.00000000000E+00 -0.00000000000E+00 -0.57351217112E+03  0.57351217112E+03  0.00000000000E+00 0. -1.
         25    1    1    2    0    0 -0.11279475037E+03 -0.35503013916E+03  0.25264748321E+03  0.46714538015E+03  0.12500000000E+03 0.  0.
         21    1    1    2  503  501  0.11279475037E+03  0.35503013916E+03 -0.39185833251E+03  0.54066811279E+03  0.00000000000E+00 0. -1.
<mgrwt>
<rscale>  3 0.39293009E+03</rscale>
<asrwt>0</asrwt>
<pdfrwt beam="1">  1       21 0.66815588E-01 0.39293009E+03</pdfrwt>
<pdfrwt beam="2">  1       21 0.88232641E-01 0.39293009E+03</pdfrwt>
<totfact> 0.19928422E+03</totfact>
</mgrwt>
</event>
<event>
 4    0  0.1003929E-001  0.4211894E+03  0.7546771E-02  0.1036680E+00
         21   -1    0    0  503  501  0.00000000000E+00  0.00000000000E+00  0.13382606502E+03  0.13382606502E+03  0.00000000000E+00 0. -1.
         21   -1    0    0  501  502 -0.00000000000E+00 -0.00000000000E+00 -0.26368523435E+04  0.26368523435E+04  0.00000000000E+00 0. -1.
         25    1    1    2    0    0  0.39370851942E+03  0.82274770336E+02 -0.26682733857E+03  0.49859539178E+03  0.12500000000E+03 0.  0.
         21    1    1    2  503  502 -0.39370851942E+03 -0.82274770336E+02 -0.22361989399E+04  0.22720830168E+04  0.00000000000E+00 0. -1.
<mgrwt>
<rscale>  3 0.42118943E+03</rscale>
<asrwt>0</asrwt>
<pdfrwt beam="1">  1       21 0.20588628E-01 0.42118943E+03</pdfrwt>
<pdfrwt beam="2">  1       21 0.40566954E+00 0.42118943E+03</pdfrwt>
<totfact> 0.13556651E+02</totfact>
</mgrwt>
</event>
<event>
 4    0  0.1011006E-001  0.3389903E+03  0.7546771E-02  0.1067227E+00
         21   -1    0    0  502  501  0.00000000000E+00  0.00000000000E+00  0.30147053634E+03  0.30147053634E+03  0.00000000000E+00 0. -1.
         21   -1    0    0  503  502 -0.00000000000E+00 -0.00000000000E+00 -0.93071489790E+03  0.93071489790E+03  0.00000000000E+00 0. -1.
         25    1    1    2    0    0  0.10520751119E+02 -0.31492659929E+03  0.16551525821E+03  0.37723964511E+03  0.12500000000E+03 0.  0.
         21    1    1    2  503  501 -0.10520751119E+02  0.31492659929E+03 -0.79475961977E+03  0.85494578913E+03  0.00000000000E+00 0. -1.
<mgrwt>
<rscale>  3 0.33899034E+03</rscale>
<asrwt>0</asrwt>
<pdfrwt beam="1">  1       21 0.46380083E-01 0.33899034E+03</pdfrwt>
<pdfrwt beam="2">  1       21 0.14318691E+00 0.33899034E+03</pdfrwt>
<totfact> 0.13472636E+03</totfact>
</mgrwt>
</event>
<event>
 4    0  0.1022360E-001  0.3723211E+03  0.7546771E-02  0.1053809E+00
         21   -1    0    0  503  501  0.00000000000E+00  0.00000000000E+00  0.18412495438E+03  0.18412495438E+03  0.00000000000E+00 0.  1.
         21   -1    0    0  501  502 -0.00000000000E+00 -0.00000000000E+00 -0.10217817578E+04  0.10217817578E+04  0.00000000000E+00 0. -1.
         25    1    1    2    0    0 -0.15540034303E+02  0.35036619674E+03 -0.94460614547E+02  0.38411687308E+03  0.12500000000E+03 0.  0.
         21    1    1    2  503  502  0.15540034303E+02 -0.35036619674E+03 -0.74319618889E+03  0.82178983911E+03  0.00000000000E+00 0. -1.
<mgrwt>
<rscale>  3 0.37232105E+03</rscale>
<asrwt>0</asrwt>
<pdfrwt beam="1">  1       21 0.28326916E-01 0.37232105E+03</pdfrwt>
<pdfrwt beam="2">  1       21 0.15719719E+00 0.37232105E+03</pdfrwt>
<totfact> 0.27945913E+03</totfact>
</mgrwt>
</event>
<event>
 4    0  0.1417825E-001  0.2920484E+03  0.7546771E-02  0.1089284E+00
         21   -1    0    0  503  501  0.00000000000E+00  0.00000000000E+00  0.11291972245E+03  0.11291972245E+03  0.00000000000E+00 0. -1.
         21   -1    0    0  501  502 -0.00000000000E+00 -0.00000000000E+00 -0.84990052981E+03  0.84990052981E+03  0.00000000000E+00 0. -1.
         25    1    1    2    0    0  0.22095934993E+03  0.14437527500E+03 -0.17127052108E+03  0.33856438936E+03  0.12500000000E+03 0.  0.
         21    1    1    2  503  502 -0.22095934993E+03 -0.14437527500E+03 -0.56571028628E+03  0.62425586290E+03  0.00000000000E+00 0. -1.
<mgrwt>
<rscale>  3 0.29204838E+03</rscale>
<asrwt>0</asrwt>
<pdfrwt beam="1">  1       21 0.17372264E-01 0.29204838E+03</pdfrwt>
<pdfrwt beam="2">  1       21 0.13075393E+00 0.29204838E+03</pdfrwt>
<totfact> 0.12042838E+04</totfact>
</mgrwt>
</event>
<event>
 4    0  0.1462535E-001  0.2655760E+03  0.7546771E-02  0.1103839E+00
         21   -1    0    0  502  501  0.00000000000E+00  0.00000000000E+00  0.20849538478E+03  0.20849538478E+03  0.00000000000E+00 0. -1.
         21   -1    0    0  503  502 -0.00000000000E+00 -0.00000000000E+00 -0.45872436594E+03  0.45872436594E+03  0.00000000000E+00 0. -1.
         25    1    1    2    0    0  0.19286711364E+02  0.23352438637E+03  0.65984755481E+02  0.27365051475E+03  0.12500000000E+03 0.  0.
         21    1    1    2  503  501 -0.19286711364E+02 -0.23352438637E+03 -0.31621373664E+03  0.39356923598E+03  0.00000000000E+00 0. -1.
<mgrwt>
<rscale>  3 0.26557601E+03</rscale>
<asrwt>0</asrwt>
<pdfrwt beam="1">  1       21 0.32076213E-01 0.26557601E+03</pdfrwt>
<pdfrwt beam="2">  1       21 0.70572980E-01 0.26557601E+03</pdfrwt>
<totfact> 0.16341305E+04</totfact>
</mgrwt>
</event>
<event>
 4    0  0.1059943E-001  0.2575559E+03  0.7546771E-02  0.1108621E+00
         21   -1    0    0  503  501  0.00000000000E+00  0.00000000000E+00  0.36961469112E+03  0.36961469112E+03  0.00000000000E+00 0.  1.
         21   -1    0    0  501  502 -0.00000000000E+00 -0.00000000000E+00 -0.21180802180E+03  0.21180802180E+03  0.00000000000E+00 0. -1.
         25    1    1    2    0    0 -0.75086213078E+02 -0.21230194449E+03  0.22962924316E+03  0.34505745079E+03  0.12500000000E+03 0.  0.
         21    1    1    2  503  502  0.75086213078E+02  0.21230194449E+03 -0.71822573848E+02  0.23636526213E+03  0.00000000000E+00 0. -1.
<mgrwt>
<rscale>  3 0.25755593E+03</rscale>
<asrwt>0</asrwt>
<pdfrwt beam="1">  1       21 0.56863799E-01 0.25755593E+03</pdfrwt>
<pdfrwt beam="2">  1       21 0.32585850E-01 0.25755593E+03</pdfrwt>
<totfact> 0.25481321E+04</totfact>
</mgrwt>
</event>
<event>
 4    0  0.1480879E-001  0.3392099E+03  0.7546771E-02  0.1067133E+00
         21   -1    0    0  503  501  0.00000000000E+00  0.00000000000E+00  0.66636782733E+03  0.66636782733E+03  0.00000000000E+00 0. -1.
         21   -1    0    0  501  502 -0.00000000000E+00 -0.00000000000E+00 -0.16146431699E+03  0.16146431699E+03  0.00000000000E+00 0. -1.
         25    1    1    2    0    0 -0.89224043455E+02  0.30245232750E+03  0.28942431105E+03  0.44590332154E+03  0.12500000000E+03 0.  0.
         21    1    1    2  503  502  0.89224043455E+02 -0.30245232750E+03  0.21547919930E+03  0.38192882278E+03  0.00000000000E+00 0. -1.
<mgrwt>
<rscale>  3 0.33920988E+03</rscale>
<asrwt>0</asrwt>
<pdfrwt beam="1">  1       21 0.10251813E+00 0.33920988E+03</pdfrwt>
<pdfrwt beam="2">  1       21 0.24840664E-01 0.33920988E+03</pdfrwt>
<totfact> 0.10976156E+04</totfact>
</mgrwt>
</event>
<event>
 4    0  0.1511760E-001  0.3142469E+03  0.7546771E-02  0.1078328E+00
         21   -1    0    0  502  501  0.00000000000E+00  0.00000000000E+00  0.14293332572E+03  0.14293332572E+03  0.00000000000E+00 0. -1.
         21   -1    0    0  503  502 -0.00000000000E+00 -0.00000000000E+00 -0.66631639704E+03  0.66631639704E+03  0.00000000000E+00 0. -1.
         25    1    1    2    0    0 -0.30171935668E+02  0.28673297508E+03 -0.18485960824E+03  0.36458773904E+03  0.12500000000E+03 0.  0.
         21    1    1    2  503  501  0.30171935668E+02 -0.28673297508E+03 -0.33852346308E+03  0.44466198371E+03  0.00000000000E+00 0. -1.
<mgrwt>
<rscale>  3 0.31424695E+03</rscale>
<asrwt>0</asrwt>
<pdfrwt beam="1">  1       21 0.21989742E-01 0.31424695E+03</pdfrwt>
<pdfrwt beam="2">  1       21 0.10251022E+00 0.31424695E+03</pdfrwt>
<totfact> 0.14015984E+04</totfact>
</mgrwt>
</event>
<event>
 4    0  0.1178425E-001  0.3058376E+03  0.7546771E-02  0.1082358E+00
         21   -1    0    0  503  501  0.00000000000E+00  0.00000000000E+00  0.21014478098E+03  0.21014478098E+03  0.00000000000E+00 0. -1.
         21   -1    0    0  501  502 -0.00000000000E+00 -0.00000000000E+00 -0.48643573296E+03  0.48643573296E+03  0.00000000000E+00 0. -1.
         25    1    1    2    0    0  0.27609237262E+03 -0.41044085175E+02 -0.28397693297E+03  0.41734819229E+03  0.12500000000E+03 0.  0.
         21    1    1    2  503  502 -0.27609237262E+03  0.41044085175E+02  0.76859809855E+01  0.27923232165E+03  0.00000000000E+00 0. -1.
<mgrwt>
<rscale>  3 0.30583756E+03</rscale>
<asrwt>0</asrwt>
<pdfrwt beam="1">  1       21 0.32329966E-01 0.30583756E+03</pdfrwt>
<pdfrwt beam="2">  1       21 0.74836266E-01 0.30583756E+03</pdfrwt>
<totfact> 0.13854341E+04</totfact>
</mgrwt>
</event>
<event>
 4    0  0.1003929E-001  0.4381259E+03  0.7546771E-02  0.1031323E+00
         21   -1    0    0  503  501  0.00000000000E+00  0.00000000000E+00  0.84763595923E+03  0.84763595923E+03  0.00000000000E+00 0.  1.
         21   -1    0    0  501  502 -0.00000000000E+00 -0.00000000000E+00 -0.62647494670E+03  0.62647494670E+03  0.00000000000E+00 0.  1.
         25    1    1    2    0    0 -0.37918488469E+03 -0.18041089741E+03  0.70712716717E+03  0.83185521530E+03  0.12500000000E+03 0.  0.
         21    1    1    2  503  502  0.37918488469E+03  0.18041089741E+03 -0.48596615464E+03  0.64225569062E+03  0.00000000000E+00 0.  1.
<mgrwt>
<rscale>  3 0.43812586E+03</rscale>
<asrwt>0</asrwt>
<pdfrwt beam="1">  1       21 0.13040553E+00 0.43812586E+03</pdfrwt>
<pdfrwt beam="2">  1       21 0.96380761E-01 0.43812586E+03</pdfrwt>
<totfact> 0.31941481E+02</totfact>
</mgrwt>
</event>
<event>
 4    0  0.1466525E-001  0.2374341E+03  0.7546771E-02  0.1121514E+00
         21   -1    0    0  502  501  0.00000000000E+00  0.00000000000E+00  0.27273563050E+03  0.27273563050E+03  0.00000000000E+00 0. -1.
         21   -1    0    0  503  502 -0.00000000000E+00 -0.00000000000E+00 -0.22993944160E+03  0.22993944160E+03  0.00000000000E+00 0. -1.
         25    1    1    2    0    0 -0.93946179045E+02 -0.17867307381E+03  0.14314119543E+03  0.27724421309E+03  0.12500000000E+03 0.  0.
         21    1    1    2  503  501  0.93946179045E+02  0.17867307381E+03 -0.10034500653E+03  0.22543085902E+03  0.00000000000E+00 0. -1.
<mgrwt>
<rscale>  3 0.23743410E+03</rscale>
<asrwt>0</asrwt>
<pdfrwt beam="1">  1       21 0.41959328E-01 0.23743410E+03</pdfrwt>
<pdfrwt beam="2">  1       21 0.35375299E-01 0.23743410E+03</pdfrwt>
<totfact> 0.41228652E+04</totfact>
</mgrwt>
</event>
<event>
 4    0  0.1559247E-001  0.3495416E+03  0.7546771E-02  0.1062803E+00
         21   -1    0    0  503  501  0.00000000000E+00  0.00000000000E+00  0.21713182935E+03  0.21713182935E+03  0.00000000000E+00 0. -1.
         21   -1    0    0  501  502 -0.00000000000E+00 -0.00000000000E+00 -0.53243320243E+03  0.53243320243E+03  0.00000000000E+00 0. -1.
         25    1    1    2    0    0  0.28297980112E+02  0.32519773032E+03 -0.12212914947E+03  0.37026324235E+03  0.12500000000E+03 0.  0.
         21    1    1    2  503  502 -0.28297980112E+02 -0.32519773032E+03 -0.19317222362E+03  0.37930178943E+03  0.00000000000E+00 0. -1.
<mgrwt>
<rscale>  3 0.34954161E+03</rscale>
<asrwt>0</asrwt>
<pdfrwt beam="1">  1       21 0.33404897E-01 0.34954161E+03</pdfrwt>
<pdfrwt beam="2">  1       21 0.81912800E-01 0.34954161E+03</pdfrwt>
<totfact> 0.10376252E+04</totfact>
</mgrwt>
</event>
<event>
 4    0  0.1607452E-001  0.2518069E+03  0.7546771E-02  0.1112168E+00
         21   -1    0    0  502  501  0.00000000000E+00  0.00000000000E+00  0.11166502522E+03  0.11166502522E+03  0.00000000000E+00 0. -1.
         21   -1    0    0  503  502 -0.00000000000E+00 -0.00000000000E+00 -0.50025608363E+03  0.50025608363E+03  0.00000000000E+00 0. -1.
         25    1    1    2    0    0 -0.20453172687E+03  0.77126524141E+02 -0.17779914584E+03  0.30825194936E+03  0.12500000000E+03 0.  0.
         21    1    1    2  503  501  0.20453172687E+03 -0.77126524141E+02 -0.21079191258E+03  0.30366915950E+03  0.00000000000E+00 0. -1.
<mgrwt>
<rscale>  3 0.25180693E+03</rscale>
<asrwt>0</asrwt>
<pdfrwt beam="1">  1       21 0.17179235E-01 0.25180693E+03</pdfrwt>
<pdfrwt beam="2">  1       21 0.76962474E-01 0.25180693E+03</pdfrwt>
<totfact> 0.44676660E+04</totfact>
</mgrwt>
</event>
<event>
 4    0  0.1321316E-001  0.3009912E+03  0.7546771E-02  0.1084746E+00
         21   -1    0    0  503  501  0.00000000000E+00  0.00000000000E+00  0.27083687907E+03  0.27083687907E+03  0.00000000000E+00 0.  1.
         21   -1    0    0  501  502 -0.00000000000E+00 -0.00000000000E+00 -0.46087789096E+03  0.46087789096E+03  0.00000000000E+00 0.  1.
         25    1    1    2    0    0 -0.89783291682E+00  0.27380634370E+03  0.11463577875E+03  0.32208241449E+03  0.12500000000E+03 0.  0.
         21    1    1    2  503  502  0.89783291682E+00 -0.27380634370E+03 -0.30467679065E+03  0.40963235555E+03  0.00000000000E+00 0.  1.
<mgrwt>
<rscale>  3 0.30099123E+03</rscale>
<asrwt>0</asrwt>
<pdfrwt beam="1">  1       21 0.41667213E-01 0.30099123E+03</pdfrwt>
<pdfrwt beam="2">  1       21 0.70904290E-01 0.30099123E+03</pdfrwt>
<totfact> 0.93905019E+03</totfact>
</mgrwt>
</event>
<event>
 4    0  0.1061283E-001  0.2810954E+03  0.7546771E-02  0.1095092E+00
         21   -1    0    0  502  501  0.00000000000E+00  0.00000000000E+00  0.30237785407E+03  0.30237785407E+03  0.00000000000E+00 0. -1.
         21   -1    0    0  503  502 -0.00000000000E+00 -0.00000000000E+00 -0.31549530147E+03  0.31549530147E+03  0.00000000000E+00 0. -1.
         25    1    1    2    0    0  0.19956232375E+03  0.15350742881E+03 -0.16292843589E+03  0.32490048782E+03  0.12500000000E+03 0.  0.
         21    1    1    2  503  501 -0.19956232375E+03 -0.15350742881E+03  0.14981098848E+03  0.29297266772E+03  0.00000000000E+00 0. -1.
<mgrwt>
<rscale>  3 0.28109545E+03</rscale>
<asrwt>0</asrwt>
<pdfrwt beam="1">  1       21 0.46519670E-01 0.28109545E+03</pdfrwt>
<pdfrwt beam="2">  1       21 0.48537739E-01 0.28109545E+03</pdfrwt>
<totfact> 0.17119745E+04</totfact>
</mgrwt>
</event>
<event>
 4    0  0.1177170E-001  0.2394950E+03  0.7546771E-02  0.1120130E+00
         21   -1    0    0  503  501  0.00000000000E+00  0.00000000000E+00  0.61884530043E+03  0.61884530043E+03  0.00000000000E+00 0. -1.
         21   -1    0    0  501  502 -0.00000000000E+00 -0.00000000000E+00 -0.20643770161E+03  0.20643770161E+03  0.00000000000E+00 0. -1.
         25    1    1    2    0    0  0.20237854673E+03 -0.27852944232E+02  0.53561353426E+03  0.58671945661E+03  0.12500000000E+03 0.  0.
         21    1    1    2  503  502 -0.20237854673E+03  0.27852944232E+02 -0.12320593544E+03  0.23856354543E+03  0.00000000000E+00 0. -1.
<mgrwt>
<rscale>  3 0.23949502E+03</rscale>
<asrwt>0</asrwt>
<pdfrwt beam="1">  1       21 0.95206968E-01 0.23949502E+03</pdfrwt>
<pdfrwt beam="2">  1       21 0.31759647E-01 0.23949502E+03</pdfrwt>
<totfact> 0.85144543E+03</totfact>
</mgrwt>
</event>
<event>
 4    0  0.1204817E-001  0.2375792E+03  0.7546771E-02  0.1121416E+00
         21   -1    0    0  503  501  0.00000000000E+00  0.00000000000E+00  0.42979611910E+02  0.42979611910E+02  0.00000000000E+00 0. -1.
         21   -1    0    0  501  502 -0.00000000000E+00 -0.00000000000E+00 -0.14195031717E+04  0.14195031717E+04  0.00000000000E+00 0. -1.
         25    1    1    2    0    0 -0.18122653033E+03 -0.89307481767E+02 -0.39964192837E+03  0.46492747016E+03  0.12500000000E+03 0.  0.
         21    1    1    2  503  502  0.18122653033E+03  0.89307481767E+02 -0.97688163143E+03  0.99755531346E+03  0.00000000000E+00 0. -1.
<mgrwt>
<rscale>  3 0.23757921E+03</rscale>
<asrwt>0</asrwt>
<pdfrwt beam="1">  1       21 0.66122483E-02 0.23757921E+03</pdfrwt>
<pdfrwt beam="2">  1       21 0.21838509E+00 0.23757921E+03</pdfrwt>
<totfact> 0.16599228E+04</totfact>
</mgrwt>
</event>
<event>
 4    0  0.1041000E-001  0.3299373E+03  0.7546771E-02  0.1071165E+00
         21   -1    0    0  503  501  0.00000000000E+00  0.00000000000E+00  0.54412653976E+03  0.54412653976E+03  0.00000000000E+00 0.  1.
         21   -1    0    0  501  502 -0.00000000000E+00 -0.00000000000E+00 -0.43329308029E+03  0.43329308029E+03  0.00000000000E+00 0.  1.
         25    1    1    2    0    0 -0.26336955716E+03  0.15449950152E+03  0.42584879968E+03  0.53870754570E+03  0.12500000000E+03 0.  0.
         21    1    1    2  503  502  0.26336955716E+03 -0.15449950152E+03 -0.31501534021E+03  0.43871207434E+03  0.00000000000E+00 0.  1.
<mgrwt>
<rscale>  3 0.32993730E+03</rscale>
<asrwt>0</asrwt>
<pdfrwt beam="1">  1       21 0.83711775E-01 0.32993730E+03</pdfrwt>
<pdfrwt beam="2">  1       21 0.66660474E-01 0.32993730E+03</pdfrwt>
<totfact> 0.23329912E+03</totfact>
</mgrwt>
</event>
<event>
 4    0  0.1400275E-001  0.2420060E+03  0.7546771E-02  0.1118464E+00
         21   -1    0    0  503  501  0.00000000000E+00  0.00000000000E+00  0.15356597207E+03  0.15356597207E+03  0.00000000000E+00 0.  1.
         21   -1    0    0  501  502 -0.00000000000E+00 -0.00000000000E+00 -0.33082843852E+03  0.33082843852E+03  0.00000000000E+00 0.  1.
         25    1    1    2    0    0 -0.34758172515E+02  0.20428849915E+03 -0.75345700365E+02  0.25346379624E+03  0.12500000000E+03 0.  0.
         21    1    1    2  503  502  0.34758172515E+02 -0.20428849915E+03 -0.10191676608E+03  0.23093061436E+03  0.00000000000E+00 0.  1.
<mgrwt>
<rscale>  3 0.24200604E+03</rscale>
<asrwt>0</asrwt>
<pdfrwt beam="1">  1       21 0.23625534E-01 0.24200604E+03</pdfrwt>
<pdfrwt beam="2">  1       21 0.50896682E-01 0.24200604E+03</pdfrwt>
<totfact> 0.60627798E+04</totfact>
</mgrwt>
</event>
<event>
 4    0  0.1255651E-001  0.2482420E+03  0.7546771E-02  0.1114421E+00
         21   -1    0    0  502  501  0.00000000000E+00  0.00000000000E+00  0.95921881233E+03  0.95921881233E+03  0.00000000000E+00 0.  1.
         21   -1    0    0  503  502 -0.00000000000E+00 -0.00000000000E+00 -0.81469247831E+02  0.81469247831E+02  0.00000000000E+00 0.  1.
         25    1    1    2    0    0  0.14363306217E+03 -0.15927541790E+03  0.75234549802E+03  0.79224230112E+03  0.12500000000E+03 0.  0.
         21    1    1    2  503  501 -0.14363306217E+03  0.15927541790E+03  0.12540406649E+03  0.24844575905E+03  0.00000000000E+00 0.  1.
<mgrwt>
<rscale>  3 0.24824205E+03</rscale>
<asrwt>0</asrwt>
<pdfrwt beam="1">  1       21 0.14757212E+00 0.24824205E+03</pdfrwt>
<pdfrwt beam="2">  1       21 0.12533731E-01 0.24824205E+03</pdfrwt>
<totfact> 0.16350593E+04</totfact>
</mgrwt>
</event>
<event>
 4    0  0.1313977E-001  0.3216173E+03  0.7546771E-02  0.1074907E+00
         21   -1    0    0  503  501  0.00000000000E+00  0.00000000000E+00  0.71239246659E+03  0.71239246659E+03  0.00000000000E+00 0.  1.
         21   -1    0    0  501  502 -0.00000000000E+00 -0.00000000000E+00 -0.15475121963E+03  0.15475121963E+03  0.00000000000E+00 0.  1.
         25    1    1    2    0    0 -0.27606031819E+03 -0.10771909908E+03  0.44732832071E+03  0.55094494288E+03  0.12500000000E+03 0.  0.
         21    1    1    2  503  502  0.27606031819E+03  0.10771909908E+03  0.11031292626E+03  0.31619874333E+03  0.00000000000E+00 0.  1.
<mgrwt>
<rscale>  3 0.32161732E+03</rscale>
<asrwt>0</asrwt>
<pdfrwt beam="1">  1       21 0.10959884E+00 0.32161732E+03</pdfrwt>
<pdfrwt beam="2">  1       21 0.23807880E-01 0.32161732E+03</pdfrwt>
<totfact> 0.10193522E+04</totfact>
</mgrwt>
</event>
<event>
 4    0  0.1884008E-001  0.3031892E+03  0.7546771E-02  0.1083657E+00
         21   -1    0    0  503  501  0.00000000000E+00  0.00000000000E+00  0.54374638762E+03  0.54374638762E+03  0.00000000000E+00 0. -1.
         21   -1    0    0  501  502 -0.00000000000E+00 -0.00000000000E+00 -0.76422199746E+03  0.76422199746E+03  0.00000000000E+00 0.  1.
         25    1    1    2    0    0 -0.14466878999E+03  0.23530755297E+03  0.47281676923E+03  0.56167552959E+03  0.12500000000E+03 0.  0.
         21    1    1    2  503  502  0.14466878999E+03 -0.23530755297E+03 -0.69329237907E+03  0.74629285549E+03  0.00000000000E+00 0.  1.
<mgrwt>
<rscale>  3 0.30318922E+03</rscale>
<asrwt>0</asrwt>
<pdfrwt beam="1">  1       21 0.83653290E-01 0.30318922E+03</pdfrwt>
<pdfrwt beam="2">  1       21 0.11757262E+00 0.30318922E+03</pdfrwt>
<totfact> 0.62769325E+02</totfact>
</mgrwt>
</event>
<event>
 4    0  0.1389298E-001  0.3584366E+03  0.7546771E-02  0.1059205E+00
         21   -1    0    0  502  501  0.00000000000E+00  0.00000000000E+00  0.48383251535E+03  0.48383251535E+03  0.00000000000E+00 0. -1.
         21   -1    0    0  503  502 -0.00000000000E+00 -0.00000000000E+00 -0.32249298447E+03  0.32249298447E+03  0.00000000000E+00 0. -1.
         25    1    1    2    0    0 -0.93761568238E+02  0.32258417885E+03  0.27490085813E+03  0.45171591286E+03  0.12500000000E+03 0.  0.
         21    1    1    2  503  501  0.93761568238E+02 -0.32258417885E+03 -0.11356132725E+03  0.35460958697E+03  0.00000000000E+00 0. -1.
<mgrwt>
<rscale>  3 0.35843658E+03</rscale>
<asrwt>0</asrwt>
<pdfrwt beam="1">  1       21 0.74435772E-01 0.35843658E+03</pdfrwt>
<pdfrwt beam="2">  1       21 0.49614305E-01 0.35843658E+03</pdfrwt>
<totfact> 0.57073164E+03</totfact>
</mgrwt>
</event>
<event>
 4    0  0.1003929E-001  0.2479274E+03  0.7546771E-02  0.1114622E+00
         21   -1    0    0  502  501  0.00000000000E+00  0.00000000000E+00  0.34220120795E+03  0.34220120795E+03  0.00000000000E+00 0.  1.
         21   -1    0    0  503  502 -0.00000000000E+00 -0.00000000000E+00 -0.20983664147E+03  0.20983664147E+03  0.00000000000E+00 0.  1.
         25    1    1    2    0    0  0.21010093172E+03 -0.41238094430E+02 -0.69800763385E+02  0.25756577511E+03  0.12500000000E+03 0.  0.
         21    1    1    2  503  501 -0.21010093172E+03  0.41238094430E+02  0.20216532987E+03  0.29447207430E+03  0.00000000000E+00 0.  1.
<mgrwt>
<rscale>  3 0.24792737E+03</rscale>
<asrwt>0</asrwt>
<pdfrwt beam="1">  1       21 0.52646340E-01 0.24792737E+03</pdfrwt>
<pdfrwt beam="2">  1       21 0.32282560E-01 0.24792737E+03</pdfrwt>
<totfact> 0.30714717E+04</totfact>
</mgrwt>
</event>
<event>
 4    0  0.1093179E-001  0.3495155E+03  0.7546771E-02  0.1062814E+00
         21   -1    0    0  503  501  0.00000000000E+00  0.00000000000E+00  0.10042234287E+04  0.10042234287E+04  0.00000000000E+00 0.  1.
         21   -1    0    0  501  502 -0.00000000000E+00 -0.00000000000E+00 -0.17312405996E+03  0.17312405996E+03  0.00000000000E+00 0. -1.
         25    1    1    2    0    0 -0.32503677982E+03 -0.29785891658E+02  0.76954055656E+03  0.84519451949E+03  0.12500000000E+03 0.  0.
         21    1    1    2  503  502  0.32503677982E+03  0.29785891658E+02  0.61558812179E+02  0.33215296918E+03  0.00000000000E+00 0. -1.
<mgrwt>
<rscale>  3 0.34951553E+03</rscale>
<asrwt>0</asrwt>
<pdfrwt beam="1">  1       21 0.15449591E+00 0.34951553E+03</pdfrwt>
<pdfrwt beam="2">  1       21 0.26634471E-01 0.34951553E+03</pdfrwt>
<totfact> 0.33422696E+03</totfact>
</mgrwt>
</event>
<event>
 4    0  0.1269492E-001  0.8322711E+03  0.7546771E-02  0.9514446E-01
         21   -1    0    0  503  501  0.00000000000E+00  0.00000000000E+00  0.11305172696E+04  0.11305172696E+04  0.00000000000E+00 0. -1.
         21   -1    0    0  501  502 -0.00000000000E+00 -0.00000000000E+00 -0.62787387253E+03  0.62787387253E+03  0.00000000000E+00 0. -1.
         25    1    1    2    0    0 -0.70304023878E+03  0.42753317023E+03  0.87768494309E+02  0.83688619153E+03  0.12500000000E+03 0.  0.
         21    1    1    2  503  502  0.70304023878E+03 -0.42753317023E+03  0.41487490272E+03  0.92150495055E+03  0.00000000000E+00 0. -1.
<mgrwt>
<rscale>  3 0.83227110E+03</rscale>
<asrwt>0</asrwt>
<pdfrwt beam="1">  1       21 0.17392573E+00 0.83227110E+03</pdfrwt>
<pdfrwt beam="2">  1       21 0.96595980E-01 0.83227110E+03</pdfrwt>
<totfact> 0.12443277E+02</totfact>
</mgrwt>
</event>
<event>
 4    0  0.1416950E-001  0.2731823E+03  0.7546771E-02  0.1099472E+00
         21   -1    0    0  503  501  0.00000000000E+00  0.00000000000E+00  0.42562913947E+03  0.42562913947E+03  0.00000000000E+00 0. -1.
         21   -1    0    0  501  502 -0.00000000000E+00 -0.00000000000E+00 -0.25618911195E+03  0.25618911195E+03  0.00000000000E+00 0. -1.
         25    1    1    2    0    0 -0.21700840161E+03 -0.10913718567E+03  0.30024980204E+03  0.40592919985E+03  0.12500000000E+03 0.  0.
         21    1    1    2  503  502  0.21700840161E+03  0.10913718567E+03 -0.13080977453E+03  0.27588905157E+03  0.00000000000E+00 0. -1.
<mgrwt>
<rscale>  3 0.27318230E+03</rscale>
<asrwt>0</asrwt>
<pdfrwt beam="1">  1       21 0.65481406E-01 0.27318230E+03</pdfrwt>
<pdfrwt beam="2">  1       21 0.39413710E-01 0.27318230E+03</pdfrwt>
<totfact> 0.12713954E+04</totfact>
</mgrwt>
</event>
<event>
 4    0  0.1115731E-001  0.2537832E+03  0.7546771E-02  0.1110937E+00
         21   -1    0    0  503  501  0.00000000000E+00  0.00000000000E+00  0.18379003184E+03  0.18379003184E+03  0.00000000000E+00 0. -1.
         21   -1    0    0  501  502 -0.00000000000E+00 -0.00000000000E+00 -0.76382355843E+03  0.76382355843E+03  0.00000000000E+00 0. -1.
         25    1    1    2    0    0  0.18710387844E+03  0.11735873444E+03  0.68199628284E+02  0.26278722034E+03  0.12500000000E+03 0.  0.
         21    1    1    2  503  502 -0.18710387844E+03 -0.11735873444E+03 -0.64823315487E+03  0.68482636993E+03  0.00000000000E+00 0. -1.
<mgrwt>
<rscale>  3 0.25378324E+03</rscale>
<asrwt>0</asrwt>
<pdfrwt beam="1">  1       21 0.28275389E-01 0.25378324E+03</pdfrwt>
<pdfrwt beam="2">  1       21 0.11751132E+00 0.25378324E+03</pdfrwt>
<totfact> 0.63727292E+03</totfact>
</mgrwt>
</event>
<event>
 4    0  0.1063620E-001  0.2851944E+03  0.7546771E-02  0.1092885E+00
         21   -1    0    0  502  501  0.00000000000E+00  0.00000000000E+00  0.32055071612E+03  0.32055071612E+03  0.00000000000E+00 0.  1.
         21   -1    0    0  503  502 -0.00000000000E+00 -0.00000000000E+00 -0.27544921105E+03  0.27544921105E+03  0.00000000000E+00 0.  1.
         25    1    1    2    0    0  0.40004998837E+02 -0.25320035083E+03 -0.99052625225E+02  0.30190601212E+03  0.12500000000E+03 0.  0.
         21    1    1    2  503  501 -0.40004998837E+02  0.25320035083E+03  0.14415413029E+03  0.29409391505E+03  0.00000000000E+00 0.  1.
<mgrwt>
<rscale>  3 0.28519435E+03</rscale>
<asrwt>0</asrwt>
<pdfrwt beam="1">  1       21 0.49315495E-01 0.28519435E+03</pdfrwt>
<pdfrwt beam="2">  1       21 0.42376802E-01 0.28519435E+03</pdfrwt>
<totfact> 0.20048079E+04</totfact>
</mgrwt>
</event>
<event>
 4    0  0.1332124E-001  0.2487717E+03  0.7546771E-02  0.1114084E+00
         21   -1    0    0  503  501  0.00000000000E+00  0.00000000000E+00  0.68937188421E+02  0.68937188421E+02  0.00000000000E+00 0. -1.
         21   -1    0    0  501  502 -0.00000000000E+00 -0.00000000000E+00 -0.78824063807E+03  0.78824063807E+03  0.00000000000E+00 0. -1.
         25    1    1    2    0    0 -0.49974899741E+02 -0.20920049790E+03 -0.42843056105E+03  0.49541909993E+03  0.12500000000E+03 0.  0.
         21    1    1    2  503  502  0.49974899741E+02  0.20920049790E+03 -0.29087288859E+03  0.36175872656E+03  0.00000000000E+00 0. -1.
<mgrwt>
<rscale>  3 0.24877166E+03</rscale>
<asrwt>0</asrwt>
<pdfrwt beam="1">  1       21 0.10605721E-01 0.24877166E+03</pdfrwt>
<pdfrwt beam="2">  1       21 0.12126779E+00 0.24877166E+03</pdfrwt>
<totfact> 0.36541344E+04</totfact>
</mgrwt>
</event>
<event>
 4    0  0.1383458E-001  0.2717757E+03  0.7546771E-02  0.1100268E+00
         21   -1    0    0  503  501  0.00000000000E+00  0.00000000000E+00  0.69921704274E+03  0.69921704274E+03  0.00000000000E+00 0.  1.
         21   -1    0    0  501  502 -0.00000000000E+00 -0.00000000000E+00 -0.94735086376E+02  0.94735086376E+02  0.00000000000E+00 0.  1.
         25    1    1    2    0    0  0.11659643507E+03 -0.21128730735E+03  0.35171922706E+03  0.44448674851E+03  0.12500000000E+03 0.  0.
         21    1    1    2  503  502 -0.11659643507E+03  0.21128730735E+03  0.25276272930E+03  0.34946538061E+03  0.00000000000E+00 0.  1.
<mgrwt>
<rscale>  3 0.27177574E+03</rscale>
<asrwt>0</asrwt>
<pdfrwt beam="1">  1       21 0.10757185E+00 0.27177574E+03</pdfrwt>
<pdfrwt beam="2">  1       21 0.14574629E-01 0.27177574E+03</pdfrwt>
<totfact> 0.27358626E+04</totfact>
</mgrwt>
</event>
<event>
 4    0  0.1003929E-001  0.2664867E+03  0.7546771E-02  0.1103307E+00
         21   -1    0    0  502  501  0.00000000000E+00  0.00000000000E+00  0.18674909090E+04  0.18674909090E+04  0.00000000000E+00 0. -1.
         21   -1    0    0  503  502 -0.00000000000E+00 -0.00000000000E+00 -0.45493258658E+02  0.45493258658E+02  0.00000000000E+00 0.  1.
         25    1    1    2    0    0 -0.32892324081E+02 -0.23304134279E+03  0.14388996137E+04  0.14633684672E+04  0.12500000000E+03 0.  0.
         21    1    1    2  503  501  0.32892324081E+02  0.23304134279E+03  0.38309803661E+03  0.44961570045E+03  0.00000000000E+00 0.  1.
<mgrwt>
<rscale>  3 0.26648672E+03</rscale>
<asrwt>0</asrwt>
<pdfrwt beam="1">  1       21 0.28730623E+00 0.26648672E+03</pdfrwt>
<pdfrwt beam="2">  1       21 0.69989643E-02 0.26648672E+03</pdfrwt>
<totfact> 0.56977042E+03</totfact>
</mgrwt>
</event>
<event>
 4    0  0.1407414E-001  0.2745959E+03  0.7546771E-02  0.1098678E+00
         21   -1    0    0  503  501  0.00000000000E+00  0.00000000000E+00  0.40584338984E+03  0.40584338984E+03  0.00000000000E+00 0.  1.
         21   -1    0    0  501  502 -0.00000000000E+00 -0.00000000000E+00 -0.20270825793E+03  0.20270825793E+03  0.00000000000E+00 0.  1.
         25    1    1    2    0    0 -0.12448882216E+03  0.21042921494E+03  0.23572153068E+03  0.36189440638E+03  0.12500000000E+03 0.  0.
         21    1    1    2  503  502  0.12448882216E+03 -0.21042921494E+03 -0.32586398774E+02  0.24665724139E+03  0.00000000000E+00 0.  1.
<mgrwt>
<rscale>  3 0.27459592E+03</rscale>
<asrwt>0</asrwt>
<pdfrwt beam="1">  1       21 0.62437444E-01 0.27459592E+03</pdfrwt>
<pdfrwt beam="2">  1       21 0.31185886E-01 0.27459592E+03</pdfrwt>
<totfact> 0.22537131E+04</totfact>
</mgrwt>
</event>
<event>
 4    0  0.1462950E-001  0.2868882E+03  0.7546771E-02  0.1091985E+00
         21   -1    0    0  502  501  0.00000000000E+00  0.00000000000E+00  0.50756558062E+03  0.50756558062E+03  0.00000000000E+00 0. -1.
         21   -1    0    0  503  502 -0.00000000000E+00 -0.00000000000E+00 -0.16981977553E+03  0.16981977553E+03  0.00000000000E+00 0. -1.
         25    1    1    2    0    0  0.18015844821E+03  0.18499399645E+03  0.30226273082E+03  0.41673445217E+03  0.12500000000E+03 0.  0.
         21    1    1    2  503  501 -0.18015844821E+03 -0.18499399645E+03  0.35483074266E+02  0.26065090397E+03  0.00000000000E+00 0. -1.
<mgrwt>
<rscale>  3 0.28688821E+03</rscale>
<asrwt>0</asrwt>
<pdfrwt beam="1">  1       21 0.78087012E-01 0.28688821E+03</pdfrwt>
<pdfrwt beam="2">  1       21 0.26126120E-01 0.28688821E+03</pdfrwt>
<totfact> 0.19262794E+04</totfact>
</mgrwt>
</event>
<event>
 4    0  0.1003929E-001  0.2675102E+03  0.7546771E-02  0.1102713E+00
         21   -1    0    0  503  501  0.00000000000E+00  0.00000000000E+00  0.91416543858E+03  0.91416543858E+03  0.00000000000E+00 0. -1.
         21   -1    0    0  501  502 -0.00000000000E+00 -0.00000000000E+00 -0.86811812079E+02  0.86811812079E+02  0.00000000000E+00 0.  1.
         25    1    1    2    0    0 -0.17857178493E+03  0.15507683845E+03  0.65737943199E+03  0.70972489445E+03  0.12500000000E+03 0.  0.
         21    1    1    2  503  502  0.17857178493E+03 -0.15507683845E+03  0.16997419451E+03  0.29125235621E+03  0.00000000000E+00 0.  1.
<mgrwt>
<rscale>  3 0.26751020E+03</rscale>
<asrwt>0</asrwt>
<pdfrwt beam="1">  1       21 0.14064083E+00 0.26751020E+03</pdfrwt>
<pdfrwt beam="2">  1       21 0.13355664E-01 0.26751020E+03</pdfrwt>
<totfact> 0.16371546E+04</totfact>
</mgrwt>
</event>
<event>
 4    0  0.1095650E-001  0.2959882E+03  0.7546771E-02  0.1087263E+00
         21   -1    0    0  503  501  0.00000000000E+00  0.00000000000E+00  0.46250455110E+02  0.46250455110E+02  0.00000000000E+00 0.  1.
         21   -1    0    0  501  502 -0.00000000000E+00 -0.00000000000E+00 -0.17361165259E+04  0.17361165259E+04  0.00000000000E+00 0.  1.
         25    1    1    2    0    0 -0.21668368921E+03 -0.15821567945E+03 -0.96863090541E+03  0.10128449305E+04  0.12500000000E+03 0.  0.
         21    1    1    2  503  502  0.21668368921E+03  0.15821567945E+03 -0.72123516543E+03  0.76952205052E+03  0.00000000000E+00 0.  1.
<mgrwt>
<rscale>  3 0.29598821E+03</rscale>
<asrwt>0</asrwt>
<pdfrwt beam="1">  1       21 0.71154550E-02 0.29598821E+03</pdfrwt>
<pdfrwt beam="2">  1       21 0.26709484E+00 0.29598821E+03</pdfrwt>
<totfact> 0.71280932E+03</totfact>
</mgrwt>
</event>
<event>
 4    0  0.1051004E-001  0.2664069E+03  0.7546771E-02  0.1103354E+00
         21   -1    0    0  502  501  0.00000000000E+00  0.00000000000E+00  0.13023161815E+03  0.13023161815E+03  0.00000000000E+00 0.  1.
         21   -1    0    0  503  502 -0.00000000000E+00 -0.00000000000E+00 -0.96745263584E+03  0.96745263584E+03  0.00000000000E+00 0.  1.
         25    1    1    2    0    0  0.22979486502E+03  0.50417556037E+02 -0.43630062095E+02  0.26995590800E+03  0.12500000000E+03 0.  0.
         21    1    1    2  503  501 -0.22979486502E+03 -0.50417556037E+02 -0.79359095559E+03  0.82772834598E+03  0.00000000000E+00 0.  1.
<mgrwt>
<rscale>  3 0.26640685E+03</rscale>
<asrwt>0</asrwt>
<pdfrwt beam="1">  1       21 0.20035633E-01 0.26640685E+03</pdfrwt>
<pdfrwt beam="2">  1       21 0.14883887E+00 0.26640685E+03</pdfrwt>
<totfact> 0.66654713E+03</totfact>
</mgrwt>
</event>
<event>
 4    0  0.1597710E-001  0.3035790E+03  0.7546771E-02  0.1083465E+00
         21   -1    0    0  502  501  0.00000000000E+00  0.00000000000E+00  0.30176833338E+03  0.30176833338E+03  0.00000000000E+00 0. -1.
         21   -1    0    0  503  502 -0.00000000000E+00 -0.00000000000E+00 -0.33559626900E+03  0.33559626900E+03  0.00000000000E+00 0. -1.
         25    1    1    2    0    0  0.22548642179E+03  0.16028428939E+03  0.11329062758E+03  0.32402923655E+03  0.12500000000E+03 0.  0.
         21    1    1    2  503  501 -0.22548642179E+03 -0.16028428939E+03 -0.14711856320E+03  0.31333536583E+03  0.00000000000E+00 0. -1.
<mgrwt>
<rscale>  3 0.30357895E+03</rscale>
<asrwt>0</asrwt>
<pdfrwt beam="1">  1       21 0.46425898E-01 0.30357895E+03</pdfrwt>
<pdfrwt beam="2">  1       21 0.51630195E-01 0.30357895E+03</pdfrwt>
<totfact> 0.14950881E+04</totfact>
</mgrwt>
</event>
<event>
 4    0  0.1003929E-001  0.3528554E+03  0.7546771E-02  0.1061449E+00
         21   -1    0    0  503  501  0.00000000000E+00  0.00000000000E+00  0.60571907805E+03  0.60571907805E+03  0.00000000000E+00 0. -1.
         21   -1    0    0  501  502 -0.00000000000E+00 -0.00000000000E+00 -0.27385511715E+03  0.27385511715E+03  0.00000000000E+00 0. -1.
         25    1    1    2    0    0  0.71992164962E+02  0.32202338762E+03 -0.69860385200E+02  0.35970461133E+03  0.12500000000E+03 0.  0.
         21    1    1    2  503  502 -0.71992164962E+02 -0.32202338762E+03  0.40172434610E+03  0.51986958388E+03  0.00000000000E+00 0. -1.
<mgrwt>
<rscale>  3 0.35285540E+03</rscale>
<asrwt>0</asrwt>
<pdfrwt beam="1">  1       21 0.93187550E-01 0.35285540E+03</pdfrwt>
<pdfrwt beam="2">  1       21 0.42131557E-01 0.35285540E+03</pdfrwt>
<totfact> 0.47828804E+03</totfact>
</mgrwt>
</event>
<event>
 4    0  0.1462815E-001  0.2376423E+03  0.7546771E-02  0.1121373E+00
         21   -1    0    0  502  501  0.00000000000E+00  0.00000000000E+00  0.27445417446E+03  0.27445417446E+03  0.00000000000E+00 0.  1.
         21   -1    0    0  503  502 -0.00000000000E+00 -0.00000000000E+00 -0.21303356008E+03  0.21303356008E+03  0.00000000000E+00 0.  1.
         25    1    1    2    0    0 -0.18288978620E+03 -0.86024465542E+02  0.13390523090E+03  0.27277187067E+03  0.12500000000E+03 0.  0.
         21    1    1    2  503  501  0.18288978620E+03  0.86024465542E+02 -0.72484616524E+02  0.21471586387E+03  0.00000000000E+00 0.  1.
<mgrwt>
<rscale>  3 0.23764234E+03</rscale>
<asrwt>0</asrwt>
<pdfrwt beam="1">  1       21 0.42223719E-01 0.23764234E+03</pdfrwt>
<pdfrwt beam="2">  1       21 0.32774394E-01 0.23764234E+03</pdfrwt>
<totfact> 0.47372337E+04</totfact>
</mgrwt>
</event>
<event>
 4    0  0.1134475E-001  0.2870033E+03  0.7546771E-02  0.1091924E+00
         21   -1    0    0  503  501  0.00000000000E+00  0.00000000000E+00  0.12315332765E+04  0.12315332765E+04  0.00000000000E+00 0.  1.
         21   -1    0    0  501  502 -0.00000000000E+00 -0.00000000000E+00 -0.72523519189E+02  0.72523519189E+02  0.00000000000E+00 0.  1.
         25    1    1    2    0    0  0.22953613757E+03  0.11857089912E+03  0.87141208948E+03  0.91745840574E+03  0.12500000000E+03 0.  0.
         21    1    1    2  503  502 -0.22953613757E+03 -0.11857089912E+03  0.28759766785E+03  0.38659838996E+03  0.00000000000E+00 0.  1.
<mgrwt>
<rscale>  3 0.28700330E+03</rscale>
<asrwt>0</asrwt>
<pdfrwt beam="1">  1       21 0.18946664E+00 0.28700330E+03</pdfrwt>
<pdfrwt beam="2">  1       21 0.11157465E-01 0.28700330E+03</pdfrwt>
<totfact> 0.98478738E+03</totfact>
</mgrwt>
</event>
<event>
 4    0  0.1481796E-001  0.2837528E+03  0.7546771E-02  0.1093657E+00
         21   -1    0    0  502  501  0.00000000000E+00  0.00000000000E+00  0.30907137655E+03  0.30907137655E+03  0.00000000000E+00 0.  1.
         21   -1    0    0  503  502 -0.00000000000E+00 -0.00000000000E+00 -0.31026014962E+03  0.31026014962E+03  0.00000000000E+00 0.  1.
         25    1    1    2    0    0 -0.24564223397E+03 -0.67457767267E+02  0.15218383502E+03  0.32198692072E+03  0.12500000000E+03 0.  0.
         21    1    1    2  503  501  0.24564223397E+03  0.67457767267E+02 -0.15337260809E+03  0.29734460544E+03  0.00000000000E+00 0.  1.
<mgrwt>
<rscale>  3 0.28375281E+03</rscale>
<asrwt>0</asrwt>
<pdfrwt beam="1">  1       21 0.47549443E-01 0.28375281E+03</pdfrwt>
<pdfrwt beam="2">  1       21 0.47732331E-01 0.28375281E+03</pdfrwt>
<totfact> 0.16918880E+04</totfact>
</mgrwt>
</event>
<event>
 4    0  0.1003929E-001  0.3188394E+03  0.7546771E-02  0.1076185E+00
         21   -1    0    0  502  501  0.00000000000E+00  0.00000000000E+00  0.55304550614E+03  0.55304550614E+03  0.00000000000E+00 0. -1.
         21   -1    0    0  503  502 -0.00000000000E+00 -0.00000000000E+00 -0.16951639520E+03  0.16951639520E+03  0.00000000000E+00 0.  1.
         25    1    1    2    0    0  0.16290169832E+03  0.24391925564E+03  0.19009840121E+03  0.37120879398E+03  0.12500000000E+03 0.  0.
         21    1    1    2  503  501 -0.16290169832E+03 -0.24391925564E+03  0.19343070973E+03  0.35135310736E+03  0.00000000000E+00 0.  1.
<mgrwt>
<rscale>  3 0.31883941E+03</rscale>
<asrwt>0</asrwt>
<pdfrwt beam="1">  1       21 0.85083923E-01 0.31883941E+03</pdfrwt>
<pdfrwt beam="2">  1       21 0.26079446E-01 0.31883941E+03</pdfrwt>
<totfact> 0.15666087E+04</totfact>
</mgrwt>
</event>
<event>
 4    0  0.1292717E-001  0.2435373E+03  0.7546771E-02  0.1117459E+00
         21   -1    0    0  503  501  0.00000000000E+00  0.00000000000E+00  0.10125883945E+03  0.10125883945E+03  0.00000000000E+00 0. -1.
         21   -1    0    0  501  502 -0.00000000000E+00 -0.00000000000E+00 -0.50713660039E+03  0.50713660039E+03  0.00000000000E+00 0. -1.
         25    1    1    2    0    0  0.19783172632E+03 -0.67439129578E+02 -0.23488661803E+03  0.33835211166E+03  0.12500000000E+03 0.  0.
         21    1    1    2  503  502 -0.19783172632E+03  0.67439129578E+02 -0.17099114291E+03  0.27004332817E+03  0.00000000000E+00 0. -1.
<mgrwt>
<rscale>  3 0.24353732E+03</rscale>
<asrwt>0</asrwt>
<pdfrwt beam="1">  1       21 0.15578283E-01 0.24353732E+03</pdfrwt>
<pdfrwt beam="2">  1       21 0.78021017E-01 0.24353732E+03</pdfrwt>
<totfact> 0.52059267E+04</totfact>
</mgrwt>
</event>
<event>
 4    0  0.1003929E-001  0.3974170E+03  0.7546771E-02  0.1044678E+00
         21   -1    0    0  502  501  0.00000000000E+00  0.00000000000E+00  0.92344228962E+02  0.92344228962E+02  0.00000000000E+00 0. -1.
         21   -1    0    0  503  502 -0.00000000000E+00 -0.00000000000E+00 -0.25500298888E+04  0.25500298888E+04  0.00000000000E+00 0.  1.
         25    1    1    2    0    0  0.90314151741E+02  0.36627671409E+03 -0.45350717795E+03  0.60300003130E+03  0.12500000000E+03 0.  0.
         21    1    1    2  503  501 -0.90314151741E+02 -0.36627671409E+03 -0.20041784819E+04  0.20393740865E+04  0.00000000000E+00 0.  1.
<mgrwt>
<rscale>  3 0.39741701E+03</rscale>
<asrwt>0</asrwt>
<pdfrwt beam="1">  1       21 0.14206804E-01 0.39741701E+03</pdfrwt>
<pdfrwt beam="2">  1       21 0.39231231E+00 0.39741701E+03</pdfrwt>
<totfact> 0.33649642E+02</totfact>
</mgrwt>
</event>
<event>
 4    0  0.1365971E-001  0.3492155E+03  0.7546771E-02  0.1062938E+00
         21   -1    0    0  502  501  0.00000000000E+00  0.00000000000E+00  0.11097766568E+04  0.11097766568E+04  0.00000000000E+00 0. -1.
         21   -1    0    0  503  502 -0.00000000000E+00 -0.00000000000E+00 -0.10741350586E+03  0.10741350586E+03  0.00000000000E+00 0. -1.
         25    1    1    2    0    0  0.29133974432E+03 -0.14644993714E+03  0.64464337358E+03  0.73315517444E+03  0.12500000000E+03 0.  0.
         21    1    1    2  503  501 -0.29133974432E+03  0.14644993714E+03  0.35771977737E+03  0.48403498823E+03  0.00000000000E+00 0. -1.
<mgrwt>
<rscale>  3 0.34921545E+03</rscale>
<asrwt>0</asrwt>
<pdfrwt beam="1">  1       21 0.17073486E+00 0.34921545E+03</pdfrwt>
<pdfrwt beam="2">  1       21 0.16525156E-01 0.34921545E+03</pdfrwt>
<totfact> 0.62814515E+03</totfact>
</mgrwt>
</event>
<event>
 4    0  0.1282593E-001  0.2794779E+03  0.7546771E-02  0.1095974E+00
         21   -1    0    0  503  501  0.00000000000E+00  0.00000000000E+00  0.15345989834E+03  0.15345989834E+03  0.00000000000E+00 0.  1.
         21   -1    0    0  501  502 -0.00000000000E+00 -0.00000000000E+00 -0.70217924464E+03  0.70217924464E+03  0.00000000000E+00 0.  1.
         25    1    1    2    0    0  0.11472743988E+03  0.22208224126E+03 -0.31580618090E+02  0.28125654265E+03  0.12500000000E+03 0.  0.
         21    1    1    2  503  502 -0.11472743988E+03 -0.22208224126E+03 -0.51713872821E+03  0.57438260033E+03  0.00000000000E+00 0.  1.
<mgrwt>
<rscale>  3 0.27947792E+03</rscale>
<asrwt>0</asrwt>
<pdfrwt beam="1">  1       21 0.23609215E-01 0.27947792E+03</pdfrwt>
<pdfrwt beam="2">  1       21 0.10802758E+00 0.27947792E+03</pdfrwt>
<totfact> 0.10942488E+04</totfact>
</mgrwt>
</event>
<event>
 4    0  0.1640298E-001  0.2950480E+03  0.7546771E-02  0.1087743E+00
         21   -1    0    0  502  501  0.00000000000E+00  0.00000000000E+00  0.28164848096E+03  0.28164848096E+03  0.00000000000E+00 0. -1.
         21   -1    0    0  503  502 -0.00000000000E+00 -0.00000000000E+00 -0.30629196032E+03  0.30629196032E+03  0.00000000000E+00 0. -1.
         25    1    1    2    0    0 -0.23483405873E+03  0.12759820235E+03  0.72063739000E+02  0.30372112021E+03  0.12500000000E+03 0.  0.
         21    1    1    2  503  501  0.23483405873E+03 -0.12759820235E+03 -0.96707218361E+02  0.28421932106E+03  0.00000000000E+00 0. -1.
<mgrwt>
<rscale>  3 0.29504802E+03</rscale>
<asrwt>0</asrwt>
<pdfrwt beam="1">  1       21 0.43330536E-01 0.29504802E+03</pdfrwt>
<pdfrwt beam="2">  1       21 0.47121840E-01 0.29504802E+03</pdfrwt>
<totfact> 0.20980421E+04</totfact>
</mgrwt>
</event>
<event>
 4    0  0.1279650E-001  0.2660212E+03  0.7546771E-02  0.1103579E+00
         21   -1    0    0  503  501  0.00000000000E+00  0.00000000000E+00  0.10778031955E+03  0.10778031955E+03  0.00000000000E+00 0.  1.
         21   -1    0    0  501  502 -0.00000000000E+00 -0.00000000000E+00 -0.59248964567E+03  0.59248964567E+03  0.00000000000E+00 0.  1.
         25    1    1    2    0    0  0.20435196667E+02  0.23393301801E+03 -0.21033787051E+03  0.33913017257E+03  0.12500000000E+03 0.  0.
         21    1    1    2  503  502 -0.20435196667E+02 -0.23393301801E+03 -0.27437145562E+03  0.36113979265E+03  0.00000000000E+00 0.  1.
<mgrwt>
<rscale>  3 0.26602115E+03</rscale>
<asrwt>0</asrwt>
<pdfrwt beam="1">  1       21 0.16581588E-01 0.26602115E+03</pdfrwt>
<pdfrwt beam="2">  1       21 0.91152252E-01 0.26602115E+03</pdfrwt>
<totfact> 0.32134288E+04</totfact>
</mgrwt>
</event>
<event>
 4    0  0.1098311E-001  0.5618342E+03  0.7546771E-02  0.9987913E-01
         21   -1    0    0  503  501  0.00000000000E+00  0.00000000000E+00  0.42464296842E+03  0.42464296842E+03  0.00000000000E+00 0. -1.
         21   -1    0    0  501  502 -0.00000000000E+00 -0.00000000000E+00 -0.16064188110E+04  0.16064188110E+04  0.00000000000E+00 0.  1.
         25    1    1    2    0    0 -0.69891025606E+02 -0.54327514433E+03  0.15800941610E+03  0.58363054537E+03  0.12500000000E+03 0.  0.
         21    1    1    2  503  502  0.69891025606E+02  0.54327514433E+03 -0.13397852586E+04  0.14474312340E+04  0.00000000000E+00 0.  1.
<mgrwt>
<rscale>  3 0.56183417E+03</rscale>
<asrwt>0</asrwt>
<pdfrwt beam="1">  1       21 0.65329687E-01 0.56183417E+03</pdfrwt>
<pdfrwt beam="2">  1       21 0.24714136E+00 0.56183417E+03</pdfrwt>
<totfact> 0.11074466E+02</totfact>
</mgrwt>
</event>
<event>
 4    0  0.1118889E-001  0.2581197E+03  0.7546771E-02  0.1108278E+00
         21   -1    0    0  502  501  0.00000000000E+00  0.00000000000E+00  0.49203861076E+03  0.49203861076E+03  0.00000000000E+00 0.  1.
         21   -1    0    0  503  502 -0.00000000000E+00 -0.00000000000E+00 -0.12452898876E+03  0.12452898876E+03  0.00000000000E+00 0.  1.
         25    1    1    2    0    0  0.17429533808E+03 -0.14360326077E+03  0.13064969212E+03  0.28930106020E+03  0.12500000000E+03 0.  0.
         21    1    1    2  503  501 -0.17429533808E+03  0.14360326077E+03  0.23685992988E+03  0.32726653932E+03  0.00000000000E+00 0.  1.
<mgrwt>
<rscale>  3 0.25811966E+03</rscale>
<asrwt>0</asrwt>
<pdfrwt beam="1">  1       21 0.75698247E-01 0.25811966E+03</pdfrwt>
<pdfrwt beam="2">  1       21 0.19158306E-01 0.25811966E+03</pdfrwt>
<totfact> 0.37756116E+04</totfact>
</mgrwt>
</event>
<event>
 4    0  0.1119533E-001  0.2361488E+03  0.7546771E-02  0.1122385E+00
         21   -1    0    0  502  501  0.00000000000E+00  0.00000000000E+00  0.12294036460E+03  0.12294036460E+03  0.00000000000E+00 0.  1.
         21   -1    0    0  503  502 -0.00000000000E+00 -0.00000000000E+00 -0.62973423115E+03  0.62973423115E+03  0.00000000000E+00 0. -1.
         25    1    1    2    0    0  0.17168145236E+03  0.10327979456E+03 -0.33233806448E+02  0.23847583303E+03  0.12500000000E+03 0.  0.
         21    1    1    2  503  501 -0.17168145236E+03 -0.10327979456E+03 -0.47356006011E+03  0.51419876272E+03  0.00000000000E+00 0. -1.
<mgrwt>
<rscale>  3 0.23614876E+03</rscale>
<asrwt>0</asrwt>
<pdfrwt beam="1">  1       21 0.18913902E-01 0.23614876E+03</pdfrwt>
<pdfrwt beam="2">  1       21 0.96882190E-01 0.23614876E+03</pdfrwt>
<totfact> 0.22106062E+04</totfact>
</mgrwt>
</event>
<event>
 4    0  0.1060657E-001  0.3598426E+03  0.7546771E-02  0.1058646E+00
         21   -1    0    0  502  501  0.00000000000E+00  0.00000000000E+00  0.76572220644E+03  0.76572220644E+03  0.00000000000E+00 0. -1.
         21   -1    0    0  503  502 -0.00000000000E+00 -0.00000000000E+00 -0.32274470557E+03  0.32274470557E+03  0.00000000000E+00 0. -1.
         25    1    1    2    0    0  0.27047237851E+03 -0.20175832993E+03  0.61285148807E+03  0.71068535771E+03  0.12500000000E+03 0.  0.
         21    1    1    2  503  501 -0.27047237851E+03  0.20175832993E+03 -0.16987398721E+03  0.37778155429E+03  0.00000000000E+00 0. -1.
<mgrwt>
<rscale>  3 0.35984265E+03</rscale>
<asrwt>0</asrwt>
<pdfrwt beam="1">  1       21 0.11780342E+00 0.35984265E+03</pdfrwt>
<pdfrwt beam="2">  1       21 0.49653032E-01 0.35984265E+03</pdfrwt>
<totfact> 0.19099236E+03</totfact>
</mgrwt>
</event>
<event>
 4    0  0.1347814E-001  0.3267012E+03  0.7546771E-02  0.1072606E+00
         21   -1    0    0  502  501  0.00000000000E+00  0.00000000000E+00  0.59692094323E+03  0.59692094323E+03  0.00000000000E+00 0. -1.
         21   -1    0    0  503  502 -0.00000000000E+00 -0.00000000000E+00 -0.27078652270E+03  0.27078652270E+03  0.00000000000E+00 0. -1.
         25    1    1    2    0    0  0.14452278990E+03 -0.26499406800E+03  0.43746017649E+03  0.54599001721E+03  0.12500000000E+03 0.  0.
         21    1    1    2  503  501 -0.14452278990E+03  0.26499406800E+03 -0.11132575596E+03  0.32171744873E+03  0.00000000000E+00 0. -1.
<mgrwt>
<rscale>  3 0.32670123E+03</rscale>
<asrwt>0</asrwt>
<pdfrwt beam="1">  1       21 0.91833991E-01 0.32670123E+03</pdfrwt>
<pdfrwt beam="2">  1       21 0.41659465E-01 0.32670123E+03</pdfrwt>
<totfact> 0.51275237E+03</totfact>
</mgrwt>
</event>
<event>
 4    0  0.1003929E-001  0.2962016E+03  0.7546771E-02  0.1087155E+00
         21   -1    0    0  503  501  0.00000000000E+00  0.00000000000E+00  0.57925569119E+03  0.57925569119E+03  0.00000000000E+00 0.  1.
         21   -1    0    0  501  502 -0.00000000000E+00 -0.00000000000E+00 -0.88823492126E+03  0.88823492126E+03  0.00000000000E+00 0.  1.
         25    1    1    2    0    0  0.87082894333E+02 -0.25402152845E+03  0.51871343445E+03  0.59732653924E+03  0.12500000000E+03 0.  0.
         21    1    1    2  503  502 -0.87082894333E+02  0.25402152845E+03 -0.82769266452E+03  0.87016407320E+03  0.00000000000E+00 0.  1.
<mgrwt>
<rscale>  3 0.29620157E+03</rscale>
<asrwt>0</asrwt>
<pdfrwt beam="1">  1       21 0.89116260E-01 0.29620157E+03</pdfrwt>
<pdfrwt beam="2">  1       21 0.13665153E+00 0.29620157E+03</pdfrwt>
<totfact> 0.37135451E+02</totfact>
</mgrwt>
</event>
<event>
 4    0  0.1356796E-001  0.2456970E+03  0.7546771E-02  0.1116055E+00
         21   -1    0    0  502  501  0.00000000000E+00  0.00000000000E+00  0.64178585131E+02  0.64178585131E+02  0.00000000000E+00 0.  1.
         21   -1    0    0  503  502 -0.00000000000E+00 -0.00000000000E+00 -0.96431487269E+03  0.96431487269E+03  0.00000000000E+00 0.  1.
         25    1    1    2    0    0  0.21098637143E+03 -0.15059111161E+02 -0.27614615094E+03  0.36962646339E+03  0.12500000000E+03 0.  0.
         21    1    1    2  503  501 -0.21098637143E+03  0.15059111161E+02 -0.62399013662E+03  0.65886699443E+03  0.00000000000E+00 0.  1.
<mgrwt>
<rscale>  3 0.24569702E+03</rscale>
<asrwt>0</asrwt>
<pdfrwt beam="1">  1       21 0.98736289E-02 0.24569702E+03</pdfrwt>
<pdfrwt beam="2">  1       21 0.14835613E+00 0.24569702E+03</pdfrwt>
<totfact> 0.24743520E+04</totfact>
</mgrwt>
</event>
<event>
 4    0  0.1154284E-001  0.3233268E+03  0.7546771E-02  0.1074128E+00
         21   -1    0    0  502  501  0.00000000000E+00  0.00000000000E+00  0.93888380450E+03  0.93888380450E+03  0.00000000000E+00 0. -1.
         21   -1    0    0  503  502 -0.00000000000E+00 -0.00000000000E+00 -0.15858213809E+03  0.15858213809E+03  0.00000000000E+00 0.  1.
         25    1    1    2    0    0 -0.22072356348E+03  0.20049016105E+03  0.72549906322E+03  0.79428526796E+03  0.12500000000E+03 0.  0.
         21    1    1    2  503  501  0.22072356348E+03 -0.20049016105E+03  0.54802603182E+02  0.30318067463E+03  0.00000000000E+00 0.  1.
<mgrwt>
<rscale>  3 0.32332676E+03</rscale>
<asrwt>0</asrwt>
<pdfrwt beam="1">  1       21 0.14444366E+00 0.32332676E+03</pdfrwt>
<pdfrwt beam="2">  1       21 0.24397253E-01 0.32332676E+03</pdfrwt>
<totfact> 0.48083724E+03</totfact>
</mgrwt>
</event>
<event>
 4    0  0.1095512E-001  0.2360858E+03  0.7546771E-02  0.1122428E+00
         21   -1    0    0  503  501  0.00000000000E+00  0.00000000000E+00  0.76641154202E+02  0.76641154202E+02  0.00000000000E+00 0. -1.
         21   -1    0    0  501  502 -0.00000000000E+00 -0.00000000000E+00 -0.10610723611E+04  0.10610723611E+04  0.00000000000E+00 0.  1.
         25    1    1    2    0    0  0.19164222011E+03  0.58178589606E+02 -0.15028514770E+03  0.27986088408E+03  0.12500000000E+03 0.  0.
         21    1    1    2  503  502 -0.19164222011E+03 -0.58178589606E+02 -0.83414605919E+03  0.85785263121E+03  0.00000000000E+00 0.  1.
<mgrwt>
<rscale>  3 0.23608577E+03</rscale>
<asrwt>0</asrwt>
<pdfrwt beam="1">  1       21 0.11790947E-01 0.23608577E+03</pdfrwt>
<pdfrwt beam="2">  1       21 0.16324190E+00 0.23608577E+03</pdfrwt>
<totfact> 0.14011293E+04</totfact>
</mgrwt>
</event>
<event>
 4    0  0.1003929E-001  0.3316607E+03  0.7546771E-02  0.1070404E+00
         21   -1    0    0  502  501  0.00000000000E+00  0.00000000000E+00  0.31597692436E+03  0.31597692436E+03  0.00000000000E+00 0.  1.
         21   -1    0    0  503  502 -0.00000000000E+00 -0.00000000000E+00 -0.42184862143E+03  0.42184862143E+03  0.00000000000E+00 0.  1.
         25    1    1    2    0    0 -0.29082397623E+03  0.98970953699E+02 -0.23303393159E+03  0.40534386402E+03  0.12500000000E+03 0.  0.
         21    1    1    2  503  501  0.29082397623E+03 -0.98970953699E+02  0.12716223452E+03  0.33248168177E+03  0.00000000000E+00 0.  1.
<mgrwt>
<rscale>  3 0.33166072E+03</rscale>
<asrwt>0</asrwt>
<pdfrwt beam="1">  1       21 0.48611835E-01 0.33166072E+03</pdfrwt>
<pdfrwt beam="2">  1       21 0.64899788E-01 0.33166072E+03</pdfrwt>
<totfact> 0.81851208E+03</totfact>
</mgrwt>
</event>
<event>
 4    0  0.1003929E-001  0.3216785E+03  0.7546771E-02  0.1074879E+00
         21   -1    0    0  503  501  0.00000000000E+00  0.00000000000E+00  0.37760741643E+02  0.37760741643E+02  0.00000000000E+00 0.  1.
         21   -1    0    0  501  502 -0.00000000000E+00 -0.00000000000E+00 -0.27239128193E+04  0.27239128193E+04  0.00000000000E+00 0.  1.
         25    1    1    2    0    0  0.34850598984E+02 -0.29434247342E+03 -0.10251934042E+04  0.10744759522E+04  0.12500000000E+03 0.  0.
         21    1    1    2  503  502 -0.34850598984E+02  0.29434247342E+03 -0.16609586735E+04  0.16871976087E+04  0.00000000000E+00 0.  1.
<mgrwt>
<rscale>  3 0.32167850E+03</rscale>
<asrwt>0</asrwt>
<pdfrwt beam="1">  1       21 0.58093444E-02 0.32167850E+03</pdfrwt>
<pdfrwt beam="2">  1       21 0.41906355E+00 0.32167850E+03</pdfrwt>
<totfact> 0.11855279E+03</totfact>
</mgrwt>
</event>
<event>
 4    0  0.1036409E-001  0.2893919E+03  0.7546771E-02  0.1090667E+00
         21   -1    0    0  502  501  0.00000000000E+00  0.00000000000E+00  0.15043772825E+04  0.15043772825E+04  0.00000000000E+00 0.  1.
         21   -1    0    0  503  502 -0.00000000000E+00 -0.00000000000E+00 -0.51498395751E+02  0.51498395751E+02  0.00000000000E+00 0.  1.
         25    1    1    2    0    0 -0.52946963380E+02  0.25557642577E+03  0.64665658130E+03  0.70845777890E+03  0.12500000000E+03 0.  0.
         21    1    1    2  503  501  0.52946963380E+02 -0.25557642577E+03  0.80622230547E+03  0.84741789937E+03  0.00000000000E+00 0.  1.
<mgrwt>
<rscale>  3 0.28939193E+03</rscale>
<asrwt>0</asrwt>
<pdfrwt beam="1">  1       21 0.23144263E+00 0.28939193E+03</pdfrwt>
<pdfrwt beam="2">  1       21 0.79228313E-02 0.28939193E+03</pdfrwt>
<totfact> 0.97264954E+03</totfact>
</mgrwt>
</event>
<event>
 4    0  0.1003929E-001  0.2789626E+03  0.7546771E-02  0.1096257E+00
         21   -1    0    0  503  501  0.00000000000E+00  0.00000000000E+00  0.22046331424E+03  0.22046331424E+03  0.00000000000E+00 0. -1.
         21   -1    0    0  501  502 -0.00000000000E+00 -0.00000000000E+00 -0.56159982786E+03  0.56159982786E+03  0.00000000000E+00 0. -1.
         25    1    1    2    0    0  0.81905936182E+02 -0.23555578100E+03 -0.43401904265E+03  0.51593859880E+03  0.12500000000E+03 0.  0.
         21    1    1    2  503  502 -0.81905936182E+02  0.23555578100E+03  0.92882529030E+02  0.26612454330E+03  0.00000000000E+00 0. -1.
<mgrwt>
<rscale>  3 0.27896256E+03</rscale>
<asrwt>0</asrwt>
<pdfrwt beam="1">  1       21 0.33917434E-01 0.27896256E+03</pdfrwt>
<pdfrwt beam="2">  1       21 0.86399972E-01 0.27896256E+03</pdfrwt>
<totfact> 0.91765657E+03</totfact>
</mgrwt>
</event>
<event>
 4    0  0.1003929E-001  0.2840936E+03  0.7546771E-02  0.1093474E+00
         21   -1    0    0  502  501  0.00000000000E+00  0.00000000000E+00  0.24347654976E+04  0.24347654976E+04  0.00000000000E+00 0. -1.
         21   -1    0    0  503  502 -0.00000000000E+00 -0.00000000000E+00 -0.45251405601E+02  0.45251405601E+02  0.00000000000E+00 0. -1.
         25    1    1    2    0    0  0.21088722450E+02 -0.25424286187E+03  0.19597574697E+04  0.19802420325E+04  0.12500000000E+03 0.  0.
         21    1    1    2  503  501 -0.21088722450E+02  0.25424286187E+03  0.42975662231E+03  0.49977487076E+03  0.00000000000E+00 0. -1.
<mgrwt>
<rscale>  3 0.28409359E+03</rscale>
<asrwt>0</asrwt>
<pdfrwt beam="1">  1       21 0.37457920E+00 0.28409359E+03</pdfrwt>
<pdfrwt beam="2">  1       21 0.69617566E-02 0.28409359E+03</pdfrwt>
<totfact> 0.17106250E+03</totfact>
</mgrwt>
</event>
<event>
 4    0  0.1293393E-001  0.2493862E+03  0.7546771E-02  0.1113693E+00
         21   -1    0    0  502  501  0.00000000000E+00  0.00000000000E+00  0.91142032580E+03  0.91142032580E+03  0.00000000000E+00 0. -1.
         21   -1    0    0  503  502 -0.00000000000E+00 -0.00000000000E+00 -0.11964975976E+03  0.11964975976E+03  0.00000000000E+00 0.  1.
         25    1    1    2    0    0  0.16598911014E+03  0.13789887176E+03  0.77555431098E+03  0.81466433136E+03  0.12500000000E+03 0.  0.
         21    1    1    2  503  501 -0.16598911014E+03 -0.13789887176E+03  0.16216255066E+02  0.21640575419E+03  0.00000000000E+00 0.  1.
<mgrwt>
<rscale>  3 0.24938621E+03</rscale>
<asrwt>0</asrwt>
<pdfrwt beam="1">  1       21 0.14021851E+00 0.24938621E+03</pdfrwt>
<pdfrwt beam="2">  1       21 0.18407656E-01 0.24938621E+03</pdfrwt>
<totfact> 0.92356589E+03</totfact>
</mgrwt>
</event>
<event>
 4    0  0.1017757E-001  0.2541890E+03  0.7546771E-02  0.1110686E+00
         21   -1    0    0  502  501  0.00000000000E+00  0.00000000000E+00  0.59157875038E+03  0.59157875038E+03  0.00000000000E+00 0.  1.
         21   -1    0    0  503  502 -0.00000000000E+00 -0.00000000000E+00 -0.46760996600E+03  0.46760996600E+03  0.00000000000E+00 0.  1.
         25    1    1    2    0    0 -0.12459469406E+03  0.18292957929E+03  0.53502241450E+03  0.59233525371E+03  0.12500000000E+03 0.  0.
         21    1    1    2  503  501  0.12459469406E+03 -0.18292957929E+03 -0.41105363013E+03  0.46685346267E+03  0.00000000000E+00 0.  1.
<mgrwt>
<rscale>  3 0.25418904E+03</rscale>
<asrwt>0</asrwt>
<pdfrwt beam="1">  1       21 0.91012115E-01 0.25418904E+03</pdfrwt>
<pdfrwt beam="2">  1       21 0.71939995E-01 0.25418904E+03</pdfrwt>
<totfact> 0.16973300E+03</totfact>
</mgrwt>
</event>
<event>
 4    0  0.1003929E-001  0.2636428E+03  0.7546771E-02  0.1104974E+00
         21   -1    0    0  503  501  0.00000000000E+00  0.00000000000E+00  0.44333348976E+03  0.44333348976E+03  0.00000000000E+00 0.  1.
         21   -1    0    0  501  502 -0.00000000000E+00 -0.00000000000E+00 -0.18058895506E+03  0.18058895506E+03  0.00000000000E+00 0. -1.
         25    1    1    2    0    0 -0.14024307909E+03  0.18497132003E+03  0.28797176427E+03  0.39042956789E+03  0.12500000000E+03 0.  0.
         21    1    1    2  503  502  0.14024307909E+03 -0.18497132003E+03 -0.25227229566E+02  0.23349287693E+03  0.00000000000E+00 0. -1.
<mgrwt>
<rscale>  3 0.26364277E+03</rscale>
<asrwt>0</asrwt>
<pdfrwt beam="1">  1       21 0.68205152E-01 0.26364277E+03</pdfrwt>
<pdfrwt beam="2">  1       21 0.27782916E-01 0.26364277E+03</pdfrwt>
<totfact> 0.23391473E+04</totfact>
</mgrwt>
</event>
<event>
 4    0  0.1003929E-001  0.2799038E+03  0.7546771E-02  0.1095742E+00
         21   -1    0    0  503  501  0.00000000000E+00  0.00000000000E+00  0.10277245227E+04  0.10277245227E+04  0.00000000000E+00 0. -1.
         21   -1    0    0  501  502 -0.00000000000E+00 -0.00000000000E+00 -0.24002634535E+03  0.24002634535E+03  0.00000000000E+00 0. -1.
         25    1    1    2    0    0 -0.16435266177E+03 -0.18896913422E+03  0.93582122137E+03  0.97678425944E+03  0.12500000000E+03 0.  0.
         21    1    1    2  503  502  0.16435266177E+03  0.18896913422E+03 -0.14812304406E+03  0.29096660857E+03  0.00000000000E+00 0. -1.
<mgrwt>
<rscale>  3 0.27990379E+03</rscale>
<asrwt>0</asrwt>
<pdfrwt beam="1">  1       21 0.15811146E+00 0.27990379E+03</pdfrwt>
<pdfrwt beam="2">  1       21 0.36927130E-01 0.27990379E+03</pdfrwt>
<totfact> 0.17097074E+03</totfact>
</mgrwt>
</event>
<event>
 4    0  0.1157768E-001  0.2909942E+03  0.7546771E-02  0.1089831E+00
         21   -1    0    0  502  501  0.00000000000E+00  0.00000000000E+00  0.15628250070E+04  0.15628250070E+04  0.00000000000E+00 0.  1.
         21   -1    0    0  503  502 -0.00000000000E+00 -0.00000000000E+00 -0.63348007825E+02  0.63348007825E+02  0.00000000000E+00 0.  1.
         25    1    1    2    0    0  0.24160137098E+03 -0.10335078911E+03  0.11651349775E+04  0.12009234463E+04  0.12500000000E+03 0.  0.
         21    1    1    2  503  501 -0.24160137098E+03  0.10335078911E+03  0.33434202163E+03  0.42524956848E+03  0.00000000000E+00 0.  1.
<mgrwt>
<rscale>  3 0.29099417E+03</rscale>
<asrwt>0</asrwt>
<pdfrwt beam="1">  1       21 0.24043459E+00 0.29099417E+03</pdfrwt>
<pdfrwt beam="2">  1       21 0.97458486E-02 0.29099417E+03</pdfrwt>
<totfact> 0.59374596E+03</totfact>
</mgrwt>
</event>
<event>
 4    0  0.1003929E-001  0.2922239E+03  0.7546771E-02  0.1089194E+00
         21   -1    0    0  502  501  0.00000000000E+00  0.00000000000E+00  0.10608455569E+04  0.10608455569E+04  0.00000000000E+00 0.  1.
         21   -1    0    0  503  502 -0.00000000000E+00 -0.00000000000E+00 -0.74264412121E+02  0.74264412121E+02  0.00000000000E+00 0. -1.
         25    1    1    2    0    0  0.26410386294E+03  0.43562502062E+01  0.59325641104E+03  0.66132291400E+03  0.12500000000E+03 0.  0.
         21    1    1    2  503  501 -0.26410386294E+03 -0.43562502062E+01  0.39332473370E+03  0.47378705499E+03  0.00000000000E+00 0. -1.
<mgrwt>
<rscale>  3 0.29222393E+03</rscale>
<asrwt>0</asrwt>
<pdfrwt beam="1">  1       21 0.16320700E+00 0.29222393E+03</pdfrwt>
<pdfrwt beam="2">  1       21 0.11425295E-01 0.29222393E+03</pdfrwt>
<totfact> 0.14382286E+04</totfact>
</mgrwt>
</event>
<event>
 4    0  0.1003929E-001  0.3014075E+03  0.7546771E-02  0.1084539E+00
         21   -1    0    0  503  501  0.00000000000E+00  0.00000000000E+00  0.14044135507E+03  0.14044135507E+03  0.00000000000E+00 0. -1.
         21   -1    0    0  501  502 -0.00000000000E+00 -0.00000000000E+00 -0.65228279083E+03  0.65228279083E+03  0.00000000000E+00 0.  1.
         25    1    1    2    0    0  0.92226314225E+02  0.25829395697E+03 -0.14440443490E+03  0.33421415598E+03  0.12500000000E+03 0.  0.
         21    1    1    2  503  502 -0.92226314225E+02 -0.25829395697E+03 -0.36743700086E+03  0.45850998991E+03  0.00000000000E+00 0.  1.
<mgrwt>
<rscale>  3 0.30140747E+03</rscale>
<asrwt>0</asrwt>
<pdfrwt beam="1">  1       21 0.21606362E-01 0.30140747E+03</pdfrwt>
<pdfrwt beam="2">  1       21 0.10035120E+00 0.30140747E+03</pdfrwt>
<totfact> 0.15342093E+04</totfact>
</mgrwt>
</event>
<event>
 4    0  0.1374522E-001  0.2685626E+03  0.7546771E-02  0.1102105E+00
         21   -1    0    0  502  501  0.00000000000E+00  0.00000000000E+00  0.19313456245E+03  0.19313456245E+03  0.00000000000E+00 0. -1.
         21   -1    0    0  503  502 -0.00000000000E+00 -0.00000000000E+00 -0.49451462175E+03  0.49451462175E+03  0.00000000000E+00 0. -1.
         25    1    1    2    0    0  0.22065671362E+03  0.88382540902E+02  0.40146553584E+02  0.27154668948E+03  0.12500000000E+03 0.  0.
         21    1    1    2  503  501 -0.22065671362E+03 -0.88382540902E+02 -0.34152661289E+03  0.41610249472E+03  0.00000000000E+00 0. -1.
<mgrwt>
<rscale>  3 0.26856258E+03</rscale>
<asrwt>0</asrwt>
<pdfrwt beam="1">  1       21 0.29713009E-01 0.26856258E+03</pdfrwt>
<pdfrwt beam="2">  1       21 0.76079174E-01 0.26856258E+03</pdfrwt>
<totfact> 0.16032864E+04</totfact>
</mgrwt>
</event>
<event>
 4    0  0.1197594E-001  0.2490715E+03  0.7546771E-02  0.1113893E+00
         21   -1    0    0  503  501  0.00000000000E+00  0.00000000000E+00  0.13717469639E+04  0.13717469639E+04  0.00000000000E+00 0.  1.
         21   -1    0    0  501  502 -0.00000000000E+00 -0.00000000000E+00 -0.47696348043E+02  0.47696348043E+02  0.00000000000E+00 0.  1.
         25    1    1    2    0    0 -0.98077141051E+02 -0.19181365171E+03  0.99827542639E+03  0.10288782384E+04  0.12500000000E+03 0.  0.
         21    1    1    2  503  502  0.98077141051E+02  0.19181365171E+03  0.32577518947E+03  0.39056507352E+03  0.00000000000E+00 0.  1.
<mgrwt>
<rscale>  3 0.24907148E+03</rscale>
<asrwt>0</asrwt>
<pdfrwt beam="1">  1       21 0.21103796E+00 0.24907148E+03</pdfrwt>
<pdfrwt beam="2">  1       21 0.73379007E-02 0.24907148E+03</pdfrwt>
<totfact> 0.15291675E+04</totfact>
</mgrwt>
</event>
<event>
 4    0  0.1518714E-001  0.2805521E+03  0.7546771E-02  0.1095388E+00
         21   -1    0    0  502  501  0.00000000000E+00  0.00000000000E+00  0.42626908623E+03  0.42626908623E+03  0.00000000000E+00 0.  1.
         21   -1    0    0  503  502 -0.00000000000E+00 -0.00000000000E+00 -0.17340731373E+03  0.17340731373E+03  0.00000000000E+00 0.  1.
         25    1    1    2    0    0 -0.18265295715E+03  0.17240173973E+03  0.19576696016E+03  0.34210256548E+03  0.12500000000E+03 0.  0.
         21    1    1    2  503  501  0.18265295715E+03 -0.17240173973E+03  0.57094812342E+02  0.25757383449E+03  0.00000000000E+00 0.  1.
<mgrwt>
<rscale>  3 0.28055207E+03</rscale>
<asrwt>0</asrwt>
<pdfrwt beam="1">  1       21 0.65579859E-01 0.28055207E+03</pdfrwt>
<pdfrwt beam="2">  1       21 0.26678048E-01 0.28055207E+03</pdfrwt>
<totfact> 0.27403053E+04</totfact>
</mgrwt>
</event>
<event>
 4    0  0.1003929E-001  0.3484801E+03  0.7546771E-02  0.1063241E+00
         21   -1    0    0  503  501  0.00000000000E+00  0.00000000000E+00  0.26956714695E+03  0.26956714695E+03  0.00000000000E+00 0. -1.
         21   -1    0    0  501  502 -0.00000000000E+00 -0.00000000000E+00 -0.46535120503E+03  0.46535120503E+03  0.00000000000E+00 0.  1.
         25    1    1    2    0    0  0.10728150607E+03 -0.30708961493E+03  0.12422959920E+02  0.34870142396E+03  0.12500000000E+03 0.  0.
         21    1    1    2  503  502 -0.10728150607E+03  0.30708961493E+03 -0.20820701800E+03  0.38621692801E+03  0.00000000000E+00 0.  1.
<mgrwt>
<rscale>  3 0.34848006E+03</rscale>
<asrwt>0</asrwt>
<pdfrwt beam="1">  1       21 0.41471869E-01 0.34848006E+03</pdfrwt>
<pdfrwt beam="2">  1       21 0.71592492E-01 0.34848006E+03</pdfrwt>
<totfact> 0.90938076E+03</totfact>
</mgrwt>
</event>
<event>
 4    0  0.1117133E-001  0.2990869E+03  0.7546771E-02  0.1085698E+00
         21   -1    0    0  502  501  0.00000000000E+00  0.00000000000E+00  0.97747999692E+03  0.97747999692E+03  0.00000000000E+00 0. -1.
         21   -1    0    0  503  502 -0.00000000000E+00 -0.00000000000E+00 -0.17080467624E+03  0.17080467624E+03  0.00000000000E+00 0. -1.
         25    1    1    2    0    0 -0.26989746457E+03  0.31358440281E+02  0.82342049052E+03  0.87605610400E+03  0.12500000000E+03 0.  0.
         21    1    1    2  503  501  0.26989746457E+03 -0.31358440281E+02 -0.16745169839E+02  0.27222856916E+03  0.00000000000E+00 0. -1.
<mgrwt>
<rscale>  3 0.29908693E+03</rscale>
<asrwt>0</asrwt>
<pdfrwt beam="1">  1       21 0.15038154E+00 0.29908693E+03</pdfrwt>
<pdfrwt beam="2">  1       21 0.26277643E-01 0.29908693E+03</pdfrwt>
<totfact> 0.37900958E+03</totfact>
</mgrwt>
</event>
<event>
 4    0  0.1333354E-001  0.3044582E+03  0.7546771E-02  0.1083033E+00
         21   -1    0    0  502  501  0.00000000000E+00  0.00000000000E+00  0.91295036570E+03  0.91295036570E+03  0.00000000000E+00 0.  1.
         21   -1    0    0  503  502 -0.00000000000E+00 -0.00000000000E+00 -0.95307666638E+02  0.95307666638E+02  0.00000000000E+00 0.  1.
         25    1    1    2    0    0 -0.45476222380E+02 -0.27386439212E+03  0.50921345236E+03  0.59329009105E+03  0.12500000000E+03 0.  0.
         21    1    1    2  503  501  0.45476222380E+02  0.27386439212E+03  0.30842924670E+03  0.41496794129E+03  0.00000000000E+00 0.  1.
<mgrwt>
<rscale>  3 0.30445819E+03</rscale>
<asrwt>0</asrwt>
<pdfrwt beam="1">  1       21 0.14045390E+00 0.30445819E+03</pdfrwt>
<pdfrwt beam="2">  1       21 0.14662719E-01 0.30445819E+03</pdfrwt>
<totfact> 0.13607111E+04</totfact>
</mgrwt>
</event>
<event>
 4    0  0.1080353E-001  0.2566358E+03  0.7546771E-02  0.1109182E+00
         21   -1    0    0  503  501  0.00000000000E+00  0.00000000000E+00  0.57443525715E+03  0.57443525715E+03  0.00000000000E+00 0. -1.
         21   -1    0    0  501  502 -0.00000000000E+00 -0.00000000000E+00 -0.14457167905E+03  0.14457167905E+03  0.00000000000E+00 0.  1.
         25    1    1    2    0    0  0.21323680062E+03 -0.69043411997E+02  0.42300292621E+03  0.49476600678E+03  0.12500000000E+03 0.  0.
         21    1    1    2  503  502 -0.21323680062E+03  0.69043411997E+02  0.68606518892E+01  0.22424092942E+03  0.00000000000E+00 0.  1.
<mgrwt>
<rscale>  3 0.25663578E+03</rscale>
<asrwt>0</asrwt>
<pdfrwt beam="1">  1       21 0.88374654E-01 0.25663578E+03</pdfrwt>
<pdfrwt beam="2">  1       21 0.22241797E-01 0.25663578E+03</pdfrwt>
<totfact> 0.20005028E+04</totfact>
</mgrwt>
</event>
<event>
 4    0  0.1262173E-001  0.2623967E+03  0.7546771E-02  0.1105712E+00
         21   -1    0    0  502  501  0.00000000000E+00  0.00000000000E+00  0.70230095228E+03  0.70230095228E+03  0.00000000000E+00 0. -1.
         21   -1    0    0  503  502 -0.00000000000E+00 -0.00000000000E+00 -0.95260162255E+02  0.95260162255E+02  0.00000000000E+00 0. -1.
         25    1    1    2    0    0 -0.60804489718E+02  0.22255295373E+03  0.20092707889E+03  0.33049008187E+03  0.12500000000E+03 0.  0.
         21    1    1    2  503  501  0.60804489718E+02 -0.22255295373E+03  0.40611371114E+03  0.46707103267E+03  0.00000000000E+00 0. -1.
<mgrwt>
<rscale>  3 0.26239665E+03</rscale>
<asrwt>0</asrwt>
<pdfrwt beam="1">  1       21 0.10804630E+00 0.26239665E+03</pdfrwt>
<pdfrwt beam="2">  1       21 0.14655410E-01 0.26239665E+03</pdfrwt>
<totfact> 0.26906590E+04</totfact>
</mgrwt>
</event>
<event>
 4    0  0.1566188E-001  0.2988165E+03  0.7546771E-02  0.1085834E+00
         21   -1    0    0  503  501  0.00000000000E+00  0.00000000000E+00  0.26960827384E+03  0.26960827384E+03  0.00000000000E+00 0.  1.
         21   -1    0    0  501  502 -0.00000000000E+00 -0.00000000000E+00 -0.31942938260E+03  0.31942938260E+03  0.00000000000E+00 0.  1.
         25    1    1    2    0    0  0.13500678309E+03  0.23545583515E+03  0.43629679687E+02  0.30198481872E+03  0.12500000000E+03 0.  0.
         21    1    1    2  503  502 -0.13500678309E+03 -0.23545583515E+03 -0.93450788444E+02  0.28705283773E+03  0.00000000000E+00 0.  1.
<mgrwt>
<rscale>  3 0.29881647E+03</rscale>
<asrwt>0</asrwt>
<pdfrwt beam="1">  1       21 0.41478196E-01 0.29881647E+03</pdfrwt>
<pdfrwt beam="2">  1       21 0.49142982E-01 0.29881647E+03</pdfrwt>
<totfact> 0.20989246E+04</totfact>
</mgrwt>
</event>
<event>
 4    0  0.1594652E-001  0.3305353E+03  0.7546771E-02  0.1070900E+00
         21   -1    0    0  503  501  0.00000000000E+00  0.00000000000E+00  0.18931766334E+03  0.18931766334E+03  0.00000000000E+00 0. -1.
         21   -1    0    0  501  502 -0.00000000000E+00 -0.00000000000E+00 -0.53932781934E+03  0.53932781934E+03  0.00000000000E+00 0. -1.
         25    1    1    2    0    0  0.22479858366E+02  0.30516096596E+03 -0.14919754822E+03  0.36264785616E+03  0.12500000000E+03 0.  0.
         21    1    1    2  503  502 -0.22479858366E+02 -0.30516096596E+03 -0.20081260778E+03  0.36599762652E+03  0.00000000000E+00 0. -1.
<mgrwt>
<rscale>  3 0.33053526E+03</rscale>
<asrwt>0</asrwt>
<pdfrwt beam="1">  1       21 0.29125795E-01 0.33053526E+03</pdfrwt>
<pdfrwt beam="2">  1       21 0.82973509E-01 0.33053526E+03</pdfrwt>
<totfact> 0.13318766E+04</totfact>
</mgrwt>
</event>
<event>
 4    0  0.1003929E-001  0.2574789E+03  0.7546771E-02  0.1108667E+00
         21   -1    0    0  502  501  0.00000000000E+00  0.00000000000E+00  0.15919256743E+03  0.15919256743E+03  0.00000000000E+00 0.  1.
         21   -1    0    0  503  502 -0.00000000000E+00 -0.00000000000E+00 -0.47528693761E+03  0.47528693761E+03  0.00000000000E+00 0.  1.
         25    1    1    2    0    0  0.21959370499E+03  0.49487367756E+02 -0.31825616343E+03  0.40936826990E+03  0.12500000000E+03 0.  0.
         21    1    1    2  503  501 -0.21959370499E+03 -0.49487367756E+02  0.21617932474E+01  0.22511123515E+03  0.00000000000E+00 0.  1.
<mgrwt>
<rscale>  3 0.25747892E+03</rscale>
<asrwt>0</asrwt>
<pdfrwt beam="1">  1       21 0.24491165E-01 0.25747892E+03</pdfrwt>
<pdfrwt beam="2">  1       21 0.73121066E-01 0.25747892E+03</pdfrwt>
<totfact> 0.25631409E+04</totfact>
</mgrwt>
</event>
<event>
 4    0  0.1101509E-001  0.2482771E+03  0.7546771E-02  0.1114398E+00
         21   -1    0    0  502  501  0.00000000000E+00  0.00000000000E+00  0.61357697391E+03  0.61357697391E+03  0.00000000000E+00 0.  1.
         21   -1    0    0  503  502 -0.00000000000E+00 -0.00000000000E+00 -0.27233458128E+03  0.27233458128E+03  0.00000000000E+00 0.  1.
         25    1    1    2    0    0  0.21170021825E+03 -0.34634664568E+02  0.53945222339E+03  0.59384361891E+03  0.12500000000E+03 0.  0.
         21    1    1    2  503  501 -0.21170021825E+03  0.34634664568E+02 -0.19820983076E+03  0.29206793628E+03  0.00000000000E+00 0.  1.
<mgrwt>
<rscale>  3 0.24827715E+03</rscale>
<asrwt>0</asrwt>
<pdfrwt beam="1">  1       21 0.94396457E-01 0.24827715E+03</pdfrwt>
<pdfrwt beam="2">  1       21 0.41897628E-01 0.24827715E+03</pdfrwt>
<totfact> 0.49550450E+03</totfact>
</mgrwt>
</event>
<event>
 4    0  0.1003929E-001  0.3249970E+03  0.7546771E-02  0.1073372E+00
         21   -1    0    0  503  501  0.00000000000E+00  0.00000000000E+00  0.17310484304E+04  0.17310484304E+04  0.00000000000E+00 0.  1.
         21   -1    0    0  501  502 -0.00000000000E+00 -0.00000000000E+00 -0.86993492455E+02  0.86993492455E+02  0.00000000000E+00 0.  1.
         25    1    1    2    0    0  0.64739462821E+02  0.29292806046E+03  0.13820228426E+04  0.14197218686E+04  0.12500000000E+03 0.  0.
         21    1    1    2  503  502 -0.64739462821E+02 -0.29292806046E+03  0.26203209535E+03  0.39832005428E+03  0.00000000000E+00 0.  1.
<mgrwt>
<rscale>  3 0.32499699E+03</rscale>
<asrwt>0</asrwt>
<pdfrwt beam="1">  1       21 0.26631512E+00 0.32499699E+03</pdfrwt>
<pdfrwt beam="2">  1       21 0.13383615E-01 0.32499699E+03</pdfrwt>
<totfact> 0.22900821E+03</totfact>
</mgrwt>
</event>
<event>
 4    0  0.1116547E-001  0.2596016E+03  0.7546771E-02  0.1107383E+00
         21   -1    0    0  503  501  0.00000000000E+00  0.00000000000E+00  0.49730655573E+03  0.49730655573E+03  0.00000000000E+00 0. -1.
         21   -1    0    0  501  502 -0.00000000000E+00 -0.00000000000E+00 -0.36330701970E+03  0.36330701970E+03  0.00000000000E+00 0. -1.
         25    1    1    2    0    0 -0.25249552067E+00  0.22752564505E+03  0.42085390228E+03  0.49448052537E+03  0.12500000000E+03 0.  0.
         21    1    1    2  503  502  0.25249552067E+00 -0.22752564505E+03 -0.28685436625E+03  0.36613305006E+03  0.00000000000E+00 0. -1.
<mgrwt>
<rscale>  3 0.25960158E+03</rscale>
<asrwt>0</asrwt>
<pdfrwt beam="1">  1       21 0.76508701E-01 0.25960158E+03</pdfrwt>
<pdfrwt beam="2">  1       21 0.55893388E-01 0.25960158E+03</pdfrwt>
<totfact> 0.43730986E+03</totfact>
</mgrwt>
</event>
<event>
 4    0  0.1366893E-001  0.5585089E+03  0.7546771E-02  0.9995434E-01
         21   -1    0    0  502  501  0.00000000000E+00  0.00000000000E+00  0.59515191525E+03  0.59515191525E+03  0.00000000000E+00 0. -1.
         21   -1    0    0  503  502 -0.00000000000E+00 -0.00000000000E+00 -0.10177608703E+04  0.10177608703E+04  0.00000000000E+00 0.  1.
         25    1    1    2    0    0 -0.31067352217E+02  0.54345380170E+03  0.35642130611E+03  0.66254687562E+03  0.12500000000E+03 0.  0.
         21    1    1    2  503  501  0.31067352217E+02 -0.54345380170E+03 -0.77903026110E+03  0.95036590988E+03  0.00000000000E+00 0.  1.
<mgrwt>
<rscale>  3 0.55850892E+03</rscale>
<asrwt>0</asrwt>
<pdfrwt beam="1">  1       21 0.91561834E-01 0.55850892E+03</pdfrwt>
<pdfrwt beam="2">  1       21 0.15657859E+00 0.55850892E+03</pdfrwt>
<totfact> 0.20951917E+02</totfact>
</mgrwt>
</event>
<event>
 4    0  0.1089963E-001  0.3758512E+03  0.7546771E-02  0.1052478E+00
         21   -1    0    0  503  501  0.00000000000E+00  0.00000000000E+00  0.66795202120E+03  0.66795202120E+03  0.00000000000E+00 0.  1.
         21   -1    0    0  501  502 -0.00000000000E+00 -0.00000000000E+00 -0.44750481790E+03  0.44750481790E+03  0.00000000000E+00 0.  1.
         25    1    1    2    0    0  0.20487198657E+03  0.28925183507E+03  0.52668008575E+03  0.64703637278E+03  0.12500000000E+03 0.  0.
         21    1    1    2  503  502 -0.20487198657E+03 -0.28925183507E+03 -0.30623288246E+03  0.46842046632E+03  0.00000000000E+00 0.  1.
<mgrwt>
<rscale>  3 0.37585124E+03</rscale>
<asrwt>0</asrwt>
<pdfrwt beam="1">  1       21 0.10276185E+00 0.37585124E+03</pdfrwt>
<pdfrwt beam="2">  1       21 0.68846895E-01 0.37585124E+03</pdfrwt>
<totfact> 0.13050423E+03</totfact>
</mgrwt>
</event>
<event>
 4    0  0.1423023E-001  0.2534053E+03  0.7546771E-02  0.1111171E+00
         21   -1    0    0  502  501  0.00000000000E+00  0.00000000000E+00  0.81361219231E+02  0.81361219231E+02  0.00000000000E+00 0. -1.
         21   -1    0    0  503  502 -0.00000000000E+00 -0.00000000000E+00 -0.80551195740E+03  0.80551195740E+03  0.00000000000E+00 0. -1.
         25    1    1    2    0    0  0.21628268788E+03 -0.42556219217E+02 -0.21599896739E+03  0.33297115008E+03  0.12500000000E+03 0.  0.
         21    1    1    2  503  501 -0.21628268788E+03  0.42556219217E+02 -0.50815177078E+03  0.55390202655E+03  0.00000000000E+00 0. -1.
<mgrwt>
<rscale>  3 0.25340527E+03</rscale>
<asrwt>0</asrwt>
<pdfrwt beam="1">  1       21 0.12517110E-01 0.25340527E+03</pdfrwt>
<pdfrwt beam="2">  1       21 0.12392492E+00 0.25340527E+03</pdfrwt>
<totfact> 0.25645519E+04</totfact>
</mgrwt>
</event>
<event>
 4    0  0.1325761E-001  0.2770540E+03  0.7546771E-02  0.1097309E+00
         21   -1    0    0  502  501  0.00000000000E+00  0.00000000000E+00  0.15590844371E+03  0.15590844371E+03  0.00000000000E+00 0.  1.
         21   -1    0    0  503  502 -0.00000000000E+00 -0.00000000000E+00 -0.66549022726E+03  0.66549022726E+03  0.00000000000E+00 0.  1.
         25    1    1    2    0    0 -0.24563132256E+03  0.28270125110E+02 -0.25997696369E+02  0.27827113902E+03  0.12500000000E+03 0.  0.
         21    1    1    2  503  501  0.24563132256E+03 -0.28270125110E+02 -0.48358408718E+03  0.54312753196E+03  0.00000000000E+00 0.  1.
<mgrwt>
<rscale>  3 0.27705405E+03</rscale>
<asrwt>0</asrwt>
<pdfrwt beam="1">  1       21 0.23985914E-01 0.27705405E+03</pdfrwt>
<pdfrwt beam="2">  1       21 0.10238311E+00 0.27705405E+03</pdfrwt>
<totfact> 0.12107843E+04</totfact>
</mgrwt>
</event>
<event>
 4    0  0.1003929E-001  0.2658174E+03  0.7546771E-02  0.1103698E+00
         21   -1    0    0  503  501  0.00000000000E+00  0.00000000000E+00  0.13160371059E+03  0.13160371059E+03  0.00000000000E+00 0.  1.
         21   -1    0    0  501  502 -0.00000000000E+00 -0.00000000000E+00 -0.13065746381E+04  0.13065746381E+04  0.00000000000E+00 0.  1.
         25    1    1    2    0    0 -0.34053461788E+02  0.23210822298E+03 -0.27800907887E+02  0.26726719947E+03  0.12500000000E+03 0.  0.
         21    1    1    2  503  502  0.34053461788E+02 -0.23210822298E+03 -0.11471700197E+04  0.11709111493E+04  0.00000000000E+00 0.  1.
<mgrwt>
<rscale>  3 0.26581735E+03</rscale>
<asrwt>0</asrwt>
<pdfrwt beam="1">  1       21 0.20246724E-01 0.26581735E+03</pdfrwt>
<pdfrwt beam="2">  1       21 0.20101149E+00 0.26581735E+03</pdfrwt>
<totfact> 0.28019978E+03</totfact>
</mgrwt>
</event>
<event>
 4    0  0.1112681E-001  0.2496066E+03  0.7546771E-02  0.1113554E+00
         21   -1    0    0  502  501  0.00000000000E+00  0.00000000000E+00  0.51124874759E+03  0.51124874759E+03  0.00000000000E+00 0. -1.
         21   -1    0    0  503  502 -0.00000000000E+00 -0.00000000000E+00 -0.36438656132E+03  0.36438656132E+03  0.00000000000E+00 0. -1.
         25    1    1    2    0    0  0.20016628092E+03  0.81313775205E+02  0.44334617233E+03  0.50878217203E+03  0.12500000000E+03 0.  0.
         21    1    1    2  503  501 -0.20016628092E+03 -0.81313775205E+02 -0.29648398606E+03  0.36685313689E+03  0.00000000000E+00 0. -1.
<mgrwt>
<rscale>  3 0.24960663E+03</rscale>
<asrwt>0</asrwt>
<pdfrwt beam="1">  1       21 0.78653654E-01 0.24960663E+03</pdfrwt>
<pdfrwt beam="2">  1       21 0.56059471E-01 0.24960663E+03</pdfrwt>
<totfact> 0.41072627E+03</totfact>
</mgrwt>
</event>
<event>
 4    0  0.1070133E-001  0.3157439E+03  0.7546771E-02  0.1077625E+00
         21   -1    0    0  502  501  0.00000000000E+00  0.00000000000E+00  0.16815552828E+04  0.16815552828E+04  0.00000000000E+00 0. -1.
         21   -1    0    0  503  502 -0.00000000000E+00 -0.00000000000E+00 -0.78758562234E+02  0.78758562234E+02  0.00000000000E+00 0. -1.
         25    1    1    2    0    0  0.63381058510E+02  0.28293470529E+03  0.13127829593E+04  0.13502197244E+04  0.12500000000E+03 0.  0.
         21    1    1    2  503  501 -0.63381058510E+02 -0.28293470529E+03  0.29001376133E+03  0.41009412066E+03  0.00000000000E+00 0. -1.
<mgrwt>
<rscale>  3 0.31574389E+03</rscale>
<asrwt>0</asrwt>
<pdfrwt beam="1">  1       21 0.25870079E+00 0.31574389E+03</pdfrwt>
<pdfrwt beam="2">  1       21 0.12116703E-01 0.31574389E+03</pdfrwt>
<totfact> 0.30663632E+03</totfact>
</mgrwt>
</event>
<event>
 4    0  0.1300576E-001  0.2587536E+03  0.7546771E-02  0.1107894E+00
         21   -1    0    0  503  501  0.00000000000E+00  0.00000000000E+00  0.93673432752E+03  0.93673432752E+03  0.00000000000E+00 0. -1.
         21   -1    0    0  501  502 -0.00000000000E+00 -0.00000000000E+00 -0.63036013406E+02  0.63036013406E+02  0.00000000000E+00 0. -1.
         25    1    1    2    0    0  0.22629562268E+03 -0.10895286705E+02  0.43928412516E+03  0.50982738131E+03  0.12500000000E+03 0.  0.
         21    1    1    2  503  502 -0.22629562268E+03  0.10895286705E+02  0.43441418896E+03  0.48994295962E+03  0.00000000000E+00 0. -1.
<mgrwt>
<rscale>  3 0.25875358E+03</rscale>
<asrwt>0</asrwt>
<pdfrwt beam="1">  1       21 0.14411296E+00 0.25875358E+03</pdfrwt>
<pdfrwt beam="2">  1       21 0.96978489E-02 0.25875358E+03</pdfrwt>
<totfact> 0.27398027E+04</totfact>
</mgrwt>
</event>
<event>
 4    0  0.1394859E-001  0.2777955E+03  0.7546771E-02  0.1096899E+00
         21   -1    0    0  503  501  0.00000000000E+00  0.00000000000E+00  0.14123939047E+03  0.14123939047E+03  0.00000000000E+00 0.  1.
         21   -1    0    0  501  502 -0.00000000000E+00 -0.00000000000E+00 -0.49269876030E+03  0.49269876030E+03  0.00000000000E+00 0.  1.
         25    1    1    2    0    0  0.71232972399E+02 -0.23763673460E+03 -0.16010802559E+03  0.32063208486E+03  0.12500000000E+03 0.  0.
         21    1    1    2  503  502 -0.71232972399E+02  0.23763673460E+03 -0.19135134425E+03  0.31330606591E+03  0.00000000000E+00 0.  1.
<mgrwt>
<rscale>  3 0.27779553E+03</rscale>
<asrwt>0</asrwt>
<pdfrwt beam="1">  1       21 0.21729137E-01 0.27779553E+03</pdfrwt>
<pdfrwt beam="2">  1       21 0.75799809E-01 0.27779553E+03</pdfrwt>
<totfact> 0.29446659E+04</totfact>
</mgrwt>
</event>
<event>
 4    0  0.1122366E-001  0.2968241E+03  0.7546771E-02  0.1086839E+00
         21   -1    0    0  502  501  0.00000000000E+00  0.00000000000E+00  0.16675976002E+04  0.16675976002E+04  0.00000000000E+00 0.  1.
         21   -1    0    0  503  502 -0.00000000000E+00 -0.00000000000E+00 -0.49666228848E+02  0.49666228848E+02  0.00000000000E+00 0.  1.
         25    1    1    2    0    0  0.10534428923E+03 -0.24775420781E+03  0.10025913155E+04  0.10456069590E+04  0.12500000000E+03 0.  0.
         21    1    1    2  503  501 -0.10534428923E+03  0.24775420781E+03  0.61534005580E+03  0.67165687002E+03  0.00000000000E+00 0.  1.
<mgrwt>
<rscale>  3 0.29682413E+03</rscale>
<asrwt>0</asrwt>
<pdfrwt beam="1">  1       21 0.25655343E+00 0.29682413E+03</pdfrwt>
<pdfrwt beam="2">  1       21 0.76409596E-02 0.29682413E+03</pdfrwt>
<totfact> 0.72682150E+03</totfact>
</mgrwt>
</event>
<event>
 4    0  0.1386433E-001  0.2870236E+03  0.7546771E-02  0.1091913E+00
         21   -1    0    0  502  501  0.00000000000E+00  0.00000000000E+00  0.21375094741E+03  0.21375094741E+03  0.00000000000E+00 0.  1.
         21   -1    0    0  503  502 -0.00000000000E+00 -0.00000000000E+00 -0.35009209162E+03  0.35009209162E+03  0.00000000000E+00 0.  1.
         25    1    1    2    0    0  0.14577042736E+03  0.21332729657E+03 -0.93985113396E+02  0.30201946045E+03  0.12500000000E+03 0.  0.
         21    1    1    2  503  501 -0.14577042736E+03 -0.21332729657E+03 -0.42356030811E+02  0.26182357858E+03  0.00000000000E+00 0.  1.
<mgrwt>
<rscale>  3 0.28702361E+03</rscale>
<asrwt>0</asrwt>
<pdfrwt beam="1">  1       21 0.32884761E-01 0.28702361E+03</pdfrwt>
<pdfrwt beam="2">  1       21 0.53860322E-01 0.28702361E+03</pdfrwt>
<totfact> 0.27755569E+04</totfact>
</mgrwt>
</event>
<event>
 4    0  0.1141914E-001  0.2588405E+03  0.7546771E-02  0.1107842E+00
         21   -1    0    0  502  501  0.00000000000E+00  0.00000000000E+00  0.28372627332E+03  0.28372627332E+03  0.00000000000E+00 0. -1.
         21   -1    0    0  503  502 -0.00000000000E+00 -0.00000000000E+00 -0.26027600160E+03  0.26027600160E+03  0.00000000000E+00 0. -1.
         25    1    1    2    0    0 -0.22546126064E+03 -0.23250819989E+02 -0.10970203475E+03  0.28112793726E+03  0.12500000000E+03 0.  0.
         21    1    1    2  503  501  0.22546126064E+03  0.23250819989E+02  0.13315230648E+03  0.26287433766E+03  0.00000000000E+00 0. -1.
<mgrwt>
<rscale>  3 0.25884045E+03</rscale>
<asrwt>0</asrwt>
<pdfrwt beam="1">  1       21 0.43650196E-01 0.25884045E+03</pdfrwt>
<pdfrwt beam="2">  1       21 0.40042462E-01 0.25884045E+03</pdfrwt>
<totfact> 0.29343447E+04</totfact>
</mgrwt>
</event>
<event>
 4    0  0.1157731E-001  0.3434393E+03  0.7546771E-02  0.1065340E+00
         21   -1    0    0  503  501  0.00000000000E+00  0.00000000000E+00  0.67548713775E+02  0.67548713775E+02  0.00000000000E+00 0.  1.
         21   -1    0    0  501  502 -0.00000000000E+00 -0.00000000000E+00 -0.16843818181E+04  0.16843818181E+04  0.00000000000E+00 0.  1.
         25    1    1    2    0    0  0.20388189081E+03 -0.24649084565E+03 -0.67663787999E+03  0.75880786964E+03  0.12500000000E+03 0.  0.
         21    1    1    2  503  502 -0.20388189081E+03  0.24649084565E+03 -0.94019522437E+03  0.99312266227E+03  0.00000000000E+00 0.  1.
<mgrwt>
<rscale>  3 0.34343931E+03</rscale>
<asrwt>0</asrwt>
<pdfrwt beam="1">  1       21 0.10392110E-01 0.34343931E+03</pdfrwt>
<pdfrwt beam="2">  1       21 0.25913566E+00 0.34343931E+03</pdfrwt>
<totfact> 0.39489321E+03</totfact>
</mgrwt>
</event>
<event>
 4    0  0.1126832E-001  0.3090933E+03  0.7546771E-02  0.1080781E+00
         21   -1    0    0  503  501  0.00000000000E+00  0.00000000000E+00  0.26633174794E+03  0.26633174794E+03  0.00000000000E+00 0. -1.
         21   -1    0    0  501  502 -0.00000000000E+00 -0.00000000000E+00 -0.45226816720E+03  0.45226816720E+03  0.00000000000E+00 0.  1.
         25    1    1    2    0    0 -0.16381986332E+03  0.23038387154E+03  0.91663591729E+02  0.32239865064E+03  0.12500000000E+03 0.  0.
         21    1    1    2  503  502  0.16381986332E+03 -0.23038387154E+03 -0.27760001098E+03  0.39620126449E+03  0.00000000000E+00 0.  1.
<mgrwt>
<rscale>  3 0.30909331E+03</rscale>
<asrwt>0</asrwt>
<pdfrwt beam="1">  1       21 0.40974115E-01 0.30909331E+03</pdfrwt>
<pdfrwt beam="2">  1       21 0.69579718E-01 0.30909331E+03</pdfrwt>
<totfact> 0.10100670E+04</totfact>
</mgrwt>
</event>
<event>
 4    0  0.1003929E-001  0.3309151E+03  0.7546771E-02  0.1070733E+00
         21   -1    0    0  502  501  0.00000000000E+00  0.00000000000E+00  0.52538538990E+03  0.52538538990E+03  0.00000000000E+00 0.  1.
         21   -1    0    0  503  502 -0.00000000000E+00 -0.00000000000E+00 -0.13377337440E+04  0.13377337440E+04  0.00000000000E+00 0.  1.
         25    1    1    2    0    0  0.11946234617E+03  0.28214987188E+03  0.45311754737E+03  0.56108850824E+03  0.12500000000E+03 0.  0.
         21    1    1    2  503  501 -0.11946234617E+03 -0.28214987188E+03 -0.12654659015E+04  0.13020306256E+04  0.00000000000E+00 0.  1.
<mgrwt>
<rscale>  3 0.33091510E+03</rscale>
<asrwt>0</asrwt>
<pdfrwt beam="1">  1       21 0.80828520E-01 0.33091510E+03</pdfrwt>
<pdfrwt beam="2">  1       21 0.20580519E+00 0.33091510E+03</pdfrwt>
<totfact> 0.14343211E+02</totfact>
</mgrwt>
</event>
<event>
 4    0  0.1829205E-001  0.2468889E+03  0.7546771E-02  0.1115287E+00
         21   -1    0    0  502  501  0.00000000000E+00  0.00000000000E+00  0.27191167718E+03  0.27191167718E+03  0.00000000000E+00 0. -1.
         21   -1    0    0  503  502 -0.00000000000E+00 -0.00000000000E+00 -0.50699892469E+03  0.50699892469E+03  0.00000000000E+00 0.  1.
         25    1    1    2    0    0 -0.16292475210E+03 -0.13705704548E+03  0.18462476347E+03  0.30828624985E+03  0.12500000000E+03 0.  0.
         21    1    1    2  503  501  0.16292475210E+03  0.13705704548E+03 -0.41971201098E+03  0.47062435202E+03  0.00000000000E+00 0.  1.
<mgrwt>
<rscale>  3 0.24688886E+03</rscale>
<asrwt>0</asrwt>
<pdfrwt beam="1">  1       21 0.41832566E-01 0.24688886E+03</pdfrwt>
<pdfrwt beam="2">  1       21 0.77999834E-01 0.24688886E+03</pdfrwt>
<totfact> 0.77283191E+03</totfact>
</mgrwt>
</event>
<event>
 4    0  0.1003929E-001  0.2597185E+03  0.7546771E-02  0.1107312E+00
         21   -1    0    0  502  501  0.00000000000E+00  0.00000000000E+00  0.15172388401E+03  0.15172388401E+03  0.00000000000E+00 0.  1.
         21   -1    0    0  503  502 -0.00000000000E+00 -0.00000000000E+00 -0.45593084510E+03  0.45593084510E+03  0.00000000000E+00 0. -1.
         25    1    1    2    0    0 -0.64033690857E+02 -0.21846831266E+03 -0.46598445825E+02  0.26386574684E+03  0.12500000000E+03 0.  0.
         21    1    1    2  503  501  0.64033690857E+02  0.21846831266E+03 -0.25760851526E+03  0.34378898228E+03  0.00000000000E+00 0. -1.
<mgrwt>
<rscale>  3 0.25971853E+03</rscale>
<asrwt>0</asrwt>
<pdfrwt beam="1">  1       21 0.23342136E-01 0.25971853E+03</pdfrwt>
<pdfrwt beam="2">  1       21 0.70143206E-01 0.25971853E+03</pdfrwt>
<totfact> 0.30801284E+04</totfact>
</mgrwt>
</event>
<event>
 4    0  0.1003929E-001  0.2911183E+03  0.7546771E-02  0.1089767E+00
         21   -1    0    0  503  501  0.00000000000E+00  0.00000000000E+00  0.18423753762E+04  0.18423753762E+04  0.00000000000E+00 0.  1.
         21   -1    0    0  501  502 -0.00000000000E+00 -0.00000000000E+00 -0.68234446844E+02  0.68234446844E+02  0.00000000000E+00 0. -1.
         25    1    1    2    0    0 -0.16148286408E+03 -0.20748042787E+03  0.15104257729E+04  0.15382249052E+04  0.12500000000E+03 0.  0.
         21    1    1    2  503  502  0.16148286408E+03  0.20748042787E+03  0.26371515645E+03  0.37238491790E+03  0.00000000000E+00 0. -1.
<mgrwt>
<rscale>  3 0.29111826E+03</rscale>
<asrwt>0</asrwt>
<pdfrwt beam="1">  1       21 0.28344233E+00 0.29111826E+03</pdfrwt>
<pdfrwt beam="2">  1       21 0.10497609E-01 0.29111826E+03</pdfrwt>
<totfact> 0.28807811E+03</totfact>
</mgrwt>
</event>
<event>
 4    0  0.1081170E-001  0.2693994E+03  0.7546771E-02  0.1101624E+00
         21   -1    0    0  503  501  0.00000000000E+00  0.00000000000E+00  0.59340414411E+03  0.59340414411E+03  0.00000000000E+00 0. -1.
         21   -1    0    0  501  502 -0.00000000000E+00 -0.00000000000E+00 -0.15498142768E+03  0.15498142768E+03  0.00000000000E+00 0.  1.
         25    1    1    2    0    0  0.36956672488E+02  0.23576518008E+03  0.43265374098E+03  0.50967173294E+03  0.12500000000E+03 0.  0.
         21    1    1    2  503  502 -0.36956672488E+02 -0.23576518008E+03  0.57689754530E+01  0.23871383884E+03  0.00000000000E+00 0.  1.
<mgrwt>
<rscale>  3 0.26939936E+03</rscale>
<asrwt>0</asrwt>
<pdfrwt beam="1">  1       21 0.91292944E-01 0.26939936E+03</pdfrwt>
<pdfrwt beam="2">  1       21 0.23843297E-01 0.26939936E+03</pdfrwt>
<totfact> 0.16142443E+04</totfact>
</mgrwt>
</event>
<event>
 4    0  0.1369120E-001  0.2365710E+03  0.7546771E-02  0.1122098E+00
         21   -1    0    0  503  501  0.00000000000E+00  0.00000000000E+00  0.25851749800E+03  0.25851749800E+03  0.00000000000E+00 0.  1.
         21   -1    0    0  501  502 -0.00000000000E+00 -0.00000000000E+00 -0.20450495300E+03  0.20450495300E+03  0.00000000000E+00 0.  1.
         25    1    1    2    0    0  0.65564280771E+02 -0.18984771692E+03  0.10022261636E+03  0.25692489830E+03  0.12500000000E+03 0.  0.
         21    1    1    2  503  502 -0.65564280771E+02  0.18984771692E+03 -0.46210071362E+02  0.20609755270E+03  0.00000000000E+00 0.  1.
<mgrwt>
<rscale>  3 0.23657098E+03</rscale>
<asrwt>0</asrwt>
<pdfrwt beam="1">  1       21 0.39771923E-01 0.23657098E+03</pdfrwt>
<pdfrwt beam="2">  1       21 0.31462301E-01 0.23657098E+03</pdfrwt>
<totfact> 0.58034520E+04</totfact>
</mgrwt>
</event>
<event>
 4    0  0.1022158E-001  0.3571682E+03  0.7546771E-02  0.1059711E+00
         21   -1    0    0  502  501  0.00000000000E+00  0.00000000000E+00  0.42722776029E+03  0.42722776029E+03  0.00000000000E+00 0.  1.
         21   -1    0    0  503  502 -0.00000000000E+00 -0.00000000000E+00 -0.34527522375E+03  0.34527522375E+03  0.00000000000E+00 0.  1.
         25    1    1    2    0    0  0.30741595566E+03 -0.13205883919E+03 -0.12579301044E+03  0.37867266640E+03  0.12500000000E+03 0.  0.
         21    1    1    2  503  501 -0.30741595566E+03  0.13205883919E+03  0.20774554698E+03  0.39383031764E+03  0.00000000000E+00 0.  1.
<mgrwt>
<rscale>  3 0.35716818E+03</rscale>
<asrwt>0</asrwt>
<pdfrwt beam="1">  1       21 0.65727348E-01 0.35716818E+03</pdfrwt>
<pdfrwt beam="2">  1       21 0.53119265E-01 0.35716818E+03</pdfrwt>
<totfact> 0.65265609E+03</totfact>
</mgrwt>
</event>
<event>
 4    0  0.1003929E-001  0.2781521E+03  0.7546771E-02  0.1096703E+00
         21   -1    0    0  502  501  0.00000000000E+00  0.00000000000E+00  0.18163782884E+04  0.18163782884E+04  0.00000000000E+00 0.  1.
         21   -1    0    0  503  502 -0.00000000000E+00 -0.00000000000E+00 -0.15399062820E+03  0.15399062820E+03  0.00000000000E+00 0.  1.
         25    1    1    2    0    0  0.11829012097E+03  0.21852009618E+03  0.16968600849E+04  0.17195065376E+04  0.12500000000E+03 0.  0.
         21    1    1    2  503  501 -0.11829012097E+03 -0.21852009618E+03 -0.34472424656E+02  0.25086237904E+03  0.00000000000E+00 0.  1.
<mgrwt>
<rscale>  3 0.27815209E+03</rscale>
<asrwt>0</asrwt>
<pdfrwt beam="1">  1       21 0.27944280E+00 0.27815209E+03</pdfrwt>
<pdfrwt beam="2">  1       21 0.23690867E-01 0.27815209E+03</pdfrwt>
<totfact> 0.68359628E+02</totfact>
</mgrwt>
</event>
<event>
 4    0  0.1131332E-001  0.2406839E+03  0.7546771E-02  0.1119338E+00
         21   -1    0    0  503  501  0.00000000000E+00  0.00000000000E+00  0.14284134456E+04  0.14284134456E+04  0.00000000000E+00 0.  1.
         21   -1    0    0  501  502 -0.00000000000E+00 -0.00000000000E+00 -0.43241911544E+02  0.43241911544E+02  0.00000000000E+00 0.  1.
         25    1    1    2    0    0 -0.14998005463E+03 -0.14074702366E+03  0.10593363191E+04  0.10863342848E+04  0.12500000000E+03 0.  0.
         21    1    1    2  503  502  0.14998005463E+03  0.14074702366E+03  0.32583521495E+03  0.38532107230E+03  0.00000000000E+00 0.  1.
<mgrwt>
<rscale>  3 0.24068390E+03</rscale>
<asrwt>0</asrwt>
<pdfrwt beam="1">  1       21 0.21975588E+00 0.24068390E+03</pdfrwt>
<pdfrwt beam="2">  1       21 0.66526029E-02 0.24068390E+03</pdfrwt>
<totfact> 0.16072606E+04</totfact>
</mgrwt>
</event>
<event>
 4    0  0.1003929E-001  0.2991931E+03  0.7546771E-02  0.1085645E+00
         21   -1    0    0  503  501  0.00000000000E+00  0.00000000000E+00  0.16169983722E+03  0.16169983722E+03  0.00000000000E+00 0. -1.
         21   -1    0    0  501  502 -0.00000000000E+00 -0.00000000000E+00 -0.21398739744E+04  0.21398739744E+04  0.00000000000E+00 0. -1.
         25    1    1    2    0    0  0.25947471144E+03 -0.81020868213E+02  0.56166596734E+01  0.29924580837E+03  0.12500000000E+03 0.  0.
         21    1    1    2  503  502 -0.25947471144E+03  0.81020868213E+02 -0.19837907969E+04  0.20023280033E+04  0.00000000000E+00 0. -1.
<mgrwt>
<rscale>  3 0.29919309E+03</rscale>
<asrwt>0</asrwt>
<pdfrwt beam="1">  1       21 0.24876899E-01 0.29919309E+03</pdfrwt>
<pdfrwt beam="2">  1       21 0.32921136E+00 0.29919309E+03</pdfrwt>
<totfact> 0.31044381E+02</totfact>
</mgrwt>
</event>
<event>
 4    0  0.1482881E-001  0.2655125E+03  0.7546771E-02  0.1103876E+00
         21   -1    0    0  502  501  0.00000000000E+00  0.00000000000E+00  0.46227071504E+03  0.46227071504E+03  0.00000000000E+00 0. -1.
         21   -1    0    0  503  502 -0.00000000000E+00 -0.00000000000E+00 -0.19859539691E+03  0.19859539691E+03  0.00000000000E+00 0. -1.
         25    1    1    2    0    0 -0.78441319530E+02  0.22072340487E+03  0.32407915275E+03  0.41895603506E+03  0.12500000000E+03 0.  0.
         21    1    1    2  503  501  0.78441319530E+02 -0.22072340487E+03 -0.60403834621E+02  0.24191007689E+03  0.00000000000E+00 0. -1.
<mgrwt>
<rscale>  3 0.26551245E+03</rscale>
<asrwt>0</asrwt>
<pdfrwt beam="1">  1       21 0.71118571E-01 0.26551245E+03</pdfrwt>
<pdfrwt beam="2">  1       21 0.30553138E-01 0.26551245E+03</pdfrwt>
<totfact> 0.17682577E+04</totfact>
</mgrwt>
</event>
<event>
 4    0  0.1003929E-001  0.4184834E+03  0.7546771E-02  0.1037561E+00
         21   -1    0    0  503  501  0.00000000000E+00  0.00000000000E+00  0.18643736773E+04  0.18643736773E+04  0.00000000000E+00 0. -1.
         21   -1    0    0  501  502 -0.00000000000E+00 -0.00000000000E+00 -0.17522079787E+03  0.17522079787E+03  0.00000000000E+00 0. -1.
         25    1    1    2    0    0 -0.11378422811E+03 -0.38282703818E+03  0.15670516671E+04  0.16219677306E+04  0.12500000000E+03 0.  0.
         21    1    1    2  503  502  0.11378422811E+03  0.38282703818E+03  0.12210121233E+03  0.41762674457E+03  0.00000000000E+00 0. -1.
<mgrwt>
<rscale>  3 0.41848344E+03</rscale>
<asrwt>0</asrwt>
<pdfrwt beam="1">  1       21 0.28682671E+00 0.41848344E+03</pdfrwt>
<pdfrwt beam="2">  1       21 0.26957047E-01 0.41848344E+03</pdfrwt>
<totfact> 0.43325906E+02</totfact>
</mgrwt>
</event>
<event>
 4    0  0.1003929E-001  0.2932563E+03  0.7546771E-02  0.1088661E+00
         21   -1    0    0  502  501  0.00000000000E+00  0.00000000000E+00  0.11183253299E+04  0.11183253299E+04  0.00000000000E+00 0.  1.
         21   -1    0    0  503  502 -0.00000000000E+00 -0.00000000000E+00 -0.23605548074E+03  0.23605548074E+03  0.00000000000E+00 0.  1.
         25    1    1    2    0    0  0.25184245915E+03  0.83364504294E+02  0.10158741144E+04  0.10573549457E+04  0.12500000000E+03 0.  0.
         21    1    1    2  503  501 -0.25184245915E+03 -0.83364504294E+02 -0.13360426520E+03  0.29702586501E+03  0.00000000000E+00 0.  1.
<mgrwt>
<rscale>  3 0.29325631E+03</rscale>
<asrwt>0</asrwt>
<pdfrwt beam="1">  1       21 0.17205005E+00 0.29325631E+03</pdfrwt>
<pdfrwt beam="2">  1       21 0.36316229E-01 0.29325631E+03</pdfrwt>
<totfact> 0.13867962E+03</totfact>
</mgrwt>
</event>
<event>
 4    0  0.1325898E-001  0.3028796E+03  0.7546771E-02  0.1083810E+00
         21   -1    0    0  502  501  0.00000000000E+00  0.00000000000E+00  0.95693549275E+02  0.95693549275E+02  0.00000000000E+00 0.  1.
         21   -1    0    0  503  502 -0.00000000000E+00 -0.00000000000E+00 -0.11092026524E+04  0.11092026524E+04  0.00000000000E+00 0.  1.
         25    1    1    2    0    0  0.26417821135E+03 -0.79504110370E+02 -0.24887197518E+03  0.39201185052E+03  0.12500000000E+03 0.  0.
         21    1    1    2  503  501 -0.26417821135E+03  0.79504110370E+02 -0.76463712794E+03  0.81288435115E+03  0.00000000000E+00 0.  1.
<mgrwt>
<rscale>  3 0.30287957E+03</rscale>
<asrwt>0</asrwt>
<pdfrwt beam="1">  1       21 0.14722086E-01 0.30287957E+03</pdfrwt>
<pdfrwt beam="2">  1       21 0.17064655E+00 0.30287957E+03</pdfrwt>
<totfact> 0.79696314E+03</totfact>
</mgrwt>
</event>
<event>
 4    0  0.1408794E-001  0.3357186E+03  0.7546771E-02  0.1068634E+00
         21   -1    0    0  503  501  0.00000000000E+00  0.00000000000E+00  0.51067542936E+03  0.51067542936E+03  0.00000000000E+00 0. -1.
         21   -1    0    0  501  502 -0.00000000000E+00 -0.00000000000E+00 -0.26268672645E+03  0.26268672645E+03  0.00000000000E+00 0. -1.
         25    1    1    2    0    0  0.30105057724E+03 -0.80315354140E+02  0.30852654046E+03  0.45595573506E+03  0.12500000000E+03 0.  0.
         21    1    1    2  503  502 -0.30105057724E+03  0.80315354140E+02 -0.60537837545E+02  0.31740642076E+03  0.00000000000E+00 0. -1.
<mgrwt>
<rscale>  3 0.33571864E+03</rscale>
<asrwt>0</asrwt>
<pdfrwt beam="1">  1       21 0.78565450E-01 0.33571864E+03</pdfrwt>
<pdfrwt beam="2">  1       21 0.40413343E-01 0.33571864E+03</pdfrwt>
<totfact> 0.78088466E+03</totfact>
</mgrwt>
</event>
<event>
 4    0  0.1654306E-001  0.2880163E+03  0.7546771E-02  0.1091389E+00
         21   -1    0    0  502  501  0.00000000000E+00  0.00000000000E+00  0.91886901341E+03  0.91886901341E+03  0.00000000000E+00 0.  1.
         21   -1    0    0  503  502 -0.00000000000E+00 -0.00000000000E+00 -0.29688668395E+03  0.29688668395E+03  0.00000000000E+00 0. -1.
         25    1    1    2    0    0  0.34661326492E+02 -0.25715169600E+03  0.83294858849E+03  0.88133804716E+03  0.12500000000E+03 0.  0.
         21    1    1    2  503  501 -0.34661326492E+02  0.25715169600E+03 -0.21096625904E+03  0.33441765020E+03  0.00000000000E+00 0. -1.
<mgrwt>
<rscale>  3 0.28801632E+03</rscale>
<asrwt>0</asrwt>
<pdfrwt beam="1">  1       21 0.14136446E+00 0.28801632E+03</pdfrwt>
<pdfrwt beam="2">  1       21 0.45674875E-01 0.28801632E+03</pdfrwt>
<totfact> 0.14842723E+03</totfact>
</mgrwt>
</event>
<event>
 4    0  0.1003929E-001  0.2436748E+03  0.7546771E-02  0.1117369E+00
         21   -1    0    0  503  501  0.00000000000E+00  0.00000000000E+00  0.20669970525E+03  0.20669970525E+03  0.00000000000E+00 0.  1.
         21   -1    0    0  501  502 -0.00000000000E+00 -0.00000000000E+00 -0.30730613683E+03  0.30730613683E+03  0.00000000000E+00 0. -1.
         25    1    1    2    0    0 -0.16437831222E+03 -0.12935288642E+03  0.59214293042E+02  0.25076628811E+03  0.12500000000E+03 0.  0.
         21    1    1    2  503  502  0.16437831222E+03  0.12935288642E+03 -0.15982072462E+03  0.26323955396E+03  0.00000000000E+00 0. -1.
<mgrwt>
<rscale>  3 0.24367478E+03</rscale>
<asrwt>0</asrwt>
<pdfrwt beam="1">  1       21 0.31799955E-01 0.24367478E+03</pdfrwt>
<pdfrwt beam="2">  1       21 0.47277867E-01 0.24367478E+03</pdfrwt>
<totfact> 0.39721986E+04</totfact>
</mgrwt>
</event>
<event>
 4    0  0.1003929E-001  0.2626952E+03  0.7546771E-02  0.1105535E+00
         21   -1    0    0  502  501  0.00000000000E+00  0.00000000000E+00  0.53067365589E+02  0.53067365589E+02  0.00000000000E+00 0.  1.
         21   -1    0    0  503  502 -0.00000000000E+00 -0.00000000000E+00 -0.22599667349E+04  0.22599667349E+04  0.00000000000E+00 0.  1.
         25    1    1    2    0    0  0.10635955736E+03  0.20511316208E+03 -0.32917054309E+03  0.42114369417E+03  0.12500000000E+03 0.  0.
         21    1    1    2  503  501 -0.10635955736E+03 -0.20511316208E+03 -0.18777288262E+04  0.18918904063E+04  0.00000000000E+00 0.  1.
<mgrwt>
<rscale>  3 0.26269519E+03</rscale>
<asrwt>0</asrwt>
<pdfrwt beam="1">  1       21 0.81642090E-02 0.26269519E+03</pdfrwt>
<pdfrwt beam="2">  1       21 0.34768724E+00 0.26269519E+03</pdfrwt>
<totfact> 0.19250991E+03</totfact>
</mgrwt>
</event>
<event>
 4    0  0.1088463E-001  0.2555169E+03  0.7546771E-02  0.1109867E+00
         21   -1    0    0  502  501  0.00000000000E+00  0.00000000000E+00  0.85482997693E+02  0.85482997693E+02  0.00000000000E+00 0.  1.
         21   -1    0    0  503  502 -0.00000000000E+00 -0.00000000000E+00 -0.72722074917E+03  0.72722074917E+03  0.00000000000E+00 0.  1.
         25    1    1    2    0    0 -0.13922532002E+03 -0.17401211661E+03 -0.45551172998E+03  0.52228329727E+03  0.12500000000E+03 0.  0.
         21    1    1    2  503  501  0.13922532002E+03  0.17401211661E+03 -0.18622602150E+03  0.29042044960E+03  0.00000000000E+00 0.  1.
<mgrwt>
<rscale>  3 0.25551694E+03</rscale>
<asrwt>0</asrwt>
<pdfrwt beam="1">  1       21 0.13151231E-01 0.25551694E+03</pdfrwt>
<pdfrwt beam="2">  1       21 0.11188011E+00 0.25551694E+03</pdfrwt>
<totfact> 0.30195400E+04</totfact>
</mgrwt>
</event>
<event>
 4    0  0.1553091E-001  0.2544457E+03  0.7546771E-02  0.1110527E+00
         21   -1    0    0  503  501  0.00000000000E+00  0.00000000000E+00  0.17631561622E+04  0.17631561622E+04  0.00000000000E+00 0. -1.
         21   -1    0    0  501  502 -0.00000000000E+00 -0.00000000000E+00 -0.15541470947E+03  0.15541470947E+03  0.00000000000E+00 0.  1.
         25    1    1    2    0    0 -0.12095286204E+03 -0.18570947365E+03  0.16692798877E+04  0.16885609100E+04  0.12500000000E+03 0.  0.
         21    1    1    2  503  502  0.12095286204E+03  0.18570947365E+03 -0.61538435020E+02  0.23000996158E+03  0.00000000000E+00 0.  1.
<mgrwt>
<rscale>  3 0.25444568E+03</rscale>
<asrwt>0</asrwt>
<pdfrwt beam="1">  1       21 0.27125478E+00 0.25444568E+03</pdfrwt>
<pdfrwt beam="2">  1       21 0.23909957E-01 0.25444568E+03</pdfrwt>
<totfact> 0.76784915E+02</totfact>
</mgrwt>
</event>
<event>
 4    0  0.1387514E-001  0.2522276E+03  0.7546771E-02  0.1111905E+00
         21   -1    0    0  502  501  0.00000000000E+00  0.00000000000E+00  0.18287911634E+03  0.18287911634E+03  0.00000000000E+00 0.  1.
         21   -1    0    0  503  502 -0.00000000000E+00 -0.00000000000E+00 -0.41665419647E+03  0.41665419647E+03  0.00000000000E+00 0.  1.
         25    1    1    2    0    0  0.20314949040E+03 -0.82000290606E+02  0.32951895586E+02  0.25437097030E+03  0.12500000000E+03 0.  0.
         21    1    1    2  503  501 -0.20314949040E+03  0.82000290606E+02 -0.26672697571E+03  0.34516234250E+03  0.00000000000E+00 0.  1.
<mgrwt>
<rscale>  3 0.25222760E+03</rscale>
<asrwt>0</asrwt>
<pdfrwt beam="1">  1       21 0.28135249E-01 0.25222760E+03</pdfrwt>
<pdfrwt beam="2">  1       21 0.64100645E-01 0.25222760E+03</pdfrwt>
<totfact> 0.26297135E+04</totfact>
</mgrwt>
</event>
<event>
 4    0  0.1670743E-001  0.2991287E+03  0.7546771E-02  0.1085677E+00
         21   -1    0    0  502  501  0.00000000000E+00  0.00000000000E+00  0.24375248029E+03  0.24375248029E+03  0.00000000000E+00 0. -1.
         21   -1    0    0  503  502 -0.00000000000E+00 -0.00000000000E+00 -0.34927900464E+03  0.34927900464E+03  0.00000000000E+00 0. -1.
         25    1    1    2    0    0  0.26523685065E+03 -0.59181036907E+02  0.62224272971E+01  0.29919341683E+03  0.12500000000E+03 0.  0.
         21    1    1    2  503  501 -0.26523685065E+03  0.59181036907E+02 -0.11174895165E+03  0.29383806810E+03  0.00000000000E+00 0. -1.
<mgrwt>
<rscale>  3 0.29912870E+03</rscale>
<asrwt>0</asrwt>
<pdfrwt beam="1">  1       21 0.37500382E-01 0.29912870E+03</pdfrwt>
<pdfrwt beam="2">  1       21 0.53735231E-01 0.29912870E+03</pdfrwt>
<totfact> 0.21332519E+04</totfact>
</mgrwt>
</event>
<event>
 4    0  0.1117343E-001  0.2425236E+03  0.7546771E-02  0.1118123E+00
         21   -1    0    0  502  501  0.00000000000E+00  0.00000000000E+00  0.30100917987E+03  0.30100917987E+03  0.00000000000E+00 0.  1.
         21   -1    0    0  503  502 -0.00000000000E+00 -0.00000000000E+00 -0.67596739415E+03  0.67596739415E+03  0.00000000000E+00 0.  1.
         25    1    1    2    0    0  0.82213496958E+02 -0.19087595916E+03  0.23187886097E+03  0.33553762387E+03  0.12500000000E+03 0.  0.
         21    1    1    2  503  501 -0.82213496958E+02  0.19087595916E+03 -0.60683707525E+03  0.64143895015E+03  0.00000000000E+00 0.  1.
<mgrwt>
<rscale>  3 0.24252359E+03</rscale>
<asrwt>0</asrwt>
<pdfrwt beam="1">  1       21 0.46309104E-01 0.24252359E+03</pdfrwt>
<pdfrwt beam="2">  1       21 0.10399498E+00 0.24252359E+03</pdfrwt>
<totfact> 0.32127581E+03</totfact>
</mgrwt>
</event>
<event>
 4    0  0.1036124E-001  0.2439044E+03  0.7546771E-02  0.1117219E+00
         21   -1    0    0  502  501  0.00000000000E+00  0.00000000000E+00  0.14621931236E+04  0.14621931236E+04  0.00000000000E+00 0.  1.
         21   -1    0    0  503  502 -0.00000000000E+00 -0.00000000000E+00 -0.70328594586E+02  0.70328594586E+02  0.00000000000E+00 0.  1.
         25    1    1    2    0    0 -0.18309491648E+03  0.10168866790E+03  0.12636086026E+04  0.12869328009E+04  0.12500000000E+03 0.  0.
         21    1    1    2  503  501  0.18309491648E+03 -0.10168866790E+03  0.12825592648E+03  0.24558891729E+03  0.00000000000E+00 0.  1.
<mgrwt>
<rscale>  3 0.24390435E+03</rscale>
<asrwt>0</asrwt>
<pdfrwt beam="1">  1       21 0.22495276E+00 0.24390435E+03</pdfrwt>
<pdfrwt beam="2">  1       21 0.10819785E-01 0.24390435E+03</pdfrwt>
<totfact> 0.63362197E+03</totfact>
</mgrwt>
</event>
<event>
 4    0  0.1003929E-001  0.2783916E+03  0.7546771E-02  0.1096571E+00
         21   -1    0    0  502  501  0.00000000000E+00  0.00000000000E+00  0.30401999700E+02  0.30401999700E+02  0.00000000000E+00 0.  1.
         21   -1    0    0  503  502 -0.00000000000E+00 -0.00000000000E+00 -0.22863478647E+04  0.22863478647E+04  0.00000000000E+00 0.  1.
         25    1    1    2    0    0 -0.18275778047E+03 -0.16874970989E+03 -0.11636794718E+04  0.11965165206E+04  0.12500000000E+03 0.  0.
         21    1    1    2  503  501  0.18275778047E+03  0.16874970989E+03 -0.10922663931E+04  0.11202333438E+04  0.00000000000E+00 0.  1.
<mgrwt>
<rscale>  3 0.27839158E+03</rscale>
<asrwt>0</asrwt>
<pdfrwt beam="1">  1       21 0.46772309E-02 0.27839158E+03</pdfrwt>
<pdfrwt beam="2">  1       21 0.35174581E+00 0.27839158E+03</pdfrwt>
<totfact> 0.46952699E+03</totfact>
</mgrwt>
</event>
<event>
 4    0  0.1433181E-001  0.3323998E+03  0.7546771E-02  0.1070080E+00
         21   -1    0    0  503  501  0.00000000000E+00  0.00000000000E+00  0.46929902195E+03  0.46929902195E+03  0.00000000000E+00 0. -1.
         21   -1    0    0  501  502 -0.00000000000E+00 -0.00000000000E+00 -0.29329517734E+03  0.29329517734E+03  0.00000000000E+00 0. -1.
         25    1    1    2    0    0  0.26372507316E+03  0.15910289626E+03  0.28298421213E+03  0.43654290754E+03  0.12500000000E+03 0.  0.
         21    1    1    2  503  502 -0.26372507316E+03 -0.15910289626E+03 -0.10698036753E+03  0.32605129174E+03  0.00000000000E+00 0. -1.
<mgrwt>
<rscale>  3 0.33239983E+03</rscale>
<asrwt>0</asrwt>
<pdfrwt beam="1">  1       21 0.72199849E-01 0.33239983E+03</pdfrwt>
<pdfrwt beam="2">  1       21 0.45122335E-01 0.33239983E+03</pdfrwt>
<totfact> 0.75421818E+03</totfact>
</mgrwt>
</event>
<event>
 4    0  0.1487089E-001  0.2699304E+03  0.7546771E-02  0.1101319E+00
         21   -1    0    0  503  501  0.00000000000E+00  0.00000000000E+00  0.42544734187E+03  0.42544734187E+03  0.00000000000E+00 0. -1.
         21   -1    0    0  501  502 -0.00000000000E+00 -0.00000000000E+00 -0.24914405458E+03  0.24914405458E+03  0.00000000000E+00 0. -1.
         25    1    1    2    0    0  0.74666578451E+02 -0.22729345997E+03  0.30141012574E+03  0.40461151588E+03  0.12500000000E+03 0.  0.
         21    1    1    2  503  502 -0.74666578451E+02  0.22729345997E+03 -0.12510683845E+03  0.26997988057E+03  0.00000000000E+00 0. -1.
<mgrwt>
<rscale>  3 0.26993039E+03</rscale>
<asrwt>0</asrwt>
<pdfrwt beam="1">  1       21 0.65453437E-01 0.26993039E+03</pdfrwt>
<pdfrwt beam="2">  1       21 0.38329855E-01 0.26993039E+03</pdfrwt>
<totfact> 0.13487427E+04</totfact>
</mgrwt>
</event>
<event>
 4    0  0.1964516E-001  0.2825060E+03  0.7546771E-02  0.1094328E+00
         21   -1    0    0  502  501  0.00000000000E+00  0.00000000000E+00  0.56619894886E+03  0.56619894886E+03  0.00000000000E+00 0.  1.
         21   -1    0    0  503  502 -0.00000000000E+00 -0.00000000000E+00 -0.13440827421E+04  0.13440827421E+04  0.00000000000E+00 0. -1.
         25    1    1    2    0    0 -0.41172809282E+02  0.24997889315E+03  0.51791221728E+03  0.58995144889E+03  0.12500000000E+03 0.  0.
         21    1    1    2  503  501  0.41172809282E+02 -0.24997889315E+03 -0.12957960105E+04  0.13203302421E+04  0.00000000000E+00 0. -1.
<mgrwt>
<rscale>  3 0.28250601E+03</rscale>
<asrwt>0</asrwt>
<pdfrwt beam="1">  1       21 0.87107531E-01 0.28250601E+03</pdfrwt>
<pdfrwt beam="2">  1       21 0.20678196E+00 0.28250601E+03</pdfrwt>
<totfact> 0.12400061E+02</totfact>
</mgrwt>
</event>
<event>
 4    0  0.1124718E-001  0.2606784E+03  0.7546771E-02  0.1106736E+00
         21   -1    0    0  502  501  0.00000000000E+00  0.00000000000E+00  0.11309964398E+04  0.11309964398E+04  0.00000000000E+00 0.  1.
         21   -1    0    0  503  502 -0.00000000000E+00 -0.00000000000E+00 -0.53057224472E+02  0.53057224472E+02  0.00000000000E+00 0.  1.
         25    1    1    2    0    0 -0.16284941593E+03  0.16064955831E+03  0.60065005861E+03  0.65477760023E+03  0.12500000000E+03 0.  0.
         21    1    1    2  503  501  0.16284941593E+03 -0.16064955831E+03  0.47728915676E+03  0.52927606409E+03  0.00000000000E+00 0.  1.
<mgrwt>
<rscale>  3 0.26067837E+03</rscale>
<asrwt>0</asrwt>
<pdfrwt beam="1">  1       21 0.17399943E+00 0.26067837E+03</pdfrwt>
<pdfrwt beam="2">  1       21 0.81626508E-02 0.26067837E+03</pdfrwt>
<totfact> 0.22228516E+04</totfact>
</mgrwt>
</event>
<event>
 4    0  0.1162472E-001  0.2841780E+03  0.7546771E-02  0.1093429E+00
         21   -1    0    0  503  501  0.00000000000E+00  0.00000000000E+00  0.68933555390E+02  0.68933555390E+02  0.00000000000E+00 0. -1.
         21   -1    0    0  501  502 -0.00000000000E+00 -0.00000000000E+00 -0.18338560232E+04  0.18338560232E+04  0.00000000000E+00 0.  1.
         25    1    1    2    0    0 -0.25006467197E+03  0.50988275586E+02 -0.29028028082E+03  0.40622627420E+03  0.12500000000E+03 0.  0.
         21    1    1    2  503  502  0.25006467197E+03 -0.50988275586E+02 -0.14746421870E+04  0.14965633044E+04  0.00000000000E+00 0.  1.
<mgrwt>
<rscale>  3 0.28417802E+03</rscale>
<asrwt>0</asrwt>
<pdfrwt beam="1">  1       21 0.10605164E-01 0.28417802E+03</pdfrwt>
<pdfrwt beam="2">  1       21 0.28213166E+00 0.28417802E+03</pdfrwt>
<totfact> 0.28947740E+03</totfact>
</mgrwt>
</event>
<event>
 4    0  0.1303449E-001  0.3365029E+03  0.7546771E-02  0.1068295E+00
         21   -1    0    0  503  501  0.00000000000E+00  0.00000000000E+00  0.74515791685E+02  0.74515791685E+02  0.00000000000E+00 0. -1.
         21   -1    0    0  501  502 -0.00000000000E+00 -0.00000000000E+00 -0.14297795005E+04  0.14297795005E+04  0.00000000000E+00 0. -1.
         25    1    1    2    0    0  0.29921262990E+03 -0.89894391298E+02 -0.62059448779E+03  0.70595447287E+03  0.12500000000E+03 0.  0.
         21    1    1    2  503  502 -0.29921262990E+03  0.89894391298E+02 -0.73466922105E+03  0.79834081935E+03  0.00000000000E+00 0. -1.
<mgrwt>
<rscale>  3 0.33650290E+03</rscale>
<asrwt>0</asrwt>
<pdfrwt beam="1">  1       21 0.11463968E-01 0.33650290E+03</pdfrwt>
<pdfrwt beam="2">  1       21 0.21996608E+00 0.33650290E+03</pdfrwt>
<totfact> 0.57811501E+03</totfact>
</mgrwt>
</event>
<event>
 4    0  0.1196799E-001  0.2358619E+03  0.7546771E-02  0.1122581E+00
         21   -1    0    0  502  501  0.00000000000E+00  0.00000000000E+00  0.26269723244E+03  0.26269723244E+03  0.00000000000E+00 0.  1.
         21   -1    0    0  503  502 -0.00000000000E+00 -0.00000000000E+00 -0.28747978039E+03  0.28747978039E+03  0.00000000000E+00 0. -1.
         25    1    1    2    0    0  0.13806851328E+03  0.14471667486E+03  0.15418200902E+03  0.28178524136E+03  0.12500000000E+03 0.  0.
         21    1    1    2  503  501 -0.13806851328E+03 -0.14471667486E+03 -0.17896455696E+03  0.26839177147E+03  0.00000000000E+00 0. -1.
<mgrwt>
<rscale>  3 0.23586189E+03</rscale>
<asrwt>0</asrwt>
<pdfrwt beam="1">  1       21 0.40414959E-01 0.23586189E+03</pdfrwt>
<pdfrwt beam="2">  1       21 0.44227658E-01 0.23586189E+03</pdfrwt>
<totfact> 0.28317940E+04</totfact>
</mgrwt>
</event>
<event>
 4    0  0.1228593E-001  0.3522301E+03  0.7546771E-02  0.1061703E+00
         21   -1    0    0  503  501  0.00000000000E+00  0.00000000000E+00  0.97605970642E+03  0.97605970642E+03  0.00000000000E+00 0.  1.
         21   -1    0    0  501  502 -0.00000000000E+00 -0.00000000000E+00 -0.11948534622E+03  0.11948534622E+03  0.00000000000E+00 0.  1.
         25    1    1    2    0    0  0.30156506180E+03  0.13228590820E+03  0.40668976190E+03  0.53801729567E+03  0.12500000000E+03 0.  0.
         21    1    1    2  503  502 -0.30156506180E+03 -0.13228590820E+03  0.44988459829E+03  0.55752775697E+03  0.00000000000E+00 0.  1.
<mgrwt>
<rscale>  3 0.35223011E+03</rscale>
<asrwt>0</asrwt>
<pdfrwt beam="1">  1       21 0.15016303E+00 0.35223011E+03</pdfrwt>
<pdfrwt beam="2">  1       21 0.18382362E-01 0.35223011E+03</pdfrwt>
<totfact> 0.73265478E+03</totfact>
</mgrwt>
</event>
<event>
 4    0  0.1003929E-001  0.3258467E+03  0.7546771E-02  0.1072989E+00
         21   -1    0    0  502  501  0.00000000000E+00  0.00000000000E+00  0.46956542025E+03  0.46956542025E+03  0.00000000000E+00 0. -1.
         21   -1    0    0  503  502 -0.00000000000E+00 -0.00000000000E+00 -0.66525337372E+03  0.66525337372E+03  0.00000000000E+00 0. -1.
         25    1    1    2    0    0  0.27381466677E+03 -0.12480628368E+03  0.37064056134E+03  0.49350836456E+03  0.12500000000E+03 0.  0.
         21    1    1    2  503  501 -0.27381466677E+03  0.12480628368E+03 -0.56632851481E+03  0.64131042941E+03  0.00000000000E+00 0. -1.
<mgrwt>
<rscale>  3 0.32584671E+03</rscale>
<asrwt>0</asrwt>
<pdfrwt beam="1">  1       21 0.72240833E-01 0.32584671E+03</pdfrwt>
<pdfrwt beam="2">  1       21 0.10234667E+00 0.32584671E+03</pdfrwt>
<totfact> 0.12148160E+03</totfact>
</mgrwt>
</event>
<event>
 4    0  0.1011065E-001  0.2691278E+03  0.7546771E-02  0.1101780E+00
         21   -1    0    0  502  501  0.00000000000E+00  0.00000000000E+00  0.14929376455E+03  0.14929376455E+03  0.00000000000E+00 0. -1.
         21   -1    0    0  503  502 -0.00000000000E+00 -0.00000000000E+00 -0.58089885210E+03  0.58089885210E+03  0.00000000000E+00 0.  1.
         25    1    1    2    0    0 -0.10707355509E+03 -0.21293192421E+03 -0.40457073953E+02  0.27215165878E+03  0.12500000000E+03 0.  0.
         21    1    1    2  503  501  0.10707355509E+03  0.21293192421E+03 -0.39114801360E+03  0.45804095787E+03  0.00000000000E+00 0.  1.
<mgrwt>
<rscale>  3 0.26912776E+03</rscale>
<asrwt>0</asrwt>
<pdfrwt beam="1">  1       21 0.22968271E-01 0.26912776E+03</pdfrwt>
<pdfrwt beam="2">  1       21 0.89369054E-01 0.26912776E+03</pdfrwt>
<totfact> 0.18225969E+04</totfact>
</mgrwt>
</event>
<event>
 4    0  0.1176199E-001  0.2793716E+03  0.7546771E-02  0.1096033E+00
         21   -1    0    0  502  501  0.00000000000E+00  0.00000000000E+00  0.13505955350E+04  0.13505955350E+04  0.00000000000E+00 0.  1.
         21   -1    0    0  503  502 -0.00000000000E+00 -0.00000000000E+00 -0.55411957560E+02  0.55411957560E+02  0.00000000000E+00 0.  1.
         25    1    1    2    0    0 -0.75513292389E+02  0.23816221358E+03  0.85956187839E+03  0.90382250474E+03  0.12500000000E+03 0.  0.
         21    1    1    2  503  501  0.75513292389E+02 -0.23816221358E+03  0.43562169906E+03  0.50218498782E+03  0.00000000000E+00 0.  1.
<mgrwt>
<rscale>  3 0.27937161E+03</rscale>
<asrwt>0</asrwt>
<pdfrwt beam="1">  1       21 0.20778390E+00 0.27937161E+03</pdfrwt>
<pdfrwt beam="2">  1       21 0.85249176E-02 0.27937161E+03</pdfrwt>
<totfact> 0.12104277E+04</totfact>
</mgrwt>
</event>
<event>
 4    0  0.1095432E-001  0.2481618E+03  0.7546771E-02  0.1114472E+00
         21   -1    0    0  502  501  0.00000000000E+00  0.00000000000E+00  0.41356550029E+03  0.41356550029E+03  0.00000000000E+00 0. -1.
         21   -1    0    0  503  502 -0.00000000000E+00 -0.00000000000E+00 -0.18711231728E+03  0.18711231728E+03  0.00000000000E+00 0.  1.
         25    1    1    2    0    0 -0.92628865877E+02  0.19333689737E+03  0.28553466633E+03  0.37830451802E+03  0.12500000000E+03 0.  0.
         21    1    1    2  503  501  0.92628865877E+02 -0.19333689737E+03 -0.59081483319E+02  0.22237329955E+03  0.00000000000E+00 0.  1.
<mgrwt>
<rscale>  3 0.24816177E+03</rscale>
<asrwt>0</asrwt>
<pdfrwt beam="1">  1       21 0.63625461E-01 0.24816177E+03</pdfrwt>
<pdfrwt beam="2">  1       21 0.28786510E-01 0.24816177E+03</pdfrwt>
<totfact> 0.25609398E+04</totfact>
</mgrwt>
</event>
<event>
 4    0  0.1206085E-001  0.2361077E+03  0.7546771E-02  0.1122413E+00
         21   -1    0    0  503  501  0.00000000000E+00  0.00000000000E+00  0.10835372490E+04  0.10835372490E+04  0.00000000000E+00 0.  1.
         21   -1    0    0  501  502 -0.00000000000E+00 -0.00000000000E+00 -0.61813555155E+02  0.61813555155E+02  0.00000000000E+00 0.  1.
         25    1    1    2    0    0 -0.20014403374E+03  0.80134334508E+01  0.84783720984E+03  0.88009930334E+03  0.12500000000E+03 0.  0.
         21    1    1    2  503  502  0.20014403374E+03 -0.80134334508E+01  0.17388648396E+03  0.26525150077E+03  0.00000000000E+00 0.  1.
<mgrwt>
<rscale>  3 0.23610771E+03</rscale>
<asrwt>0</asrwt>
<pdfrwt beam="1">  1       21 0.16669802E+00 0.23610771E+03</pdfrwt>
<pdfrwt beam="2">  1       21 0.95097785E-02 0.23610771E+03</pdfrwt>
<totfact> 0.19402596E+04</totfact>
</mgrwt>
</event>
<event>
 4    0  0.1345003E-001  0.2759611E+03  0.7546771E-02  0.1097916E+00
         21   -1    0    0  503  501  0.00000000000E+00  0.00000000000E+00  0.91794330618E+02  0.91794330618E+02  0.00000000000E+00 0.  1.
         21   -1    0    0  501  502 -0.00000000000E+00 -0.00000000000E+00 -0.99895427230E+03  0.99895427230E+03  0.00000000000E+00 0.  1.
         25    1    1    2    0    0 -0.19061793012E+03 -0.15554519490E+03 -0.19668023835E+03  0.33887699700E+03  0.12500000000E+03 0.  0.
         21    1    1    2  503  502  0.19061793012E+03  0.15554519490E+03 -0.71047970333E+03  0.75187160592E+03  0.00000000000E+00 0.  1.
<mgrwt>
<rscale>  3 0.27596105E+03</rscale>
<asrwt>0</asrwt>
<pdfrwt beam="1">  1       21 0.14122204E-01 0.27596105E+03</pdfrwt>
<pdfrwt beam="2">  1       21 0.15368528E+00 0.27596105E+03</pdfrwt>
<totfact> 0.11636148E+04</totfact>
</mgrwt>
</event>
<event>
 4    0  0.1204130E-001  0.5130909E+03  0.7546771E-02  0.1010417E+00
         21   -1    0    0  503  501  0.00000000000E+00  0.00000000000E+00  0.89419713804E+03  0.89419713804E+03  0.00000000000E+00 0.  1.
         21   -1    0    0  501  502 -0.00000000000E+00 -0.00000000000E+00 -0.34143282747E+03  0.34143282747E+03  0.00000000000E+00 0.  1.
         25    1    1    2    0    0 -0.31211169290E+03 -0.38758679396E+03  0.52970911030E+03  0.73746455727E+03  0.12500000000E+03 0.  0.
         21    1    1    2  503  502  0.31211169290E+03  0.38758679396E+03  0.23055200264E+02  0.49816540823E+03  0.00000000000E+00 0.  1.
<mgrwt>
<rscale>  3 0.51309086E+03</rscale>
<asrwt>0</asrwt>
<pdfrwt beam="1">  1       21 0.13756879E+00 0.51309086E+03</pdfrwt>
<pdfrwt beam="2">  1       21 0.52528128E-01 0.51309086E+03</pdfrwt>
<totfact> 0.10644467E+03</totfact>
</mgrwt>
</event>
<event>
 4    0  0.1003929E-001  0.2425961E+03  0.7546771E-02  0.1118075E+00
         21   -1    0    0  502  501  0.00000000000E+00  0.00000000000E+00  0.19426063286E+04  0.19426063286E+04  0.00000000000E+00 0.  1.
         21   -1    0    0  503  502 -0.00000000000E+00 -0.00000000000E+00 -0.26501007594E+02  0.26501007594E+02  0.00000000000E+00 0.  1.
         25    1    1    2    0    0 -0.11880133013E+03 -0.17062857132E+03  0.91294164047E+03  0.94462442500E+03  0.12500000000E+03 0.  0.
         21    1    1    2  503  501  0.11880133013E+03  0.17062857132E+03  0.10031636805E+04  0.10244829112E+04  0.00000000000E+00 0.  1.
<mgrwt>
<rscale>  3 0.24259610E+03</rscale>
<asrwt>0</asrwt>
<pdfrwt beam="1">  1       21 0.29886240E+00 0.24259610E+03</pdfrwt>
<pdfrwt beam="2">  1       21 0.40770796E-02 0.24259610E+03</pdfrwt>
<totfact> 0.12544606E+04</totfact>
</mgrwt>
</event>
<event>
 4    0  0.1003929E-001  0.3793129E+03  0.7546771E-02  0.1051188E+00
         21   -1    0    0  502  501  0.00000000000E+00  0.00000000000E+00  0.10757203699E+04  0.10757203699E+04  0.00000000000E+00 0.  1.
         21   -1    0    0  503  502 -0.00000000000E+00 -0.00000000000E+00 -0.13986472634E+03  0.13986472634E+03  0.00000000000E+00 0. -1.
         25    1    1    2    0    0  0.11522485325E+03  0.33908181902E+03  0.66870225287E+03  0.76879187677E+03  0.12500000000E+03 0.  0.
         21    1    1    2  503  501 -0.11522485325E+03 -0.33908181902E+03  0.26715339066E+03  0.44679321944E+03  0.00000000000E+00 0. -1.
<mgrwt>
<rscale>  3 0.37931286E+03</rscale>
<asrwt>0</asrwt>
<pdfrwt beam="1">  1       21 0.16549544E+00 0.37931286E+03</pdfrwt>
<pdfrwt beam="2">  1       21 0.21517651E-01 0.37931286E+03</pdfrwt>
<totfact> 0.41127729E+03</totfact>
</mgrwt>
</event>
<event>
 4    0  0.1336041E-001  0.2379145E+03  0.7546771E-02  0.1121190E+00
         21   -1    0    0  503  501  0.00000000000E+00  0.00000000000E+00  0.40453454495E+03  0.40453454495E+03  0.00000000000E+00 0.  1.
         21   -1    0    0  501  502 -0.00000000000E+00 -0.00000000000E+00 -0.12024429829E+03  0.12024429829E+03  0.00000000000E+00 0.  1.
         25    1    1    2    0    0 -0.19980761607E+03 -0.32484331246E+02  0.13823892397E+03  0.27516052645E+03  0.12500000000E+03 0.  0.
         21    1    1    2  503  502  0.19980761607E+03  0.32484331246E+02  0.14605132270E+03  0.24961831679E+03  0.00000000000E+00 0.  1.
<mgrwt>
<rscale>  3 0.23791451E+03</rscale>
<asrwt>0</asrwt>
<pdfrwt beam="1">  1       21 0.62236083E-01 0.23791451E+03</pdfrwt>
<pdfrwt beam="2">  1       21 0.18499123E-01 0.23791451E+03</pdfrwt>
<totfact> 0.62670708E+04</totfact>
</mgrwt>
</event>
<event>
 4    0  0.1003929E-001  0.2770681E+03  0.7546771E-02  0.1097301E+00
         21   -1    0    0  502  501  0.00000000000E+00  0.00000000000E+00  0.50735513838E+03  0.50735513838E+03  0.00000000000E+00 0.  1.
         21   -1    0    0  503  502 -0.00000000000E+00 -0.00000000000E+00 -0.13777653609E+03  0.13777653609E+03  0.00000000000E+00 0. -1.
         25    1    1    2    0    0 -0.22800302067E+03 -0.95688708998E+02  0.23677110300E+03  0.36445474572E+03  0.12500000000E+03 0.  0.
         21    1    1    2  503  501  0.22800302067E+03  0.95688708998E+02  0.13280749930E+03  0.28067692875E+03  0.00000000000E+00 0. -1.
<mgrwt>
<rscale>  3 0.27706805E+03</rscale>
<asrwt>0</asrwt>
<pdfrwt beam="1">  1       21 0.78054636E-01 0.27706805E+03</pdfrwt>
<pdfrwt beam="2">  1       21 0.21196390E-01 0.27706805E+03</pdfrwt>
<totfact> 0.28891758E+04</totfact>
</mgrwt>
</event>
<event>
 4    0  0.1003929E-001  0.3006359E+03  0.7546771E-02  0.1084923E+00
         21   -1    0    0  503  501  0.00000000000E+00  0.00000000000E+00  0.38632558394E+03  0.38632558394E+03  0.00000000000E+00 0. -1.
         21   -1    0    0  501  502 -0.00000000000E+00 -0.00000000000E+00 -0.27643456931E+03  0.27643456931E+03  0.00000000000E+00 0.  1.
         25    1    1    2    0    0 -0.12622813740E+02  0.27312566633E+03  0.21524618207E+03  0.36974705399E+03  0.12500000000E+03 0.  0.
         21    1    1    2  503  502  0.12622813740E+02 -0.27312566633E+03 -0.10535516744E+03  0.29301309927E+03  0.00000000000E+00 0.  1.
<mgrwt>
<rscale>  3 0.30063593E+03</rscale>
<asrwt>0</asrwt>
<pdfrwt beam="1">  1       21 0.59434705E-01 0.30063593E+03</pdfrwt>
<pdfrwt beam="2">  1       21 0.42528395E-01 0.30063593E+03</pdfrwt>
<totfact> 0.13278646E+04</totfact>
</mgrwt>
</event>
<event>
 4    0  0.1075862E-001  0.2470456E+03  0.7546771E-02  0.1115186E+00
         21   -1    0    0  503  501  0.00000000000E+00  0.00000000000E+00  0.19506755276E+04  0.19506755276E+04  0.00000000000E+00 0. -1.
         21   -1    0    0  501  502 -0.00000000000E+00 -0.00000000000E+00 -0.37314476746E+02  0.37314476746E+02  0.00000000000E+00 0. -1.
         25    1    1    2    0    0  0.20726264229E+03 -0.49484725884E+02  0.15261715215E+04  0.15460372098E+04  0.12500000000E+03 0.  0.
         21    1    1    2  503  502 -0.20726264229E+03  0.49484725884E+02  0.38718952934E+03  0.44195279456E+03  0.00000000000E+00 0. -1.
<mgrwt>
<rscale>  3 0.24704563E+03</rscale>
<asrwt>0</asrwt>
<pdfrwt beam="1">  1       21 0.30010385E+00 0.24704563E+03</pdfrwt>
<pdfrwt beam="2">  1       21 0.57406902E-02 0.24704563E+03</pdfrwt>
<totfact> 0.68660357E+03</totfact>
</mgrwt>
</event>
<event>
 4    0  0.1003929E-001  0.4150870E+03  0.7546771E-02  0.1038677E+00
         21   -1    0    0  502  501  0.00000000000E+00  0.00000000000E+00  0.67576786315E+03  0.67576786315E+03  0.00000000000E+00 0.  1.
         21   -1    0    0  503  502 -0.00000000000E+00 -0.00000000000E+00 -0.44564735044E+03  0.44564735044E+03  0.00000000000E+00 0.  1.
         25    1    1    2    0    0  0.30280274502E+03 -0.25491702414E+03  0.49434947649E+03  0.64550646511E+03  0.12500000000E+03 0.  0.
         21    1    1    2  503  501 -0.30280274502E+03  0.25491702414E+03 -0.26422896378E+03  0.47590874849E+03  0.00000000000E+00 0.  1.
<mgrwt>
<rscale>  3 0.41508697E+03</rscale>
<asrwt>0</asrwt>
<pdfrwt beam="1">  1       21 0.10396429E+00 0.41508697E+03</pdfrwt>
<pdfrwt beam="2">  1       21 0.68561131E-01 0.41508697E+03</pdfrwt>
<totfact> 0.12571777E+03</totfact>
</mgrwt>
</event>
<event>
 4    0  0.1436290E-001  0.2608957E+03  0.7546771E-02  0.1106606E+00
         21   -1    0    0  502  501  0.00000000000E+00  0.00000000000E+00  0.32811013694E+03  0.32811013694E+03  0.00000000000E+00 0. -1.
         21   -1    0    0  503  502 -0.00000000000E+00 -0.00000000000E+00 -0.18323302441E+03  0.18323302441E+03  0.00000000000E+00 0. -1.
         25    1    1    2    0    0  0.14815188538E+03  0.17462122556E+03  0.65705419181E+02  0.26904229346E+03  0.12500000000E+03 0.  0.
         21    1    1    2  503  501 -0.14815188538E+03 -0.17462122556E+03  0.79171693349E+02  0.24230086790E+03  0.00000000000E+00 0. -1.
<mgrwt>
<rscale>  3 0.26089568E+03</rscale>
<asrwt>0</asrwt>
<pdfrwt beam="1">  1       21 0.50478483E-01 0.26089568E+03</pdfrwt>
<pdfrwt beam="2">  1       21 0.28189696E-01 0.26089568E+03</pdfrwt>
<totfact> 0.43562759E+04</totfact>
</mgrwt>
</event>
<event>
 4    0  0.1076406E-001  0.3589275E+03  0.7546771E-02  0.1059009E+00
         21   -1    0    0  503  501  0.00000000000E+00  0.00000000000E+00  0.12566460609E+04  0.12566460609E+04  0.00000000000E+00 0.  1.
         21   -1    0    0  501  502 -0.00000000000E+00 -0.00000000000E+00 -0.12333676073E+03  0.12333676073E+03  0.00000000000E+00 0.  1.
         25    1    1    2    0    0 -0.27530169944E+03  0.19342414920E+03  0.90445085043E+03  0.97306745298E+03  0.12500000000E+03 0.  0.
         21    1    1    2  503  502  0.27530169944E+03 -0.19342414920E+03  0.22885844970E+03  0.40691536860E+03  0.00000000000E+00 0.  1.
<mgrwt>
<rscale>  3 0.35892747E+03</rscale>
<asrwt>0</asrwt>
<pdfrwt beam="1">  1       21 0.19333015E+00 0.35892747E+03</pdfrwt>
<pdfrwt beam="2">  1       21 0.18974887E-01 0.35892747E+03</pdfrwt>
<totfact> 0.33632957E+03</totfact>
</mgrwt>
</event>
<event>
 4    0  0.1114209E-001  0.2387745E+03  0.7546771E-02  0.1120612E+00
         21   -1    0    0  502  501  0.00000000000E+00  0.00000000000E+00  0.70500809974E+03  0.70500809974E+03  0.00000000000E+00 0.  1.
         21   -1    0    0  503  502 -0.00000000000E+00 -0.00000000000E+00 -0.15223459533E+03  0.15223459533E+03  0.00000000000E+00 0.  1.
         25    1    1    2    0    0 -0.11957219568E+03 -0.16459264071E+03  0.60226294832E+03  0.64786874155E+03  0.12500000000E+03 0.  0.
         21    1    1    2  503  501  0.11957219568E+03  0.16459264071E+03 -0.49489443917E+02  0.20937395352E+03  0.00000000000E+00 0.  1.
<mgrwt>
<rscale>  3 0.23877447E+03</rscale>
<asrwt>0</asrwt>
<pdfrwt beam="1">  1       21 0.10846278E+00 0.23877447E+03</pdfrwt>
<pdfrwt beam="2">  1       21 0.23420707E-01 0.23877447E+03</pdfrwt>
<totfact> 0.11246733E+04</totfact>
</mgrwt>
</event>
<event>
 4    0  0.1192437E-001  0.4820141E+03  0.7546771E-02  0.1018583E+00
         21   -1    0    0  503  501  0.00000000000E+00  0.00000000000E+00  0.29928047282E+03  0.29928047282E+03  0.00000000000E+00 0.  1.
         21   -1    0    0  501  502 -0.00000000000E+00 -0.00000000000E+00 -0.97346801250E+03  0.97346801250E+03  0.00000000000E+00 0.  1.
         25    1    1    2    0    0 -0.46542821245E+03  0.94410160685E+01 -0.36740165442E+02  0.48341223970E+03  0.12500000000E+03 0.  0.
         21    1    1    2  503  502  0.46542821245E+03 -0.94410160685E+01 -0.63744737424E+03  0.78933624562E+03  0.00000000000E+00 0.  1.
<mgrwt>
<rscale>  3 0.48201406E+03</rscale>
<asrwt>0</asrwt>
<pdfrwt beam="1">  1       21 0.46043149E-01 0.48201406E+03</pdfrwt>
<pdfrwt beam="2">  1       21 0.14976431E+00 0.48201406E+03</pdfrwt>
<totfact> 0.11342273E+03</totfact>
</mgrwt>
</event>
<event>
 4    0  0.1003929E-001  0.4124639E+03  0.7546771E-02  0.1039547E+00
         21   -1    0    0  502  501  0.00000000000E+00  0.00000000000E+00  0.99026046257E+03  0.99026046257E+03  0.00000000000E+00 0.  1.
         21   -1    0    0  503  502 -0.00000000000E+00 -0.00000000000E+00 -0.16575281237E+03  0.16575281237E+03  0.00000000000E+00 0. -1.
         25    1    1    2    0    0  0.18971108342E+03 -0.34425457202E+03  0.48453687800E+03  0.63631948868E+03  0.12500000000E+03 0.  0.
         21    1    1    2  503  501 -0.18971108342E+03  0.34425457202E+03  0.33997077220E+03  0.51969378626E+03  0.00000000000E+00 0. -1.
<mgrwt>
<rscale>  3 0.41246394E+03</rscale>
<asrwt>0</asrwt>
<pdfrwt beam="1">  1       21 0.15234776E+00 0.41246394E+03</pdfrwt>
<pdfrwt beam="2">  1       21 0.25500433E-01 0.41246394E+03</pdfrwt>
<totfact> 0.36739516E+03</totfact>
</mgrwt>
</event>
<event>
 4    0  0.1003929E-001  0.3330171E+03  0.7546771E-02  0.1069810E+00
         21   -1    0    0  503  501  0.00000000000E+00  0.00000000000E+00  0.14286200938E+04  0.14286200938E+04  0.00000000000E+00 0. -1.
         21   -1    0    0  501  502 -0.00000000000E+00 -0.00000000000E+00 -0.79335871129E+02  0.79335871129E+02  0.00000000000E+00 0.  1.
         25    1    1    2    0    0 -0.28905241638E+03 -0.10827791219E+03  0.92614923319E+03  0.98420160934E+03  0.12500000000E+03 0.  0.
         21    1    1    2  503  502  0.28905241638E+03  0.10827791219E+03  0.42313498951E+03  0.52375435562E+03  0.00000000000E+00 0.  1.
<mgrwt>
<rscale>  3 0.33301713E+03</rscale>
<asrwt>0</asrwt>
<pdfrwt beam="1">  1       21 0.21978769E+00 0.33301713E+03</pdfrwt>
<pdfrwt beam="2">  1       21 0.12205520E-01 0.33301713E+03</pdfrwt>
<totfact> 0.51848014E+03</totfact>
</mgrwt>
</event>
<event>
 4    0  0.1394723E-001  0.2797304E+03  0.7546771E-02  0.1095836E+00
         21   -1    0    0  502  501  0.00000000000E+00  0.00000000000E+00  0.10482579279E+03  0.10482579279E+03  0.00000000000E+00 0. -1.
         21   -1    0    0  503  502 -0.00000000000E+00 -0.00000000000E+00 -0.68133261176E+03  0.68133261176E+03  0.00000000000E+00 0. -1.
         25    1    1    2    0    0 -0.18615520141E+03 -0.16724342222E+03 -0.35493333198E+03  0.45191458423E+03  0.12500000000E+03 0.  0.
         21    1    1    2  503  501  0.18615520141E+03  0.16724342222E+03 -0.22157348700E+03  0.33424382033E+03  0.00000000000E+00 0. -1.
<mgrwt>
<rscale>  3 0.27973044E+03</rscale>
<asrwt>0</asrwt>
<pdfrwt beam="1">  1       21 0.16127045E-01 0.27973044E+03</pdfrwt>
<pdfrwt beam="2">  1       21 0.10482040E+00 0.27973044E+03</pdfrwt>
<totfact> 0.24105044E+04</totfact>
</mgrwt>
</event>
<event>
 4    0  0.1003929E-001  0.3220933E+03  0.7546771E-02  0.1074690E+00
         21   -1    0    0  503  501  0.00000000000E+00  0.00000000000E+00  0.10349520265E+04  0.10349520265E+04  0.00000000000E+00 0.  1.
         21   -1    0    0  501  502 -0.00000000000E+00 -0.00000000000E+00 -0.25960393481E+03  0.25960393481E+03  0.00000000000E+00 0.  1.
         25    1    1    2    0    0  0.16299854234E+03  0.24809381376E+03  0.91240976827E+03  0.96759270898E+03  0.12500000000E+03 0.  0.
         21    1    1    2  503  502 -0.16299854234E+03 -0.24809381376E+03 -0.13706167653E+03  0.32696325238E+03  0.00000000000E+00 0.  1.
<mgrwt>
<rscale>  3 0.32209326E+03</rscale>
<asrwt>0</asrwt>
<pdfrwt beam="1">  1       21 0.15922339E+00 0.32209326E+03</pdfrwt>
<pdfrwt beam="2">  1       21 0.39939067E-01 0.32209326E+03</pdfrwt>
<totfact> 0.13923695E+03</totfact>
</mgrwt>
</event>
<event>
 4    0  0.1206938E-001  0.2498139E+03  0.7546771E-02  0.1113422E+00
         21   -1    0    0  502  501  0.00000000000E+00  0.00000000000E+00  0.13905556376E+03  0.13905556376E+03  0.00000000000E+00 0. -1.
         21   -1    0    0  503  502 -0.00000000000E+00 -0.00000000000E+00 -0.59630097593E+03  0.59630097593E+03  0.00000000000E+00 0.  1.
         25    1    1    2    0    0 -0.21124856822E+03 -0.46433202303E+02 -0.23803194580E+02  0.25094539630E+03  0.12500000000E+03 0.  0.
         21    1    1    2  503  501  0.21124856822E+03  0.46433202303E+02 -0.43344221759E+03  0.48441114339E+03  0.00000000000E+00 0.  1.
<mgrwt>
<rscale>  3 0.24981393E+03</rscale>
<asrwt>0</asrwt>
<pdfrwt beam="1">  1       21 0.21393164E-01 0.24981393E+03</pdfrwt>
<pdfrwt beam="2">  1       21 0.91738612E-01 0.24981393E+03</pdfrwt>
<totfact> 0.19804045E+04</totfact>
</mgrwt>
</event>
<event>
 4    0  0.1442577E-001  0.2522589E+03  0.7546771E-02  0.1111886E+00
         21   -1    0    0  503  501  0.00000000000E+00  0.00000000000E+00  0.39394447877E+03  0.39394447877E+03  0.00000000000E+00 0.  1.
         21   -1    0    0  501  502 -0.00000000000E+00 -0.00000000000E+00 -0.14996138954E+03  0.14996138954E+03  0.00000000000E+00 0.  1.
         25    1    1    2    0    0 -0.50865842329E+02 -0.21312491605E+03  0.19637201172E+03  0.31968192120E+03  0.12500000000E+03 0.  0.
         21    1    1    2  503  502  0.50865842329E+02  0.21312491605E+03  0.47611077508E+02  0.22422394711E+03  0.00000000000E+00 0.  1.
<mgrwt>
<rscale>  3 0.25225892E+03</rscale>
<asrwt>0</asrwt>
<pdfrwt beam="1">  1       21 0.60606842E-01 0.25225892E+03</pdfrwt>
<pdfrwt beam="2">  1       21 0.23070983E-01 0.25225892E+03</pdfrwt>
<totfact> 0.43533464E+04</totfact>
</mgrwt>
</event>
<event>
 4    0  0.1557221E-001  0.2857884E+03  0.7546771E-02  0.1092569E+00
         21   -1    0    0  503  501  0.00000000000E+00  0.00000000000E+00  0.40336349703E+03  0.40336349703E+03  0.00000000000E+00 0. -1.
         21   -1    0    0  501  502 -0.00000000000E+00 -0.00000000000E+00 -0.25249408457E+03  0.25249408457E+03  0.00000000000E+00 0. -1.
         25    1    1    2    0    0  0.92015595187E+02 -0.23996492762E+03  0.25068250399E+03  0.38015359271E+03  0.12500000000E+03 0.  0.
         21    1    1    2  503  502 -0.92015595187E+02  0.23996492762E+03 -0.99813091527E+02  0.27570398889E+03  0.00000000000E+00 0. -1.
<mgrwt>
<rscale>  3 0.28578845E+03</rscale>
<asrwt>0</asrwt>
<pdfrwt beam="1">  1       21 0.62055923E-01 0.28578845E+03</pdfrwt>
<pdfrwt beam="2">  1       21 0.38845244E-01 0.28578845E+03</pdfrwt>
<totfact> 0.14644200E+04</totfact>
</mgrwt>
</event>
<event>
 4    0  0.1053508E-001  0.2886208E+03  0.7546771E-02  0.1091071E+00
         21   -1    0    0  502  501  0.00000000000E+00  0.00000000000E+00  0.31840710121E+03  0.31840710121E+03  0.00000000000E+00 0.  1.
         21   -1    0    0  503  502 -0.00000000000E+00 -0.00000000000E+00 -0.65817341726E+03  0.65817341726E+03  0.00000000000E+00 0.  1.
         25    1    1    2    0    0 -0.25789801867E+03  0.34140245264E+02  0.21762256497E+03  0.36147133381E+03  0.12500000000E+03 0.  0.
         21    1    1    2  503  501  0.25789801867E+03 -0.34140245264E+02 -0.55738888102E+03  0.61510918467E+03  0.00000000000E+00 0.  1.
<mgrwt>
<rscale>  3 0.28862076E+03</rscale>
<asrwt>0</asrwt>
<pdfrwt beam="1">  1       21 0.48985708E-01 0.28862076E+03</pdfrwt>
<pdfrwt beam="2">  1       21 0.10125745E+00 0.28862076E+03</pdfrwt>
<totfact> 0.29595689E+03</totfact>
</mgrwt>
</event>
<event>
 4    0  0.1069313E-001  0.2616903E+03  0.7546771E-02  0.1106132E+00
         21   -1    0    0  502  501  0.00000000000E+00  0.00000000000E+00  0.23905604274E+03  0.23905604274E+03  0.00000000000E+00 0. -1.
         21   -1    0    0  503  502 -0.00000000000E+00 -0.00000000000E+00 -0.29247386280E+03  0.29247386280E+03  0.00000000000E+00 0. -1.
         25    1    1    2    0    0 -0.50880143451E+01 -0.22984984134E+03 -0.12599239033E+03  0.29044090599E+03  0.12500000000E+03 0.  0.
         21    1    1    2  503  501  0.50880143451E+01  0.22984984134E+03  0.72574570259E+02  0.24108899955E+03  0.00000000000E+00 0. -1.
<mgrwt>
<rscale>  3 0.26169035E+03</rscale>
<asrwt>0</asrwt>
<pdfrwt beam="1">  1       21 0.36777853E-01 0.26169035E+03</pdfrwt>
<pdfrwt beam="2">  1       21 0.44995979E-01 0.26169035E+03</pdfrwt>
<totfact> 0.32695232E+04</totfact>
</mgrwt>
</event>
<event>
 4    0  0.1321512E-001  0.2431136E+03  0.7546771E-02  0.1117736E+00
         21   -1    0    0  502  501  0.00000000000E+00  0.00000000000E+00  0.16241262706E+03  0.16241262706E+03  0.00000000000E+00 0.  1.
         21   -1    0    0  503  502 -0.00000000000E+00 -0.00000000000E+00 -0.57840575280E+03  0.57840575280E+03  0.00000000000E+00 0. -1.
         25    1    1    2    0    0  0.18416390089E+03 -0.97789946581E+02  0.33408481989E+02  0.24539833478E+03  0.12500000000E+03 0.  0.
         21    1    1    2  503  501 -0.18416390089E+03  0.97789946581E+02 -0.44940160773E+03  0.49542004508E+03  0.00000000000E+00 0. -1.
<mgrwt>
<rscale>  3 0.24311359E+03</rscale>
<asrwt>0</asrwt>
<pdfrwt beam="1">  1       21 0.24986559E-01 0.24311359E+03</pdfrwt>
<pdfrwt beam="2">  1       21 0.88985498E-01 0.24311359E+03</pdfrwt>
<totfact> 0.15871906E+04</totfact>
</mgrwt>
</event>
<event>
 4    0  0.1003929E-001  0.2393315E+03  0.7546771E-02  0.1120239E+00
         21   -1    0    0  503  501  0.00000000000E+00  0.00000000000E+00  0.59897140792E+02  0.59897140792E+02  0.00000000000E+00 0. -1.
         21   -1    0    0  501  502 -0.00000000000E+00 -0.00000000000E+00 -0.18832088928E+04  0.18832088928E+04  0.00000000000E+00 0. -1.
         25    1    1    2    0    0 -0.17170624339E+03 -0.11032464422E+03 -0.21446034000E+03  0.32136085414E+03  0.12500000000E+03 0.  0.
         21    1    1    2  503  502  0.17170624339E+03  0.11032464422E+03 -0.16088514120E+04  0.16217451794E+04  0.00000000000E+00 0. -1.
<mgrwt>
<rscale>  3 0.23933149E+03</rscale>
<asrwt>0</asrwt>
<pdfrwt beam="1">  1       21 0.92149435E-02 0.23933149E+03</pdfrwt>
<pdfrwt beam="2">  1       21 0.28972449E+00 0.23933149E+03</pdfrwt>
<totfact> 0.34876887E+03</totfact>
</mgrwt>
</event>
<event>
 4    0  0.1473631E-001  0.2456782E+03  0.7546771E-02  0.1116067E+00
         21   -1    0    0  502  501  0.00000000000E+00  0.00000000000E+00  0.18765448970E+03  0.18765448970E+03  0.00000000000E+00 0. -1.
         21   -1    0    0  503  502 -0.00000000000E+00 -0.00000000000E+00 -0.33439127104E+03  0.33439127104E+03  0.00000000000E+00 0. -1.
         25    1    1    2    0    0  0.16017225174E+03 -0.13812171163E+03  0.28573485530E+02  0.24733418996E+03  0.12500000000E+03 0.  0.
         21    1    1    2  503  501 -0.16017225174E+03  0.13812171163E+03 -0.17531026686E+03  0.27471157078E+03  0.00000000000E+00 0. -1.
<mgrwt>
<rscale>  3 0.24567816E+03</rscale>
<asrwt>0</asrwt>
<pdfrwt beam="1">  1       21 0.28869922E-01 0.24567816E+03</pdfrwt>
<pdfrwt beam="2">  1       21 0.51444810E-01 0.24567816E+03</pdfrwt>
<totfact> 0.40203013E+04</totfact>
</mgrwt>
</event>
<event>
 4    0  0.1237486E-001  0.2526063E+03  0.7546771E-02  0.1111669E+00
         21   -1    0    0  503  501  0.00000000000E+00  0.00000000000E+00  0.58638104526E+03  0.58638104526E+03  0.00000000000E+00 0. -1.
         21   -1    0    0  501  502 -0.00000000000E+00 -0.00000000000E+00 -0.20191106777E+03  0.20191106777E+03  0.00000000000E+00 0. -1.
         25    1    1    2    0    0  0.20745544018E+03  0.71743973792E+02  0.48501183897E+03  0.54685138874E+03  0.12500000000E+03 0.  0.
         21    1    1    2  503  502 -0.20745544018E+03 -0.71743973792E+02 -0.10054186148E+03  0.24144072428E+03  0.00000000000E+00 0. -1.
<mgrwt>
<rscale>  3 0.25260633E+03</rscale>
<asrwt>0</asrwt>
<pdfrwt beam="1">  1       21 0.90212468E-01 0.25260633E+03</pdfrwt>
<pdfrwt beam="2">  1       21 0.31063241E-01 0.25260633E+03</pdfrwt>
<totfact> 0.10017505E+04</totfact>
</mgrwt>
</event>
<event>
 4    0  0.1194369E-001  0.3964231E+03  0.7546771E-02  0.1045025E+00
         21   -1    0    0  502  501  0.00000000000E+00  0.00000000000E+00  0.29196461750E+03  0.29196461750E+03  0.00000000000E+00 0. -1.
         21   -1    0    0  503  502 -0.00000000000E+00 -0.00000000000E+00 -0.19969076499E+04  0.19969076499E+04  0.00000000000E+00 0.  1.
         25    1    1    2    0    0  0.29196070611E+03 -0.23724501063E+03  0.12888952665E+03  0.41684980396E+03  0.12500000000E+03 0.  0.
         21    1    1    2  503  501 -0.29196070611E+03  0.23724501063E+03 -0.18338325591E+04  0.18720224634E+04  0.00000000000E+00 0.  1.
<mgrwt>
<rscale>  3 0.39642307E+03</rscale>
<asrwt>0</asrwt>
<pdfrwt beam="1">  1       21 0.44917633E-01 0.39642307E+03</pdfrwt>
<pdfrwt beam="2">  1       21 0.30721657E+00 0.39642307E+03</pdfrwt>
<totfact> 0.11835898E+02</totfact>
</mgrwt>
</event>
<event>
 4    0  0.1575177E-001  0.2522711E+03  0.7546771E-02  0.1111878E+00
         21   -1    0    0  503  501  0.00000000000E+00  0.00000000000E+00  0.50785767178E+03  0.50785767178E+03  0.00000000000E+00 0. -1.
         21   -1    0    0  501  502 -0.00000000000E+00 -0.00000000000E+00 -0.11749835778E+03  0.11749835778E+03  0.00000000000E+00 0. -1.
         25    1    1    2    0    0  0.21055464701E+03 -0.60683213617E+02  0.28991589474E+03  0.38430708791E+03  0.12500000000E+03 0.  0.
         21    1    1    2  503  502 -0.21055464701E+03  0.60683213617E+02  0.10044341926E+03  0.24104894164E+03  0.00000000000E+00 0. -1.
<mgrwt>
<rscale>  3 0.25227111E+03</rscale>
<asrwt>0</asrwt>
<pdfrwt beam="1">  1       21 0.78131948E-01 0.25227111E+03</pdfrwt>
<pdfrwt beam="2">  1       21 0.18076671E-01 0.25227111E+03</pdfrwt>
<totfact> 0.39274264E+04</totfact>
</mgrwt>
</event>
<event>
 4    0  0.1444628E-001  0.2769389E+03  0.7546771E-02  0.1097373E+00
         21   -1    0    0  503  501  0.00000000000E+00  0.00000000000E+00  0.13730824986E+03  0.13730824986E+03  0.00000000000E+00 0. -1.
         21   -1    0    0  501  502 -0.00000000000E+00 -0.00000000000E+00 -0.64133150592E+03  0.64133150592E+03  0.00000000000E+00 0. -1.
         25    1    1    2    0    0 -0.24626010484E+03  0.20642920682E+02 -0.80689493184E+02  0.28845443959E+03  0.12500000000E+03 0.  0.
         21    1    1    2  503  502  0.24626010484E+03 -0.20642920682E+02 -0.42333376288E+03  0.49018531619E+03  0.00000000000E+00 0. -1.
<mgrwt>
<rscale>  3 0.27693893E+03</rscale>
<asrwt>0</asrwt>
<pdfrwt beam="1">  1       21 0.21124346E-01 0.27693893E+03</pdfrwt>
<pdfrwt beam="2">  1       21 0.98666387E-01 0.27693893E+03</pdfrwt>
<totfact> 0.16857604E+04</totfact>
</mgrwt>
</event>
<event>
 4    0  0.1003929E-001  0.3354482E+03  0.7546771E-02  0.1068751E+00
         21   -1    0    0  502  501  0.00000000000E+00  0.00000000000E+00  0.34930015248E+04  0.34930015248E+04  0.00000000000E+00 0. -1.
         21   -1    0    0  503  502 -0.00000000000E+00 -0.00000000000E+00 -0.22918912858E+03  0.22918912858E+03  0.00000000000E+00 0.  1.
         25    1    1    2    0    0 -0.27088599900E+03 -0.15336648203E+03  0.33750085276E+04  0.33916379618E+04  0.12500000000E+03 0.  0.
         21    1    1    2  503  501  0.27088599900E+03  0.15336648203E+03 -0.11119613142E+03  0.33055269158E+03  0.00000000000E+00 0.  1.
<mgrwt>
<rscale>  3 0.33544821E+03</rscale>
<asrwt>0</asrwt>
<pdfrwt beam="1">  1       21 0.53738481E+00 0.33544821E+03</pdfrwt>
<pdfrwt beam="2">  1       21 0.35259869E-01 0.33544821E+03</pdfrwt>
<totfact> 0.63093845E+00</totfact>
</mgrwt>
</event>
<event>
 4    0  0.1127389E-001  0.2757234E+03  0.7546771E-02  0.1098048E+00
         21   -1    0    0  502  501  0.00000000000E+00  0.00000000000E+00  0.78276192065E+03  0.78276192065E+03  0.00000000000E+00 0. -1.
         21   -1    0    0  503  502 -0.00000000000E+00 -0.00000000000E+00 -0.29023615345E+03  0.29023615345E+03  0.00000000000E+00 0. -1.
         25    1    1    2    0    0 -0.24132938885E+03 -0.46459849252E+02  0.69938140161E+03  0.75176973631E+03  0.12500000000E+03 0.  0.
         21    1    1    2  503  501  0.24132938885E+03  0.46459849252E+02 -0.20685563441E+03  0.32122833779E+03  0.00000000000E+00 0. -1.
<mgrwt>
<rscale>  3 0.27572340E+03</rscale>
<asrwt>0</asrwt>
<pdfrwt beam="1">  1       21 0.12042491E+00 0.27572340E+03</pdfrwt>
<pdfrwt beam="2">  1       21 0.44651716E-01 0.27572340E+03</pdfrwt>
<totfact> 0.23650121E+03</totfact>
</mgrwt>
</event>
<event>
 4    0  0.1352785E-001  0.2403880E+03  0.7546771E-02  0.1119535E+00
         21   -1    0    0  502  501  0.00000000000E+00  0.00000000000E+00  0.28778587609E+03  0.28778587609E+03  0.00000000000E+00 0.  1.
         21   -1    0    0  503  502 -0.00000000000E+00 -0.00000000000E+00 -0.17261649217E+03  0.17261649217E+03  0.00000000000E+00 0.  1.
         25    1    1    2    0    0 -0.19301049282E+03  0.70059644408E+02  0.65353801642E+02  0.24911347515E+03  0.12500000000E+03 0.  0.
         21    1    1    2  503  501  0.19301049282E+03 -0.70059644408E+02  0.49815582275E+02  0.21128889311E+03  0.00000000000E+00 0.  1.
<mgrwt>
<rscale>  3 0.24038803E+03</rscale>
<asrwt>0</asrwt>
<pdfrwt beam="1">  1       21 0.44274750E-01 0.24038803E+03</pdfrwt>
<pdfrwt beam="2">  1       21 0.26556383E-01 0.24038803E+03</pdfrwt>
<totfact> 0.64776112E+04</totfact>
</mgrwt>
</event>
<event>
 4    0  0.1417957E-001  0.2834626E+03  0.7546771E-02  0.1093813E+00
         21   -1    0    0  502  501  0.00000000000E+00  0.00000000000E+00  0.15192878230E+03  0.15192878230E+03  0.00000000000E+00 0.  1.
         21   -1    0    0  503  502 -0.00000000000E+00 -0.00000000000E+00 -0.47734744146E+03  0.47734744146E+03  0.00000000000E+00 0.  1.
         25    1    1    2    0    0 -0.62566038972E+02  0.24659993236E+03 -0.15517149306E+03  0.32315511466E+03  0.12500000000E+03 0.  0.
         21    1    1    2  503  501  0.62566038972E+02 -0.24659993236E+03 -0.17024716610E+03  0.30612110910E+03  0.00000000000E+00 0.  1.
<mgrwt>
<rscale>  3 0.28346258E+03</rscale>
<asrwt>0</asrwt>
<pdfrwt beam="1">  1       21 0.23373659E-01 0.28346258E+03</pdfrwt>
<pdfrwt beam="2">  1       21 0.73438068E-01 0.28346258E+03</pdfrwt>
<totfact> 0.27455034E+04</totfact>
</mgrwt>
</event>
<event>
 4    0  0.1416350E-001  0.2441579E+03  0.7546771E-02  0.1117054E+00
         21   -1    0    0  503  501  0.00000000000E+00  0.00000000000E+00  0.16458990821E+03  0.16458990821E+03  0.00000000000E+00 0. -1.
         21   -1    0    0  501  502 -0.00000000000E+00 -0.00000000000E+00 -0.31325310116E+03  0.31325310116E+03  0.00000000000E+00 0. -1.
         25    1    1    2    0    0  0.22966674426E+02 -0.20847207105E+03 -0.87672399398E+02  0.25942151445E+03  0.12500000000E+03 0.  0.
         21    1    1    2  503  502 -0.22966674426E+02  0.20847207105E+03 -0.60990793552E+02  0.21842149491E+03  0.00000000000E+00 0. -1.
<mgrwt>
<rscale>  3 0.24415788E+03</rscale>
<asrwt>0</asrwt>
<pdfrwt beam="1">  1       21 0.25321524E-01 0.24415788E+03</pdfrwt>
<pdfrwt beam="2">  1       21 0.48192785E-01 0.24415788E+03</pdfrwt>
<totfact> 0.59468999E+04</totfact>
</mgrwt>
</event>
<event>
 4    0  0.1003929E-001  0.2433601E+03  0.7546771E-02  0.1117574E+00
         21   -1    0    0  502  501  0.00000000000E+00  0.00000000000E+00  0.12296010072E+04  0.12296010072E+04  0.00000000000E+00 0. -1.
         21   -1    0    0  503  502 -0.00000000000E+00 -0.00000000000E+00 -0.18067383739E+04  0.18067383739E+04  0.00000000000E+00 0. -1.
         25    1    1    2    0    0 -0.18984607235E+03  0.86934472751E+02  0.12114263730E+04  0.12356285813E+04  0.12500000000E+03 0.  0.
         21    1    1    2  503  501  0.18984607235E+03 -0.86934472751E+02 -0.17885637397E+04  0.18007107999E+04  0.00000000000E+00 0. -1.
<mgrwt>
<rscale>  3 0.24336009E+03</rscale>
<asrwt>0</asrwt>
<pdfrwt beam="1">  1       21 0.18916939E+00 0.24336009E+03</pdfrwt>
<pdfrwt beam="2">  1       21 0.27795975E+00 0.24336009E+03</pdfrwt>
<totfact> 0.65800469E+00</totfact>
</mgrwt>
</event>
<event>
 4    0  0.1235328E-001  0.2923600E+03  0.7546771E-02  0.1089123E+00
         21   -1    0    0  503  501  0.00000000000E+00  0.00000000000E+00  0.14145937722E+04  0.14145937722E+04  0.00000000000E+00 0.  1.
         21   -1    0    0  501  502 -0.00000000000E+00 -0.00000000000E+00 -0.60494435898E+02  0.60494435898E+02  0.00000000000E+00 0.  1.
         25    1    1    2    0    0  0.23007516844E+03 -0.13005678329E+03  0.93474777958E+03  0.97940173650E+03  0.12500000000E+03 0.  0.
         21    1    1    2  503  502 -0.23007516844E+03  0.13005678329E+03  0.41935155674E+03  0.49568647162E+03  0.00000000000E+00 0.  1.
<mgrwt>
<rscale>  3 0.29235997E+03</rscale>
<asrwt>0</asrwt>
<pdfrwt beam="1">  1       21 0.21762979E+00 0.29235997E+03</pdfrwt>
<pdfrwt beam="2">  1       21 0.93068373E-02 0.29235997E+03</pdfrwt>
<totfact> 0.89060834E+03</totfact>
</mgrwt>
</event>
<event>
 4    0  0.1003929E-001  0.3508772E+03  0.7546771E-02  0.1062256E+00
         21   -1    0    0  503  501  0.00000000000E+00  0.00000000000E+00  0.32008918250E+03  0.32008918250E+03  0.00000000000E+00 0.  1.
         21   -1    0    0  501  502 -0.00000000000E+00 -0.00000000000E+00 -0.11687541570E+04  0.11687541570E+04  0.00000000000E+00 0.  1.
         25    1    1    2    0    0 -0.13250435842E+03 -0.29988737103E+03  0.19045112319E+03  0.39923235168E+03  0.12500000000E+03 0.  0.
         21    1    1    2  503  502  0.13250435842E+03  0.29988737103E+03 -0.10391160977E+04  0.10896109878E+04  0.00000000000E+00 0.  1.
<mgrwt>
<rscale>  3 0.35087724E+03</rscale>
<asrwt>0</asrwt>
<pdfrwt beam="1">  1       21 0.49244489E-01 0.35087724E+03</pdfrwt>
<pdfrwt beam="2">  1       21 0.17980833E+00 0.35087724E+03</pdfrwt>
<totfact> 0.62879499E+02</totfact>
</mgrwt>
</event>
<event>
 4    0  0.1003929E-001  0.3993758E+03  0.7546771E-02  0.1043996E+00
         21   -1    0    0  503  501  0.00000000000E+00  0.00000000000E+00  0.19876377140E+04  0.19876377140E+04  0.00000000000E+00 0.  1.
         21   -1    0    0  501  502 -0.00000000000E+00 -0.00000000000E+00 -0.86836101922E+02  0.86836101922E+02  0.00000000000E+00 0.  1.
         25    1    1    2    0    0  0.36593264443E+03 -0.99846529038E+02  0.13336983154E+04  0.13922112721E+04  0.12500000000E+03 0.  0.
         21    1    1    2  503  502 -0.36593264443E+03  0.99846529038E+02  0.56710329667E+03  0.68226254383E+03  0.00000000000E+00 0.  1.
<mgrwt>
<rscale>  3 0.39937580E+03</rscale>
<asrwt>0</asrwt>
<pdfrwt beam="1">  1       21 0.30579038E+00 0.39937580E+03</pdfrwt>
<pdfrwt beam="2">  1       21 0.13359402E-01 0.39937580E+03</pdfrwt>
<totfact> 0.12738711E+03</totfact>
</mgrwt>
</event>
