<LesHouchesEvents version="3.0">
  <!--
  <scalesfunctionalform>
    muR  H_T/2 := sum_i mT(i)/2, i=final state
    muF1 H_T/2 := sum_i mT(i)/2, i=final state
    muF2 H_T/2 := sum_i mT(i)/2, i=final state
    QES  H_T/2 := sum_i mT(i)/2, i=final state
  </scalesfunctionalform>
HERWIG6   
  -->
  <header>
       62
  </header>
  <init>
   2212   2212 0.65000000D+04 0.65000000D+04 -1 -1   244800   244800 -4   1
 0.57855461D-04 0.19713320D-05 0.17247933D-05     66
  </init>
  <event>
  6     66 0.17247933E-05 0.20153427E+03 0.75467711E-02 0.94429091E-01
        2 -1    0    0  501    0 0.00000000E+00 0.00000000E+00 0.32426080E+04 0.32426080E+04 0.32000000E+00 0.0000E+00 0.9000E+01
       21 -1    0    0  502  503 0.00000000E+00 0.00000000E+00 -.13430256E+03 0.13430465E+03 0.75000000E+00 0.0000E+00 0.9000E+01
       25  1    1    2    0    0 -.13072974E+03 -.46917657E+03 0.81447450E+03 0.95718892E+03 0.12500000E+03 0.0000E+00 0.9000E+01
        2  1    1    2  501    0 0.14886871E+03 0.23656388E+03 0.20541442E+04 0.20730733E+04 0.32000000E+00 0.0000E+00 0.9000E+01
        3  1    1    2  502    0 0.17877952E+01 0.15574881E+03 0.97400067E+02 0.18370605E+03 0.50000000E+00 0.0000E+00 0.9000E+01
       -3  1    1    2    0  503 -.19926763E+02 0.76863884E+02 0.14228666E+03 0.16294439E+03 0.50000000E+00 0.0000E+00 0.9000E+01
#aMCatNLO 2  0  0  2  2 0.79404865D+02 0.00000000D+00  -5  6  0 0.00000000D+00 0.00000000D+00 0.00000000D+00 0.00000000D+00 0.00000000D+00
  <mgrwgt>
 0.1674406336D-02    1    2    0
 0.617660808963877D+03 0.000000000000000D+00 0.000000000000000D+00 0.617660808963877D+03
 0.617660808963877D+03 0.000000000000000D+00 0.000000000000000D+00 -.617660808963877D+03
 0.507685016614409D+03 -.139114677550684D+03 -.436823193179703D+03 -.178750330027749D+03
 0.473834361353157D+03 0.141329904093276D+03 0.265587678504163D+03 0.366071093142725D+03
 0.253802239960189D+03 -.221522654259167D+01 0.171235514675540D+03 -.187320763114976D+03
 0.000000000000000D+00 -.000000000000000D+00 0.000000000000000D+00 -.000000000000000D+00
 0.649504125846440D+03 0.000000000000000D+00 0.000000000000000D+00 0.649504125846440D+03
 0.670500901518448D+03 0.000000000000000D+00 0.000000000000000D+00 -.670500901518448D+03
 0.533668621734036D+03 -.130724385907436D+03 -.469187225175196D+03 -.178750330027749D+03
 0.460566671261011D+03 0.148858467769127D+03 0.236547606234278D+03 0.366071093142725D+03
 0.243635714937195D+03 0.179268139791281D+01 0.155775734928091D+03 -.187320763114976D+03
 0.821340194326457D+02 -.199267632596033D+02 0.768638840128270D+02 -.209967756720077D+02
0.377281207566D-04 0.000000000000D+00 0.000000000000D+00 0.105200191930D-06 0.161234792725D-09  6 2 21 25 2 3 -3 2 0.49886235D+00 0.20662070D-01 0.25883749D+06 0.25883749D+06 0.25883749D+06 0.10893259D+01  1  2  1  6  6  2        3 0.167440633602D-02 0.100000000000D+01
  </mgrwgt>
  </event>
  <event>
  6     66 0.17247933E-05 0.14324987E+02 0.75467711E-02 0.94091101E-01
        2 -1    0    0  503    0 0.00000000E+00 0.00000000E+00 0.20473422E+04 0.20473422E+04 0.32000000E+00 0.0000E+00 0.9000E+01
        3 -1    0    0  502    0 0.00000000E+00 0.00000000E+00 -.87208231E+03 0.87208246E+03 0.50000000E+00 0.0000E+00 0.9000E+01
       25  1    1    2    0    0 0.29789942E+03 0.38934792E+03 0.44148625E+03 0.67146927E+03 0.12500000E+03 0.0000E+00 0.9000E+01
        2  1    1    2  501    0 0.12881362E+02 0.14203406E+02 0.30869457E+03 0.30928968E+03 0.32000000E+00 0.0000E+00 0.9000E+01
        3  1    1    2  502    0 -.30642827E+03 -.41218955E+03 -.66962577E+03 0.84391791E+03 0.50000000E+00 0.0000E+00 0.9000E+01
       21  1    1    2  503  501 -.43525106E+01 0.86382187E+01 0.10947048E+04 0.10947478E+04 0.75000000E+00 0.0000E+00 0.9000E+01
#aMCatNLO 2  0  0  1  4 0.96728057D+01 0.00000000D+00  -5  6  0 0.00000000D+00 0.00000000D+00 0.00000000D+00 0.00000000D+00 0.00000000D+00
  <mgrwgt>
 0.4249763565D-02    2    2    0
 0.911436085357519D+03 0.000000000000000D+00 0.000000000000000D+00 0.911436085357519D+03
 0.911436085357519D+03 0.000000000000000D+00 0.000000000000000D+00 -.911436085357519D+03
 0.653939530616899D+03 0.296398795905570D+03 0.392520957167971D+03 0.412416005597646D+03
 0.295786357934413D+03 0.121662684845268D+02 0.155951680466514D+02 0.295124282607961D+03
 0.873146282163725D+03 -.308565064390096D+03 -.408116125214623D+03 -.707540288205607D+03
 0.000000000000000D+00 -.000000000000000D+00 0.000000000000000D+00 0.000000000000000D+00
 0.195886662779188D+04 0.000000000000000D+00 0.000000000000000D+00 0.195886662779188D+04
 0.911471248967450D+03 0.000000000000000D+00 0.000000000000000D+00 -.911471248967450D+03
 0.652796378279949D+03 0.297958845470988D+03 0.389424801762672D+03 0.412416005597646D+03
 0.295745669535749D+03 0.128724703085549D+02 0.141936032225811D+02 0.295124282607961D+03
 0.874355786386082D+03 -.306478805166601D+03 -.412256623641639D+03 -.707540288205607D+03
 0.104744004255755D+04 -.435251061294227D+01 0.863821865638542D+01 0.104739537882443D+04
-.301488046678D-01 0.000000000000D+00 0.000000000000D+00 0.135398819367D-04 0.000000000000D+00  6 2 3 25 2 3 21 2 0.32525936D+00 0.13416133D+00 0.27486494D+06 0.27486494D+06 0.27486494D+06 0.10873747D+01  1  2 13  1  6  1        2 -.745469449506D-02 0.100000000000D+01
0.434913740060D-01 0.000000000000D+00 0.000000000000D+00 0.135398819367D-04 0.187656756185D-05  6 2 3 25 2 3 21 2 0.31497568D+00 0.13416650D+00 0.27486494D+06 0.27486494D+06 0.27486494D+06 0.10873747D+01  1  2  1  1  6  1        2 0.117044580605D-01 0.100000000000D+01
  </mgrwgt>
  </event>
  <event>
  5     66 0.17247933E-05 0.13177246E+03 0.75467711E-02 0.95365357E-01
        2 -1    0    0  501    0 0.00000000E+00 0.00000000E+00 0.16996164E+04 0.16996165E+04 0.32000000E+00 0.0000E+00 0.9000E+01
        3 -1    0    0  502    0 0.00000000E+00 0.00000000E+00 -.14640057E+03 0.14640142E+03 0.50000000E+00 0.0000E+00 0.9000E+01
       25  1    1    2    0    0 -.20864432E+03 -.40724293E+03 0.55150850E+03 0.72743789E+03 0.12500000E+03 0.0000E+00 0.9000E+01
        2  1    1    2  501    0 0.95745714E+02 0.11417379E+03 0.53999763E+03 0.56017894E+03 0.32000000E+00 0.0000E+00 0.9000E+01
        3  1    1    2  502    0 0.11289860E+03 0.29306914E+03 0.46170974E+03 0.55840107E+03 0.50000000E+00 0.0000E+00 0.9000E+01
#aMCatNLO 1  0  0  5  2 0.25082998D+01 0.00000000D+00  -5  6  0 0.00000000D+00 0.00000000D+00 0.00000000D+00 0.00000000D+00 0.00000000D+00
  <mgrwgt>
 0.1465517021D-03    8    2    0
 0.498824243913411D+03 0.000000000000000D+00 0.000000000000000D+00 0.498824243913411D+03
 0.498824243913411D+03 -.000000000000000D+00 -.000000000000000D+00 -.498824243913411D+03
 0.487401776917835D+03 -.208643505673257D+03 -.407288128915329D+03 -.111891732168587D+03
 0.195660452501208D+03 0.956639532204870D+02 0.114076294987578D+03 0.126956762912075D+03
 0.314586258407779D+03 0.112979552452771D+03 0.293211833927751D+03 -.150650307434883D+02
 0.000000000000000D+00 0.000000000000000D+00 0.000000000000000D+00 0.000000000000000D+00
 0.498824243913411D+03 0.000000000000000D+00 0.000000000000000D+00 0.498824243913411D+03
 0.498824243913411D+03 -.000000000000000D+00 -.000000000000000D+00 -.498824243913411D+03
 0.487248053246482D+03 -.208583599499388D+03 -.407132656542475D+03 -.111899720236618D+03
 0.195706536787243D+03 0.956880083202587D+02 0.114138724336662D+03 0.126953555333273D+03
 0.305027686784338D+03 0.107818632009610D+03 0.284868741522759D+03 -.163350053510948D+02
 0.966621100875716D+01 0.507695916951928D+01 0.812519068305417D+01 0.128117025444005D+01
0.168552696433D-05 0.000000000000D+00 0.000000000000D+00 0.334355650521D-08 0.000000000000D+00  6 2 3 25 2 3 21 0 0.26147952D+00 0.22523232D-01 0.21972142D+06 0.21972142D+06 0.21972142D+06 0.10947023D+01  1  2  2  4  6  5        3 0.267187977117D-04 0.100000000000D+01
0.486511962941D-07 0.000000000000D+00 -.647286735245D-08 0.334355650521D-08 0.000000000000D+00  6 2 3 25 2 3 21 2 0.26147952D+00 0.22523232D-01 0.21972142D+06 0.21972142D+06 0.21972142D+06 0.10947023D+01  1  2  3  4  6  5        3 0.924201744617D-06 0.100000000000D+01
-.991120666535D-06 0.000000000000D+00 0.000000000000D+00 0.334355650521D-08 0.000000000000D+00  6 2 3 25 2 3 21 2 0.26147952D+00 0.22523232D-01 0.21972142D+06 0.21972142D+06 0.21972142D+06 0.10947023D+01  1  2 15  4  6  5        3 -.188278093636D-04 0.100000000000D+01
0.135533550639D-06 0.000000000000D+00 0.000000000000D+00 0.334355650521D-08 0.000000000000D+00  6 2 3 25 2 3 21 2 0.26147952D+00 0.22523232D-01 0.21965067D+06 0.21965067D+06 0.21965067D+06 0.10947129D+01  1  2 12  4  6  5        3 0.257473034744D-05 0.100000000000D+01
-.373825943614D-03 0.000000000000D+00 0.000000000000D+00 0.334355650521D-08 0.000000000000D+00  6 2 3 25 2 3 21 2 0.26147952D+00 0.22523232D-01 0.21972142D+06 0.21972142D+06 0.21972142D+06 0.10947023D+01  1  2  4  4  6  5        3 -.710137911477D-02 0.100000000000D+01
-.478137111290D-03 0.000000000000D+00 0.000000000000D+00 0.334355650521D-08 0.000000000000D+00  6 2 3 25 2 3 21 2 0.26147952D+00 0.22523232D-01 0.21972142D+06 0.21972142D+06 0.21972142D+06 0.10947023D+01  1  2  5  4  6  5        3 -.908292469827D-02 0.100000000000D+01
0.493054309837D-03 0.000000000000D+00 -.000000000000D+00 0.334355650521D-08 0.000000000000D+00  6 2 3 25 2 3 21 2 0.26147952D+00 0.22523232D-01 0.21972142D+06 0.21972142D+06 0.21972142D+06 0.10947023D+01  1  2  6  4  6  5        3 0.936629904407D-02 0.100000000000D+01
0.366013998991D-03 0.000000000000D+00 0.000000000000D+00 0.334355650521D-08 0.290017368572D-08  6 2 3 25 2 3 21 2 0.26147952D+00 0.22523232D-01 0.21965067D+06 0.21965067D+06 0.21965067D+06 0.10947129D+01  1  2 11  4  6  5        3 0.695316655064D-02 0.100000000000D+01
  </mgrwgt>
  </event>
  <event>
  5     66 -.17247933E-05 0.17804830E+03 0.75467711E-02 0.92622507E-01
        2 -1    0    0  501    0 0.00000000E+00 0.00000000E+00 0.25054905E+04 0.25054905E+04 0.32000000E+00 0.0000E+00 0.9000E+01
        3 -1    0    0  502    0 0.00000000E+00 0.00000000E+00 -.32343481E+03 0.32343520E+03 0.50000000E+00 0.0000E+00 0.9000E+01
       25  1    1    2    0    0 0.25327825E+03 -.38931603E+03 0.34553304E+03 0.59222878E+03 0.12500000E+03 0.0000E+00 0.9000E+01
        2  1    1    2  501    0 0.16841741E+03 0.57834052E+02 0.16636360E+04 0.16731390E+04 0.32000000E+00 0.0000E+00 0.9000E+01
        3  1    1    2  502    0 -.42169566E+03 0.33148198E+03 0.17288665E+03 0.56355796E+03 0.50000000E+00 0.0000E+00 0.9000E+01
#aMCatNLO 1  0  0  1  4 0.28976680D+01 0.00000000D+00  -5  6  0 0.00000000D+00 0.00000000D+00 0.00000000D+00 0.00000000D+00 0.00000000D+00
  <mgrwgt>
 -.5395412022D-03   11    2    0
 0.900201877522803D+03 0.000000000000000D+00 0.000000000000000D+00 0.900201877522803D+03
 0.900201877522803D+03 0.000000000000000D+00 0.000000000000000D+00 -.900201877522803D+03
 0.511827927283278D+03 0.253338740021397D+03 -.389361434158158D+03 -.174814139993794D+03
 0.612584870790807D+03 0.168396150084656D+03 0.578267516332232D+02 0.586139085332147D+03
 0.675990956971521D+03 -.421734890106053D+03 0.331534682524935D+03 -.411324945338352D+03
 0.000000000000000D+00 0.000000000000000D+00 0.000000000000000D+00 0.000000000000000D+00
 0.108304683866812D+04 0.000000000000000D+00 0.000000000000000D+00 0.108304683866812D+04
 0.900214523838357D+03 0.000000000000000D+00 0.000000000000000D+00 -.900214523838357D+03
 0.511680459241396D+03 0.252573052542959D+03 -.389664935498240D+03 -.174814139993794D+03
 0.612299414628407D+03 0.167479813128136D+03 0.574635362194902D+02 0.586139085332147D+03
 0.676426213006715D+03 -.422746634519983D+03 0.331133649735323D+03 -.411324945338352D+03
 0.182855275629958D+03 0.269376884888843D+01 0.106774954342730D+01 0.182832314829762D+03
0.869271625500D-06 0.000000000000D+00 0.000000000000D+00 0.230069695767D-06 0.000000000000D+00  6 2 3 25 2 3 21 0 0.38546011D+00 0.49759233D-01 0.35733146D+06 0.35733146D+06 0.35733146D+06 0.10789771D+01  1  2  2  1  6  1        2 0.106178640353D-05 0.100000000000D+01
0.946297461364D-07 0.000000000000D+00 -.333823192640D-08 0.230069695767D-06 0.000000000000D+00  6 2 3 25 2 3 21 2 0.38546011D+00 0.49759233D-01 0.35733146D+06 0.35733146D+06 0.35733146D+06 0.10789771D+01  1  2  3  1  6  1        2 0.134565512821D-06 0.100000000000D+01
-.600371686739D-06 0.000000000000D+00 0.000000000000D+00 0.230069695767D-06 0.000000000000D+00  6 2 3 25 2 3 21 2 0.38546011D+00 0.49759233D-01 0.35733146D+06 0.35733146D+06 0.35733146D+06 0.10789771D+01  1  2 15  1  6  1        2 -.853741315051D-06 0.100000000000D+01
0.729250892449D-04 0.000000000000D+00 0.000000000000D+00 0.230069695767D-06 0.000000000000D+00  6 2 3 25 2 3 21 2 0.46395367D+00 0.49759233D-01 0.35871036D+06 0.35871036D+06 0.35871036D+06 0.10788553D+01  1  2 12  1  6  1        2 0.508139476346D-04 0.100000000000D+01
-.632325185425D-02 0.000000000000D+00 0.000000000000D+00 0.230069695767D-06 0.000000000000D+00  6 2 3 25 2 3 21 2 0.38546011D+00 0.49759233D-01 0.35733146D+06 0.35733146D+06 0.35733146D+06 0.10789771D+01  1  2  4  1  6  1        2 -.899179870184D-02 0.100000000000D+01
-.570540281315D-02 0.000000000000D+00 -.861669173411D-06 0.230069695767D-06 0.000000000000D+00  6 2 3 25 2 3 21 2 0.46375462D+00 0.49759233D-01 0.35733146D+06 0.35733146D+06 0.35733146D+06 0.10789771D+01  1  2  5  1  6  1        2 -.398494917387D-02 0.100000000000D+01
0.560939747497D-02 0.000000000000D+00 0.847143971546D-06 0.230069695767D-06 0.000000000000D+00  6 2 3 25 2 3 21 2 0.38546011D+00 0.49759233D-01 0.35733146D+06 0.35733146D+06 0.35733146D+06 0.10789771D+01  1  2  6  1  6  1        2 0.797668258297D-02 0.100000000000D+01
0.631609522867D-02 0.000000000000D+00 0.000000000000D+00 0.230069695767D-06 0.194141535401D-06  6 2 3 25 2 3 21 2 0.46375304D+00 0.49759932D-01 0.35871036D+06 0.35871036D+06 0.35871036D+06 0.10788553D+01  1  2 11  1  6  1        2 0.440932314589D-02 0.100000000000D+01
0.196775399197D-05 0.000000000000D+00 0.000000000000D+00 0.230069695767D-06 0.000000000000D+00  6 21 3 25 2 3 -2 2 0.46395367D+00 0.49759233D-01 0.35871036D+06 0.35871036D+06 0.35871036D+06 0.10788553D+01  1  2 12  5  6  1        2 0.891079965171D-07 0.100000000000D+01
-.153664024555D-03 0.000000000000D+00 -.232087062759D-07 0.230069695767D-06 0.000000000000D+00  6 21 3 25 2 3 -2 2 0.46375462D+00 0.49759233D-01 0.35733146D+06 0.35733146D+06 0.35733146D+06 0.10789771D+01  1  2  5  5  6  1        2 -.698734340942D-05 0.100000000000D+01
0.152785157615D-03 0.000000000000D+00 0.000000000000D+00 0.230069695767D-06 0.469428452531D-08  6 21 3 25 2 3 -2 2 0.46375304D+00 0.49759932D-01 0.35871036D+06 0.35871036D+06 0.35871036D+06 0.10788553D+01  1  2 11  5  6  1        2 0.694262180287D-05 0.100000000000D+01
  </mgrwgt>
  </event>
  <event>
  5     66 -.17247933E-05 0.15780274E+03 0.75467711E-02 0.88886265E-01
        2 -1    0    0  501    0 0.00000000E+00 0.00000000E+00 0.18988984E+04 0.18988984E+04 0.32000000E+00 0.0000E+00 0.9000E+01
        3 -1    0    0  502    0 0.00000000E+00 0.00000000E+00 -.71419314E+03 0.71419332E+03 0.50000000E+00 0.0000E+00 0.9000E+01
       25  1    1    2    0    0 0.37828793E+03 0.61633584E+03 -.96684768E+02 0.74023278E+03 0.12500000E+03 0.0000E+00 0.9000E+01
        2  1    1    2  501    0 -.31126308E+03 -.75922663E+03 0.14347311E+04 0.16528047E+04 0.32000000E+00 0.0000E+00 0.9000E+01
        3  1    1    2  502    0 -.67024841E+02 0.14289079E+03 -.15334116E+03 0.22005424E+03 0.50000000E+00 0.0000E+00 0.9000E+01
#aMCatNLO 1  0  0  5  2 0.28263682D+02 0.00000000D+00  -5  6  0 0.00000000D+00 0.00000000D+00 0.00000000D+00 0.00000000D+00 0.00000000D+00
  <mgrwgt>
 -.7310500776D-04    7    2    0
 0.116455160895335D+04 0.000000000000000D+00 0.000000000000000D+00 0.116455160895335D+04
 0.116455160895335D+04 -.000000000000000D+00 -.000000000000000D+00 -.116455160895335D+04
 0.879726693019349D+03 0.378270867437419D+03 0.616365956303252D+03 -.485075471621974D+03
 0.112456752322478D+04 -.311267504979105D+03 -.759237413313891D+03 0.768975425394363D+03
 0.324809001662557D+03 -.670033624583141D+02 0.142871457010639D+03 -.283899953772388D+03
 0.000000000000000D+00 0.000000000000000D+00 0.000000000000000D+00 -.000000000000000D+00
 0.116455160895335D+04 0.000000000000000D+00 0.000000000000000D+00 0.116455160895335D+04
 0.116455160895335D+04 -.000000000000000D+00 -.000000000000000D+00 -.116455160895335D+04
 0.881058075808984D+03 0.377879622044656D+03 0.617200209947576D+03 -.486733217514776D+03
 0.112254105737271D+04 -.311766811251377D+03 -.758172741154214D+03 0.766859814738187D+03
 0.181110726090932D+03 -.617687560520512D+02 0.873817093520405D+02 -.146116914666586D+03
 0.144393358634069D+03 -.434405474122702D+01 0.535908218545969D+02 -.134009682556825D+03
0.104790044353D-04 0.000000000000D+00 0.000000000000D+00 0.353919605232D-07 0.000000000000D+00  6 2 3 25 2 3 21 0 0.29213822D+00 0.10987588D+00 0.73297302D+06 0.73297302D+06 0.73297302D+06 0.10569644D+01  1  2  2  4  6  5        3 0.456310778987D-05 0.100000000000D+01
0.107356481459D-05 0.000000000000D+00 -.402421362170D-07 0.353919605232D-07 0.000000000000D+00  6 2 3 25 2 3 21 2 0.29213822D+00 0.10987588D+00 0.73297302D+06 0.73297302D+06 0.73297302D+06 0.10569644D+01  1  2  3  4  6  5        3 0.522263548020D-06 0.100000000000D+01
-.755840177382D-05 0.000000000000D+00 0.000000000000D+00 0.353919605232D-07 0.000000000000D+00  6 2 3 25 2 3 21 2 0.29213822D+00 0.10987588D+00 0.73297302D+06 0.73297302D+06 0.73297302D+06 0.10569644D+01  1  2 15  4  6  5        3 -.367698128152D-05 0.100000000000D+01
0.803591654635D-04 0.000000000000D+00 0.000000000000D+00 0.353919605232D-07 0.000000000000D+00  6 2 3 25 2 3 21 2 0.29213822D+00 0.10987588D+00 0.73526678D+06 0.73526678D+06 0.73526678D+06 0.10568717D+01  1  2 12  4  6  5        3 0.390785370577D-04 0.100000000000D+01
-.309218056201D-03 0.000000000000D+00 0.000000000000D+00 0.353919605232D-07 0.000000000000D+00  6 2 3 25 2 3 21 2 0.29213822D+00 0.10987588D+00 0.73297302D+06 0.73297302D+06 0.73297302D+06 0.10569644D+01  1  2  4  4  6  5        3 -.150427172117D-03 0.100000000000D+01
-.818538632558D-04 0.000000000000D+00 0.000000000000D+00 0.353919605232D-07 0.000000000000D+00  6 2 3 25 2 3 21 2 0.29213822D+00 0.10987588D+00 0.73297302D+06 0.73297302D+06 0.73297302D+06 0.10569644D+01  1  2  5  4  6  5        3 -.398199423659D-04 0.100000000000D+01
0.157572367425D-03 0.000000000000D+00 -.000000000000D+00 0.353919605232D-07 0.000000000000D+00  6 2 3 25 2 3 21 2 0.29213822D+00 0.10987588D+00 0.73297302D+06 0.73297302D+06 0.73297302D+06 0.10569644D+01  1  2  6  4  6  5        3 0.766551796062D-04 0.100000000000D+01
  </mgrwgt>
  </event>
  <event>
  5     66 0.17247933E-05 0.98224900E+02 0.75467711E-02 0.92423773E-01
        2 -1    0    0  501    0 0.00000000E+00 0.00000000E+00 0.26081520E+04 0.26081520E+04 0.32000000E+00 0.0000E+00 0.9000E+01
        3 -1    0    0  502    0 0.00000000E+00 0.00000000E+00 -.85962845E+03 0.85962860E+03 0.50000000E+00 0.0000E+00 0.9000E+01
       25  1    1    2    0    0 -.51875635E+03 0.17169433E+03 0.38974905E+02 0.56189958E+03 0.12500000E+03 0.0000E+00 0.9000E+01
        2  1    1    2  501    0 0.50228497E+03 -.74863485E+02 0.22754950E+04 0.23314743E+04 0.32000000E+00 0.0000E+00 0.9000E+01
        3  1    1    2  502    0 0.16471385E+02 -.96830849E+02 -.56594639E+03 0.57440672E+03 0.50000000E+00 0.0000E+00 0.9000E+01
#aMCatNLO 1  0  0  4  1 0.11389311D+02 0.00000000D+00  -5  6  0 0.00000000D+00 0.00000000D+00 0.00000000D+00 0.00000000D+00 0.00000000D+00
  <mgrwgt>
 0.3077505669D-02    3    2    0
 0.149734496051969D+04 0.000000000000000D+00 0.000000000000000D+00 0.149734496051969D+04
 0.149734496051969D+04 -.000000000000000D+00 -.000000000000000D+00 -.149734496051969D+04
 0.627897303278760D+03 -.518754603953298D+03 0.171696940053330D+03 -.282920209808913D+03
 0.137118133639959D+04 0.502282311125887D+03 -.748630896183518D+02 0.127367431277913D+04
 0.995611281361041D+03 0.164722928274116D+02 -.968338504349780D+02 -.990754102970216D+03
 0.000000000000000D+00 0.000000000000000D+00 0.000000000000000D+00 0.000000000000000D+00
 0.149734496051969D+04 0.000000000000000D+00 0.000000000000000D+00 0.149734496051969D+04
 0.149734496051969D+04 -.000000000000000D+00 -.000000000000000D+00 -.149734496051969D+04
 0.571669353968774D+03 -.489498966581956D+03 0.167336508969338D+03 -.208734531757989D+03
 0.305107232081267D+03 0.183726989457073D+03 -.212977996204748D+03 -.118216705866571D+03
 0.882901680968163D+03 0.622864155284959D+02 -.103662254895150D+03 -.874579852047297D+03
 0.123501165402118D+04 0.243485561596388D+03 0.149303742130560D+03 0.120153108967186D+04
0.514113331683D-01 0.000000000000D+00 0.000000000000D+00 0.372052668880D-04 0.000000000000D+00  6 2 3 25 2 3 21 0 0.40125416D+00 0.13225054D+00 0.34023948D+06 0.34023948D+06 0.34023948D+06 0.10805306D+01  1  2  2  3  6  4        2 0.575462361407D-02 0.100000000000D+01
0.133962543448D-01 0.000000000000D+00 -.197433056281D-03 0.372052668880D-04 0.000000000000D+00  6 2 3 25 2 3 21 2 0.40125416D+00 0.13225054D+00 0.34023948D+06 0.34023948D+06 0.34023948D+06 0.10805306D+01  1  2  3  3  6  4        2 0.175071567029D-02 0.100000000000D+01
-.338812214392D-01 0.000000000000D+00 0.000000000000D+00 0.372052668880D-04 0.000000000000D+00  6 2 3 25 2 3 21 2 0.40125416D+00 0.13225054D+00 0.34023948D+06 0.34023948D+06 0.34023948D+06 0.10805306D+01  1  2 15  3  6  4        2 -.442783361494D-02 0.100000000000D+01
  </mgrwgt>
  </event>
  <event>
  5     66 0.17247933E-05 0.66094707E+02 0.75467711E-02 0.90923474E-01
        2 -1    0    0  501    0 0.00000000E+00 0.00000000E+00 0.90042423E+03 0.90042429E+03 0.32000000E+00 0.0000E+00 0.9000E+01
        3 -1    0    0  502    0 -.00000000E+00 -.00000000E+00 -.30362780E+04 0.30362780E+04 0.50000000E+00 0.0000E+00 0.9000E+01
       25  1    1    2    0    0 0.64639877E+03 0.16519070E+03 -.16340292E+04 0.17694055E+04 0.12500000E+03 0.0000E+00 0.9000E+01
        2  1    1    2  501    0 0.57603908E+01 -.65844973E+02 0.74967165E+03 0.75257984E+03 0.32000000E+00 0.0000E+00 0.9000E+01
        3  1    1    2  502    0 -.65215916E+03 -.99345730E+02 -.12514962E+04 0.14147170E+04 0.50000000E+00 0.0000E+00 0.9000E+01
#aMCatNLO 1  0  0  5  2 0.14350473D+02 0.00000000D+00  -5  6  0 0.00000000D+00 0.00000000D+00 0.00000000D+00 0.00000000D+00 0.00000000D+00
  <mgrwgt>
 0.2133501227D-04    7    2    0
 0.165346256765195D+04 0.000000000000000D+00 0.000000000000000D+00 0.165346256765195D+04
 0.165346256765195D+04 -.000000000000000D+00 -.000000000000000D+00 -.165346256765195D+04
 0.105101405669271D+04 0.646443260949249D+03 0.165199133238637D+03 -.802387627095646D+03
 0.138005858029123D+04 0.576023773124623D+01 -.658432226661199D+02 0.137847494526585D+04
 0.875852498319954D+03 -.652203498680495D+03 -.993559105725173D+02 -.576087318170199D+03
 0.000000000000000D+00 -.000000000000000D+00 0.000000000000000D+00 0.000000000000000D+00
 0.165346256765195D+04 0.000000000000000D+00 0.000000000000000D+00 0.165346256765195D+04
 0.165346256765195D+04 -.000000000000000D+00 -.000000000000000D+00 -.165346256765195D+04
 0.105101862407260D+04 0.646314393916827D+03 0.165179501787143D+03 -.802501454548670D+03
 0.137990983061780D+04 0.559103534826408D+01 -.658689987572728D+02 0.137832548984704D+04
 0.276469548428103D+03 -.202140752504843D+03 -.451650273376247D+02 -.183124677994001D+03
 0.599527132185404D+03 -.449764676760248D+03 -.541454756922450D+02 -.392699357304370D+03
0.755515315864D-03 0.000000000000D+00 0.000000000000D+00 0.891555717803D-05 0.000000000000D+00  6 2 3 25 2 3 21 0 0.13852681D+00 0.46711970D+00 0.49325943D+06 0.49325943D+06 0.49325943D+06 0.10689272D+01  1  2  2  4  6  5        3 0.337610303986D-05 0.100000000000D+01
0.367575400353D-03 0.000000000000D+00 -.290137774467D-05 0.891555717803D-05 0.000000000000D+00  6 2 3 25 2 3 21 2 0.13852681D+00 0.46711970D+00 0.49325943D+06 0.49325943D+06 0.49325943D+06 0.10689272D+01  1  2  3  4  6  5        3 0.187678771372D-05 0.100000000000D+01
-.472836793864D-03 0.000000000000D+00 0.000000000000D+00 0.891555717803D-05 0.000000000000D+00  6 2 3 25 2 3 21 2 0.13852681D+00 0.46711970D+00 0.49325943D+06 0.49325943D+06 0.49325943D+06 0.10689272D+01  1  2 15  4  6  5        3 -.241423741759D-05 0.100000000000D+01
0.693340568423D-01 0.000000000000D+00 0.000000000000D+00 0.891555717803D-05 0.000000000000D+00  6 2 3 25 2 3 21 2 0.13852681D+00 0.46711970D+00 0.49346510D+06 0.49346510D+06 0.49346510D+06 0.10689144D+01  1  2 12  4  6  5        3 0.353992309586D-03 0.100000000000D+01
-.122467942676D+00 0.000000000000D+00 0.000000000000D+00 0.891555717803D-05 0.000000000000D+00  6 2 3 25 2 3 21 2 0.13852681D+00 0.46711970D+00 0.49325943D+06 0.49325943D+06 0.49325943D+06 0.10689272D+01  1  2  4  4  6  5        3 -.625303896612D-03 0.100000000000D+01
-.693081887564D-01 0.000000000000D+00 0.000000000000D+00 0.891555717803D-05 0.000000000000D+00  6 2 3 25 2 3 21 2 0.13852681D+00 0.46711970D+00 0.49325943D+06 0.49325943D+06 0.49325943D+06 0.10689272D+01  1  2  5  4  6  5        3 -.353877754042D-03 0.100000000000D+01
0.126068082794D+00 0.000000000000D+00 -.000000000000D+00 0.891555717803D-05 0.000000000000D+00  6 2 3 25 2 3 21 2 0.13852681D+00 0.46711970D+00 0.49325943D+06 0.49325943D+06 0.49325943D+06 0.10689272D+01  1  2  6  4  6  5        3 0.643685700002D-03 0.100000000000D+01
  </mgrwgt>
  </event>
  <event>
  5     66 0.17247933E-05 0.28288308E+02 0.75467711E-02 0.94530541E-01
        2 -1    0    0  501    0 0.00000000E+00 0.00000000E+00 0.20238892E+04 0.20238892E+04 0.32000000E+00 0.0000E+00 0.9000E+01
        3 -1    0    0  502    0 0.00000000E+00 0.00000000E+00 -.16829033E+04 0.16829034E+04 0.50000000E+00 0.0000E+00 0.9000E+01
       25  1    1    2    0    0 0.43591344E+03 -.19441111E+03 -.14418151E+03 0.51403260E+03 0.12500000E+03 0.0000E+00 0.9000E+01
        2  1    1    2  501    0 -.41250707E+03 0.17852667E+03 0.18113448E+04 0.18662808E+04 0.32000000E+00 0.0000E+00 0.9000E+01
        3  1    1    2  502    0 -.23406373E+02 0.15884434E+02 -.13261775E+04 0.13264792E+04 0.50000000E+00 0.0000E+00 0.9000E+01
#aMCatNLO 1  0  0  1  4 0.22208593D+02 0.00000000D+00  -5  6  0 0.00000000D+00 0.00000000D+00 0.00000000D+00 0.00000000D+00 0.00000000D+00
  <mgrwgt>
 0.8959741988D-02    9    2    0
 0.184553787614730D+04 0.000000000000000D+00 0.000000000000000D+00 0.184553787614730D+04
 0.184553787614730D+04 0.000000000000000D+00 0.000000000000000D+00 -.184553787614730D+04
 0.529530439921667D+03 0.435912326777196D+03 -.194410796947055D+03 -.192256006922375D+03
 0.170688543576879D+04 -.412505138913436D+03 0.178525837994508D+03 0.164664080065385D+04
 0.145465987660414D+04 -.234071878637598D+02 0.158849589525475D+02 -.145438479373148D+04
 0.000000000000000D+00 0.000000000000000D+00 -.000000000000000D+00 0.000000000000000D+00
 0.251036999520479D+04 0.000000000000000D+00 0.000000000000000D+00 0.251036999520479D+04
 0.184575676000582D+04 0.000000000000000D+00 0.000000000000000D+00 -.184575676000582D+04
 0.526774586503326D+03 0.432768569588924D+03 -.193947049381964D+03 -.192256006922375D+03
 0.170952849309394D+04 -.422673012376392D+03 0.180025739633919D+03 0.164664080065385D+04
 0.145483948481170D+04 -.320663907482517D+02 0.171623108639147D+02 -.145438479373148D+04
 0.664984190801648D+03 0.219708335357192D+02 -.324100111586994D+01 0.664613235198965D+03
0.173098197279D-02 0.000000000000D+00 0.000000000000D+00 0.107022208048D-02 0.000000000000D+00  6 2 3 25 2 3 21 0 0.31136758D+00 0.25890821D+00 0.23579011D+06 0.23579011D+06 0.23579011D+06 0.10923762D+01  1  2  2  1  6  1        2 0.373700936863D-04 0.100000000000D+01
0.120710136186D-02 0.000000000000D+00 -.664742655355D-05 0.107022208048D-02 0.000000000000D+00  6 2 3 25 2 3 21 2 0.31136758D+00 0.25890821D+00 0.23579011D+06 0.23579011D+06 0.23579011D+06 0.10923762D+01  1  2  3  1  6  1        2 0.310970959238D-04 0.100000000000D+01
-.117555245967D-02 0.000000000000D+00 0.000000000000D+00 0.107022208048D-02 0.000000000000D+00  6 2 3 25 2 3 21 2 0.31136758D+00 0.25890821D+00 0.23579011D+06 0.23579011D+06 0.23579011D+06 0.10923762D+01  1  2 15  1  6  1        2 -.302843396228D-04 0.100000000000D+01
0.164211127745D+01 0.000000000000D+00 0.000000000000D+00 0.107022208048D-02 0.000000000000D+00  6 2 3 25 2 3 21 2 0.42482618D+00 0.25890821D+00 0.25423332D+06 0.25423332D+06 0.25423332D+06 0.10899109D+01  1  2 12  1  6  1        2 0.158416955215D-01 0.100000000000D+01
-.121755128444D+01 0.000000000000D+00 0.000000000000D+00 0.107022208048D-02 0.000000000000D+00  6 2 3 25 2 3 21 2 0.31136758D+00 0.25890821D+00 0.23579011D+06 0.23579011D+06 0.23579011D+06 0.10923762D+01  1  2  4  1  6  1        2 -.313663046705D-01 0.100000000000D+01
-.166275171164D+01 0.000000000000D+00 -.126242885333D-02 0.107022208048D-02 0.000000000000D+00  6 2 3 25 2 3 21 2 0.42354615D+00 0.25890821D+00 0.23579011D+06 0.23579011D+06 0.23579011D+06 0.10923762D+01  1  2  5  1  6  1        2 -.164471398187D-01 0.100000000000D+01
0.158745886959D+01 0.000000000000D+00 0.120494031405D-02 0.107022208048D-02 0.000000000000D+00  6 2 3 25 2 3 21 2 0.31136758D+00 0.25890821D+00 0.23579011D+06 0.23579011D+06 0.23579011D+06 0.10923762D+01  1  2  6  1  6  1        2 0.408957874644D-01 0.100000000000D+01
0.651033015444D-01 0.000000000000D+00 0.000000000000D+00 0.107022208048D-02 0.000000000000D+00  6 21 3 25 2 3 -2 2 0.42482618D+00 0.25890821D+00 0.25423332D+06 0.25423332D+06 0.25423332D+06 0.10899109D+01  1  2 12  5  6  1        2 0.557740319314D-04 0.100000000000D+01
-.654297398163D-01 0.000000000000D+00 -.496992717709D-04 0.107022208048D-02 0.000000000000D+00  6 21 3 25 2 3 -2 2 0.42354615D+00 0.25890821D+00 0.23579011D+06 0.23579011D+06 0.23579011D+06 0.10923762D+01  1  2  5  5  6  1        2 -.582533911447D-04 0.100000000000D+01
  </mgrwgt>
  </event>
  <event>
  5     66 0.17247933E-05 0.77921043E+02 0.75467711E-02 0.90043489E-01
        2 -1    0    0  501    0 0.00000000E+00 0.00000000E+00 0.21999348E+04 0.21999349E+04 0.32000000E+00 0.0000E+00 0.9000E+01
        3 -1    0    0  502    0 0.00000000E+00 0.00000000E+00 -.15509497E+04 0.15509497E+04 0.50000000E+00 0.0000E+00 0.9000E+01
       25  1    1    2    0    0 0.74591931E+03 -.13999013E+03 -.35782885E+03 0.84832737E+03 0.12500000E+03 0.0000E+00 0.9000E+01
        2  1    1    2  501    0 -.77916764E+02 -.98697343E+00 0.18308154E+04 0.18324729E+04 0.32000000E+00 0.0000E+00 0.9000E+01
        3  1    1    2  502    0 -.66800254E+03 0.14097711E+03 -.82400135E+03 0.10700843E+04 0.50000000E+00 0.0000E+00 0.9000E+01
#aMCatNLO 1  0  0  5  2 0.69124527D+01 0.00000000D+00  -5  6  0 0.00000000D+00 0.00000000D+00 0.00000000D+00 0.00000000D+00 0.00000000D+00
  <mgrwgt>
 0.1914528675D-03    7    2    0
 0.184715683949327D+04 0.000000000000000D+00 0.000000000000000D+00 0.184715683949327D+04
 0.184715683949327D+04 -.000000000000000D+00 -.000000000000000D+00 -.184715683949327D+04
 0.924195083056314D+03 0.745962522018077D+03 -.139999176671538D+03 -.512300398029505D+03
 0.153887269943835D+04 -.779147928724512D+02 -.986948453051275D+00 0.153689866161080D+04
 0.123124589649187D+04 -.668047729145625D+03 0.140986125124589D+03 -.102459826358129D+04
 0.000000000000000D+00 0.000000000000000D+00 0.000000000000000D+00 0.000000000000000D+00
 0.184715683949327D+04 0.000000000000000D+00 0.000000000000000D+00 0.184715683949327D+04
 0.184715683949327D+04 -.000000000000000D+00 -.000000000000000D+00 -.184715683949327D+04
 0.924200252211324D+03 0.745526543189251D+03 -.139907166829979D+03 -.512969067544398D+03
 0.153779797097843D+04 -.786404835566769D+02 -.833797243722493D+00 0.153578565518549D+04
 0.122323304201807D+04 -.659355804464226D+03 0.135890345478025D+03 -.102131425732239D+04
 0.908241377870635D+01 -.753025516834782D+01 0.485061859567674D+01 -.150233031869859D+01
0.424563265393D-02 0.000000000000D+00 0.000000000000D+00 0.241072932068D-04 0.000000000000D+00  6 2 3 25 2 3 21 0 0.33845152D+00 0.23860765D+00 0.58514410D+06 0.58514410D+06 0.58514410D+06 0.10637170D+01  1  2  2  4  6  5        3 0.100289169454D-03 0.100000000000D+01
0.199014707662D-02 0.000000000000D+00 -.163043472918D-04 0.241072932068D-04 0.000000000000D+00  6 2 3 25 2 3 21 2 0.33845152D+00 0.23860765D+00 0.58514410D+06 0.58514410D+06 0.58514410D+06 0.10637170D+01  1  2  3  4  6  5        3 0.531923314744D-04 0.100000000000D+01
-.237870260775D-02 0.000000000000D+00 0.000000000000D+00 0.241072932068D-04 0.000000000000D+00  6 2 3 25 2 3 21 2 0.33845152D+00 0.23860765D+00 0.58514410D+06 0.58514410D+06 0.58514410D+06 0.10637170D+01  1  2 15  4  6  5        3 -.635775813139D-04 0.100000000000D+01
-.396042019982D-02 0.000000000000D+00 0.000000000000D+00 0.241072932068D-04 0.000000000000D+00  6 2 3 25 2 3 21 2 0.33845152D+00 0.23860765D+00 0.58514410D+06 0.58514410D+06 0.58514410D+06 0.10637170D+01  1  2  4  4  6  5        3 -.105853475113D-03 0.100000000000D+01
-.527805703647D+00 0.000000000000D+00 0.000000000000D+00 0.241072932068D-04 0.000000000000D+00  6 2 3 25 2 3 21 2 0.33845152D+00 0.23860765D+00 0.58514410D+06 0.58514410D+06 0.58514410D+06 0.10637170D+01  1  2  5  4  6  5        3 -.141071060890D-01 0.100000000000D+01
0.531713477165D+00 0.000000000000D+00 -.000000000000D+00 0.241072932068D-04 0.000000000000D+00  6 2 3 25 2 3 21 2 0.33845152D+00 0.23860765D+00 0.58514410D+06 0.58514410D+06 0.58514410D+06 0.10637170D+01  1  2  6  4  6  5        3 0.142115524320D-01 0.100000000000D+01
0.385177384133D-02 0.000000000000D+00 0.000000000000D+00 0.241072932068D-04 0.484167465316D-06  6 2 3 25 2 3 21 2 0.33845152D+00 0.23860765D+00 0.58490878D+06 0.58490878D+06 0.58490878D+06 0.10637292D+01  1  2 11  4  6  5        3 0.102956079915D-03 0.100000000000D+01
  </mgrwgt>
  </event>
  <event>
  5     66 0.17247933E-05 0.41936094E+02 0.75467711E-02 0.87030548E-01
        2 -1    0    0  501    0 0.00000000E+00 0.00000000E+00 0.17189724E+04 0.17189725E+04 0.32000000E+00 0.0000E+00 0.9000E+01
        3 -1    0    0  502    0 0.00000000E+00 0.00000000E+00 -.87842086E+03 0.87842100E+03 0.50000000E+00 0.0000E+00 0.9000E+01
       25  1    1    2    0    0 -.57913914E+03 -.65075563E+02 0.70920991E+03 0.92641280E+03 0.12500000E+03 0.0000E+00 0.9000E+01
        2  1    1    2  501    0 0.62030343E+03 0.57090748E+02 0.79276897E+03 0.10082254E+04 0.32000000E+00 0.0000E+00 0.9000E+01
        3  1    1    2  502    0 -.41164292E+02 0.79848153E+01 -.66142730E+03 0.66275529E+03 0.50000000E+00 0.0000E+00 0.9000E+01
#aMCatNLO 1  0  0  5  2 0.69124527D+01 0.00000000D+00  -5  6  0 0.00000000D+00 0.00000000D+00 0.00000000D+00 0.00000000D+00 0.00000000D+00
  <mgrwgt>
 0.1981299151D-02    4    2    0
 0.122881303459444D+04 0.000000000000000D+00 0.000000000000000D+00 0.122881303459444D+04
 0.122881303459444D+04 -.000000000000000D+00 -.000000000000000D+00 -.122881303459444D+04
 0.736554354851891D+03 -.579059707791268D+03 -.650695752342078D+02 0.432831517848247D+03
 0.794326955982491D+03 0.620228434813603D+03 0.570838454607457D+02 0.492963929954811D+03
 0.926744758354489D+03 -.411687270223357D+02 0.798572977346222D+01 -.925795447803058D+03
 0.000000000000000D+00 0.000000000000000D+00 0.000000000000000D+00 0.000000000000000D+00
 0.122881303459444D+04 0.000000000000000D+00 0.000000000000000D+00 0.122881303459444D+04
 0.122881303459444D+04 -.000000000000000D+00 -.000000000000000D+00 -.122881303459444D+04
 0.669972866974432D+03 -.585214724658293D+03 -.638756519578214D+02 0.294418527970002D+03
 0.706537048086888D+03 0.613660596582813D+03 0.583578460213763D+02 0.345267482292648D+03
 0.585522216890918D+03 0.346687019075268D+03 -.226630529582250D+03 -.413863480315464D+03
 0.495593937236633D+03 -.375132890999789D+03 0.232148335518695D+03 -.225822529947186D+03
0.642713386275D-02 0.000000000000D+00 0.000000000000D+00 0.861588416314D-05 0.000000000000D+00  6 2 3 25 2 3 21 0 0.26445731D+00 0.13514168D+00 0.39737052D+06 0.39737052D+06 0.39737052D+06 0.10756342D+01  1  2  2  4  6  5        3 0.211486951585D-02 0.100000000000D+01
0.382032972965D-02 0.000000000000D+00 -.246818863362D-04 0.861588416314D-05 0.000000000000D+00  6 2 3 25 2 3 21 2 0.26445731D+00 0.13514168D+00 0.39737052D+06 0.39737052D+06 0.39737052D+06 0.10756342D+01  1  2  3  4  6  5        3 0.145444151214D-02 0.100000000000D+01
-.381021049201D-02 0.000000000000D+00 0.000000000000D+00 0.861588416314D-05 0.000000000000D+00  6 2 3 25 2 3 21 2 0.26445731D+00 0.13514168D+00 0.39737052D+06 0.39737052D+06 0.39737052D+06 0.10756342D+01  1  2 15  4  6  5        3 -.145058900716D-02 0.100000000000D+01
-.360963758454D-03 0.000000000000D+00 0.000000000000D+00 0.861588416314D-05 0.000000000000D+00  6 2 3 25 2 3 21 2 0.26445731D+00 0.13514168D+00 0.39737052D+06 0.39737052D+06 0.39737052D+06 0.10756342D+01  1  2  4  4  6  5        3 -.137422869706D-03 0.100000000000D+01
  </mgrwgt>
  </event>
  <event>
  5     66 0.17247933E-05 0.47601740E+02 0.75467711E-02 0.89442962E-01
        2 -1    0    0  501    0 0.00000000E+00 0.00000000E+00 0.23233685E+04 0.23233685E+04 0.32000000E+00 0.0000E+00 0.9000E+01
        3 -1    0    0  502    0 0.00000000E+00 0.00000000E+00 -.10479383E+04 0.10479384E+04 0.50000000E+00 0.0000E+00 0.9000E+01
       25  1    1    2    0    0 0.89073234E+02 0.64080161E+03 0.18399347E+03 0.68413401E+03 0.12500000E+03 0.0000E+00 0.9000E+01
        2  1    1    2  501    0 -.45142110E+02 -.65912409E+03 0.18307589E+04 0.19463198E+04 0.32000000E+00 0.0000E+00 0.9000E+01
        3  1    1    2  502    0 -.43931124E+02 0.18322480E+02 -.73932228E+03 0.74085311E+03 0.50000000E+00 0.0000E+00 0.9000E+01
#aMCatNLO 1  0  0  5  4 0.24265183D+03 0.00000000D+00  -5  6  0 0.00000000D+00 0.00000000D+00 0.00000000D+00 0.00000000D+00 0.00000000D+00
  <mgrwgt>
 0.4005638040D-03    6    2    0
 0.156036761244674D+04 0.000000000000000D+00 0.000000000000000D+00 0.156036761244674D+04
 0.156036761244674D+04 -.000000000000000D+00 -.000000000000000D+00 -.156036761244674D+04
 0.663847526366064D+03 0.890751078513202D+02 0.640788869890924D+03 -.807699674850149D+02
 0.135434759568264D+04 -.451412991305902D+02 -.659112244528953D+03 0.118228199772987D+04
 0.110254010284478D+04 -.439338087207318D+02 0.183233746380293D+02 -.110151203024486D+04
 0.000000000000000D+00 -.000000000000000D+00 0.000000000000000D+00 0.000000000000000D+00
 0.156036761244674D+04 0.000000000000000D+00 0.000000000000000D+00 0.156036761244674D+04
 0.156036761244674D+04 -.000000000000000D+00 -.000000000000000D+00 -.156036761244674D+04
 0.667997734947594D+03 0.879892435970627D+02 0.641241748849434D+03 -.107994844501268D+03
 0.130675181580246D+04 -.473109150851548D+02 -.658207367690051D+03 0.112788520982206D+04
 0.962550599207244D+03 0.130098331048734D+03 0.248427076322156D+02 -.953394420043488D+03
 0.183435074936189D+03 -.170776659560644D+03 -.787708879159764D+01 -.664959452773059D+02
0.347051840756D-02 0.000000000000D+00 0.000000000000D+00 0.517189827184D-04 0.000000000000D+00  6 2 3 25 2 3 21 0 0.35744131D+00 0.16122129D+00 0.46729090D+06 0.46729090D+06 0.46729090D+06 0.10705932D+01  1  2  2  4  6  5        3 0.310919793985D-03 0.100000000000D+01
0.198136895124D-02 0.000000000000D+00 -.133277044935D-04 0.517189827184D-04 0.000000000000D+00  6 2 3 25 2 3 21 2 0.35744131D+00 0.16122129D+00 0.46729090D+06 0.46729090D+06 0.46729090D+06 0.10705932D+01  1  2  3  4  6  5        3 0.203454992003D-03 0.100000000000D+01
-.217786544979D-02 0.000000000000D+00 0.000000000000D+00 0.517189827184D-04 0.000000000000D+00  6 2 3 25 2 3 21 2 0.35744131D+00 0.16122129D+00 0.46729090D+06 0.46729090D+06 0.46729090D+06 0.10705932D+01  1  2 15  4  6  5        3 -.223632048637D-03 0.100000000000D+01
-.291934719705D-03 0.000000000000D+00 0.000000000000D+00 0.517189827184D-04 0.000000000000D+00  6 2 3 25 2 3 21 2 0.35744131D+00 0.16122129D+00 0.46729090D+06 0.46729090D+06 0.46729090D+06 0.10705932D+01  1  2  4  4  6  5        3 -.299770398774D-04 0.100000000000D+01
-.756400350050D-02 0.000000000000D+00 0.000000000000D+00 0.517189827184D-04 0.000000000000D+00  6 2 3 25 2 3 21 2 0.35744131D+00 0.16122129D+00 0.46729090D+06 0.46729090D+06 0.46729090D+06 0.10705932D+01  1  2  5  4  6  5        3 -.776702527182D-03 0.100000000000D+01
0.892544282957D-02 0.000000000000D+00 -.000000000000D+00 0.517189827184D-04 0.000000000000D+00  6 2 3 25 2 3 21 2 0.35744131D+00 0.16122129D+00 0.46729090D+06 0.46729090D+06 0.46729090D+06 0.10705932D+01  1  2  6  4  6  5        3 0.916500633757D-03 0.100000000000D+01
  </mgrwgt>
  </event>
  <event>
  5     66 0.17247933E-05 0.23308546E+03 0.75467711E-02 0.89093196E-01
        2 -1    0    0  501    0 0.00000000E+00 0.00000000E+00 0.22755495E+04 0.22755495E+04 0.32000000E+00 0.0000E+00 0.9000E+01
        3 -1    0    0  502    0 0.00000000E+00 0.00000000E+00 -.43270261E+03 0.43270290E+03 0.50000000E+00 0.0000E+00 0.9000E+01
       25  1    1    2    0    0 0.89228264E+02 -.56652904E+03 0.13037569E+03 0.60128168E+03 0.12500000E+03 0.0000E+00 0.9000E+01
        2  1    1    2  501    0 -.88294830E+02 0.21572852E+03 0.17395753E+04 0.17551231E+04 0.32000000E+00 0.0000E+00 0.9000E+01
        3  1    1    2  502    0 -.93343401E+00 0.35080052E+03 -.27104109E+02 0.35184764E+03 0.50000000E+00 0.0000E+00 0.9000E+01
#aMCatNLO 1  0  0  2  2 0.11450732D+02 0.00000000D+00  -5  6  0 0.00000000D+00 0.00000000D+00 0.00000000D+00 0.00000000D+00 0.00000000D+00
  <mgrwgt>
 0.2328426717D-03    7    2    0
 0.992288583445077D+03 0.000000000000000D+00 0.000000000000000D+00 0.992288583445077D+03
 0.992288583445077D+03 0.000000000000000D+00 0.000000000000000D+00 -.992288583445077D+03
 0.699468070477243D+03 0.892277704850908D+02 -.566564227958655D+03 -.380360305748419D+03
 0.779743320396313D+03 -.882900064526124D+02 0.215716731786408D+03 0.744090594007649D+03
 0.505365776016598D+03 -.937764032478341D+00 0.350847496172247D+03 -.363730288259230D+03
 0.000000000000000D+00 0.000000000000000D+00 0.000000000000000D+00 -.000000000000000D+00
 0.109437388221397D+04 0.000000000000000D+00 0.000000000000000D+00 0.109437388221397D+04
 0.154790717563148D+04 0.000000000000000D+00 0.000000000000000D+00 -.154790717563148D+04
 0.721614919828699D+03 -.544004754039324D+02 -.597887714045183D+03 -.380360305748419D+03
 0.805039147047506D+03 -.248463288004332D+03 0.180784984726045D+03 0.744090594007649D+03
 0.500856072504885D+03 -.102636172967228D+03 0.328668372020365D+03 -.363730288259230D+03
 0.614770918464360D+03 0.405499936375493D+03 0.884343572987731D+02 -.453533293417514D+03
0.241039741765D-03 0.000000000000D+00 0.000000000000D+00 0.338437323740D-06 0.000000000000D+00  6 2 3 25 2 3 21 0 0.35008456D+00 0.66569657D-01 0.34277803D+06 0.34277803D+06 0.34277803D+06 0.10802946D+01  1  2  2  2  6  2        3 0.217012458373D-03 0.100000000000D+01
0.212941453715D-04 0.000000000000D+00 -.925656075599D-06 0.338437323740D-06 0.000000000000D+00  6 2 3 25 2 3 21 2 0.35008456D+00 0.66569657D-01 0.34277803D+06 0.34277803D+06 0.34277803D+06 0.10802946D+01  1  2  3  2  6  2        3 0.223738453992D-04 0.100000000000D+01
-.147223234463D-03 0.000000000000D+00 0.000000000000D+00 0.338437323740D-06 0.000000000000D+00  6 2 3 25 2 3 21 2 0.35008456D+00 0.66569657D-01 0.34277803D+06 0.34277803D+06 0.34277803D+06 0.10802946D+01  1  2 15  2  6  2        3 -.154688052964D-03 0.100000000000D+01
-.679212471055D-04 0.000000000000D+00 0.000000000000D+00 0.338437323740D-06 0.000000000000D+00  6 2 3 25 2 3 21 2 0.35008456D+00 0.66569657D-01 0.34277803D+06 0.34277803D+06 0.34277803D+06 0.10802946D+01  1  2  4  2  6  2        3 -.713651313798D-04 0.100000000000D+01
-.307573142169D-03 0.000000000000D+00 -.135054354548D-03 0.338437323740D-06 0.000000000000D+00  6 2 3 25 2 3 21 2 0.35008456D+00 0.11146881D+00 0.34277803D+06 0.34277803D+06 0.34277803D+06 0.10802946D+01  1  2  5  2  6  2        3 -.976883291941D-04 0.100000000000D+01
0.346303777209D-03 0.000000000000D+00 0.118902985599D-03 0.338437323740D-06 0.000000000000D+00  6 2 3 25 2 3 21 2 0.35008456D+00 0.66569657D-01 0.34277803D+06 0.34277803D+06 0.34277803D+06 0.10802946D+01  1  2  6  2  6  2        3 0.363862791263D-03 0.100000000000D+01
-.114684487952D-04 0.000000000000D+00 -.780256343169D-05 0.338437323740D-06 0.000000000000D+00  6 2 21 25 2 3 -3 2 0.35008456D+00 0.11146881D+00 0.34277803D+06 0.34277803D+06 0.34277803D+06 0.10802946D+01  1  2  5  6  6  2        3 -.466649097590D-04 0.100000000000D+01
  </mgrwgt>
  </event>
  <event>
  6     66 -.17247933E-05 0.82043871E+02 0.75467711E-02 0.94819216E-01
        2 -1    0    0  501    0 0.00000000E+00 0.00000000E+00 0.26745097E+04 0.26745097E+04 0.32000000E+00 0.0000E+00 0.9000E+01
        3 -1    0    0  502    0 0.00000000E+00 0.00000000E+00 -.15927937E+03 0.15928015E+03 0.50000000E+00 0.0000E+00 0.9000E+01
       25  1    1    2    0    0 0.43097973E+03 -.19132941E+03 0.21369452E+04 0.21919193E+04 0.12500000E+03 0.0000E+00 0.9000E+01
        2  1    1    2  501    0 -.88364725E+02 -.23061169E+02 0.15013550E+03 0.17572966E+03 0.32000000E+00 0.0000E+00 0.9000E+01
        3  1    1    2  503    0 -.29217497E+03 0.18215744E+03 0.17568299E+03 0.38653888E+03 0.50000000E+00 0.0000E+00 0.9000E+01
       21  1    1    2  502  503 -.50440035E+02 0.32233137E+02 0.52466681E+02 0.79602056E+02 0.75000000E+00 0.0000E+00 0.9000E+01
#aMCatNLO 2  0  0  5  2 0.14331623D+02 0.00000000D+00  -5  6  0 0.00000000D+00 0.00000000D+00 0.00000000D+00 0.00000000D+00 0.00000000D+00
  <mgrwgt>
 -.1330924850D-03    2    2    0
 0.652683191449098D+03 0.000000000000000D+00 0.000000000000000D+00 0.652683191449098D+03
 0.652683191449098D+03 -.000000000000000D+00 -.000000000000000D+00 -.652683191449098D+03
 0.641670402938008D+03 0.431337746420433D+03 -.191739410966010D+03 0.416292748918325D+03
 0.918757852272501D+02 -.880485710551441D+02 -.230405203778485D+02 -.125595966093256D+02
 0.571820194732937D+03 -.343289175365289D+03 0.214779931343859D+03 -.403733152309000D+03
 0.000000000000000D+00 0.000000000000000D+00 0.000000000000000D+00 0.000000000000000D+00
 0.652683191449098D+03 0.000000000000000D+00 0.000000000000000D+00 0.652683191449098D+03
 0.652683191449098D+03 -.000000000000000D+00 -.000000000000000D+00 -.652683191449098D+03
 0.640879827941444D+03 0.430850370021613D+03 -.191434482418916D+03 0.415719558663645D+03
 0.919430470777764D+02 -.881184232592662D+02 -.229968171309005D+02 -.126417479050544D+02
 0.500817644723243D+03 -.292270501999935D+03 0.182188476089552D+03 -.363598165709082D+03
 0.717258631557329D+02 -.504614447624120D+02 0.322428234602645D+02 -.394796450495083D+02
-.639444666433D-04 0.000000000000D+00 0.000000000000D+00 0.293867590489D-08 0.000000000000D+00  6 2 3 25 2 3 21 2 0.41146309D+00 0.24504580D-01 0.24162718D+06 0.24162718D+06 0.24162718D+06 0.10915738D+01  1  2 13  4  6  5        3 -.294770970607D-03 0.100000000000D+01
0.350728041834D-04 0.000000000000D+00 0.000000000000D+00 0.293867590489D-08 0.468686678824D-10  6 2 3 25 2 3 21 2 0.41146309D+00 0.24504580D-01 0.24162718D+06 0.24162718D+06 0.24162718D+06 0.10915738D+01  1  2  1  4  6  5        3 0.161678485626D-03 0.100000000000D+01
  </mgrwgt>
  </event>
  <event>
  6     66 0.17247933E-05 0.23018639E+02 0.75467711E-02 0.93133865E-01
        2 -1    0    0  501    0 0.00000000E+00 0.00000000E+00 0.19455721E+04 0.19455721E+04 0.32000000E+00 0.0000E+00 0.9000E+01
        3 -1    0    0  502    0 0.00000000E+00 0.00000000E+00 -.71933646E+03 0.71933664E+03 0.50000000E+00 0.0000E+00 0.9000E+01
       25  1    1    2    0    0 0.41322037E+03 0.35328672E+03 -.37922678E+03 0.67453727E+03 0.12500000E+03 0.0000E+00 0.9000E+01
        2  1    1    2  501    0 -.43412852E+03 -.30395821E+03 0.17202567E+04 0.18000392E+04 0.32000000E+00 0.0000E+00 0.9000E+01
        3  1    1    2  503    0 0.19115586E+02 -.27993505E+02 -.14743862E+03 0.15128595E+03 0.50000000E+00 0.0000E+00 0.9000E+01
       21  1    1    2  502  503 0.17925631E+01 -.21335003E+02 0.32644328E+02 0.39046258E+02 0.75000000E+00 0.0000E+00 0.9000E+01
#aMCatNLO 2  0  0  5  2 0.24577708D+02 0.00000000D+00  -5  6  0 0.00000000D+00 0.00000000D+00 0.00000000D+00 0.00000000D+00 0.00000000D+00
  <mgrwgt>
 0.1361306160D-02    2    2    0
 0.118301360786954D+04 0.000000000000000D+00 0.000000000000000D+00 0.118301360786954D+04
 0.118301360786954D+04 -.000000000000000D+00 -.000000000000000D+00 -.118301360786954D+04
 0.944651456239898D+03 0.411822239039614D+03 0.356618471883508D+03 -.761555699026689D+03
 0.115221980613843D+04 -.435879500596920D+03 -.299893275729816D+03 0.102356414835080D+04
 0.269155953360753D+03 0.240572615573059D+02 -.567251961536923D+02 -.262008449324109D+03
 0.000000000000000D+00 0.000000000000000D+00 0.000000000000000D+00 0.000000000000000D+00
 0.118301360786954D+04 0.000000000000000D+00 0.000000000000000D+00 0.118301360786954D+04
 0.118301360786954D+04 -.000000000000000D+00 -.000000000000000D+00 -.118301360786954D+04
 0.956715879216612D+03 0.413263974881618D+03 0.353218968234903D+03 -.777257692846672D+03
 0.113589010789544D+04 -.434144512300871D+03 -.303984246399247D+03 0.100466833213495D+04
 0.246303233551179D+03 0.190786228046667D+02 -.278429617384016D+02 -.243979627205383D+03
 0.271179950758510D+02 0.180191461458543D+01 -.213917600972550D+02 0.165689879171032D+02
-.167266636737D-02 0.000000000000D+00 0.000000000000D+00 0.385454082808D-05 0.000000000000D+00  6 2 3 25 2 3 21 2 0.29931879D+00 0.11066716D+00 0.33040875D+06 0.33040875D+06 0.33040875D+06 0.10814632D+01  1  2  8  4  6  5        3 -.828395994904D-03 0.100000000000D+01
0.441518961809D-02 0.000000000000D+00 0.000000000000D+00 0.385454082808D-05 0.506499241656D-07  6 2 3 25 2 3 21 2 0.29931879D+00 0.11066716D+00 0.32663498D+06 0.32663498D+06 0.32663498D+06 0.10818293D+01  1  2  1  4  6  5        3 0.218970215481D-02 0.100000000000D+01
  </mgrwgt>
  </event>
  <event>
  5     66 0.17247933E-05 0.10265069E+03 0.75467711E-02 0.77451105E-01
        2 -1    0    0  501    0 0.00000000E+00 0.00000000E+00 0.31556811E+04 0.31556812E+04 0.32000000E+00 0.0000E+00 0.9000E+01
        3 -1    0    0  502    0 0.00000000E+00 0.00000000E+00 -.15659705E+04 0.15659706E+04 0.50000000E+00 0.0000E+00 0.9000E+01
       25  1    1    2    0    0 -.46587100E+03 0.21342060E+02 0.51141180E+03 0.70331948E+03 0.12500000E+03 0.0000E+00 0.9000E+01
        2  1    1    2  501    0 0.68664897E+02 0.76308075E+02 0.25187963E+04 0.25208873E+04 0.32000000E+00 0.0000E+00 0.9000E+01
        3  1    1    2  502    0 0.39720610E+03 -.97650135E+02 -.14404975E+04 0.14974450E+04 0.50000000E+00 0.0000E+00 0.9000E+01
#aMCatNLO 1  0  0  2  4 0.98094688D+03 0.00000000D+00  -5  6  0 0.00000000D+00 0.00000000D+00 0.00000000D+00 0.00000000D+00 0.00000000D+00
  <mgrwgt>
 0.8726486041D-02    5    2    0
 0.222299435714377D+04 0.000000000000000D+00 0.000000000000000D+00 0.222299435714377D+04
 0.222299435714377D+04 0.000000000000000D+00 0.000000000000000D+00 -.222299435714377D+04
 0.564112917137799D+03 -.465892935790339D+03 0.213498453485709D+02 0.291695628637058D+03
 0.177651371639390D+04 0.686628566994912D+02 0.763058081308344D+02 0.177354555066709D+04
 0.210536208075585D+04 0.397230079090848D+03 -.976556534794053D+02 -.206524117930414D+04
 0.000000000000000D+00 -.000000000000000D+00 0.000000000000000D+00 -.000000000000000D+00
 0.359225870780714D+04 0.000000000000000D+00 0.000000000000000D+00 0.359225870780714D+04
 0.528242935995874D+04 0.000000000000000D+00 0.000000000000000D+00 -.528242935995874D+04
 0.640208220260518D+03 -.431870921589470D+03 -.350203844365869D+03 0.291695628637058D+03
 0.210595234926859D+04 0.178342336298856D+03 -.112150144368268D+04 0.177354555066709D+04
 0.264390082664613D+04 0.531396527774420D+03 -.156288457114267D+04 -.206524117930414D+04
 0.348462667159065D+04 -.277867942483806D+03 0.303458985919122D+04 -.169017065215159D+04
0.204228332333D+01 0.000000000000D+00 0.000000000000D+00 0.677166834270D-03 0.000000000000D+00  6 2 3 25 2 3 21 0 0.48548941D+00 0.24091855D+00 0.24728305D+06 0.24728305D+06 0.24728305D+06 0.10908163D+01  1  2  2  2  6  2        3 0.135078431816D-01 0.100000000000D+01
0.529266645051D+00 0.000000000000D+00 -.784290570714D-02 0.677166834270D-03 0.000000000000D+00  6 2 3 25 2 3 21 2 0.48548941D+00 0.24091855D+00 0.24728305D+06 0.24728305D+06 0.24728305D+06 0.10908163D+01  1  2  3  2  6  2        3 0.416531435547D-02 0.100000000000D+01
-.115770882816D+01 0.000000000000D+00 0.000000000000D+00 0.677166834270D-03 0.000000000000D+00  6 2 3 25 2 3 21 2 0.48548941D+00 0.24091855D+00 0.24728305D+06 0.24728305D+06 0.24728305D+06 0.10908163D+01  1  2 15  2  6  2        3 -.911113754562D-02 0.100000000000D+01
0.229871715215D+01 0.000000000000D+00 -.817363369031D+00 0.677166834270D-03 0.000000000000D+00  6 2 3 25 2 3 21 2 0.48548941D+00 0.69926545D+00 0.24728305D+06 0.24728305D+06 0.24728305D+06 0.10908163D+01  1  2  5  2  6  2        3 0.153207142099D-03 0.100000000000D+01
0.320246248161D+00 0.000000000000D+00 -.984771283854D-01 0.677166834270D-03 0.000000000000D+00  6 2 21 25 2 3 -3 2 0.48548941D+00 0.69926545D+00 0.24728305D+06 0.24728305D+06 0.24728305D+06 0.10908163D+01  1  2  5  6  6  2        3 0.112589069297D-04 0.100000000000D+01
  </mgrwgt>
  </event>
  <event>
  5     66 0.17247933E-05 0.55392177E+02 0.75467711E-02 0.93922858E-01
        2 -1    0    0  501    0 0.00000000E+00 0.00000000E+00 0.15170203E+04 0.15170204E+04 0.32000000E+00 0.0000E+00 0.9000E+01
        3 -1    0    0  502    0 0.00000000E+00 0.00000000E+00 -.36850555E+03 0.36850589E+03 0.50000000E+00 0.0000E+00 0.9000E+01
       25  1    1    2    0    0 0.30772210E+03 0.42307556E+03 0.47867519E+03 0.72002830E+03 0.12500000E+03 0.0000E+00 0.9000E+01
        2  1    1    2  501    0 -.45241257E+02 -.32003818E+02 0.69177897E+03 0.69399514E+03 0.32000000E+00 0.0000E+00 0.9000E+01
        3  1    1    2  502    0 -.26248084E+03 -.39107175E+03 -.21939384E+02 0.47150280E+03 0.50000000E+00 0.0000E+00 0.9000E+01
#aMCatNLO 1  0  0  2  1 0.23659692D+03 0.00000000D+00  -5  6  0 0.00000000D+00 0.00000000D+00 0.00000000D+00 0.00000000D+00 0.00000000D+00
  <mgrwgt>
 0.1318885047D-02    3    2    0
 0.747683597109344D+03 0.000000000000000D+00 0.000000000000000D+00 0.747683597109344D+03
 0.747683597109344D+03 0.000000000000000D+00 0.000000000000000D+00 -.747683597109344D+03
 0.540333418188684D+03 0.307760753697721D+03 0.423142738624224D+03 0.506827785788144D+02
 0.343594258099828D+03 -.452211997403697D+02 -.319896296633487D+02 0.339099868603948D+03
 0.611439517930175D+03 -.262539553957352D+03 -.391153108960875D+03 -.389782647182762D+03
 0.000000000000000D+00 0.000000000000000D+00 0.000000000000000D+00 0.000000000000000D+00
 0.199053041455332D+04 0.000000000000000D+00 0.000000000000000D+00 0.199053041455332D+04
 0.193125363006482D+04 0.000000000000000D+00 0.000000000000000D+00 -.193125363006482D+04
 0.280582434984130D+03 -.141500206670250D+02 0.245626822013145D+03 0.506827785788144D+02
 0.577628777794097D+03 -.406466045605014D+03 -.231196102516694D+03 0.339099868603948D+03
 0.138732286056754D+04 -.104632651890207D+04 -.823368097056701D+03 -.389782647182762D+03
 0.167624997127237D+04 0.146694258517411D+04 0.808937377560251D+03 0.592767844885055D+02
0.675266047881D-03 0.000000000000D+00 0.000000000000D+00 0.206314600762D-05 0.000000000000D+00  6 2 3 25 2 3 21 0 0.23338777D+00 0.56693190D-01 0.28325571D+06 0.28325571D+06 0.28325571D+06 0.10864021D+01  1  2  2  2  6  2        3 0.225165708063D-02 0.100000000000D+01
0.205039938051D-03 0.000000000000D+00 -.259319942550D-05 0.206314600762D-05 0.000000000000D+00  6 2 3 25 2 3 21 2 0.23338777D+00 0.56693190D-01 0.28325571D+06 0.28325571D+06 0.28325571D+06 0.10864021D+01  1  2  3  2  6  2        3 0.806950624814D-03 0.100000000000D+01
-.442050126881D-03 0.000000000000D+00 0.000000000000D+00 0.206314600762D-05 0.000000000000D+00  6 2 3 25 2 3 21 2 0.23338777D+00 0.56693190D-01 0.28325571D+06 0.28325571D+06 0.28325571D+06 0.10864021D+01  1  2 15  2  6  2        3 -.173972265831D-02 0.100000000000D+01
  </mgrwgt>
  </event>
  <event>
  6     66 0.17247933E-05 0.57797610E+02 0.75467711E-02 0.93814131E-01
        2 -1    0    0  501    0 0.00000000E+00 0.00000000E+00 0.96244390E+03 0.96244395E+03 0.32000000E+00 0.0000E+00 0.9000E+01
        3 -1    0    0  503    0 0.00000000E+00 0.00000000E+00 -.77578481E+03 0.77578497E+03 0.50000000E+00 0.0000E+00 0.9000E+01
       25  1    1    2    0    0 -.42271939E+02 -.47539565E+03 0.36916505E+03 0.61619459E+03 0.12500000E+03 0.0000E+00 0.9000E+01
        2  1    1    2  501    0 0.66950604E+02 0.67751978E+02 0.37228721E+03 0.38427931E+03 0.32000000E+00 0.0000E+00 0.9000E+01
        3  1    1    2  502    0 -.99015563E+02 0.39926558E+03 -.46322036E+03 0.61950822E+03 0.50000000E+00 0.0000E+00 0.9000E+01
       21  1    1    2  503  502 0.74336898E+02 0.83780911E+01 -.91572809E+02 0.11824681E+03 0.75000000E+00 0.0000E+00 0.9000E+01
#aMCatNLO 2  0  0  2  4 0.74807532D+02 0.00000000D+00  -5  6  0 0.00000000D+00 0.00000000D+00 0.00000000D+00 0.00000000D+00 0.00000000D+00
  <mgrwgt>
 0.2186728831D-03    1    2    0
 0.797077929236373D+03 0.000000000000000D+00 0.000000000000000D+00 0.797077929236373D+03
 0.797077929236373D+03 0.000000000000000D+00 0.000000000000000D+00 -.797077929236373D+03
 0.557394641382316D+03 -.161630628464430D+02 -.472504119184842D+03 0.267474109017116D+03
 0.328835828490454D+03 0.821520054130503D+02 0.694340014115814D+02 0.310745827894107D+03
 0.707925388599976D+03 -.659889425666073D+02 0.403070117773260D+03 -.578219936911222D+03
 0.000000000000000D+00 0.000000000000000D+00 0.000000000000000D+00 -.000000000000000D+00
 0.809167021502221D+03 0.000000000000000D+00 0.000000000000000D+00 0.809167021502221D+03
 0.922736149628636D+03 0.000000000000000D+00 0.000000000000000D+00 -.922736149628636D+03
 0.561244956827000D+03 -.422302972995298D+02 -.475442009670196D+03 0.267474109017116D+03
 0.325001956166197D+03 0.669158714032988D+02 0.677168229659205D+02 0.310745827894107D+03
 0.709663193460159D+03 -.990224718514037D+02 0.399347095618450D+03 -.578219936911222D+03
 0.135993064677500D+03 0.743368977476348D+02 0.837809108582514D+01 -.113569128126415D+03
0.146654092664D-03 0.000000000000D+00 0.000000000000D+00 0.117166762256D-05 0.809294186076D-09  6 2 3 25 2 3 21 2 0.14806812D+00 0.11935138D+00 0.28883090D+06 0.28883090D+06 0.28883090D+06 0.10857731D+01  1  2  1  2  6  2        3 0.218672883058D-03 0.100000000000D+01
  </mgrwgt>
  </event>
  <event>
  5     66 -.17247933E-05 0.28411884E+02 0.75467711E-02 0.92658647E-01
        2 -1    0    0  501    0 0.00000000E+00 0.00000000E+00 0.10523229E+04 0.10523229E+04 0.32000000E+00 0.0000E+00 0.9000E+01
        3 -1    0    0  502    0 0.00000000E+00 0.00000000E+00 -.49112834E+03 0.49112859E+03 0.50000000E+00 0.0000E+00 0.9000E+01
       25  1    1    2    0    0 0.32585358E+03 0.46168099E+03 0.19058436E+03 0.60932527E+03 0.12500000E+03 0.0000E+00 0.9000E+01
        2  1    1    2  501    0 0.27090656E+02 0.86425898E+01 0.34434191E+03 0.34551418E+03 0.32000000E+00 0.0000E+00 0.9000E+01
        3  1    1    2  502    0 -.35294423E+03 -.47032358E+03 0.26268299E+02 0.58861208E+03 0.50000000E+00 0.0000E+00 0.9000E+01
#aMCatNLO 1  0  0  5  2 0.12966474D+02 0.00000000D+00  -5  6  0 0.00000000D+00 0.00000000D+00 0.00000000D+00 0.00000000D+00 0.00000000D+00
  <mgrwgt>
 -.3046923877D-02    7    2    0
 0.718905992993434D+03 0.000000000000000D+00 0.000000000000000D+00 0.718905992993434D+03
 0.718905992993434D+03 -.000000000000000D+00 -.000000000000000D+00 -.718905992993434D+03
 0.579830829388038D+03 0.325938776340310D+03 0.461783913855616D+03 -.331409367820236D+02
 0.236299739090860D+03 0.270678164740249D+02 0.863530338950191D+01 0.234585446140864D+03
 0.621681417507970D+03 -.353006592814335D+03 -.470419217245118D+03 -.201444509358840D+03
 0.000000000000000D+00 0.000000000000000D+00 0.000000000000000D+00 -.000000000000000D+00
 0.718905992993434D+03 0.000000000000000D+00 0.000000000000000D+00 0.718905992993434D+03
 0.718905992993434D+03 -.000000000000000D+00 -.000000000000000D+00 -.718905992993434D+03
 0.579280373945846D+03 0.325592718179927D+03 0.461322754171230D+03 -.333384161428825D+02
 0.236196902756335D+03 0.269267503552656D+02 0.844731762799679D+01 0.234504946241828D+03
 0.559887443053336D+03 -.320580663070526D+03 -.426736735920740D+03 -.169108679758838D+03
 0.624472662313512D+02 -.319388054646674D+02 -.430333358784864D+02 -.320578503401080D+02
0.162048383561D-04 0.000000000000D+00 0.000000000000D+00 0.728186708407D-06 0.000000000000D+00  6 2 3 25 2 3 21 0 0.16189585D+00 0.75558229D-01 0.35726572D+06 0.35726572D+06 0.35726572D+06 0.10789829D+01  1  2  2  4  6  5        3 0.533073916055D-04 0.100000000000D+01
0.757576239647D-05 0.000000000000D+00 -.622308461195D-07 0.728186708407D-06 0.000000000000D+00  6 2 3 25 2 3 21 2 0.16189585D+00 0.75558229D-01 0.35726572D+06 0.35726572D+06 0.35726572D+06 0.10789829D+01  1  2  3  4  6  5        3 0.290133714538D-04 0.100000000000D+01
-.104877795545D-04 0.000000000000D+00 0.000000000000D+00 0.728186708407D-06 0.000000000000D+00  6 2 3 25 2 3 21 2 0.16189585D+00 0.75558229D-01 0.35726572D+06 0.35726572D+06 0.35726572D+06 0.10789829D+01  1  2 15  4  6  5        3 -.401657058414D-04 0.100000000000D+01
0.174063163036D-02 0.000000000000D+00 0.000000000000D+00 0.728186708407D-06 0.000000000000D+00  6 2 3 25 2 3 21 2 0.16189585D+00 0.75558229D-01 0.35633110D+06 0.35633110D+06 0.35633110D+06 0.10790658D+01  1  2 12  4  6  5        3 0.666779665528D-02 0.100000000000D+01
-.273216786241D-02 0.000000000000D+00 0.000000000000D+00 0.728186708407D-06 0.000000000000D+00  6 2 3 25 2 3 21 2 0.16189585D+00 0.75558229D-01 0.35726572D+06 0.35726572D+06 0.35726572D+06 0.10789829D+01  1  2  4  4  6  5        3 -.104635542824D-01 0.100000000000D+01
-.174959812208D-02 0.000000000000D+00 0.000000000000D+00 0.728186708407D-06 0.000000000000D+00  6 2 3 25 2 3 21 2 0.16189585D+00 0.75558229D-01 0.35726572D+06 0.35726572D+06 0.35726572D+06 0.10789829D+01  1  2  5  4  6  5        3 -.670054544404D-02 0.100000000000D+01
0.193412096805D-02 0.000000000000D+00 -.000000000000D+00 0.728186708407D-06 0.000000000000D+00  6 2 3 25 2 3 21 2 0.16189585D+00 0.75558229D-01 0.35726572D+06 0.35726572D+06 0.35726572D+06 0.10789829D+01  1  2  6  4  6  5        3 0.740722413744D-02 0.100000000000D+01
  </mgrwgt>
  </event>
  <event>
  5     66 0.17247933E-05 0.37293755E+02 0.75467711E-02 0.94177487E-01
        4 -1    0    0  501    0 0.00000000E+00 0.00000000E+00 0.48732516E+03 0.48732763E+03 0.15500000E+01 0.0000E+00 0.9000E+01
        1 -1    0    0  502    0 0.00000000E+00 0.00000000E+00 -.78477696E+03 0.78477702E+03 0.32000000E+00 0.0000E+00 0.9000E+01
       25  1    1    2    0    0 -.35867149E+03 -.36386635E+03 -.33917220E+03 0.62586479E+03 0.12500000E+03 0.0000E+00 0.9000E+01
        4  1    1    2  501    0 0.33204599E+03 0.33782280E+03 0.17718906E+03 0.50574415E+03 0.15500000E+01 0.0000E+00 0.9000E+01
        1  1    1    2  502    0 0.26625500E+02 0.26043558E+02 -.13546866E+03 0.14049571E+03 0.32000000E+00 0.0000E+00 0.9000E+01
#aMCatNLO 1  0  0  1  2 0.34940101D+01 0.00000000D+00  -5  6  0 0.00000000D+00 0.00000000D+00 0.00000000D+00 0.00000000D+00 0.00000000D+00
  <mgrwgt>
 0.1809945791D-03    6    2    0
 0.618419895751171D+03 0.000000000000000D+00 0.000000000000000D+00 0.618419895751171D+03
 0.618419895751171D+03 0.000000000000000D+00 0.000000000000000D+00 -.618419895751171D+03
 0.562019974663282D+03 -.358650730938409D+03 -.363844113312274D+03 -.198062026461071D+03
 0.562680481673440D+03 0.331990441505828D+03 0.337766284820913D+03 0.303818380028757D+03
 0.112139335165619D+03 0.266602894325813D+02 0.260778284913609D+02 -.105756353567685D+03
 0.000000000000000D+00 -.000000000000000D+00 0.000000000000000D+00 -.000000000000000D+00
 0.619155402598635D+03 0.000000000000000D+00 0.000000000000000D+00 0.619155402598635D+03
 0.622585887625751D+03 0.000000000000000D+00 0.000000000000000D+00 -.622585887625751D+03
 0.561459838749309D+03 -.357175842566120D+03 -.364429693754113D+03 -.198062026461071D+03
 0.563202291324488D+03 0.333468484449396D+03 0.337179451907852D+03 0.303818380028757D+03
 0.112182596620076D+03 0.269547760845802D+02 0.259609073554750D+02 -.105756353567685D+03
 0.489656353051269D+01 -.324741796785614D+01 0.128933449078615D+01 -.343048502711515D+01
0.838069136512D-04 0.000000000000D+00 0.000000000000D+00 0.324670628252D-06 0.000000000000D+00  6 4 1 25 4 1 21 0 0.74973297D-01 0.12073511D+00 0.26877208D+06 0.26877208D+06 0.26877208D+06 0.10881014D+01  1  2  2  1  6  1        4 0.155954599435D-03 0.100000000000D+01
0.214753348753D-04 0.000000000000D+00 -.321840615288D-06 0.324670628252D-06 0.000000000000D+00  6 4 1 25 4 1 21 2 0.74973297D-01 0.12073511D+00 0.26877208D+06 0.26877208D+06 0.26877208D+06 0.10881014D+01  1  2  3  1  6  1        4 0.473148044419D-04 0.100000000000D+01
-.534536853216D-04 0.000000000000D+00 0.000000000000D+00 0.324670628252D-06 0.000000000000D+00  6 4 1 25 4 1 21 2 0.74973297D-01 0.12073511D+00 0.26877208D+06 0.26877208D+06 0.26877208D+06 0.10881014D+01  1  2 15  1  6  1        4 -.117770022325D-03 0.100000000000D+01
-.133863718078D-04 0.000000000000D+00 0.000000000000D+00 0.324670628252D-06 0.000000000000D+00  6 4 1 25 4 1 21 2 0.74973297D-01 0.12073511D+00 0.26877208D+06 0.26877208D+06 0.26877208D+06 0.10881014D+01  1  2  4  1  6  1        4 -.294930704434D-04 0.100000000000D+01
0.112383190942D-04 0.000000000000D+00 0.000000000000D+00 0.324670628252D-06 0.216383663163D-07  6 4 1 25 4 1 21 2 0.75062465D-01 0.12154844D+00 0.27066516D+06 0.27066516D+06 0.27066516D+06 0.10878737D+01  1  2 11  1  6  1        4 0.244110150379D-04 0.100000000000D+01
0.217702441301D-05 0.000000000000D+00 0.000000000000D+00 0.324670628252D-06 0.369685013562D-10  6 21 1 25 4 1 -4 2 0.75062465D-01 0.12154844D+00 0.27066516D+06 0.27066516D+06 0.27066516D+06 0.10878737D+01  1  2 11  5  6  1        4 0.100577252954D-03 0.100000000000D+01
  </mgrwgt>
  </event>
  <event>
  5     66 0.17247933E-05 0.28491646E+02 0.75467711E-02 0.95011632E-01
        2 -1    0    0  501    0 0.00000000E+00 0.00000000E+00 0.23065643E+04 0.23065643E+04 0.32000000E+00 0.0000E+00 0.9000E+01
        3 -1    0    0  502    0 0.00000000E+00 0.00000000E+00 -.63474471E+03 0.63474491E+03 0.50000000E+00 0.0000E+00 0.9000E+01
       25  1    1    2    0    0 0.46176359E+03 -.63724971E+02 0.16561623E+04 0.17250464E+04 0.12500000E+03 0.0000E+00 0.9000E+01
        2  1    1    2  501    0 -.18545490E+02 -.21661822E+02 0.53067693E+03 0.53144264E+03 0.32000000E+00 0.0000E+00 0.9000E+01
        3  1    1    2  502    0 -.44321810E+03 0.85386793E+02 -.51501965E+03 0.68482018E+03 0.50000000E+00 0.0000E+00 0.9000E+01
#aMCatNLO 1  0  0  5  2 0.22278617D+02 0.00000000D+00  -5  6  0 0.00000000D+00 0.00000000D+00 0.00000000D+00 0.00000000D+00 0.00000000D+00
  <mgrwgt>
 0.2949488470D-02    7    2    0
 0.120999165462139D+04 0.000000000000000D+00 0.000000000000000D+00 0.120999165462139D+04
 0.120999165462139D+04 -.000000000000000D+00 -.000000000000000D+00 -.120999165462139D+04
 0.952746318937856D+03 0.461806112199532D+03 -.637536368520912D+02 0.821444542725143D+03
 0.279076391908986D+03 -.185295657465311D+02 -.216432223310027D+02 0.277618188599583D+03
 0.118816059839594D+04 -.443276546453001D+03 0.853968591830939D+02 -.109906273132473D+04
 0.000000000000000D+00 -.000000000000000D+00 0.000000000000000D+00 0.000000000000000D+00
 0.120999165462139D+04 0.000000000000000D+00 0.000000000000000D+00 0.120999165462139D+04
 0.120999165462139D+04 -.000000000000000D+00 -.000000000000000D+00 -.120999165462139D+04
 0.951879965228807D+03 0.461477358882558D+03 -.636903027981236D+02 0.820629429628415D+03
 0.278843846983514D+03 -.186258671210674D+02 -.216246699510354D+02 0.277379418349781D+03
 0.106448574321627D+04 -.387512038992589D+03 0.964943163616129D+02 -.986738650330676D+03
 0.124773753814193D+03 -.553394527689018D+02 -.111793436124540D+02 -.111270197647519D+03
0.143167989514D-03 0.000000000000D+00 0.000000000000D+00 0.393120130668D-04 0.000000000000D+00  6 2 3 25 2 3 21 0 0.35485606D+00 0.97653049D-01 0.23163649D+06 0.23163649D+06 0.23163649D+06 0.10929605D+01  1  2  2  4  6  5        3 0.532353777263D-04 0.100000000000D+01
0.413795089890D-04 0.000000000000D+00 -.549802776731D-06 0.393120130668D-04 0.000000000000D+00  6 2 3 25 2 3 21 2 0.35485606D+00 0.97653049D-01 0.23163649D+06 0.23163649D+06 0.23163649D+06 0.10929605D+01  1  2  3  4  6  5        3 0.183801336578D-04 0.100000000000D+01
-.926224135850D-04 0.000000000000D+00 0.000000000000D+00 0.393120130668D-04 0.000000000000D+00  6 2 3 25 2 3 21 2 0.35485606D+00 0.97653049D-01 0.23163649D+06 0.23163649D+06 0.23163649D+06 0.10929605D+01  1  2 15  4  6  5        3 -.411414340815D-04 0.100000000000D+01
0.179592143420D-01 0.000000000000D+00 0.000000000000D+00 0.393120130668D-04 0.000000000000D+00  6 2 3 25 2 3 21 2 0.35485606D+00 0.97653049D-01 0.23361448D+06 0.23361448D+06 0.23361448D+06 0.10926808D+01  1  2 12  4  6  5        3 0.796856627633D-02 0.100000000000D+01
-.135941921869D-01 0.000000000000D+00 0.000000000000D+00 0.393120130668D-04 0.000000000000D+00  6 2 3 25 2 3 21 2 0.35485606D+00 0.97653049D-01 0.23163649D+06 0.23163649D+06 0.23163649D+06 0.10929605D+01  1  2  4  4  6  5        3 -.603832852221D-02 0.100000000000D+01
-.201462592766D-01 0.000000000000D+00 0.000000000000D+00 0.393120130668D-04 0.000000000000D+00  6 2 3 25 2 3 21 2 0.35485606D+00 0.97653049D-01 0.23163649D+06 0.23163649D+06 0.23163649D+06 0.10929605D+01  1  2  5  4  6  5        3 -.894865471473D-02 0.100000000000D+01
0.223723090195D-01 0.000000000000D+00 -.000000000000D+00 0.393120130668D-04 0.000000000000D+00  6 2 3 25 2 3 21 2 0.35485606D+00 0.97653049D-01 0.23163649D+06 0.23163649D+06 0.23163649D+06 0.10929605D+01  1  2  6  4  6  5        3 0.993743135329D-02 0.100000000000D+01
  </mgrwgt>
  </event>
  <event>
  5     66 0.17247933E-05 0.26022725E+02 0.75467711E-02 0.94496182E-01
        2 -1    0    0  501    0 0.00000000E+00 0.00000000E+00 0.23025062E+04 0.23025062E+04 0.32000000E+00 0.0000E+00 0.9000E+01
        3 -1    0    0  502    0 0.00000000E+00 0.00000000E+00 -.37555348E+03 0.37555381E+03 0.50000000E+00 0.0000E+00 0.9000E+01
       25  1    1    2    0    0 -.42676546E+03 0.25234259E+03 0.84720911E+03 0.98954223E+03 0.12500000E+03 0.0000E+00 0.9000E+01
        2  1    1    2  501    0 0.40077613E+03 -.25358848E+03 0.13428435E+04 0.14241339E+04 0.32000000E+00 0.0000E+00 0.9000E+01
        3  1    1    2  502    0 0.25989335E+02 0.12458914E+01 -.26309993E+03 0.26438385E+03 0.50000000E+00 0.0000E+00 0.9000E+01
#aMCatNLO 1  0  0  1  1 0.19394670D+03 0.00000000D+00  -5  6  0 0.00000000D+00 0.00000000D+00 0.00000000D+00 0.00000000D+00 0.00000000D+00
  <mgrwgt>
 0.1528761887D-02    7    2    0
 0.929900359250472D+03 0.000000000000000D+00 0.000000000000000D+00 0.929900359250472D+03
 0.929900359250472D+03 0.000000000000000D+00 0.000000000000000D+00 -.929900359250472D+03
 0.547112883003222D+03 -.426727652442370D+03 0.252316363669332D+03 0.194801103728412D+03
 0.659314447661444D+03 0.400734771716541D+03 -.253562312564712D+03 0.458053858491817D+03
 0.653373387836277D+03 0.259928807258284D+02 0.124594889538031D+01 -.652854962220229D+03
 0.000000000000000D+00 -.000000000000000D+00 0.000000000000000D+00 0.000000000000000D+00
 0.153159677790430D+04 0.000000000000000D+00 0.000000000000000D+00 0.153159677790430D+04
 0.952794378055025D+03 0.000000000000000D+00 0.000000000000000D+00 -.952794378055025D+03
 0.500673521770790D+03 -.393267201831130D+03 0.206015565801401D+03 0.194801103728412D+03
 0.711392733593047D+03 0.444507509873732D+03 -.314132707299957D+03 0.458053858491817D+03
 0.658823899750379D+03 0.678971393929044D+02 -.567389429667170D+02 -.652854962220229D+03
 0.613501000845107D+03 -.119137447435506D+03 0.164856084465273D+03 0.578802399849274D+03
0.341259446568D-03 0.000000000000D+00 0.000000000000D+00 0.148003555216D-04 0.000000000000D+00  6 2 3 25 2 3 21 0 0.35423175D+00 0.57777485D-01 0.25578229D+06 0.25578229D+06 0.25578229D+06 0.10897128D+01  1  2  2  1  6  1        2 0.407384775436D-03 0.100000000000D+01
0.234168115568D-03 0.000000000000D+00 -.131052613050D-05 0.148003555216D-04 0.000000000000D+00  6 2 3 25 2 3 21 2 0.35423175D+00 0.57777485D-01 0.25578229D+06 0.25578229D+06 0.25578229D+06 0.10897128D+01  1  2  3  1  6  1        2 0.331949485928D-03 0.100000000000D+01
-.205554804137D-03 0.000000000000D+00 0.000000000000D+00 0.148003555216D-04 0.000000000000D+00  6 2 3 25 2 3 21 2 0.35423175D+00 0.57777485D-01 0.25578229D+06 0.25578229D+06 0.25578229D+06 0.10897128D+01  1  2 15  1  6  1        2 -.291388139661D-03 0.100000000000D+01
-.711410111656D-03 0.000000000000D+00 0.000000000000D+00 0.148003555216D-04 0.000000000000D+00  6 2 3 25 2 3 21 2 0.35423175D+00 0.57777485D-01 0.25578229D+06 0.25578229D+06 0.25578229D+06 0.10897128D+01  1  2  4  1  6  1        2 -.100847299503D-02 0.100000000000D+01
-.177237114889D-02 0.000000000000D+00 -.168544471919D-03 0.148003555216D-04 0.000000000000D+00  6 2 3 25 2 3 21 2 0.58578236D+00 0.57777485D-01 0.25578229D+06 0.25578229D+06 0.25578229D+06 0.10897128D+01  1  2  5  1  6  1        2 -.266020194682D-03 0.100000000000D+01
0.166174638022D-02 0.000000000000D+00 0.149261030286D-03 0.148003555216D-04 0.000000000000D+00  6 2 3 25 2 3 21 2 0.35423175D+00 0.57777485D-01 0.25578229D+06 0.25578229D+06 0.25578229D+06 0.10897128D+01  1  2  6  1  6  1        2 0.235564032839D-02 0.100000000000D+01
-.927525592972D-04 0.000000000000D+00 -.954814551541D-05 0.148003555216D-04 0.000000000000D+00  6 21 3 25 2 3 -2 2 0.58578236D+00 0.57777485D-01 0.25578229D+06 0.25578229D+06 0.25578229D+06 0.10897128D+01  1  2  5  5  6  1        2 -.331373692633D-06 0.100000000000D+01
  </mgrwgt>
  </event>
  <event>
  5     66 0.17247933E-05 0.14735293E+02 0.75467711E-02 0.94616624E-01
        4 -1    0    0  501    0 0.00000000E+00 0.00000000E+00 0.42542761E+03 0.42543043E+03 0.15500000E+01 0.0000E+00 0.9000E+01
        1 -1    0    0  502    0 0.00000000E+00 0.00000000E+00 -.14078393E+04 0.14078393E+04 0.32000000E+00 0.0000E+00 0.9000E+01
       25  1    1    2    0    0 -.44850865E+03 0.19677918E+03 -.28550913E+03 0.58053641E+03 0.12500000E+03 0.0000E+00 0.9000E+01
        4  1    1    2  501    0 0.13658298E+02 0.56018235E+01 0.21864956E+03 0.21915283E+03 0.15500000E+01 0.0000E+00 0.9000E+01
        1  1    1    2  502    0 0.43485036E+03 -.20238100E+03 -.91555212E+03 0.10335805E+04 0.32000000E+00 0.0000E+00 0.9000E+01
#aMCatNLO 1  0  0  1  1 0.17895770D+02 0.00000000D+00  -5  6  0 0.00000000D+00 0.00000000D+00 0.00000000D+00 0.00000000D+00 0.00000000D+00
  <mgrwgt>
 0.1145397613D-02    7    2    0
 0.773909765286355D+03 0.000000000000000D+00 0.000000000000000D+00 0.773909765286355D+03
 0.773909765286355D+03 0.000000000000000D+00 0.000000000000000D+00 -.773909765286355D+03
 0.506873792618902D+03 -.448931266702077D+03 0.196988229919621D+03 0.308609250391640D+02
 0.397612122060871D+03 0.136331849303012D+02 0.559152353237445D+01 0.397338987192286D+03
 0.643333615892937D+03 0.435298081771776D+03 -.202579753451996D+03 -.428199912231450D+03
 0.000000000000000D+00 -.000000000000000D+00 0.000000000000000D+00 0.000000000000000D+00
 0.958669882635486D+03 0.000000000000000D+00 0.000000000000000D+00 0.958669882635486D+03
 0.956780857097223D+03 0.000000000000000D+00 0.000000000000000D+00 -.956780857097223D+03
 0.465924043708536D+03 -.437731375699181D+03 0.943348320608215D+02 0.308609250391640D+02
 0.405798666786092D+03 0.228829107516569D+02 -.791874966008483D+02 0.397338987192286D+03
 0.711375497500457D+03 0.450894944597784D+03 -.345533909399877D+03 -.428199912231450D+03
 0.332352531737624D+03 -.360464796502598D+02 0.330386573939904D+03 0.188902553826308D+01
0.583594510735D-03 0.000000000000D+00 0.000000000000D+00 0.849730258581D-05 0.000000000000D+00  6 4 1 25 4 1 21 0 0.65450621D-01 0.21659088D+00 0.25039857D+06 0.25039857D+06 0.25039857D+06 0.10904071D+01  1  2  2  1  6  1        4 0.520681624184D-03 0.100000000000D+01
0.480021685475D-03 0.000000000000D+00 -.224115658519D-05 0.849730258581D-05 0.000000000000D+00  6 4 1 25 4 1 21 2 0.65450621D-01 0.21659088D+00 0.25039857D+06 0.25039857D+06 0.25039857D+06 0.10904071D+01  1  2  3  1  6  1        4 0.509212696643D-03 0.100000000000D+01
-.319034969348D-03 0.000000000000D+00 0.000000000000D+00 0.849730258581D-05 0.000000000000D+00  6 4 1 25 4 1 21 2 0.65450621D-01 0.21659088D+00 0.25039857D+06 0.25039857D+06 0.25039857D+06 0.10904071D+01  1  2 15  1  6  1        4 -.338436078996D-03 0.100000000000D+01
-.186031682606D-04 0.000000000000D+00 0.000000000000D+00 0.849730258581D-05 0.000000000000D+00  6 4 1 25 4 1 21 2 0.65450621D-01 0.21659088D+00 0.25039857D+06 0.25039857D+06 0.25039857D+06 0.10904071D+01  1  2  4  1  6  1        4 -.197344615102D-04 0.100000000000D+01
-.513644957844D-03 0.000000000000D+00 -.466936702877D-03 0.849730258581D-05 0.000000000000D+00  6 4 1 25 4 1 21 2 0.99186904D-01 0.21659088D+00 0.25039857D+06 0.25039857D+06 0.25039857D+06 0.10904071D+01  1  2  5  1  6  1        4 -.185599092600D-03 0.100000000000D+01
0.685313700762D-03 0.000000000000D+00 0.429304328029D-03 0.849730258581D-05 0.000000000000D+00  6 4 1 25 4 1 21 2 0.65450621D-01 0.21659088D+00 0.25039857D+06 0.25039857D+06 0.25039857D+06 0.10904071D+01  1  2  6  1  6  1        4 0.726988901066D-03 0.100000000000D+01
-.837204504009D-05 0.000000000000D+00 -.228662254259D-04 0.849730258581D-05 0.000000000000D+00  6 21 1 25 4 1 -4 2 0.99186904D-01 0.21659088D+00 0.25039857D+06 0.25039857D+06 0.25039857D+06 0.10904071D+01  1  2  5  5  6  1        4 -.677159754088D-04 0.100000000000D+01
  </mgrwgt>
  </event>
  <event>
  5     66 0.17247933E-05 0.79732550E+02 0.75467711E-02 0.87668421E-01
        2 -1    0    0  501    0 0.00000000E+00 0.00000000E+00 0.11323728E+04 0.11323729E+04 0.32000000E+00 0.0000E+00 0.9000E+01
        3 -1    0    0  502    0 0.00000000E+00 0.00000000E+00 -.10527330E+04 0.10527331E+04 0.50000000E+00 0.0000E+00 0.9000E+01
       25  1    1    2    0    0 0.77731552E+03 0.76263208E+02 -.38060943E+03 0.87779499E+03 0.12500000E+03 0.0000E+00 0.9000E+01
        2  1    1    2  501    0 -.79720612E+02 0.22214882E+01 0.58834296E+03 0.59372372E+03 0.32000000E+00 0.0000E+00 0.9000E+01
        3  1    1    2  502    0 -.69759491E+03 -.78484697E+02 -.12809369E+03 0.71358724E+03 0.50000000E+00 0.0000E+00 0.9000E+01
#aMCatNLO 1  0  0  2  5 0.32209097D+02 0.00000000D+00  -5  6  0 0.00000000D+00 0.00000000D+00 0.00000000D+00 0.00000000D+00 0.00000000D+00
  <mgrwgt>
 0.2130856452D-03    3    2    0
 0.109182707990977D+04 0.000000000000000D+00 0.000000000000000D+00 0.109182707990977D+04
 0.109182707990977D+04 0.000000000000000D+00 0.000000000000000D+00 -.109182707990977D+04
 0.892300812366435D+03 0.777405561818662D+03 0.762737660595659D+02 -.412793707333700D+03
 0.572524477742093D+03 -.797016118254561D+02 0.222095872700286D+01 0.566945321903809D+03
 0.718828869711013D+03 -.697703949993206D+03 -.784947247865688D+02 -.154151614570109D+03
 0.000000000000000D+00 0.000000000000000D+00 -.000000000000000D+00 0.000000000000000D+00
 0.311980005341792D+04 0.000000000000000D+00 0.000000000000000D+00 0.311980005341792D+04
 0.111284949388294D+04 0.000000000000000D+00 0.000000000000000D+00 -.111284949388294D+04
 0.796180443587690D+03 0.663523444604951D+03 0.872713721490096D+02 -.412793707333700D+03
 0.588636007023615D+03 -.158017799206106D+03 0.978395984001469D+01 0.566945321903809D+03
 0.818982484672892D+03 -.801423912708198D+03 -.684784788520936D+02 -.154151614570109D+03
 0.202885061201666D+04 0.295918267309352D+03 -.285768531369306D+02 0.200695055953499D+04
0.733497091243D-03 0.000000000000D+00 0.000000000000D+00 0.249390796699D-06 0.000000000000D+00  6 2 3 25 2 3 21 0 0.17421121D+00 0.16195893D+00 0.61851513D+06 0.61851513D+06 0.61851513D+06 0.10620421D+01  1  2  2  2  6  2        3 0.295695098654D-03 0.100000000000D+01
0.236693018965D-03 0.000000000000D+00 -.281682196459D-05 0.249390796699D-06 0.000000000000D+00  6 2 3 25 2 3 21 2 0.17421121D+00 0.16195893D+00 0.61851513D+06 0.61851513D+06 0.61851513D+06 0.10620421D+01  1  2  3  2  6  2        3 0.107625358932D-03 0.100000000000D+01
-.418370284654D-03 0.000000000000D+00 0.000000000000D+00 0.249390796699D-06 0.000000000000D+00  6 2 3 25 2 3 21 2 0.17421121D+00 0.16195893D+00 0.61851513D+06 0.61851513D+06 0.61851513D+06 0.10620421D+01  1  2 15  2  6  2        3 -.190234812372D-03 0.100000000000D+01
  </mgrwgt>
  </event>
  <event>
  6     66 0.17247933E-05 0.11815338E+03 0.75467711E-02 0.90680422E-01
        4 -1    0    0  501    0 0.00000000E+00 0.00000000E+00 0.28228741E+03 0.28229167E+03 0.15500000E+01 0.0000E+00 0.9000E+01
        1 -1    0    0  503    0 0.00000000E+00 0.00000000E+00 -.35341243E+04 0.35341243E+04 0.32000000E+00 0.0000E+00 0.9000E+01
       25  1    1    2    0    0 -.70219100E+03 0.55051551E+02 -.10814683E+04 0.12966501E+04 0.12500000E+03 0.0000E+00 0.9000E+01
        4  1    1    2  501    0 0.60104532E+03 0.12929739E+02 -.35105202E+03 0.69617712E+03 0.15500000E+01 0.0000E+00 0.9000E+01
        1  1    1    2  502    0 0.92936281E+02 -.62787363E+02 -.15287178E+04 0.15328267E+04 0.32000000E+00 0.0000E+00 0.9000E+01
       21  1    1    2  503  502 0.82093917E+01 -.51939276E+01 -.29059877E+03 0.29076207E+03 0.75000000E+00 0.0000E+00 0.9000E+01
#aMCatNLO 2  0  0  2  5 0.97144735D+01 0.00000000D+00  -5  6  0 0.00000000D+00 0.00000000D+00 0.00000000D+00 0.00000000D+00 0.00000000D+00
  <mgrwgt>
 0.1012432864D-03    5    2    0
 0.956714430770656D+03 0.000000000000000D+00 0.000000000000000D+00 0.956714430770656D+03
 0.956714430770656D+03 0.000000000000000D+00 0.000000000000000D+00 -.956714430770656D+03
 0.712180525440234D+03 -.698952029585335D+03 0.531688216764463D+02 0.146709766684718D+02
 0.741690264037679D+03 0.603958095591485D+03 0.109142451385602D+02 0.430371869190871D+03
 0.459558072063398D+03 0.949939339938496D+02 -.640830668150065D+02 -.445042845859343D+03
 0.000000000000000D+00 0.000000000000000D+00 -.000000000000000D+00 -.000000000000000D+00
 0.957001924097391D+03 0.000000000000000D+00 0.000000000000000D+00 0.957001924097391D+03
 0.104246765492821D+04 0.000000000000000D+00 0.000000000000000D+00 -.104246765492821D+04
 0.715332818418439D+03 -.702014317625766D+03 0.551062736763274D+02 0.146709766684718D+02
 0.739138222118737D+03 0.600781436415166D+03 0.129240576032405D+02 0.430371869190871D+03
 0.458982481023923D+03 0.930234895405830D+02 -.628364037002923D+02 -.445042845859343D+03
 0.860160574644988D+02 0.820939167001692D+01 -.519392757927554D+01 -.854657308308158D+02
-.234945457608D-02 0.000000000000D+00 0.000000000000D+00 0.279581764849D-06 0.000000000000D+00  6 4 1 25 4 1 21 2 0.43416041D-01 0.55382257D+00 0.51701487D+06 0.51701487D+06 0.51701487D+06 0.10674848D+01  1  2 13  2  6  2        1 -.159353951421D-03 0.100000000000D+01
-.150003004342D-03 0.000000000000D+00 0.000000000000D+00 0.279581764849D-06 0.000000000000D+00  6 4 1 25 4 1 21 2 0.43416041D-01 0.49898527D+00 0.51170734D+06 0.51170734D+06 0.51170734D+06 0.10678007D+01  1  2  8  2  6  2        1 -.198512530673D-04 0.100000000000D+01
-.130669840956D-03 0.000000000000D+00 0.000000000000D+00 0.279581764849D-06 0.000000000000D+00  6 4 1 25 4 1 21 2 0.43416041D-01 0.54374656D+00 0.51170734D+06 0.51170734D+06 0.51170734D+06 0.10678007D+01  1  2  9  2  6  2        1 -.100712165929D-04 0.100000000000D+01
0.130189150218D-03 0.000000000000D+00 0.000000000000D+00 0.279581764849D-06 0.000000000000D+00  6 4 1 25 4 1 21 2 0.43416041D-01 0.49898527D+00 0.51170734D+06 0.51170734D+06 0.51170734D+06 0.10678007D+01  1  2 10  2  6  2        1 0.172291067030D-04 0.100000000000D+01
0.355118710539D-02 0.000000000000D+00 0.000000000000D+00 0.279581764849D-06 0.642746912897D-07  6 4 1 25 4 1 21 2 0.43429087D-01 0.54371083D+00 0.51701487D+06 0.51701487D+06 0.51701487D+06 0.10674848D+01  1  2  1  2  6  2        1 0.273290600763D-03 0.100000000000D+01
  </mgrwgt>
  </event>
  <event>
  5     66 0.17247933E-05 0.13746092E+03 0.75467711E-02 0.84893884E-01
        2 -1    0    0  501    0 0.00000000E+00 0.00000000E+00 0.27538720E+04 0.27538720E+04 0.32000000E+00 0.0000E+00 0.9000E+01
        3 -1    0    0  502    0 0.00000000E+00 0.00000000E+00 -.70597315E+03 0.70597332E+03 0.50000000E+00 0.0000E+00 0.9000E+01
       25  1    1    2    0    0 -.71410382E+03 -.18392578E+02 0.62307445E+03 0.95610110E+03 0.12500000E+03 0.0000E+00 0.9000E+01
        2  1    1    2  501    0 0.73662483E+03 0.15398528E+03 0.18817194E+04 0.20266218E+04 0.32000000E+00 0.0000E+00 0.9000E+01
        3  1    1    2  502    0 -.22521005E+02 -.13559270E+03 -.45689501E+03 0.47712250E+03 0.50000000E+00 0.0000E+00 0.9000E+01
#aMCatNLO 1  0  0  2  5 0.97144735D+01 0.00000000D+00  -5  6  0 0.00000000D+00 0.00000000D+00 0.00000000D+00 0.00000000D+00 0.00000000D+00
  <mgrwgt>
 0.1611023873D-03    7    2    0
 0.139433139260074D+04 0.000000000000000D+00 0.000000000000000D+00 0.139433139260074D+04
 0.139433139260074D+04 0.000000000000000D+00 0.000000000000000D+00 -.139433139260074D+04
 0.728634797196422D+03 -.714076363960845D+03 -.183762712014926D+02 0.709994843267089D+02
 0.113248241610343D+04 0.736597985502604D+03 0.153979670420005D+03 0.846303782122187D+03
 0.927545571901618D+03 -.225216215417586D+02 -.135603399218512D+03 -.917303266448896D+03
 0.000000000000000D+00 -.000000000000000D+00 0.000000000000000D+00 -.000000000000000D+00
 0.162233909019752D+04 0.000000000000000D+00 0.000000000000000D+00 0.162233909019752D+04
 0.210292157588459D+04 0.000000000000000D+00 0.000000000000000D+00 -.210292157588459D+04
 0.616928778171955D+03 -.586657226821019D+03 -.125572643440971D+03 0.709994843267089D+02
 0.128446700232652D+04 0.965472796804356D+03 -.385702872964690D+02 0.846303782122187D+03
 0.974006715403646D+03 0.157547277550108D+03 -.287093459260455D+03 -.917303266448896D+03
 0.849858170179986D+03 -.536362847533444D+03 0.451236389997895D+03 -.480582485687064D+03
0.841930834339D-03 0.000000000000D+00 0.000000000000D+00 0.122204668038D-05 0.000000000000D+00  6 2 3 25 2 3 21 0 0.42367263D+00 0.10861127D+00 0.65217601D+06 0.65217601D+06 0.65217601D+06 0.10604492D+01  1  2  2  2  6  2        3 0.122410146880D-03 0.100000000000D+01
0.206317336738D-03 0.000000000000D+00 -.323323608934D-05 0.122204668038D-05 0.000000000000D+00  6 2 3 25 2 3 21 2 0.42367263D+00 0.10861127D+00 0.65217601D+06 0.65217601D+06 0.65217601D+06 0.10604492D+01  1  2  3  2  6  2        3 0.337331186001D-04 0.100000000000D+01
-.532580854171D-03 0.000000000000D+00 0.000000000000D+00 0.122204668038D-05 0.000000000000D+00  6 2 3 25 2 3 21 2 0.42367263D+00 0.10861127D+00 0.65217601D+06 0.65217601D+06 0.65217601D+06 0.10604492D+01  1  2 15  2  6  2        3 -.870775738091D-04 0.100000000000D+01
-.174756624988D-04 0.000000000000D+00 0.000000000000D+00 0.122204668038D-05 0.000000000000D+00  6 2 3 25 2 3 21 2 0.42367263D+00 0.10861127D+00 0.65217601D+06 0.65217601D+06 0.65217601D+06 0.10604492D+01  1  2  4  2  6  2        3 -.285729064270D-05 0.100000000000D+01
-.529277844097D-03 0.000000000000D+00 -.441589657058D-03 0.122204668038D-05 0.000000000000D+00  6 2 3 25 2 3 21 2 0.42367263D+00 0.18567098D+00 0.65217601D+06 0.65217601D+06 0.65217601D+06 0.10604492D+01  1  2  5  2  6  2        3 -.181287114652D-04 0.100000000000D+01
0.717143842782D-03 0.000000000000D+00 0.384917075834D-03 0.122204668038D-05 0.000000000000D+00  6 2 3 25 2 3 21 2 0.42367263D+00 0.10861127D+00 0.65217601D+06 0.65217601D+06 0.65217601D+06 0.10604492D+01  1  2  6  2  6  2        3 0.117253831812D-03 0.100000000000D+01
-.100902985684D-04 0.000000000000D+00 -.263423448452D-04 0.122204668038D-05 0.000000000000D+00  6 2 21 25 2 3 -3 2 0.42367263D+00 0.18567098D+00 0.65217601D+06 0.65217601D+06 0.65217601D+06 0.10604492D+01  1  2  5  6  6  2        3 -.423113404458D-05 0.100000000000D+01
  </mgrwgt>
  </event>
  <event>
  5     66 0.17247933E-05 0.23203148E+02 0.75467711E-02 0.92777740E-01
        2 -1    0    0  501    0 0.00000000E+00 0.00000000E+00 0.19620258E+04 0.19620258E+04 0.32000000E+00 0.0000E+00 0.9000E+01
        3 -1    0    0  502    0 0.00000000E+00 0.00000000E+00 -.37658155E+03 0.37658188E+03 0.50000000E+00 0.0000E+00 0.9000E+01
       25  1    1    2    0    0 -.45812144E+03 0.97263002E+02 0.29040218E+02 0.48559621E+03 0.12500000E+03 0.0000E+00 0.9000E+01
        2  1    1    2  501    0 -.13825737E+02 -.18638197E+02 0.13184488E+04 0.13186530E+04 0.32000000E+00 0.0000E+00 0.9000E+01
        3  1    1    2  502    0 0.47194718E+03 -.78624805E+02 0.23795523E+03 0.53435844E+03 0.50000000E+00 0.0000E+00 0.9000E+01
#aMCatNLO 1  0  0  4  1 0.88982868D+02 0.00000000D+00  -5  6  0 0.00000000D+00 0.00000000D+00 0.00000000D+00 0.00000000D+00 0.00000000D+00
  <mgrwgt>
 0.1033887979D-02    6    2    0
 0.859571476558090D+03 0.000000000000000D+00 0.000000000000000D+00 0.859571476558090D+03
 0.859571476558090D+03 -.000000000000000D+00 -.000000000000000D+00 -.859571476558090D+03
 0.633822906218938D+03 -.458189610575435D+03 0.972749834560270D+02 -.408296870918920D+03
 0.577816422794220D+03 -.138238456464997D+02 -.186356475382984D+02 0.577350354969215D+03
 0.507503624103022D+03 0.472013456221935D+03 -.786393359177280D+02 -.169053484050296D+03
 0.000000000000000D+00 0.000000000000000D+00 -.000000000000000D+00 0.000000000000000D+00
 0.859571476558090D+03 0.000000000000000D+00 0.000000000000000D+00 0.859571476558090D+03
 0.859571476558090D+03 -.000000000000000D+00 -.000000000000000D+00 -.859571476558090D+03
 0.616469913397756D+03 -.458861815411263D+03 0.963687976728263D+02 -.380222360359319D+03
 0.465064995150141D+03 -.126521899037144D+02 0.998603415189770D+02 0.454041059813267D+03
 0.500026915167182D+03 0.471471769594519D+03 -.793695727362575D+02 -.146430042309237D+03
 0.137581129401101D+03 0.422357204584545D-01 -.116859566455545D+03 0.726113428552892D+02
0.462994438772D-03 0.000000000000D+00 0.000000000000D+00 0.301552858236D-05 0.000000000000D+00  6 2 3 25 2 3 21 0 0.30185014D+00 0.57935651D-01 0.24330370D+06 0.24330370D+06 0.24330370D+06 0.10913473D+01  1  2  2  3  6  4        2 0.849998660259D-03 0.100000000000D+01
0.321687206823D-03 0.000000000000D+00 -.177802055412D-05 0.301552858236D-05 0.000000000000D+00  6 2 3 25 2 3 21 2 0.30185014D+00 0.57935651D-01 0.24330370D+06 0.24330370D+06 0.24330370D+06 0.10913473D+01  1  2  3  3  6  4        2 0.703399719862D-03 0.100000000000D+01
-.291142640939D-03 0.000000000000D+00 0.000000000000D+00 0.301552858236D-05 0.000000000000D+00  6 2 3 25 2 3 21 2 0.30185014D+00 0.57935651D-01 0.24330370D+06 0.24330370D+06 0.24330370D+06 0.10913473D+01  1  2 15  3  6  4        2 -.636611117049D-03 0.100000000000D+01
-.130158354687D-03 0.000000000000D+00 0.000000000000D+00 0.301552858236D-05 0.000000000000D+00  6 2 3 25 2 3 21 2 0.30185014D+00 0.57935651D-01 0.24330370D+06 0.24330370D+06 0.24330370D+06 0.10913473D+01  1  2  4  3  6  4        2 -.284603640688D-03 0.100000000000D+01
-.692116470910D-03 0.000000000000D+00 0.000000000000D+00 0.301552858236D-05 0.000000000000D+00  6 2 3 25 2 3 21 2 0.30185014D+00 0.57935651D-01 0.24330370D+06 0.24330370D+06 0.24330370D+06 0.10913473D+01  1  2  5  3  6  4        2 -.151337859083D-02 0.100000000000D+01
0.875828731106D-03 0.000000000000D+00 -.000000000000D+00 0.301552858236D-05 0.000000000000D+00  6 2 3 25 2 3 21 2 0.30185014D+00 0.57935651D-01 0.24330370D+06 0.24330370D+06 0.24330370D+06 0.10913473D+01  1  2  6  3  6  4        2 0.191508294716D-02 0.100000000000D+01
  </mgrwgt>
  </event>
  <event>
  5     66 -.17247933E-05 0.51487053E+02 0.75467711E-02 0.94372166E-01
        2 -1    0    0  501    0 0.00000000E+00 0.00000000E+00 0.12743354E+04 0.12743354E+04 0.32000000E+00 0.0000E+00 0.9000E+01
        3 -1    0    0  502    0 -.00000000E+00 -.00000000E+00 -.13857949E+04 0.13857950E+04 0.50000000E+00 0.0000E+00 0.9000E+01
       25  1    1    2    0    0 0.49764974E+03 -.19236453E+02 -.17414969E+03 0.54219777E+03 0.12500000E+03 0.0000E+00 0.9000E+01
        2  1    1    2  501    0 -.45753345E+03 -.13033060E+02 0.10415667E+04 0.11377030E+04 0.32000000E+00 0.0000E+00 0.9000E+01
        3  1    1    2  502    0 -.40116295E+02 0.32269513E+02 -.97887657E+03 0.98022968E+03 0.50000000E+00 0.0000E+00 0.9000E+01
#aMCatNLO 1  0  0  5  4 0.91265511D+02 0.00000000D+00  -5  6  0 0.00000000D+00 0.00000000D+00 0.00000000D+00 0.00000000D+00 0.00000000D+00
  <mgrwgt>
 -.1472058405D-03    1    2    0
 0.132889716468789D+04 0.000000000000000D+00 0.000000000000000D+00 0.132889716468789D+04
 0.132889716468789D+04 -.000000000000000D+00 -.000000000000000D+00 -.132889716468789D+04
 0.535356805733446D+03 0.497646678530717D+03 -.192381704119557D+02 -.151524207939407D+03
 0.118236935347976D+04 -.457528179410567D+03 -.130329097727668D+02 0.109018135938763D+04
 0.940068170162583D+03 -.401184991201486D+02 0.322710801847209D+02 -.938657151448219D+03
 0.000000000000000D+00 0.000000000000000D+00 0.000000000000000D+00 -.000000000000000D+00
 0.132889716468789D+04 0.000000000000000D+00 0.000000000000000D+00 0.132889716468789D+04
 0.132889716468789D+04 -.000000000000000D+00 -.000000000000000D+00 -.132889716468789D+04
 0.535955943529478D+03 0.497541829379543D+03 -.191538303833143D+02 -.153977375623427D+03
 0.117747652017349D+04 -.457759137024881D+03 -.128471288523866D+02 0.108477761744533D+04
 0.921952353371800D+03 -.375605041725794D+02 0.513714396779628D+02 -.919753404777343D+03
 0.224095123010223D+02 -.222218818208063D+01 -.193704804422635D+02 -.110468370445561D+02
-.925113162821D-03 0.000000000000D+00 0.000000000000D+00 0.119871542307D-03 0.000000000000D+00  6 2 3 25 2 3 21 2 0.19605161D+00 0.21319923D+00 0.26146185D+06 0.26146185D+06 0.26146185D+06 0.10889975D+01  1  2 14  4  6  5        3 -.147205840461D-03 0.100000000000D+01
  </mgrwgt>
  </event>
  <event>
  6     66 0.17247933E-05 0.20230212E+03 0.75467711E-02 0.92518745E-01
        2 -1    0    0  503    0 0.00000000E+00 0.00000000E+00 0.14326179E+04 0.14326179E+04 0.32000000E+00 0.0000E+00 0.9000E+01
        3 -1    0    0  502    0 0.00000000E+00 0.00000000E+00 -.66536632E+03 0.66536651E+03 0.50000000E+00 0.0000E+00 0.9000E+01
       25  1    1    2    0    0 0.47723587E+03 -.26696131E+03 -.21555441E+03 0.60092522E+03 0.12500000E+03 0.0000E+00 0.9000E+01
        2  1    1    2  501    0 -.36156553E+03 0.67428708E+02 0.41030654E+03 0.55102434E+03 0.32000000E+00 0.0000E+00 0.9000E+01
        3  1    1    2  502    0 0.40539310E+02 0.32902542E+02 -.16547826E+03 0.17352036E+03 0.50000000E+00 0.0000E+00 0.9000E+01
       21  1    1    2  503  501 -.15620964E+03 0.16663006E+03 0.73797770E+03 0.77251451E+03 0.75000000E+00 0.0000E+00 0.9000E+01
#aMCatNLO 2  0  0  1  4 0.22840103D+03 0.00000000D+00  -5  6  0 0.00000000D+00 0.00000000D+00 0.00000000D+00 0.00000000D+00 0.00000000D+00
  <mgrwgt>
 0.2093776783D-02    1    2    0
 0.652657361027408D+03 0.000000000000000D+00 0.000000000000000D+00 0.652657361027408D+03
 0.652657361027408D+03 0.000000000000000D+00 0.000000000000000D+00 -.652657361027408D+03
 0.523893667391958D+03 0.410168835551576D+03 -.195388866272834D+03 -.228963516771289D+03
 0.602230370524513D+03 -.429536014903772D+03 0.139921343156972D+03 0.398248978419062D+03
 0.179190684138346D+03 0.193671793521963D+02 0.554675231158616D+02 -.169285461647773D+03
 0.000000000000000D+00 -.000000000000000D+00 0.000000000000000D+00 0.000000000000000D+00
 0.140131913234774D+04 0.000000000000000D+00 0.000000000000000D+00 0.140131913234774D+04
 0.680227224929348D+03 0.000000000000000D+00 0.000000000000000D+00 -.680227224929348D+03
 0.605881396482191D+03 0.477260397547774D+03 -.266955965513930D+03 -.228963516771289D+03
 0.542115059179503D+03 -.361579193411556D+03 0.674312647754539D+02 0.398248978419062D+03
 0.177150160188548D+03 0.405284393351822D+02 0.328946399065721D+02 -.169285461647773D+03
 0.756399741426846D+03 -.156209643471400D+03 0.166630060831904D+03 0.721091907418391D+03
0.184459824326D-02 0.000000000000D+00 0.000000000000D+00 0.657812242706D-06 0.269236075681D-09  6 2 3 25 2 3 21 2 0.22040271D+00 0.10236404D+00 0.36564074D+06 0.36564074D+06 0.36564074D+06 0.10782508D+01  1  2  1  1  6  1        2 0.209377678330D-02 0.100000000000D+01
  </mgrwgt>
  </event>
  <event>
  5     66 -.17247933E-05 0.33849819E+02 0.75467711E-02 0.94140652E-01
        2 -1    0    0  501    0 0.00000000E+00 0.00000000E+00 0.17924013E+04 0.17924014E+04 0.32000000E+00 0.0000E+00 0.9000E+01
        3 -1    0    0  502    0 0.00000000E+00 0.00000000E+00 -.11339281E+04 0.11339282E+04 0.50000000E+00 0.0000E+00 0.9000E+01
       25  1    1    2    0    0 0.42604495E+03 0.17180960E+03 0.53035319E+03 0.71269373E+03 0.12500000E+03 0.0000E+00 0.9000E+01
        2  1    1    2  501    0 0.29678614E+02 0.16287041E+02 0.11123315E+04 0.11128466E+04 0.32000000E+00 0.0000E+00 0.9000E+01
        3  1    1    2  502    0 -.45572357E+03 -.18809664E+03 -.98421146E+03 0.11007892E+04 0.50000000E+00 0.0000E+00 0.9000E+01
#aMCatNLO 1  0  0  2  5 0.15192305D+01 0.00000000D+00  -5  6  0 0.00000000D+00 0.00000000D+00 0.00000000D+00 0.00000000D+00 0.00000000D+00
  <mgrwgt>
 -.6855280971D-02    7    2    0
 0.142564173463176D+04 0.000000000000000D+00 0.000000000000000D+00 0.142564173463176D+04
 0.142564173463176D+04 0.000000000000000D+00 0.000000000000000D+00 -.142564173463176D+04
 0.609072395684006D+03 0.426093710326919D+03 0.171830137937818D+03 0.379819347717259D+03
 0.885148570002208D+03 0.296750193329545D+02 0.162850682880984D+02 0.884501091438216D+03
 0.135706250357730D+04 -.455768729659873D+03 -.188115206225916D+03 -.126432043915548D+04
 0.000000000000000D+00 -.000000000000000D+00 -.000000000000000D+00 -.000000000000000D+00
 0.142825076653868D+04 0.000000000000000D+00 0.000000000000000D+00 0.142825076653868D+04
 0.156903768548296D+04 0.000000000000000D+00 0.000000000000000D+00 -.156903768548296D+04
 0.612295612095553D+03 0.427422205603694D+03 0.179801106359158D+03 0.379819347717259D+03
 0.885503197620766D+03 0.316009765343209D+02 0.278408068001715D+02 0.884501091438216D+03
 0.135373430159338D+04 -.452820166467593D+03 -.170423834261813D+03 -.126432043915548D+04
 0.145755340711937D+03 -.620301567042264D+01 -.372180788975166D+02 -.140786918944281D+03
0.124753617330D-02 0.000000000000D+00 0.000000000000D+00 0.184655841759D-03 0.000000000000D+00  6 2 3 25 2 3 21 0 0.27575406D+00 0.17445048D+00 0.25152792D+06 0.25152792D+06 0.25152792D+06 0.10902601D+01  1  2  2  2  6  2        3 0.179678659969D-03 0.100000000000D+01
0.667033352903D-03 0.000000000000D+00 -.479086738928D-05 0.184655841759D-03 0.000000000000D+00  6 2 3 25 2 3 21 2 0.27575406D+00 0.17445048D+00 0.25152792D+06 0.25152792D+06 0.25152792D+06 0.10902601D+01  1  2  3  2  6  2        3 0.114196063435D-03 0.100000000000D+01
-.722858499042D-03 0.000000000000D+00 0.000000000000D+00 0.184655841759D-03 0.000000000000D+00  6 2 3 25 2 3 21 2 0.27575406D+00 0.17445048D+00 0.25152792D+06 0.25152792D+06 0.25152792D+06 0.10902601D+01  1  2 15  2  6  2        3 -.123753324556D-03 0.100000000000D+01
-.503509497277D-01 0.000000000000D+00 0.000000000000D+00 0.184655841759D-03 0.000000000000D+00  6 2 3 25 2 3 21 2 0.27575406D+00 0.17445048D+00 0.25152792D+06 0.25152792D+06 0.25152792D+06 0.10902601D+01  1  2  4  2  6  2        3 -.862007907716D-02 0.100000000000D+01
-.682588487635D-01 0.000000000000D+00 -.239281230968D-02 0.184655841759D-03 0.000000000000D+00  6 2 3 25 2 3 21 2 0.27575406D+00 0.19213632D+00 0.25152792D+06 0.25152792D+06 0.25152792D+06 0.10902601D+01  1  2  5  2  6  2        3 -.839657093890D-02 0.100000000000D+01
0.681828839115D-01 0.000000000000D+00 0.238169942438D-02 0.184655841759D-03 0.000000000000D+00  6 2 3 25 2 3 21 2 0.27575406D+00 0.17445048D+00 0.25152792D+06 0.25152792D+06 0.25152792D+06 0.10902601D+01  1  2  6  2  6  2        3 0.116729049642D-01 0.100000000000D+01
-.107235048632D-02 0.000000000000D+00 -.377057934551D-04 0.184655841759D-03 0.000000000000D+00  6 2 21 25 2 3 -3 2 0.27575406D+00 0.19213632D+00 0.25152792D+06 0.25152792D+06 0.25152792D+06 0.10902601D+01  1  2  5  6  6  2        3 -.168165731779D-02 0.100000000000D+01
  </mgrwgt>
  </event>
  <event>
  5     66 0.17247933E-05 0.18446649E+03 0.75467711E-02 0.89208433E-01
        2 -1    0    0  501    0 0.00000000E+00 0.00000000E+00 0.15552370E+04 0.15552370E+04 0.32000000E+00 0.0000E+00 0.9000E+01
        3 -1    0    0  502    0 0.00000000E+00 0.00000000E+00 -.64934121E+03 0.64934140E+03 0.50000000E+00 0.0000E+00 0.9000E+01
       25  1    1    2    0    0 -.40547151E+03 -.42831157E+03 0.28198581E+03 0.66558166E+03 0.12500000E+03 0.0000E+00 0.9000E+01
        2  1    1    2  501    0 0.58817436E+03 0.40292853E+03 0.93591968E+03 0.11765399E+04 0.32000000E+00 0.0000E+00 0.9000E+01
        3  1    1    2  502    0 -.18270285E+03 0.25383039E+02 -.31200972E+03 0.36245682E+03 0.50000000E+00 0.0000E+00 0.9000E+01
#aMCatNLO 1  0  0  1  2 0.17439136D+03 0.00000000D+00  -5  6  0 0.00000000D+00 0.00000000D+00 0.00000000D+00 0.00000000D+00 0.00000000D+00
  <mgrwgt>
 0.2545775652D-03    7    2    0
 0.100492771548376D+04 0.000000000000000D+00 0.000000000000000D+00 0.100492771548376D+04
 0.100492771548376D+04 0.000000000000000D+00 0.000000000000000D+00 -.100492771548376D+04
 0.602952557380435D+03 -.405452722385730D+03 -.428307706271883D+03 0.934800030624558D+01
 0.868668512005499D+03 0.588164038391586D+03 0.402921459762362D+03 0.496288570244890D+03
 0.538234361581595D+03 -.182711316005856D+03 0.253862465095211D+02 -.505636570551135D+03
 0.000000000000000D+00 -.000000000000000D+00 0.000000000000000D+00 0.000000000000000D+00
 0.111559817975748D+04 0.000000000000000D+00 0.000000000000000D+00 0.111559817975748D+04
 0.107983043721582D+04 0.000000000000000D+00 0.000000000000000D+00 -.107983043721582D+04
 0.600705550366157D+03 -.364588912560354D+03 -.460662238488288D+03 0.934800030624558D+01
 0.890241457755932D+03 0.647878472284155D+03 0.355641664182416D+03 0.496288570244890D+03
 0.526460040716652D+03 -.146565279770442D+03 -.323291795095500D+01 -.505636570551135D+03
 0.178021568134566D+03 -.136724279953359D+03 0.108253492256827D+03 0.357677425416605D+02
0.133965360604D-03 0.000000000000D+00 0.000000000000D+00 0.772553028015D-07 0.000000000000D+00  6 2 3 25 2 3 21 0 0.23926725D+00 0.99898665D-01 0.56271453D+06 0.56271453D+06 0.56271453D+06 0.10649023D+01  1  2  2  1  6  1        2 0.116148669661D-03 0.100000000000D+01
0.151879058167D-04 0.000000000000D+00 -.514462258610D-06 0.772553028015D-07 0.000000000000D+00  6 2 3 25 2 3 21 2 0.23926725D+00 0.99898665D-01 0.56271453D+06 0.56271453D+06 0.56271453D+06 0.10649023D+01  1  2  3  1  6  1        2 0.149327277362D-04 0.100000000000D+01
-.786359535525D-04 0.000000000000D+00 0.000000000000D+00 0.772553028015D-07 0.000000000000D+00  6 2 3 25 2 3 21 2 0.23926725D+00 0.99898665D-01 0.56271453D+06 0.56271453D+06 0.56271453D+06 0.10649023D+01  1  2 15  1  6  1        2 -.773147594437D-04 0.100000000000D+01
-.232641565352D-04 0.000000000000D+00 0.000000000000D+00 0.772553028015D-07 0.000000000000D+00  6 2 3 25 2 3 21 2 0.23926725D+00 0.99898665D-01 0.56271453D+06 0.56271453D+06 0.56271453D+06 0.10649023D+01  1  2  4  1  6  1        2 -.228732861359D-04 0.100000000000D+01
-.789271222995D-03 0.000000000000D+00 -.206456356390D-03 0.772553028015D-07 0.000000000000D+00  6 2 3 25 2 3 21 2 0.27613603D+00 0.99898665D-01 0.56271453D+06 0.56271453D+06 0.56271453D+06 0.10649023D+01  1  2  5  1  6  1        2 -.572466715706D-03 0.100000000000D+01
0.812602061607D-03 0.000000000000D+00 0.204354200315D-03 0.772553028015D-07 0.000000000000D+00  6 2 3 25 2 3 21 2 0.23926725D+00 0.99898665D-01 0.56271453D+06 0.56271453D+06 0.56271453D+06 0.10649023D+01  1  2  6  1  6  1        2 0.798949209342D-03 0.100000000000D+01
-.160289213047D-04 0.000000000000D+00 -.453807942483D-05 0.772553028015D-07 0.000000000000D+00  6 21 3 25 2 3 -2 2 0.27613603D+00 0.99898665D-01 0.56271453D+06 0.56271453D+06 0.56271453D+06 0.10649023D+01  1  2  5  5  6  1        2 -.279828020524D-05 0.100000000000D+01
  </mgrwgt>
  </event>
  <event>
  6     66 0.17247933E-05 0.61776056E+01 0.75467711E-02 0.91468315E-01
        2 -1    0    0  501    0 0.00000000E+00 0.00000000E+00 0.38285093E+04 0.38285093E+04 0.32000000E+00 0.0000E+00 0.9000E+01
        3 -1    0    0  502    0 0.00000000E+00 0.00000000E+00 -.49429033E+03 0.49429059E+03 0.50000000E+00 0.0000E+00 0.9000E+01
       25  1    1    2    0    0 0.48036340E+03 0.45121523E+03 0.93150925E+03 0.11479019E+04 0.12500000E+03 0.0000E+00 0.9000E+01
        2  1    1    2  503    0 -.39430774E+03 -.36589176E+03 0.23026931E+04 0.23646884E+04 0.32000000E+00 0.0000E+00 0.9000E+01
        3  1    1    2  502    0 0.12107957E+01 -.10503144E+02 -.34775606E+03 0.34791710E+03 0.50000000E+00 0.0000E+00 0.9000E+01
       21  1    1    2  501  503 -.87266450E+02 -.74820323E+02 0.44777263E+03 0.46229255E+03 0.75000000E+00 0.0000E+00 0.9000E+01
#aMCatNLO 2  0  0  4  1 0.72314227D+02 0.00000000D+00  -5  6  0 0.00000000D+00 0.00000000D+00 0.00000000D+00 0.00000000D+00 0.00000000D+00
  <mgrwgt>
 0.7077342236D-02    1    2    0
 0.137564373832134D+04 0.000000000000000D+00 0.000000000000000D+00 0.137564373832134D+04
 0.137564373832134D+04 -.000000000000000D+00 -.000000000000000D+00 -.137564373832134D+04
 0.674671264961136D+03 0.480311245409297D+03 0.451171667826610D+03 0.728117397689728D+02
 0.110820545446738D+04 -.481564972192407D+03 -.440703642859281D+03 0.895541627195038D+03
 0.968410757214158D+03 0.125372678311021D+01 -.104680249673291D+02 -.968353366964010D+03
 0.000000000000000D+00 -.000000000000000D+00 0.000000000000000D+00 0.000000000000000D+00
 0.137564373832134D+04 0.000000000000000D+00 0.000000000000000D+00 0.137564373832134D+04
 0.137564373832134D+04 -.000000000000000D+00 -.000000000000000D+00 -.137564373832134D+04
 0.674637938997755D+03 0.480281572728484D+03 0.451144512906126D+03 0.728669205283575D+02
 0.925071389049009D+03 -.394418968690099D+03 -.365997932027561D+03 0.752486721295500D+03
 0.968331925659970D+03 0.121113584303693D+01 -.105070020182505D+02 -.968274162781855D+03
 0.183246222935940D+03 -.870737398814219D+02 -.746395788603145D+02 0.142920520957998D+03
0.961509764428D-01 0.000000000000D+00 0.000000000000D+00 0.433588568955D-04 0.192342271430D-05  6 2 3 25 2 3 21 2 0.58900145D+00 0.76044687D-01 0.44490589D+06 0.44490589D+06 0.44490589D+06 0.10721123D+01  1  2  1  3  6  4        2 0.707734223551D-02 0.100000000000D+01
  </mgrwgt>
  </event>
  <event>
  5     66 0.17247933E-05 0.82867715E+02 0.75467711E-02 0.94359942E-01
        2 -1    0    0  501    0 0.00000000E+00 0.00000000E+00 0.14167439E+04 0.14167439E+04 0.32000000E+00 0.0000E+00 0.9000E+01
        3 -1    0    0  502    0 0.00000000E+00 0.00000000E+00 -.71739172E+03 0.71739189E+03 0.50000000E+00 0.0000E+00 0.9000E+01
       25  1    1    2    0    0 -.32399674E+02 0.46084663E+03 0.52139368E+03 0.70774694E+03 0.12500000E+03 0.0000E+00 0.9000E+01
        2  1    1    2  501    0 0.72099490E+02 -.40894021E+02 0.72828923E+03 0.73299110E+03 0.32000000E+00 0.0000E+00 0.9000E+01
        3  1    1    2  502    0 -.39699816E+02 -.41995261E+03 -.55033075E+03 0.69339776E+03 0.50000000E+00 0.0000E+00 0.9000E+01
#aMCatNLO 1  0  0  1  1 0.58659305D+02 0.00000000D+00  -5  6  0 0.00000000D+00 0.00000000D+00 0.00000000D+00 0.00000000D+00 0.00000000D+00
  <mgrwgt>
 0.1699285206D-02    7    2    0
 0.100814708809164D+04 0.000000000000000D+00 0.000000000000000D+00 0.100814708809164D+04
 0.100814708809164D+04 0.000000000000000D+00 0.000000000000000D+00 -.100814708809164D+04
 0.568377184177352D+03 -.323781192189174D+02 0.460898034130759D+03 0.306516366648867D+03
 0.523086052927420D+03 0.720806027927070D+02 -.408833089322653D+02 0.516480358308984D+03
 0.924830939078511D+03 -.397024835737896D+02 -.420014725198493D+03 -.822996724957851D+03
 0.000000000000000D+00 0.000000000000000D+00 -.000000000000000D+00 0.000000000000000D+00
 0.110140942634090D+04 0.000000000000000D+00 0.000000000000000D+00 0.110140942634090D+04
 0.101783976639039D+04 0.000000000000000D+00 0.000000000000000D+00 -.101783976639039D+04
 0.578107121916484D+03 -.449829532449404D+02 0.471812563741472D+03 0.306516366648867D+03
 0.520943496339651D+03 0.606021908189649D+02 -.309441485186706D+02 0.516480358308984D+03
 0.918096654245542D+03 -.599642493148082D+02 -.402470056090663D+03 -.822996724957851D+03
 0.102101920229614D+03 0.443450117407836D+02 -.383983591321385D+02 0.835696599505075D+02
0.508795557159D-03 0.000000000000D+00 0.000000000000D+00 0.127677209886D-04 0.000000000000D+00  6 2 3 25 2 3 21 0 0.21796061D+00 0.11036797D+00 0.24176840D+06 0.24176840D+06 0.24176840D+06 0.10915547D+01  1  2  2  1  6  1        2 0.429606350179D-03 0.100000000000D+01
0.104566746278D-03 0.000000000000D+00 -.195390890844D-05 0.127677209886D-04 0.000000000000D+00  6 2 3 25 2 3 21 2 0.21796061D+00 0.11036797D+00 0.24176840D+06 0.24176840D+06 0.24176840D+06 0.10915547D+01  1  2  3  1  6  1        2 0.105199084568D-03 0.100000000000D+01
-.275553926130D-03 0.000000000000D+00 0.000000000000D+00 0.127677209886D-04 0.000000000000D+00  6 2 3 25 2 3 21 2 0.21796061D+00 0.11036797D+00 0.24176840D+06 0.24176840D+06 0.24176840D+06 0.10915547D+01  1  2 15  1  6  1        2 -.277220261793D-03 0.100000000000D+01
-.102856514100D-03 0.000000000000D+00 0.000000000000D+00 0.127677209886D-04 0.000000000000D+00  6 2 3 25 2 3 21 2 0.21796061D+00 0.11036797D+00 0.24176840D+06 0.24176840D+06 0.24176840D+06 0.10915547D+01  1  2  4  1  6  1        2 -.103478510237D-03 0.100000000000D+01
-.940405957481D-02 0.000000000000D+00 -.121211279169D-02 0.127677209886D-04 0.000000000000D+00  6 2 3 25 2 3 21 2 0.23906065D+00 0.11036797D+00 0.24176840D+06 0.24176840D+06 0.24176840D+06 0.10915547D+01  1  2  5  1  6  1        2 -.795387296176D-02 0.100000000000D+01
0.948071527049D-02 0.000000000000D+00 0.120695644903D-02 0.127677209886D-04 0.000000000000D+00  6 2 3 25 2 3 21 2 0.21796061D+00 0.11036797D+00 0.24176840D+06 0.24176840D+06 0.24176840D+06 0.10915547D+01  1  2  6  1  6  1        2 0.953804725697D-02 0.100000000000D+01
-.139165969362D-03 0.000000000000D+00 -.183818365860D-04 0.127677209886D-04 0.000000000000D+00  6 21 3 25 2 3 -2 2 0.23906065D+00 0.11036797D+00 0.24176840D+06 0.24176840D+06 0.24176840D+06 0.10915547D+01  1  2  5  5  6  1        2 -.389957519289D-04 0.100000000000D+01
  </mgrwgt>
  </event>
  <event>
  5     66 -.17247933E-05 0.13803537E+03 0.75467711E-02 0.92950594E-01
        2 -1    0    0  501    0 0.00000000E+00 0.00000000E+00 0.86742589E+03 0.86742595E+03 0.32000000E+00 0.0000E+00 0.9000E+01
        3 -1    0    0  502    0 0.00000000E+00 0.00000000E+00 -.62512964E+03 0.62512984E+03 0.50000000E+00 0.0000E+00 0.9000E+01
       25  1    1    2    0    0 0.48389720E+03 0.14150366E+03 -.27213557E+03 0.58639795E+03 0.12500000E+03 0.0000E+00 0.9000E+01
        2  1    1    2  501    0 -.15666388E+03 0.83416725E+02 0.47505923E+03 0.50713243E+03 0.32000000E+00 0.0000E+00 0.9000E+01
        3  1    1    2  502    0 -.32723332E+03 -.22492039E+03 0.39372587E+02 0.39902541E+03 0.50000000E+00 0.0000E+00 0.9000E+01
#aMCatNLO 1  0  0  1  4 0.75514667D+02 0.00000000D+00  -5  6  0 0.00000000D+00 0.00000000D+00 0.00000000D+00 0.00000000D+00 0.00000000D+00
  <mgrwgt>
 -.1520051854D-03    9    2    0
 0.736378863126691D+03 0.000000000000000D+00 0.000000000000000D+00 0.736378863126691D+03
 0.736378863126691D+03 0.000000000000000D+00 0.000000000000000D+00 -.736378863126691D+03
 0.639067746540372D+03 0.483956136070491D+03 0.141543888370125D+03 -.372202056271826D+03
 0.435689614007156D+03 -.156626545578109D+03 0.833968453437167D+02 0.397917744214416D+03
 0.398000365705853D+03 -.327329590492383D+03 -.224940733713842D+03 -.257156879425901D+02
 0.000000000000000D+00 -.000000000000000D+00 0.000000000000000D+00 0.000000000000000D+00
 0.130231691889656D+04 0.000000000000000D+00 0.000000000000000D+00 0.130231691889656D+04
 0.739869564152218D+03 0.000000000000000D+00 0.000000000000000D+00 -.739869564152218D+03
 0.658801163184813D+03 0.513650740200399D+03 0.126580089320043D+03 -.372202056271826D+03
 0.427165866337203D+03 -.136884835365193D+03 0.734485401486496D+02 0.397917744214416D+03
 0.388725407951969D+03 -.309329690631532D+03 -.234011300314461D+03 -.257156879425901D+02
 0.567494045574789D+03 -.674362142036740D+02 0.339826708457691D+02 0.562447354744339D+03
0.217503798259D-05 0.000000000000D+00 0.000000000000D+00 0.199174640742D-07 0.000000000000D+00  6 2 3 25 2 3 21 0 0.13345016D+00 0.96173811D-01 0.29926778D+06 0.29926778D+06 0.29926778D+06 0.10846304D+01  1  2  2  1  6  1        2 0.541130876547D-05 0.100000000000D+01
0.129215084213D-06 0.000000000000D+00 -.835271855378D-08 0.199174640742D-07 0.000000000000D+00  6 2 3 25 2 3 21 2 0.13345016D+00 0.96173811D-01 0.29926778D+06 0.29926778D+06 0.29926778D+06 0.10846304D+01  1  2  3  1  6  1        2 0.378191901557D-06 0.100000000000D+01
-.141014078048D-05 0.000000000000D+00 0.000000000000D+00 0.199174640742D-07 0.000000000000D+00  6 2 3 25 2 3 21 2 0.13345016D+00 0.96173811D-01 0.29926778D+06 0.29926778D+06 0.29926778D+06 0.10846304D+01  1  2 15  1  6  1        2 -.412725670909D-05 0.100000000000D+01
0.742582123348D-04 0.000000000000D+00 0.000000000000D+00 0.199174640742D-07 0.000000000000D+00  6 2 3 25 2 3 21 2 0.25053585D+00 0.96173811D-01 0.33774622D+06 0.33774622D+06 0.33774622D+06 0.10807644D+01  1  2 12  1  6  1        2 0.771236790993D-04 0.100000000000D+01
-.118533842026D-03 0.000000000000D+00 0.000000000000D+00 0.199174640742D-07 0.000000000000D+00  6 2 3 25 2 3 21 2 0.13345016D+00 0.96173811D-01 0.29926778D+06 0.29926778D+06 0.29926778D+06 0.10846304D+01  1  2  4  1  6  1        2 -.346929612649D-03 0.100000000000D+01
-.863113449530D-04 0.000000000000D+00 -.135367587472D-05 0.199174640742D-07 0.000000000000D+00  6 2 3 25 2 3 21 2 0.23632829D+00 0.96173811D-01 0.29926778D+06 0.29926778D+06 0.29926778D+06 0.10846304D+01  1  2  5  1  6  1        2 -.102064299196D-03 0.100000000000D+01
0.747386305298D-04 0.000000000000D+00 0.115917162367D-05 0.199174640742D-07 0.000000000000D+00  6 2 3 25 2 3 21 2 0.13345016D+00 0.96173811D-01 0.29926778D+06 0.29926778D+06 0.29926778D+06 0.10846304D+01  1  2  6  1  6  1        2 0.218748027538D-03 0.100000000000D+01
0.509045339123D-05 0.000000000000D+00 0.000000000000D+00 0.199174640742D-07 0.000000000000D+00  6 21 3 25 2 3 -2 2 0.25053585D+00 0.96173811D-01 0.33774622D+06 0.33774622D+06 0.33774622D+06 0.10807644D+01  1  2 12  5  6  1        2 0.157782267333D-05 0.100000000000D+01
-.536091466488D-05 0.000000000000D+00 -.851786270171D-07 0.199174640742D-07 0.000000000000D+00  6 21 3 25 2 3 -2 2 0.23632829D+00 0.96173811D-01 0.29926778D+06 0.29926778D+06 0.29926778D+06 0.10846304D+01  1  2  5  5  6  1        2 -.212304680203D-05 0.100000000000D+01
  </mgrwgt>
  </event>
  <event>
  5     66 0.17247933E-05 0.69195200E+02 0.75467711E-02 0.90639528E-01
        4 -1    0    0  501    0 0.00000000E+00 0.00000000E+00 0.73553956E+03 0.73554120E+03 0.15500000E+01 0.0000E+00 0.9000E+01
        1 -1    0    0  502    0 0.00000000E+00 0.00000000E+00 -.18453992E+04 0.18453993E+04 0.32000000E+00 0.0000E+00 0.9000E+01
       25  1    1    2    0    0 -.57995997E+03 -.23046246E+03 -.14440085E+04 0.15780532E+04 0.12500000E+03 0.0000E+00 0.9000E+01
        4  1    1    2  501    0 0.53543067E+03 0.17756276E+03 0.54294009E+03 0.78294373E+03 0.15500000E+01 0.0000E+00 0.9000E+01
        1  1    1    2  502    0 0.44529295E+02 0.52899698E+02 -.20879130E+03 0.21994350E+03 0.32000000E+00 0.0000E+00 0.9000E+01
#aMCatNLO 1  0  0  2  5 0.82858839D+01 0.00000000D+00  -5  6  0 0.00000000D+00 0.00000000D+00 0.00000000D+00 0.00000000D+00 0.00000000D+00
  <mgrwgt>
 0.2520786375D-04    7    2    0
 0.116506063388717D+04 0.000000000000000D+00 0.000000000000000D+00 0.116506063388717D+04
 0.116506063388717D+04 0.000000000000000D+00 0.000000000000000D+00 -.116506063388717D+04
 0.106000727688810D+04 -.579984264430617D+03 -.230488560535259D+03 -.847634180251706D+03
 0.112579739880725D+04 0.535416078575919D+03 0.177557921552644D+03 0.974280550179186D+03
 0.144316592078995D+03 0.445681858546984D+02 0.529306389826154D+02 -.126646369927480D+03
 0.000000000000000D+00 0.000000000000000D+00 -.000000000000000D+00 -.000000000000000D+00
 0.118257198333784D+04 0.000000000000000D+00 0.000000000000000D+00 0.118257198333784D+04
 0.166040632064956D+04 0.000000000000000D+00 0.000000000000000D+00 -.166040632064956D+04
 0.107842317686939D+04 -.631646302748016D+03 -.172947370904689D+03 -.847634180251706D+03
 0.111240972402888D+04 0.481343549848571D+03 0.237783915931515D+03 0.974280550179186D+03
 0.145390538959209D+03 0.375691923273565D+02 0.607261195113865D+02 -.126646369927480D+03
 0.506754864129917D+03 0.112733560572088D+03 -.125562664538213D+03 -.477834337311724D+03
0.481220022139D-04 0.000000000000D+00 0.000000000000D+00 0.327734697195D-06 0.000000000000D+00  6 4 1 25 4 1 21 0 0.11316006D+00 0.28390770D+00 0.40308816D+06 0.40308816D+06 0.40308816D+06 0.10751869D+01  1  2  2  2  6  2        1 0.500401691144D-05 0.100000000000D+01
0.665483882201D-05 0.000000000000D+00 -.184801159316D-06 0.327734697195D-06 0.000000000000D+00  6 4 1 25 4 1 21 2 0.11316006D+00 0.28390770D+00 0.40308816D+06 0.40308816D+06 0.40308816D+06 0.10751869D+01  1  2  3  2  6  2        1 0.799982652881D-06 0.100000000000D+01
-.335947989179D-04 0.000000000000D+00 0.000000000000D+00 0.327734697195D-06 0.000000000000D+00  6 4 1 25 4 1 21 2 0.11316006D+00 0.28390770D+00 0.40308816D+06 0.40308816D+06 0.40308816D+06 0.10751869D+01  1  2 15  2  6  2        1 -.403845338409D-05 0.100000000000D+01
-.287523109562D-04 0.000000000000D+00 0.000000000000D+00 0.327734697195D-06 0.000000000000D+00  6 4 1 25 4 1 21 2 0.11316006D+00 0.28390770D+00 0.40308816D+06 0.40308816D+06 0.40308816D+06 0.10751869D+01  1  2  4  2  6  2        1 -.345633464768D-05 0.100000000000D+01
-.329503024651D-03 0.000000000000D+00 -.259481482570D-04 0.327734697195D-06 0.000000000000D+00  6 4 1 25 4 1 21 2 0.11316006D+00 0.40617113D+00 0.40308816D+06 0.40308816D+06 0.40308816D+06 0.10751869D+01  1  2  5  2  6  2        1 -.113861594323D-04 0.100000000000D+01
0.319656568818D-03 0.000000000000D+00 0.243686866696D-04 0.327734697195D-06 0.000000000000D+00  6 4 1 25 4 1 21 2 0.11316006D+00 0.28390770D+00 0.40308816D+06 0.40308816D+06 0.40308816D+06 0.10751869D+01  1  2  6  2  6  2        1 0.384261312367D-04 0.100000000000D+01
-.137133100366D-04 0.000000000000D+00 -.113965699102D-05 0.327734697195D-06 0.000000000000D+00  6 4 21 25 4 1 -1 2 0.11316006D+00 0.40617113D+00 0.40308816D+06 0.40308816D+06 0.40308816D+06 0.10751869D+01  1  2  5  6  6  2        1 -.141319591418D-06 0.100000000000D+01
  </mgrwgt>
  </event>
  <event>
  5     66 0.17247933E-05 0.82369168E+02 0.75467711E-02 0.90558607E-01
        2 -1    0    0  501    0 0.00000000E+00 0.00000000E+00 0.42259240E+04 0.42259240E+04 0.32000000E+00 0.0000E+00 0.9000E+01
        3 -1    0    0  502    0 0.00000000E+00 0.00000000E+00 -.31364962E+03 0.31365002E+03 0.50000000E+00 0.0000E+00 0.9000E+01
       25  1    1    2    0    0 0.33508709E+03 -.54495802E+03 0.13469951E+04 0.14964235E+04 0.12500000E+03 0.0000E+00 0.9000E+01
        2  1    1    2  501    0 -.41577051E+03 0.52841653E+03 0.27552440E+04 0.28360992E+04 0.32000000E+00 0.0000E+00 0.9000E+01
        3  1    1    2  502    0 0.80683425E+02 0.16541485E+02 -.18996466E+03 0.20705134E+03 0.50000000E+00 0.0000E+00 0.9000E+01
#aMCatNLO 1  0  0  1  4 0.38700540D+02 0.00000000D+00  -5  6  0 0.00000000D+00 0.00000000D+00 0.00000000D+00 0.00000000D+00 0.00000000D+00
  <mgrwgt>
 0.3741956005D-03    9    2    0
 0.115128639938038D+04 0.000000000000000D+00 0.000000000000000D+00 0.115128639938038D+04
 0.115128639938038D+04 0.000000000000000D+00 0.000000000000000D+00 -.115128639938038D+04
 0.661551247773131D+03 0.335059386060724D+03 -.544934197703022D+03 0.113167934577606D+03
 0.909985857029679D+03 -.415750079372150D+03 0.528390562421912D+03 0.613212479520390D+03
 0.731035693957942D+03 0.806906933114261D+02 0.165436352811095D+02 -.726380414097996D+03
 0.000000000000000D+00 -.000000000000000D+00 -.000000000000000D+00 0.000000000000000D+00
 0.138650056483362D+04 0.000000000000000D+00 0.000000000000000D+00 0.138650056483362D+04
 0.115304198508013D+04 0.000000000000000D+00 0.000000000000000D+00 -.115304198508013D+04
 0.657963676892628D+03 0.341945732653061D+03 -.536243726876003D+03 0.113167934577606D+03
 0.912735170099059D+03 -.406237577088685D+03 0.540395204139829D+03 0.613212479520390D+03
 0.732199158862180D+03 0.883270922290508D+02 0.261806614062451D+02 -.726380414097996D+03
 0.236644544059884D+03 -.240352477934276D+02 -.303321386700709D+02 0.233458579753494D+03
0.682533283135D-03 0.000000000000D+00 0.000000000000D+00 0.258805914328D-05 0.000000000000D+00  6 2 3 25 2 3 21 0 0.65014218D+00 0.48253819D-01 0.49456882D+06 0.49456882D+06 0.49456882D+06 0.10688458D+01  1  2  2  1  6  1        2 0.529888077661D-04 0.100000000000D+01
0.232394710599D-03 0.000000000000D+00 -.262110752238D-05 0.258805914328D-05 0.000000000000D+00  6 2 3 25 2 3 21 2 0.65014218D+00 0.48253819D-01 0.49456882D+06 0.49456882D+06 0.49456882D+06 0.10688458D+01  1  2  3  1  6  1        2 0.206118347383D-04 0.100000000000D+01
-.462775903510D-03 0.000000000000D+00 0.000000000000D+00 0.258805914328D-05 0.000000000000D+00  6 2 3 25 2 3 21 2 0.65014218D+00 0.48253819D-01 0.49456882D+06 0.49456882D+06 0.49456882D+06 0.10688458D+01  1  2 15  1  6  1        2 -.410450841132D-04 0.100000000000D+01
0.230598354848D-01 0.000000000000D+00 0.000000000000D+00 0.258805914328D-05 0.000000000000D+00  6 2 3 25 2 3 21 2 0.78703965D+00 0.48253819D-01 0.52928787D+06 0.52928787D+06 0.52928787D+06 0.10667676D+01  1  2 12  1  6  1        2 0.208779501754D-03 0.100000000000D+01
-.238077543770D-01 0.000000000000D+00 0.000000000000D+00 0.258805914328D-05 0.000000000000D+00  6 2 3 25 2 3 21 2 0.65014218D+00 0.48253819D-01 0.49456882D+06 0.49456882D+06 0.49456882D+06 0.10688458D+01  1  2  4  1  6  1        2 -.211158634998D-02 0.100000000000D+01
-.243346818074D-01 0.000000000000D+00 -.383107822087D-03 0.258805914328D-05 0.000000000000D+00  6 2 3 25 2 3 21 2 0.78308755D+00 0.48253819D-01 0.49456882D+06 0.49456882D+06 0.49456882D+06 0.10688458D+01  1  2  5  1  6  1        2 -.242172028186D-03 0.100000000000D+01
0.280362402774D-01 0.000000000000D+00 0.441822091688D-03 0.258805914328D-05 0.000000000000D+00  6 2 3 25 2 3 21 2 0.65014218D+00 0.48253819D-01 0.49456882D+06 0.49456882D+06 0.49456882D+06 0.10688458D+01  1  2  6  1  6  1        2 0.248662437192D-02 0.100000000000D+01
0.637129613986D-03 0.000000000000D+00 0.000000000000D+00 0.258805914328D-05 0.000000000000D+00  6 21 3 25 2 3 -2 2 0.78703965D+00 0.48253819D-01 0.52928787D+06 0.52928787D+06 0.52928787D+06 0.10667676D+01  1  2 12  5  6  1        2 0.333564807971D-07 0.100000000000D+01
-.654680818551D-03 0.000000000000D+00 -.103681181307D-04 0.258805914328D-05 0.000000000000D+00  6 21 3 25 2 3 -2 2 0.78308755D+00 0.48253819D-01 0.49456882D+06 0.49456882D+06 0.49456882D+06 0.10688458D+01  1  2  5  5  6  1        2 -.388098669727D-07 0.100000000000D+01
  </mgrwgt>
  </event>
  <event>
  5     66 -.17247933E-05 0.86297163E+02 0.75467711E-02 0.94093248E-01
        2 -1    0    0  501    0 0.00000000E+00 0.00000000E+00 0.13821514E+04 0.13821514E+04 0.32000000E+00 0.0000E+00 0.9000E+01
        3 -1    0    0  502    0 0.00000000E+00 0.00000000E+00 -.16839940E+04 0.16839940E+04 0.50000000E+00 0.0000E+00 0.9000E+01
       25  1    1    2    0    0 0.11037422E+03 0.50327458E+03 -.10617067E+03 0.54070785E+03 0.12500000E+03 0.0000E+00 0.9000E+01
        2  1    1    2  501    0 -.11237421E+03 -.41700625E+03 0.11233943E+04 0.12035518E+04 0.32000000E+00 0.0000E+00 0.9000E+01
        3  1    1    2  502    0 0.19999871E+01 -.86268330E+02 -.13190662E+04 0.13218858E+04 0.50000000E+00 0.0000E+00 0.9000E+01
#aMCatNLO 1  0  0  2  5 0.17918640D+01 0.00000000D+00  -5  6  0 0.00000000D+00 0.00000000D+00 0.00000000D+00 0.00000000D+00 0.00000000D+00
  <mgrwgt>
 -.2397853091D-04    1    2    0
 0.152562601195597D+04 0.000000000000000D+00 0.000000000000000D+00 0.152562601195597D+04
 0.152562601195597D+04 0.000000000000000D+00 0.000000000000000D+00 -.152562601195597D+04
 0.532836177627270D+03 0.110372073998574D+03 0.503272423253484D+03 -.531438186646249D+02
 0.132053250956425D+04 -.112372105233170D+03 -.416998439749856D+03 0.124791462850136D+04
 0.119788333672043D+04 0.200003123459680D+01 -.862739835036285D+02 -.119477080983674D+04
 0.000000000000000D+00 -.000000000000000D+00 -.000000000000000D+00 -.000000000000000D+00
 0.155265272238639D+04 0.000000000000000D+00 0.000000000000000D+00 0.155265272238639D+04
 0.193004604754101D+04 0.000000000000000D+00 0.000000000000000D+00 -.193004604754101D+04
 0.566984913860298D+03 0.116966591335642D+03 0.537904678910893D+03 -.531438186646249D+02
 0.129561133549601D+04 -.966857303527072D+02 -.334618711646862D+03 0.124791462850136D+04
 0.119493259831565D+04 0.163473339824155D+02 -.109266257881959D+02 -.119477080983674D+04
 0.425169922255440D+03 -.366281949653502D+02 -.192359341475835D+03 -.377393325154620D+03
-.426849404374D-03 0.000000000000D+00 0.000000000000D+00 0.126384293794D-03 0.000000000000D+00  6 2 3 25 2 3 21 2 0.21263868D+00 0.25907600D+00 0.27475971D+06 0.27475971D+06 0.27475971D+06 0.10873871D+01  1  2 14  2  6  2        3 -.239785309120D-04 0.100000000000D+01
  </mgrwgt>
  </event>
  <event>
  5     66 0.17247933E-05 0.76556880E+02 0.75467711E-02 0.89490893E-01
        2 -1    0    0  501    0 0.00000000E+00 0.00000000E+00 0.14711899E+04 0.14711900E+04 0.32000000E+00 0.0000E+00 0.9000E+01
        3 -1    0    0  502    0 0.00000000E+00 0.00000000E+00 -.54584332E+03 0.54584355E+03 0.50000000E+00 0.0000E+00 0.9000E+01
       25  1    1    2    0    0 -.39882894E+03 -.21407078E+03 0.19797016E+02 0.47000824E+03 0.12500000E+03 0.0000E+00 0.9000E+01
        2  1    1    2  501    0 0.67348509E+02 0.36413883E+02 0.11142734E+04 0.11169007E+04 0.32000000E+00 0.0000E+00 0.9000E+01
        3  1    1    2  502    0 0.33148043E+03 0.17765690E+03 -.20872385E+03 0.43012457E+03 0.50000000E+00 0.0000E+00 0.9000E+01
#aMCatNLO 1  0  0  1  4 0.22085446D+03 0.00000000D+00  -5  6  0 0.00000000D+00 0.00000000D+00 0.00000000D+00 0.00000000D+00 0.00000000D+00
  <mgrwgt>
 0.2200586140D-02    7    2    0
 0.896124691114337D+03 0.000000000000000D+00 0.000000000000000D+00 0.896124691114337D+03
 0.896124691114337D+03 0.000000000000000D+00 0.000000000000000D+00 -.896124691114337D+03
 0.518752558517502D+03 -.398867336366035D+03 -.214091357658104D+03 -.220338275215244D+03
 0.681629301598108D+03 0.673437026252383D+02 0.364112846219009D+02 0.677316431858870D+03
 0.591867522113064D+03 0.331523633740797D+03 0.177680073036203D+03 -.456978156643626D+03
 0.000000000000000D+00 0.000000000000000D+00 -.000000000000000D+00 0.000000000000000D+00
 0.132815983466375D+04 0.000000000000000D+00 0.000000000000000D+00 0.132815983466375D+04
 0.116292276260399D+04 0.000000000000000D+00 0.000000000000000D+00 -.116292276260399D+04
 0.674495895314219D+03 -.588154286795349D+03 -.211767070610981D+03 -.220338275215244D+03
 0.695053530268109D+03 -.151041742682112D+03 0.390928770964846D+02 0.677316431858870D+03
 0.515242968460699D+03 0.155900889059191D+03 0.179836574948870D+03 -.456978156643626D+03
 0.606290203224711D+03 0.583295140418270D+03 -.716238143437384D+01 0.165237072059755D+03
0.122530042277D-02 0.000000000000D+00 0.000000000000D+00 0.102829077464D-04 0.000000000000D+00  6 2 3 25 2 3 21 0 0.22633693D+00 0.83975916D-01 0.21267121D+06 0.21267121D+06 0.21267121D+06 0.10957822D+01  1  2  2  1  6  1        2 0.186456693051D-02 0.100000000000D+01
0.346459288804D-03 0.000000000000D+00 -.470547625245D-05 0.102829077464D-04 0.000000000000D+00  6 2 3 25 2 3 21 2 0.22633693D+00 0.83975916D-01 0.21267121D+06 0.21267121D+06 0.21267121D+06 0.10957822D+01  1  2  3  1  6  1        2 0.633047248311D-03 0.100000000000D+01
-.717106576710D-03 0.000000000000D+00 0.000000000000D+00 0.102829077464D-04 0.000000000000D+00  6 2 3 25 2 3 21 2 0.22633693D+00 0.83975916D-01 0.21267121D+06 0.21267121D+06 0.21267121D+06 0.10957822D+01  1  2 15  1  6  1        2 -.131029058767D-02 0.100000000000D+01
-.331067070344D-04 0.000000000000D+00 0.000000000000D+00 0.102829077464D-04 0.000000000000D+00  6 2 3 25 2 3 21 2 0.22633693D+00 0.83975916D-01 0.21267121D+06 0.21267121D+06 0.21267121D+06 0.10957822D+01  1  2  4  1  6  1        2 -.604922727317D-04 0.100000000000D+01
-.316106367089D-03 0.000000000000D+00 -.717800830653D-03 0.102829077464D-04 0.000000000000D+00  6 2 3 25 2 3 21 2 0.37789194D+00 0.83975916D-01 0.21267121D+06 0.21267121D+06 0.21267121D+06 0.10957822D+01  1  2  5  1  6  1        2 -.166027846686D-03 0.100000000000D+01
0.677977124836D-03 0.000000000000D+00 0.632829185101D-03 0.102829077464D-04 0.000000000000D+00  6 2 3 25 2 3 21 2 0.22633693D+00 0.83975916D-01 0.21267121D+06 0.21267121D+06 0.21267121D+06 0.10957822D+01  1  2  6  1  6  1        2 0.123879361058D-02 0.100000000000D+01
0.151036435233D-04 0.000000000000D+00 -.412815161790D-04 0.102829077464D-04 0.000000000000D+00  6 21 3 25 2 3 -2 2 0.37789194D+00 0.83975916D-01 0.21267121D+06 0.21267121D+06 0.21267121D+06 0.10957822D+01  1  2  5  5  6  1        2 0.989057732983D-06 0.100000000000D+01
  </mgrwgt>
  </event>
  <event>
  6     66 0.17247933E-05 0.14419834E+03 0.75467711E-02 0.93823991E-01
        2 -1    0    0  501    0 0.00000000E+00 0.00000000E+00 0.25304433E+04 0.25304433E+04 0.32000000E+00 0.0000E+00 0.9000E+01
        3 -1    0    0  502    0 0.00000000E+00 0.00000000E+00 -.71403750E+03 0.71403768E+03 0.50000000E+00 0.0000E+00 0.9000E+01
       25  1    1    2    0    0 0.28616824E+03 -.42097527E+03 0.35726958E+03 0.63433350E+03 0.12500000E+03 0.0000E+00 0.9000E+01
        2  1    1    2  501    0 0.63020196E+01 0.20629737E+02 0.18969800E+04 0.18971027E+04 0.32000000E+00 0.0000E+00 0.9000E+01
        3  1    1    2  503    0 -.11800658E+02 0.15466687E+03 -.25295988E+03 0.29673228E+03 0.50000000E+00 0.0000E+00 0.9000E+01
       21  1    1    2  502  503 -.28066960E+03 0.24567867E+03 -.18488398E+03 0.41631248E+03 0.75000000E+00 0.0000E+00 0.9000E+01
#aMCatNLO 2  0  0  5  2 0.32569720D+02 0.00000000D+00  -5  6  0 0.00000000D+00 0.00000000D+00 0.00000000D+00 0.00000000D+00 0.00000000D+00
  <mgrwgt>
 0.1953177326D-02    1    2    0
 0.134418440143475D+04 0.000000000000000D+00 0.000000000000000D+00 0.134418440143475D+04
 0.134418440143475D+04 -.000000000000000D+00 -.000000000000000D+00 -.134418440143475D+04
 0.526854804948649D+03 0.287771864353257D+03 -.423169906337197D+03 0.809752769040230D+01
 0.101832013058704D+04 0.936325063072982D+01 0.164384568351429D+02 0.101814438810677D+04
 0.114319386733381D+04 -.297135114983986D+03 0.406731449502054D+03 -.102624191579717D+04
 0.000000000000000D+00 -.000000000000000D+00 0.000000000000000D+00 0.000000000000000D+00
 0.134418440143475D+04 0.000000000000000D+00 0.000000000000000D+00 0.134418440143475D+04
 0.134418440143475D+04 -.000000000000000D+00 -.000000000000000D+00 -.134418440143475D+04
 0.524185940085799D+03 0.286183911505456D+03 -.420996247516826D+03 0.261307401749892D+01
 0.100780269689071D+04 0.630210620879620D+01 0.206286842605863D+02 0.100757184195629D+04
 0.528641707533702D+03 -.117203249929149D+02 0.154539470279445D+03 -.505412941120385D+03
 0.627738458359295D+03 -.280765692721337D+03 0.245828092976795D+03 -.504771974853403D+03
0.810627404146D-02 0.000000000000D+00 0.000000000000D+00 0.148185417735D-03 0.657533774166D-08  6 2 3 25 2 3 21 2 0.38929898D+00 0.10985194D+00 0.28832026D+06 0.28832026D+06 0.28832026D+06 0.10858301D+01  1  2  1  4  6  5        3 0.195317732596D-02 0.100000000000D+01
  </mgrwgt>
  </event>
  <event>
  6     66 -.17247933E-05 0.41286404E+02 0.75467711E-02 0.94672722E-01
        4 -1    0    0  501    0 0.00000000E+00 0.00000000E+00 0.47412100E+03 0.47412353E+03 0.15500000E+01 0.0000E+00 0.9000E+01
        1 -1    0    0  502    0 -.00000000E+00 -.00000000E+00 -.94272296E+03 0.94272301E+03 0.32000000E+00 0.0000E+00 0.9000E+01
       25  1    1    2    0    0 -.38322034E+03 -.27651856E+03 -.66381434E+03 0.82437542E+03 0.12500000E+03 0.0000E+00 0.9000E+01
        4  1    1    2  503    0 0.31010866E+03 0.14815904E+03 0.20280160E+03 0.39906061E+03 0.15500000E+01 0.0000E+00 0.9000E+01
        1  1    1    2  502    0 -.49270226E+01 0.57853472E+02 -.53219782E+02 0.78763871E+02 0.32000000E+00 0.0000E+00 0.9000E+01
       21  1    1    2  501  503 0.78038704E+02 0.70506045E+02 0.45630568E+02 0.11464664E+03 0.75000000E+00 0.0000E+00 0.9000E+01
#aMCatNLO 2  0  0  4  1 0.25072419D+02 0.00000000D+00  -5  6  0 0.00000000D+00 0.00000000D+00 0.00000000D+00 0.00000000D+00 0.00000000D+00
  <mgrwgt>
 -.1358548262D-04    2    2    0
 0.668555592572032D+03 0.000000000000000D+00 0.000000000000000D+00 0.668555592572032D+03
 0.668555592572032D+03 -.000000000000000D+00 -.000000000000000D+00 -.668555592572032D+03
 0.642195662654319D+03 -.384098764716863D+03 -.277104427533006D+03 -.415296935115834D+03
 0.629935902102948D+03 0.389055024964788D+03 0.219176426178941D+03 0.444316466626357D+03
 0.649796203867955D+02 -.495626024792489D+01 0.579280013540658D+02 -.290195315105231D+02
 0.000000000000000D+00 0.000000000000000D+00 0.000000000000000D+00 0.000000000000000D+00
 0.668555592572032D+03 0.000000000000000D+00 0.000000000000000D+00 0.668555592572032D+03
 0.668555592572032D+03 -.000000000000000D+00 -.000000000000000D+00 -.668555592572032D+03
 0.640818886576201D+03 -.383227188800297D+03 -.276613420137449D+03 -.414301560408414D+03
 0.493568332303649D+03 0.309891391326227D+03 0.148004724048029D+03 0.354501940607337D+03
 0.649723544808450D+02 -.486798142702402D+01 0.579777337446810D+02 -.289187135509448D+02
 0.137751611783368D+03 0.782037789010941D+02 0.706309623447395D+02 0.887183333520216D+02
-.320208116753D-04 0.000000000000D+00 0.000000000000D+00 0.283311283716D-07 0.000000000000D+00  6 4 1 25 4 1 21 2 0.72941891D-01 0.14503450D+00 0.24793451D+06 0.24793451D+06 0.24793451D+06 0.10907303D+01  1  2 13  3  6  4        4 -.563083275930D-04 0.100000000000D+01
0.242951661277D-04 0.000000000000D+00 0.000000000000D+00 0.283311283716D-07 0.149404775304D-09  6 4 1 25 4 1 21 2 0.72941891D-01 0.14503450D+00 0.24793451D+06 0.24793451D+06 0.24793451D+06 0.10907303D+01  1  2  1  3  6  4        4 0.427228449772D-04 0.100000000000D+01
  </mgrwgt>
  </event>
  <event>
  5     66 0.17247933E-05 0.67422878E+02 0.75467711E-02 0.94109227E-01
        2 -1    0    0  501    0 0.00000000E+00 0.00000000E+00 0.64968887E+03 0.64968895E+03 0.32000000E+00 0.0000E+00 0.9000E+01
        3 -1    0    0  502    0 0.00000000E+00 0.00000000E+00 -.78090466E+03 0.78090482E+03 0.50000000E+00 0.0000E+00 0.9000E+01
       25  1    1    2    0    0 0.29812028E+03 -.37740020E+03 0.48628680E+02 0.49929586E+03 0.12500000E+03 0.0000E+00 0.9000E+01
        2  1    1    2  501    0 -.12016082E+02 0.66375314E+02 0.29094167E+03 0.29865904E+03 0.32000000E+00 0.0000E+00 0.9000E+01
        3  1    1    2  502    0 -.28610420E+03 0.31102488E+03 -.47078614E+03 0.63263886E+03 0.50000000E+00 0.0000E+00 0.9000E+01
#aMCatNLO 1  0  0  2  5 0.51047238D+02 0.00000000D+00  -5  6  0 0.00000000D+00 0.00000000D+00 0.00000000D+00 0.00000000D+00 0.00000000D+00
  <mgrwgt>
 0.5791977990D-03    9    2    0
 0.712281712405659D+03 0.000000000000000D+00 0.000000000000000D+00 0.712281712405659D+03
 0.712281712405659D+03 0.000000000000000D+00 0.000000000000000D+00 -.712281712405659D+03
 0.505978553279592D+03 0.298174531728895D+03 -.377442469879956D+03 0.949653986359349D+02
 0.326569936270005D+03 -.120105032925111D+02 0.663444965658525D+02 0.319534159146529D+03
 0.592014935261721D+03 -.286164028436384D+03 0.311097973314103D+03 -.414499557782464D+03
 0.000000000000000D+00 0.000000000000000D+00 -.000000000000000D+00 -.000000000000000D+00
 0.719159271065127D+03 0.000000000000000D+00 0.000000000000000D+00 0.719159271065127D+03
 0.814205245408898D+03 0.000000000000000D+00 0.000000000000000D+00 -.814205245408898D+03
 0.494084395458667D+03 0.280389748262861D+03 -.375309941204286D+03 0.949653986359349D+02
 0.327489889245111D+03 -.236420834698334D+02 0.677392101039096D+02 0.319534159146529D+03
 0.603903449874694D+03 -.307431839177233D+03 0.313648143034201D+03 -.414499557782464D+03
 0.107886781895553D+03 0.506841743842052D+02 -.607741193382465D+01 -.950459743437708D+02
0.409656600211D-04 0.000000000000D+00 0.000000000000D+00 0.202272754134D-05 0.000000000000D+00  6 2 3 25 2 3 21 0 0.99952152D-01 0.12013920D+00 0.24359434D+06 0.24359434D+06 0.24359434D+06 0.10913082D+01  1  2  2  2  6  2        3 0.849015246024D-04 0.100000000000D+01
0.950829561197D-05 0.000000000000D+00 -.157318920987D-06 0.202272754134D-05 0.000000000000D+00  6 2 3 25 2 3 21 2 0.99952152D-01 0.12013920D+00 0.24359434D+06 0.24359434D+06 0.24359434D+06 0.10913082D+01  1  2  3  2  6  2        3 0.234689155849D-04 0.100000000000D+01
-.231905282070D-04 0.000000000000D+00 0.000000000000D+00 0.202272754134D-05 0.000000000000D+00  6 2 3 25 2 3 21 2 0.99952152D-01 0.12013920D+00 0.24359434D+06 0.24359434D+06 0.24359434D+06 0.10913082D+01  1  2 15  2  6  2        3 -.572401796358D-04 0.100000000000D+01
0.364837929444D-03 0.000000000000D+00 0.000000000000D+00 0.202272754134D-05 0.000000000000D+00  6 2 3 25 2 3 21 2 0.99952152D-01 0.14204153D+00 0.27397772D+06 0.27397772D+06 0.27397772D+06 0.10874794D+01  1  2 12  2  6  2        3 0.565450403877D-03 0.100000000000D+01
-.167524496110D-03 0.000000000000D+00 0.000000000000D+00 0.202272754134D-05 0.000000000000D+00  6 2 3 25 2 3 21 2 0.99952152D-01 0.12013920D+00 0.24359434D+06 0.24359434D+06 0.24359434D+06 0.10913082D+01  1  2  4  2  6  2        3 -.413493481696D-03 0.100000000000D+01
-.599882402358D-03 0.000000000000D+00 -.599940763182D-04 0.202272754134D-05 0.000000000000D+00  6 2 3 25 2 3 21 2 0.99952152D-01 0.13795035D+00 0.24359434D+06 0.24359434D+06 0.24359434D+06 0.10913082D+01  1  2  5  2  6  2        3 -.102141777320D-02 0.100000000000D+01
0.602973975684D-03 0.000000000000D+00 0.594253304373D-04 0.202272754134D-05 0.000000000000D+00  6 2 3 25 2 3 21 2 0.99952152D-01 0.12013920D+00 0.24359434D+06 0.24359434D+06 0.24359434D+06 0.10913082D+01  1  2  6  2  6  2        3 0.148829463373D-02 0.100000000000D+01
0.909041029810D-05 0.000000000000D+00 0.000000000000D+00 0.202272754134D-05 0.000000000000D+00  6 2 21 25 2 3 -3 2 0.99952152D-01 0.14204153D+00 0.27397772D+06 0.27397772D+06 0.27397772D+06 0.10874794D+01  1  2 12  6  6  2        3 0.176419038554D-03 0.100000000000D+01
-.124434229841D-04 0.000000000000D+00 -.128040154114D-05 0.202272754134D-05 0.000000000000D+00  6 2 21 25 2 3 -3 2 0.99952152D-01 0.13795035D+00 0.24359434D+06 0.24359434D+06 0.24359434D+06 0.10913082D+01  1  2  5  6  6  2        3 -.267185282800D-03 0.100000000000D+01
  </mgrwgt>
  </event>
  <event>
  5     66 0.17247933E-05 0.28467273E+02 0.75467711E-02 0.93562415E-01
        2 -1    0    0  501    0 0.00000000E+00 0.00000000E+00 0.36781612E+03 0.36781626E+03 0.32000000E+00 0.0000E+00 0.9000E+01
        3 -1    0    0  502    0 0.00000000E+00 0.00000000E+00 -.98076585E+03 0.98076598E+03 0.50000000E+00 0.0000E+00 0.9000E+01
       25  1    1    2    0    0 -.43578321E+03 -.19414055E+03 -.13572066E+03 0.51151017E+03 0.12500000E+03 0.0000E+00 0.9000E+01
        2  1    1    2  501    0 0.96028886E+01 -.26843654E+02 0.89739999E+02 0.94160326E+02 0.32000000E+00 0.0000E+00 0.9000E+01
        3  1    1    2  502    0 0.42618032E+03 0.22098420E+03 -.56696907E+03 0.74291174E+03 0.50000000E+00 0.0000E+00 0.9000E+01
#aMCatNLO 1  0  0  2  1 0.17411121D+03 0.00000000D+00  -5  6  0 0.00000000D+00 0.00000000D+00 0.00000000D+00 0.00000000D+00 0.00000000D+00
  <mgrwgt>
 0.8375782643D-04    7    2    0
 0.600617740796346D+03 0.000000000000000D+00 0.000000000000000D+00 0.600617740796346D+03
 0.600617740796346D+03 0.000000000000000D+00 0.000000000000000D+00 -.600617740796346D+03
 0.505150984362382D+03 -.435884354756972D+03 -.194222618331999D+03 0.108788422217824D+03
 0.151276304695178D+03 0.958863219317592D+01 -.268038015299890D+02 0.148573667648185D+03
 0.544808192535132D+03 0.426295722563797D+03 0.221026419861988D+03 -.257362089866010D+03
 0.000000000000000D+00 -.000000000000000D+00 0.000000000000000D+00 -.000000000000000D+00
 0.613154963080957D+03 0.000000000000000D+00 0.000000000000000D+00 0.613154963080957D+03
 0.768170361323715D+03 0.000000000000000D+00 0.000000000000000D+00 -.768170361323715D+03
 0.498691096870614D+03 -.414312389753579D+03 -.222661476205587D+03 0.108788422217824D+03
 0.153592587963633D+03 0.161400820736007D+02 -.354407408160495D+02 0.148573667648185D+03
 0.551993288014426D+03 0.449865329373888D+03 0.189954021121165D+03 -.257362089866010D+03
 0.177048351556000D+03 -.516930216939097D+02 0.681481959004710D+02 -.155015398242758D+03
0.156015610755D-03 0.000000000000D+00 0.000000000000D+00 0.788360237889D-06 0.000000000000D+00  6 2 3 25 2 3 21 0 0.56587116D-01 0.15088707D+00 0.25097754D+06 0.25097754D+06 0.25097754D+06 0.10903316D+01  1  2  2  2  6  2        3 0.328755150580D-03 0.100000000000D+01
0.559425210002D-04 0.000000000000D+00 -.599141025153D-06 0.788360237889D-06 0.000000000000D+00  6 2 3 25 2 3 21 2 0.56587116D-01 0.15088707D+00 0.25097754D+06 0.25097754D+06 0.25097754D+06 0.10903316D+01  1  2  3  2  6  2        3 0.140140532717D-03 0.100000000000D+01
-.820005881955D-04 0.000000000000D+00 0.000000000000D+00 0.788360237889D-06 0.000000000000D+00  6 2 3 25 2 3 21 2 0.56587116D-01 0.15088707D+00 0.25097754D+06 0.25097754D+06 0.25097754D+06 0.10903316D+01  1  2 15  2  6  2        3 -.205418095349D-03 0.100000000000D+01
-.478871720627D-03 0.000000000000D+00 0.000000000000D+00 0.788360237889D-06 0.000000000000D+00  6 2 3 25 2 3 21 2 0.56587116D-01 0.15088707D+00 0.25097754D+06 0.25097754D+06 0.25097754D+06 0.10903316D+01  1  2  4  2  6  2        3 -.119961233123D-02 0.100000000000D+01
-.105683684323D-02 0.000000000000D+00 -.129543914012D-03 0.788360237889D-06 0.000000000000D+00  6 2 3 25 2 3 21 2 0.56587116D-01 0.19463676D+00 0.25097754D+06 0.25097754D+06 0.25097754D+06 0.10903316D+01  1  2  5  2  6  2        3 -.115748669596D-02 0.100000000000D+01
0.105938529299D-02 0.000000000000D+00 0.125455702462D-03 0.788360237889D-06 0.000000000000D+00  6 2 3 25 2 3 21 2 0.56587116D-01 0.15088707D+00 0.25097754D+06 0.25097754D+06 0.25097754D+06 0.10903316D+01  1  2  6  2  6  2        3 0.265384570910D-02 0.100000000000D+01
-.340140662516D-04 0.000000000000D+00 -.444351455444D-05 0.788360237889D-06 0.000000000000D+00  6 2 21 25 2 3 -3 2 0.56587116D-01 0.19463676D+00 0.25097754D+06 0.25097754D+06 0.25097754D+06 0.10903316D+01  1  2  5  6  6  2        3 -.476466443418D-03 0.100000000000D+01
  </mgrwgt>
  </event>
  <event>
  5     66 0.17247933E-05 0.76167431E+02 0.75467711E-02 0.87864220E-01
        2 -1    0    0  501    0 0.00000000E+00 0.00000000E+00 0.26694916E+04 0.26694916E+04 0.32000000E+00 0.0000E+00 0.9000E+01
        3 -1    0    0  502    0 0.00000000E+00 0.00000000E+00 -.77360425E+03 0.77360441E+03 0.50000000E+00 0.0000E+00 0.9000E+01
       25  1    1    2    0    0 -.80966203E+03 -.36211724E+03 0.15983696E+03 0.90986502E+03 0.12500000E+03 0.0000E+00 0.9000E+01
        2  1    1    2  501    0 0.74000409E+03 0.33131728E+03 0.20529766E+04 0.22072812E+04 0.32000000E+00 0.0000E+00 0.9000E+01
        3  1    1    2  502    0 0.69657943E+02 0.30799958E+02 -.31692617E+03 0.32594986E+03 0.50000000E+00 0.0000E+00 0.9000E+01
#aMCatNLO 1  0  0  2  2 0.15972200D+03 0.00000000D+00  -5  6  0 0.00000000D+00 0.00000000D+00 0.00000000D+00 0.00000000D+00 0.00000000D+00
  <mgrwgt>
 0.5917444040D-04    7    2    0
 0.143705615048199D+04 0.000000000000000D+00 0.000000000000000D+00 0.143705615048199D+04
 0.143705615048199D+04 0.000000000000000D+00 0.000000000000000D+00 -.143705615048199D+04
 0.984532476890755D+03 -.809658482187174D+03 -.362115636244248D+03 -.408661970658429D+03
 0.129000959191168D+04 0.739996871158594D+03 0.331314053625386D+03 0.100337449427915D+04
 0.599570232161551D+03 0.696616110285800D+02 0.308015826188621D+02 -.594712523620726D+03
 0.000000000000000D+00 0.000000000000000D+00 0.000000000000000D+00 -.000000000000000D+00
 0.149159845421391D+04 0.000000000000000D+00 0.000000000000000D+00 0.149159845421391D+04
 0.156116135492652D+04 0.000000000000000D+00 0.000000000000000D+00 -.156116135492652D+04
 0.103041298859512D+04 -.845666095573467D+03 -.404932309899603D+03 -.408661970658429D+03
 0.125144034036892D+04 0.694580482392898D+03 0.277309399789436D+03 0.100337449427915D+04
 0.596693637141473D+03 0.482840563246524D+02 0.538152010352801D+01 -.594712523620726D+03
 0.174212843034915D+03 0.102801556855917D+03 0.122241390006640D+03 -.695629007126078D+02
0.270904332608D-03 0.000000000000D+00 0.000000000000D+00 0.237155516150D-05 0.000000000000D+00  6 2 3 25 2 3 21 0 0.41069103D+00 0.11901605D+00 0.79446855D+06 0.79446855D+06 0.79446855D+06 0.10545810D+01  1  2  2  2  6  2        3 0.345282169560D-04 0.100000000000D+01
0.927847432396D-04 0.000000000000D+00 -.104034396797D-05 0.237155516150D-05 0.000000000000D+00  6 2 3 25 2 3 21 2 0.41069103D+00 0.11901605D+00 0.79446855D+06 0.79446855D+06 0.79446855D+06 0.10545810D+01  1  2  3  2  6  2        3 0.131520863510D-04 0.100000000000D+01
-.174643901775D-03 0.000000000000D+00 0.000000000000D+00 0.237155516150D-05 0.000000000000D+00  6 2 3 25 2 3 21 2 0.41069103D+00 0.11901605D+00 0.79446855D+06 0.79446855D+06 0.79446855D+06 0.10545810D+01  1  2 15  2  6  2        3 -.247554888513D-04 0.100000000000D+01
-.155091769474D-04 0.000000000000D+00 0.000000000000D+00 0.237155516150D-05 0.000000000000D+00  6 2 3 25 2 3 21 2 0.41069103D+00 0.11901605D+00 0.79446855D+06 0.79446855D+06 0.79446855D+06 0.10545810D+01  1  2  4  2  6  2        3 -.219840059177D-05 0.100000000000D+01
-.200057534953D-02 0.000000000000D+00 -.468368173617D-03 0.237155516150D-05 0.000000000000D+00  6 2 3 25 2 3 21 2 0.41069103D+00 0.13360497D+00 0.79446855D+06 0.79446855D+06 0.79446855D+06 0.10545810D+01  1  2  5  2  6  2        3 -.207590535884D-03 0.100000000000D+01
0.204416547152D-02 0.000000000000D+00 0.465254462398D-03 0.237155516150D-05 0.000000000000D+00  6 2 3 25 2 3 21 2 0.41069103D+00 0.11901605D+00 0.79446855D+06 0.79446855D+06 0.79446855D+06 0.10545810D+01  1  2  6  2  6  2        3 0.289757128797D-03 0.100000000000D+01
-.347661204437D-04 0.000000000000D+00 -.861295461432D-05 0.237155516150D-05 0.000000000000D+00  6 2 21 25 2 3 -3 2 0.41069103D+00 0.13360497D+00 0.79446855D+06 0.79446855D+06 0.79446855D+06 0.10545810D+01  1  2  5  6  6  2        3 -.437185663727D-04 0.100000000000D+01
  </mgrwgt>
  </event>
  <event>
  6     66 0.17247933E-05 0.19124099E+03 0.75467711E-02 0.92719482E-01
        2 -1    0    0  501    0 0.00000000E+00 0.00000000E+00 0.29593848E+04 0.29593848E+04 0.32000000E+00 0.0000E+00 0.9000E+01
        3 -1    0    0  502    0 0.00000000E+00 0.00000000E+00 -.28577569E+03 0.28577612E+03 0.50000000E+00 0.0000E+00 0.9000E+01
       25  1    1    2    0    0 0.50818450E+03 -.21148475E+03 0.16315696E+04 0.17264477E+04 0.12500000E+03 0.0000E+00 0.9000E+01
        2  1    1    2  503    0 -.19220596E+03 0.22742087E+03 0.53769230E+03 0.61463526E+03 0.32000000E+00 0.0000E+00 0.9000E+01
        3  1    1    2  502    0 -.57635513E+02 -.33556921E+02 -.16952177E+03 0.18216970E+03 0.50000000E+00 0.0000E+00 0.9000E+01
       21  1    1    2  501  503 -.25834302E+03 0.17620801E+02 0.67386894E+03 0.72190825E+03 0.75000000E+00 0.0000E+00 0.9000E+01
#aMCatNLO 2  0  0  4  1 0.29584993D+02 0.00000000D+00  -5  6  0 0.00000000D+00 0.00000000D+00 0.00000000D+00 0.00000000D+00 0.00000000D+00
  <mgrwgt>
 0.6644091205D-03    1    2    0
 0.919630873615009D+03 0.000000000000000D+00 0.000000000000000D+00 0.919630873615009D+03
 0.919630873615009D+03 -.000000000000000D+00 -.000000000000000D+00 -.919630873615009D+03
 0.684798758261091D+03 0.522786104498010D+03 -.219389867124522D+03 0.363162655655578D+03
 0.581573492454681D+03 -.477604664016439D+03 0.259756541592295D+03 0.206514045855699D+03
 0.572889496514246D+03 -.451814404815713D+02 -.403666744677728D+02 -.569676701511278D+03
 0.000000000000000D+00 0.000000000000000D+00 0.000000000000000D+00 0.000000000000000D+00
 0.919630873615009D+03 0.000000000000000D+00 0.000000000000000D+00 0.919630873615009D+03
 0.919630873615009D+03 -.000000000000000D+00 -.000000000000000D+00 -.919630873615009D+03
 0.674428368233180D+03 0.507918910326539D+03 -.211303993530479D+03 0.369591161594053D+03
 0.302272489719617D+03 -.191743705881769D+03 0.227093665689630D+03 0.550588439732267D+02
 0.568211432176423D+03 -.576627754589320D+02 -.335784065708275D+02 -.564279830044029D+03
 0.294349457100799D+03 -.258512428985838D+03 0.177887344116760D+02 0.139629824476750D+03
0.682906747588D-03 0.000000000000D+00 0.000000000000D+00 0.113276046689D-05 0.144540291004D-09  6 2 3 25 2 3 21 2 0.45529000D+00 0.43965525D-01 0.35236593D+06 0.35236593D+06 0.35236593D+06 0.10794199D+01  1  2  1  3  6  4        2 0.664409120461D-03 0.100000000000D+01
  </mgrwgt>
  </event>
  <event>
  6     66 0.17247933E-05 0.11493962E+04 0.75467711E-02 0.82814082E-01
        2 -1    0    0  501    0 0.00000000E+00 0.00000000E+00 0.22941439E+04 0.22941439E+04 0.32000000E+00 0.0000E+00 0.9000E+01
       21 -1    0    0  502  503 0.00000000E+00 0.00000000E+00 -.12182579E+04 0.12182582E+04 0.75000000E+00 0.0000E+00 0.9000E+01
       25  1    1    2    0    0 0.60046432E+03 0.13276658E+03 0.29566822E+01 0.62754928E+03 0.12500000E+03 0.0000E+00 0.9000E+01
        2  1    1    2  501    0 -.66087315E+03 -.13222262E+04 0.68041683E+03 0.16272685E+04 0.32000000E+00 0.0000E+00 0.9000E+01
        3  1    1    2  502    0 0.22116592E+02 0.51827216E+03 0.22039766E+03 0.56362271E+03 0.50000000E+00 0.0000E+00 0.9000E+01
       -3  1    1    2    0  503 0.38292238E+02 0.67118749E+03 0.17211479E+03 0.69396159E+03 0.50000000E+00 0.0000E+00 0.9000E+01
#aMCatNLO 2  0  0  2  1 0.67227892D+03 0.00000000D+00  -5  6  0 0.00000000D+00 0.00000000D+00 0.00000000D+00 0.00000000D+00 0.00000000D+00
  <mgrwgt>
 0.8039287071D-02    1    2    0
 0.129178610657728D+04 0.000000000000000D+00 0.000000000000000D+00 0.129178610657728D+04
 0.129178610657728D+04 0.000000000000000D+00 0.000000000000000D+00 -.129178610657728D+04
 0.726959301347094D+03 0.610590864885466D+03 0.310167378542378D+03 -.209331839005973D+03
 0.118388035158542D+04 -.641397446612901D+03 -.980888065265067D+03 0.167453294291327D+03
 0.672732560222040D+03 0.308065817274347D+02 0.670720686722689D+03 0.418785447146463D+02
 0.000000000000000D+00 0.000000000000000D+00 0.000000000000000D+00 -.000000000000000D+00
 0.164538300224645D+04 0.000000000000000D+00 0.000000000000000D+00 0.164538300224645D+04
 0.169860700548806D+04 0.000000000000000D+00 0.000000000000000D+00 -.169860700548806D+04
 0.661539342912072D+03 0.600469619623974D+03 0.132761889514847D+03 -.209331839005973D+03
 0.148763646497256D+04 -.660871053614520D+03 -.132222203000913D+04 0.167453294291327D+03
 0.520431714356059D+03 0.221091960222449D+02 0.518272650495296D+03 0.418785447146463D+02
 0.674382485493822D+03 0.382922379683008D+02 0.671187489998987D+03 -.532240032416118D+02
0.135497155610D-01 0.000000000000D+00 0.000000000000D+00 0.269661072405D-10 0.841359033211D-11  6 2 21 25 2 3 -3 2 0.35294521D+00 0.18742430D+00 0.27171421D+07 0.27171421D+07 0.27171421D+07 0.10201335D+01  1  2  1  6  6  2        3 0.803928707118D-02 0.100000000000D+01
  </mgrwgt>
  </event>
  <event>
  5     66 0.17247933E-05 0.22907748E+03 0.75467711E-02 0.92170988E-01
        2 -1    0    0  501    0 0.00000000E+00 0.00000000E+00 0.22768756E+04 0.22768757E+04 0.32000000E+00 0.0000E+00 0.9000E+01
        3 -1    0    0  502    0 0.00000000E+00 0.00000000E+00 -.47672171E+03 0.47672198E+03 0.50000000E+00 0.0000E+00 0.9000E+01
       25  1    1    2    0    0 0.44470884E+03 0.40451780E+03 0.12241724E+04 0.13695341E+04 0.12500000E+03 0.0000E+00 0.9000E+01
        2  1    1    2  501    0 -.27965724E+03 -.24571704E+03 0.90763201E+03 0.98101019E+03 0.32000000E+00 0.0000E+00 0.9000E+01
        3  1    1    2  502    0 -.16505160E+03 -.15880076E+03 -.33165048E+03 0.40305335E+03 0.50000000E+00 0.0000E+00 0.9000E+01
#aMCatNLO 1  0  0  1  4 0.26994098D+02 0.00000000D+00  -5  6  0 0.00000000D+00 0.00000000D+00 0.00000000D+00 0.00000000D+00 0.00000000D+00
  <mgrwgt>
 0.3785091215D-03    9    2    0
 0.104184281719687D+04 0.000000000000000D+00 0.000000000000000D+00 0.104184281719687D+04
 0.104184281719687D+04 0.000000000000000D+00 0.000000000000000D+00 -.104184281719687D+04
 0.752300357129531D+03 0.444654997533115D+03 0.404472438732312D+03 0.434758331503815D+03
 0.512132469160173D+03 -.279576874365950D+03 -.245646423567960D+03 0.351815678837842D+03
 0.819252808104030D+03 -.165078123167165D+03 -.158826015164352D+03 -.786574010341657D+03
 0.000000000000000D+00 0.000000000000000D+00 0.000000000000000D+00 0.000000000000000D+00
 0.109269125944786D+04 0.000000000000000D+00 0.000000000000000D+00 0.109269125944786D+04
 0.104551902443813D+04 0.000000000000000D+00 0.000000000000000D+00 -.104551902443813D+04
 0.745588385055606D+03 0.435192195188026D+03 0.402330692795457D+03 0.434758331503815D+03
 0.516410505524524D+03 -.286074619224272D+03 -.247117078680634D+03 0.351815678837842D+03
 0.821861590425294D+03 -.175445743098874D+03 -.161172551322863D+03 -.786574010341657D+03
 0.543498028805726D+02 0.263281671351204D+02 0.595893720803981D+01 0.471722350097269D+02
0.476185493145D-04 0.000000000000D+00 0.000000000000D+00 0.296777999229D-06 0.000000000000D+00  6 2 3 25 2 3 21 0 0.35028858D+00 0.73341824D-01 0.36917523D+06 0.36917523D+06 0.36917523D+06 0.10779473D+01  1  2  2  1  6  1        2 0.344836181413D-04 0.100000000000D+01
0.451557610528D-05 0.000000000000D+00 -.182867767620D-06 0.296777999229D-06 0.000000000000D+00  6 2 3 25 2 3 21 2 0.35028858D+00 0.73341824D-01 0.36917523D+06 0.36917523D+06 0.36917523D+06 0.10779473D+01  1  2  3  1  6  1        2 0.379966159131D-05 0.100000000000D+01
-.297331303678D-04 0.000000000000D+00 0.000000000000D+00 0.296777999229D-06 0.000000000000D+00  6 2 3 25 2 3 21 2 0.35028858D+00 0.73341824D-01 0.36917523D+06 0.36917523D+06 0.36917523D+06 0.10779473D+01  1  2 15  1  6  1        2 -.250191405956D-04 0.100000000000D+01
0.450556776974D-03 0.000000000000D+00 0.000000000000D+00 0.296777999229D-06 0.000000000000D+00  6 2 3 25 2 3 21 2 0.37540184D+00 0.73341824D-01 0.38998383D+06 0.38998383D+06 0.38998383D+06 0.10762225D+01  1  2 12  1  6  1        2 0.303988564555D-03 0.100000000000D+01
-.210629427175D-03 0.000000000000D+00 0.000000000000D+00 0.296777999229D-06 0.000000000000D+00  6 2 3 25 2 3 21 2 0.35028858D+00 0.73341824D-01 0.36917523D+06 0.36917523D+06 0.36917523D+06 0.10779473D+01  1  2  4  1  6  1        2 -.177235534464D-03 0.100000000000D+01
-.200859277865D-02 0.000000000000D+00 -.174142249957D-03 0.296777999229D-06 0.000000000000D+00  6 2 3 25 2 3 21 2 0.36780400D+00 0.73341824D-01 0.36917523D+06 0.36917523D+06 0.36917523D+06 0.10779473D+01  1  2  5  1  6  1        2 -.145624281370D-02 0.100000000000D+01
0.201489781131D-02 0.000000000000D+00 0.173935161533D-03 0.296777999229D-06 0.000000000000D+00  6 2 3 25 2 3 21 2 0.35028858D+00 0.73341824D-01 0.36917523D+06 0.36917523D+06 0.36917523D+06 0.10779473D+01  1  2  6  1  6  1        2 0.169544918424D-02 0.100000000000D+01
0.106233311426D-04 0.000000000000D+00 0.000000000000D+00 0.296777999229D-06 0.000000000000D+00  6 21 3 25 2 3 -2 2 0.37540184D+00 0.73341824D-01 0.38998383D+06 0.38998383D+06 0.38998383D+06 0.10762225D+01  1  2 12  5  6  1        2 0.879244366623D-06 0.100000000000D+01
-.169569274244D-04 0.000000000000D+00 -.148281401657D-05 0.296777999229D-06 0.000000000000D+00  6 21 3 25 2 3 -2 2 0.36780400D+00 0.73341824D-01 0.36917523D+06 0.36917523D+06 0.36917523D+06 0.10779473D+01  1  2  5  5  6  1        2 -.159366261612D-05 0.100000000000D+01
  </mgrwgt>
  </event>
  <event>
  5     66 -.17247933E-05 0.11262584E+03 0.75467711E-02 0.94808902E-01
        2 -1    0    0  501    0 0.00000000E+00 0.00000000E+00 0.21309959E+04 0.21309960E+04 0.32000000E+00 0.0000E+00 0.9000E+01
        3 -1    0    0  502    0 0.00000000E+00 0.00000000E+00 -.22605776E+03 0.22605831E+03 0.50000000E+00 0.0000E+00 0.9000E+01
       25  1    1    2    0    0 -.37966598E+03 -.28017605E+03 0.86898589E+03 0.99669772E+03 0.12500000E+03 0.0000E+00 0.9000E+01
        2  1    1    2  501    0 0.10820779E+03 0.31412593E+02 0.98173964E+03 0.98818445E+03 0.32000000E+00 0.0000E+00 0.9000E+01
        3  1    1    2  502    0 0.27145819E+03 0.24876346E+03 0.54212642E+02 0.37217209E+03 0.50000000E+00 0.0000E+00 0.9000E+01
#aMCatNLO 1  0  0  2  5 0.18422334D+02 0.00000000D+00  -5  6  0 0.00000000D+00 0.00000000D+00 0.00000000D+00 0.00000000D+00 0.00000000D+00
  <mgrwgt>
 -.3976428754D-03    9    2    0
 0.694066883710573D+03 0.000000000000000D+00 0.000000000000000D+00 0.694066883710573D+03
 0.694066883710573D+03 0.000000000000000D+00 0.000000000000000D+00 -.694066883710573D+03
 0.499956957559735D+03 -.379687313420726D+03 -.280217183884046D+03 0.107925128194654D+03
 0.330551839448836D+03 0.108160486577837D+03 0.313988618655610D+02 0.310773131367244D+03
 0.557624970412575D+03 0.271526826842889D+03 0.248818322018485D+03 -.418698259561898D+03
 0.000000000000000D+00 0.000000000000000D+00 -.000000000000000D+00 -.000000000000000D+00
 0.695015384307074D+03 0.000000000000000D+00 0.000000000000000D+00 0.695015384307074D+03
 0.789741471590497D+03 0.000000000000000D+00 0.000000000000000D+00 -.789741471590497D+03
 0.503787095729881D+03 -.386077351837045D+03 -.278339510178866D+03 0.107925128194654D+03
 0.329321222879963D+03 0.103959600700251D+03 0.326332664867697D+02 0.310773131367244D+03
 0.555147687551353D+03 0.264442690194991D+03 0.250899952243694D+03 -.418698259561898D+03
 0.965008497363734D+02 0.176750609418023D+02 -.519370855159861D+01 -.947260872834234D+02
0.390512153625D-05 0.000000000000D+00 0.000000000000D+00 0.788933270268D-06 0.000000000000D+00  6 2 3 25 2 3 21 0 0.32784557D+00 0.34778161D-01 0.23478133D+06 0.23478133D+06 0.23478133D+06 0.10925171D+01  1  2  2  2  6  2        3 0.160719486884D-04 0.100000000000D+01
0.496339414074D-06 0.000000000000D+00 -.149966949413D-07 0.788933270268D-06 0.000000000000D+00  6 2 3 25 2 3 21 2 0.32784557D+00 0.34778161D-01 0.23478133D+06 0.23478133D+06 0.23478133D+06 0.10925171D+01  1  2  3  2  6  2        3 0.243819927520D-05 0.100000000000D+01
-.248514567397D-05 0.000000000000D+00 0.000000000000D+00 0.788933270268D-06 0.000000000000D+00  6 2 3 25 2 3 21 2 0.32784557D+00 0.34778161D-01 0.23478133D+06 0.23478133D+06 0.23478133D+06 0.10925171D+01  1  2 15  2  6  2        3 -.122079371680D-04 0.100000000000D+01
0.304094183110D-03 0.000000000000D+00 0.000000000000D+00 0.788933270268D-06 0.000000000000D+00  6 2 3 25 2 3 21 2 0.32784557D+00 0.39819888D-01 0.24206528D+06 0.24206528D+06 0.24206528D+06 0.10915145D+01  1  2 12  2  6  2        3 0.114600031206D-02 0.100000000000D+01
-.382372852185D-03 0.000000000000D+00 0.000000000000D+00 0.788933270268D-06 0.000000000000D+00  6 2 3 25 2 3 21 2 0.32784557D+00 0.34778161D-01 0.23478133D+06 0.23478133D+06 0.23478133D+06 0.10925171D+01  1  2  4  2  6  2        3 -.187835417582D-02 0.100000000000D+01
-.336154199922D-03 0.000000000000D+00 -.664680139572D-05 0.788933270268D-06 0.000000000000D+00  6 2 3 25 2 3 21 2 0.32784557D+00 0.39598570D-01 0.23478133D+06 0.23478133D+06 0.23478133D+06 0.10925171D+01  1  2  5  2  6  2        3 -.128472132953D-02 0.100000000000D+01
0.334252728015D-03 0.000000000000D+00 0.659119612310D-05 0.788933270268D-06 0.000000000000D+00  6 2 3 25 2 3 21 2 0.32784557D+00 0.34778161D-01 0.23478133D+06 0.23478133D+06 0.23478133D+06 0.10925171D+01  1  2  6  2  6  2        3 0.164197066779D-02 0.100000000000D+01
0.637911173008D-05 0.000000000000D+00 0.000000000000D+00 0.788933270268D-06 0.000000000000D+00  6 2 21 25 2 3 -3 2 0.32784557D+00 0.39819888D-01 0.24206528D+06 0.24206528D+06 0.24206528D+06 0.10915145D+01  1  2 12  6  6  2        3 0.365239372132D-03 0.100000000000D+01
-.677512581351D-05 0.000000000000D+00 -.134667011752D-06 0.788933270268D-06 0.000000000000D+00  6 2 21 25 2 3 -3 2 0.32784557D+00 0.39598570D-01 0.23478133D+06 0.23478133D+06 0.23478133D+06 0.10925171D+01  1  2  5  6  6  2        3 -.394079932813D-03 0.100000000000D+01
  </mgrwgt>
  </event>
  <event>
  5     66 0.17247933E-05 0.37988154E+02 0.75467711E-02 0.93362929E-01
        2 -1    0    0  501    0 0.00000000E+00 0.00000000E+00 0.17179859E+04 0.17179859E+04 0.32000000E+00 0.0000E+00 0.9000E+01
        3 -1    0    0  502    0 0.00000000E+00 0.00000000E+00 -.32103766E+03 0.32103805E+03 0.50000000E+00 0.0000E+00 0.9000E+01
       25  1    1    2    0    0 -.27860763E+03 0.43825324E+03 0.47753196E+03 0.71648440E+03 0.12500000E+03 0.0000E+00 0.9000E+01
        2  1    1    2  501    0 0.25794376E+03 -.40638168E+03 0.10667886E+04 0.11703500E+04 0.32000000E+00 0.0000E+00 0.9000E+01
        3  1    1    2  502    0 0.20663868E+02 -.31871566E+02 -.14737238E+03 0.15218955E+03 0.50000000E+00 0.0000E+00 0.9000E+01
#aMCatNLO 1  0  0  5  5 0.31037729D+01 0.00000000D+00  -5  6  0 0.00000000D+00 0.00000000D+00 0.00000000D+00 0.00000000D+00 0.00000000D+00
  <mgrwgt>
 0.2267747810D-02    6    2    0
 0.742656440171959D+03 0.000000000000000D+00 0.000000000000000D+00 0.742656440171959D+03
 0.742656440171959D+03 -.000000000000000D+00 -.000000000000000D+00 -.742656440171959D+03
 0.534444489238083D+03 -.278599718804173D+03 0.438240721295766D+03 -.182531903336890D+02
 0.603299133047196D+03 0.257933651629046D+03 -.406365753921652D+03 0.363740222318747D+03
 0.347569258058638D+03 0.206660671751270D+02 -.318749673741144D+02 -.345487031985058D+03
 0.000000000000000D+00 0.000000000000000D+00 -.000000000000000D+00 0.000000000000000D+00
 0.742656440171959D+03 0.000000000000000D+00 0.000000000000000D+00 0.742656440171959D+03
 0.742656440171959D+03 -.000000000000000D+00 -.000000000000000D+00 -.742656440171959D+03
 0.534107572836843D+03 -.278303400782745D+03 0.437783685751202D+03 -.232069163077359D+02
 0.600443443904295D+03 0.258267459060027D+03 -.406880612451898D+03 0.358159763414450D+03
 0.129017418022556D+03 0.252906945210730D+02 0.320323864324967D+02 -.122391997872769D+03
 0.221744445580224D+03 -.525475279835502D+01 -.629354597318008D+02 -.212560849233945D+03
0.274600487756D-03 0.000000000000D+00 0.000000000000D+00 0.306095034390D-05 0.000000000000D+00  6 2 3 25 2 3 21 0 0.26430555D+00 0.49390442D-01 0.27743110D+06 0.27743110D+06 0.27743110D+06 0.10870738D+01  1  2  2  4  6  5        3 0.945400807157D-03 0.100000000000D+01
0.115999349792D-03 0.000000000000D+00 -.105453817695D-05 0.306095034390D-05 0.000000000000D+00  6 2 3 25 2 3 21 2 0.26430555D+00 0.49390442D-01 0.27743110D+06 0.27743110D+06 0.27743110D+06 0.10870738D+01  1  2  3  4  6  5        3 0.471941624622D-03 0.100000000000D+01
-.154840355392D-03 0.000000000000D+00 0.000000000000D+00 0.306095034390D-05 0.000000000000D+00  6 2 3 25 2 3 21 2 0.26430555D+00 0.49390442D-01 0.27743110D+06 0.27743110D+06 0.27743110D+06 0.10870738D+01  1  2 15  4  6  5        3 -.629965676633D-03 0.100000000000D+01
-.428189025499D-04 0.000000000000D+00 0.000000000000D+00 0.306095034390D-05 0.000000000000D+00  6 2 3 25 2 3 21 2 0.26430555D+00 0.49390442D-01 0.27743110D+06 0.27743110D+06 0.27743110D+06 0.10870738D+01  1  2  4  4  6  5        3 -.174208066425D-03 0.100000000000D+01
-.482504074890D-03 0.000000000000D+00 0.000000000000D+00 0.306095034390D-05 0.000000000000D+00  6 2 3 25 2 3 21 2 0.26430555D+00 0.49390442D-01 0.27743110D+06 0.27743110D+06 0.27743110D+06 0.10870738D+01  1  2  5  4  6  5        3 -.196306063265D-02 0.100000000000D+01
0.889185944594D-03 0.000000000000D+00 -.000000000000D+00 0.306095034390D-05 0.000000000000D+00  6 2 3 25 2 3 21 2 0.26430555D+00 0.49390442D-01 0.27743110D+06 0.27743110D+06 0.27743110D+06 0.10870738D+01  1  2  6  4  6  5        3 0.361763975431D-02 0.100000000000D+01
  </mgrwgt>
  </event>
  <event>
  5     66 -.17247933E-05 0.76636070E+02 0.75467711E-02 0.94320970E-01
        2 -1    0    0  501    0 0.00000000E+00 0.00000000E+00 0.25208420E+04 0.25208420E+04 0.32000000E+00 0.0000E+00 0.9000E+01
        3 -1    0    0  502    0 0.00000000E+00 0.00000000E+00 -.11019172E+04 0.11019173E+04 0.50000000E+00 0.0000E+00 0.9000E+01
       25  1    1    2    0    0 -.45252112E+03 0.18563559E+03 -.45250280E+03 0.67795259E+03 0.12500000E+03 0.0000E+00 0.9000E+01
        2  1    1    2  501    0 0.37942490E+02 -.66584616E+02 0.23207173E+04 0.23219824E+04 0.32000000E+00 0.0000E+00 0.9000E+01
        3  1    1    2  502    0 0.41457863E+03 -.11905097E+03 -.44928977E+03 0.62282431E+03 0.50000000E+00 0.0000E+00 0.9000E+01
#aMCatNLO 1  0  0  4  2 0.34133161D+02 0.00000000D+00  -5  6  0 0.00000000D+00 0.00000000D+00 0.00000000D+00 0.00000000D+00 0.00000000D+00
  <mgrwgt>
 -.4582363164D-02    4    2    0
 0.166666113520442D+04 0.000000000000000D+00 0.000000000000000D+00 0.166666113520442D+04
 0.166666113520442D+04 -.000000000000000D+00 -.000000000000000D+00 -.166666113520442D+04
 0.929441261147825D+03 -.452533739334130D+03 0.185639763396453D+03 -.780376288039583D+03
 0.153571567728135D+04 0.379423078786984D+02 -.665842962139583D+02 0.153380231914619D+04
 0.868165331979662D+03 0.414591431455431D+03 -.119055467182494D+03 -.753426031106606D+03
 0.000000000000000D+00 0.000000000000000D+00 0.000000000000000D+00 0.000000000000000D+00
 0.166666113520442D+04 0.000000000000000D+00 0.000000000000000D+00 0.166666113520442D+04
 0.166666113520442D+04 -.000000000000000D+00 -.000000000000000D+00 -.166666113520442D+04
 0.928900394470404D+03 -.452518186037682D+03 0.185612469187016D+03 -.779747552374957D+03
 0.329051407129432D+03 0.411900905357098D+02 -.224238691249887D+02 0.325692147693162D+03
 0.867666152572268D+03 0.414605959409201D+03 -.119080962035899D+03 -.752838744501466D+03
 0.120770431623673D+04 -.327786390722913D+01 -.441076380261274D+02 0.120689414918326D+04
0.277475750488D-02 0.000000000000D+00 0.000000000000D+00 0.622436693133D-04 0.000000000000D+00  6 2 3 25 2 3 21 0 0.38782185D+00 0.16952573D+00 0.25645791D+06 0.25645791D+06 0.25645791D+06 0.10896268D+01  1  2  2  3  6  4        2 0.172181907747D-03 0.100000000000D+01
0.953629086155D-03 0.000000000000D+00 -.106557994292D-04 0.622436693133D-04 0.000000000000D+00  6 2 3 25 2 3 21 2 0.38782185D+00 0.16952573D+00 0.25645791D+06 0.25645791D+06 0.25645791D+06 0.10896268D+01  1  2  3  3  6  4        2 0.702582858276D-04 0.100000000000D+01
-.194946590882D-02 0.000000000000D+00 0.000000000000D+00 0.622436693133D-04 0.000000000000D+00  6 2 3 25 2 3 21 2 0.38782185D+00 0.16952573D+00 0.25645791D+06 0.25645791D+06 0.25645791D+06 0.10896268D+01  1  2 15  3  6  4        2 -.143626211723D-03 0.100000000000D+01
-.635385083869D-01 0.000000000000D+00 0.000000000000D+00 0.622436693133D-04 0.000000000000D+00  6 2 3 25 2 3 21 2 0.38782185D+00 0.16952573D+00 0.25645791D+06 0.25645791D+06 0.25645791D+06 0.10896268D+01  1  2  5  3  6  4        2 -.468117714541D-02 0.100000000000D+01
  </mgrwgt>
  </event>
  <event>
  5     66 -.17247933E-05 0.37100915E+02 0.75467711E-02 0.92034158E-01
        2 -1    0    0  501    0 0.00000000E+00 0.00000000E+00 0.19645937E+04 0.19645937E+04 0.32000000E+00 0.0000E+00 0.9000E+01
        3 -1    0    0  502    0 0.00000000E+00 0.00000000E+00 -.49389543E+03 0.49389568E+03 0.50000000E+00 0.0000E+00 0.9000E+01
       25  1    1    2    0    0 0.65118779E+02 -.53393228E+03 0.39312634E+03 0.67786242E+03 0.12500000E+03 0.0000E+00 0.9000E+01
        2  1    1    2  501    0 -.87391165E+02 0.56360097E+03 0.13709811E+04 0.14848814E+04 0.32000000E+00 0.0000E+00 0.9000E+01
        3  1    1    2  502    0 0.22272386E+02 -.29668691E+02 -.29340919E+03 0.29574566E+03 0.50000000E+00 0.0000E+00 0.9000E+01
#aMCatNLO 1  0  0  1  4 0.75031856D+02 0.00000000D+00  -5  6  0 0.00000000D+00 0.00000000D+00 0.00000000D+00 0.00000000D+00 0.00000000D+00
  <mgrwgt>
 -.4096640309D-02    7    2    0
 0.985040204042553D+03 0.000000000000000D+00 0.000000000000000D+00 0.985040204042553D+03
 0.985040204042553D+03 0.000000000000000D+00 0.000000000000000D+00 -.985040204042553D+03
 0.552419304857832D+03 0.651147533198887D+02 -.533915062067447D+03 -.153903793720070D+02
 0.829519964279275D+03 -.873887928236022D+02 0.563585672015615D+03 0.602360158315132D+03
 0.588141138948000D+03 0.222740395037135D+02 -.296706099481685D+02 -.586969778943125D+03
 0.000000000000000D+00 -.000000000000000D+00 0.000000000000000D+00 0.000000000000000D+00
 0.131223476107252D+04 0.000000000000000D+00 0.000000000000000D+00 0.131223476107252D+04
 0.991917225732261D+03 0.000000000000000D+00 0.000000000000000D+00 -.991917225732261D+03
 0.567914290856003D+03 0.863426755032437D+02 -.547000658471454D+03 -.153903793720070D+02
 0.813857045710677D+03 -.562503181590507D+02 0.544390881843630D+03 0.602360158315132D+03
 0.590262175374713D+03 0.446022584848745D+02 -.434344658490945D+02 -.586969778943125D+03
 0.332118474863385D+03 -.746946158290675D+02 0.460442424769186D+02 0.320317535340255D+03
0.319308594889D-03 0.000000000000D+00 0.000000000000D+00 0.106061801204D-04 0.000000000000D+00  6 2 3 25 2 3 21 0 0.30224521D+00 0.75983934D-01 0.33618335D+06 0.33618335D+06 0.33618335D+06 0.10809118D+01  1  2  2  1  6  1        2 0.320396240676D-03 0.100000000000D+01
0.172470046994D-03 0.000000000000D+00 -.122622908026D-05 0.106061801204D-04 0.000000000000D+00  6 2 3 25 2 3 21 2 0.30224521D+00 0.75983934D-01 0.33618335D+06 0.33618335D+06 0.33618335D+06 0.10809118D+01  1  2  3  1  6  1        2 0.202195283952D-03 0.100000000000D+01
-.186945361678D-03 0.000000000000D+00 0.000000000000D+00 0.106061801204D-04 0.000000000000D+00  6 2 3 25 2 3 21 2 0.30224521D+00 0.75983934D-01 0.33618335D+06 0.33618335D+06 0.33618335D+06 0.10809118D+01  1  2 15  1  6  1        2 -.219165421167D-03 0.100000000000D+01
-.675344727902D-02 0.000000000000D+00 0.000000000000D+00 0.106061801204D-04 0.000000000000D+00  6 2 3 25 2 3 21 2 0.30224521D+00 0.75983934D-01 0.33618335D+06 0.33618335D+06 0.33618335D+06 0.10809118D+01  1  2  4  1  6  1        2 -.791740487139D-02 0.100000000000D+01
-.547382200590D-02 0.000000000000D+00 -.247902405915D-03 0.106061801204D-04 0.000000000000D+00  6 2 3 25 2 3 21 2 0.40337543D+00 0.75983934D-01 0.33618335D+06 0.33618335D+06 0.33618335D+06 0.10809118D+01  1  2  5  1  6  1        2 -.272315010212D-02 0.100000000000D+01
0.533172285938D-02 0.000000000000D+00 0.237923115151D-03 0.106061801204D-04 0.000000000000D+00  6 2 3 25 2 3 21 2 0.30224521D+00 0.75983934D-01 0.33618335D+06 0.33618335D+06 0.33618335D+06 0.10809118D+01  1  2  6  1  6  1        2 0.625064604722D-02 0.100000000000D+01
-.200524970355D-03 0.000000000000D+00 -.931851208220D-05 0.106061801204D-04 0.000000000000D+00  6 21 3 25 2 3 -2 2 0.40337543D+00 0.75983934D-01 0.33618335D+06 0.33618335D+06 0.33618335D+06 0.10809118D+01  1  2  5  5  6  1        2 -.101574860862D-04 0.100000000000D+01
  </mgrwgt>
  </event>
  <event>
  5     66 0.17247933E-05 0.95943548E+02 0.75467711E-02 0.92495156E-01
        4 -1    0    0  501    0 0.00000000E+00 0.00000000E+00 0.79229168E+03 0.79229319E+03 0.15500000E+01 0.0000E+00 0.9000E+01
        1 -1    0    0  502    0 -.00000000E+00 -.00000000E+00 -.92690205E+03 0.92690210E+03 0.32000000E+00 0.0000E+00 0.9000E+01
       25  1    1    2    0    0 0.25307787E+03 -.51594659E+03 -.26894817E+03 0.64668958E+03 0.12500000E+03 0.0000E+00 0.9000E+01
        4  1    1    2  501    0 -.91073936E+02 -.30621891E+02 0.42281593E+03 0.43359875E+03 0.15500000E+01 0.0000E+00 0.9000E+01
        1  1    1    2  502    0 -.16200394E+03 0.54656848E+03 -.28847813E+03 0.63890697E+03 0.32000000E+00 0.0000E+00 0.9000E+01
#aMCatNLO 1  0  0  5  2 0.77093894D+02 0.00000000D+00  -5  6  0 0.00000000D+00 0.00000000D+00 0.00000000D+00 0.00000000D+00 0.00000000D+00
  <mgrwgt>
 0.7999734090D-04    6    2    0
 0.856958651640374D+03 0.000000000000000D+00 0.000000000000000D+00 0.856958651640374D+03
 0.856958651640374D+03 -.000000000000000D+00 -.000000000000000D+00 -.856958651640374D+03
 0.627893642240110D+03 0.253193880765858D+03 -.516450857272139D+03 -.218624785262670D+03
 0.467454250058011D+03 -.909406750846678D+02 -.305770843318919D+02 0.457502252919265D+03
 0.618569410982626D+03 -.162253205681190D+03 0.547027941604031D+03 -.238877467656594D+03
 0.000000000000000D+00 -.000000000000000D+00 0.000000000000000D+00 0.000000000000000D+00
 0.856958651640374D+03 0.000000000000000D+00 0.000000000000000D+00 0.856958651640374D+03
 0.856958651640374D+03 -.000000000000000D+00 -.000000000000000D+00 -.856958651640374D+03
 0.593672001462561D+03 0.239932347930897D+03 -.471740313780769D+03 -.238149092148075D+03
 0.454144597846655D+03 -.100945715292826D+03 0.315436971092302D+01 0.442772321028592D+03
 0.493375154952105D+03 0.717836286576926D+01 0.409461932837923D+03 -.275151667607545D+03
 0.172725549019427D+03 -.146164995503840D+03 0.591240112319226D+02 0.705284387270292D+02
0.246815060368D-03 0.000000000000D+00 0.000000000000D+00 0.314134057226D-06 0.000000000000D+00  6 4 1 25 4 1 21 0 0.12189115D+00 0.14260044D+00 0.39383801D+06 0.39383801D+06 0.39383801D+06 0.10759140D+01  1  2  2  4  6  5        1 0.908802456977D-04 0.100000000000D+01
0.538934407278D-04 0.000000000000D+00 -.947834819710D-06 0.314134057226D-06 0.000000000000D+00  6 4 1 25 4 1 21 2 0.12189115D+00 0.14260044D+00 0.39383801D+06 0.39383801D+06 0.39383801D+06 0.10759140D+01  1  2  3  4  6  5        1 0.229714745102D-04 0.100000000000D+01
-.139138897807D-03 0.000000000000D+00 0.000000000000D+00 0.314134057226D-06 0.000000000000D+00  6 4 1 25 4 1 21 2 0.12189115D+00 0.14260044D+00 0.39383801D+06 0.39383801D+06 0.39383801D+06 0.10759140D+01  1  2 15  4  6  5        1 -.593063942697D-04 0.100000000000D+01
-.132743339906D-04 0.000000000000D+00 0.000000000000D+00 0.314134057226D-06 0.000000000000D+00  6 4 1 25 4 1 21 2 0.12189115D+00 0.14260044D+00 0.39383801D+06 0.39383801D+06 0.39383801D+06 0.10759140D+01  1  2  4  4  6  5        1 -.565803594624D-05 0.100000000000D+01
-.230812624161D-03 0.000000000000D+00 0.000000000000D+00 0.314134057226D-06 0.000000000000D+00  6 4 1 25 4 1 21 2 0.12189115D+00 0.14260044D+00 0.39383801D+06 0.39383801D+06 0.39383801D+06 0.10759140D+01  1  2  5  4  6  5        1 -.983812916923D-04 0.100000000000D+01
0.303800001775D-03 0.000000000000D+00 -.000000000000D+00 0.314134057226D-06 0.000000000000D+00  6 4 1 25 4 1 21 2 0.12189115D+00 0.14260044D+00 0.39383801D+06 0.39383801D+06 0.39383801D+06 0.10759140D+01  1  2  6  4  6  5        1 0.129491342597D-03 0.100000000000D+01
  </mgrwgt>
  </event>
  <event>
  5     66 0.17247933E-05 0.15382148E+03 0.75467711E-02 0.93449694E-01
        2 -1    0    0  501    0 0.00000000E+00 0.00000000E+00 0.34047380E+03 0.34047395E+03 0.32000000E+00 0.0000E+00 0.9000E+01
        3 -1    0    0  502    0 0.00000000E+00 0.00000000E+00 -.14646285E+04 0.14646286E+04 0.50000000E+00 0.0000E+00 0.9000E+01
       25  1    1    2    0    0 0.41838902E+03 0.29103815E+03 -.51605585E+03 0.73599675E+03 0.12500000E+03 0.0000E+00 0.9000E+01
        2  1    1    2  501    0 -.26957032E+03 -.32987322E+03 0.16023950E+02 0.42631135E+03 0.32000000E+00 0.0000E+00 0.9000E+01
        3  1    1    2  502    0 -.14881870E+03 0.38835064E+02 -.62412281E+03 0.64279444E+03 0.50000000E+00 0.0000E+00 0.9000E+01
#aMCatNLO 1  0  0  2  2 0.57496368D+01 0.00000000D+00  -5  6  0 0.00000000D+00 0.00000000D+00 0.00000000D+00 0.00000000D+00 0.00000000D+00
  <mgrwgt>
 0.4812012637D-04    6    2    0
 0.706164178114308D+03 0.000000000000000D+00 0.000000000000000D+00 0.706164178114308D+03
 0.706164178114308D+03 0.000000000000000D+00 0.000000000000000D+00 -.706164178114308D+03
 0.529907491839725D+03 0.418394267946252D+03 0.291020365285013D+03 -.736907962161162D+02
 0.557594575159483D+03 -.269555827193720D+03 -.329855483561905D+03 0.359787056795176D+03
 0.324826289229407D+03 -.148838440752532D+03 0.388351182768918D+02 -.286096260579060D+03
 0.000000000000000D+00 0.000000000000000D+00 0.000000000000000D+00 0.000000000000000D+00
 0.711575114650332D+03 0.000000000000000D+00 0.000000000000000D+00 0.711575114650332D+03
 0.707699067954286D+03 0.000000000000000D+00 0.000000000000000D+00 -.707699067954286D+03
 0.528433832081378D+03 0.417997711130915D+03 0.288902916099095D+03 -.736907962161162D+02
 0.559121105056451D+03 -.269974256677456D+03 -.332089723739936D+03 0.359787056795176D+03
 0.324785122525705D+03 -.149081847890503D+03 0.375354249512188D+02 -.286096260579060D+03
 0.693412294108427D+01 0.105839343704412D+01 0.565138268962265D+01 0.387604669604567D+01
0.177406261176D-03 0.000000000000D+00 0.000000000000D+00 0.118402300751D-06 0.000000000000D+00  6 2 3 25 2 3 21 0 0.52380603D-01 0.22532748D+00 0.30501716D+06 0.30501716D+06 0.30501716D+06 0.10840194D+01  1  2  2  2  6  2        3 0.990822622173D-04 0.100000000000D+01
0.151104160861D-04 0.000000000000D+00 -.681286755058D-06 0.118402300751D-06 0.000000000000D+00  6 2 3 25 2 3 21 2 0.52380603D-01 0.22532748D+00 0.30501716D+06 0.30501716D+06 0.30501716D+06 0.10840194D+01  1  2  3  2  6  2        3 0.991693504334D-05 0.100000000000D+01
-.102085813671D-03 0.000000000000D+00 0.000000000000D+00 0.118402300751D-06 0.000000000000D+00  6 2 3 25 2 3 21 2 0.52380603D-01 0.22532748D+00 0.30501716D+06 0.30501716D+06 0.30501716D+06 0.10840194D+01  1  2 15  2  6  2        3 -.669987098467D-04 0.100000000000D+01
-.624922220315D-04 0.000000000000D+00 0.000000000000D+00 0.118402300751D-06 0.000000000000D+00  6 2 3 25 2 3 21 2 0.52380603D-01 0.22532748D+00 0.30501716D+06 0.30501716D+06 0.30501716D+06 0.10840194D+01  1  2  4  2  6  2        3 -.410135169718D-04 0.100000000000D+01
0.607269665835D-04 0.000000000000D+00 0.000000000000D+00 0.118402300751D-06 0.542176536578D-08  6 2 3 25 2 3 21 2 0.52781966D-01 0.22581724D+00 0.30843468D+06 0.30843468D+06 0.30843468D+06 0.10836621D+01  1  2 11  2  6  2        3 0.391039525146D-04 0.100000000000D+01
0.921676127400D-06 0.000000000000D+00 0.000000000000D+00 0.118402300751D-06 0.714918359005D-11  6 2 21 25 2 3 -3 2 0.52781966D-01 0.22581724D+00 0.30843468D+06 0.30843468D+06 0.30843468D+06 0.10836621D+01  1  2 11  6  6  2        3 0.802920341465D-05 0.100000000000D+01
  </mgrwgt>
  </event>
  <event>
  5     66 0.17247933E-05 0.18288330E+03 0.75467711E-02 0.93716734E-01
        2 -1    0    0  501    0 0.00000000E+00 0.00000000E+00 0.24458355E+04 0.24458355E+04 0.32000000E+00 0.0000E+00 0.9000E+01
        3 -1    0    0  502    0 0.00000000E+00 0.00000000E+00 -.89283844E+03 0.89283858E+03 0.50000000E+00 0.0000E+00 0.9000E+01
       25  1    1    2    0    0 -.13183537E+03 0.49564488E+03 -.28357673E+03 0.59923716E+03 0.12500000E+03 0.0000E+00 0.9000E+01
        2  1    1    2  501    0 0.13609463E+03 -.12216806E+03 0.22063129E+04 0.22138798E+04 0.32000000E+00 0.0000E+00 0.9000E+01
        3  1    1    2  502    0 -.42592573E+01 -.37347682E+03 -.36973914E+03 0.52555718E+03 0.50000000E+00 0.0000E+00 0.9000E+01
#aMCatNLO 1  0  0  2  5 0.26131669D+02 0.00000000D+00  -5  6  0 0.00000000D+00 0.00000000D+00 0.00000000D+00 0.00000000D+00 0.00000000D+00
  <mgrwgt>
 0.8767278788D-03    7    2    0
 0.147774701108574D+04 0.000000000000000D+00 0.000000000000000D+00 0.147774701108574D+04
 0.147774701108574D+04 0.000000000000000D+00 0.000000000000000D+00 -.147774701108574D+04
 0.825933178863540D+03 -.131836196488839D+03 0.495659711852834D+03 -.635201765810639D+03
 0.134156821692433D+04 0.136093644100166D+03 -.122167180023317D+03 0.132904438632508D+04
 0.787992626383605D+03 -.425744761132694D+01 -.373492531829516D+03 -.693842620514441D+03
 0.000000000000000D+00 -.000000000000000D+00 0.000000000000000D+00 -.000000000000000D+00
 0.153749608506198D+04 0.000000000000000D+00 0.000000000000000D+00 0.153749608506198D+04
 0.183023514732804D+04 0.000000000000000D+00 0.000000000000000D+00 -.183023514732804D+04
 0.782279615835801D+03 -.117203319547061D+03 0.423223931211839D+03 -.635201765810639D+03
 0.136075585673368D+04 0.160681668618423D+03 -.243883009213051D+03 0.132904438632508D+04
 0.824965984592957D+03 0.104186107712414D+02 -.446142069572775D+03 -.693842620514441D+03
 0.399729775227570D+03 -.538969598426027D+02 0.266801147573986D+03 -.292739062266061D+03
0.455690962797D-02 0.000000000000D+00 0.000000000000D+00 0.751961224485D-05 0.000000000000D+00  6 2 3 25 2 3 21 0 0.37628240D+00 0.13735977D+00 0.29392971D+06 0.29392971D+06 0.29392971D+06 0.10852093D+01  1  2  2  2  6  2        3 0.578026746291D-03 0.100000000000D+01
0.600833671858D-03 0.000000000000D+00 -.174997328333D-04 0.751961224485D-05 0.000000000000D+00  6 2 3 25 2 3 21 2 0.37628240D+00 0.13735977D+00 0.29392971D+06 0.29392971D+06 0.29392971D+06 0.10852093D+01  1  2  3  2  6  2        3 0.897550287628D-04 0.100000000000D+01
-.281027332673D-02 0.000000000000D+00 0.000000000000D+00 0.751961224485D-05 0.000000000000D+00  6 2 3 25 2 3 21 2 0.37628240D+00 0.13735977D+00 0.29392971D+06 0.29392971D+06 0.29392971D+06 0.10852093D+01  1  2 15  2  6  2        3 -.419810298734D-03 0.100000000000D+01
-.113251002712D-02 0.000000000000D+00 0.000000000000D+00 0.751961224485D-05 0.000000000000D+00  6 2 3 25 2 3 21 2 0.37628240D+00 0.13735977D+00 0.29392971D+06 0.29392971D+06 0.29392971D+06 0.10852093D+01  1  2  4  2  6  2        3 -.169179050409D-03 0.100000000000D+01
-.139807437706D-01 0.000000000000D+00 -.412034827446D-02 0.751961224485D-05 0.000000000000D+00  6 2 3 25 2 3 21 2 0.37628240D+00 0.17358093D+00 0.29392971D+06 0.29392971D+06 0.29392971D+06 0.10852093D+01  1  2  5  2  6  2        3 -.103273764300D-02 0.100000000000D+01
0.146522746859D-01 0.000000000000D+00 0.401002175948D-02 0.751961224485D-05 0.000000000000D+00  6 2 3 25 2 3 21 2 0.37628240D+00 0.13735977D+00 0.29392971D+06 0.29392971D+06 0.29392971D+06 0.10852093D+01  1  2  6  2  6  2        3 0.218881763368D-02 0.100000000000D+01
-.388641987805D-03 0.000000000000D+00 -.132788675357D-03 0.751961224485D-05 0.000000000000D+00  6 2 21 25 2 3 -3 2 0.37628240D+00 0.17358093D+00 0.29392971D+06 0.29392971D+06 0.29392971D+06 0.10852093D+01  1  2  5  6  6  2        3 -.358144537760D-03 0.100000000000D+01
  </mgrwgt>
  </event>
  <event>
  5     66 -.17247933E-05 0.15160278E+02 0.75467711E-02 0.93412716E-01
        2 -1    0    0  501    0 0.00000000E+00 0.00000000E+00 0.59926619E+03 0.59926628E+03 0.32000000E+00 0.0000E+00 0.9000E+01
        3 -1    0    0  502    0 -.00000000E+00 -.00000000E+00 -.87483044E+03 0.87483058E+03 0.50000000E+00 0.0000E+00 0.9000E+01
       25  1    1    2    0    0 -.52001095E+03 -.17723289E+03 -.50081474E+03 0.75383240E+03 0.12500000E+03 0.0000E+00 0.9000E+01
        2  1    1    2  501    0 0.51795778E+03 0.16219616E+03 0.31613805E+03 0.62811720E+03 0.32000000E+00 0.0000E+00 0.9000E+01
        3  1    1    2  502    0 0.20531769E+01 0.15036725E+02 -.90887552E+02 0.92147251E+02 0.50000000E+00 0.0000E+00 0.9000E+01
#aMCatNLO 1  0  0  4  1 0.46877324D+02 0.00000000D+00  -5  6  0 0.00000000D+00 0.00000000D+00 0.00000000D+00 0.00000000D+00 0.00000000D+00
  <mgrwgt>
 -.3412160144D-03    4    2    0
 0.724055573230041D+03 0.000000000000000D+00 0.000000000000000D+00 0.724055573230041D+03
 0.724055573230041D+03 -.000000000000000D+00 -.000000000000000D+00 -.724055573230041D+03
 0.672156193247206D+03 -.520034129915980D+03 -.177224803655015D+03 -.366503507230894D+03
 0.699580657353039D+03 0.517982685667333D+03 0.162203964400234D+03 0.441358026350734D+03
 0.763742958598364D+02 0.205144424864705D+01 0.150208392547815D+02 -.748545191198402D+02
 0.000000000000000D+00 0.000000000000000D+00 0.000000000000000D+00 0.000000000000000D+00
 0.724055573230041D+03 0.000000000000000D+00 0.000000000000000D+00 0.724055573230041D+03
 0.724055573230041D+03 -.000000000000000D+00 -.000000000000000D+00 -.724055573230041D+03
 0.667805657977511D+03 -.516739905108142D+03 -.176193231870394D+03 -.363696593795805D+03
 0.238218858558447D+03 0.202858865654074D+03 0.690819952278246D+02 0.104039334550807D+03
 0.760955849864482D+02 0.242628332594827D+01 0.151382184375858D+02 -.745351296113981D+02
 0.465991044937674D+03 0.311454756128120D+03 0.919730182049833D+02 0.334192388856396D+03
0.496692338579D-04 0.000000000000D+00 0.000000000000D+00 0.810653557386D-06 0.000000000000D+00  6 2 3 25 2 3 21 0 0.92194816D-01 0.13458932D+00 0.31437880D+06 0.31437880D+06 0.31437880D+06 0.10830508D+01  1  2  2  3  6  4        2 0.828617740857D-04 0.100000000000D+01
0.219037376772D-04 0.000000000000D+00 -.190742936224D-06 0.810653557386D-06 0.000000000000D+00  6 2 3 25 2 3 21 2 0.92194816D-01 0.13458932D+00 0.31437880D+06 0.31437880D+06 0.31437880D+06 0.10830508D+01  1  2  3  3  6  4        2 0.428630096679D-04 0.100000000000D+01
-.324152549758D-04 0.000000000000D+00 0.000000000000D+00 0.810653557386D-06 0.000000000000D+00  6 2 3 25 2 3 21 2 0.92194816D-01 0.13458932D+00 0.31437880D+06 0.31437880D+06 0.31437880D+06 0.10830508D+01  1  2 15  3  6  4        2 -.634327989081D-04 0.100000000000D+01
-.206199551407D-03 0.000000000000D+00 0.000000000000D+00 0.810653557386D-06 0.000000000000D+00  6 2 3 25 2 3 21 2 0.92194816D-01 0.13458932D+00 0.31437880D+06 0.31437880D+06 0.31437880D+06 0.10830508D+01  1  2  5  3  6  4        2 -.403507999215D-03 0.100000000000D+01
  </mgrwgt>
  </event>
  <event>
  5     66 0.17247933E-05 0.11683014E+03 0.75467711E-02 0.91324908E-01
        2 -1    0    0  501    0 0.00000000E+00 0.00000000E+00 0.12018223E+04 0.12018223E+04 0.32000000E+00 0.0000E+00 0.9000E+01
        3 -1    0    0  502    0 0.00000000E+00 0.00000000E+00 -.55978147E+03 0.55978170E+03 0.50000000E+00 0.0000E+00 0.9000E+01
       25  1    1    2    0    0 -.16051259E+01 -.61913724E+03 0.19502258E+03 0.66105393E+03 0.12500000E+03 0.0000E+00 0.9000E+01
        2  1    1    2  501    0 -.11683467E+03 -.37285053E+01 0.45162377E+03 0.46650656E+03 0.32000000E+00 0.0000E+00 0.9000E+01
        3  1    1    2  502    0 0.11843980E+03 0.62286575E+03 -.46055356E+01 0.63404352E+03 0.50000000E+00 0.0000E+00 0.9000E+01
#aMCatNLO 1  0  0  5  2 0.11178792D+03 0.00000000D+00  -5  6  0 0.00000000D+00 0.00000000D+00 0.00000000D+00 0.00000000D+00 0.00000000D+00
  <mgrwgt>
 0.4074410220D-03    7    2    0
 0.820218312268780D+03 0.000000000000000D+00 0.000000000000000D+00 0.820218312268780D+03
 0.820218312268780D+03 -.000000000000000D+00 -.000000000000000D+00 -.820218312268780D+03
 0.633657667214650D+03 -.165475059015230D+01 -.619251931349636D+03 -.492071797621317D+02
 0.324028038210013D+03 -.116770697155779D+03 -.372646362303704D+01 0.302233167109186D+03
 0.682750919112896D+03 0.118425447745931D+03 0.622978394972673D+03 -.253025987347054D+03
 0.000000000000000D+00 0.000000000000000D+00 0.000000000000000D+00 0.000000000000000D+00
 0.820218312268780D+03 0.000000000000000D+00 0.000000000000000D+00 0.820218312268780D+03
 0.820218312268780D+03 -.000000000000000D+00 -.000000000000000D+00 -.820218312268780D+03
 0.617522484043116D+03 0.160139512164047D+01 -.602122940343567D+03 -.561642105300441D+02
 0.320102166873548D+03 -.115094374363245D+03 0.509185121237867D+01 0.298651561653886D+03
 0.511858793434124D+03 0.139895983820332D+03 0.410265899887154D+03 -.272232307995510D+03
 0.190953180186771D+03 -.264030045787276D+02 0.186765189244033D+03 0.297449568716684D+02
0.579009814100D-04 0.000000000000D+00 0.000000000000D+00 0.632264231241D-07 0.000000000000D+00  6 2 3 25 2 3 21 0 0.18489576D+00 0.86120247D-01 0.47797097D+06 0.47797097D+06 0.47797097D+06 0.10698961D+01  1  2  2  4  6  5        3 0.114035378769D-03 0.100000000000D+01
0.842582839875D-05 0.000000000000D+00 -.222355014293D-06 0.632264231241D-07 0.000000000000D+00  6 2 3 25 2 3 21 2 0.18489576D+00 0.86120247D-01 0.47797097D+06 0.47797097D+06 0.47797097D+06 0.10698961D+01  1  2  3  4  6  5        3 0.189954479401D-04 0.100000000000D+01
-.370652728551D-04 0.000000000000D+00 0.000000000000D+00 0.632264231241D-07 0.000000000000D+00  6 2 3 25 2 3 21 2 0.18489576D+00 0.86120247D-01 0.47797097D+06 0.47797097D+06 0.47797097D+06 0.10698961D+01  1  2 15  4  6  5        3 -.835610966168D-04 0.100000000000D+01
0.150013247355D-03 0.000000000000D+00 0.000000000000D+00 0.632264231241D-07 0.000000000000D+00  6 2 3 25 2 3 21 2 0.18489576D+00 0.86120247D-01 0.45714768D+06 0.45714768D+06 0.45714768D+06 0.10712715D+01  1  2 12  4  6  5        3 0.339658201527D-03 0.100000000000D+01
-.404782020089D-04 0.000000000000D+00 0.000000000000D+00 0.632264231241D-07 0.000000000000D+00  6 2 3 25 2 3 21 2 0.18489576D+00 0.86120247D-01 0.47797097D+06 0.47797097D+06 0.47797097D+06 0.10698961D+01  1  2  4  4  6  5        3 -.912553095768D-04 0.100000000000D+01
-.153423619772D-03 0.000000000000D+00 0.000000000000D+00 0.632264231241D-07 0.000000000000D+00  6 2 3 25 2 3 21 2 0.18489576D+00 0.86120247D-01 0.47797097D+06 0.47797097D+06 0.47797097D+06 0.10698961D+01  1  2  5  4  6  5        3 -.345882949931D-03 0.100000000000D+01
0.202024976210D-03 0.000000000000D+00 -.000000000000D+00 0.632264231241D-07 0.000000000000D+00  6 2 3 25 2 3 21 2 0.18489576D+00 0.86120247D-01 0.47797097D+06 0.47797097D+06 0.47797097D+06 0.10698961D+01  1  2  6  4  6  5        3 0.455451349896D-03 0.100000000000D+01
  </mgrwgt>
  </event>
  <event>
  6     66 0.17247933E-05 0.85466516E+02 0.75467711E-02 0.91351654E-01
        2 -1    0    0  503    0 0.00000000E+00 0.00000000E+00 0.98792236E+03 0.98792242E+03 0.32000000E+00 0.0000E+00 0.9000E+01
        3 -1    0    0  502    0 0.00000000E+00 0.00000000E+00 -.27833150E+04 0.27833151E+04 0.50000000E+00 0.0000E+00 0.9000E+01
       25  1    1    2    0    0 -.65335766E+03 -.11538010E+03 -.22459581E+03 0.71151744E+03 0.12500000E+03 0.0000E+00 0.9000E+01
        2  1    1    2  501    0 0.99879922E+02 0.12293874E+02 0.32729285E+03 0.34241473E+03 0.32000000E+00 0.0000E+00 0.9000E+01
        3  1    1    2  502    0 0.53708814E+03 0.77603787E+02 -.22751785E+04 0.23390005E+04 0.50000000E+00 0.0000E+00 0.9000E+01
       21  1    1    2  503  501 0.16389597E+02 0.25482436E+02 0.37708881E+03 0.37830478E+03 0.75000000E+00 0.0000E+00 0.9000E+01
#aMCatNLO 2  0  0  1  4 0.30298076D+02 0.00000000D+00  -5  6  0 0.00000000D+00 0.00000000D+00 0.00000000D+00 0.00000000D+00 0.00000000D+00
  <mgrwgt>
 0.9743096473D-04    2    2    0
 0.130301560350725D+04 0.000000000000000D+00 0.000000000000000D+00 0.130301560350725D+04
 0.130301560350725D+04 0.000000000000000D+00 0.000000000000000D+00 -.130301560350725D+04
 0.733990097762132D+03 -.648771924357189D+03 -.108185942316407D+03 0.300844238209484D+03
 0.719270027190388D+03 0.104382833853927D+03 0.193207322195327D+02 0.711393214275752D+03
 0.115277108206197D+04 0.544389090503262D+03 0.888652100968742D+02 -.101223745248524D+04
 0.000000000000000D+00 0.000000000000000D+00 0.000000000000000D+00 0.000000000000000D+00
 0.210965437013817D+04 0.000000000000000D+00 0.000000000000000D+00 0.210965437013817D+04
 0.130338819972935D+04 0.000000000000000D+00 0.000000000000000D+00 -.130338819972935D+04
 0.739177764436688D+03 -.653404219580928D+03 -.115388203936161D+03 0.300844238209484D+03
 0.718473238996065D+03 0.998619293217188D+02 0.122916601016691D+02 0.711393214275752D+03
 0.114855632242637D+04 0.537152693200813D+03 0.776141079888664D+02 -.101223745248524D+04
 0.806835244008388D+03 0.163895970583967D+02 0.254824358456253D+02 0.806266170408825D+03
-.274311722971D-01 0.000000000000D+00 0.000000000000D+00 0.653263703658D-05 0.000000000000D+00  6 2 3 25 2 3 21 2 0.15728290D+00 0.42807985D+00 0.45483622D+06 0.45483622D+06 0.45483622D+06 0.10714284D+01  1  2 13  1  6  1        2 -.147728622450D-03 0.100000000000D+01
0.433622248729D-01 0.000000000000D+00 0.000000000000D+00 0.653263703658D-05 0.800918526065D-07  6 2 3 25 2 3 21 2 0.15198804D+00 0.42820226D+00 0.45483622D+06 0.45483622D+06 0.45483622D+06 0.10714284D+01  1  2  1  1  6  1        2 0.245159587184D-03 0.100000000000D+01
  </mgrwgt>
  </event>
  <event>
  5     66 0.17247933E-05 0.55215806E+02 0.75467711E-02 0.88098455E-01
        2 -1    0    0  501    0 0.00000000E+00 0.00000000E+00 0.20768125E+04 0.20768125E+04 0.32000000E+00 0.0000E+00 0.9000E+01
        3 -1    0    0  502    0 0.00000000E+00 0.00000000E+00 -.14658400E+04 0.14658401E+04 0.50000000E+00 0.0000E+00 0.9000E+01
       25  1    1    2    0    0 0.60498267E+03 -.34596050E+03 0.11039786E+03 0.71659290E+03 0.12500000E+03 0.0000E+00 0.9000E+01
        2  1    1    2  501    0 0.18649929E+02 -.51973886E+02 0.15451062E+04 0.15460926E+04 0.32000000E+00 0.0000E+00 0.9000E+01
        3  1    1    2  502    0 -.62363260E+03 0.39793439E+03 -.10445315E+04 0.12799671E+04 0.50000000E+00 0.0000E+00 0.9000E+01
#aMCatNLO 1  0  0  5  5 0.46267914D+03 0.00000000D+00  -5  6  0 0.00000000D+00 0.00000000D+00 0.00000000D+00 0.00000000D+00 0.00000000D+00
  <mgrwgt>
 0.1244803922D-02    6    2    0
 0.174478509391638D+04 0.000000000000000D+00 0.000000000000000D+00 0.174478509391638D+04
 0.174478509391638D+04 -.000000000000000D+00 -.000000000000000D+00 -.174478509391638D+04
 0.708220668457461D+03 0.605031262883255D+03 -.345992459346677D+03 -.133380748034937D+02
 0.129901786880536D+04 0.186489526397005D+02 -.519711634826275D+02 0.129784384199615D+04
 0.148233165056993D+04 -.623680215522956D+03 0.397963622829305D+03 -.128450576719266D+04
 0.000000000000000D+00 -.000000000000000D+00 0.000000000000000D+00 0.000000000000000D+00
 0.174478509391638D+04 0.000000000000000D+00 0.000000000000000D+00 0.174478509391638D+04
 0.174478509391638D+04 -.000000000000000D+00 -.000000000000000D+00 -.174478509391638D+04
 0.679121704299143D+03 0.576959191332509D+03 -.328079973081114D+03 -.711541428885504D+02
 0.119451569436135D+04 -.318062586866265D+02 -.197762369958113D+02 0.119392839250695D+04
 0.993086075913502D+03 -.119073277990728D+03 0.624818940077615D+03 -.762655099479514D+03
 0.622846713258763D+03 -.426079654655155D+03 -.276962730000689D+03 -.360119150138885D+03
0.265343335200D-01 0.000000000000D+00 0.000000000000D+00 0.438337539957D-04 0.000000000000D+00  6 2 3 25 2 3 21 0 0.31950963D+00 0.22551385D+00 0.56485996D+06 0.56485996D+06 0.56485996D+06 0.10647867D+01  1  2  2  4  6  5        3 0.951300876236D-03 0.100000000000D+01
0.150293663138D-01 0.000000000000D+00 -.101898827367D-03 0.438337539957D-04 0.000000000000D+00  6 2 3 25 2 3 21 2 0.31950963D+00 0.22551385D+00 0.56485996D+06 0.56485996D+06 0.56485996D+06 0.10647867D+01  1  2  3  4  6  5        3 0.610907754657D-03 0.100000000000D+01
-.152354613776D-01 0.000000000000D+00 0.000000000000D+00 0.438337539957D-04 0.000000000000D+00  6 2 3 25 2 3 21 2 0.31950963D+00 0.22551385D+00 0.56485996D+06 0.56485996D+06 0.56485996D+06 0.10647867D+01  1  2 15  4  6  5        3 -.619285025530D-03 0.100000000000D+01
-.170997843459D-02 0.000000000000D+00 0.000000000000D+00 0.438337539957D-04 0.000000000000D+00  6 2 3 25 2 3 21 2 0.31950963D+00 0.22551385D+00 0.56485996D+06 0.56485996D+06 0.56485996D+06 0.10647867D+01  1  2  4  4  6  5        3 -.695065290293D-04 0.100000000000D+01
-.183914818170D-01 0.000000000000D+00 0.000000000000D+00 0.438337539957D-04 0.000000000000D+00  6 2 3 25 2 3 21 2 0.31950963D+00 0.22551385D+00 0.56485996D+06 0.56485996D+06 0.56485996D+06 0.10647867D+01  1  2  5  4  6  5        3 -.747569699681D-03 0.100000000000D+01
0.275282277494D-01 0.000000000000D+00 -.000000000000D+00 0.438337539957D-04 0.000000000000D+00  6 2 3 25 2 3 21 2 0.31950963D+00 0.22551385D+00 0.56485996D+06 0.56485996D+06 0.56485996D+06 0.10647867D+01  1  2  6  4  6  5        3 0.111895654500D-02 0.100000000000D+01
  </mgrwgt>
  </event>
  <event>
  5     66 0.17247933E-05 0.12337006E+03 0.75467711E-02 0.91296662E-01
        2 -1    0    0  501    0 0.00000000E+00 0.00000000E+00 0.22572747E+04 0.22572747E+04 0.32000000E+00 0.0000E+00 0.9000E+01
        3 -1    0    0  502    0 0.00000000E+00 0.00000000E+00 -.13716693E+04 0.13716694E+04 0.50000000E+00 0.0000E+00 0.9000E+01
       25  1    1    2    0    0 0.53041714E+03 0.26399899E+03 0.86101964E+03 0.10526242E+04 0.12500000E+03 0.0000E+00 0.9000E+01
        2  1    1    2  501    0 -.11036042E+03 -.55179695E+02 0.12542045E+04 0.12602592E+04 0.32000000E+00 0.0000E+00 0.9000E+01
        3  1    1    2  502    0 -.42005673E+03 -.20881929E+03 -.12296188E+04 0.13160607E+04 0.50000000E+00 0.0000E+00 0.9000E+01
#aMCatNLO 1  0  0  5  2 0.26005462D+02 0.00000000D+00  -5  6  0 0.00000000D+00 0.00000000D+00 0.00000000D+00 0.00000000D+00 0.00000000D+00
  <mgrwgt>
 0.3374996417D-03    6    2    0
 0.175961208569465D+04 0.000000000000000D+00 0.000000000000000D+00 0.175961208569465D+04
 0.175961208569465D+04 -.000000000000000D+00 -.000000000000000D+00 -.175961208569465D+04
 0.868882345415100D+03 0.530439171171887D+03 0.264009898441797D+03 0.623108810229224D+03
 0.983801903827981D+03 -.110345738649563D+03 -.551723561326355D+02 0.976035867709899D+03
 0.166653992214622D+04 -.420093432522324D+03 -.208837542309161D+03 -.159914467793912D+04
 0.000000000000000D+00 0.000000000000000D+00 0.000000000000000D+00 -.000000000000000D+00
 0.175961208569465D+04 0.000000000000000D+00 0.000000000000000D+00 0.175961208569465D+04
 0.175961208569465D+04 -.000000000000000D+00 -.000000000000000D+00 -.175961208569465D+04
 0.853417740153810D+03 0.525998116129384D+03 0.261802153810400D+03 0.606203310200308D+03
 0.965555536792762D+03 -.115372274828623D+03 -.576711561154396D+02 0.956901651469124D+03
 0.942742384722475D+03 -.454712589279624D+03 -.402500279958342D+02 -.824851259530573D+03
 0.757508509720259D+03 0.440867479788630D+02 -.163880969699126D+03 -.738253702138858D+03
0.551866827138D-02 0.000000000000D+00 0.000000000000D+00 0.381399658889D-04 0.000000000000D+00  6 2 3 25 2 3 21 0 0.34727304D+00 0.21102606D+00 0.35883707D+06 0.35883707D+06 0.35883707D+06 0.10788441D+01  1  2  2  4  6  5        3 0.215594479606D-03 0.100000000000D+01
0.974627206235D-03 0.000000000000D+00 -.211931392608D-04 0.381399658889D-04 0.000000000000D+00  6 2 3 25 2 3 21 2 0.34727304D+00 0.21102606D+00 0.35883707D+06 0.35883707D+06 0.35883707D+06 0.10788441D+01  1  2  3  4  6  5        3 0.443158702820D-04 0.100000000000D+01
-.354672841677D-02 0.000000000000D+00 0.000000000000D+00 0.381399658889D-04 0.000000000000D+00  6 2 3 25 2 3 21 2 0.34727304D+00 0.21102606D+00 0.35883707D+06 0.35883707D+06 0.35883707D+06 0.10788441D+01  1  2 15  4  6  5        3 -.161268180733D-03 0.100000000000D+01
-.318108033908D-02 0.000000000000D+00 0.000000000000D+00 0.381399658889D-04 0.000000000000D+00  6 2 3 25 2 3 21 2 0.34727304D+00 0.21102606D+00 0.35883707D+06 0.35883707D+06 0.35883707D+06 0.10788441D+01  1  2  4  4  6  5        3 -.144642323507D-03 0.100000000000D+01
-.155786967378D-01 0.000000000000D+00 0.000000000000D+00 0.381399658889D-04 0.000000000000D+00  6 2 3 25 2 3 21 2 0.34727304D+00 0.21102606D+00 0.35883707D+06 0.35883707D+06 0.35883707D+06 0.10788441D+01  1  2  5  4  6  5        3 -.708356486846D-03 0.100000000000D+01
0.240129062531D-01 0.000000000000D+00 -.000000000000D+00 0.381399658889D-04 0.000000000000D+00  6 2 3 25 2 3 21 2 0.34727304D+00 0.21102606D+00 0.35883707D+06 0.35883707D+06 0.35883707D+06 0.10788441D+01  1  2  6  4  6  5        3 0.109185628289D-02 0.100000000000D+01
  </mgrwgt>
  </event>
  <event>
  5     66 0.17247933E-05 0.32745093E+03 0.75467711E-02 0.91060867E-01
        4 -1    0    0  501    0 0.00000000E+00 0.00000000E+00 0.41830994E+03 0.41831281E+03 0.15500000E+01 0.0000E+00 0.9000E+01
        1 -1    0    0  502    0 0.00000000E+00 0.00000000E+00 -.18872321E+04 0.18872322E+04 0.32000000E+00 0.0000E+00 0.9000E+01
       25  1    1    2    0    0 -.81917731E+02 0.61666331E+03 -.51500625E+03 0.81721514E+03 0.12500000E+03 0.0000E+00 0.9000E+01
        4  1    1    2  501    0 -.13498995E+03 -.29870420E+03 0.11879506E+03 0.34865621E+03 0.15500000E+01 0.0000E+00 0.9000E+01
        1  1    1    2  502    0 0.21690768E+03 -.31795911E+03 -.10727110E+04 0.11396736E+04 0.32000000E+00 0.0000E+00 0.9000E+01
#aMCatNLO 1  0  0  1  4 0.32414796D+02 0.00000000D+00  -5  6  0 0.00000000D+00 0.00000000D+00 0.00000000D+00 0.00000000D+00 0.00000000D+00
  <mgrwgt>
 0.1167554288D-04    9    2    0
 0.888510718531189D+03 0.000000000000000D+00 0.000000000000000D+00 0.888510718531189D+03
 0.888510718531189D+03 0.000000000000000D+00 0.000000000000000D+00 -.888510718531189D+03
 0.634669290228806D+03 -.821996111866105D+02 0.616731809146324D+03 0.807511408023731D+01
 0.549980128483327D+03 -.134850187713821D+03 -.298394937287799D+03 0.441875582037630D+03
 0.592372018350245D+03 0.217049798900432D+03 -.318336871858525D+03 -.449950696117867D+03
 0.000000000000000D+00 0.000000000000000D+00 0.000000000000000D+00 0.000000000000000D+00
 0.119844482345865D+04 0.000000000000000D+00 0.000000000000000D+00 0.119844482345865D+04
 0.889506465079107D+03 0.000000000000000D+00 0.000000000000000D+00 -.889506465079107D+03
 0.624071792164673D+03 -.845543094739070D+02 0.605496459987678D+03 0.807511408023731D+01
 0.555903491715064D+03 -.136918939026425D+03 -.308265901837657D+03 0.441875582037630D+03
 0.597341769097396D+03 0.214824228402368D+03 -.328956092910255D+03 -.449950696117867D+03
 0.310634235560628D+03 0.664902009796456D+01 0.317255347602346D+02 0.308938358379547D+03
0.711529149469D-06 0.000000000000D+00 0.000000000000D+00 0.403521289496D-07 0.000000000000D+00  6 4 1 25 4 1 21 0 0.64355598D-01 0.29034363D+00 0.45384449D+06 0.45384449D+06 0.45384449D+06 0.10714959D+01  1  2  2  1  6  1        4 0.308657657026D-06 0.100000000000D+01
0.356737914813D-07 0.000000000000D+00 -.273245928389D-08 0.403521289496D-07 0.000000000000D+00  6 4 1 25 4 1 21 2 0.64355598D-01 0.29034363D+00 0.45384449D+06 0.45384449D+06 0.45384449D+06 0.10714959D+01  1  2  3  1  6  1        4 0.177670237667D-07 0.100000000000D+01
-.442387265617D-06 0.000000000000D+00 0.000000000000D+00 0.403521289496D-07 0.000000000000D+00  6 4 1 25 4 1 21 2 0.64355598D-01 0.29034363D+00 0.45384449D+06 0.45384449D+06 0.45384449D+06 0.10714959D+01  1  2 15  1  6  1        4 -.220327157163D-06 0.100000000000D+01
0.948621091476D-04 0.000000000000D+00 0.000000000000D+00 0.403521289496D-07 0.000000000000D+00  6 4 1 25 4 1 21 2 0.87465563D-01 0.29034363D+00 0.48068436D+06 0.48068436D+06 0.48068436D+06 0.10697217D+01  1  2 12  1  6  1        4 0.215289164708D-04 0.100000000000D+01
-.668806135705D-04 0.000000000000D+00 0.000000000000D+00 0.403521289496D-07 0.000000000000D+00  6 4 1 25 4 1 21 2 0.64355598D-01 0.29034363D+00 0.45384449D+06 0.45384449D+06 0.45384449D+06 0.10714959D+01  1  2  4  1  6  1        4 -.333093120046D-04 0.100000000000D+01
-.987062892473D-04 0.000000000000D+00 -.719467050579D-06 0.403521289496D-07 0.000000000000D+00  6 4 1 25 4 1 21 2 0.86842929D-01 0.29034363D+00 0.45384449D+06 0.45384449D+06 0.45384449D+06 0.10714959D+01  1  2  5  1  6  1        4 -.229722722558D-04 0.100000000000D+01
0.946701361595D-04 0.000000000000D+00 0.688326963875D-06 0.403521289496D-07 0.000000000000D+00  6 4 1 25 4 1 21 2 0.64355598D-01 0.29034363D+00 0.45384449D+06 0.45384449D+06 0.45384449D+06 0.10714959D+01  1  2  6  1  6  1        4 0.471496437385D-04 0.100000000000D+01
0.372693243783D-05 0.000000000000D+00 0.000000000000D+00 0.403521289496D-07 0.000000000000D+00  6 21 1 25 4 1 -4 2 0.87465563D-01 0.29034363D+00 0.48068436D+06 0.48068436D+06 0.48068436D+06 0.10697217D+01  1  2 12  5  6  1        4 0.179237483227D-04 0.100000000000D+01
-.379644483444D-05 0.000000000000D+00 -.277895537923D-07 0.403521289496D-07 0.000000000000D+00  6 21 1 25 4 1 -4 2 0.86842929D-01 0.29034363D+00 0.45384449D+06 0.45384449D+06 0.45384449D+06 0.10714959D+01  1  2  5  5  6  1        4 -.187512789118D-04 0.100000000000D+01
  </mgrwgt>
  </event>
  <event>
  5     66 0.17247933E-05 0.19702022E+02 0.75467711E-02 0.94024302E-01
        2 -1    0    0  501    0 0.00000000E+00 0.00000000E+00 0.54147059E+03 0.54147068E+03 0.32000000E+00 0.0000E+00 0.9000E+01
        3 -1    0    0  502    0 0.00000000E+00 0.00000000E+00 -.77293978E+03 0.77293994E+03 0.50000000E+00 0.0000E+00 0.9000E+01
       25  1    1    2    0    0 0.41908160E+03 0.19530420E+03 -.25552715E+02 0.47963638E+03 0.12500000E+03 0.0000E+00 0.9000E+01
        2  1    1    2  501    0 -.50432939E+01 0.19059854E+02 0.20943253E+03 0.21035874E+03 0.32000000E+00 0.0000E+00 0.9000E+01
        3  1    1    2  502    0 -.41403830E+03 -.21436406E+03 -.41534901E+03 0.62441550E+03 0.50000000E+00 0.0000E+00 0.9000E+01
#aMCatNLO 1  0  0  2  5 0.10256396D+03 0.00000000D+00  -5  6  0 0.00000000D+00 0.00000000D+00 0.00000000D+00 0.00000000D+00 0.00000000D+00
  <mgrwgt>
 0.5892829410D-03    7    2    0
 0.646934562344856D+03 0.000000000000000D+00 0.000000000000000D+00 0.646934562344856D+03
 0.646934562344856D+03 0.000000000000000D+00 0.000000000000000D+00 -.646934562344856D+03
 0.482798286814063D+03 0.419174387640077D+03 0.195361093924455D+03 0.599671699999286D+02
 0.250989498577940D+03 -.503976922318547D+01 0.190465327907036D+02 0.250215024951012D+03
 0.560081339297708D+03 -.414134618416892D+03 -.214407626715159D+03 -.310182194950940D+03
 0.000000000000000D+00 -.000000000000000D+00 0.000000000000000D+00 -.000000000000000D+00
 0.680045509723279D+03 0.000000000000000D+00 0.000000000000000D+00 0.680045509723279D+03
 0.733574823061658D+03 0.000000000000000D+00 0.000000000000000D+00 -.733574823061658D+03
 0.477822475662614D+03 0.428879036675340D+03 0.158606521527273D+03 0.599671699999286D+02
 0.250215059937952D+03 0.236382371427535D-01 -.130191210426428D+00 0.250215024951012D+03
 0.569890304215003D+03 -.402719106022784D+03 -.257641779255413D+03 -.310182194950940D+03
 0.115692492969369D+03 -.261835688896991D+02 0.991654489385664D+02 -.535293133383795D+02
0.123782891385D-03 0.000000000000D+00 0.000000000000D+00 0.288156228199D-05 0.000000000000D+00  6 2 3 25 2 3 21 0 0.83303187D-01 0.11891383D+00 0.23285794D+06 0.23285794D+06 0.23285794D+06 0.10927875D+01  1  2  2  2  6  2        3 0.326410045856D-03 0.100000000000D+01
0.714691776949D-04 0.000000000000D+00 -.475358895703D-06 0.288156228199D-05 0.000000000000D+00  6 2 3 25 2 3 21 2 0.83303187D-01 0.11891383D+00 0.23285794D+06 0.23285794D+06 0.23285794D+06 0.10927875D+01  1  2  3  2  6  2        3 0.225057297397D-03 0.100000000000D+01
-.713647233811D-04 0.000000000000D+00 0.000000000000D+00 0.288156228199D-05 0.000000000000D+00  6 2 3 25 2 3 21 2 0.83303187D-01 0.11891383D+00 0.23285794D+06 0.23285794D+06 0.23285794D+06 0.10927875D+01  1  2 15  2  6  2        3 -.224728369510D-03 0.100000000000D+01
-.454993628731D-04 0.000000000000D+00 0.000000000000D+00 0.288156228199D-05 0.000000000000D+00  6 2 3 25 2 3 21 2 0.83303187D-01 0.11891383D+00 0.23285794D+06 0.23285794D+06 0.23285794D+06 0.10927875D+01  1  2  4  2  6  2        3 -.143278039174D-03 0.100000000000D+01
-.664416612794D-03 0.000000000000D+00 -.160153926926D-03 0.288156228199D-05 0.000000000000D+00  6 2 3 25 2 3 21 2 0.83303187D-01 0.13937238D+00 0.23285794D+06 0.23285794D+06 0.23285794D+06 0.10927875D+01  1  2  5  2  6  2        3 -.136595219809D-02 0.100000000000D+01
0.683211062610D-03 0.000000000000D+00 0.158156833864D-03 0.288156228199D-05 0.000000000000D+00  6 2 3 25 2 3 21 2 0.83303187D-01 0.11891383D+00 0.23285794D+06 0.23285794D+06 0.23285794D+06 0.10927875D+01  1  2  6  2  6  2        3 0.215143982709D-02 0.100000000000D+01
-.146337822120D-04 0.000000000000D+00 -.382394153130D-05 0.288156228199D-05 0.000000000000D+00  6 2 21 25 2 3 -3 2 0.83303187D-01 0.13937238D+00 0.23285794D+06 0.23285794D+06 0.23285794D+06 0.10927875D+01  1  2  5  6  6  2        3 -.379665622600D-03 0.100000000000D+01
  </mgrwgt>
  </event>
  <event>
  6     66 0.17247933E-05 0.82538701E+02 0.75467711E-02 0.86611401E-01
        2 -1    0    0  501    0 0.00000000E+00 0.00000000E+00 0.16551660E+04 0.16551660E+04 0.32000000E+00 0.0000E+00 0.9000E+01
        3 -1    0    0  503    0 0.00000000E+00 0.00000000E+00 -.10104072E+04 0.10104073E+04 0.50000000E+00 0.0000E+00 0.9000E+01
       25  1    1    2    0    0 0.29462441E+03 0.86969498E+03 0.81352203E+03 0.12331326E+04 0.12500000E+03 0.0000E+00 0.9000E+01
        2  1    1    2  501    0 0.48565120E+02 0.72394356E+02 0.20296414E+03 0.22089377E+03 0.32000000E+00 0.0000E+00 0.9000E+01
        3  1    1    2  502    0 -.23142656E+03 -.10003958E+04 -.33865974E+03 0.10812219E+04 0.50000000E+00 0.0000E+00 0.9000E+01
       21  1    1    2  503  502 -.11176296E+03 0.58306493E+02 -.33067622E+02 0.13032512E+03 0.75000000E+00 0.0000E+00 0.9000E+01
#aMCatNLO 2  0  0  2  5 0.20247384D+02 0.00000000D+00  -5  6  0 0.00000000D+00 0.00000000D+00 0.00000000D+00 0.00000000D+00 0.00000000D+00
  <mgrwgt>
 0.5764766528D-06    1    2    0
 0.121985084709924D+04 0.000000000000000D+00 0.000000000000000D+00 0.121985084709924D+04
 0.121985084709924D+04 0.000000000000000D+00 0.000000000000000D+00 -.121985084709924D+04
 0.106294624134381D+04 0.246256926842297D+03 0.895184121490456D+03 0.502227664113076D+03
 0.172389167100248D+03 0.405910253633865D+02 0.764011842684220D+02 0.149108191042105D+03
 0.120436628575442D+04 -.286847952205683D+03 -.971585305758878D+03 -.651335855155181D+03
 0.000000000000000D+00 -.000000000000000D+00 0.000000000000000D+00 -.000000000000000D+00
 0.125845041543230D+04 0.000000000000000D+00 0.000000000000000D+00 0.125845041543230D+04
 0.132892745057864D+04 0.000000000000000D+00 0.000000000000000D+00 -.132892745057864D+04
 0.105425120890617D+04 0.294719109755194D+03 0.869901506622880D+03 0.502227664113076D+03
 0.172652694626018D+03 0.484889575159170D+02 0.722808503325452D+02 0.149108191042105D+03
 0.121605229003018D+04 -.231445104572555D+03 -.100048885023588D+04 -.651335855155181D+03
 0.144421672448568D+03 -.111762962698556D+03 0.583064932804527D+02 -.704770351463459D+02
0.239429341866D-05 0.000000000000D+00 0.000000000000D+00 0.213596595613D-07 0.267381270756D-11  6 2 3 25 2 3 21 2 0.25464074D+00 0.15544715D+00 0.11739118D+07 0.11739118D+07 0.11739118D+07 0.10432598D+01  1  2  1  2  6  2        3 0.576476652762D-06 0.100000000000D+01
  </mgrwgt>
  </event>
  <event>
  5     66 0.17247933E-05 0.41108226E+02 0.75467711E-02 0.92420863E-01
        2 -1    0    0  501    0 0.00000000E+00 0.00000000E+00 0.22639501E+04 0.22639501E+04 0.32000000E+00 0.0000E+00 0.9000E+01
        3 -1    0    0  502    0 0.00000000E+00 0.00000000E+00 -.51098645E+03 0.51098669E+03 0.50000000E+00 0.0000E+00 0.9000E+01
       25  1    1    2    0    0 0.42424022E+03 0.16318205E+03 -.13218856E+03 0.48959878E+03 0.12500000E+03 0.0000E+00 0.9000E+01
        2  1    1    2  501    0 -.40813888E+03 -.20102146E+03 0.20579880E+04 0.21076768E+04 0.32000000E+00 0.0000E+00 0.9000E+01
        3  1    1    2  502    0 -.16101344E+02 0.37839415E+02 -.17283574E+03 0.17766124E+03 0.50000000E+00 0.0000E+00 0.9000E+01
#aMCatNLO 1  0  0  5  2 0.25695386D+01 0.00000000D+00  -5  6  0 0.00000000D+00 0.00000000D+00 0.00000000D+00 0.00000000D+00 0.00000000D+00
  <mgrwgt>
 0.1355532061D-02    4    2    0
 0.107556877782508D+04 0.000000000000000D+00 0.000000000000000D+00 0.107556877782508D+04
 0.107556877782508D+04 -.000000000000000D+00 -.000000000000000D+00 -.107556877782508D+04
 0.739434371813028D+03 0.424241248752262D+03 0.163198695609218D+03 -.569669850726804D+03
 0.104183637901581D+04 -.408146453223469D+03 -.201025192079001D+03 0.937245104287815D+03
 0.369866804821322D+03 -.160947955287934D+02 0.378264964697834D+02 -.367575253561011D+03
 0.000000000000000D+00 0.000000000000000D+00 0.000000000000000D+00 0.000000000000000D+00
 0.107556877782508D+04 0.000000000000000D+00 0.000000000000000D+00 0.107556877782508D+04
 0.107556877782508D+04 -.000000000000000D+00 -.000000000000000D+00 -.107556877782508D+04
 0.799119540291361D+03 0.420924974874745D+03 0.170992707151415D+03 -.645407390183287D+03
 0.954181992459548D+03 -.412448768229976D+03 -.190913755551932D+03 0.838988215805625D+03
 0.244941956387172D+03 0.141619524853731D+03 -.855373701846402D+01 -.199667988826446D+03
 0.152894066512079D+03 -.150095731498500D+03 0.284747854189809D+02 0.608716320410770D+01
0.757347977302D-02 0.000000000000D+00 0.000000000000D+00 0.264835322182D-04 0.000000000000D+00  6 2 3 25 2 3 21 0 0.34830004D+00 0.78613320D-01 0.23401294D+06 0.23401294D+06 0.23401294D+06 0.10926248D+01  1  2  2  4  6  5        3 0.491068156450D-02 0.100000000000D+01
0.216055780163D-02 0.000000000000D+00 -.290841564714D-04 0.264835322182D-04 0.000000000000D+00  6 2 3 25 2 3 21 2 0.34830004D+00 0.78613320D-01 0.23401294D+06 0.23401294D+06 0.23401294D+06 0.10926248D+01  1  2  3  4  6  5        3 0.167245445409D-02 0.100000000000D+01
-.550177092995D-02 0.000000000000D+00 0.000000000000D+00 0.264835322182D-04 0.000000000000D+00  6 2 3 25 2 3 21 2 0.34830004D+00 0.78613320D-01 0.23401294D+06 0.23401294D+06 0.23401294D+06 0.10926248D+01  1  2 15  4  6  5        3 -.425883597756D-02 0.100000000000D+01
-.125150147531D-02 0.000000000000D+00 0.000000000000D+00 0.264835322182D-04 0.000000000000D+00  6 2 3 25 2 3 21 2 0.34830004D+00 0.78613320D-01 0.23401294D+06 0.23401294D+06 0.23401294D+06 0.10926248D+01  1  2  4  4  6  5        3 -.968767979784D-03 0.100000000000D+01
  </mgrwgt>
  </event>
  <event>
  5     66 -.17247933E-05 0.11814384E+03 0.75467711E-02 0.93971078E-01
        4 -1    0    0  501    0 0.00000000E+00 0.00000000E+00 0.64847812E+03 0.64847998E+03 0.15500000E+01 0.0000E+00 0.9000E+01
        1 -1    0    0  502    0 0.00000000E+00 0.00000000E+00 -.88536635E+03 0.88536641E+03 0.32000000E+00 0.0000E+00 0.9000E+01
       25  1    1    2    0    0 -.50248785E+03 -.80412600E+02 -.11145821E+03 0.53573142E+03 0.12500000E+03 0.0000E+00 0.9000E+01
        4  1    1    2  501    0 0.11402648E+03 -.31586822E+02 0.35267173E+03 0.37199398E+03 0.15500000E+01 0.0000E+00 0.9000E+01
        1  1    1    2  502    0 0.38846136E+03 0.11199942E+03 -.47810175E+03 0.62612099E+03 0.32000000E+00 0.0000E+00 0.9000E+01
#aMCatNLO 1  0  0  2  5 0.16964879D+02 0.00000000D+00  -5  6  0 0.00000000D+00 0.00000000D+00 0.00000000D+00 0.00000000D+00 0.00000000D+00
  <mgrwgt>
 -.8699976973D-04    9    2    0
 0.757721701423423D+03 0.000000000000000D+00 0.000000000000000D+00 0.757721701423423D+03
 0.757721701423423D+03 0.000000000000000D+00 0.000000000000000D+00 -.757721701423423D+03
 0.525087621838319D+03 -.502788315379494D+03 -.805540903004093D+02 -.284070248626203D+02
 0.430991974120252D+03 0.113856128179981D+03 -.315396322131457D+02 0.414482949506726D+03
 0.559363806888275D+03 0.388932187199512D+03 0.112093722513555D+03 -.386075924644105D+03
 0.000000000000000D+00 0.000000000000000D+00 -.000000000000000D+00 -.000000000000000D+00
 0.757923730581628D+03 0.000000000000000D+00 0.000000000000000D+00 0.757923730581628D+03
 0.122332096672330D+04 0.000000000000000D+00 0.000000000000000D+00 -.122332096672330D+04
 0.529284720827551D+03 -.507682723747968D+03 -.772567708864224D+02 -.284070248626203D+02
 0.429764630531511D+03 0.109860486262463D+03 -.288478037685001D+02 0.414482949506726D+03
 0.556489006571078D+03 0.383752385788587D+03 0.115583308683530D+03 -.386075924644105D+03
 0.465706339374789D+03 0.140698516969178D+02 -.947873402860784D+01 -.465397236141672D+03
0.311401415643D-05 0.000000000000D+00 0.000000000000D+00 0.773270294223D-06 0.000000000000D+00  6 4 1 25 4 1 21 0 0.99766012D-01 0.13621036D+00 0.27417041D+06 0.27417041D+06 0.27417041D+06 0.10874566D+01  1  2  2  2  6  2        1 0.223368710870D-05 0.100000000000D+01
0.473331520766D-06 0.000000000000D+00 -.119586342995D-07 0.773270294223D-06 0.000000000000D+00  6 4 1 25 4 1 21 2 0.99766012D-01 0.13621036D+00 0.27417041D+06 0.27417041D+06 0.27417041D+06 0.10874566D+01  1  2  3  2  6  2        1 0.401505092692D-06 0.100000000000D+01
-.194250861803D-05 0.000000000000D+00 0.000000000000D+00 0.773270294223D-06 0.000000000000D+00  6 4 1 25 4 1 21 2 0.99766012D-01 0.13621036D+00 0.27417041D+06 0.27417041D+06 0.27417041D+06 0.10874566D+01  1  2 15  2  6  2        1 -.164773962544D-05 0.100000000000D+01
0.156497761350D-02 0.000000000000D+00 0.000000000000D+00 0.773270294223D-06 0.000000000000D+00  6 4 1 25 4 1 21 2 0.99766012D-01 0.22009007D+00 0.28082188D+06 0.28082188D+06 0.28082188D+06 0.10866809D+01  1  2 12  2  6  2        1 0.530790178984D-03 0.100000000000D+01
-.150469550537D-02 0.000000000000D+00 0.000000000000D+00 0.773270294223D-06 0.000000000000D+00  6 4 1 25 4 1 21 2 0.99766012D-01 0.13621036D+00 0.27417041D+06 0.27417041D+06 0.27417041D+06 0.10874566D+01  1  2  4  2  6  2        1 -.127636314476D-02 0.100000000000D+01
-.156853283441D-02 0.000000000000D+00 -.168016012036D-05 0.773270294223D-06 0.000000000000D+00  6 4 1 25 4 1 21 2 0.99766012D-01 0.21992541D+00 0.27417041D+06 0.27417041D+06 0.27417041D+06 0.10874566D+01  1  2  5  2  6  2        1 -.534181220122D-03 0.100000000000D+01
0.140514717888D-02 0.000000000000D+00 0.150420617774D-05 0.773270294223D-06 0.000000000000D+00  6 4 1 25 4 1 21 2 0.99766012D-01 0.13621036D+00 0.27417041D+06 0.27417041D+06 0.27417041D+06 0.10874566D+01  1  2  6  2  6  2        1 0.119192093395D-02 0.100000000000D+01
0.854321983556D-04 0.000000000000D+00 0.000000000000D+00 0.773270294223D-06 0.000000000000D+00  6 4 21 25 4 1 -1 2 0.99766012D-01 0.22009007D+00 0.28082188D+06 0.28082188D+06 0.28082188D+06 0.10866809D+01  1  2 12  6  6  2        1 0.240538721711D-04 0.100000000000D+01
-.854502977705D-04 0.000000000000D+00 -.916087851364D-07 0.773270294223D-06 0.000000000000D+00  6 4 21 25 4 1 -1 2 0.99766012D-01 0.21992541D+00 0.27417041D+06 0.27417041D+06 0.27417041D+06 0.10874566D+01  1  2  5  6  6  2        1 -.242078425344D-04 0.100000000000D+01
  </mgrwgt>
  </event>
</LesHouchesEvents>
