<event>
 5    0  0.3372079E-003  0.7174933E+03  0.7546771E-02  0.9687775E-01
         21   -1    0    0  501  502  0.00000000000E+00  0.00000000000E+00  0.10823647605E+04  0.10823647605E+04  0.00000000000E+00 0.  1.
         21   -1    0    0  502  503 -0.00000000000E+00 -0.00000000000E+00 -0.11890554176E+03  0.11890554176E+03  0.00000000000E+00 0.  1.
         25    1    1    2    0    0  0.27621922733E+03 -0.20007709027E+03  0.45149568566E+03  0.57948361303E+03  0.12500000000E+03 0.  0.
          1    1    1    2  501    0 -0.23941762971E+03  0.14445923775E+03  0.45512300479E+03  0.53415936038E+03  0.00000000000E+00 0.  1.
         -1    1    1    2    0  503 -0.36801597615E+02  0.55617852519E+02  0.56840528296E+02  0.87627328858E+02  0.00000000000E+00 0. -1.
<mgrwt>
<rscale>  4 0.71749333E+03</rscale>
<asrwt>0</asrwt>
<pdfrwt beam="1">  1       21 0.16651765E+00 0.71749333E+03</pdfrwt>
<pdfrwt beam="2">  1       21 0.18293161E-01 0.71749333E+03</pdfrwt>
<totfact> 0.49622117E+03</totfact>
</mgrwt>
</event>
<event>
 5    0  0.3372079E-003  0.6863034E+03  0.7546771E-02  0.9740946E-01
         21   -1    0    0  501  502  0.00000000000E+00  0.00000000000E+00  0.13691143137E+04  0.13691143137E+04  0.00000000000E+00 0. -1.
         21   -1    0    0  502  503 -0.00000000000E+00 -0.00000000000E+00 -0.86006751545E+02  0.86006751545E+02  0.00000000000E+00 0. -1.
         25    1    1    2    0    0  0.20777355337E+02  0.23931708176E+03  0.37782640318E+03  0.46484637791E+03  0.12500000000E+03 0.  0.
          2    1    1    2  501    0  0.13272472936E+03 -0.18952621434E+03  0.63044847665E+03  0.67156631945E+03  0.00000000000E+00 0.  1.
         -2    1    1    2    0  503 -0.15350208470E+03 -0.49790867418E+02  0.27483268233E+03  0.31870836789E+03  0.00000000000E+00 0. -1.
<mgrwt>
<rscale>  4 0.68630336E+03</rscale>
<asrwt>0</asrwt>
<pdfrwt beam="1">  1       21 0.21063296E+00 0.68630336E+03</pdfrwt>
<pdfrwt beam="2">  1       21 0.13231809E-01 0.68630336E+03</pdfrwt>
<totfact> 0.45046179E+03</totfact>
</mgrwt>
</event>
<event>
 5    0  0.3372079E-003  0.4621036E+03  0.7546771E-02  0.1024173E+00
         21   -1    0    0  503  502  0.00000000000E+00  0.00000000000E+00  0.55245344279E+03  0.55245344279E+03  0.00000000000E+00 0. -1.
         21   -1    0    0  501  503 -0.00000000000E+00 -0.00000000000E+00 -0.96632441795E+02  0.96632441795E+02  0.00000000000E+00 0. -1.
         25    1    1    2    0    0  0.18066047568E+03  0.89604571225E+02  0.31022641521E+03  0.39055424124E+03  0.12500000000E+03 0.  0.
          3    1    1    2  501    0 -0.97294691290E+02 -0.85683589087E+02  0.97412551581E+02  0.16216392816E+03  0.00000000000E+00 0. -1.
         -3    1    1    2    0  502 -0.83365784394E+02 -0.39209821386E+01  0.48182034205E+02  0.96367715179E+02  0.00000000000E+00 0.  1.
<mgrwt>
<rscale>  4 0.46210356E+03</rscale>
<asrwt>0</asrwt>
<pdfrwt beam="1">  1       21 0.84992836E-01 0.46210356E+03</pdfrwt>
<pdfrwt beam="2">  1       21 0.14866530E-01 0.46210356E+03</pdfrwt>
<totfact> 0.43668282E+04</totfact>
</mgrwt>
</event>
<event>
 5    0  0.3372079E-003  0.6089815E+03  0.7546771E-02  0.9886946E-01
         21   -1    0    0  501  502  0.00000000000E+00  0.00000000000E+00  0.14391498536E+03  0.14391498536E+03  0.00000000000E+00 0.  1.
         21   -1    0    0  502  503 -0.00000000000E+00 -0.00000000000E+00 -0.64423188149E+03  0.64423188149E+03  0.00000000000E+00 0.  1.
         25    1    1    2    0    0 -0.31176363440E+02 -0.26142353682E+03 -0.14500706265E+03  0.32552462190E+03  0.12500000000E+03 0.  0.
          1    1    1    2  501    0  0.49273015505E+02  0.22706791173E+03 -0.21334304358E+03  0.31544083572E+03  0.00000000000E+00 0.  1.
         -1    1    1    2    0  503 -0.18096652064E+02  0.34355625087E+02 -0.14196678990E+03  0.14718140923E+03  0.00000000000E+00 0. -1.
<mgrwt>
<rscale>  4 0.60898152E+03</rscale>
<asrwt>0</asrwt>
<pdfrwt beam="1">  1       21 0.22140767E-01 0.60898152E+03</pdfrwt>
<pdfrwt beam="2">  1       21 0.99112596E-01 0.60898152E+03</pdfrwt>
<totfact> 0.13787657E+04</totfact>
</mgrwt>
</event>
<event>
 5    0  0.3372079E-003  0.4912646E+03  0.7546771E-02  0.1016084E+00
         21   -1    0    0  501  502  0.00000000000E+00  0.00000000000E+00  0.22223362978E+03  0.22223362978E+03  0.00000000000E+00 0. -1.
         21   -1    0    0  502  503 -0.00000000000E+00 -0.00000000000E+00 -0.27149457401E+03  0.27149457401E+03  0.00000000000E+00 0. -1.
         25    1    1    2    0    0 -0.18670082714E+03  0.11127427978E+03 -0.66987790564E+01  0.25081674154E+03  0.12500000000E+03 0.  0.
          1    1    1    2  501    0  0.16606862920E+03 -0.68579731786E+02 -0.72253848080E+00  0.17967329039E+03  0.00000000000E+00 0. -1.
         -1    1    1    2    0  503  0.20632197937E+02 -0.42694547991E+02 -0.41839626685E+02  0.63238171867E+02  0.00000000000E+00 0.  1.
<mgrwt>
<rscale>  4 0.49126459E+03</rscale>
<asrwt>0</asrwt>
<pdfrwt beam="1">  1       21 0.34189789E-01 0.49126459E+03</pdfrwt>
<pdfrwt beam="2">  1       21 0.41768396E-01 0.49126459E+03</pdfrwt>
<totfact> 0.41382172E+04</totfact>
</mgrwt>
</event>
<event>
 5    0  0.3372079E-003  0.5490971E+03  0.7546771E-02  0.1001703E+00
         21   -1    0    0  503  502  0.00000000000E+00  0.00000000000E+00  0.53964808723E+03  0.53964808723E+03  0.00000000000E+00 0. -1.
         21   -1    0    0  501  503 -0.00000000000E+00 -0.00000000000E+00 -0.13967787774E+03  0.13967787774E+03  0.00000000000E+00 0. -1.
         25    1    1    2    0    0 -0.20922332026E+03 -0.69930325800E+02  0.19650609074E+03  0.32078698836E+03  0.12500000000E+03 0.  0.
          2    1    1    2  501    0  0.19346538977E+03  0.83072223865E+02  0.67597649400E+02  0.22113184669E+03  0.00000000000E+00 0. -1.
         -2    1    1    2    0  502  0.15757930493E+02 -0.13141898065E+02  0.13586646936E+03  0.13740712992E+03  0.00000000000E+00 0.  1.
<mgrwt>
<rscale>  4 0.54909708E+03</rscale>
<asrwt>0</asrwt>
<pdfrwt beam="1">  1       21 0.83022782E-01 0.54909708E+03</pdfrwt>
<pdfrwt beam="2">  1       21 0.21488905E-01 0.54909708E+03</pdfrwt>
<totfact> 0.22579031E+04</totfact>
</mgrwt>
</event>
<event>
 5    0  0.3372079E-003  0.6946896E+03  0.7546771E-02  0.9726357E-01
         21   -1    0    0  501  502  0.00000000000E+00  0.00000000000E+00  0.17210928389E+03  0.17210928389E+03  0.00000000000E+00 0. -1.
         21   -1    0    0  502  503 -0.00000000000E+00 -0.00000000000E+00 -0.70099879848E+03  0.70099879848E+03  0.00000000000E+00 0. -1.
         25    1    1    2    0    0  0.13451067921E+03 -0.19020537848E+03 -0.29828697200E+03  0.39858666120E+03  0.12500000000E+03 0.  0.
          1    1    1    2  501    0  0.36274595764E+02  0.23395287807E+03 -0.11097882559E+03  0.26146910943E+03  0.00000000000E+00 0. -1.
         -1    1    1    2    0  503 -0.17078527498E+03 -0.43747499584E+02 -0.11962371700E+03  0.21305231174E+03  0.00000000000E+00 0.  1.
<mgrwt>
<rscale>  4 0.69468957E+03</rscale>
<asrwt>0</asrwt>
<pdfrwt beam="1">  1       21 0.26478352E-01 0.69468957E+03</pdfrwt>
<pdfrwt beam="2">  1       21 0.10784597E+00 0.69468957E+03</pdfrwt>
<totfact> 0.77500575E+03</totfact>
</mgrwt>
</event>
<event>
 5    0  0.3372079E-003  0.4945298E+03  0.7546771E-02  0.1015217E+00
         21   -1    0    0  501  502  0.00000000000E+00  0.00000000000E+00  0.28863824531E+03  0.28863824531E+03  0.00000000000E+00 0. -1.
         21   -1    0    0  502  503 -0.00000000000E+00 -0.00000000000E+00 -0.21182202179E+03  0.21182202179E+03  0.00000000000E+00 0. -1.
         25    1    1    2    0    0 -0.74386339978E+02 -0.21535616671E+03  0.43968426747E+02  0.26357129712E+03  0.12500000000E+03 0.  0.
          2    1    1    2  501    0  0.88825703039E+01  0.32350422639E+02  0.25912167848E+02  0.42389743367E+02  0.00000000000E+00 0.  1.
         -2    1    1    2    0  503  0.65503769674E+02  0.18300574407E+03  0.69356289195E+01  0.19449922661E+03  0.00000000000E+00 0. -1.
<mgrwt>
<rscale>  4 0.49452982E+03</rscale>
<asrwt>0</asrwt>
<pdfrwt beam="1">  1       21 0.44405884E-01 0.49452982E+03</pdfrwt>
<pdfrwt beam="2">  1       21 0.32588003E-01 0.49452982E+03</pdfrwt>
<totfact> 0.40091984E+04</totfact>
</mgrwt>
</event>
<event>
 5    0  0.3372079E-003  0.4874477E+03  0.7546771E-02  0.1017108E+00
         21   -1    0    0  501  502  0.00000000000E+00  0.00000000000E+00  0.33111415896E+03  0.33111415896E+03  0.00000000000E+00 0. -1.
         21   -1    0    0  502  503 -0.00000000000E+00 -0.00000000000E+00 -0.17939827590E+03  0.17939827590E+03  0.00000000000E+00 0. -1.
         25    1    1    2    0    0 -0.16202542740E+03  0.12729354537E+03  0.11413495152E+03  0.26666022009E+03  0.12500000000E+03 0.  0.
          1    1    1    2  501    0  0.26713011560E+02 -0.81595509940E+02 -0.22737187260E+02  0.88816619579E+02  0.00000000000E+00 0.  1.
         -1    1    1    2    0  503  0.13531241584E+03 -0.45698035425E+02  0.60318118793E+02  0.15503559520E+03  0.00000000000E+00 0. -1.
<mgrwt>
<rscale>  4 0.48744768E+03</rscale>
<asrwt>0</asrwt>
<pdfrwt beam="1">  1       21 0.50940640E-01 0.48744768E+03</pdfrwt>
<pdfrwt beam="2">  1       21 0.27599735E-01 0.48744768E+03</pdfrwt>
<totfact> 0.41800338E+04</totfact>
</mgrwt>
</event>
<event>
 5    0  0.3372079E-003  0.5772091E+03  0.7546771E-02  0.9953852E-01
         21   -1    0    0  503  502  0.00000000000E+00  0.00000000000E+00  0.12721174799E+03  0.12721174799E+03  0.00000000000E+00 0. -1.
         21   -1    0    0  501  503 -0.00000000000E+00 -0.00000000000E+00 -0.65475534985E+03  0.65475534985E+03  0.00000000000E+00 0. -1.
         25    1    1    2    0    0  0.10769302297E+03 -0.21200989927E+03 -0.32674073908E+03  0.42300176732E+03  0.12500000000E+03 0.  0.
          2    1    1    2  501    0 -0.56816383613E+02  0.34318937351E+02  0.21582911824E+02  0.69797657486E+02  0.00000000000E+00 0.  1.
         -2    1    1    2    0  502 -0.50876639354E+02  0.17769096192E+03 -0.22238577461E+03  0.28916767304E+03  0.00000000000E+00 0. -1.
<mgrwt>
<rscale>  4 0.57720905E+03</rscale>
<asrwt>0</asrwt>
<pdfrwt beam="1">  1       21 0.19571038E-01 0.57720905E+03</pdfrwt>
<pdfrwt beam="2">  1       21 0.10073159E+00 0.57720905E+03</pdfrwt>
<totfact> 0.16909476E+04</totfact>
</mgrwt>
</event>
<event>
 5    0  0.3372079E-003  0.5765030E+03  0.7546771E-02  0.9955391E-01
         21   -1    0    0  501  502  0.00000000000E+00  0.00000000000E+00  0.77571476248E+02  0.77571476248E+02  0.00000000000E+00 0. -1.
         21   -1    0    0  502  503 -0.00000000000E+00 -0.00000000000E+00 -0.10711273732E+04  0.10711273732E+04  0.00000000000E+00 0. -1.
         25    1    1    2    0    0 -0.24725454071E+02 -0.19878492002E+03 -0.34444878423E+03  0.41760837811E+03  0.12500000000E+03 0.  0.
          3    1    1    2  501    0  0.44352159819E+02  0.26414281216E+03 -0.50451991826E+03  0.57120826957E+03  0.00000000000E+00 0.  1.
         -3    1    1    2    0  503 -0.19626705748E+02 -0.65357892138E+02 -0.14458719447E+03  0.15988220178E+03  0.00000000000E+00 0. -1.
<mgrwt>
<rscale>  4 0.57650302E+03</rscale>
<asrwt>0</asrwt>
<pdfrwt beam="1">  1       21 0.11934074E-01 0.57650302E+03</pdfrwt>
<pdfrwt beam="2">  1       21 0.16478882E+00 0.57650302E+03</pdfrwt>
<totfact> 0.11726576E+04</totfact>
</mgrwt>
</event>
<event>
 5    0  0.3372079E-003  0.6023859E+03  0.7546771E-02  0.9900468E-01
         21   -1    0    0  501  502  0.00000000000E+00  0.00000000000E+00  0.20300370231E+03  0.20300370231E+03  0.00000000000E+00 0.  1.
         21   -1    0    0  502  503 -0.00000000000E+00 -0.00000000000E+00 -0.44687455843E+03  0.44687455843E+03  0.00000000000E+00 0.  1.
         25    1    1    2    0    0 -0.20127624660E+03  0.19559435319E+03 -0.69873587915E+02  0.31508188893E+03  0.12500000000E+03 0.  0.
          4    1    1    2  501    0  0.18347284219E+03 -0.16277205820E+03 -0.13175876089E+03  0.27841946380E+03  0.00000000000E+00 0.  1.
         -4    1    1    2    0  503  0.17803404412E+02 -0.32822294992E+02 -0.42238507311E+02  0.56376908013E+02  0.00000000000E+00 0. -1.
<mgrwt>
<rscale>  4 0.60238589E+03</rscale>
<asrwt>0</asrwt>
<pdfrwt beam="1">  1       21 0.31231339E-01 0.60238589E+03</pdfrwt>
<pdfrwt beam="2">  1       21 0.68749932E-01 0.60238589E+03</pdfrwt>
<totfact> 0.16529035E+04</totfact>
</mgrwt>
</event>
<event>
 5    0  0.3372079E-003  0.5049889E+03  0.7546771E-02  0.1012485E+00
         21   -1    0    0  501  502  0.00000000000E+00  0.00000000000E+00  0.16718922523E+04  0.16718922523E+04  0.00000000000E+00 0.  1.
         21   -1    0    0  502  503 -0.00000000000E+00 -0.00000000000E+00 -0.38132502999E+02  0.38132502999E+02  0.00000000000E+00 0.  1.
         25    1    1    2    0    0  0.12037670675E+03 -0.16960746280E+03  0.12256965870E+04  0.12494856408E+04  0.12500000000E+03 0.  0.
          3    1    1    2  501    0 -0.22583413010E+01  0.30763739135E+02  0.50121679477E+02  0.58853126549E+02  0.00000000000E+00 0. -1.
         -3    1    1    2    0  503 -0.11811836545E+03  0.13884372366E+03  0.35794148278E+03  0.40168598800E+03  0.00000000000E+00 0.  1.
<mgrwt>
<rscale>  4 0.50498886E+03</rscale>
<asrwt>0</asrwt>
<pdfrwt beam="1">  1       21 0.25721414E+00 0.50498886E+03</pdfrwt>
<pdfrwt beam="2">  1       21 0.58665402E-02 0.50498886E+03</pdfrwt>
<totfact> 0.10354653E+04</totfact>
</mgrwt>
</event>
<event>
 5    0  0.3372079E-003  0.5959740E+03  0.7546771E-02  0.9913794E-01
         21   -1    0    0  501  502  0.00000000000E+00  0.00000000000E+00  0.80331907817E+03  0.80331907817E+03  0.00000000000E+00 0.  1.
         21   -1    0    0  502  503 -0.00000000000E+00 -0.00000000000E+00 -0.11053670309E+03  0.11053670309E+03  0.00000000000E+00 0.  1.
         25    1    1    2    0    0  0.16585265876E+03 -0.14964564545E+03  0.41999015146E+03  0.49185124880E+03  0.12500000000E+03 0.  0.
          1    1    1    2  501    0 -0.20544865646E+03  0.10011278904E+03  0.12344230576E+03  0.25974934807E+03  0.00000000000E+00 0.  1.
         -1    1    1    2    0  503  0.39595997706E+02  0.49532856404E+02  0.14934991786E+03  0.16225518440E+03  0.00000000000E+00 0. -1.
<mgrwt>
<rscale>  4 0.59597397E+03</rscale>
<asrwt>0</asrwt>
<pdfrwt beam="1">  1       21 0.12358755E+00 0.59597397E+03</pdfrwt>
<pdfrwt beam="2">  1       21 0.17005647E-01 0.59597397E+03</pdfrwt>
<totfact> 0.13151983E+04</totfact>
</mgrwt>
</event>
<event>
 5    0  0.3372079E-003  0.1174266E+04  0.7546771E-02  0.9135684E-01
         21   -1    0    0  501  502  0.00000000000E+00  0.00000000000E+00  0.15368482337E+04  0.15368482337E+04  0.00000000000E+00 0. -1.
         21   -1    0    0  502  503 -0.00000000000E+00 -0.00000000000E+00 -0.22430662568E+03  0.22430662568E+03  0.00000000000E+00 0. -1.
         25    1    1    2    0    0 -0.53275559185E+03  0.23076678089E+02  0.74630406535E+03  0.92571907816E+03  0.12500000000E+03 0.  0.
          3    1    1    2  501    0  0.84373695960E+02 -0.12844010918E+03  0.14100804264E+03  0.20856425941E+03  0.00000000000E+00 0.  1.
         -3    1    1    2    0  503  0.44838189589E+03  0.10536343109E+03  0.42522950006E+03  0.62687152184E+03  0.00000000000E+00 0. -1.
<mgrwt>
<rscale>  4 0.11742661E+04</rscale>
<asrwt>0</asrwt>
<pdfrwt beam="1">  1       21 0.23643818E+00 0.11742661E+04</pdfrwt>
<pdfrwt beam="2">  1       21 0.34508713E-01 0.11742661E+04</pdfrwt>
<totfact> 0.42596067E+02</totfact>
</mgrwt>
</event>
<event>
 5    0  0.3372079E-003  0.5463590E+03  0.7546771E-02  0.1002340E+00
         21   -1    0    0  501  502  0.00000000000E+00  0.00000000000E+00  0.19353338202E+04  0.19353338202E+04  0.00000000000E+00 0.  1.
         21   -1    0    0  502  503 -0.00000000000E+00 -0.00000000000E+00 -0.38560296157E+02  0.38560296157E+02  0.00000000000E+00 0.  1.
         25    1    1    2    0    0  0.20455621590E+03 -0.14489840390E+03  0.11006041258E+04  0.11356906421E+04  0.12500000000E+03 0.  0.
          2    1    1    2  501    0 -0.18219722589E+03  0.90845452260E+02  0.62287284432E+03  0.65530092744E+03  0.00000000000E+00 0.  1.
         -2    1    1    2    0  503 -0.22358990016E+02  0.54052951640E+02  0.17329655399E+03  0.18290254684E+03  0.00000000000E+00 0. -1.
<mgrwt>
<rscale>  4 0.54635902E+03</rscale>
<asrwt>0</asrwt>
<pdfrwt beam="1">  1       21 0.29774359E+00 0.54635902E+03</pdfrwt>
<pdfrwt beam="2">  1       21 0.59323548E-02 0.54635902E+03</pdfrwt>
<totfact> 0.56705546E+03</totfact>
</mgrwt>
</event>
<event>
 5    0  0.3372079E-003  0.6210548E+03  0.7546771E-02  0.9862662E-01
         21   -1    0    0  501  502  0.00000000000E+00  0.00000000000E+00  0.59302350158E+02  0.59302350158E+02  0.00000000000E+00 0. -1.
         21   -1    0    0  502  503 -0.00000000000E+00 -0.00000000000E+00 -0.16260276755E+04  0.16260276755E+04  0.00000000000E+00 0. -1.
         25    1    1    2    0    0 -0.20860025827E+03 -0.10115016059E+03 -0.12166853142E+04  0.12448668910E+04  0.12500000000E+03 0.  0.
          2    1    1    2  501    0 -0.13992025027E+02  0.29796041022E+02 -0.54325888386E+02  0.63520728695E+02  0.00000000000E+00 0.  1.
         -2    1    1    2    0  503  0.22259228330E+03  0.71354119566E+02 -0.29571412283E+03  0.37694240595E+03  0.00000000000E+00 0. -1.
<mgrwt>
<rscale>  4 0.62105479E+03</rscale>
<asrwt>0</asrwt>
<pdfrwt beam="1">  1       21 0.91234373E-02 0.62105479E+03</pdfrwt>
<pdfrwt beam="2">  1       21 0.25015814E+00 0.62105479E+03</pdfrwt>
<totfact> 0.50450904E+03</totfact>
</mgrwt>
</event>
<event>
 5    0  0.3372079E-003  0.5595024E+03  0.7546771E-02  0.9993181E-01
         21   -1    0    0  503  502  0.00000000000E+00  0.00000000000E+00  0.68785341981E+03  0.68785341981E+03  0.00000000000E+00 0. -1.
         21   -1    0    0  501  503 -0.00000000000E+00 -0.00000000000E+00 -0.11377531027E+03  0.11377531027E+03  0.00000000000E+00 0. -1.
         25    1    1    2    0    0  0.99923352418E+02 -0.22584568996E+03  0.29984662273E+03  0.40807346054E+03  0.12500000000E+03 0.  0.
          4    1    1    2  501    0  0.47038269092E+00  0.34497452099E+02 -0.10545751102E+02  0.36076423430E+02  0.00000000000E+00 0. -1.
         -4    1    1    2    0  502 -0.10039373511E+03  0.19134823786E+03  0.28477723791E+03  0.35747884611E+03  0.00000000000E+00 0.  1.
<mgrwt>
<rscale>  4 0.55950241E+03</rscale>
<asrwt>0</asrwt>
<pdfrwt beam="1">  1       21 0.10582360E+00 0.55950241E+03</pdfrwt>
<pdfrwt beam="2">  1       21 0.17503894E-01 0.55950241E+03</pdfrwt>
<totfact> 0.18575986E+04</totfact>
</mgrwt>
</event>
<event>
 5    0  0.3372079E-003  0.5318434E+03  0.7546771E-02  0.1005786E+00
         21   -1    0    0  503  502  0.00000000000E+00  0.00000000000E+00  0.15302667236E+03  0.15302667236E+03  0.00000000000E+00 0. -1.
         21   -1    0    0  501  503 -0.00000000000E+00 -0.00000000000E+00 -0.46210472938E+03  0.46210472938E+03  0.00000000000E+00 0. -1.
         25    1    1    2    0    0  0.23545586222E+03 -0.83747833956E+01 -0.16127963622E+03  0.31168208340E+03  0.12500000000E+03 0.  0.
          2    1    1    2  501    0 -0.68941804524E+02 -0.46575142949E+02 -0.80089924844E+02  0.11548425180E+03  0.00000000000E+00 0.  1.
         -2    1    1    2    0  502 -0.16651405770E+03  0.54949926345E+02 -0.67708495950E+02  0.18796506654E+03  0.00000000000E+00 0. -1.
<mgrwt>
<rscale>  4 0.53184339E+03</rscale>
<asrwt>0</asrwt>
<pdfrwt beam="1">  1       21 0.23542565E-01 0.53184339E+03</pdfrwt>
<pdfrwt beam="2">  1       21 0.71093035E-01 0.53184339E+03</pdfrwt>
<totfact> 0.27149607E+04</totfact>
</mgrwt>
</event>
<event>
 5    0  0.3372079E-003  0.4793201E+03  0.7546771E-02  0.1019322E+00
         21   -1    0    0  501  502  0.00000000000E+00  0.00000000000E+00  0.13572740201E+03  0.13572740201E+03  0.00000000000E+00 0.  1.
         21   -1    0    0  502  503 -0.00000000000E+00 -0.00000000000E+00 -0.42317869564E+03  0.42317869564E+03  0.00000000000E+00 0.  1.
         25    1    1    2    0    0 -0.10112516531E+03  0.17654396312E+03 -0.22636241249E+03  0.32902737235E+03  0.12500000000E+03 0.  0.
          1    1    1    2  501    0  0.10169279762E+03 -0.92306394324E+02 -0.39845772333E+02  0.14300203178E+03  0.00000000000E+00 0.  1.
         -1    1    1    2    0  503 -0.56763231380E+00 -0.84237568793E+02 -0.21243108809E+02  0.86876693506E+02  0.00000000000E+00 0. -1.
<mgrwt>
<rscale>  4 0.47932012E+03</rscale>
<asrwt>0</asrwt>
<pdfrwt beam="1">  1       21 0.20881139E-01 0.47932012E+03</pdfrwt>
<pdfrwt beam="2">  1       21 0.65104415E-01 0.47932012E+03</pdfrwt>
<totfact> 0.42150580E+04</totfact>
</mgrwt>
</event>
<event>
 5    0  0.3372079E-003  0.6445605E+03  0.7546771E-02  0.9817040E-01
         21   -1    0    0  501  502  0.00000000000E+00  0.00000000000E+00  0.64759057456E+02  0.64759057456E+02  0.00000000000E+00 0. -1.
         21   -1    0    0  502  503 -0.00000000000E+00 -0.00000000000E+00 -0.16038613939E+04  0.16038613939E+04  0.00000000000E+00 0. -1.
         25    1    1    2    0    0  0.25538858005E+03  0.14277607410E+03 -0.60081504858E+03  0.67986179240E+03  0.12500000000E+03 0.  0.
          4    1    1    2  501    0 -0.19704881115E+03 -0.54917384506E+02 -0.56643285879E+03  0.60223777415E+03  0.00000000000E+00 0. -1.
         -4    1    1    2    0  503 -0.58339768901E+02 -0.87858689598E+02 -0.37185442905E+03  0.38652088479E+03  0.00000000000E+00 0.  1.
<mgrwt>
<rscale>  4 0.64456048E+03</rscale>
<asrwt>0</asrwt>
<pdfrwt beam="1">  1       21 0.99629329E-02 0.64456048E+03</pdfrwt>
<pdfrwt beam="2">  1       21 0.24674788E+00 0.64456048E+03</pdfrwt>
<totfact> 0.44894431E+03</totfact>
</mgrwt>
</event>
<event>
 5    0  0.3372079E-003  0.4825273E+03  0.7546771E-02  0.1018443E+00
         21   -1    0    0  503  502  0.00000000000E+00  0.00000000000E+00  0.66809502064E+03  0.66809502064E+03  0.00000000000E+00 0. -1.
         21   -1    0    0  501  503 -0.00000000000E+00 -0.00000000000E+00 -0.87125562935E+02  0.87125562935E+02  0.00000000000E+00 0. -1.
         25    1    1    2    0    0 -0.21051910871E+03 -0.55554273796E+01  0.19468367749E+03  0.31285123012E+03  0.12500000000E+03 0.  0.
          4    1    1    2  501    0  0.30887621875E+02  0.43360760106E+01  0.29587078132E+02  0.42991184360E+02  0.00000000000E+00 0.  1.
         -4    1    1    2    0  502  0.17963148684E+03  0.12193513690E+01  0.35669870208E+03  0.39937816909E+03  0.00000000000E+00 0. -1.
<mgrwt>
<rscale>  4 0.48252732E+03</rscale>
<asrwt>0</asrwt>
<pdfrwt beam="1">  1       21 0.10278385E+00 0.48252732E+03</pdfrwt>
<pdfrwt beam="2">  1       21 0.13403933E-01 0.48252732E+03</pdfrwt>
<totfact> 0.33396190E+04</totfact>
</mgrwt>
</event>
<event>
 5    0  0.3372079E-003  0.5640958E+03  0.7546771E-02  0.9982830E-01
         21   -1    0    0  501  502  0.00000000000E+00  0.00000000000E+00  0.47087795777E+03  0.47087795777E+03  0.00000000000E+00 0.  1.
         21   -1    0    0  502  503 -0.00000000000E+00 -0.00000000000E+00 -0.16894188616E+03  0.16894188616E+03  0.00000000000E+00 0.  1.
         25    1    1    2    0    0  0.61384598824E+02  0.22915339238E+03  0.25009010566E+03  0.36667343394E+03  0.12500000000E+03 0.  0.
          4    1    1    2  501    0 -0.80603902333E+02 -0.20606741058E+03  0.76670089439E+02  0.23417743143E+03  0.00000000000E+00 0.  1.
         -4    1    1    2    0  503  0.19219303508E+02 -0.23085981794E+02 -0.24824123493E+02  0.38968978559E+02  0.00000000000E+00 0. -1.
<mgrwt>
<rscale>  4 0.56409577E+03</rscale>
<asrwt>0</asrwt>
<pdfrwt beam="1">  1       21 0.72442762E-01 0.56409577E+03</pdfrwt>
<pdfrwt beam="2">  1       21 0.25991060E-01 0.56409577E+03</pdfrwt>
<totfact> 0.21303426E+04</totfact>
</mgrwt>
</event>
<event>
 5    0  0.3372079E-003  0.6556958E+03  0.7546771E-02  0.9796150E-01
         21   -1    0    0  501  502  0.00000000000E+00  0.00000000000E+00  0.34731197869E+03  0.34731197869E+03  0.00000000000E+00 0.  1.
         21   -1    0    0  502  503 -0.00000000000E+00 -0.00000000000E+00 -0.30947466533E+03  0.30947466533E+03  0.00000000000E+00 0.  1.
         25    1    1    2    0    0  0.12538208745E+03 -0.27943965651E+03  0.68943265091E+02  0.33791324816E+03  0.12500000000E+03 0.  0.
          1    1    1    2  501    0 -0.65676734257E+02  0.66953179403E+02 -0.28926509779E+02  0.98147361772E+02  0.00000000000E+00 0.  1.
         -1    1    1    2    0  503 -0.59705353197E+02  0.21248647711E+03 -0.21794419513E+01  0.22072603408E+03  0.00000000000E+00 0. -1.
<mgrwt>
<rscale>  4 0.65569584E+03</rscale>
<asrwt>0</asrwt>
<pdfrwt beam="1">  1       21 0.53432612E-01 0.65569584E+03</pdfrwt>
<pdfrwt beam="2">  1       21 0.47611487E-01 0.65569584E+03</pdfrwt>
<totfact> 0.11957684E+04</totfact>
</mgrwt>
</event>
<event>
 5    0  0.3372079E-003  0.5566182E+03  0.7546771E-02  0.9999736E-01
         21   -1    0    0  501  502  0.00000000000E+00  0.00000000000E+00  0.12332667071E+04  0.12332667071E+04  0.00000000000E+00 0. -1.
         21   -1    0    0  502  503 -0.00000000000E+00 -0.00000000000E+00 -0.62805521095E+02  0.62805521095E+02  0.00000000000E+00 0. -1.
         25    1    1    2    0    0 -0.13744927161E+03 -0.16800845019E+03  0.34877287755E+03  0.42940268015E+03  0.12500000000E+03 0.  0.
          2    1    1    2  501    0  0.73128842903E+02  0.17627715604E+02  0.50165322543E+03  0.50726178903E+03  0.00000000000E+00 0.  1.
         -2    1    1    2    0  503  0.64320428703E+02  0.15038073458E+03  0.32003508303E+03  0.35940775903E+03  0.00000000000E+00 0. -1.
<mgrwt>
<rscale>  4 0.55661821E+03</rscale>
<asrwt>0</asrwt>
<pdfrwt beam="1">  1       21 0.18973332E+00 0.55661821E+03</pdfrwt>
<pdfrwt beam="2">  1       21 0.96623888E-02 0.55661821E+03</pdfrwt>
<totfact> 0.11454384E+04</totfact>
</mgrwt>
</event>
<event>
 5    0  0.3372079E-003  0.7310307E+03  0.7546771E-02  0.9665589E-01
         21   -1    0    0  503  502  0.00000000000E+00  0.00000000000E+00  0.17952908074E+04  0.17952908074E+04  0.00000000000E+00 0. -1.
         21   -1    0    0  501  503 -0.00000000000E+00 -0.00000000000E+00 -0.74417731759E+02  0.74417731759E+02  0.00000000000E+00 0. -1.
         25    1    1    2    0    0 -0.18333484619E+03 -0.26019653755E+03  0.55866694084E+03  0.65501729349E+03  0.12500000000E+03 0.  0.
          2    1    1    2  501    0  0.19317572110E+03  0.16645933633E+03  0.92325617070E+03  0.95782437149E+03  0.00000000000E+00 0. -1.
         -2    1    1    2    0  502 -0.98408749092E+01  0.93737201213E+02  0.23894996408E+03  0.25686687417E+03  0.00000000000E+00 0.  1.
<mgrwt>
<rscale>  4 0.73103070E+03</rscale>
<asrwt>0</asrwt>
<pdfrwt beam="1">  1       21 0.27619855E+00 0.73103070E+03</pdfrwt>
<pdfrwt beam="2">  1       21 0.11448883E-01 0.73103070E+03</pdfrwt>
<totfact> 0.22315729E+03</totfact>
</mgrwt>
</event>
<event>
 5    0  0.3372079E-003  0.5105503E+03  0.7546771E-02  0.1011061E+00
         21   -1    0    0  501  502  0.00000000000E+00  0.00000000000E+00  0.24065512319E+04  0.24065512319E+04  0.00000000000E+00 0. -1.
         21   -1    0    0  502  503 -0.00000000000E+00 -0.00000000000E+00 -0.27078334470E+02  0.27078334470E+02  0.00000000000E+00 0. -1.
         25    1    1    2    0    0 -0.11971188074E+03  0.18837749829E+03  0.14986834578E+04  0.15203598662E+04  0.12500000000E+03 0.  0.
          1    1    1    2  501    0  0.10379070461E+03 -0.84283252513E+02  0.55531926476E+03  0.57118794002E+03  0.00000000000E+00 0.  1.
         -1    1    1    2    0  503  0.15921176131E+02 -0.10409424578E+03  0.32547017494E+03  0.34208176015E+03  0.00000000000E+00 0. -1.
<mgrwt>
<rscale>  4 0.51055029E+03</rscale>
<asrwt>0</asrwt>
<pdfrwt beam="1">  1       21 0.37023848E+00 0.51055029E+03</pdfrwt>
<pdfrwt beam="2">  1       21 0.41658995E-02 0.51055029E+03</pdfrwt>
<totfact> 0.38114350E+03</totfact>
</mgrwt>
</event>
<event>
 5    0  0.3372079E-003  0.5206421E+03  0.7546771E-02  0.1008527E+00
         21   -1    0    0  503  502  0.00000000000E+00  0.00000000000E+00  0.26437983906E+03  0.26437983906E+03  0.00000000000E+00 0.  1.
         21   -1    0    0  501  503 -0.00000000000E+00 -0.00000000000E+00 -0.25632459095E+03  0.25632459095E+03  0.00000000000E+00 0.  1.
         25    1    1    2    0    0  0.98582360058E+02  0.19506931014E+03  0.74987047330E+02  0.26271386476E+03  0.12500000000E+03 0.  0.
          3    1    1    2  501    0  0.13952515284E+02 -0.96572320947E+02 -0.10469169621E+02  0.98135056776E+02  0.00000000000E+00 0. -1.
         -3    1    1    2    0  502 -0.11253487534E+03 -0.98496989188E+02 -0.56462629599E+02  0.15985550847E+03  0.00000000000E+00 0.  1.
<mgrwt>
<rscale>  4 0.52064212E+03</rscale>
<asrwt>0</asrwt>
<pdfrwt beam="1">  1       21 0.40673821E-01 0.52064212E+03</pdfrwt>
<pdfrwt beam="2">  1       21 0.39434553E-01 0.52064212E+03</pdfrwt>
<totfact> 0.32481227E+04</totfact>
</mgrwt>
</event>
<event>
 5    0  0.3372079E-003  0.5096489E+03  0.7546771E-02  0.1011291E+00
         21   -1    0    0  503  502  0.00000000000E+00  0.00000000000E+00  0.11023229091E+03  0.11023229091E+03  0.00000000000E+00 0.  1.
         21   -1    0    0  501  503 -0.00000000000E+00 -0.00000000000E+00 -0.58907878472E+03  0.58907878472E+03  0.00000000000E+00 0.  1.
         25    1    1    2    0    0  0.93617770736E+02 -0.19555192791E+03 -0.12645454881E+03  0.28039364548E+03  0.12500000000E+03 0.  0.
          1    1    1    2  501    0 -0.75631082165E+02  0.83819644327E+02 -0.18922204319E+03  0.22034240398E+03  0.00000000000E+00 0. -1.
         -1    1    1    2    0  502 -0.17986688571E+02  0.11173228358E+03 -0.16316990181E+03  0.19857502617E+03  0.00000000000E+00 0.  1.
<mgrwt>
<rscale>  4 0.50964891E+03</rscale>
<asrwt>0</asrwt>
<pdfrwt beam="1">  1       21 0.16958814E-01 0.50964891E+03</pdfrwt>
<pdfrwt beam="2">  1       21 0.90627503E-01 0.50964891E+03</pdfrwt>
<totfact> 0.29042956E+04</totfact>
</mgrwt>
</event>
<event>
 5    0  0.3372079E-003  0.1213668E+04  0.7546771E-02  0.9100977E-01
         21   -1    0    0  501  502  0.00000000000E+00  0.00000000000E+00  0.58411502135E+03  0.58411502135E+03  0.00000000000E+00 0.  1.
         21   -1    0    0  502  503 -0.00000000000E+00 -0.00000000000E+00 -0.63043635529E+03  0.63043635529E+03  0.00000000000E+00 0.  1.
         25    1    1    2    0    0  0.47281353726E+03 -0.21827722438E+03  0.13906394415E+02  0.53573871944E+03  0.12500000000E+03 0.  0.
          4    1    1    2  501    0 -0.23672199026E+03  0.25819654197E+03  0.12934829564E+03  0.37340827059E+03  0.00000000000E+00 0. -1.
         -4    1    1    2    0  503 -0.23609154701E+03 -0.39919317589E+02 -0.18957602400E+03  0.30540438661E+03  0.00000000000E+00 0.  1.
<mgrwt>
<rscale>  4 0.12136677E+04</rscale>
<asrwt>0</asrwt>
<pdfrwt beam="1">  1       21 0.89863850E-01 0.12136677E+04</pdfrwt>
<pdfrwt beam="2">  1       21 0.96990208E-01 0.12136677E+04</pdfrwt>
<totfact> 0.65471370E+02</totfact>
</mgrwt>
</event>
<event>
 5    0  0.3372079E-003  0.6667945E+03  0.7546771E-02  0.9775766E-01
         21   -1    0    0  501  502  0.00000000000E+00  0.00000000000E+00  0.11787710148E+04  0.11787710148E+04  0.00000000000E+00 0. -1.
         21   -1    0    0  502  503 -0.00000000000E+00 -0.00000000000E+00 -0.94296294515E+02  0.94296294515E+02  0.00000000000E+00 0. -1.
         25    1    1    2    0    0 -0.21442706312E+03  0.13104496861E+03  0.86343067767E+03  0.90790378583E+03  0.12500000000E+03 0.  0.
          4    1    1    2  501    0  0.77349408125E+01 -0.32642988136E+02  0.10151831754E+03  0.10691755131E+03  0.00000000000E+00 0.  1.
         -4    1    1    2    0  503  0.20669212231E+03 -0.98401980469E+02  0.11952572508E+03  0.25824597217E+03  0.00000000000E+00 0. -1.
<mgrwt>
<rscale>  4 0.66679454E+03</rscale>
<asrwt>0</asrwt>
<pdfrwt beam="1">  1       21 0.18134938E+00 0.66679454E+03</pdfrwt>
<pdfrwt beam="2">  1       21 0.14507123E-01 0.66679454E+03</pdfrwt>
<totfact> 0.60560577E+03</totfact>
</mgrwt>
</event>
<event>
 5    0  0.3372079E-003  0.5216290E+03  0.7546771E-02  0.1008283E+00
         21   -1    0    0  501  502  0.00000000000E+00  0.00000000000E+00  0.13586965892E+04  0.13586965892E+04  0.00000000000E+00 0.  1.
         21   -1    0    0  502  503 -0.00000000000E+00 -0.00000000000E+00 -0.50065784699E+02  0.50065784699E+02  0.00000000000E+00 0.  1.
         25    1    1    2    0    0  0.18931467473E+03 -0.11720540740E+03  0.80242824961E+03  0.84207674791E+03  0.12500000000E+03 0.  0.
          4    1    1    2  501    0 -0.62380070298E+02 -0.83002600010E+01  0.63734000976E+02  0.89566681120E+02  0.00000000000E+00 0. -1.
         -4    1    1    2    0  503 -0.12693460443E+03  0.12550566740E+03  0.44246855390E+03  0.47711894485E+03  0.00000000000E+00 0.  1.
<mgrwt>
<rscale>  4 0.52162903E+03</rscale>
<asrwt>0</asrwt>
<pdfrwt beam="1">  1       21 0.20903022E+00 0.52162903E+03</pdfrwt>
<pdfrwt beam="2">  1       21 0.77024295E-02 0.52162903E+03</pdfrwt>
<totfact> 0.12864036E+04</totfact>
</mgrwt>
</event>
<event>
 5    0  0.3372079E-003  0.7382926E+03  0.7546771E-02  0.9653899E-01
         21   -1    0    0  503  502  0.00000000000E+00  0.00000000000E+00  0.13008981917E+04  0.13008981917E+04  0.00000000000E+00 0. -1.
         21   -1    0    0  501  503 -0.00000000000E+00 -0.00000000000E+00 -0.10474993341E+03  0.10474993341E+03  0.00000000000E+00 0. -1.
         25    1    1    2    0    0 -0.21469699004E+03  0.23335148699E+03  0.89758602490E+03  0.96012154757E+03  0.12500000000E+03 0.  0.
          2    1    1    2  501    0  0.50466250217E+02 -0.11997467238E+03  0.10139908287E+03  0.16499254053E+03  0.00000000000E+00 0. -1.
         -2    1    1    2    0  502  0.16423073983E+03 -0.11337681461E+03  0.19716315048E+03  0.28053403698E+03  0.00000000000E+00 0.  1.
<mgrwt>
<rscale>  4 0.73829262E+03</rscale>
<asrwt>0</asrwt>
<pdfrwt beam="1">  1       21 0.20013817E+00 0.73829262E+03</pdfrwt>
<pdfrwt beam="2">  1       21 0.16115375E-01 0.73829262E+03</pdfrwt>
<totfact> 0.36191981E+03</totfact>
</mgrwt>
</event>
<event>
 5    0  0.3372079E-003  0.5238176E+03  0.7546771E-02  0.1007743E+00
         21   -1    0    0  501  502  0.00000000000E+00  0.00000000000E+00  0.12815751613E+03  0.12815751613E+03  0.00000000000E+00 0. -1.
         21   -1    0    0  502  503 -0.00000000000E+00 -0.00000000000E+00 -0.53524938967E+03  0.53524938967E+03  0.00000000000E+00 0. -1.
         25    1    1    2    0    0  0.14670890282E+03  0.15257118747E+03 -0.29990343923E+03  0.38777382877E+03  0.12500000000E+03 0.  0.
          2    1    1    2  501    0  0.57133840094E+01 -0.51337088550E+02  0.17127663704E+02  0.54419631399E+02  0.00000000000E+00 0.  1.
         -2    1    1    2    0  503 -0.15242228683E+03 -0.10123409892E+03 -0.12431609801E+03  0.22121344564E+03  0.00000000000E+00 0. -1.
<mgrwt>
<rscale>  4 0.52381765E+03</rscale>
<asrwt>0</asrwt>
<pdfrwt beam="1">  1       21 0.19716541E-01 0.52381765E+03</pdfrwt>
<pdfrwt beam="2">  1       21 0.82346060E-01 0.52381765E+03</pdfrwt>
<totfact> 0.27286082E+04</totfact>
</mgrwt>
</event>
<event>
 5    0  0.3372079E-003  0.5157684E+03  0.7546771E-02  0.1009743E+00
         21   -1    0    0  501  502  0.00000000000E+00  0.00000000000E+00  0.32235442971E+02  0.32235442971E+02  0.00000000000E+00 0.  1.
         21   -1    0    0  502  503 -0.00000000000E+00 -0.00000000000E+00 -0.20630790769E+04  0.20630790769E+04  0.00000000000E+00 0.  1.
         25    1    1    2    0    0  0.11512675031E+03 -0.20244405589E+03 -0.12523580539E+04  0.12799466627E+04  0.12500000000E+03 0.  0.
          2    1    1    2  501    0 -0.72197670028E+02  0.18013456745E+03 -0.62632852828E+03  0.65570449997E+03  0.00000000000E+00 0.  1.
         -2    1    1    2    0  503 -0.42929080282E+02  0.22309488437E+02 -0.15215705176E+03  0.15966335712E+03  0.00000000000E+00 0. -1.
<mgrwt>
<rscale>  4 0.51576843E+03</rscale>
<asrwt>0</asrwt>
<pdfrwt beam="1">  1       21 0.49592985E-02 0.51576843E+03</pdfrwt>
<pdfrwt beam="2">  1       21 0.31739681E+00 0.51576843E+03</pdfrwt>
<totfact> 0.59544193E+03</totfact>
</mgrwt>
</event>
<event>
 5    0  0.3372079E-003  0.5891986E+03  0.7546771E-02  0.9928072E-01
         21   -1    0    0  501  502  0.00000000000E+00  0.00000000000E+00  0.71200369110E+02  0.71200369110E+02  0.00000000000E+00 0.  1.
         21   -1    0    0  502  503 -0.00000000000E+00 -0.00000000000E+00 -0.12189367493E+04  0.12189367493E+04  0.00000000000E+00 0.  1.
         25    1    1    2    0    0 -0.12008264822E+03 -0.23986078927E+03 -0.47854227754E+03  0.56265509153E+03  0.12500000000E+03 0.  0.
          3    1    1    2  501    0  0.94478551515E+02  0.24103160537E+03 -0.62309237976E+03  0.67473442568E+03  0.00000000000E+00 0.  1.
         -3    1    1    2    0  503  0.25604096701E+02 -0.11708161075E+01 -0.46101722838E+02  0.52747601148E+02  0.00000000000E+00 0. -1.
<mgrwt>
<rscale>  4 0.58919860E+03</rscale>
<asrwt>0</asrwt>
<pdfrwt beam="1">  1       21 0.10953903E-01 0.58919860E+03</pdfrwt>
<pdfrwt beam="2">  1       21 0.18752872E+00 0.58919860E+03</pdfrwt>
<totfact> 0.93701962E+03</totfact>
</mgrwt>
</event>
<event>
 5    0  0.3372079E-003  0.5410952E+03  0.7546771E-02  0.1003576E+00
         21   -1    0    0  503  502  0.00000000000E+00  0.00000000000E+00  0.41641938572E+03  0.41641938572E+03  0.00000000000E+00 0.  1.
         21   -1    0    0  501  503 -0.00000000000E+00 -0.00000000000E+00 -0.17577469876E+03  0.17577469876E+03  0.00000000000E+00 0.  1.
         25    1    1    2    0    0  0.27665092545E+02  0.20371562066E+03  0.16397441367E+03  0.29116665294E+03  0.12500000000E+03 0.  0.
          3    1    1    2  501    0 -0.11436638390E+03 -0.12563988257E+03  0.71234183203E+02  0.18422637899E+03  0.00000000000E+00 0.  1.
         -3    1    1    2    0  502  0.86701291354E+02 -0.78075738094E+02  0.54360900920E+01  0.11680105255E+03  0.00000000000E+00 0. -1.
<mgrwt>
<rscale>  4 0.54109516E+03</rscale>
<asrwt>0</asrwt>
<pdfrwt beam="1">  1       21 0.64064521E-01 0.54109516E+03</pdfrwt>
<pdfrwt beam="2">  1       21 0.27042262E-01 0.54109516E+03</pdfrwt>
<totfact> 0.26111072E+04</totfact>
</mgrwt>
</event>
<event>
 5    0  0.3372079E-003  0.6440546E+03  0.7546771E-02  0.9818000E-01
         21   -1    0    0  503  502  0.00000000000E+00  0.00000000000E+00  0.48292627694E+03  0.48292627694E+03  0.00000000000E+00 0.  1.
         21   -1    0    0  501  503 -0.00000000000E+00 -0.00000000000E+00 -0.21473587227E+03  0.21473587227E+03  0.00000000000E+00 0.  1.
         25    1    1    2    0    0 -0.20493540536E+03 -0.35844389629E+02  0.47242654466E+02  0.24726546269E+03  0.12500000000E+03 0.  0.
          4    1    1    2  501    0  0.10470609988E+03 -0.74422136311E+02 -0.52666377797E+02  0.13883720350E+03  0.00000000000E+00 0. -1.
         -4    1    1    2    0  502  0.10022930548E+03  0.11026652594E+03  0.27361412799E+03  0.31155948302E+03  0.00000000000E+00 0.  1.
<mgrwt>
<rscale>  4 0.64405464E+03</rscale>
<asrwt>0</asrwt>
<pdfrwt beam="1">  1       21 0.74296350E-01 0.64405464E+03</pdfrwt>
<pdfrwt beam="2">  1       21 0.33036288E-01 0.64405464E+03</pdfrwt>
<totfact> 0.12267681E+04</totfact>
</mgrwt>
</event>
<event>
 5    0  0.3372079E-003  0.4793691E+03  0.7546771E-02  0.1019309E+00
         21   -1    0    0  501  502  0.00000000000E+00  0.00000000000E+00  0.55111016577E+03  0.55111016577E+03  0.00000000000E+00 0.  1.
         21   -1    0    0  502  503 -0.00000000000E+00 -0.00000000000E+00 -0.10424175909E+03  0.10424175909E+03  0.00000000000E+00 0.  1.
         25    1    1    2    0    0  0.20301838885E+03 -0.65677917090E+02  0.22641015418E+03  0.33528586747E+03  0.12500000000E+03 0.  0.
          2    1    1    2  501    0 -0.50449017565E+02  0.49221201846E+02  0.11132813468E+03  0.13176412128E+03  0.00000000000E+00 0.  1.
         -2    1    1    2    0  503 -0.15256937129E+03  0.16456715244E+02  0.10913011781E+03  0.18830193612E+03  0.00000000000E+00 0. -1.
<mgrwt>
<rscale>  4 0.47936914E+03</rscale>
<asrwt>0</asrwt>
<pdfrwt beam="1">  1       21 0.84786178E-01 0.47936914E+03</pdfrwt>
<pdfrwt beam="2">  1       21 0.16037194E-01 0.47936914E+03</pdfrwt>
<totfact> 0.37992868E+04</totfact>
</mgrwt>
</event>
<event>
 5    0  0.3372079E-003  0.5222223E+03  0.7546771E-02  0.1008136E+00
         21   -1    0    0  503  502  0.00000000000E+00  0.00000000000E+00  0.14289476777E+03  0.14289476777E+03  0.00000000000E+00 0. -1.
         21   -1    0    0  501  503 -0.00000000000E+00 -0.00000000000E+00 -0.47712754442E+03  0.47712754442E+03  0.00000000000E+00 0. -1.
         25    1    1    2    0    0  0.47130067193E+01 -0.24211984525E+03 -0.21431935218E+03  0.34670162476E+03  0.12500000000E+03 0.  0.
          1    1    1    2  501    0 -0.16056091150E+02  0.22123900373E+03 -0.10951255318E+03  0.24738127282E+03  0.00000000000E+00 0. -1.
         -1    1    1    2    0  502  0.11343084431E+02  0.20880841514E+02 -0.10400871283E+02  0.25939414608E+02  0.00000000000E+00 0.  1.
<mgrwt>
<rscale>  4 0.52222229E+03</rscale>
<asrwt>0</asrwt>
<pdfrwt beam="1">  1       21 0.21983810E-01 0.52222229E+03</pdfrwt>
<pdfrwt beam="2">  1       21 0.73404238E-01 0.52222229E+03</pdfrwt>
<totfact> 0.28878501E+04</totfact>
</mgrwt>
</event>
<event>
 5    0  0.3372079E-003  0.8381030E+03  0.7546771E-02  0.9506445E-01
         21   -1    0    0  501  502  0.00000000000E+00  0.00000000000E+00  0.15152857899E+04  0.15152857899E+04  0.00000000000E+00 0. -1.
         21   -1    0    0  502  503 -0.00000000000E+00 -0.00000000000E+00 -0.11588848314E+03  0.11588848314E+03  0.00000000000E+00 0. -1.
         25    1    1    2    0    0  0.24989102916E+03 -0.17617557426E+03  0.23482010691E+03  0.40527625397E+03  0.12500000000E+03 0.  0.
          2    1    1    2  501    0 -0.13965451188E+03  0.19749728403E+03  0.98372313759E+03  0.10130250596E+04  0.00000000000E+00 0. -1.
         -2    1    1    2    0  503 -0.11023651728E+03 -0.21321709772E+02  0.18085406221E+03  0.21287295946E+03  0.00000000000E+00 0.  1.
<mgrwt>
<rscale>  4 0.83810303E+03</rscale>
<asrwt>0</asrwt>
<pdfrwt beam="1">  1       21 0.23312088E+00 0.83810303E+03</pdfrwt>
<pdfrwt beam="2">  1       21 0.17828998E-01 0.83810303E+03</pdfrwt>
<totfact> 0.17694157E+03</totfact>
</mgrwt>
</event>
<event>
 5    0  0.3372079E-003  0.8280457E+03  0.7546771E-02  0.9520286E-01
         21   -1    0    0  503  502  0.00000000000E+00  0.00000000000E+00  0.80024132237E+03  0.80024132237E+03  0.00000000000E+00 0. -1.
         21   -1    0    0  501  503 -0.00000000000E+00 -0.00000000000E+00 -0.21420404188E+03  0.21420404188E+03  0.00000000000E+00 0. -1.
         25    1    1    2    0    0 -0.83562031992E+02  0.28072562502E+03  0.34110122938E+01  0.31847468461E+03  0.12500000000E+03 0.  0.
          4    1    1    2  501    0  0.79233861941E+02 -0.32812103141E+01  0.45556180913E+02  0.91455655039E+02  0.00000000000E+00 0.  1.
         -4    1    1    2    0  502  0.43281700508E+01 -0.27744441470E+03  0.53707008729E+03  0.60451502460E+03  0.00000000000E+00 0. -1.
<mgrwt>
<rscale>  4 0.82804571E+03</rscale>
<asrwt>0</asrwt>
<pdfrwt beam="1">  1       21 0.12311405E+00 0.82804571E+03</pdfrwt>
<pdfrwt beam="2">  1       21 0.32954468E-01 0.82804571E+03</pdfrwt>
<totfact> 0.34777003E+03</totfact>
</mgrwt>
</event>
<event>
 5    0  0.3372079E-003  0.6342750E+03  0.7546771E-02  0.9836742E-01
         21   -1    0    0  503  502  0.00000000000E+00  0.00000000000E+00  0.87955823359E+03  0.87955823359E+03  0.00000000000E+00 0.  1.
         21   -1    0    0  501  503 -0.00000000000E+00 -0.00000000000E+00 -0.11434854863E+03  0.11434854863E+03  0.00000000000E+00 0.  1.
         25    1    1    2    0    0  0.27748576570E+03  0.64010943811E+02  0.53902780071E+03  0.62231159481E+03  0.12500000000E+03 0.  0.
          1    1    1    2  501    0 -0.69196276268E+02  0.94273615689E+01  0.82615492373E+02  0.10817725905E+03  0.00000000000E+00 0. -1.
         -1    1    1    2    0  502 -0.20828948943E+03 -0.73438305380E+02  0.14356639188E+03  0.26341792836E+03  0.00000000000E+00 0.  1.
<mgrwt>
<rscale>  4 0.63427504E+03</rscale>
<asrwt>0</asrwt>
<pdfrwt beam="1">  1       21 0.13531665E+00 0.63427504E+03</pdfrwt>
<pdfrwt beam="2">  1       21 0.17592085E-01 0.63427504E+03</pdfrwt>
<totfact> 0.96502801E+03</totfact>
</mgrwt>
</event>
<event>
 5    0  0.3372079E-003  0.9236782E+03  0.7546771E-02  0.9396457E-01
         21   -1    0    0  503  502  0.00000000000E+00  0.00000000000E+00  0.16940395998E+04  0.16940395998E+04  0.00000000000E+00 0. -1.
         21   -1    0    0  501  503 -0.00000000000E+00 -0.00000000000E+00 -0.12590929776E+03  0.12590929776E+03  0.00000000000E+00 0. -1.
         25    1    1    2    0    0  0.98061071683E+02 -0.41949973134E+03  0.10343891530E+04  0.11274670364E+04  0.12500000000E+03 0.  0.
          2    1    1    2  501    0  0.26880574247E+01  0.97766942629E+02  0.17294131293E+03  0.19868139934E+03  0.00000000000E+00 0.  1.
         -2    1    1    2    0  502 -0.10074912911E+03  0.32173278871E+03  0.36079983614E+03  0.49380046183E+03  0.00000000000E+00 0. -1.
<mgrwt>
<rscale>  4 0.92367816E+03</rscale>
<asrwt>0</asrwt>
<pdfrwt beam="1">  1       21 0.26062146E+00 0.92367816E+03</pdfrwt>
<pdfrwt beam="2">  1       21 0.19370662E-01 0.92367816E+03</pdfrwt>
<totfact> 0.99036459E+02</totfact>
</mgrwt>
</event>
<event>
 5    0  0.3372079E-003  0.5075956E+03  0.7546771E-02  0.1011815E+00
         21   -1    0    0  501  502  0.00000000000E+00  0.00000000000E+00  0.78690301342E+02  0.78690301342E+02  0.00000000000E+00 0.  1.
         21   -1    0    0  502  503 -0.00000000000E+00 -0.00000000000E+00 -0.81856758762E+03  0.81856758762E+03  0.00000000000E+00 0.  1.
         25    1    1    2    0    0  0.14573070304E+03 -0.14274582124E+03 -0.20092060144E+03  0.31242262302E+03  0.12500000000E+03 0.  0.
          2    1    1    2  501    0 -0.47323066902E+02 -0.26853045711E+01 -0.74579890545E+02  0.88367661480E+02  0.00000000000E+00 0. -1.
         -2    1    1    2    0  503 -0.98407636138E+02  0.14543112581E+03 -0.46437679429E+03  0.49646760446E+03  0.00000000000E+00 0.  1.
<mgrwt>
<rscale>  4 0.50759563E+03</rscale>
<asrwt>0</asrwt>
<pdfrwt beam="1">  1       21 0.12106201E-01 0.50759563E+03</pdfrwt>
<pdfrwt beam="2">  1       21 0.12593347E+00 0.50759563E+03</pdfrwt>
<totfact> 0.24023131E+04</totfact>
</mgrwt>
</event>
<event>
 5    0  0.3372079E-003  0.4531181E+03  0.7546771E-02  0.1026796E+00
         21   -1    0    0  501  502  0.00000000000E+00  0.00000000000E+00  0.47418434485E+02  0.47418434485E+02  0.00000000000E+00 0. -1.
         21   -1    0    0  502  503 -0.00000000000E+00 -0.00000000000E+00 -0.10824692803E+04  0.10824692803E+04  0.00000000000E+00 0. -1.
         25    1    1    2    0    0 -0.17179912258E+03 -0.11389952560E+03 -0.52196780700E+03  0.57494646011E+03  0.12500000000E+03 0.  0.
          2    1    1    2  501    0  0.13272453693E+03  0.72935595082E+02 -0.32559211192E+03  0.35908999858E+03  0.00000000000E+00 0. -1.
         -2    1    1    2    0  503  0.39074585654E+02  0.40963930518E+02 -0.18749092689E+03  0.19585125610E+03  0.00000000000E+00 0.  1.
<mgrwt>
<rscale>  4 0.45311808E+03</rscale>
<asrwt>0</asrwt>
<pdfrwt beam="1">  1       21 0.72951431E-02 0.45311808E+03</pdfrwt>
<pdfrwt beam="2">  1       21 0.16653375E+00 0.45311808E+03</pdfrwt>
<totfact> 0.28461740E+04</totfact>
</mgrwt>
</event>
<event>
 5    0  0.3372079E-003  0.4856617E+03  0.7546771E-02  0.1017591E+00
         21   -1    0    0  503  502  0.00000000000E+00  0.00000000000E+00  0.28537692945E+03  0.28537692945E+03  0.00000000000E+00 0.  1.
         21   -1    0    0  501  503 -0.00000000000E+00 -0.00000000000E+00 -0.20662786818E+03  0.20662786818E+03  0.00000000000E+00 0.  1.
         25    1    1    2    0    0  0.14709194490E+02 -0.21680011585E+03  0.58934522867E+02  0.25752073435E+03  0.12500000000E+03 0.  0.
          2    1    1    2  501    0 -0.37885942040E+02  0.18455154869E+03 -0.35006618839E+01  0.18843267594E+03  0.00000000000E+00 0.  1.
         -2    1    1    2    0  502  0.23176747550E+02  0.32248567161E+02  0.23315200295E+02  0.46051387337E+02  0.00000000000E+00 0. -1.
<mgrwt>
<rscale>  4 0.48566172E+03</rscale>
<asrwt>0</asrwt>
<pdfrwt beam="1">  1       21 0.43904143E-01 0.48566172E+03</pdfrwt>
<pdfrwt beam="2">  1       21 0.31788903E-01 0.48566172E+03</pdfrwt>
<totfact> 0.43233752E+04</totfact>
</mgrwt>
</event>
<event>
 5    0  0.3372079E-003  0.4888619E+03  0.7546771E-02  0.1016728E+00
         21   -1    0    0  501  502  0.00000000000E+00  0.00000000000E+00  0.17599013962E+03  0.17599013962E+03  0.00000000000E+00 0.  1.
         21   -1    0    0  502  503 -0.00000000000E+00 -0.00000000000E+00 -0.33948773338E+03  0.33948773338E+03  0.00000000000E+00 0.  1.
         25    1    1    2    0    0 -0.12096364012E+03 -0.16357254052E+03 -0.81039533968E+02  0.25215190721E+03  0.12500000000E+03 0.  0.
          1    1    1    2  501    0  0.10616581125E+03  0.98630234265E+02  0.14564291715E+02  0.14564072639E+03  0.00000000000E+00 0.  1.
         -1    1    1    2    0  503  0.14797828861E+02  0.64942306254E+02 -0.97022351512E+02  0.11768523940E+03  0.00000000000E+00 0. -1.
<mgrwt>
<rscale>  4 0.48886192E+03</rscale>
<asrwt>0</asrwt>
<pdfrwt beam="1">  1       21 0.27075406E-01 0.48886192E+03</pdfrwt>
<pdfrwt beam="2">  1       21 0.52228882E-01 0.48886192E+03</pdfrwt>
<totfact> 0.41136925E+04</totfact>
</mgrwt>
</event>
<event>
 5    0  0.3372079E-003  0.6568735E+03  0.7546771E-02  0.9793966E-01
         21   -1    0    0  501  502  0.00000000000E+00  0.00000000000E+00  0.21524167830E+03  0.21524167830E+03  0.00000000000E+00 0.  1.
         21   -1    0    0  502  503 -0.00000000000E+00 -0.00000000000E+00 -0.50116086589E+03  0.50116086589E+03  0.00000000000E+00 0.  1.
         25    1    1    2    0    0 -0.24154794720E+03 -0.55108111464E+02 -0.14721622157E+03  0.31413361909E+03  0.12500000000E+03 0.  0.
          1    1    1    2  501    0  0.29121529222E+02  0.12310182744E+03  0.20617051401E+02  0.12816858504E+03  0.00000000000E+00 0. -1.
         -1    1    1    2    0  503  0.21242641798E+03 -0.67993715977E+02 -0.15932001742E+03  0.27410034006E+03  0.00000000000E+00 0.  1.
<mgrwt>
<rscale>  4 0.65687352E+03</rscale>
<asrwt>0</asrwt>
<pdfrwt beam="1">  1       21 0.33114105E-01 0.65687352E+03</pdfrwt>
<pdfrwt beam="2">  1       21 0.77101670E-01 0.65687352E+03</pdfrwt>
<totfact> 0.11181868E+04</totfact>
</mgrwt>
</event>
<event>
 5    0  0.3372079E-003  0.5660194E+03  0.7546771E-02  0.9978526E-01
         21   -1    0    0  501  502  0.00000000000E+00  0.00000000000E+00  0.24256210819E+03  0.24256210819E+03  0.00000000000E+00 0. -1.
         21   -1    0    0  502  503 -0.00000000000E+00 -0.00000000000E+00 -0.33020199779E+03  0.33020199779E+03  0.00000000000E+00 0. -1.
         25    1    1    2    0    0  0.20598906121E+03  0.32730357165E+02  0.11487987687E+03  0.26893336671E+03  0.12500000000E+03 0.  0.
          2    1    1    2  501    0 -0.11101503517E+02 -0.21118531466E+02 -0.52328734851E+02  0.57511148856E+02  0.00000000000E+00 0.  1.
         -2    1    1    2    0  503 -0.19488755769E+03 -0.11611825699E+02 -0.15019103162E+03  0.24631959041E+03  0.00000000000E+00 0. -1.
<mgrwt>
<rscale>  4 0.56601941E+03</rscale>
<asrwt>0</asrwt>
<pdfrwt beam="1">  1       21 0.37317248E-01 0.56601941E+03</pdfrwt>
<pdfrwt beam="2">  1       21 0.50800307E-01 0.56601941E+03</pdfrwt>
<totfact> 0.22569868E+04</totfact>
</mgrwt>
</event>
<event>
 5    0  0.3372079E-003  0.4491550E+03  0.7546771E-02  0.1027974E+00
         21   -1    0    0  503  502  0.00000000000E+00  0.00000000000E+00  0.19742496668E+02  0.19742496668E+02  0.00000000000E+00 0. -1.
         21   -1    0    0  501  503 -0.00000000000E+00 -0.00000000000E+00 -0.25546436996E+04  0.25546436996E+04  0.00000000000E+00 0. -1.
         25    1    1    2    0    0  0.84186918498E+02  0.18585099781E+03 -0.14941409784E+04  0.15131788704E+04  0.12500000000E+03 0.  0.
          4    1    1    2  501    0 -0.33264553094E+02 -0.37033050114E+02 -0.27292060197E+03  0.27742320068E+03  0.00000000000E+00 0.  1.
         -4    1    1    2    0  502 -0.50922365404E+02 -0.14881794770E+03 -0.76783962258E+03  0.78378412517E+03  0.00000000000E+00 0. -1.
<mgrwt>
<rscale>  4 0.44915496E+03</rscale>
<asrwt>0</asrwt>
<pdfrwt beam="1">  1       21 0.30373062E-02 0.44915496E+03</pdfrwt>
<pdfrwt beam="2">  1       21 0.39302224E+00 0.44915496E+03</pdfrwt>
<totfact> 0.48255482E+03</totfact>
</mgrwt>
</event>
<event>
 5    0  0.3372079E-003  0.4780131E+03  0.7546771E-02  0.1019683E+00
         21   -1    0    0  503  502  0.00000000000E+00  0.00000000000E+00  0.16693211498E+03  0.16693211498E+03  0.00000000000E+00 0. -1.
         21   -1    0    0  501  503 -0.00000000000E+00 -0.00000000000E+00 -0.34219977607E+03  0.34219977607E+03  0.00000000000E+00 0. -1.
         25    1    1    2    0    0 -0.14861439001E+03  0.13691045291E+03 -0.23703734073E+02  0.23878353386E+03  0.12500000000E+03 0.  0.
          3    1    1    2  501    0  0.25266723573E+02 -0.80189224588E+02 -0.33764227058E+02  0.90602108635E+02  0.00000000000E+00 0. -1.
         -3    1    1    2    0  502  0.12334766643E+03 -0.56721228322E+02 -0.11779969996E+03  0.17974624855E+03  0.00000000000E+00 0.  1.
<mgrwt>
<rscale>  4 0.47801311E+03</rscale>
<asrwt>0</asrwt>
<pdfrwt beam="1">  1       21 0.25681864E-01 0.47801311E+03</pdfrwt>
<pdfrwt beam="2">  1       21 0.52646119E-01 0.47801311E+03</pdfrwt>
<totfact> 0.44954450E+04</totfact>
</mgrwt>
</event>
<event>
 5    0  0.3372079E-003  0.5088233E+03  0.7546771E-02  0.1011501E+00
         21   -1    0    0  501  502  0.00000000000E+00  0.00000000000E+00  0.40409103324E+03  0.40409103324E+03  0.00000000000E+00 0. -1.
         21   -1    0    0  502  503 -0.00000000000E+00 -0.00000000000E+00 -0.16017503942E+03  0.16017503942E+03  0.00000000000E+00 0. -1.
         25    1    1    2    0    0 -0.20736758960E+03  0.30168881027E+02  0.16062394911E+03  0.29212417159E+03  0.12500000000E+03 0.  0.
          2    1    1    2  501    0  0.69591233845E+02  0.62069627448E+02  0.31984361656E+02  0.98582847748E+02  0.00000000000E+00 0.  1.
         -2    1    1    2    0  503  0.13777635576E+03 -0.92238508475E+02  0.51307683054E+02  0.17355905333E+03  0.00000000000E+00 0. -1.
<mgrwt>
<rscale>  4 0.50882334E+03</rscale>
<asrwt>0</asrwt>
<pdfrwt beam="1">  1       21 0.62167851E-01 0.50882334E+03</pdfrwt>
<pdfrwt beam="2">  1       21 0.24642314E-01 0.50882334E+03</pdfrwt>
<totfact> 0.33706851E+04</totfact>
</mgrwt>
</event>
<event>
 5    0  0.3372079E-003  0.4799361E+03  0.7546771E-02  0.1019153E+00
         21   -1    0    0  503  502  0.00000000000E+00  0.00000000000E+00  0.11094297942E+03  0.11094297942E+03  0.00000000000E+00 0. -1.
         21   -1    0    0  501  503 -0.00000000000E+00 -0.00000000000E+00 -0.51904732447E+03  0.51904732447E+03  0.00000000000E+00 0. -1.
         25    1    1    2    0    0 -0.21395215658E+03 -0.14624770540E+02 -0.28036377209E+03  0.37445727916E+03  0.12500000000E+03 0.  0.
          4    1    1    2  501    0  0.17692240118E+03  0.12427793683E+02 -0.12751050543E+03  0.21843743977E+03  0.00000000000E+00 0. -1.
         -4    1    1    2    0  502  0.37029755394E+02  0.21969768564E+01 -0.23006752743E+00  0.37095584952E+02  0.00000000000E+00 0.  1.
<mgrwt>
<rscale>  4 0.47993607E+03</rscale>
<asrwt>0</asrwt>
<pdfrwt beam="1">  1       21 0.17068151E-01 0.47993607E+03</pdfrwt>
<pdfrwt beam="2">  1       21 0.79853433E-01 0.47993607E+03</pdfrwt>
<totfact> 0.38865466E+04</totfact>
</mgrwt>
</event>
<event>
 5    0  0.3372079E-003  0.6184259E+03  0.7546771E-02  0.9867899E-01
         21   -1    0    0  503  502  0.00000000000E+00  0.00000000000E+00  0.14386019331E+03  0.14386019331E+03  0.00000000000E+00 0.  1.
         21   -1    0    0  501  503 -0.00000000000E+00 -0.00000000000E+00 -0.66462190103E+03  0.66462190103E+03  0.00000000000E+00 0.  1.
         25    1    1    2    0    0  0.13074421745E+02  0.25343741684E+03 -0.33547539118E+03  0.43882821564E+03  0.12500000000E+03 0.  0.
          1    1    1    2  501    0 -0.22326448192E+02 -0.22964055218E+03 -0.22511067420E+03  0.32234774566E+03  0.00000000000E+00 0. -1.
         -1    1    1    2    0  502  0.92520264468E+01 -0.23796864656E+02  0.39824357654E+02  0.47306133042E+02  0.00000000000E+00 0.  1.
<mgrwt>
<rscale>  4 0.61842586E+03</rscale>
<asrwt>0</asrwt>
<pdfrwt beam="1">  1       21 0.22132338E-01 0.61842586E+03</pdfrwt>
<pdfrwt beam="2">  1       21 0.10224952E+00 0.61842586E+03</pdfrwt>
<totfact> 0.12756119E+04</totfact>
</mgrwt>
</event>
<event>
 5    0  0.3372079E-003  0.6620035E+03  0.7546771E-02  0.9784513E-01
         21   -1    0    0  501  502  0.00000000000E+00  0.00000000000E+00  0.42920810072E+03  0.42920810072E+03  0.00000000000E+00 0. -1.
         21   -1    0    0  502  503 -0.00000000000E+00 -0.00000000000E+00 -0.25526582833E+03  0.25526582833E+03  0.00000000000E+00 0. -1.
         25    1    1    2    0    0  0.69817209129E+02  0.23555590758E+03  0.29261800455E+03  0.40200911043E+03  0.12500000000E+03 0.  0.
          1    1    1    2  501    0 -0.47997471471E+00 -0.12357254139E+03 -0.44759196222E+02  0.13142978737E+03  0.00000000000E+00 0. -1.
         -1    1    1    2    0  503 -0.69337234414E+02 -0.11198336619E+03 -0.73916535937E+02  0.15103503125E+03  0.00000000000E+00 0.  1.
<mgrwt>
<rscale>  4 0.66200351E+03</rscale>
<asrwt>0</asrwt>
<pdfrwt beam="1">  1       21 0.66032015E-01 0.66200351E+03</pdfrwt>
<pdfrwt beam="2">  1       21 0.39271666E-01 0.66200351E+03</pdfrwt>
<totfact> 0.11217370E+04</totfact>
</mgrwt>
</event>
<event>
 5    0  0.3372079E-003  0.4865041E+03  0.7546771E-02  0.1017363E+00
         21   -1    0    0  503  502  0.00000000000E+00  0.00000000000E+00  0.23950820532E+03  0.23950820532E+03  0.00000000000E+00 0. -1.
         21   -1    0    0  501  503 -0.00000000000E+00 -0.00000000000E+00 -0.24705436855E+03  0.24705436855E+03  0.00000000000E+00 0. -1.
         25    1    1    2    0    0  0.95390869754E+02 -0.18533844177E+03  0.56784457974E+02  0.24959813841E+03  0.12500000000E+03 0.  0.
          2    1    1    2  501    0 -0.41532402367E+02  0.12588879942E+02 -0.30072495922E+02  0.52799387833E+02  0.00000000000E+00 0.  1.
         -2    1    1    2    0  502 -0.53858467387E+02  0.17274956183E+03 -0.34258125287E+02  0.18416504763E+03  0.00000000000E+00 0. -1.
<mgrwt>
<rscale>  4 0.48650405E+03</rscale>
<asrwt>0</asrwt>
<pdfrwt beam="1">  1       21 0.36847416E-01 0.48650405E+03</pdfrwt>
<pdfrwt beam="2">  1       21 0.38008364E-01 0.48650405E+03</pdfrwt>
<totfact> 0.43223755E+04</totfact>
</mgrwt>
</event>
<event>
 5    0  0.3372079E-003  0.5145160E+03  0.7546771E-02  0.1010058E+00
         21   -1    0    0  503  502  0.00000000000E+00  0.00000000000E+00  0.10131650587E+03  0.10131650587E+03  0.00000000000E+00 0. -1.
         21   -1    0    0  501  503 -0.00000000000E+00 -0.00000000000E+00 -0.65321709413E+03  0.65321709413E+03  0.00000000000E+00 0. -1.
         25    1    1    2    0    0 -0.17045303047E+03  0.16021377272E+03 -0.33472562792E+03  0.42707017520E+03  0.12500000000E+03 0.  0.
          1    1    1    2  501    0  0.71450736092E+01 -0.21379838147E+02 -0.52591360507E+02  0.57218884611E+02  0.00000000000E+00 0.  1.
         -1    1    1    2    0  502  0.16330795686E+03 -0.13883393457E+03 -0.16458359984E+03  0.27024454018E+03  0.00000000000E+00 0. -1.
<mgrwt>
<rscale>  4 0.51451598E+03</rscale>
<asrwt>0</asrwt>
<pdfrwt beam="1">  1       21 0.15587155E-01 0.51451598E+03</pdfrwt>
<pdfrwt beam="2">  1       21 0.10049494E+00 0.51451598E+03</pdfrwt>
<totfact> 0.26489199E+04</totfact>
</mgrwt>
</event>
<event>
 5    0  0.3372079E-003  0.6017142E+03  0.7546771E-02  0.9901856E-01
         21   -1    0    0  503  502  0.00000000000E+00  0.00000000000E+00  0.37754965491E+03  0.37754965491E+03  0.00000000000E+00 0.  1.
         21   -1    0    0  501  503 -0.00000000000E+00 -0.00000000000E+00 -0.23974325585E+03  0.23974325585E+03  0.00000000000E+00 0.  1.
         25    1    1    2    0    0 -0.10844721545E+03 -0.20825260791E+03  0.18602019602E+03  0.32458968032E+03  0.12500000000E+03 0.  0.
          3    1    1    2  501    0  0.29692330803E+02 -0.60747869882E+01 -0.56607638138E+02  0.64210297002E+02  0.00000000000E+00 0. -1.
         -3    1    1    2    0  502  0.78754884646E+02  0.21432739490E+03  0.83938411749E+01  0.22849293344E+03  0.00000000000E+00 0.  1.
<mgrwt>
<rscale>  4 0.60171416E+03</rscale>
<asrwt>0</asrwt>
<pdfrwt beam="1">  1       21 0.58084562E-01 0.60171416E+03</pdfrwt>
<pdfrwt beam="2">  1       21 0.36883578E-01 0.60171416E+03</pdfrwt>
<totfact> 0.17168663E+04</totfact>
</mgrwt>
</event>
<event>
 5    0  0.3372079E-003  0.7404107E+03  0.7546771E-02  0.9650516E-01
         21   -1    0    0  501  502  0.00000000000E+00  0.00000000000E+00  0.51013539535E+03  0.51013539535E+03  0.00000000000E+00 0. -1.
         21   -1    0    0  502  503 -0.00000000000E+00 -0.00000000000E+00 -0.26865810574E+03  0.26865810574E+03  0.00000000000E+00 0. -1.
         25    1    1    2    0    0  0.73684259473E+02  0.23634590853E+03 -0.19692987032E+02  0.27803160308E+03  0.12500000000E+03 0.  0.
          2    1    1    2  501    0 -0.61270248481E+02 -0.27589602216E+03  0.32118502760E+03  0.42782295444E+03  0.00000000000E+00 0. -1.
         -2    1    1    2    0  503 -0.12414010992E+02  0.39550113630E+02 -0.60014750960E+02  0.72938943575E+02  0.00000000000E+00 0.  1.
<mgrwt>
<rscale>  4 0.74041072E+03</rscale>
<asrwt>0</asrwt>
<pdfrwt beam="1">  1       21 0.78482368E-01 0.74041072E+03</pdfrwt>
<pdfrwt beam="2">  1       21 0.41332016E-01 0.74041072E+03</pdfrwt>
<totfact> 0.66941592E+03</totfact>
</mgrwt>
</event>
<event>
 5    0  0.3372079E-003  0.9572702E+03  0.7546771E-02  0.9356693E-01
         21   -1    0    0  501  502  0.00000000000E+00  0.00000000000E+00  0.37490255245E+03  0.37490255245E+03  0.00000000000E+00 0.  1.
         21   -1    0    0  502  503 -0.00000000000E+00 -0.00000000000E+00 -0.61106959990E+03  0.61106959990E+03  0.00000000000E+00 0.  1.
         25    1    1    2    0    0  0.25010092681E+03 -0.49199224362E+02 -0.36253994263E+03  0.46046850845E+03  0.12500000000E+03 0.  0.
          2    1    1    2  501    0 -0.31633214571E+02  0.22641688008E+03  0.50151546754E+02  0.23405221958E+03  0.00000000000E+00 0.  1.
         -2    1    1    2    0  503 -0.21846771224E+03 -0.17721765571E+03  0.76221348422E+02  0.29145142433E+03  0.00000000000E+00 0. -1.
<mgrwt>
<rscale>  4 0.95727019E+03</rscale>
<asrwt>0</asrwt>
<pdfrwt beam="1">  1       21 0.57677316E-01 0.95727019E+03</pdfrwt>
<pdfrwt beam="2">  1       21 0.94010707E-01 0.95727019E+03</pdfrwt>
<totfact> 0.20495558E+03</totfact>
</mgrwt>
</event>
<event>
 5    0  0.3372079E-003  0.7443021E+03  0.7546771E-02  0.9644332E-01
         21   -1    0    0  501  502  0.00000000000E+00  0.00000000000E+00  0.21842147826E+03  0.21842147826E+03  0.00000000000E+00 0.  1.
         21   -1    0    0  502  503 -0.00000000000E+00 -0.00000000000E+00 -0.63407872384E+03  0.63407872384E+03  0.00000000000E+00 0.  1.
         25    1    1    2    0    0 -0.31142547456E+03 -0.11505813817E+03 -0.53267165476E+02  0.35872913498E+03  0.12500000000E+03 0.  0.
          2    1    1    2  501    0  0.18436370781E+02  0.15057309665E+02 -0.41796865434E+02  0.48099899190E+02  0.00000000000E+00 0. -1.
         -2    1    1    2    0  503  0.29298910378E+03  0.10000082851E+03 -0.32059321467E+03  0.44567116793E+03  0.00000000000E+00 0.  1.
<mgrwt>
<rscale>  4 0.74430212E+03</rscale>
<asrwt>0</asrwt>
<pdfrwt beam="1">  1       21 0.33603305E-01 0.74430212E+03</pdfrwt>
<pdfrwt beam="2">  1       21 0.97550571E-01 0.74430212E+03</pdfrwt>
<totfact> 0.61034935E+03</totfact>
</mgrwt>
</event>
<event>
 5    0  0.3372079E-003  0.5245918E+03  0.7546771E-02  0.1007552E+00
         21   -1    0    0  501  502  0.00000000000E+00  0.00000000000E+00  0.50215070819E+03  0.50215070819E+03  0.00000000000E+00 0.  1.
         21   -1    0    0  502  503 -0.00000000000E+00 -0.00000000000E+00 -0.13700892634E+03  0.13700892634E+03  0.00000000000E+00 0.  1.
         25    1    1    2    0    0  0.21035594653E+03  0.88925730281E+02  0.16484909328E+03  0.30815196462E+03  0.12500000000E+03 0.  0.
          3    1    1    2  501    0 -0.94611094989E+01 -0.50773666997E+02  0.75419247612E+02  0.91408647095E+02  0.00000000000E+00 0. -1.
         -3    1    1    2    0  503 -0.20089483703E+03 -0.38152063284E+02  0.12487344096E+03  0.23959902282E+03  0.00000000000E+00 0.  1.
<mgrwt>
<rscale>  4 0.52459176E+03</rscale>
<asrwt>0</asrwt>
<pdfrwt beam="1">  1       21 0.77253955E-01 0.52459176E+03</pdfrwt>
<pdfrwt beam="2">  1       21 0.21078297E-01 0.52459176E+03</pdfrwt>
<totfact> 0.27837084E+04</totfact>
</mgrwt>
</event>
<event>
 5    0  0.3372079E-003  0.5202363E+03  0.7546771E-02  0.1008628E+00
         21   -1    0    0  503  502  0.00000000000E+00  0.00000000000E+00  0.36773081167E+03  0.36773081167E+03  0.00000000000E+00 0. -1.
         21   -1    0    0  501  503 -0.00000000000E+00 -0.00000000000E+00 -0.18399725609E+03  0.18399725609E+03  0.00000000000E+00 0. -1.
         25    1    1    2    0    0  0.13301789254E+03 -0.15132370044E+03  0.23272802321E+03  0.33223478872E+03  0.12500000000E+03 0.  0.
          4    1    1    2  501    0 -0.13983558241E+03  0.13136578226E+03 -0.50353230188E+02  0.19835928677E+03  0.00000000000E+00 0. -1.
         -4    1    1    2    0  502  0.68176898720E+01  0.19957918184E+02  0.13587625640E+01  0.21133992267E+02  0.00000000000E+00 0.  1.
<mgrwt>
<rscale>  4 0.52023633E+03</rscale>
<asrwt>0</asrwt>
<pdfrwt beam="1">  1       21 0.56573971E-01 0.52023633E+03</pdfrwt>
<pdfrwt beam="2">  1       21 0.28307270E-01 0.52023633E+03</pdfrwt>
<totfact> 0.31500871E+04</totfact>
</mgrwt>
</event>
<event>
 5    0  0.3372079E-003  0.5628379E+03  0.7546771E-02  0.9985654E-01
         21   -1    0    0  503  502  0.00000000000E+00  0.00000000000E+00  0.25847635435E+03  0.25847635435E+03  0.00000000000E+00 0. -1.
         21   -1    0    0  501  503 -0.00000000000E+00 -0.00000000000E+00 -0.30639795532E+03  0.30639795532E+03  0.00000000000E+00 0. -1.
         25    1    1    2    0    0  0.12051765858E+03  0.20367234397E+03 -0.65306974549E+02  0.27549397571E+03  0.12500000000E+03 0.  0.
          3    1    1    2  501    0 -0.17319806161E+02 -0.14679477163E+03 -0.46997289584E+02  0.15510456438E+03  0.00000000000E+00 0.  1.
         -3    1    1    2    0  502 -0.10319785242E+03 -0.56877572341E+02  0.64382663170E+02  0.13427576958E+03  0.00000000000E+00 0. -1.
<mgrwt>
<rscale>  4 0.56283790E+03</rscale>
<asrwt>0</asrwt>
<pdfrwt beam="1">  1       21 0.39765593E-01 0.56283790E+03</pdfrwt>
<pdfrwt beam="2">  1       21 0.47138147E-01 0.56283790E+03</pdfrwt>
<totfact> 0.23239820E+04</totfact>
</mgrwt>
</event>
<event>
 5    0  0.3372079E-003  0.5800321E+03  0.7546771E-02  0.9947722E-01
         21   -1    0    0  503  502  0.00000000000E+00  0.00000000000E+00  0.98696007551E+03  0.98696007551E+03  0.00000000000E+00 0.  1.
         21   -1    0    0  501  503 -0.00000000000E+00 -0.00000000000E+00 -0.85220581145E+02  0.85220581145E+02  0.00000000000E+00 0.  1.
         25    1    1    2    0    0 -0.12053949612E+03  0.23133575705E+03  0.56619480734E+03  0.63580465748E+03  0.12500000000E+03 0.  0.
          1    1    1    2  501    0  0.10255119958E+03 -0.99790960698E+02  0.14135516175E+03  0.20113743094E+03  0.00000000000E+00 0. -1.
         -1    1    1    2    0  502  0.17988296541E+02 -0.13154479635E+03  0.19418952527E+03  0.23523856823E+03  0.00000000000E+00 0.  1.
<mgrwt>
<rscale>  4 0.58003211E+03</rscale>
<asrwt>0</asrwt>
<pdfrwt beam="1">  1       21 0.15184000E+00 0.58003211E+03</pdfrwt>
<pdfrwt beam="2">  1       21 0.13110859E-01 0.58003211E+03</pdfrwt>
<totfact> 0.12392583E+04</totfact>
</mgrwt>
</event>
<event>
 5    0  0.3372079E-003  0.4933946E+03  0.7546771E-02  0.1015518E+00
         21   -1    0    0  501  502  0.00000000000E+00  0.00000000000E+00  0.39510904141E+03  0.39510904141E+03  0.00000000000E+00 0. -1.
         21   -1    0    0  502  503 -0.00000000000E+00 -0.00000000000E+00 -0.15403232902E+03  0.15403232902E+03  0.00000000000E+00 0. -1.
         25    1    1    2    0    0  0.16913898408E+03  0.14865900885E+03  0.10197771493E+03  0.27700532701E+03  0.12500000000E+03 0.  0.
          4    1    1    2  501    0 -0.68976476931E+02 -0.78559094605E+02  0.97621088588E+02  0.14303552933E+03  0.00000000000E+00 0. -1.
         -4    1    1    2    0  503 -0.10016250715E+03 -0.70099914243E+02  0.41477908874E+02  0.12910051410E+03  0.00000000000E+00 0.  1.
<mgrwt>
<rscale>  4 0.49339463E+03</rscale>
<asrwt>0</asrwt>
<pdfrwt beam="1">  1       21 0.60786006E-01 0.49339463E+03</pdfrwt>
<pdfrwt beam="2">  1       21 0.23697281E-01 0.49339463E+03</pdfrwt>
<totfact> 0.38339951E+04</totfact>
</mgrwt>
</event>
<event>
 5    0  0.3372079E-003  0.4848721E+03  0.7546771E-02  0.1017805E+00
         21   -1    0    0  501  502  0.00000000000E+00  0.00000000000E+00  0.17349709304E+03  0.17349709304E+03  0.00000000000E+00 0.  1.
         21   -1    0    0  502  503 -0.00000000000E+00 -0.00000000000E+00 -0.33876790378E+03  0.33876790378E+03  0.00000000000E+00 0.  1.
         25    1    1    2    0    0  0.85142510470E+02  0.20003195054E+03 -0.69661822905E+02  0.26026870326E+03  0.12500000000E+03 0.  0.
          4    1    1    2  501    0 -0.55591149731E+02 -0.11893393233E+03 -0.12007972474E+02  0.13183264994E+03  0.00000000000E+00 0. -1.
         -4    1    1    2    0  503 -0.29551360739E+02 -0.81098018208E+02 -0.83601015366E+02  0.12016364362E+03  0.00000000000E+00 0.  1.
<mgrwt>
<rscale>  4 0.48487213E+03</rscale>
<asrwt>0</asrwt>
<pdfrwt beam="1">  1       21 0.26691860E-01 0.48487213E+03</pdfrwt>
<pdfrwt beam="2">  1       21 0.52118139E-01 0.48487213E+03</pdfrwt>
<totfact> 0.42534379E+04</totfact>
</mgrwt>
</event>
<event>
 5    0  0.3372079E-003  0.5491762E+03  0.7546771E-02  0.1001685E+00
         21   -1    0    0  501  502  0.00000000000E+00  0.00000000000E+00  0.13484306672E+04  0.13484306672E+04  0.00000000000E+00 0. -1.
         21   -1    0    0  502  503 -0.00000000000E+00 -0.00000000000E+00 -0.55915826674E+02  0.55915826674E+02  0.00000000000E+00 0. -1.
         25    1    1    2    0    0 -0.12736384593E+03  0.17367889365E+03  0.56932935959E+03  0.62140713469E+03  0.12500000000E+03 0.  0.
          2    1    1    2  501    0 -0.18003131320E+02 -0.12185620786E+02  0.35320857660E+03  0.35387695697E+03  0.00000000000E+00 0. -1.
         -2    1    1    2    0  503  0.14536697725E+03 -0.16149327286E+03  0.36997690437E+03  0.42906240225E+03  0.00000000000E+00 0.  1.
<mgrwt>
<rscale>  4 0.54917617E+03</rscale>
<asrwt>0</asrwt>
<pdfrwt beam="1">  1       21 0.20745085E+00 0.54917617E+03</pdfrwt>
<pdfrwt beam="2">  1       21 0.86024359E-02 0.54917617E+03</pdfrwt>
<totfact> 0.10735732E+04</totfact>
</mgrwt>
</event>
