<event>
 5    0  0.1856407E+000  0.2387424E+03  0.7546771E-02  0.1120633E+00
         21   -1    0    0  502  501  0.00000000000E+00  0.00000000000E+00  0.18870095094E+04  0.18870095094E+04  0.00000000000E+00 0.  1.
         21   -1    0    0  503  502 -0.00000000000E+00 -0.00000000000E+00 -0.13637517142E+03  0.13637517142E+03  0.00000000000E+00 0.  1.
         25    1    1    2    0    0 -0.20188874206E+03 -0.26270711170E+02  0.17463528287E+04  0.17626180576E+04  0.12500000000E+03 0.  0.
         21    1    1    2  503  504 -0.99451813052E+00  0.32267153826E+02  0.43369337716E+02  0.54065309916E+02  0.00000000000E+00 0. -1.
         21    1    1    2  504  501  0.20288326019E+03 -0.59964426564E+01 -0.39087828504E+02  0.20670131331E+03  0.00000000000E+00 0.  1.
<mgrwt>
<rscale>  4 0.23874238E+03</rscale>
<asrwt>0</asrwt>
<pdfrwt beam="1">  1       21 0.29030914E+00 0.23874238E+03</pdfrwt>
<pdfrwt beam="2">  1       21 0.20980797E-01 0.23874238E+03</pdfrwt>
<totfact> 0.77390988E+02</totfact>
</mgrwt>
</event>
<event>
 5    0  0.1856407E+000  0.3287933E+03  0.7546771E-02  0.1071672E+00
         21   -1    0    0  502  501  0.00000000000E+00  0.00000000000E+00  0.49718742160E+03  0.49718742160E+03  0.00000000000E+00 0. -1.
         21   -1    0    0  503  502 -0.00000000000E+00 -0.00000000000E+00 -0.16055834659E+04  0.16055834659E+04  0.00000000000E+00 0. -1.
         25    1    1    2    0    0 -0.30570351145E+03  0.49662482328E+02  0.41672650946E+03  0.53404773452E+03  0.12500000000E+03 0.  0.
         21    1    1    2  503  504  0.68446287695E+02 -0.33732166758E+02 -0.84095087824E+03  0.84440578692E+03  0.00000000000E+00 0. -1.
         21    1    1    2  504  501  0.23725722376E+03 -0.15930315571E+02 -0.68417167552E+03  0.72431736605E+03  0.00000000000E+00 0. -1.
<mgrwt>
<rscale>  4 0.32879329E+03</rscale>
<asrwt>0</asrwt>
<pdfrwt beam="1">  1       21 0.76490373E-01 0.32879329E+03</pdfrwt>
<pdfrwt beam="2">  1       21 0.24701284E+00 0.32879329E+03</pdfrwt>
<totfact> 0.90073378E+01</totfact>
</mgrwt>
</event>
<event>
 5    0  0.1856407E+000  0.2390273E+03  0.7546771E-02  0.1120443E+00
         21   -1    0    0  502  501  0.00000000000E+00  0.00000000000E+00  0.15686485350E+03  0.15686485350E+03  0.00000000000E+00 0. -1.
         21   -1    0    0  503  502 -0.00000000000E+00 -0.00000000000E+00 -0.60857786006E+03  0.60857786006E+03  0.00000000000E+00 0. -1.
         25    1    1    2    0    0  0.14993100337E+03  0.21950641282E+03 -0.13069954694E+03  0.32151165237E+03  0.12500000000E+03 0.  0.
         21    1    1    2  503  504 -0.10494300021E+03 -0.37896260090E+02 -0.73301403293E+02  0.13350002077E+03  0.00000000000E+00 0.  1.
         21    1    1    2  504  501 -0.44988003164E+02 -0.18161015273E+03 -0.24771205632E+03  0.31043104041E+03  0.00000000000E+00 0. -1.
<mgrwt>
<rscale>  4 0.23902726E+03</rscale>
<asrwt>0</asrwt>
<pdfrwt beam="1">  1       21 0.24133055E-01 0.23902726E+03</pdfrwt>
<pdfrwt beam="2">  1       21 0.93627363E-01 0.23902726E+03</pdfrwt>
<totfact> 0.15097247E+04</totfact>
</mgrwt>
</event>
<event>
 5    0  0.1856407E+000  0.2119416E+03  0.7546771E-02  0.1140038E+00
         21   -1    0    0  502  501  0.00000000000E+00  0.00000000000E+00  0.65359282629E+03  0.65359282629E+03  0.00000000000E+00 0. -1.
         21   -1    0    0  503  502 -0.00000000000E+00 -0.00000000000E+00 -0.40814636988E+03  0.40814636988E+03  0.00000000000E+00 0. -1.
         25    1    1    2    0    0 -0.15863907861E+03  0.23532020689E+03  0.49208777567E+03  0.58165052737E+03  0.12500000000E+03 0.  0.
         21    1    1    2  503  504  0.13965531972E+03 -0.92032969544E+02 -0.28508379728E+03  0.33052450330E+03  0.00000000000E+00 0. -1.
         21    1    1    2  504  501  0.18983758892E+02 -0.14328723735E+03  0.38442478024E+02  0.14956416551E+03  0.00000000000E+00 0. -1.
<mgrwt>
<rscale>  4 0.21194161E+03</rscale>
<asrwt>0</asrwt>
<pdfrwt beam="1">  1       21 0.10055274E+00 0.21194161E+03</pdfrwt>
<pdfrwt beam="2">  1       21 0.62791749E-01 0.21194161E+03</pdfrwt>
<totfact> 0.18708255E+03</totfact>
</mgrwt>
</event>
<event>
 5    0  0.1856407E+000  0.2609074E+03  0.7546771E-02  0.1106599E+00
         21   -1    0    0  502  501  0.00000000000E+00  0.00000000000E+00  0.70796858230E+03  0.70796858230E+03  0.00000000000E+00 0.  1.
         21   -1    0    0  503  502 -0.00000000000E+00 -0.00000000000E+00 -0.21717498022E+03  0.21717498022E+03  0.00000000000E+00 0. -1.
         25    1    1    2    0    0 -0.22246764645E+03 -0.23328826393E+03  0.43974704662E+03  0.55939050119E+03  0.12500000000E+03 0.  0.
         21    1    1    2  503  504  0.16917143255E+03  0.12963064465E+03 -0.41245896866E+02  0.21708132492E+03  0.00000000000E+00 0. -1.
         21    1    1    2  504  501  0.53296213903E+02  0.10365761928E+03  0.92292452329E+02  0.14867173641E+03  0.00000000000E+00 0.  1.
<mgrwt>
<rscale>  4 0.26090737E+03</rscale>
<asrwt>0</asrwt>
<pdfrwt beam="1">  1       21 0.10891824E+00 0.26090737E+03</pdfrwt>
<pdfrwt beam="2">  1       21 0.33411536E-01 0.26090737E+03</pdfrwt>
<totfact> 0.55044814E+03</totfact>
</mgrwt>
</event>
<event>
 5    0  0.1856407E+000  0.2617638E+03  0.7546771E-02  0.1106088E+00
         21   -1    0    0  502  501  0.00000000000E+00  0.00000000000E+00  0.73575980800E+02  0.73575980800E+02  0.00000000000E+00 0.  1.
         21   -1    0    0  503  502 -0.00000000000E+00 -0.00000000000E+00 -0.99833174624E+03  0.99833174624E+03  0.00000000000E+00 0.  1.
         25    1    1    2    0    0 -0.13290498172E+03 -0.19093818746E+03 -0.61325577669E+03  0.66770410605E+03  0.12500000000E+03 0.  0.
         21    1    1    2  503  504  0.15111660385E+03  0.16961324212E+03 -0.29240071644E+03  0.37027430215E+03  0.00000000000E+00 0.  1.
         21    1    1    2  504  501 -0.18211622122E+02  0.21324945340E+02 -0.19099272318E+02  0.33929318843E+02  0.00000000000E+00 0.  1.
<mgrwt>
<rscale>  4 0.26176380E+03</rscale>
<asrwt>0</asrwt>
<pdfrwt beam="1">  1       21 0.11319381E-01 0.26176380E+03</pdfrwt>
<pdfrwt beam="2">  1       21 0.15358951E+00 0.26176380E+03</pdfrwt>
<totfact> 0.17529117E+04</totfact>
</mgrwt>
</event>
<event>
 5    0  0.1945391E+000  0.2710569E+03  0.7546771E-02  0.1100676E+00
         21   -1    0    0  502  501  0.00000000000E+00  0.00000000000E+00  0.19382031389E+03  0.19382031389E+03  0.00000000000E+00 0.  1.
         21   -1    0    0  503  502 -0.00000000000E+00 -0.00000000000E+00 -0.35023917916E+03  0.35023917916E+03  0.00000000000E+00 0.  1.
         25    1    1    2    0    0 -0.18724700319E+03 -0.15094828072E+03 -0.76434403010E+02  0.28162748733E+03  0.12500000000E+03 0.  0.
         21    1    1    2  503  504  0.13688599514E+03  0.83734820959E+02 -0.78005572969E+02  0.17842131409E+03  0.00000000000E+00 0.  1.
         21    1    1    2  504  501  0.50361008057E+02  0.67213459760E+02 -0.19788892931E+01  0.84010691631E+02  0.00000000000E+00 0.  1.
<mgrwt>
<rscale>  4 0.27105686E+03</rscale>
<asrwt>0</asrwt>
<pdfrwt beam="1">  1       21 0.29818510E-01 0.27105686E+03</pdfrwt>
<pdfrwt beam="2">  1       21 0.53882950E-01 0.27105686E+03</pdfrwt>
<totfact> 0.33860391E+04</totfact>
</mgrwt>
</event>
<event>
 5    0  0.3521859E+000  0.2505646E+03  0.7546771E-02  0.1112949E+00
         21   -1    0    0  502  501  0.00000000000E+00  0.00000000000E+00  0.18927085650E+03  0.18927085650E+03  0.00000000000E+00 0. -1.
         21   -1    0    0  503  502 -0.00000000000E+00 -0.00000000000E+00 -0.64279260360E+03  0.64279260360E+03  0.00000000000E+00 0.  1.
         25    1    1    2    0    0  0.20986509907E+03  0.55805651445E+02  0.71851896812E+02  0.26066324179E+03  0.12500000000E+03 0.  0.
         21    1    1    2  503  504 -0.17718777105E+03 -0.38713828713E+02 -0.37479892404E+03  0.41637543180E+03  0.00000000000E+00 0.  1.
         21    1    1    2  504  501 -0.32677328024E+02 -0.17091822733E+02 -0.15057471987E+03  0.15502478652E+03  0.00000000000E+00 0. -1.
<mgrwt>
<rscale>  4 0.25056462E+03</rscale>
<asrwt>0</asrwt>
<pdfrwt beam="1">  1       21 0.29118594E-01 0.25056462E+03</pdfrwt>
<pdfrwt beam="2">  1       21 0.98891167E-01 0.25056462E+03</pdfrwt>
<totfact> 0.91693594E+03</totfact>
</mgrwt>
</event>
<event>
 5    0  0.1856407E+000  0.2836947E+03  0.7546771E-02  0.1093688E+00
         21   -1    0    0  502  501  0.00000000000E+00  0.00000000000E+00  0.11021919964E+03  0.11021919964E+03  0.00000000000E+00 0.  1.
         21   -1    0    0  503  502 -0.00000000000E+00 -0.00000000000E+00 -0.66966763985E+03  0.66966763985E+03  0.00000000000E+00 0.  1.
         25    1    1    2    0    0  0.57027832016E+02  0.24820460072E+03 -0.30184978348E+03  0.41424146247E+03  0.12500000000E+03 0.  0.
         21    1    1    2  503  504 -0.26919949633E+02 -0.88396064542E+02 -0.62007091434E+02  0.11128084877E+03  0.00000000000E+00 0. -1.
         21    1    1    2  504  501 -0.30107882383E+02 -0.15980853618E+03 -0.19559156530E+03  0.25436452825E+03  0.00000000000E+00 0.  1.
<mgrwt>
<rscale>  4 0.28369473E+03</rscale>
<asrwt>0</asrwt>
<pdfrwt beam="1">  1       21 0.16956800E-01 0.28369473E+03</pdfrwt>
<pdfrwt beam="2">  1       21 0.10302579E+00 0.28369473E+03</pdfrwt>
<totfact> 0.22866858E+04</totfact>
</mgrwt>
</event>
<event>
 5    0  0.1856407E+000  0.2735156E+03  0.7546771E-02  0.1099284E+00
         21   -1    0    0  502  501  0.00000000000E+00  0.00000000000E+00  0.13069496838E+04  0.13069496838E+04  0.00000000000E+00 0. -1.
         21   -1    0    0  503  502 -0.00000000000E+00 -0.00000000000E+00 -0.14281154101E+03  0.14281154101E+03  0.00000000000E+00 0. -1.
         25    1    1    2    0    0 -0.81149566116E+02  0.22934811318E+03  0.11683900065E+04  0.11999775066E+04  0.12500000000E+03 0.  0.
         21    1    1    2  503  504  0.65878901190E+02 -0.13851757830E+03  0.19619521055E+02  0.15463529586E+03  0.00000000000E+00 0. -1.
         21    1    1    2  504  501  0.15270664926E+02 -0.90830534880E+02 -0.23871384707E+02  0.95148422382E+02  0.00000000000E+00 0. -1.
<mgrwt>
<rscale>  4 0.27351565E+03</rscale>
<asrwt>0</asrwt>
<pdfrwt beam="1">  1       21 0.20106917E+00 0.27351565E+03</pdfrwt>
<pdfrwt beam="2">  1       21 0.21971007E-01 0.27351565E+03</pdfrwt>
<totfact> 0.23849148E+03</totfact>
</mgrwt>
</event>
<event>
 5    0  0.2612929E+000  0.2408825E+03  0.7546771E-02  0.1119206E+00
         21   -1    0    0  502  501  0.00000000000E+00  0.00000000000E+00  0.10678969690E+03  0.10678969690E+03  0.00000000000E+00 0. -1.
         21   -1    0    0  503  502 -0.00000000000E+00 -0.00000000000E+00 -0.61490839810E+03  0.61490839810E+03  0.00000000000E+00 0. -1.
         25    1    1    2    0    0 -0.20555716630E+03 -0.12067705905E+02 -0.10955762692E+03  0.26462662708E+03  0.12500000000E+03 0.  0.
         21    1    1    2  503  504  0.16004697592E+03  0.29061278146E+02 -0.23040690655E+03  0.28204066191E+03  0.00000000000E+00 0. -1.
         21    1    1    2  504  501  0.45510190377E+02 -0.16993572241E+02 -0.16815416774E+03  0.17503080601E+03  0.00000000000E+00 0. -1.
<mgrwt>
<rscale>  4 0.24088250E+03</rscale>
<asrwt>0</asrwt>
<pdfrwt beam="1">  1       21 0.16429184E-01 0.24088250E+03</pdfrwt>
<pdfrwt beam="2">  1       21 0.94601291E-01 0.24088250E+03</pdfrwt>
<totfact> 0.30295230E+04</totfact>
</mgrwt>
</event>
<event>
 5    0  0.1856407E+000  0.3546215E+03  0.7546771E-02  0.1060734E+00
         21   -1    0    0  502  501  0.00000000000E+00  0.00000000000E+00  0.10335093650E+04  0.10335093650E+04  0.00000000000E+00 0. -1.
         21   -1    0    0  503  502 -0.00000000000E+00 -0.00000000000E+00 -0.27252644541E+03  0.27252644541E+03  0.00000000000E+00 0.  1.
         25    1    1    2    0    0 -0.32285463334E+03  0.10079733456E+03  0.85289685688E+03  0.92598772421E+03  0.12500000000E+03 0.  0.
         21    1    1    2  503  504  0.33963721875E+02 -0.41728000356E+02  0.29269795768E+02  0.61249337642E+02  0.00000000000E+00 0. -1.
         21    1    1    2  504  501  0.28889091146E+03 -0.59069334202E+02 -0.12118373301E+03  0.31879874861E+03  0.00000000000E+00 0.  1.
<mgrwt>
<rscale>  4 0.35462151E+03</rscale>
<asrwt>0</asrwt>
<pdfrwt beam="1">  1       21 0.15900144E+00 0.35462151E+03</pdfrwt>
<pdfrwt beam="2">  1       21 0.41927146E-01 0.35462151E+03</pdfrwt>
<totfact> 0.12415000E+03</totfact>
</mgrwt>
</event>
<event>
 5    0  0.1856407E+000  0.2843356E+03  0.7546771E-02  0.1093344E+00
         21   -1    0    0  502  501  0.00000000000E+00  0.00000000000E+00  0.58991655303E+03  0.58991655303E+03  0.00000000000E+00 0. -1.
         21   -1    0    0  503  502 -0.00000000000E+00 -0.00000000000E+00 -0.27281463503E+03  0.27281463503E+03  0.00000000000E+00 0. -1.
         25    1    1    2    0    0 -0.12939032573E+03  0.22018148551E+03  0.47834250572E+03  0.55646949218E+03  0.12500000000E+03 0.  0.
         21    1    1    2  503  504  0.29394492151E+02 -0.27531692587E+02 -0.93678667966E+01  0.41349573079E+02  0.00000000000E+00 0. -1.
         21    1    1    2  504  501  0.99995833582E+02 -0.19264979292E+03 -0.15187272092E+03  0.26491212280E+03  0.00000000000E+00 0. -1.
<mgrwt>
<rscale>  4 0.28433562E+03</rscale>
<asrwt>0</asrwt>
<pdfrwt beam="1">  1       21 0.90756393E-01 0.28433562E+03</pdfrwt>
<pdfrwt beam="2">  1       21 0.41971482E-01 0.28433562E+03</pdfrwt>
<totfact> 0.53025105E+03</totfact>
</mgrwt>
</event>
<event>
 5    0  0.1856407E+000  0.2685442E+03  0.7546771E-02  0.1102116E+00
         21   -1    0    0  502  501  0.00000000000E+00  0.00000000000E+00  0.39038193779E+03  0.39038193779E+03  0.00000000000E+00 0. -1.
         21   -1    0    0  503  502 -0.00000000000E+00 -0.00000000000E+00 -0.95663542188E+03  0.95663542188E+03  0.00000000000E+00 0.  1.
         25    1    1    2    0    0  0.25525283955E+02 -0.23630367454E+03  0.32598549803E+03  0.42235353869E+03  0.12500000000E+03 0.  0.
         21    1    1    2  503  504  0.11073017284E+02  0.34172593739E+02 -0.10111710575E+03  0.10730818678E+03  0.00000000000E+00 0. -1.
         21    1    1    2  504  501 -0.36598301239E+02  0.20213108080E+03 -0.79112187637E+03  0.81735563420E+03  0.00000000000E+00 0.  1.
<mgrwt>
<rscale>  4 0.26854416E+03</rscale>
<asrwt>0</asrwt>
<pdfrwt beam="1">  1       21 0.60058761E-01 0.26854416E+03</pdfrwt>
<pdfrwt beam="2">  1       21 0.14717468E+00 0.26854416E+03</pdfrwt>
<totfact> 0.75746042E+02</totfact>
</mgrwt>
</event>
<event>
 5    0  0.1856407E+000  0.2423806E+03  0.7546771E-02  0.1118217E+00
         21   -1    0    0  502  501  0.00000000000E+00  0.00000000000E+00  0.26862686210E+03  0.26862686210E+03  0.00000000000E+00 0. -1.
         21   -1    0    0  503  502 -0.00000000000E+00 -0.00000000000E+00 -0.23278684302E+03  0.23278684302E+03  0.00000000000E+00 0. -1.
         25    1    1    2    0    0 -0.20743385870E+03 -0.97247804141E+01 -0.82688102661E+02  0.25609705077E+03  0.12500000000E+03 0.  0.
         21    1    1    2  503  504  0.10656020385E+03  0.16304335340E+02  0.32542205632E+02  0.11260507779E+03  0.00000000000E+00 0. -1.
         21    1    1    2  504  501  0.10087365485E+03 -0.65795549258E+01  0.85985916109E+02  0.13271157657E+03  0.00000000000E+00 0. -1.
<mgrwt>
<rscale>  4 0.24238065E+03</rscale>
<asrwt>0</asrwt>
<pdfrwt beam="1">  1       21 0.41327209E-01 0.24238065E+03</pdfrwt>
<pdfrwt beam="2">  1       21 0.35813361E-01 0.24238065E+03</pdfrwt>
<totfact> 0.41405633E+04</totfact>
</mgrwt>
</event>
