<event>
 5    0  0.1972558E-002  0.2945576E+03  0.7546771E-02  0.1087993E+00
         21   -1    0    0  501  502  0.00000000000E+00  0.00000000000E+00  0.29718821887E+03  0.29718821887E+03  0.00000000000E+00 0.  1.
         21   -1    0    0  502  503 -0.00000000000E+00 -0.00000000000E+00 -0.37545546209E+03  0.37545546209E+03  0.00000000000E+00 0.  1.
         25    1    1    2    0    0 -0.51043580479E+02 -0.25215430809E+03  0.62722388203E+02  0.29282476019E+03  0.12500000000E+03 0.  0.
          2    1    1    2  501    0  0.32521341993E+02 -0.18451842878E+02  0.39207207374E+02  0.54178531732E+02  0.00000000000E+00 0. -1.
         -2    1    1    2    0  503  0.18522238487E+02  0.27060615097E+03 -0.18019683879E+03  0.32564038904E+03  0.00000000000E+00 0.  1.
<mgrwt>
<rscale>  4 0.29455761E+03</rscale>
<asrwt>0</asrwt>
<pdfrwt beam="1">  1       21 0.45721265E-01 0.29455761E+03</pdfrwt>
<pdfrwt beam="2">  1       21 0.57762378E-01 0.29455761E+03</pdfrwt>
<totfact> 0.12191006E+04</totfact>
</mgrwt>
</event>
<event>
 5    0  0.1972558E-002  0.2552518E+03  0.7546771E-02  0.1110030E+00
         21   -1    0    0  501  502  0.00000000000E+00  0.00000000000E+00  0.26185035904E+03  0.26185035904E+03  0.00000000000E+00 0. -1.
         21   -1    0    0  502  503 -0.00000000000E+00 -0.00000000000E+00 -0.53774468560E+03  0.53774468560E+03  0.00000000000E+00 0.  1.
         25    1    1    2    0    0  0.11101936142E+03  0.18799118407E+03 -0.41907519018E+03  0.48878931957E+03  0.12500000000E+03 0.  0.
          1    1    1    2  501    0 -0.12810175274E+03 -0.21116524594E+03  0.12579343759E+03  0.27717288664E+03  0.00000000000E+00 0. -1.
         -1    1    1    2    0  503  0.17082391312E+02  0.23174061877E+02  0.17387426041E+02  0.33632838435E+02  0.00000000000E+00 0.  1.
<mgrwt>
<rscale>  4 0.25525180E+03</rscale>
<asrwt>0</asrwt>
<pdfrwt beam="1">  1       21 0.40284671E-01 0.25525180E+03</pdfrwt>
<pdfrwt beam="2">  1       21 0.82729952E-01 0.25525180E+03</pdfrwt>
<totfact> 0.72637283E+03</totfact>
</mgrwt>
</event>
<event>
 5    0  0.1972558E-002  0.3633883E+03  0.7546771E-02  0.1057250E+00
         21   -1    0    0  503  502  0.00000000000E+00  0.00000000000E+00  0.47381075801E+03  0.47381075801E+03  0.00000000000E+00 0.  1.
         21   -1    0    0  501  503 -0.00000000000E+00 -0.00000000000E+00 -0.48544246218E+03  0.48544246218E+03  0.00000000000E+00 0. -1.
         25    1    1    2    0    0  0.35518439374E+03  0.67032558205E+02 -0.18769038100E+03  0.42603051127E+03  0.12500000000E+03 0.  0.
          1    1    1    2  501    0 -0.17890102120E+02 -0.88596284003E+02 -0.70696126989E+02  0.11474885474E+03  0.00000000000E+00 0. -1.
         -1    1    1    2    0  502 -0.33729429162E+03  0.21563725798E+02  0.24675480382E+03  0.41847385418E+03  0.00000000000E+00 0.  1.
<mgrwt>
<rscale>  4 0.36338829E+03</rscale>
<asrwt>0</asrwt>
<pdfrwt beam="1">  1       21 0.72893963E-01 0.36338829E+03</pdfrwt>
<pdfrwt beam="2">  1       21 0.74683456E-01 0.36338829E+03</pdfrwt>
<totfact> 0.24409616E+03</totfact>
</mgrwt>
</event>
<event>
 5    0  0.1972558E-002  0.3115128E+03  0.7546771E-02  0.1079623E+00
         21   -1    0    0  501  502  0.00000000000E+00  0.00000000000E+00  0.11188765850E+04  0.11188765850E+04  0.00000000000E+00 0. -1.
         21   -1    0    0  502  503 -0.00000000000E+00 -0.00000000000E+00 -0.14747424638E+03  0.14747424638E+03  0.00000000000E+00 0. -1.
         25    1    1    2    0    0  0.11935065766E+03 -0.31164744070E+03  0.27449850808E+03  0.44982567481E+03  0.12500000000E+03 0.  0.
          4    1    1    2  501    0 -0.12643054380E+03  0.59639212343E+02  0.41707678282E+03  0.43988016644E+03  0.00000000000E+00 0.  1.
         -4    1    1    2    0  503  0.70798861454E+01  0.25200822836E+03  0.27982704768E+03  0.37664499009E+03  0.00000000000E+00 0. -1.
<mgrwt>
<rscale>  4 0.31151277E+03</rscale>
<asrwt>0</asrwt>
<pdfrwt beam="1">  1       21 0.17213485E+00 0.31151277E+03</pdfrwt>
<pdfrwt beam="2">  1       21 0.22688346E-01 0.31151277E+03</pdfrwt>
<totfact> 0.34436465E+03</totfact>
</mgrwt>
</event>
<event>
 5    0  0.1972558E-002  0.2370248E+03  0.7546771E-02  0.1121791E+00
         21   -1    0    0  501  502  0.00000000000E+00  0.00000000000E+00  0.15844422829E+03  0.15844422829E+03  0.00000000000E+00 0. -1.
         21   -1    0    0  502  503 -0.00000000000E+00 -0.00000000000E+00 -0.67322151926E+03  0.67322151926E+03  0.00000000000E+00 0. -1.
         25    1    1    2    0    0 -0.19113658759E+03  0.63423489377E+02 -0.56444338354E+03  0.61219038489E+03  0.12500000000E+03 0.  0.
          1    1    1    2  501    0  0.15767634872E+03 -0.79575622715E+02  0.40287118369E+02  0.18115507882E+03  0.00000000000E+00 0. -1.
         -1    1    1    2    0  503  0.33460238874E+02  0.16152133339E+02  0.93789741991E+01  0.38320283845E+02  0.00000000000E+00 0.  1.
<mgrwt>
<rscale>  4 0.23702475E+03</rscale>
<asrwt>0</asrwt>
<pdfrwt beam="1">  1       21 0.24376036E-01 0.23702475E+03</pdfrwt>
<pdfrwt beam="2">  1       21 0.10357254E+00 0.23702475E+03</pdfrwt>
<totfact> 0.11662778E+04</totfact>
</mgrwt>
</event>
<event>
 5    0  0.1972558E-002  0.2430691E+03  0.7546771E-02  0.1117765E+00
         21   -1    0    0  501  502  0.00000000000E+00  0.00000000000E+00  0.14086918816E+04  0.14086918816E+04  0.00000000000E+00 0.  1.
         21   -1    0    0  502  503 -0.00000000000E+00 -0.00000000000E+00 -0.30210312415E+03  0.30210312415E+03  0.00000000000E+00 0. -1.
         25    1    1    2    0    0 -0.74173622647E+02  0.20219957298E+03 -0.11081126923E+02  0.24926729626E+03  0.12500000000E+03 0.  0.
          3    1    1    2  501    0  0.28824849757E+02 -0.17666825096E+01  0.12279623521E+04  0.12283018893E+04  0.00000000000E+00 0.  1.
         -3    1    1    2    0  503  0.45348772890E+02 -0.20043289047E+03 -0.11029246769E+03  0.23322582021E+03  0.00000000000E+00 0. -1.
<mgrwt>
<rscale>  4 0.24306907E+03</rscale>
<asrwt>0</asrwt>
<pdfrwt beam="1">  1       21 0.21672182E+00 0.24306907E+03</pdfrwt>
<pdfrwt beam="2">  1       21 0.46477405E-01 0.24306907E+03</pdfrwt>
<totfact> 0.44120188E+02</totfact>
</mgrwt>
</event>
<event>
 5    0  0.1972558E-002  0.2416912E+03  0.7546771E-02  0.1118671E+00
         21   -1    0    0  501  502  0.00000000000E+00  0.00000000000E+00  0.10205248495E+04  0.10205248495E+04  0.00000000000E+00 0. -1.
         21   -1    0    0  502  503 -0.00000000000E+00 -0.00000000000E+00 -0.23974398275E+03  0.23974398275E+03  0.00000000000E+00 0. -1.
         25    1    1    2    0    0  0.78481148418E+02  0.18875531949E+03 -0.15365162496E+03  0.28464308027E+03  0.12500000000E+03 0.  0.
          4    1    1    2  501    0 -0.69219304656E+02 -0.22390281461E+03  0.69499556855E+03  0.73344571908E+03  0.00000000000E+00 0. -1.
         -4    1    1    2    0  503 -0.92618437622E+01  0.35147495125E+02  0.23943692316E+03  0.24218003290E+03  0.00000000000E+00 0.  1.
<mgrwt>
<rscale>  4 0.24169116E+03</rscale>
<asrwt>0</asrwt>
<pdfrwt beam="1">  1       21 0.15700382E+00 0.24169116E+03</pdfrwt>
<pdfrwt beam="2">  1       21 0.36883690E-01 0.24169116E+03</pdfrwt>
<totfact> 0.17969034E+03</totfact>
</mgrwt>
</event>
<event>
 5    0  0.1972558E-002  0.3573912E+03  0.7546771E-02  0.1059622E+00
         21   -1    0    0  501  502  0.00000000000E+00  0.00000000000E+00  0.11912446282E+04  0.11912446282E+04  0.00000000000E+00 0.  1.
         21   -1    0    0  502  503 -0.00000000000E+00 -0.00000000000E+00 -0.32773009316E+03  0.32773009316E+03  0.00000000000E+00 0. -1.
         25    1    1    2    0    0  0.30963838099E+03 -0.95437662704E+02 -0.33291109283E+02  0.34888045575E+03  0.12500000000E+03 0.  0.
          4    1    1    2  501    0 -0.32608034554E+03  0.12971185941E+03  0.89861127267E+02  0.36225485561E+03  0.00000000000E+00 0. -1.
         -4    1    1    2    0  503  0.16441964543E+02 -0.34274196711E+02  0.80694451709E+03  0.80783941005E+03  0.00000000000E+00 0.  1.
<mgrwt>
<rscale>  4 0.35739123E+03</rscale>
<asrwt>0</asrwt>
<pdfrwt beam="1">  1       21 0.18326840E+00 0.35739123E+03</pdfrwt>
<pdfrwt beam="2">  1       21 0.50420015E-01 0.35739123E+03</pdfrwt>
<totfact> 0.56373394E+02</totfact>
</mgrwt>
</event>
<event>
 5    0  0.1972558E-002  0.3817456E+03  0.7546771E-02  0.1050290E+00
         21   -1    0    0  501  502  0.00000000000E+00  0.00000000000E+00  0.13956982863E+03  0.13956982863E+03  0.00000000000E+00 0. -1.
         21   -1    0    0  502  503 -0.00000000000E+00 -0.00000000000E+00 -0.13414939902E+04  0.13414939902E+04  0.00000000000E+00 0. -1.
         25    1    1    2    0    0 -0.23693713927E+03  0.26869780458E+03 -0.88013263050E+03  0.95843422592E+03  0.12500000000E+03 0.  0.
          1    1    1    2  501    0 -0.25001308640E+02 -0.12382013115E+02  0.86102339873E+01  0.29197873412E+02  0.00000000000E+00 0.  1.
         -1    1    1    2    0  503  0.26193844791E+03 -0.25631579147E+03 -0.33040176503E+03  0.49343171947E+03  0.00000000000E+00 0. -1.
<mgrwt>
<rscale>  4 0.38174560E+03</rscale>
<asrwt>0</asrwt>
<pdfrwt beam="1">  1       21 0.21472281E-01 0.38174560E+03</pdfrwt>
<pdfrwt beam="2">  1       21 0.20638369E+00 0.38174560E+03</pdfrwt>
<totfact> 0.21547475E+03</totfact>
</mgrwt>
</event>
<event>
 5    0  0.1972558E-002  0.3411273E+03  0.7546771E-02  0.1066317E+00
         21   -1    0    0  501  502  0.00000000000E+00  0.00000000000E+00  0.44186227446E+03  0.44186227446E+03  0.00000000000E+00 0.  1.
         21   -1    0    0  502  503 -0.00000000000E+00 -0.00000000000E+00 -0.36828789777E+03  0.36828789777E+03  0.00000000000E+00 0.  1.
         25    1    1    2    0    0 -0.32428776578E+03 -0.10958725291E+03 -0.73726980846E+02  0.37179643454E+03  0.12500000000E+03 0.  0.
          4    1    1    2  501    0  0.52242325905E+02  0.28823028719E+01  0.13621695097E+03  0.14591993016E+03  0.00000000000E+00 0. -1.
         -4    1    1    2    0  503  0.27204543987E+03  0.10670495004E+03  0.11084406564E+02  0.29243380753E+03  0.00000000000E+00 0.  1.
<mgrwt>
<rscale>  4 0.34112735E+03</rscale>
<asrwt>0</asrwt>
<pdfrwt beam="1">  1       21 0.67978812E-01 0.34112735E+03</pdfrwt>
<pdfrwt beam="2">  1       21 0.56659677E-01 0.34112735E+03</pdfrwt>
<totfact> 0.53087115E+03</totfact>
</mgrwt>
</event>
<event>
 5    0  0.1972558E-002  0.2250124E+03  0.7546771E-02  0.1130200E+00
         21   -1    0    0  503  502  0.00000000000E+00  0.00000000000E+00  0.73821427562E+03  0.73821427562E+03  0.00000000000E+00 0.  1.
         21   -1    0    0  501  503 -0.00000000000E+00 -0.00000000000E+00 -0.27810008935E+03  0.27810008935E+03  0.00000000000E+00 0.  1.
         25    1    1    2    0    0  0.10412720807E+03 -0.17174195508E+03 -0.19141221350E+03  0.30430479798E+03  0.12500000000E+03 0.  0.
          3    1    1    2  501    0  0.71059291315E+01  0.14940748212E+03  0.22153689975E+03  0.26730448536E+03  0.00000000000E+00 0.  1.
         -3    1    1    2    0  502 -0.11123313720E+03  0.22334472965E+02  0.42998950003E+03  0.44470508163E+03  0.00000000000E+00 0. -1.
<mgrwt>
<rscale>  4 0.22501237E+03</rscale>
<asrwt>0</asrwt>
<pdfrwt beam="1">  1       21 0.11357143E+00 0.22501237E+03</pdfrwt>
<pdfrwt beam="2">  1       21 0.42784629E-01 0.22501237E+03</pdfrwt>
<totfact> 0.30923375E+03</totfact>
</mgrwt>
</event>
<event>
 5    0  0.1972558E-002  0.2807332E+03  0.7546771E-02  0.1095289E+00
         21   -1    0    0  501  502  0.00000000000E+00  0.00000000000E+00  0.10631996475E+04  0.10631996475E+04  0.00000000000E+00 0. -1.
         21   -1    0    0  502  503 -0.00000000000E+00 -0.00000000000E+00 -0.58468308454E+03  0.58468308454E+03  0.00000000000E+00 0.  1.
         25    1    1    2    0    0  0.24236215511E+03  0.58431701688E+02 -0.43852931938E+03  0.51969860684E+03  0.12500000000E+03 0.  0.
          3    1    1    2  501    0 -0.24808857873E+03 -0.77695340753E+02  0.54773663249E+02  0.26567774287E+03  0.00000000000E+00 0.  1.
         -3    1    1    2    0  503  0.57264236190E+01  0.19263639065E+02  0.86227221907E+03  0.86250638229E+03  0.00000000000E+00 0. -1.
<mgrwt>
<rscale>  4 0.28073322E+03</rscale>
<asrwt>0</asrwt>
<pdfrwt beam="1">  1       21 0.16356918E+00 0.28073322E+03</pdfrwt>
<pdfrwt beam="2">  1       21 0.89951244E-01 0.28073322E+03</pdfrwt>
<totfact> 0.22733737E+02</totfact>
</mgrwt>
</event>
<event>
 5    0  0.1972558E-002  0.3252479E+03  0.7546771E-02  0.1073259E+00
         21   -1    0    0  501  502  0.00000000000E+00  0.00000000000E+00  0.36185199176E+03  0.36185199176E+03  0.00000000000E+00 0.  1.
         21   -1    0    0  502  503 -0.00000000000E+00 -0.00000000000E+00 -0.52021371223E+03  0.52021371223E+03  0.00000000000E+00 0. -1.
         25    1    1    2    0    0 -0.29589955035E+03 -0.12497440348E+02 -0.33920301396E+03  0.46732902177E+03  0.12500000000E+03 0.  0.
          2    1    1    2  501    0 -0.16650285556E+02 -0.28593624607E+02  0.75383313716E+02  0.82325399265E+02  0.00000000000E+00 0. -1.
         -2    1    1    2    0  503  0.31254983590E+03  0.41091064955E+02  0.10545797976E+03  0.33241128296E+03  0.00000000000E+00 0.  1.
<mgrwt>
<rscale>  4 0.32524793E+03</rscale>
<asrwt>0</asrwt>
<pdfrwt beam="1">  1       21 0.55669537E-01 0.32524793E+03</pdfrwt>
<pdfrwt beam="2">  1       21 0.80032879E-01 0.32524793E+03</pdfrwt>
<totfact> 0.38422239E+03</totfact>
</mgrwt>
</event>
<event>
 5    0  0.1972558E-002  0.3442187E+03  0.7546771E-02  0.1065013E+00
         21   -1    0    0  501  502  0.00000000000E+00  0.00000000000E+00  0.17850490786E+04  0.17850490786E+04  0.00000000000E+00 0.  1.
         21   -1    0    0  502  503 -0.00000000000E+00 -0.00000000000E+00 -0.15649481992E+03  0.15649481992E+03  0.00000000000E+00 0. -1.
         25    1    1    2    0    0  0.31521292284E+03 -0.78954874670E+02  0.93125010249E+02  0.36040300566E+03  0.12500000000E+03 0.  0.
          2    1    1    2  501    0 -0.28599975414E+03  0.98525387807E+02  0.10047430554E+04  0.10492910553E+04  0.00000000000E+00 0.  1.
         -2    1    1    2    0  503 -0.29213168694E+02 -0.19570513137E+02  0.53068619297E+03  0.53184983748E+03  0.00000000000E+00 0. -1.
<mgrwt>
<rscale>  4 0.34421870E+03</rscale>
<asrwt>0</asrwt>
<pdfrwt beam="1">  1       21 0.27462292E+00 0.34421870E+03</pdfrwt>
<pdfrwt beam="2">  1       21 0.24076127E-01 0.34421870E+03</pdfrwt>
<totfact> 0.67068343E+02</totfact>
</mgrwt>
</event>
<event>
 5    0  0.1972558E-002  0.2379124E+03  0.7546771E-02  0.1121191E+00
         21   -1    0    0  501  502  0.00000000000E+00  0.00000000000E+00  0.10088067816E+04  0.10088067816E+04  0.00000000000E+00 0. -1.
         21   -1    0    0  502  503 -0.00000000000E+00 -0.00000000000E+00 -0.31230954018E+03  0.31230954018E+03  0.00000000000E+00 0. -1.
         25    1    1    2    0    0 -0.81408091424E+01  0.20718046651E+03 -0.18843008074E+03  0.30679131964E+03  0.12500000000E+03 0.  0.
          1    1    1    2  501    0  0.22817879571E+02 -0.16195916600E+02  0.80707617177E+03  0.80756108771E+03  0.00000000000E+00 0. -1.
         -1    1    1    2    0  503 -0.14677070429E+02 -0.19098454991E+03  0.77851150405E+02  0.20676391446E+03  0.00000000000E+00 0.  1.
<mgrwt>
<rscale>  4 0.23791242E+03</rscale>
<asrwt>0</asrwt>
<pdfrwt beam="1">  1       21 0.15520104E+00 0.23791242E+03</pdfrwt>
<pdfrwt beam="2">  1       21 0.48047622E-01 0.23791242E+03</pdfrwt>
<totfact> 0.10826216E+03</totfact>
</mgrwt>
</event>
<event>
 5    0  0.1972558E-002  0.2768097E+03  0.7546771E-02  0.1097444E+00
         21   -1    0    0  503  502  0.00000000000E+00  0.00000000000E+00  0.35847739640E+03  0.35847739640E+03  0.00000000000E+00 0. -1.
         21   -1    0    0  501  503 -0.00000000000E+00 -0.00000000000E+00 -0.15520098970E+04  0.15520098970E+04  0.00000000000E+00 0.  1.
         25    1    1    2    0    0 -0.21931712282E+03 -0.10943753759E+03 -0.14539737474E+04  0.14797774269E+04  0.12500000000E+03 0.  0.
          1    1    1    2  501    0 -0.41472426769E+02 -0.22623890858E+02  0.16710785048E+02  0.50110407668E+02  0.00000000000E+00 0.  1.
         -1    1    1    2    0  502  0.26078954959E+03  0.13206142845E+03  0.24373046178E+03  0.38059945883E+03  0.00000000000E+00 0. -1.
<mgrwt>
<rscale>  4 0.27680974E+03</rscale>
<asrwt>0</asrwt>
<pdfrwt beam="1">  1       21 0.55150370E-01 0.27680974E+03</pdfrwt>
<pdfrwt beam="2">  1       21 0.23877075E+00 0.27680974E+03</pdfrwt>
<totfact> 0.21779710E+02</totfact>
</mgrwt>
</event>
<event>
 5    0  0.1972558E-002  0.2482708E+03  0.7546771E-02  0.1114403E+00
         21   -1    0    0  501  502  0.00000000000E+00  0.00000000000E+00  0.21732473543E+03  0.21732473543E+03  0.00000000000E+00 0. -1.
         21   -1    0    0  502  503 -0.00000000000E+00 -0.00000000000E+00 -0.65933354048E+03  0.65933354048E+03  0.00000000000E+00 0.  1.
         25    1    1    2    0    0 -0.11308634362E+03 -0.20125208394E+03 -0.36417130528E+03  0.44892834839E+03  0.12500000000E+03 0.  0.
          1    1    1    2  501    0  0.11800922801E+03  0.16127732813E+03 -0.20980715541E+03  0.28975092222E+03  0.00000000000E+00 0.  1.
         -1    1    1    2    0  503 -0.49228843925E+01  0.39974755803E+02  0.13196965564E+03  0.13797900529E+03  0.00000000000E+00 0. -1.
<mgrwt>
<rscale>  4 0.24827081E+03</rscale>
<asrwt>0</asrwt>
<pdfrwt beam="1">  1       21 0.33434575E-01 0.24827081E+03</pdfrwt>
<pdfrwt beam="2">  1       21 0.10143593E+00 0.24827081E+03</pdfrwt>
<totfact> 0.65805813E+03</totfact>
</mgrwt>
</event>
<event>
 5    0  0.1972558E-002  0.2440453E+03  0.7546771E-02  0.1117127E+00
         21   -1    0    0  501  502  0.00000000000E+00  0.00000000000E+00  0.19231180839E+03  0.19231180839E+03  0.00000000000E+00 0. -1.
         21   -1    0    0  502  503 -0.00000000000E+00 -0.00000000000E+00 -0.70665172419E+03  0.70665172419E+03  0.00000000000E+00 0.  1.
         25    1    1    2    0    0  0.19582176450E+03 -0.90399565515E+02 -0.57410844922E+03  0.62589436518E+03  0.12500000000E+03 0.  0.
          3    1    1    2  501    0 -0.19089399964E+03  0.24774169556E+02  0.14190739263E+02  0.19301724187E+03  0.00000000000E+00 0.  1.
         -3    1    1    2    0  503 -0.49277648521E+01  0.65625395959E+02  0.45577794154E+02  0.80051925531E+02  0.00000000000E+00 0. -1.
<mgrwt>
<rscale>  4 0.24404527E+03</rscale>
<asrwt>0</asrwt>
<pdfrwt beam="1">  1       21 0.29586432E-01 0.24404527E+03</pdfrwt>
<pdfrwt beam="2">  1       21 0.10871565E+00 0.24404527E+03</pdfrwt>
<totfact> 0.70999170E+03</totfact>
</mgrwt>
</event>
<event>
 5    0  0.1972558E-002  0.2415479E+03  0.7546771E-02  0.1118766E+00
         21   -1    0    0  501  502  0.00000000000E+00  0.00000000000E+00  0.43549969859E+03  0.43549969859E+03  0.00000000000E+00 0.  1.
         21   -1    0    0  502  503 -0.00000000000E+00 -0.00000000000E+00 -0.32297184251E+03  0.32297184251E+03  0.00000000000E+00 0. -1.
         25    1    1    2    0    0  0.19759136732E+03  0.41462596901E+02 -0.19513428781E+03  0.30734977739E+03  0.12500000000E+03 0.  0.
          1    1    1    2  501    0 -0.22240715426E+03 -0.17998129611E+02  0.10679937198E+03  0.24737619285E+03  0.00000000000E+00 0. -1.
         -1    1    1    2    0  503  0.24815786933E+02 -0.23464467290E+02  0.20086277191E+03  0.20374557086E+03  0.00000000000E+00 0.  1.
<mgrwt>
<rscale>  4 0.24154792E+03</rscale>
<asrwt>0</asrwt>
<pdfrwt beam="1">  1       21 0.66999954E-01 0.24154792E+03</pdfrwt>
<pdfrwt beam="2">  1       21 0.49687976E-01 0.24154792E+03</pdfrwt>
<totfact> 0.76227187E+03</totfact>
</mgrwt>
</event>
<event>
 5    0  0.1972558E-002  0.3692013E+03  0.7546771E-02  0.1054999E+00
         21   -1    0    0  501  502  0.00000000000E+00  0.00000000000E+00  0.15404982234E+04  0.15404982234E+04  0.00000000000E+00 0. -1.
         21   -1    0    0  502  503 -0.00000000000E+00 -0.00000000000E+00 -0.11398271600E+03  0.11398271600E+03  0.00000000000E+00 0. -1.
         25    1    1    2    0    0 -0.10113777038E+03 -0.32529438556E+03  0.42884862274E+03  0.56176634565E+03  0.12500000000E+03 0.  0.
          2    1    1    2  501    0  0.18185236971E+03  0.31579988298E+03  0.80911003202E+03  0.88738880677E+03  0.00000000000E+00 0. -1.
         -2    1    1    2    0  503 -0.80714599326E+02  0.94945025758E+01  0.18855685264E+03  0.20532578698E+03  0.00000000000E+00 0.  1.
<mgrwt>
<rscale>  4 0.36920133E+03</rscale>
<asrwt>0</asrwt>
<pdfrwt beam="1">  1       21 0.23699971E+00 0.36920133E+03</pdfrwt>
<pdfrwt beam="2">  1       21 0.17535804E-01 0.36920133E+03</pdfrwt>
<totfact> 0.20358431E+03</totfact>
</mgrwt>
</event>
<event>
 5    0  0.1972558E-002  0.2506536E+03  0.7546771E-02  0.1112892E+00
         21   -1    0    0  501  502  0.00000000000E+00  0.00000000000E+00  0.13605962506E+03  0.13605962506E+03  0.00000000000E+00 0.  1.
         21   -1    0    0  502  503 -0.00000000000E+00 -0.00000000000E+00 -0.92106029624E+03  0.92106029624E+03  0.00000000000E+00 0. -1.
         25    1    1    2    0    0 -0.47579881580E+02 -0.21198669218E+03 -0.79354371339E+03  0.83218917792E+03  0.12500000000E+03 0.  0.
          2    1    1    2  501    0  0.22997827898E+02  0.68188524500E+02  0.29064933201E+02  0.77610213913E+02  0.00000000000E+00 0. -1.
         -2    1    1    2    0  503  0.24582053683E+02  0.14379816768E+03 -0.20521890999E+02  0.14732052946E+03  0.00000000000E+00 0.  1.
<mgrwt>
<rscale>  4 0.25065355E+03</rscale>
<asrwt>0</asrwt>
<pdfrwt beam="1">  1       21 0.20932251E-01 0.25065355E+03</pdfrwt>
<pdfrwt beam="2">  1       21 0.14170158E+00 0.25065355E+03</pdfrwt>
<totfact> 0.70546357E+03</totfact>
</mgrwt>
</event>
<event>
 5    0  0.1972558E-002  0.2268014E+03  0.7546771E-02  0.1128912E+00
         21   -1    0    0  501  502  0.00000000000E+00  0.00000000000E+00  0.17618298797E+03  0.17618298797E+03  0.00000000000E+00 0.  1.
         21   -1    0    0  502  503 -0.00000000000E+00 -0.00000000000E+00 -0.41031994500E+03  0.41031994500E+03  0.00000000000E+00 0.  1.
         25    1    1    2    0    0  0.20205948334E+03 -0.56130467568E+02 -0.99710094598E+02  0.26371531462E+03  0.12500000000E+03 0.  0.
          1    1    1    2  501    0 -0.17732709069E+03  0.33134516605E+02 -0.18730202983E+03  0.26004777188E+03  0.00000000000E+00 0.  1.
         -1    1    1    2    0  503 -0.24732392658E+02  0.22995950963E+02  0.52875167406E+02  0.62739846473E+02  0.00000000000E+00 0. -1.
<mgrwt>
<rscale>  4 0.22680145E+03</rscale>
<asrwt>0</asrwt>
<pdfrwt beam="1">  1       21 0.27105075E-01 0.22680145E+03</pdfrwt>
<pdfrwt beam="2">  1       21 0.63126145E-01 0.22680145E+03</pdfrwt>
<totfact> 0.29584503E+04</totfact>
</mgrwt>
</event>
<event>
 5    0  0.1972558E-002  0.2508390E+03  0.7546771E-02  0.1112776E+00
         21   -1    0    0  501  502  0.00000000000E+00  0.00000000000E+00  0.98336429709E+03  0.98336429709E+03  0.00000000000E+00 0. -1.
         21   -1    0    0  502  503 -0.00000000000E+00 -0.00000000000E+00 -0.15767518908E+03  0.15767518908E+03  0.00000000000E+00 0. -1.
         25    1    1    2    0    0  0.17346953323E+03  0.13800631669E+03 -0.95321039482E+01  0.25466307822E+03  0.12500000000E+03 0.  0.
          2    1    1    2  501    0 -0.81790407857E+01 -0.19034681867E+02  0.45137411493E+03  0.45184931941E+03  0.00000000000E+00 0. -1.
         -2    1    1    2    0  503 -0.16529049244E+03 -0.11897163482E+03  0.38384709703E+03  0.43452708854E+03  0.00000000000E+00 0.  1.
<mgrwt>
<rscale>  4 0.25083899E+03</rscale>
<asrwt>0</asrwt>
<pdfrwt beam="1">  1       21 0.15128681E+00 0.25083899E+03</pdfrwt>
<pdfrwt beam="2">  1       21 0.24257722E-01 0.25083899E+03</pdfrwt>
<totfact> 0.44833036E+03</totfact>
</mgrwt>
</event>
<event>
 5    0  0.1972558E-002  0.2189813E+03  0.7546771E-02  0.1134645E+00
         21   -1    0    0  501  502  0.00000000000E+00  0.00000000000E+00  0.45410210028E+03  0.45410210028E+03  0.00000000000E+00 0.  1.
         21   -1    0    0  502  503 -0.00000000000E+00 -0.00000000000E+00 -0.19921505023E+03  0.19921505023E+03  0.00000000000E+00 0. -1.
         25    1    1    2    0    0  0.61946011242E+02 -0.19989787820E+03 -0.44446703823E+02  0.24778413892E+03  0.12500000000E+03 0.  0.
          4    1    1    2  501    0 -0.99404744649E+02  0.53894617249E+02  0.18305421736E+03  0.21516221676E+03  0.00000000000E+00 0.  1.
         -4    1    1    2    0  503  0.37458733408E+02  0.14600326095E+03  0.11627953651E+03  0.19037079484E+03  0.00000000000E+00 0. -1.
<mgrwt>
<rscale>  4 0.21898128E+03</rscale>
<asrwt>0</asrwt>
<pdfrwt beam="1">  1       21 0.69861861E-01 0.21898128E+03</pdfrwt>
<pdfrwt beam="2">  1       21 0.30648469E-01 0.21898128E+03</pdfrwt>
<totfact> 0.18724729E+04</totfact>
</mgrwt>
</event>
<event>
 5    0  0.1972558E-002  0.3070306E+03  0.7546771E-02  0.1081778E+00
         21   -1    0    0  503  502  0.00000000000E+00  0.00000000000E+00  0.78229745571E+03  0.78229745571E+03  0.00000000000E+00 0.  1.
         21   -1    0    0  501  503 -0.00000000000E+00 -0.00000000000E+00 -0.37866237456E+03  0.37866237456E+03  0.00000000000E+00 0.  1.
         25    1    1    2    0    0  0.25866543393E+03 -0.10832813072E+03 -0.27964005793E+03  0.41529068448E+03  0.12500000000E+03 0.  0.
          1    1    1    2  501    0 -0.54724336608E+02  0.22611541379E+02  0.27509399072E+03  0.28139427597E+03  0.00000000000E+00 0. -1.
         -1    1    1    2    0  502 -0.20394109732E+03  0.85716589339E+02  0.40818114836E+03  0.46427486982E+03  0.00000000000E+00 0.  1.
<mgrwt>
<rscale>  4 0.30703060E+03</rscale>
<asrwt>0</asrwt>
<pdfrwt beam="1">  1       21 0.12035345E+00 0.30703060E+03</pdfrwt>
<pdfrwt beam="2">  1       21 0.58255750E-01 0.30703060E+03</pdfrwt>
<totfact> 0.13240925E+03</totfact>
</mgrwt>
</event>
<event>
 5    0  0.1972558E-002  0.3198050E+03  0.7546771E-02  0.1075739E+00
         21   -1    0    0  503  502  0.00000000000E+00  0.00000000000E+00  0.39818518052E+03  0.39818518052E+03  0.00000000000E+00 0. -1.
         21   -1    0    0  501  503 -0.00000000000E+00 -0.00000000000E+00 -0.52482537878E+03  0.52482537878E+03  0.00000000000E+00 0. -1.
         25    1    1    2    0    0 -0.92373078646E+02  0.28486223979E+03 -0.38181192717E+03  0.50108345517E+03  0.12500000000E+03 0.  0.
          4    1    1    2  501    0  0.33424609512E+02 -0.16061058477E+02  0.98535119907E+02  0.10528215412E+03  0.00000000000E+00 0.  1.
         -4    1    1    2    0  502  0.58948469135E+02 -0.26880118131E+03  0.15663660901E+03  0.31664495001E+03  0.00000000000E+00 0. -1.
<mgrwt>
<rscale>  4 0.31980498E+03</rscale>
<asrwt>0</asrwt>
<pdfrwt beam="1">  1       21 0.61259259E-01 0.31980498E+03</pdfrwt>
<pdfrwt beam="2">  1       21 0.80742365E-01 0.31980498E+03</pdfrwt>
<totfact> 0.30691721E+03</totfact>
</mgrwt>
</event>
<event>
 5    0  0.1972558E-002  0.2858407E+03  0.7546771E-02  0.1092541E+00
         21   -1    0    0  501  502  0.00000000000E+00  0.00000000000E+00  0.17871892357E+03  0.17871892357E+03  0.00000000000E+00 0.  1.
         21   -1    0    0  502  503 -0.00000000000E+00 -0.00000000000E+00 -0.10608122920E+04  0.10608122920E+04  0.00000000000E+00 0.  1.
         25    1    1    2    0    0  0.11843001588E+02 -0.26020097202E+03 -0.86004087677E+03  0.90727069403E+03  0.12500000000E+03 0.  0.
          2    1    1    2  501    0 -0.33028226447E+02  0.24314916750E+03 -0.88191108478E+02  0.26074902303E+03  0.00000000000E+00 0.  1.
         -2    1    1    2    0  503  0.21185224859E+02  0.17051804523E+02  0.66138616802E+02  0.71511498533E+02  0.00000000000E+00 0. -1.
<mgrwt>
<rscale>  4 0.28584071E+03</rscale>
<asrwt>0</asrwt>
<pdfrwt beam="1">  1       21 0.27495220E-01 0.28584071E+03</pdfrwt>
<pdfrwt beam="2">  1       21 0.16320189E+00 0.28584071E+03</pdfrwt>
<totfact> 0.28006040E+03</totfact>
</mgrwt>
</event>
<event>
 5    0  0.1972558E-002  0.2548226E+03  0.7546771E-02  0.1110294E+00
         21   -1    0    0  501  502  0.00000000000E+00  0.00000000000E+00  0.10995528419E+03  0.10995528419E+03  0.00000000000E+00 0.  1.
         21   -1    0    0  502  503 -0.00000000000E+00 -0.00000000000E+00 -0.67076885659E+03  0.67076885659E+03  0.00000000000E+00 0.  1.
         25    1    1    2    0    0 -0.14262336260E+03 -0.18297923648E+03 -0.37681010402E+03  0.45981918080E+03  0.12500000000E+03 0.  0.
          1    1    1    2  501    0  0.39269086928E+02 -0.20289464324E+01  0.13760717283E+01  0.39345538313E+02  0.00000000000E+00 0. -1.
         -1    1    1    2    0  503  0.10335427567E+03  0.18500818291E+03 -0.18537954011E+03  0.28155942167E+03  0.00000000000E+00 0.  1.
<mgrwt>
<rscale>  4 0.25482263E+03</rscale>
<asrwt>0</asrwt>
<pdfrwt beam="1">  1       21 0.16916197E-01 0.25482263E+03</pdfrwt>
<pdfrwt beam="2">  1       21 0.10319521E+00 0.25482263E+03</pdfrwt>
<totfact> 0.23178633E+04</totfact>
</mgrwt>
</event>
<event>
 5    0  0.1972558E-002  0.2377200E+03  0.7546771E-02  0.1121321E+00
         21   -1    0    0  503  502  0.00000000000E+00  0.00000000000E+00  0.32365332030E+03  0.32365332030E+03  0.00000000000E+00 0.  1.
         21   -1    0    0  501  503 -0.00000000000E+00 -0.00000000000E+00 -0.21890919558E+03  0.21890919558E+03  0.00000000000E+00 0.  1.
         25    1    1    2    0    0 -0.17831734002E+03 -0.10023176667E+03 -0.73079673546E+02  0.25061747642E+03  0.12500000000E+03 0.  0.
          4    1    1    2  501    0  0.18610774963E+03  0.69625382826E+02  0.14224817887E+03  0.24437334715E+03  0.00000000000E+00 0.  1.
         -4    1    1    2    0  502 -0.77904096041E+01  0.30606383848E+02  0.35575619394E+02  0.47571692311E+02  0.00000000000E+00 0. -1.
<mgrwt>
<rscale>  4 0.23771998E+03</rscale>
<asrwt>0</asrwt>
<pdfrwt beam="1">  1       21 0.49792819E-01 0.23771998E+03</pdfrwt>
<pdfrwt beam="2">  1       21 0.33678338E-01 0.23771998E+03</pdfrwt>
<totfact> 0.31904338E+04</totfact>
</mgrwt>
</event>
<event>
 5    0  0.1972558E-002  0.4734041E+03  0.7546771E-02  0.1020964E+00
         21   -1    0    0  501  502  0.00000000000E+00  0.00000000000E+00  0.29361663564E+03  0.29361663564E+03  0.00000000000E+00 0. -1.
         21   -1    0    0  502  503 -0.00000000000E+00 -0.00000000000E+00 -0.89828755222E+03  0.89828755222E+03  0.00000000000E+00 0.  1.
         25    1    1    2    0    0 -0.56238507169E+02  0.41878128331E+03 -0.36471815695E+03  0.57200075782E+03  0.12500000000E+03 0.  0.
          1    1    1    2  501    0  0.51896142539E+02 -0.47673625665E+03 -0.13214175729E+03  0.49742548390E+03  0.00000000000E+00 0. -1.
         -1    1    1    2    0  503  0.43423646304E+01  0.57954973336E+02 -0.10781100234E+03  0.12247794614E+03  0.00000000000E+00 0.  1.
<mgrwt>
<rscale>  4 0.47340410E+03</rscale>
<asrwt>0</asrwt>
<pdfrwt beam="1">  1       21 0.45171790E-01 0.47340410E+03</pdfrwt>
<pdfrwt beam="2">  1       21 0.13819808E+00 0.47340410E+03</pdfrwt>
<totfact> 0.14704207E+03</totfact>
</mgrwt>
</event>
<event>
 5    0  0.1972558E-002  0.2800402E+03  0.7546771E-02  0.1095667E+00
         21   -1    0    0  501  502  0.00000000000E+00  0.00000000000E+00  0.12255109965E+03  0.12255109965E+03  0.00000000000E+00 0. -1.
         21   -1    0    0  502  503 -0.00000000000E+00 -0.00000000000E+00 -0.12121902014E+04  0.12121902014E+04  0.00000000000E+00 0. -1.
         25    1    1    2    0    0 -0.22721641516E+03  0.12808239646E+03 -0.48685117240E+03  0.56628743909E+03  0.12500000000E+03 0.  0.
          1    1    1    2  501    0  0.22010353878E+03 -0.10780370385E+03 -0.66176090049E+03  0.70568739238E+03  0.00000000000E+00 0. -1.
         -1    1    1    2    0  503  0.71128763806E+01 -0.20278692606E+02  0.58972971123E+02  0.62766469610E+02  0.00000000000E+00 0.  1.
<mgrwt>
<rscale>  4 0.28004023E+03</rscale>
<asrwt>0</asrwt>
<pdfrwt beam="1">  1       21 0.18854016E-01 0.28004023E+03</pdfrwt>
<pdfrwt beam="2">  1       21 0.18649080E+00 0.28004023E+03</pdfrwt>
<totfact> 0.39596708E+03</totfact>
</mgrwt>
</event>
<event>
 5    0  0.1972558E-002  0.4458966E+03  0.7546771E-02  0.1028995E+00
         21   -1    0    0  503  502  0.00000000000E+00  0.00000000000E+00  0.34924107252E+03  0.34924107252E+03  0.00000000000E+00 0. -1.
         21   -1    0    0  501  503 -0.00000000000E+00 -0.00000000000E+00 -0.14675140741E+04  0.14675140741E+04  0.00000000000E+00 0. -1.
         25    1    1    2    0    0  0.23442358469E+03  0.35741055192E+03 -0.12699484008E+04  0.13457676844E+04  0.12500000000E+03 0.  0.
          4    1    1    2  501    0 -0.16131116822E+03 -0.28942606315E+03  0.62631997029E+02  0.33721136706E+03  0.00000000000E+00 0. -1.
         -4    1    1    2    0  502 -0.73112416464E+02 -0.67984488772E+02  0.89043402212E+02  0.13377609515E+03  0.00000000000E+00 0.  1.
<mgrwt>
<rscale>  4 0.44575569E+03</rscale>
<asrwt>0</asrwt>
<pdfrwt beam="1">  1       21 0.53729396E-01 0.44589658E+03</pdfrwt>
<pdfrwt beam="2">  1       21 0.22577139E+00 0.44589658E+03</pdfrwt>
<totfact> 0.24546608E+02</totfact>
</mgrwt>
</event>
<event>
 5    0  0.1972558E-002  0.2983231E+03  0.7546771E-02  0.1086082E+00
         21   -1    0    0  501  502  0.00000000000E+00  0.00000000000E+00  0.48751519103E+03  0.48751519103E+03  0.00000000000E+00 0. -1.
         21   -1    0    0  502  503 -0.00000000000E+00 -0.00000000000E+00 -0.20529000872E+03  0.20529000872E+03  0.00000000000E+00 0. -1.
         25    1    1    2    0    0 -0.17457037619E+02  0.27486963838E+03  0.90421133162E+02  0.31568821262E+03  0.12500000000E+03 0.  0.
          1    1    1    2  501    0  0.36771584587E+02 -0.26432716202E+03  0.10370917855E+03  0.28631554574E+03  0.00000000000E+00 0. -1.
         -1    1    1    2    0  503 -0.19314546968E+02 -0.10542476351E+02  0.88094870601E+02  0.90801441390E+02  0.00000000000E+00 0.  1.
<mgrwt>
<rscale>  4 0.29832313E+03</rscale>
<asrwt>0</asrwt>
<pdfrwt beam="1">  1       21 0.75002337E-01 0.29832313E+03</pdfrwt>
<pdfrwt beam="2">  1       21 0.31583078E-01 0.29832313E+03</pdfrwt>
<totfact> 0.14485564E+04</totfact>
</mgrwt>
</event>
<event>
 5    0  0.1972558E-002  0.2351771E+03  0.7546771E-02  0.1123048E+00
         21   -1    0    0  503  502  0.00000000000E+00  0.00000000000E+00  0.17106222791E+04  0.17106222791E+04  0.00000000000E+00 0. -1.
         21   -1    0    0  501  503 -0.00000000000E+00 -0.00000000000E+00 -0.41295617277E+03  0.41295617277E+03  0.00000000000E+00 0. -1.
         25    1    1    2    0    0 -0.21520583296E+03  0.52163665318E+02 -0.30981473797E+03  0.40080515264E+03  0.12500000000E+03 0.  0.
          2    1    1    2  501    0  0.24739984786E+02  0.49324367817E+01 -0.48621774030E+02  0.54776570627E+02  0.00000000000E+00 0.  1.
         -2    1    1    2    0  502  0.19046584817E+03 -0.57096102100E+02  0.16561026183E+04  0.16679967286E+04  0.00000000000E+00 0. -1.
<mgrwt>
<rscale>  4 0.23517706E+03</rscale>
<asrwt>0</asrwt>
<pdfrwt beam="1">  1       21 0.26317265E+00 0.23517706E+03</pdfrwt>
<pdfrwt beam="2">  1       21 0.63531720E-01 0.23517706E+03</pdfrwt>
<totfact> 0.12015960E+02</totfact>
</mgrwt>
</event>
<event>
 5    0  0.1972558E-002  0.2473156E+03  0.7546771E-02  0.1115013E+00
         21   -1    0    0  501  502  0.00000000000E+00  0.00000000000E+00  0.13996187221E+03  0.13996187221E+03  0.00000000000E+00 0.  1.
         21   -1    0    0  502  503 -0.00000000000E+00 -0.00000000000E+00 -0.21137791900E+04  0.21137791900E+04  0.00000000000E+00 0. -1.
         25    1    1    2    0    0  0.13560819321E+03  0.16855724734E+03 -0.17534836430E+04  0.17711947984E+04  0.12500000000E+03 0.  0.
          1    1    1    2  501    0  0.84704338503E+02 -0.98928143775E+02  0.38285058864E+02  0.13574736949E+03  0.00000000000E+00 0.  1.
         -1    1    1    2    0  503 -0.22031253171E+03 -0.69629103562E+02 -0.25861873371E+03  0.34679889434E+03  0.00000000000E+00 0. -1.
<mgrwt>
<rscale>  4 0.24731561E+03</rscale>
<asrwt>0</asrwt>
<pdfrwt beam="1">  1       21 0.21532599E-01 0.24731561E+03</pdfrwt>
<pdfrwt beam="2">  1       21 0.32519676E+00 0.24731561E+03</pdfrwt>
<totfact> 0.45647659E+02</totfact>
</mgrwt>
</event>
<event>
 5    0  0.1972558E-002  0.3918798E+03  0.7546771E-02  0.1051785E+00
         21   -1    0    0  503  502  0.00000000000E+00  0.00000000000E+00  0.16249795415E+04  0.16249795415E+04  0.00000000000E+00 0.  1.
         21   -1    0    0  501  503 -0.00000000000E+00 -0.00000000000E+00 -0.84278696691E+03  0.84278696691E+03  0.00000000000E+00 0.  1.
         25    1    1    2    0    0  0.13577161152E+03  0.28338808862E+03 -0.63297792358E+03  0.71765506409E+03  0.12500000000E+03 0.  0.
          1    1    1    2  501    0 -0.42940411764E+03 -0.16609768643E+01  0.20982702931E+03  0.47793099640E+03  0.00000000000E+00 0. -1.
         -1    1    1    2    0  502  0.29363250612E+03 -0.28172711176E+03  0.12053434689E+04  0.12721804479E+04  0.00000000000E+00 0.  1.
<mgrwt>
<rscale>  4 0.37770485E+03</rscale>
<asrwt>0</asrwt>
<pdfrwt beam="1">  1       21 0.24999685E+00 0.39187976E+03</pdfrwt>
<pdfrwt beam="2">  1       21 0.12965953E+00 0.39187976E+03</pdfrwt>
<totfact> 0.22898817E+01</totfact>
</mgrwt>
</event>
<event>
 5    0  0.2269326E-002  0.1850216E+03  0.7546771E-02  0.1163030E+00
         21   -1    0    0  501  502  0.00000000000E+00  0.00000000000E+00  0.11197158057E+04  0.11197158057E+04  0.00000000000E+00 0. -1.
         21   -1    0    0  502  503 -0.00000000000E+00 -0.00000000000E+00 -0.12226738076E+03  0.12226738076E+03  0.00000000000E+00 0. -1.
         25    1    1    2    0    0 -0.11019534944E+03  0.18950215501E+03  0.85202430619E+02  0.26634289173E+03  0.12500000000E+03 0.  0.
          2    1    1    2  501    0  0.47883785214E+02 -0.12295541325E+03  0.86101268916E+03  0.87106471713E+03  0.00000000000E+00 0. -1.
         -2    1    1    2    0  503  0.62311564229E+02 -0.66546741760E+02  0.51233305164E+02  0.10457557762E+03  0.00000000000E+00 0.  1.
<mgrwt>
<rscale>  4 0.18502156E+03</rscale>
<asrwt>0</asrwt>
<pdfrwt beam="1">  1       21 0.17226396E+00 0.18502156E+03</pdfrwt>
<pdfrwt beam="2">  1       21 0.18810367E-01 0.18502156E+03</pdfrwt>
<totfact> 0.53594375E+03</totfact>
</mgrwt>
</event>
<event>
 5    0  0.1972558E-002  0.2645654E+03  0.7546771E-02  0.1104431E+00
         21   -1    0    0  501  502  0.00000000000E+00  0.00000000000E+00  0.74738992045E+03  0.74738992045E+03  0.00000000000E+00 0.  1.
         21   -1    0    0  502  503 -0.00000000000E+00 -0.00000000000E+00 -0.12098343547E+03  0.12098343547E+03  0.00000000000E+00 0.  1.
         25    1    1    2    0    0 -0.19712708611E+03  0.67840548327E+02  0.16919723270E+03  0.29616571650E+03  0.12500000000E+03 0.  0.
          4    1    1    2  501    0  0.26290388737E+03 -0.83786305856E+02  0.35512452623E+03  0.44972439135E+03  0.00000000000E+00 0.  1.
         -4    1    1    2    0  503 -0.65776801264E+02  0.15945757529E+02  0.10208472605E+03  0.12248324808E+03  0.00000000000E+00 0. -1.
<mgrwt>
<rscale>  4 0.26456537E+03</rscale>
<asrwt>0</asrwt>
<pdfrwt beam="1">  1       21 0.11498306E+00 0.26456537E+03</pdfrwt>
<pdfrwt beam="2">  1       21 0.18612837E-01 0.26456537E+03</pdfrwt>
<totfact> 0.14835053E+04</totfact>
</mgrwt>
</event>
<event>
 5    0  0.1972558E-002  0.2694323E+03  0.7546771E-02  0.1101605E+00
         21   -1    0    0  501  502  0.00000000000E+00  0.00000000000E+00  0.35526167790E+03  0.35526167790E+03  0.00000000000E+00 0.  1.
         21   -1    0    0  502  503 -0.00000000000E+00 -0.00000000000E+00 -0.29062197607E+03  0.29062197607E+03  0.00000000000E+00 0.  1.
         25    1    1    2    0    0 -0.23650447390E+03  0.91517192066E+02 -0.66508466890E+02  0.29044472587E+03  0.12500000000E+03 0.  0.
          1    1    1    2  501    0  0.32534450167E+02  0.39221337289E+00  0.12760710464E+03  0.13168985319E+03  0.00000000000E+00 0. -1.
         -1    1    1    2    0  503  0.20397002374E+03 -0.91909405439E+02  0.35410640843E+01  0.22374907492E+03  0.00000000000E+00 0.  1.
<mgrwt>
<rscale>  4 0.26943233E+03</rscale>
<asrwt>0</asrwt>
<pdfrwt beam="1">  1       21 0.54655643E-01 0.26943233E+03</pdfrwt>
<pdfrwt beam="2">  1       21 0.44711073E-01 0.26943233E+03</pdfrwt>
<totfact> 0.14541965E+04</totfact>
</mgrwt>
</event>
<event>
 5    0  0.1972558E-002  0.2532343E+03  0.7546771E-02  0.1111278E+00
         21   -1    0    0  501  502  0.00000000000E+00  0.00000000000E+00  0.67600299650E+03  0.67600299650E+03  0.00000000000E+00 0. -1.
         21   -1    0    0  502  503 -0.00000000000E+00 -0.00000000000E+00 -0.94026823971E+03  0.94026823971E+03  0.00000000000E+00 0. -1.
         25    1    1    2    0    0 -0.20630433819E+03  0.70815152676E+02 -0.86458316097E+03  0.90039175254E+03  0.12500000000E+03 0.  0.
          2    1    1    2  501    0 -0.55238101057E+02 -0.39589974670E+02  0.33571315288E+03  0.34252289693E+03  0.00000000000E+00 0.  1.
         -2    1    1    2    0  503  0.26154243924E+03 -0.31225178006E+02  0.26460476488E+03  0.37335658674E+03  0.00000000000E+00 0. -1.
<mgrwt>
<rscale>  4 0.25323431E+03</rscale>
<asrwt>0</asrwt>
<pdfrwt beam="1">  1       21 0.10400046E+00 0.25323431E+03</pdfrwt>
<pdfrwt beam="2">  1       21 0.14465665E+00 0.25323431E+03</pdfrwt>
<totfact> 0.22989477E+02</totfact>
</mgrwt>
</event>
<event>
 5    0  0.1972558E-002  0.2092654E+03  0.7546771E-02  0.1142149E+00
         21   -1    0    0  503  502  0.00000000000E+00  0.00000000000E+00  0.20878784188E+03  0.20878784188E+03  0.00000000000E+00 0.  1.
         21   -1    0    0  501  503 -0.00000000000E+00 -0.00000000000E+00 -0.53440061615E+03  0.53440061615E+03  0.00000000000E+00 0.  1.
         25    1    1    2    0    0 -0.18740117675E+02  0.23933663671E+03 -0.27494736247E+03  0.38581636799E+03  0.12500000000E+03 0.  0.
          1    1    1    2  501    0 -0.10103627387E+03 -0.12775630919E+03 -0.93971270340E+02  0.18804415127E+03  0.00000000000E+00 0. -1.
         -1    1    1    2    0  502  0.11977639155E+03 -0.11158032752E+03  0.43305858540E+02  0.16932793876E+03  0.00000000000E+00 0.  1.
<mgrwt>
<rscale>  4 0.20926540E+03</rscale>
<asrwt>0</asrwt>
<pdfrwt beam="1">  1       21 0.32121206E-01 0.20926540E+03</pdfrwt>
<pdfrwt beam="2">  1       21 0.82215480E-01 0.20926540E+03</pdfrwt>
<totfact> 0.11919812E+04</totfact>
</mgrwt>
</event>
<event>
 5    0  0.1972558E-002  0.3118065E+03  0.7546771E-02  0.1079483E+00
         21   -1    0    0  501  502  0.00000000000E+00  0.00000000000E+00  0.26642654383E+03  0.26642654383E+03  0.00000000000E+00 0.  1.
         21   -1    0    0  502  503 -0.00000000000E+00 -0.00000000000E+00 -0.72740712787E+03  0.72740712787E+03  0.00000000000E+00 0.  1.
         25    1    1    2    0    0  0.28015672886E+03 -0.66274230337E+02 -0.42605632036E+03  0.52917771538E+03  0.12500000000E+03 0.  0.
          4    1    1    2  501    0 -0.29361074177E+03 -0.60001957547E+02 -0.10751509998E+03  0.31838184514E+03  0.00000000000E+00 0.  1.
         -4    1    1    2    0  503  0.13454012910E+02  0.12627618788E+03  0.72590836293E+02  0.14627411119E+03  0.00000000000E+00 0. -1.
<mgrwt>
<rscale>  4 0.31180647E+03</rscale>
<asrwt>0</asrwt>
<pdfrwt beam="1">  1       21 0.40988700E-01 0.31180647E+03</pdfrwt>
<pdfrwt beam="2">  1       21 0.11190879E+00 0.31180647E+03</pdfrwt>
<totfact> 0.33138518E+03</totfact>
</mgrwt>
</event>
<event>
 5    0  0.1972558E-002  0.2782211E+03  0.7546771E-02  0.1096665E+00
         21   -1    0    0  501  502  0.00000000000E+00  0.00000000000E+00  0.91438601500E+03  0.91438601500E+03  0.00000000000E+00 0. -1.
         21   -1    0    0  502  503 -0.00000000000E+00 -0.00000000000E+00 -0.22168640455E+03  0.22168640455E+03  0.00000000000E+00 0.  1.
         25    1    1    2    0    0 -0.15668696650E+03  0.19295386932E+03 -0.10262693642E+03  0.29654559385E+03  0.12500000000E+03 0.  0.
          3    1    1    2  501    0  0.98082133283E+02 -0.14385017689E+03  0.67395624904E+03  0.69608189453E+03  0.00000000000E+00 0. -1.
         -3    1    1    2    0  503  0.58604833217E+02 -0.49103692422E+02  0.12137029782E+03  0.14344493117E+03  0.00000000000E+00 0.  1.
<mgrwt>
<rscale>  4 0.27822114E+03</rscale>
<asrwt>0</asrwt>
<pdfrwt beam="1">  1       21 0.14067477E+00 0.27822114E+03</pdfrwt>
<pdfrwt beam="2">  1       21 0.34105601E-01 0.27822114E+03</pdfrwt>
<totfact> 0.27420435E+03</totfact>
</mgrwt>
</event>
<event>
 5    0  0.1972558E-002  0.2491017E+03  0.7546771E-02  0.1113874E+00
         21   -1    0    0  501  502  0.00000000000E+00  0.00000000000E+00  0.13204348201E+04  0.13204348201E+04  0.00000000000E+00 0.  1.
         21   -1    0    0  502  503 -0.00000000000E+00 -0.00000000000E+00 -0.17942910308E+03  0.17942910308E+03  0.00000000000E+00 0. -1.
         25    1    1    2    0    0 -0.94716398849E+02 -0.19657001590E+03 -0.61856897991E+02  0.25896378741E+03  0.12500000000E+03 0.  0.
          1    1    1    2  501    0  0.10441483101E+03  0.17210982171E+03  0.52112763050E+03  0.55865754711E+03  0.00000000000E+00 0.  1.
         -1    1    1    2    0  503 -0.96984321633E+01  0.24460194186E+02  0.68173498453E+03  0.68224258869E+03  0.00000000000E+00 0. -1.
<mgrwt>
<rscale>  4 0.24910169E+03</rscale>
<asrwt>0</asrwt>
<pdfrwt beam="1">  1       21 0.20314381E+00 0.24910169E+03</pdfrwt>
<pdfrwt beam="2">  1       21 0.27604478E-01 0.24910169E+03</pdfrwt>
<totfact> 0.15205472E+03</totfact>
</mgrwt>
</event>
<event>
 5    0  0.1972558E-002  0.3436891E+03  0.7546771E-02  0.1065235E+00
         21   -1    0    0  501  502  0.00000000000E+00  0.00000000000E+00  0.11263223348E+03  0.11263223348E+03  0.00000000000E+00 0. -1.
         21   -1    0    0  502  503 -0.00000000000E+00 -0.00000000000E+00 -0.10389783604E+04  0.10389783604E+04  0.00000000000E+00 0.  1.
         25    1    1    2    0    0 -0.22615747905E+03  0.22660535490E+03 -0.54594183095E+03  0.64511601668E+03  0.12500000000E+03 0.  0.
          1    1    1    2  501    0  0.12600249463E+03 -0.18864405302E+03 -0.27042925933E+03  0.35298044095E+03  0.00000000000E+00 0.  1.
         -1    1    1    2    0  503  0.10015498441E+03 -0.37961301879E+02 -0.10997503660E+03  0.15351413622E+03  0.00000000000E+00 0. -1.
<mgrwt>
<rscale>  4 0.34368909E+03</rscale>
<asrwt>0</asrwt>
<pdfrwt beam="1">  1       21 0.17328035E-01 0.34368909E+03</pdfrwt>
<pdfrwt beam="2">  1       21 0.15984283E+00 0.34368909E+03</pdfrwt>
<totfact> 0.69287634E+03</totfact>
</mgrwt>
</event>
<event>
 5    0  0.1972558E-002  0.3635391E+03  0.7546771E-02  0.1057191E+00
         21   -1    0    0  501  502  0.00000000000E+00  0.00000000000E+00  0.14302029808E+03  0.14302029808E+03  0.00000000000E+00 0.  1.
         21   -1    0    0  502  503 -0.00000000000E+00 -0.00000000000E+00 -0.97723573010E+03  0.97723573010E+03  0.00000000000E+00 0. -1.
         25    1    1    2    0    0  0.31045825887E+03  0.14195538133E+03 -0.55932983714E+03  0.66709109386E+03  0.12500000000E+03 0.  0.
          4    1    1    2  501    0 -0.99022840975E+02 -0.55293214987E+02 -0.28119560084E+02  0.11684850156E+03  0.00000000000E+00 0. -1.
         -4    1    1    2    0  503 -0.21143541789E+03 -0.86662166346E+02 -0.24676603479E+03  0.33631643276E+03  0.00000000000E+00 0.  1.
<mgrwt>
<rscale>  4 0.36353908E+03</rscale>
<asrwt>0</asrwt>
<pdfrwt beam="1">  1       21 0.22003122E-01 0.36353908E+03</pdfrwt>
<pdfrwt beam="2">  1       21 0.15034397E+00 0.36353908E+03</pdfrwt>
<totfact> 0.51682637E+03</totfact>
</mgrwt>
</event>
<event>
 5    0  0.1972558E-002  0.2397377E+03  0.7546771E-02  0.1119968E+00
         21   -1    0    0  501  502  0.00000000000E+00  0.00000000000E+00  0.15182051208E+03  0.15182051208E+03  0.00000000000E+00 0. -1.
         21   -1    0    0  502  503 -0.00000000000E+00 -0.00000000000E+00 -0.82270808322E+03  0.82270808322E+03  0.00000000000E+00 0.  1.
         25    1    1    2    0    0 -0.13055749046E+03 -0.18515593210E+03 -0.35015013632E+03  0.43538270001E+03  0.12500000000E+03 0.  0.
          2    1    1    2  501    0  0.12861348311E+02  0.31781363266E+02  0.83933267388E+02  0.90665664426E+02  0.00000000000E+00 0. -1.
         -2    1    1    2    0  503  0.11769614215E+03  0.15337456883E+03 -0.40467070221E+03  0.44848023086E+03  0.00000000000E+00 0.  1.
<mgrwt>
<rscale>  4 0.23973772E+03</rscale>
<asrwt>0</asrwt>
<pdfrwt beam="1">  1       21 0.23357002E-01 0.23973772E+03</pdfrwt>
<pdfrwt beam="2">  1       21 0.12657047E+00 0.23973772E+03</pdfrwt>
<totfact> 0.77102765E+03</totfact>
</mgrwt>
</event>
<event>
 5    0  0.1972558E-002  0.3004329E+03  0.7546771E-02  0.1085024E+00
         21   -1    0    0  501  502  0.00000000000E+00  0.00000000000E+00  0.93493310430E+03  0.93493310430E+03  0.00000000000E+00 0.  1.
         21   -1    0    0  502  503 -0.00000000000E+00 -0.00000000000E+00 -0.33442180810E+03  0.33442180810E+03  0.00000000000E+00 0.  1.
         25    1    1    2    0    0  0.59466488940E+02 -0.27772127780E+03 -0.17418683166E+03  0.35585309297E+03  0.12500000000E+03 0.  0.
          3    1    1    2  501    0 -0.13775382752E+02  0.35111614203E+02  0.62216292949E+03  0.62330513992E+03  0.00000000000E+00 0.  1.
         -3    1    1    2    0  503 -0.45691106188E+02  0.24260966360E+03  0.15253519837E+03  0.29019667951E+03  0.00000000000E+00 0. -1.
<mgrwt>
<rscale>  4 0.30043293E+03</rscale>
<asrwt>0</asrwt>
<pdfrwt beam="1">  1       21 0.14383586E+00 0.30043293E+03</pdfrwt>
<pdfrwt beam="2">  1       21 0.51449509E-01 0.30043293E+03</pdfrwt>
<totfact> 0.10957158E+03</totfact>
</mgrwt>
</event>
<event>
 5    0  0.1972558E-002  0.2346007E+03  0.7546771E-02  0.1123443E+00
         21   -1    0    0  501  502  0.00000000000E+00  0.00000000000E+00  0.17385321823E+04  0.17385321823E+04  0.00000000000E+00 0.  1.
         21   -1    0    0  502  503 -0.00000000000E+00 -0.00000000000E+00 -0.95527020378E+02  0.95527020378E+02  0.00000000000E+00 0. -1.
         25    1    1    2    0    0  0.78982272233E+01 -0.19986007793E+03  0.74251515797E+02  0.24727458491E+03  0.12500000000E+03 0.  0.
          4    1    1    2  501    0  0.43651415054E+02  0.16042245170E+02  0.25072006820E+03  0.25499676913E+03  0.00000000000E+00 0. -1.
         -4    1    1    2    0  503 -0.51549642277E+02  0.18381783276E+03  0.13180335779E+04  0.13317878486E+04  0.00000000000E+00 0.  1.
<mgrwt>
<rscale>  4 0.23460071E+03</rscale>
<asrwt>0</asrwt>
<pdfrwt beam="1">  1       21 0.26746647E+00 0.23460071E+03</pdfrwt>
<pdfrwt beam="2">  1       21 0.14696466E-01 0.23460071E+03</pdfrwt>
<totfact> 0.20450149E+03</totfact>
</mgrwt>
</event>
<event>
 5    0  0.1972558E-002  0.4051919E+03  0.7546771E-02  0.1041997E+00
         21   -1    0    0  501  502  0.00000000000E+00  0.00000000000E+00  0.19568495611E+03  0.19568495611E+03  0.00000000000E+00 0.  1.
         21   -1    0    0  502  503 -0.00000000000E+00 -0.00000000000E+00 -0.11500339524E+04  0.11500339524E+04  0.00000000000E+00 0. -1.
         25    1    1    2    0    0  0.88859147047E+02  0.30614848120E+03 -0.20507819439E+03  0.39913018724E+03  0.12500000000E+03 0.  0.
          2    1    1    2  501    0  0.80420206326E+02  0.87105052644E+02 -0.54466608402E+02  0.13046574728E+03  0.00000000000E+00 0. -1.
         -2    1    1    2    0  503 -0.16927935337E+03 -0.39325353385E+03 -0.69480419355E+03  0.81612297403E+03  0.00000000000E+00 0.  1.
<mgrwt>
<rscale>  4 0.40519193E+03</rscale>
<asrwt>0</asrwt>
<pdfrwt beam="1">  1       21 0.30105378E-01 0.40519193E+03</pdfrwt>
<pdfrwt beam="2">  1       21 0.17692830E+00 0.40519193E+03</pdfrwt>
<totfact> 0.17489839E+03</totfact>
</mgrwt>
</event>
<event>
 5    0  0.1972558E-002  0.2781462E+03  0.7546771E-02  0.1096706E+00
         21   -1    0    0  501  502  0.00000000000E+00  0.00000000000E+00  0.18371698092E+03  0.18371698092E+03  0.00000000000E+00 0. -1.
         21   -1    0    0  502  503 -0.00000000000E+00 -0.00000000000E+00 -0.49658282651E+03  0.49658282651E+03  0.00000000000E+00 0. -1.
         25    1    1    2    0    0  0.16984317992E+03  0.17844201411E+03 -0.83718531722E+02  0.28865559188E+03  0.12500000000E+03 0.  0.
          4    1    1    2  501    0 -0.18627352252E+03 -0.16643747988E+03 -0.25617975071E+03  0.35780906161E+03  0.00000000000E+00 0. -1.
         -4    1    1    2    0  503  0.16430342601E+02 -0.12004534236E+02  0.27032436837E+02  0.33835153931E+02  0.00000000000E+00 0.  1.
<mgrwt>
<rscale>  4 0.27814616E+03</rscale>
<asrwt>0</asrwt>
<pdfrwt beam="1">  1       21 0.28264151E-01 0.27814616E+03</pdfrwt>
<pdfrwt beam="2">  1       21 0.76397357E-01 0.27814616E+03</pdfrwt>
<totfact> 0.17437972E+04</totfact>
</mgrwt>
</event>
<event>
 5    0  0.1972558E-002  0.4641232E+03  0.7546771E-02  0.1024293E+00
         21   -1    0    0  501  502  0.00000000000E+00  0.00000000000E+00  0.64141542624E+03  0.64141542624E+03  0.00000000000E+00 0.  1.
         21   -1    0    0  502  503 -0.00000000000E+00 -0.00000000000E+00 -0.67709494233E+03  0.67709494233E+03  0.00000000000E+00 0. -1.
         25    1    1    2    0    0 -0.40423751021E+03 -0.16583109839E+03 -0.49050912359E+03  0.66867938370E+03  0.12500000000E+03 0.  0.
          1    1    1    2  501    0  0.15327081977E+03  0.18701662757E+02  0.25072942973E+03  0.29446042742E+03  0.00000000000E+00 0. -1.
         -1    1    1    2    0  503  0.25096669044E+03  0.14712943564E+03  0.20410017777E+03  0.35537055746E+03  0.00000000000E+00 0.  1.
<mgrwt>
<rscale>  4 0.46168803E+03</rscale>
<asrwt>0</asrwt>
<pdfrwt beam="1">  1       21 0.98679296E-01 0.46412319E+03</pdfrwt>
<pdfrwt beam="2">  1       21 0.10416845E+00 0.46412319E+03</pdfrwt>
<totfact> 0.52529947E+02</totfact>
</mgrwt>
</event>
<event>
 5    0  0.1972558E-002  0.3343943E+03  0.7546771E-02  0.1069209E+00
         21   -1    0    0  501  502  0.00000000000E+00  0.00000000000E+00  0.46960925485E+03  0.46960925485E+03  0.00000000000E+00 0. -1.
         21   -1    0    0  502  503 -0.00000000000E+00 -0.00000000000E+00 -0.41229874760E+03  0.41229874760E+03  0.00000000000E+00 0.  1.
         25    1    1    2    0    0  0.83963142886E+02 -0.30091414312E+03 -0.16684986377E+03  0.37558355653E+03  0.12500000000E+03 0.  0.
          4    1    1    2  501    0  0.17654354214E+02  0.11287667543E+02  0.19708600330E+03  0.19819682227E+03  0.00000000000E+00 0.  1.
         -4    1    1    2    0  503 -0.10161749710E+03  0.28962647558E+03  0.27074367723E+02  0.30812762366E+03  0.00000000000E+00 0. -1.
<mgrwt>
<rscale>  4 0.33439434E+03</rscale>
<asrwt>0</asrwt>
<pdfrwt beam="1">  1       21 0.72247578E-01 0.33439434E+03</pdfrwt>
<pdfrwt beam="2">  1       21 0.63430576E-01 0.33439434E+03</pdfrwt>
<totfact> 0.36343356E+03</totfact>
</mgrwt>
</event>
<event>
 5    0  0.1972558E-002  0.2445566E+03  0.7546771E-02  0.1116794E+00
         21   -1    0    0  501  502  0.00000000000E+00  0.00000000000E+00  0.98046629730E+02  0.98046629730E+02  0.00000000000E+00 0.  1.
         21   -1    0    0  502  503 -0.00000000000E+00 -0.00000000000E+00 -0.78804479156E+03  0.78804479156E+03  0.00000000000E+00 0. -1.
         25    1    1    2    0    0 -0.20307714681E+03  0.38475884630E+02 -0.23184197238E+03  0.33480803666E+03  0.12500000000E+03 0.  0.
          4    1    1    2  501    0 -0.13385631378E+02 -0.53722912181E+02 -0.22936171262E+03  0.23594940483E+03  0.00000000000E+00 0. -1.
         -4    1    1    2    0  503  0.21646277819E+03  0.15247027552E+02 -0.22879447683E+03  0.31533397980E+03  0.00000000000E+00 0.  1.
<mgrwt>
<rscale>  4 0.24455659E+03</rscale>
<asrwt>0</asrwt>
<pdfrwt beam="1">  1       21 0.15084097E-01 0.24455659E+03</pdfrwt>
<pdfrwt beam="2">  1       21 0.12123766E+00 0.24455659E+03</pdfrwt>
<totfact> 0.19387104E+04</totfact>
</mgrwt>
</event>
<event>
 5    0  0.1972558E-002  0.2715962E+03  0.7546771E-02  0.1100370E+00
         21   -1    0    0  501  502  0.00000000000E+00  0.00000000000E+00  0.48365487801E+03  0.48365487801E+03  0.00000000000E+00 0.  1.
         21   -1    0    0  502  503 -0.00000000000E+00 -0.00000000000E+00 -0.33541008433E+03  0.33541008433E+03  0.00000000000E+00 0. -1.
         25    1    1    2    0    0  0.18306738092E+03 -0.15662242829E+03 -0.16940518329E+03  0.31994900707E+03  0.12500000000E+03 0.  0.
          4    1    1    2  501    0 -0.18031985744E+02 -0.21260314355E+02  0.24392559304E+03  0.24551343837E+03  0.00000000000E+00 0.  1.
         -4    1    1    2    0  503 -0.16503539518E+03  0.17788274265E+03  0.73724383924E+02  0.25360251690E+03  0.00000000000E+00 0. -1.
<mgrwt>
<rscale>  4 0.27159622E+03</rscale>
<asrwt>0</asrwt>
<pdfrwt beam="1">  1       21 0.74408443E-01 0.27159622E+03</pdfrwt>
<pdfrwt beam="2">  1       21 0.51601551E-01 0.27159622E+03</pdfrwt>
<totfact> 0.54792541E+03</totfact>
</mgrwt>
</event>
<event>
 5    0  0.1972558E-002  0.2921332E+03  0.7546771E-02  0.1089241E+00
         21   -1    0    0  501  502  0.00000000000E+00  0.00000000000E+00  0.10312082137E+04  0.10312082137E+04  0.00000000000E+00 0. -1.
         21   -1    0    0  502  503 -0.00000000000E+00 -0.00000000000E+00 -0.19036112237E+03  0.19036112237E+03  0.00000000000E+00 0.  1.
         25    1    1    2    0    0  0.26021057666E+03 -0.13118014987E+03  0.39076482322E+02  0.31948356357E+03  0.12500000000E+03 0.  0.
          1    1    1    2  501    0 -0.21713693338E+03  0.61413317683E+02  0.22201427547E+03  0.31656023430E+03  0.00000000000E+00 0.  1.
         -1    1    1    2    0  503 -0.43073643278E+02  0.69766832182E+02  0.57975633358E+03  0.58552553825E+03  0.00000000000E+00 0. -1.
<mgrwt>
<rscale>  4 0.29213318E+03</rscale>
<asrwt>0</asrwt>
<pdfrwt beam="1">  1       21 0.15864741E+00 0.29213318E+03</pdfrwt>
<pdfrwt beam="2">  1       21 0.29286327E-01 0.29213318E+03</pdfrwt>
<totfact> 0.26651840E+03</totfact>
</mgrwt>
</event>
<event>
 5    0  0.1972558E-002  0.2743459E+03  0.7546771E-02  0.1098818E+00
         21   -1    0    0  501  502  0.00000000000E+00  0.00000000000E+00  0.46714107508E+03  0.46714107508E+03  0.00000000000E+00 0. -1.
         21   -1    0    0  502  503 -0.00000000000E+00 -0.00000000000E+00 -0.64971732550E+03  0.64971732550E+03  0.00000000000E+00 0. -1.
         25    1    1    2    0    0  0.16782552754E+01 -0.25031036938E+03 -0.45877507972E+03  0.53736176951E+03  0.12500000000E+03 0.  0.
          4    1    1    2  501    0 -0.26016224407E+02  0.22989787239E+03 -0.62223840220E+02  0.23958648115E+03  0.00000000000E+00 0.  1.
         -4    1    1    2    0  503  0.24337969132E+02  0.20412496996E+02  0.33842266951E+03  0.33991014992E+03  0.00000000000E+00 0. -1.
<mgrwt>
<rscale>  4 0.27434592E+03</rscale>
<asrwt>0</asrwt>
<pdfrwt beam="1">  1       21 0.71867857E-01 0.27434592E+03</pdfrwt>
<pdfrwt beam="2">  1       21 0.99956512E-01 0.27434592E+03</pdfrwt>
<totfact> 0.13437270E+03</totfact>
</mgrwt>
</event>
<event>
 5    0  0.1972558E-002  0.2310811E+03  0.7546771E-02  0.1125881E+00
         21   -1    0    0  501  502  0.00000000000E+00  0.00000000000E+00  0.49976600775E+02  0.49976600775E+02  0.00000000000E+00 0.  1.
         21   -1    0    0  502  503 -0.00000000000E+00 -0.00000000000E+00 -0.18997431648E+04  0.18997431648E+04  0.00000000000E+00 0.  1.
         25    1    1    2    0    0 -0.11896853517E+03  0.16351097797E+03 -0.12705915314E+04  0.12926396218E+04  0.12500000000E+03 0.  0.
          3    1    1    2  501    0  0.14005198382E+03 -0.12332814559E+03 -0.58242015765E+03  0.61158615886E+03  0.00000000000E+00 0.  1.
         -3    1    1    2    0  503 -0.21083448657E+02 -0.40182832372E+02  0.32451250170E+01  0.45493984889E+02  0.00000000000E+00 0. -1.
<mgrwt>
<rscale>  4 0.23108113E+03</rscale>
<asrwt>0</asrwt>
<pdfrwt beam="1">  1       21 0.76887074E-02 0.23108113E+03</pdfrwt>
<pdfrwt beam="2">  1       21 0.29226820E+00 0.23108113E+03</pdfrwt>
<totfact> 0.46675042E+03</totfact>
</mgrwt>
</event>
<event>
 5    0  0.2035340E-002  0.3063038E+03  0.7546771E-02  0.1082131E+00
         21   -1    0    0  503  502  0.00000000000E+00  0.00000000000E+00  0.12433410870E+04  0.12433410870E+04  0.00000000000E+00 0. -1.
         21   -1    0    0  501  503 -0.00000000000E+00 -0.00000000000E+00 -0.21884852659E+03  0.21884852659E+03  0.00000000000E+00 0.  1.
         25    1    1    2    0    0 -0.18550980877E+03 -0.18115505269E+03 -0.13726264483E+02  0.28817434411E+03  0.12500000000E+03 0.  0.
          3    1    1    2  501    0  0.20618039381E+02 -0.48262383904E+02 -0.35753069864E+02  0.63503096403E+02  0.00000000000E+00 0.  1.
         -3    1    1    2    0  502  0.16489176939E+03  0.22941743659E+03  0.10739718948E+04  0.11105121731E+04  0.00000000000E+00 0. -1.
<mgrwt>
<rscale>  4 0.30630380E+03</rscale>
<asrwt>0</asrwt>
<pdfrwt beam="1">  1       21 0.19128324E+00 0.30630380E+03</pdfrwt>
<pdfrwt beam="2">  1       21 0.33669005E-01 0.30630380E+03</pdfrwt>
<totfact> 0.11786150E+03</totfact>
</mgrwt>
</event>
<event>
 5    0  0.1972558E-002  0.3147060E+03  0.7546771E-02  0.1078112E+00
         21   -1    0    0  501  502  0.00000000000E+00  0.00000000000E+00  0.41791360555E+03  0.41791360555E+03  0.00000000000E+00 0. -1.
         21   -1    0    0  502  503 -0.00000000000E+00 -0.00000000000E+00 -0.42856215523E+03  0.42856215523E+03  0.00000000000E+00 0.  1.
         25    1    1    2    0    0 -0.19318120786E+03 -0.22172836349E+03 -0.24439853023E+03  0.40229104865E+03  0.12500000000E+03 0.  0.
          1    1    1    2  501    0  0.23943157966E+02  0.25566575953E+01  0.15421184774E+03  0.15608044494E+03  0.00000000000E+00 0.  1.
         -1    1    1    2    0  503  0.16923804990E+03  0.21917170589E+03  0.79538132819E+02  0.28810426719E+03  0.00000000000E+00 0. -1.
<mgrwt>
<rscale>  4 0.31470597E+03</rscale>
<asrwt>0</asrwt>
<pdfrwt beam="1">  1       21 0.64294401E-01 0.31470597E+03</pdfrwt>
<pdfrwt beam="2">  1       21 0.65932640E-01 0.31470597E+03</pdfrwt>
<totfact> 0.43671889E+03</totfact>
</mgrwt>
</event>
<event>
 5    0  0.1972558E-002  0.3238202E+03  0.7546771E-02  0.1073904E+00
         21   -1    0    0  501  502  0.00000000000E+00  0.00000000000E+00  0.55116212625E+03  0.55116212625E+03  0.00000000000E+00 0. -1.
         21   -1    0    0  502  503 -0.00000000000E+00 -0.00000000000E+00 -0.55208757429E+03  0.55208757429E+03  0.00000000000E+00 0.  1.
         25    1    1    2    0    0  0.27168350772E+03 -0.12977789698E+03 -0.44332207025E+03  0.55028509782E+03  0.12500000000E+03 0.  0.
          2    1    1    2  501    0 -0.27113563835E+03  0.81016372012E+02  0.37732402187E+03  0.47164775457E+03  0.00000000000E+00 0. -1.
         -2    1    1    2    0  503 -0.54786936873E+00  0.48761524967E+02  0.65072600337E+02  0.81316848147E+02  0.00000000000E+00 0.  1.
<mgrwt>
<rscale>  4 0.32382021E+03</rscale>
<asrwt>0</asrwt>
<pdfrwt beam="1">  1       21 0.84794173E-01 0.32382021E+03</pdfrwt>
<pdfrwt beam="2">  1       21 0.84936550E-01 0.32382021E+03</pdfrwt>
<totfact> 0.13122021E+03</totfact>
</mgrwt>
</event>
<event>
 5    0  0.1972558E-002  0.2450150E+03  0.7546771E-02  0.1116496E+00
         21   -1    0    0  501  502  0.00000000000E+00  0.00000000000E+00  0.68406905854E+03  0.68406905854E+03  0.00000000000E+00 0. -1.
         21   -1    0    0  502  503 -0.00000000000E+00 -0.00000000000E+00 -0.16096233623E+03  0.16096233623E+03  0.00000000000E+00 0.  1.
         25    1    1    2    0    0 -0.18895791873E+03 -0.12528563201E+03  0.25767201577E+02  0.26017404428E+03  0.12500000000E+03 0.  0.
          3    1    1    2  501    0  0.53834099768E+02 -0.66466362679E+01  0.32402025374E+03  0.32852916599E+03  0.00000000000E+00 0. -1.
         -3    1    1    2    0  503  0.13512381896E+03  0.13193226828E+03  0.17331926699E+03  0.25632818451E+03  0.00000000000E+00 0.  1.
<mgrwt>
<rscale>  4 0.24501498E+03</rscale>
<asrwt>0</asrwt>
<pdfrwt beam="1">  1       21 0.10524139E+00 0.24501498E+03</pdfrwt>
<pdfrwt beam="2">  1       21 0.24763437E-01 0.24501498E+03</pdfrwt>
<totfact> 0.10837691E+04</totfact>
</mgrwt>
</event>
<event>
 5    0  0.1972558E-002  0.2607669E+03  0.7546771E-02  0.1106683E+00
         21   -1    0    0  501  502  0.00000000000E+00  0.00000000000E+00  0.30736361527E+03  0.30736361527E+03  0.00000000000E+00 0. -1.
         21   -1    0    0  502  503 -0.00000000000E+00 -0.00000000000E+00 -0.58341041995E+03  0.58341041995E+03  0.00000000000E+00 0. -1.
         25    1    1    2    0    0  0.11291944771E+03 -0.20402345952E+03 -0.44931830888E+03  0.52142910966E+03  0.12500000000E+03 0.  0.
          3    1    1    2  501    0 -0.84273385236E+02 -0.17660680708E+02  0.10465437665E+03  0.13552284551E+03  0.00000000000E+00 0. -1.
         -3    1    1    2    0  503 -0.28646062471E+02  0.22168414023E+03  0.68617127560E+02  0.23382208005E+03  0.00000000000E+00 0.  1.
<mgrwt>
<rscale>  4 0.26076694E+03</rscale>
<asrwt>0</asrwt>
<pdfrwt beam="1">  1       21 0.47286710E-01 0.26076694E+03</pdfrwt>
<pdfrwt beam="2">  1       21 0.89755450E-01 0.26076694E+03</pdfrwt>
<totfact> 0.43104389E+03</totfact>
</mgrwt>
</event>
<event>
 5    0  0.1972558E-002  0.2554194E+03  0.7546771E-02  0.1109927E+00
         21   -1    0    0  501  502  0.00000000000E+00  0.00000000000E+00  0.15389384212E+03  0.15389384212E+03  0.00000000000E+00 0. -1.
         21   -1    0    0  502  503 -0.00000000000E+00 -0.00000000000E+00 -0.66458963151E+03  0.66458963151E+03  0.00000000000E+00 0. -1.
         25    1    1    2    0    0  0.20184092458E+03  0.27706767915E+02 -0.21253190440E+03  0.31984720448E+03  0.12500000000E+03 0.  0.
          2    1    1    2  501    0  0.30320238893E+02  0.98790244868E+01  0.61284414295E+02  0.69084668681E+02  0.00000000000E+00 0.  1.
         -2    1    1    2    0  503 -0.23216116347E+03 -0.37585792401E+02 -0.35944829927E+03  0.42955160047E+03  0.00000000000E+00 0. -1.
<mgrwt>
<rscale>  4 0.25541938E+03</rscale>
<asrwt>0</asrwt>
<pdfrwt beam="1">  1       21 0.23675976E-01 0.25541938E+03</pdfrwt>
<pdfrwt beam="2">  1       21 0.10224456E+00 0.25541938E+03</pdfrwt>
<totfact> 0.12592179E+04</totfact>
</mgrwt>
</event>
<event>
 5    0  0.1972558E-002  0.3211024E+03  0.7546771E-02  0.1075143E+00
         21   -1    0    0  503  502  0.00000000000E+00  0.00000000000E+00  0.74001188260E+02  0.74001188260E+02  0.00000000000E+00 0. -1.
         21   -1    0    0  501  503 -0.00000000000E+00 -0.00000000000E+00 -0.24054331625E+04  0.24054331625E+04  0.00000000000E+00 0. -1.
         25    1    1    2    0    0 -0.26184002568E+03 -0.13999545803E+03 -0.19691220540E+04  0.19953008773E+04  0.12500000000E+03 0.  0.
          1    1    1    2  501    0 -0.78796400223E+01  0.27970536606E+02 -0.32833341388E+02  0.43845957073E+02  0.00000000000E+00 0.  1.
         -1    1    1    2    0  502  0.26971966570E+03  0.11202492142E+03 -0.32947657882E+03  0.44028751638E+03  0.00000000000E+00 0. -1.
<mgrwt>
<rscale>  4 0.32110235E+03</rscale>
<asrwt>0</asrwt>
<pdfrwt beam="1">  1       21 0.11384801E-01 0.32110235E+03</pdfrwt>
<pdfrwt beam="2">  1       21 0.37006654E+00 0.32110235E+03</pdfrwt>
<totfact> 0.73798454E+02</totfact>
</mgrwt>
</event>
<event>
 5    0  0.1972558E-002  0.2883921E+03  0.7546771E-02  0.1091192E+00
         21   -1    0    0  501  502  0.00000000000E+00  0.00000000000E+00  0.19089839647E+04  0.19089839647E+04  0.00000000000E+00 0. -1.
         21   -1    0    0  502  503 -0.00000000000E+00 -0.00000000000E+00 -0.11583045531E+03  0.11583045531E+03  0.00000000000E+00 0. -1.
         25    1    1    2    0    0  0.26070110757E+03  0.58389706941E+02  0.12107019545E+03  0.31883760379E+03  0.12500000000E+03 0.  0.
          4    1    1    2  501    0 -0.21608759866E+03  0.80972655201E+01  0.15077287959E+04  0.15231564391E+04  0.00000000000E+00 0. -1.
         -4    1    1    2    0  503 -0.44613508919E+02 -0.66486972461E+02  0.16435451807E+03  0.18282037714E+03  0.00000000000E+00 0.  1.
<mgrwt>
<rscale>  4 0.28839212E+03</rscale>
<asrwt>0</asrwt>
<pdfrwt beam="1">  1       21 0.29368982E+00 0.28839212E+03</pdfrwt>
<pdfrwt beam="2">  1       21 0.17820071E-01 0.28839212E+03</pdfrwt>
<totfact> 0.95651265E+02</totfact>
</mgrwt>
</event>
<event>
 5    0  0.1972558E-002  0.2436087E+03  0.7546771E-02  0.1117412E+00
         21   -1    0    0  501  502  0.00000000000E+00  0.00000000000E+00  0.13685883350E+04  0.13685883350E+04  0.00000000000E+00 0. -1.
         21   -1    0    0  502  503 -0.00000000000E+00 -0.00000000000E+00 -0.24758503358E+03  0.24758503358E+03  0.00000000000E+00 0.  1.
         25    1    1    2    0    0  0.42050745677E+02 -0.20473757713E+03 -0.16369259082E+03  0.29343824732E+03  0.12500000000E+03 0.  0.
          1    1    1    2  501    0 -0.18659688576E+02  0.21025491531E+03  0.57314700038E+03  0.61078048220E+03  0.00000000000E+00 0.  1.
         -1    1    1    2    0  503 -0.23391057101E+02 -0.55173381750E+01  0.71154889183E+03  0.71195463903E+03  0.00000000000E+00 0. -1.
<mgrwt>
<rscale>  4 0.24360873E+03</rscale>
<asrwt>0</asrwt>
<pdfrwt beam="1">  1       21 0.21055205E+00 0.24360873E+03</pdfrwt>
<pdfrwt beam="2">  1       21 0.38090006E-01 0.24360873E+03</pdfrwt>
<totfact> 0.72461312E+02</totfact>
</mgrwt>
</event>
<event>
 5    0  0.1972558E-002  0.3262691E+03  0.7546771E-02  0.1072800E+00
         21   -1    0    0  503  502  0.00000000000E+00  0.00000000000E+00  0.99910453035E+03  0.99910453035E+03  0.00000000000E+00 0.  1.
         21   -1    0    0  501  503 -0.00000000000E+00 -0.00000000000E+00 -0.39469993453E+03  0.39469993453E+03  0.00000000000E+00 0.  1.
         25    1    1    2    0    0  0.24640115930E+03  0.18535885206E+03 -0.26844234725E+03  0.42750172999E+03  0.12500000000E+03 0.  0.
          3    1    1    2  501    0 -0.28013003065E+02 -0.31077247767E+02  0.52935743627E+03  0.53100830408E+03  0.00000000000E+00 0. -1.
         -3    1    1    2    0  502 -0.21838815624E+03 -0.15428160429E+03  0.34348950680E+03  0.43529443080E+03  0.00000000000E+00 0.  1.
<mgrwt>
<rscale>  4 0.32626907E+03</rscale>
<asrwt>0</asrwt>
<pdfrwt beam="1">  1       21 0.15370839E+00 0.32626907E+03</pdfrwt>
<pdfrwt beam="2">  1       21 0.60723067E-01 0.32626907E+03</pdfrwt>
<totfact> 0.63198514E+02</totfact>
</mgrwt>
</event>
<event>
 5    0  0.1972558E-002  0.3669587E+03  0.7546771E-02  0.1055862E+00
         21   -1    0    0  501  502  0.00000000000E+00  0.00000000000E+00  0.29456374865E+03  0.29456374865E+03  0.00000000000E+00 0. -1.
         21   -1    0    0  502  503 -0.00000000000E+00 -0.00000000000E+00 -0.14174039702E+04  0.14174039702E+04  0.00000000000E+00 0. -1.
         25    1    1    2    0    0 -0.41775278066E+03  0.23994651028E+02 -0.10819976006E+04  0.11668062979E+04  0.12500000000E+03 0.  0.
          4    1    1    2  501    0  0.23486690312E+03 -0.68017706092E+02 -0.18627578541E+03  0.30738825409E+03  0.00000000000E+00 0. -1.
         -4    1    1    2    0  503  0.18288587755E+03  0.44023055064E+02  0.14543316444E+03  0.23777316691E+03  0.00000000000E+00 0.  1.
<mgrwt>
<rscale>  4 0.36695868E+03</rscale>
<asrwt>0</asrwt>
<pdfrwt beam="1">  1       21 0.45317500E-01 0.36695868E+03</pdfrwt>
<pdfrwt beam="2">  1       21 0.21806215E+00 0.36695868E+03</pdfrwt>
<totfact> 0.41299259E+02</totfact>
</mgrwt>
</event>
<event>
 5    0  0.1972558E-002  0.2749098E+03  0.7546771E-02  0.1098502E+00
         21   -1    0    0  501  502  0.00000000000E+00  0.00000000000E+00  0.21003823095E+03  0.21003823095E+03  0.00000000000E+00 0. -1.
         21   -1    0    0  502  503 -0.00000000000E+00 -0.00000000000E+00 -0.74741551638E+03  0.74741551638E+03  0.00000000000E+00 0. -1.
         25    1    1    2    0    0 -0.10105704462E+03  0.22809541445E+03 -0.61162732255E+03  0.67227451688E+03  0.12500000000E+03 0.  0.
          3    1    1    2  501    0  0.17681121287E+02 -0.18060364032E+02  0.52362592301E+02  0.58143270216E+02  0.00000000000E+00 0.  1.
         -3    1    1    2    0  503  0.83375923334E+02 -0.21003505042E+03  0.21887444816E+02  0.22703596023E+03  0.00000000000E+00 0. -1.
<mgrwt>
<rscale>  4 0.27490978E+03</rscale>
<asrwt>0</asrwt>
<pdfrwt beam="1">  1       21 0.32313575E-01 0.27490978E+03</pdfrwt>
<pdfrwt beam="2">  1       21 0.11498700E+00 0.27490978E+03</pdfrwt>
<totfact> 0.51076413E+03</totfact>
</mgrwt>
</event>
<event>
 5    0  0.1972558E-002  0.1971106E+03  0.7546771E-02  0.1152200E+00
         21   -1    0    0  501  502  0.00000000000E+00  0.00000000000E+00  0.83901860581E+03  0.83901860581E+03  0.00000000000E+00 0.  1.
         21   -1    0    0  502  503 -0.00000000000E+00 -0.00000000000E+00 -0.28524744870E+03  0.28524744870E+03  0.00000000000E+00 0.  1.
         25    1    1    2    0    0  0.13656316385E+03  0.17878397392E+03 -0.16332190665E+03  0.30481511158E+03  0.12500000000E+03 0.  0.
          1    1    1    2  501    0 -0.43314103498E+02 -0.14403573191E+03  0.70304194159E+03  0.71895088515E+03  0.00000000000E+00 0.  1.
         -1    1    1    2    0  503 -0.93249060356E+02 -0.34748242012E+02  0.14051122166E+02  0.10050005778E+03  0.00000000000E+00 0. -1.
<mgrwt>
<rscale>  4 0.19711061E+03</rscale>
<asrwt>0</asrwt>
<pdfrwt beam="1">  1       21 0.12907978E+00 0.19711061E+03</pdfrwt>
<pdfrwt beam="2">  1       21 0.43884223E-01 0.19711061E+03</pdfrwt>
<totfact> 0.21864753E+03</totfact>
</mgrwt>
</event>
<event>
 5    0  0.1972558E-002  0.3255576E+03  0.7546771E-02  0.1073120E+00
         21   -1    0    0  503  502  0.00000000000E+00  0.00000000000E+00  0.28405643388E+03  0.28405643388E+03  0.00000000000E+00 0. -1.
         21   -1    0    0  501  503 -0.00000000000E+00 -0.00000000000E+00 -0.15857593280E+04  0.15857593280E+04  0.00000000000E+00 0.  1.
         25    1    1    2    0    0 -0.29842249619E+03 -0.46349318329E+02 -0.14503237459E+04  0.14866970819E+04  0.12500000000E+03 0.  0.
          1    1    1    2  501    0  0.10771279027E+02  0.31708471664E+02  0.80444192292E+02  0.87136190533E+02  0.00000000000E+00 0.  1.
         -1    1    1    2    0  502  0.28765121717E+03  0.14640846665E+02  0.68176659500E+02  0.29598248939E+03  0.00000000000E+00 0. -1.
<mgrwt>
<rscale>  4 0.32555760E+03</rscale>
<asrwt>0</asrwt>
<pdfrwt beam="1">  1       21 0.43700990E-01 0.32555760E+03</pdfrwt>
<pdfrwt beam="2">  1       21 0.24396297E+00 0.32555760E+03</pdfrwt>
<totfact> 0.31669026E+02</totfact>
</mgrwt>
</event>
<event>
 5    0  0.1972558E-002  0.2588366E+03  0.7546771E-02  0.1107844E+00
         21   -1    0    0  501  502  0.00000000000E+00  0.00000000000E+00  0.13706462683E+04  0.13706462683E+04  0.00000000000E+00 0.  1.
         21   -1    0    0  502  503 -0.00000000000E+00 -0.00000000000E+00 -0.60566892202E+03  0.60566892202E+03  0.00000000000E+00 0.  1.
         25    1    1    2    0    0  0.25213392301E+02  0.23142411825E+03 -0.47867896001E+03  0.54676446887E+03  0.12500000000E+03 0.  0.
          3    1    1    2  501    0  0.50658690452E+02 -0.34963145937E+02  0.12155192925E+04  0.12170767745E+04  0.00000000000E+00 0.  1.
         -3    1    1    2    0  503 -0.75872082753E+02 -0.19646097231E+03  0.28137013735E+02  0.21247394693E+03  0.00000000000E+00 0. -1.
<mgrwt>
<rscale>  4 0.25883655E+03</rscale>
<asrwt>0</asrwt>
<pdfrwt beam="1">  1       21 0.21086866E+00 0.25883655E+03</pdfrwt>
<pdfrwt beam="2">  1       21 0.93179834E-01 0.25883655E+03</pdfrwt>
<totfact> 0.10220256E+02</totfact>
</mgrwt>
</event>
<event>
 5    0  0.1972558E-002  0.3829499E+03  0.7546771E-02  0.1049849E+00
         21   -1    0    0  501  502  0.00000000000E+00  0.00000000000E+00  0.34276211150E+03  0.34276211150E+03  0.00000000000E+00 0. -1.
         21   -1    0    0  502  503 -0.00000000000E+00 -0.00000000000E+00 -0.62444016718E+03  0.62444016718E+03  0.00000000000E+00 0. -1.
         25    1    1    2    0    0  0.19630957845E+03  0.31004201156E+03 -0.33248069921E+03  0.51071705951E+03  0.12500000000E+03 0.  0.
          1    1    1    2  501    0  0.19898587637E+02 -0.29550657603E+02  0.93229152149E+02  0.99804158056E+02  0.00000000000E+00 0.  1.
         -1    1    1    2    0  503 -0.21620816609E+03 -0.28049135396E+03 -0.42426508610E+02  0.35668106112E+03  0.00000000000E+00 0. -1.
<mgrwt>
<rscale>  4 0.38294987E+03</rscale>
<asrwt>0</asrwt>
<pdfrwt beam="1">  1       21 0.52732633E-01 0.38294987E+03</pdfrwt>
<pdfrwt beam="2">  1       21 0.96067717E-01 0.38294987E+03</pdfrwt>
<totfact> 0.27408974E+03</totfact>
</mgrwt>
</event>
<event>
 5    0  0.1972558E-002  0.2501904E+03  0.7546771E-02  0.1113185E+00
         21   -1    0    0  501  502  0.00000000000E+00  0.00000000000E+00  0.16240137673E+04  0.16240137673E+04  0.00000000000E+00 0.  1.
         21   -1    0    0  502  503 -0.00000000000E+00 -0.00000000000E+00 -0.97213305326E+03  0.97213305326E+03  0.00000000000E+00 0. -1.
         25    1    1    2    0    0 -0.17996941527E+03  0.12310238510E+03 -0.92492717762E+03  0.95846672950E+03  0.12500000000E+03 0.  0.
          2    1    1    2  501    0  0.29367607649E+02 -0.22974373733E+01  0.12992162168E+04  0.12995501193E+04  0.00000000000E+00 0.  1.
         -2    1    1    2    0  503  0.15060180762E+03 -0.12080494773E+03  0.27759167489E+03  0.33812997179E+03  0.00000000000E+00 0. -1.
<mgrwt>
<rscale>  4 0.25019039E+03</rscale>
<asrwt>0</asrwt>
<pdfrwt beam="1">  1       21 0.24984827E+00 0.25019039E+03</pdfrwt>
<pdfrwt beam="2">  1       21 0.14955893E+00 0.25019039E+03</pdfrwt>
<totfact> 0.18320228E+01</totfact>
</mgrwt>
</event>
<event>
 5    0  0.1972558E-002  0.2379212E+03  0.7546771E-02  0.1121185E+00
         21   -1    0    0  501  502  0.00000000000E+00  0.00000000000E+00  0.10967574917E+03  0.10967574917E+03  0.00000000000E+00 0. -1.
         21   -1    0    0  502  503 -0.00000000000E+00 -0.00000000000E+00 -0.87146184478E+03  0.87146184478E+03  0.00000000000E+00 0. -1.
         25    1    1    2    0    0 -0.48373584424E+00  0.20544060735E+03 -0.32594059459E+03  0.40505351295E+03  0.12500000000E+03 0.  0.
          3    1    1    2  501    0  0.24103128289E+02 -0.19993761890E+03 -0.48286563713E+03  0.52317801537E+03  0.00000000000E+00 0. -1.
         -3    1    1    2    0  503 -0.23619392445E+02 -0.55029884543E+01  0.47020136110E+02  0.52906065637E+02  0.00000000000E+00 0.  1.
<mgrwt>
<rscale>  4 0.23792116E+03</rscale>
<asrwt>0</asrwt>
<pdfrwt beam="1">  1       21 0.16873193E-01 0.23792116E+03</pdfrwt>
<pdfrwt beam="2">  1       21 0.13407105E+00 0.23792116E+03</pdfrwt>
<totfact> 0.12271769E+04</totfact>
</mgrwt>
</event>
<event>
 5    0  0.1972558E-002  0.2762035E+03  0.7546771E-02  0.1097781E+00
         21   -1    0    0  503  502  0.00000000000E+00  0.00000000000E+00  0.42163396341E+03  0.42163396341E+03  0.00000000000E+00 0. -1.
         21   -1    0    0  501  503 -0.00000000000E+00 -0.00000000000E+00 -0.18080539310E+03  0.18080539310E+03  0.00000000000E+00 0.  1.
         25    1    1    2    0    0  0.17729902974E+02 -0.24218899907E+03  0.14657708074E+03  0.30996725848E+03  0.12500000000E+03 0.  0.
          4    1    1    2  501    0 -0.23867082024E+02 -0.83425998761E+01  0.17679089943E+01  0.25344862976E+02  0.00000000000E+00 0.  1.
         -4    1    1    2    0  502  0.61371790508E+01  0.25053159894E+03  0.92483580577E+02  0.26712723506E+03  0.00000000000E+00 0. -1.
<mgrwt>
<rscale>  4 0.27620347E+03</rscale>
<asrwt>0</asrwt>
<pdfrwt beam="1">  1       21 0.64866763E-01 0.27620347E+03</pdfrwt>
<pdfrwt beam="2">  1       21 0.27816214E-01 0.27620347E+03</pdfrwt>
<totfact> 0.25926082E+04</totfact>
</mgrwt>
</event>
<event>
 5    0  0.1972558E-002  0.2476973E+03  0.7546771E-02  0.1114769E+00
         21   -1    0    0  501  502  0.00000000000E+00  0.00000000000E+00  0.21171761441E+03  0.21171761441E+03  0.00000000000E+00 0.  1.
         21   -1    0    0  502  503 -0.00000000000E+00 -0.00000000000E+00 -0.31649087439E+03  0.31649087439E+03  0.00000000000E+00 0.  1.
         25    1    1    2    0    0  0.21337481651E+03 -0.62101926854E+02 -0.47951505301E+02  0.25944133923E+03  0.12500000000E+03 0.  0.
          3    1    1    2  501    0 -0.19042301406E+03  0.86459487303E+02 -0.84281368794E+02  0.22547619909E+03  0.00000000000E+00 0.  1.
         -3    1    1    2    0  503 -0.22951802447E+02 -0.24357560449E+02  0.27459614116E+02  0.43290950486E+02  0.00000000000E+00 0. -1.
<mgrwt>
<rscale>  4 0.24769725E+03</rscale>
<asrwt>0</asrwt>
<pdfrwt beam="1">  1       21 0.32571941E-01 0.24769725E+03</pdfrwt>
<pdfrwt beam="2">  1       21 0.48690904E-01 0.24769725E+03</pdfrwt>
<totfact> 0.35565395E+04</totfact>
</mgrwt>
</event>
<event>
 5    0  0.1972558E-002  0.2401718E+03  0.7546771E-02  0.1119678E+00
         21   -1    0    0  501  502  0.00000000000E+00  0.00000000000E+00  0.15112471970E+03  0.15112471970E+03  0.00000000000E+00 0.  1.
         21   -1    0    0  502  503 -0.00000000000E+00 -0.00000000000E+00 -0.68712611908E+03  0.68712611908E+03  0.00000000000E+00 0.  1.
         25    1    1    2    0    0 -0.19407415812E+03  0.10173317811E+03 -0.27163253726E+03  0.37070696470E+03  0.12500000000E+03 0.  0.
          2    1    1    2  501    0  0.16899568482E+03 -0.10243267980E+03 -0.33701905469E+03  0.39068380899E+03  0.00000000000E+00 0.  1.
         -2    1    1    2    0  503  0.25078473296E+02  0.69950168449E+00  0.72650192572E+02  0.76860065094E+02  0.00000000000E+00 0. -1.
<mgrwt>
<rscale>  4 0.24017179E+03</rscale>
<asrwt>0</asrwt>
<pdfrwt beam="1">  1       21 0.23249957E-01 0.24017179E+03</pdfrwt>
<pdfrwt beam="2">  1       21 0.10571171E+00 0.24017179E+03</pdfrwt>
<totfact> 0.12128219E+04</totfact>
</mgrwt>
</event>
<event>
 5    0  0.1972558E-002  0.2606679E+03  0.7546771E-02  0.1106743E+00
         21   -1    0    0  501  502  0.00000000000E+00  0.00000000000E+00  0.96451350162E+03  0.96451350162E+03  0.00000000000E+00 0. -1.
         21   -1    0    0  502  503 -0.00000000000E+00 -0.00000000000E+00 -0.16145965346E+03  0.16145965346E+03  0.00000000000E+00 0.  1.
         25    1    1    2    0    0 -0.23847592479E+03  0.29955336264E+02  0.16025766070E+02  0.27138517656E+03  0.12500000000E+03 0.  0.
          3    1    1    2  501    0  0.17513790875E+03 -0.11966493340E+03  0.40627347004E+03  0.45831333804E+03  0.00000000000E+00 0.  1.
         -3    1    1    2    0  503  0.63338016043E+02  0.89709597132E+02  0.38075461204E+03  0.39627464048E+03  0.00000000000E+00 0. -1.
<mgrwt>
<rscale>  4 0.26066792E+03</rscale>
<asrwt>0</asrwt>
<pdfrwt beam="1">  1       21 0.14838669E+00 0.26066792E+03</pdfrwt>
<pdfrwt beam="2">  1       21 0.24839947E-01 0.26066792E+03</pdfrwt>
<totfact> 0.44811136E+03</totfact>
</mgrwt>
</event>
<event>
 5    0  0.1972558E-002  0.2813829E+03  0.7546771E-02  0.1094936E+00
         21   -1    0    0  501  502  0.00000000000E+00  0.00000000000E+00  0.26622698631E+03  0.26622698631E+03  0.00000000000E+00 0. -1.
         21   -1    0    0  502  503 -0.00000000000E+00 -0.00000000000E+00 -0.11774013832E+04  0.11774013832E+04  0.00000000000E+00 0.  1.
         25    1    1    2    0    0  0.19022026205E+03  0.96120394440E+02 -0.55309029776E+03  0.60576955667E+03  0.12500000000E+03 0.  0.
          2    1    1    2  501    0  0.63304160637E+02  0.10058413310E+03  0.17743562561E+03  0.21356026274E+03  0.00000000000E+00 0. -1.
         -2    1    1    2    0  503 -0.25352442269E+03 -0.19670452754E+03 -0.53551972476E+03  0.62429855010E+03  0.00000000000E+00 0.  1.
<mgrwt>
<rscale>  4 0.28138293E+03</rscale>
<asrwt>0</asrwt>
<pdfrwt beam="1">  1       21 0.40957999E-01 0.28138293E+03</pdfrwt>
<pdfrwt beam="2">  1       21 0.18113867E+00 0.28138293E+03</pdfrwt>
<totfact> 0.94623068E+02</totfact>
</mgrwt>
</event>
<event>
 5    0  0.1972558E-002  0.3516574E+03  0.7546771E-02  0.1061937E+00
         21   -1    0    0  501  502  0.00000000000E+00  0.00000000000E+00  0.69921977022E+03  0.69921977022E+03  0.00000000000E+00 0.  1.
         21   -1    0    0  502  503 -0.00000000000E+00 -0.00000000000E+00 -0.39345013442E+03  0.39345013442E+03  0.00000000000E+00 0. -1.
         25    1    1    2    0    0 -0.79929488295E+02 -0.32725981007E+03 -0.23378732772E+03  0.42868312421E+03  0.12500000000E+03 0.  0.
          3    1    1    2  501    0  0.24469478507E+02  0.34389785537E+02  0.23154752229E+03  0.23536284288E+03  0.00000000000E+00 0.  1.
         -3    1    1    2    0  503  0.55460009789E+02  0.29287002453E+03  0.30800944124E+03  0.42862393755E+03  0.00000000000E+00 0. -1.
<mgrwt>
<rscale>  4 0.35165745E+03</rscale>
<asrwt>0</asrwt>
<pdfrwt beam="1">  1       21 0.10757227E+00 0.35165745E+03</pdfrwt>
<pdfrwt beam="2">  1       21 0.60530790E-01 0.35165745E+03</pdfrwt>
<totfact> 0.15693483E+03</totfact>
</mgrwt>
</event>
<event>
 5    0  0.1972558E-002  0.2580783E+03  0.7546771E-02  0.1108303E+00
         21   -1    0    0  501  502  0.00000000000E+00  0.00000000000E+00  0.69038413222E+03  0.69038413222E+03  0.00000000000E+00 0. -1.
         21   -1    0    0  502  503 -0.00000000000E+00 -0.00000000000E+00 -0.29449392362E+03  0.29449392362E+03  0.00000000000E+00 0. -1.
         25    1    1    2    0    0 -0.12081348351E+03 -0.20479545334E+03 -0.19714902758E+03  0.33321136623E+03  0.12500000000E+03 0.  0.
          1    1    1    2  501    0 -0.66471897790E+01  0.86573194598E+02  0.28527318185E+03  0.29819438533E+03  0.00000000000E+00 0.  1.
         -1    1    1    2    0  503  0.12746067329E+03  0.11822225874E+03  0.30776605433E+03  0.35347230428E+03  0.00000000000E+00 0. -1.
<mgrwt>
<rscale>  4 0.25807831E+03</rscale>
<asrwt>0</asrwt>
<pdfrwt beam="1">  1       21 0.10621294E+00 0.25807831E+03</pdfrwt>
<pdfrwt beam="2">  1       21 0.45306758E-01 0.25807831E+03</pdfrwt>
<totfact> 0.31612660E+03</totfact>
</mgrwt>
</event>
<event>
 5    0  0.1972558E-002  0.2504208E+03  0.7546771E-02  0.1113039E+00
         21   -1    0    0  501  502  0.00000000000E+00  0.00000000000E+00  0.33803491801E+03  0.33803491801E+03  0.00000000000E+00 0.  1.
         21   -1    0    0  502  503 -0.00000000000E+00 -0.00000000000E+00 -0.83553399312E+03  0.83553399312E+03  0.00000000000E+00 0. -1.
         25    1    1    2    0    0 -0.13023641971E+03  0.17736627602E+03 -0.76447653712E+03  0.80527616176E+03  0.12500000000E+03 0.  0.
          2    1    1    2  501    0  0.91093575619E+02 -0.16678424033E+03  0.14293992079E+03  0.23779580168E+03  0.00000000000E+00 0.  1.
         -2    1    1    2    0  503  0.39142844086E+02 -0.10582035694E+02  0.12403754123E+03  0.13049694770E+03  0.00000000000E+00 0. -1.
<mgrwt>
<rscale>  4 0.25042081E+03</rscale>
<asrwt>0</asrwt>
<pdfrwt beam="1">  1       21 0.52005373E-01 0.25042081E+03</pdfrwt>
<pdfrwt beam="2">  1       21 0.12854369E+00 0.25042081E+03</pdfrwt>
<totfact> 0.14844572E+03</totfact>
</mgrwt>
</event>
<event>
 5    0  0.1972558E-002  0.2956215E+03  0.7546771E-02  0.1087450E+00
         21   -1    0    0  503  502  0.00000000000E+00  0.00000000000E+00  0.82605660733E+03  0.82605660733E+03  0.00000000000E+00 0. -1.
         21   -1    0    0  501  503 -0.00000000000E+00 -0.00000000000E+00 -0.35752953132E+03  0.35752953132E+03  0.00000000000E+00 0. -1.
         25    1    1    2    0    0 -0.22796557408E+03 -0.15662886149E+03 -0.23347642193E+03  0.38293229534E+03  0.12500000000E+03 0.  0.
          4    1    1    2  501    0 -0.13184706530E+02  0.40979551363E+02 -0.63302071548E+01  0.43511281742E+02  0.00000000000E+00 0.  1.
         -4    1    1    2    0  502  0.24115028061E+03  0.11564931012E+03  0.70833370510E+03  0.75714256158E+03  0.00000000000E+00 0. -1.
<mgrwt>
<rscale>  4 0.29562152E+03</rscale>
<asrwt>0</asrwt>
<pdfrwt beam="1">  1       21 0.12708563E+00 0.29562152E+03</pdfrwt>
<pdfrwt beam="2">  1       21 0.55004544E-01 0.29562152E+03</pdfrwt>
<totfact> 0.13143911E+03</totfact>
</mgrwt>
</event>
<event>
 5    0  0.1972558E-002  0.3552701E+03  0.7546771E-02  0.1060473E+00
         21   -1    0    0  501  502  0.00000000000E+00  0.00000000000E+00  0.13217831785E+03  0.13217831785E+03  0.00000000000E+00 0.  1.
         21   -1    0    0  502  503 -0.00000000000E+00 -0.00000000000E+00 -0.12905900644E+04  0.12905900644E+04  0.00000000000E+00 0.  1.
         25    1    1    2    0    0  0.52832276866E+02 -0.34712692007E+03 -0.86796540558E+03  0.94460430520E+03  0.12500000000E+03 0.  0.
          4    1    1    2  501    0  0.71842133008E+01  0.26033219580E+02 -0.92164968007E+02  0.96040214339E+02  0.00000000000E+00 0. -1.
         -4    1    1    2    0  503 -0.60016490167E+02  0.32109370049E+03 -0.19828137297E+03  0.38212386271E+03  0.00000000000E+00 0.  1.
<mgrwt>
<rscale>  4 0.35527006E+03</rscale>
<asrwt>0</asrwt>
<pdfrwt beam="1">  1       21 0.20335127E-01 0.35527006E+03</pdfrwt>
<pdfrwt beam="2">  1       21 0.19855230E+00 0.35527006E+03</pdfrwt>
<totfact> 0.27280450E+03</totfact>
</mgrwt>
</event>
<event>
 5    0  0.1972558E-002  0.3382056E+03  0.7546771E-02  0.1067563E+00
         21   -1    0    0  501  502  0.00000000000E+00  0.00000000000E+00  0.50290362887E+03  0.50290362887E+03  0.00000000000E+00 0.  1.
         21   -1    0    0  502  503 -0.00000000000E+00 -0.00000000000E+00 -0.54803701572E+03  0.54803701572E+03  0.00000000000E+00 0. -1.
         25    1    1    2    0    0 -0.15006413136E+02 -0.31699782531E+03 -0.42377932213E+03  0.54399147746E+03  0.12500000000E+03 0.  0.
          1    1    1    2  501    0  0.13596961399E+02  0.29599901215E+03  0.28556552330E+03  0.41151908905E+03  0.00000000000E+00 0.  1.
         -1    1    1    2    0  503  0.14094517374E+01  0.20998813156E+02  0.93080411983E+02  0.95430078084E+02  0.00000000000E+00 0. -1.
<mgrwt>
<rscale>  4 0.33820557E+03</rscale>
<asrwt>0</asrwt>
<pdfrwt beam="1">  1       21 0.77369789E-01 0.33820557E+03</pdfrwt>
<pdfrwt beam="2">  1       21 0.84313387E-01 0.33820557E+03</pdfrwt>
<totfact> 0.16346956E+03</totfact>
</mgrwt>
</event>
<event>
 5    0  0.1972558E-002  0.2647810E+03  0.7546771E-02  0.1104304E+00
         21   -1    0    0  501  502  0.00000000000E+00  0.00000000000E+00  0.23036885078E+03  0.23036885078E+03  0.00000000000E+00 0. -1.
         21   -1    0    0  502  503 -0.00000000000E+00 -0.00000000000E+00 -0.62014680171E+03  0.62014680171E+03  0.00000000000E+00 0. -1.
         25    1    1    2    0    0  0.17728237808E+02 -0.21888789069E+03 -0.22309899048E+03  0.33708212450E+03  0.12500000000E+03 0.  0.
          2    1    1    2  501    0 -0.20224297588E+02  0.24322967408E+03 -0.29495631157E+03  0.38284320851E+03  0.00000000000E+00 0.  1.
         -2    1    1    2    0  503  0.24960597799E+01 -0.24341783390E+02  0.12827735112E+03  0.13059031948E+03  0.00000000000E+00 0. -1.
<mgrwt>
<rscale>  4 0.26478097E+03</rscale>
<asrwt>0</asrwt>
<pdfrwt beam="1">  1       21 0.35441362E-01 0.26478097E+03</pdfrwt>
<pdfrwt beam="2">  1       21 0.95407200E-01 0.26478097E+03</pdfrwt>
<totfact> 0.67137627E+03</totfact>
</mgrwt>
</event>
<event>
 5    0  0.1972558E-002  0.4893158E+03  0.7546771E-02  0.1016606E+00
         21   -1    0    0  501  502  0.00000000000E+00  0.00000000000E+00  0.24681040243E+04  0.24681040243E+04  0.00000000000E+00 0. -1.
         21   -1    0    0  502  503 -0.00000000000E+00 -0.00000000000E+00 -0.34791179197E+03  0.34791179197E+03  0.00000000000E+00 0.  1.
         25    1    1    2    0    0 -0.23557521189E+03  0.41964761980E+03 -0.42631521862E+02  0.49904133287E+03  0.12500000000E+03 0.  0.
          1    1    1    2  501    0  0.18068153036E+03 -0.41322469716E+03  0.58732844795E+03  0.74051007524E+03  0.00000000000E+00 0.  1.
         -1    1    1    2    0  503  0.54893681529E+02 -0.64229226333E+01  0.15754953062E+04  0.15764644081E+04  0.00000000000E+00 0. -1.
<mgrwt>
<rscale>  4 0.48931579E+03</rscale>
<asrwt>0</asrwt>
<pdfrwt beam="1">  1       21 0.37970830E+00 0.48931579E+03</pdfrwt>
<pdfrwt beam="2">  1       21 0.53524893E-01 0.48931579E+03</pdfrwt>
<totfact> 0.27494819E+01</totfact>
</mgrwt>
</event>
<event>
 5    0  0.1972558E-002  0.2546882E+03  0.7546771E-02  0.1110377E+00
         21   -1    0    0  503  502  0.00000000000E+00  0.00000000000E+00  0.33791094757E+03  0.33791094757E+03  0.00000000000E+00 0. -1.
         21   -1    0    0  501  503 -0.00000000000E+00 -0.00000000000E+00 -0.60267062669E+03  0.60267062669E+03  0.00000000000E+00 0. -1.
         25    1    1    2    0    0 -0.14919784112E+03  0.15948261272E+03 -0.50236537204E+03  0.56186356580E+03  0.12500000000E+03 0.  0.
          3    1    1    2  501    0 -0.57828615073E+01  0.40149470830E+02  0.47547972612E+02  0.62499849557E+02  0.00000000000E+00 0.  1.
         -3    1    1    2    0  502  0.15498070262E+03 -0.19963208355E+03  0.19005772031E+03  0.31621815890E+03  0.00000000000E+00 0. -1.
<mgrwt>
<rscale>  4 0.25468825E+03</rscale>
<asrwt>0</asrwt>
<pdfrwt beam="1">  1       21 0.51986300E-01 0.25468825E+03</pdfrwt>
<pdfrwt beam="2">  1       21 0.92718557E-01 0.25468825E+03</pdfrwt>
<totfact> 0.32874149E+03</totfact>
</mgrwt>
</event>
<event>
 5    0  0.1972558E-002  0.2748326E+03  0.7546771E-02  0.1098545E+00
         21   -1    0    0  503  502  0.00000000000E+00  0.00000000000E+00  0.11954450115E+03  0.11954450115E+03  0.00000000000E+00 0. -1.
         21   -1    0    0  501  503 -0.00000000000E+00 -0.00000000000E+00 -0.66246058522E+03  0.66246058522E+03  0.00000000000E+00 0. -1.
         25    1    1    2    0    0 -0.43182691202E+02  0.22942813386E+03 -0.25762586539E+03  0.36945649262E+03  0.12500000000E+03 0.  0.
          1    1    1    2  501    0  0.29210806582E+02  0.26185432002E+02 -0.59137645226E+02  0.70966253622E+02  0.00000000000E+00 0.  1.
         -1    1    1    2    0  502  0.13971884620E+02 -0.25561356586E+03 -0.22615257345E+03  0.34158234013E+03  0.00000000000E+00 0. -1.
<mgrwt>
<rscale>  4 0.27483258E+03</rscale>
<asrwt>0</asrwt>
<pdfrwt beam="1">  1       21 0.18391461E-01 0.27483258E+03</pdfrwt>
<pdfrwt beam="2">  1       21 0.10191701E+00 0.27483258E+03</pdfrwt>
<totfact> 0.20257828E+04</totfact>
</mgrwt>
</event>
<event>
 5    0  0.1972558E-002  0.2676842E+03  0.7546771E-02  0.1102612E+00
         21   -1    0    0  501  502  0.00000000000E+00  0.00000000000E+00  0.68672358414E+03  0.68672358414E+03  0.00000000000E+00 0.  1.
         21   -1    0    0  502  503 -0.00000000000E+00 -0.00000000000E+00 -0.11300226209E+03  0.11300226209E+03  0.00000000000E+00 0.  1.
         25    1    1    2    0    0 -0.23963017436E+03 -0.20517486362E+02  0.20468100410E+03  0.33965114625E+03  0.12500000000E+03 0.  0.
          2    1    1    2  501    0  0.22608785771E+03  0.59226843655E+02  0.31502043192E+03  0.39225171885E+03  0.00000000000E+00 0.  1.
         -2    1    1    2    0  503  0.13542316649E+02 -0.38709357293E+02  0.54019886028E+02  0.67822981126E+02  0.00000000000E+00 0. -1.
<mgrwt>
<rscale>  4 0.26768421E+03</rscale>
<asrwt>0</asrwt>
<pdfrwt beam="1">  1       21 0.10564978E+00 0.26768421E+03</pdfrwt>
<pdfrwt beam="2">  1       21 0.17384964E-01 0.26768421E+03</pdfrwt>
<totfact> 0.20688600E+04</totfact>
</mgrwt>
</event>
<event>
 5    0  0.1972558E-002  0.2330355E+03  0.7546771E-02  0.1124521E+00
         21   -1    0    0  501  502  0.00000000000E+00  0.00000000000E+00  0.15584335911E+03  0.15584335911E+03  0.00000000000E+00 0.  1.
         21   -1    0    0  502  503 -0.00000000000E+00 -0.00000000000E+00 -0.12660700032E+04  0.12660700032E+04  0.00000000000E+00 0.  1.
         25    1    1    2    0    0 -0.21526899606E+03  0.47633487967E+01 -0.95419398886E+03  0.98614126702E+03  0.12500000000E+03 0.  0.
          1    1    1    2  501    0  0.16578287488E+03  0.41694338871E+02 -0.26026673406E+03  0.31138585767E+03  0.00000000000E+00 0. -1.
         -1    1    1    2    0  503  0.49486121176E+02 -0.46457687668E+02  0.10423407880E+03  0.12438623765E+03  0.00000000000E+00 0.  1.
<mgrwt>
<rscale>  4 0.23303552E+03</rscale>
<asrwt>0</asrwt>
<pdfrwt beam="1">  1       21 0.23975901E-01 0.23303552E+03</pdfrwt>
<pdfrwt beam="2">  1       21 0.19478000E+00 0.23303552E+03</pdfrwt>
<totfact> 0.22914930E+03</totfact>
</mgrwt>
</event>
<event>
 5    0  0.1972558E-002  0.2446957E+03  0.7546771E-02  0.1116704E+00
         21   -1    0    0  503  502  0.00000000000E+00  0.00000000000E+00  0.72331707415E+03  0.72331707415E+03  0.00000000000E+00 0.  1.
         21   -1    0    0  501  503 -0.00000000000E+00 -0.00000000000E+00 -0.36697904184E+03  0.36697904184E+03  0.00000000000E+00 0.  1.
         25    1    1    2    0    0 -0.28006517885E+02 -0.21571561790E+03 -0.26301989748E+03  0.36348598229E+03  0.12500000000E+03 0.  0.
          3    1    1    2  501    0  0.13651924292E+03  0.11491310843E+03  0.51658503345E+03  0.54653693650E+03  0.00000000000E+00 0. -1.
         -3    1    1    2    0  502 -0.10851272503E+03  0.10080250946E+03  0.10277289635E+03  0.18027319721E+03  0.00000000000E+00 0.  1.
<mgrwt>
<rscale>  4 0.24469569E+03</rscale>
<asrwt>0</asrwt>
<pdfrwt beam="1">  1       21 0.11127955E+00 0.24469569E+03</pdfrwt>
<pdfrwt beam="2">  1       21 0.56458314E-01 0.24469569E+03</pdfrwt>
<totfact> 0.17933409E+03</totfact>
</mgrwt>
</event>
<event>
 5    0  0.1972558E-002  0.2532649E+03  0.7546771E-02  0.1111259E+00
         21   -1    0    0  501  502  0.00000000000E+00  0.00000000000E+00  0.31901269221E+03  0.31901269221E+03  0.00000000000E+00 0. -1.
         21   -1    0    0  502  503 -0.00000000000E+00 -0.00000000000E+00 -0.46855746869E+03  0.46855746869E+03  0.00000000000E+00 0.  1.
         25    1    1    2    0    0  0.74786612780E+02 -0.22740448463E+03 -0.33385327047E+03  0.42940522038E+03  0.12500000000E+03 0.  0.
          4    1    1    2  501    0  0.51824677642E+02  0.94286589038E+02  0.12541672805E+03  0.16524259063E+03  0.00000000000E+00 0. -1.
         -4    1    1    2    0  503 -0.12661129042E+03  0.13311789560E+03  0.58891765945E+02  0.19292234989E+03  0.00000000000E+00 0.  1.
<mgrwt>
<rscale>  4 0.25326489E+03</rscale>
<asrwt>0</asrwt>
<pdfrwt beam="1">  1       21 0.49078876E-01 0.25326489E+03</pdfrwt>
<pdfrwt beam="2">  1       21 0.72085764E-01 0.25326489E+03</pdfrwt>
<totfact> 0.66056071E+03</totfact>
</mgrwt>
</event>
<event>
 5    0  0.1972558E-002  0.2868708E+03  0.7546771E-02  0.1091994E+00
         21   -1    0    0  501  502  0.00000000000E+00  0.00000000000E+00  0.13575131920E+03  0.13575131920E+03  0.00000000000E+00 0. -1.
         21   -1    0    0  502  503 -0.00000000000E+00 -0.00000000000E+00 -0.89582798647E+03  0.89582798647E+03  0.00000000000E+00 0.  1.
         25    1    1    2    0    0  0.29488224479E+03 -0.64724359869E+02 -0.39573727172E+03  0.51320343850E+03  0.12500000000E+03 0.  0.
          3    1    1    2  501    0 -0.80328594266E+02 -0.29963148853E+02 -0.77901605024E+00  0.85738440690E+02  0.00000000000E+00 0.  1.
         -3    1    1    2    0  503 -0.21455365053E+03  0.94687508721E+02 -0.36356037950E+03  0.43263742649E+03  0.00000000000E+00 0. -1.
<mgrwt>
<rscale>  4 0.28687075E+03</rscale>
<asrwt>0</asrwt>
<pdfrwt beam="1">  1       21 0.20884817E-01 0.28687075E+03</pdfrwt>
<pdfrwt beam="2">  1       21 0.13781970E+00 0.28687075E+03</pdfrwt>
<totfact> 0.74610019E+03</totfact>
</mgrwt>
</event>
<event>
 5    0  0.1972558E-002  0.2911543E+03  0.7546771E-02  0.1089748E+00
         21   -1    0    0  501  502  0.00000000000E+00  0.00000000000E+00  0.13781067666E+04  0.13781067666E+04  0.00000000000E+00 0.  1.
         21   -1    0    0  502  503 -0.00000000000E+00 -0.00000000000E+00 -0.15723673727E+03  0.15723673727E+03  0.00000000000E+00 0.  1.
         25    1    1    2    0    0 -0.66324661444E+02  0.25917531105E+03  0.15564107158E+02  0.29569924586E+03  0.12500000000E+03 0.  0.
          2    1    1    2  501    0  0.71785479093E+02 -0.22687509665E+03  0.84544377512E+03  0.87829416563E+03  0.00000000000E+00 0.  1.
         -2    1    1    2    0  503 -0.54608176491E+01 -0.32300214403E+02  0.35986214708E+03  0.36135009240E+03  0.00000000000E+00 0. -1.
<mgrwt>
<rscale>  4 0.29115427E+03</rscale>
<asrwt>0</asrwt>
<pdfrwt beam="1">  1       21 0.21201642E+00 0.29115427E+03</pdfrwt>
<pdfrwt beam="2">  1       21 0.24190268E-01 0.29115427E+03</pdfrwt>
<totfact> 0.16661139E+03</totfact>
</mgrwt>
</event>
<event>
 5    0  0.1972558E-002  0.2710824E+03  0.7546771E-02  0.1100662E+00
         21   -1    0    0  501  502  0.00000000000E+00  0.00000000000E+00  0.68899874344E+03  0.68899874344E+03  0.00000000000E+00 0. -1.
         21   -1    0    0  502  503 -0.00000000000E+00 -0.00000000000E+00 -0.21485136237E+03  0.21485136237E+03  0.00000000000E+00 0. -1.
         25    1    1    2    0    0 -0.16973223954E+03  0.15610325987E+03 -0.89196569771E+01  0.26245346476E+03  0.12500000000E+03 0.  0.
          4    1    1    2  501    0  0.20538919244E+03 -0.15595430274E+03  0.13420833077E+03  0.29072038278E+03  0.00000000000E+00 0. -1.
         -4    1    1    2    0  503 -0.35656952903E+02 -0.14895713072E+00  0.34885870727E+03  0.35067625828E+03  0.00000000000E+00 0.  1.
<mgrwt>
<rscale>  4 0.27108239E+03</rscale>
<asrwt>0</asrwt>
<pdfrwt beam="1">  1       21 0.10599981E+00 0.27108239E+03</pdfrwt>
<pdfrwt beam="2">  1       21 0.33054056E-01 0.27108239E+03</pdfrwt>
<totfact> 0.59724018E+03</totfact>
</mgrwt>
</event>
<event>
 5    0  0.1972558E-002  0.2329986E+03  0.7546771E-02  0.1124547E+00
         21   -1    0    0  501  502  0.00000000000E+00  0.00000000000E+00  0.14127247292E+04  0.14127247292E+04  0.00000000000E+00 0. -1.
         21   -1    0    0  502  503 -0.00000000000E+00 -0.00000000000E+00 -0.56388339007E+02  0.56388339007E+02  0.00000000000E+00 0. -1.
         25    1    1    2    0    0 -0.16551971627E+03  0.14421043323E+03  0.77170797954E+03  0.81200469901E+03  0.12500000000E+03 0.  0.
          1    1    1    2  501    0  0.21928889359E+02 -0.20773831748E+02  0.36861733063E+03  0.36985289605E+03  0.00000000000E+00 0.  1.
         -1    1    1    2    0  503  0.14359082691E+03 -0.12343660149E+03  0.21601107999E+03  0.28725547312E+03  0.00000000000E+00 0. -1.
<mgrwt>
<rscale>  4 0.23299856E+03</rscale>
<asrwt>0</asrwt>
<pdfrwt beam="1">  1       21 0.21734224E+00 0.23299856E+03</pdfrwt>
<pdfrwt beam="2">  1       21 0.86751302E-02 0.23299856E+03</pdfrwt>
<totfact> 0.10529814E+04</totfact>
</mgrwt>
</event>
<event>
 5    0  0.1972558E-002  0.2930987E+03  0.7546771E-02  0.1088742E+00
         21   -1    0    0  501  502  0.00000000000E+00  0.00000000000E+00  0.13145752622E+04  0.13145752622E+04  0.00000000000E+00 0.  1.
         21   -1    0    0  502  503 -0.00000000000E+00 -0.00000000000E+00 -0.48027103767E+03  0.48027103767E+03  0.00000000000E+00 0. -1.
         25    1    1    2    0    0  0.12531923428E+03 -0.22526547271E+03 -0.27199026826E+03  0.39503563093E+03  0.12500000000E+03 0.  0.
          3    1    1    2  501    0  0.67602816569E+02  0.12741494154E+02  0.11106210446E+04  0.11127495636E+04  0.00000000000E+00 0.  1.
         -3    1    1    2    0  503 -0.19292205085E+03  0.21252397855E+03 -0.43265518354E+01  0.28706110537E+03  0.00000000000E+00 0. -1.
<mgrwt>
<rscale>  4 0.29309867E+03</rscale>
<asrwt>0</asrwt>
<pdfrwt beam="1">  1       21 0.20224235E+00 0.29309867E+03</pdfrwt>
<pdfrwt beam="2">  1       21 0.73887853E-01 0.29309867E+03</pdfrwt>
<totfact> 0.19146759E+02</totfact>
</mgrwt>
</event>
<event>
 5    0  0.1972558E-002  0.2691950E+03  0.7546771E-02  0.1101741E+00
         21   -1    0    0  501  502  0.00000000000E+00  0.00000000000E+00  0.16896437687E+04  0.16896437687E+04  0.00000000000E+00 0. -1.
         21   -1    0    0  502  503 -0.00000000000E+00 -0.00000000000E+00 -0.61762686275E+02  0.61762686275E+02  0.00000000000E+00 0. -1.
         25    1    1    2    0    0 -0.27300169705E+02 -0.23684516586E+03  0.31028446832E+03  0.41078264707E+03  0.12500000000E+03 0.  0.
          1    1    1    2  501    0 -0.10678303162E+02  0.10588568365E+03  0.45244457738E+03  0.46479231896E+03  0.00000000000E+00 0.  1.
         -1    1    1    2    0  503  0.37978472867E+02  0.13095948221E+03  0.86515203669E+03  0.87583148891E+03  0.00000000000E+00 0. -1.
<mgrwt>
<rscale>  4 0.26919497E+03</rscale>
<asrwt>0</asrwt>
<pdfrwt beam="1">  1       21 0.25994516E+00 0.26919497E+03</pdfrwt>
<pdfrwt beam="2">  1       21 0.95019530E-02 0.26919497E+03</pdfrwt>
<totfact> 0.48172644E+03</totfact>
</mgrwt>
</event>
<event>
 5    0  0.1972558E-002  0.4719371E+03  0.7546771E-02  0.1021375E+00
         21   -1    0    0  501  502  0.00000000000E+00  0.00000000000E+00  0.87117024936E+03  0.87117024936E+03  0.00000000000E+00 0.  1.
         21   -1    0    0  502  503 -0.00000000000E+00 -0.00000000000E+00 -0.62158104963E+03  0.62158104963E+03  0.00000000000E+00 0. -1.
         25    1    1    2    0    0 -0.43517706595E+03 -0.27968417784E+02 -0.16228030022E+03  0.48178958785E+03  0.12500000000E+03 0.  0.
          2    1    1    2  501    0  0.39839996169E+03 -0.27411744172E+03  0.49853003302E+03  0.69454668321E+03  0.00000000000E+00 0. -1.
         -2    1    1    2    0  503  0.36777104255E+02  0.30208585950E+03 -0.86660533064E+02  0.31641502793E+03  0.00000000000E+00 0.  1.
<mgrwt>
<rscale>  4 0.47193711E+03</rscale>
<asrwt>0</asrwt>
<pdfrwt beam="1">  1       21 0.13402619E+00 0.47193711E+03</pdfrwt>
<pdfrwt beam="2">  1       21 0.95627854E-01 0.47193711E+03</pdfrwt>
<totfact> 0.29820289E+02</totfact>
</mgrwt>
</event>
<event>
 5    0  0.1972558E-002  0.3319790E+03  0.7546771E-02  0.1070265E+00
         21   -1    0    0  503  502  0.00000000000E+00  0.00000000000E+00  0.38089730046E+03  0.38089730046E+03  0.00000000000E+00 0. -1.
         21   -1    0    0  501  503 -0.00000000000E+00 -0.00000000000E+00 -0.51251162885E+03  0.51251162885E+03  0.00000000000E+00 0. -1.
         25    1    1    2    0    0 -0.28051127474E+03  0.75310865375E+02 -0.18978878014E+03  0.36878595793E+03  0.12500000000E+03 0.  0.
          4    1    1    2  501    0 -0.11996307006E+02  0.36367467524E+02 -0.14592924672E+03  0.15087030564E+03  0.00000000000E+00 0.  1.
         -4    1    1    2    0  502  0.29250758174E+03 -0.11167833290E+03  0.20410369847E+03  0.37375266574E+03  0.00000000000E+00 0. -1.
<mgrwt>
<rscale>  4 0.33197899E+03</rscale>
<asrwt>0</asrwt>
<pdfrwt beam="1">  1       21 0.58599585E-01 0.33197899E+03</pdfrwt>
<pdfrwt beam="2">  1       21 0.78847943E-01 0.33197899E+03</pdfrwt>
<totfact> 0.35475689E+03</totfact>
</mgrwt>
</event>
<event>
 5    0  0.1972558E-002  0.3191385E+03  0.7546771E-02  0.1076046E+00
         21   -1    0    0  501  502  0.00000000000E+00  0.00000000000E+00  0.62329467171E+03  0.62329467171E+03  0.00000000000E+00 0.  1.
         21   -1    0    0  502  503 -0.00000000000E+00 -0.00000000000E+00 -0.19611988265E+04  0.19611988265E+04  0.00000000000E+00 0.  1.
         25    1    1    2    0    0  0.22688062290E+02 -0.29713306696E+03 -0.17558336742E+04  0.17853234158E+04  0.12500000000E+03 0.  0.
          3    1    1    2  501    0 -0.17573786091E+02  0.26554555873E+03 -0.96995708234E+02  0.28325156511E+03  0.00000000000E+00 0. -1.
         -3    1    1    2    0  503 -0.51142761993E+01  0.31587508230E+02  0.51492522760E+03  0.51591851732E+03  0.00000000000E+00 0.  1.
<mgrwt>
<rscale>  4 0.31913853E+03</rscale>
<asrwt>0</asrwt>
<pdfrwt beam="1">  1       21 0.95891488E-01 0.31913853E+03</pdfrwt>
<pdfrwt beam="2">  1       21 0.30172290E+00 0.31913853E+03</pdfrwt>
<totfact> 0.25373874E+01</totfact>
</mgrwt>
</event>
<event>
 5    0  0.1972558E-002  0.3039754E+03  0.7546771E-02  0.1083270E+00
         21   -1    0    0  501  502  0.00000000000E+00  0.00000000000E+00  0.91972188120E+03  0.91972188120E+03  0.00000000000E+00 0.  1.
         21   -1    0    0  502  503 -0.00000000000E+00 -0.00000000000E+00 -0.18026830486E+03  0.18026830486E+03  0.00000000000E+00 0.  1.
         25    1    1    2    0    0 -0.21307210498E+03 -0.23083701577E+03  0.13329294747E+03  0.36342462715E+03  0.12500000000E+03 0.  0.
          1    1    1    2  501    0  0.17498947241E+03  0.16731711265E+03  0.17410801745E+03  0.29821122276E+03  0.00000000000E+00 0.  1.
         -1    1    1    2    0  503  0.38082632574E+02  0.63519903126E+02  0.43205261141E+03  0.43835433616E+03  0.00000000000E+00 0. -1.
<mgrwt>
<rscale>  4 0.30397544E+03</rscale>
<asrwt>0</asrwt>
<pdfrwt beam="1">  1       21 0.14149567E+00 0.30397544E+03</pdfrwt>
<pdfrwt beam="2">  1       21 0.27733586E-01 0.30397544E+03</pdfrwt>
<totfact> 0.40010187E+03</totfact>
</mgrwt>
</event>
<event>
 5    0  0.1972558E-002  0.2428143E+03  0.7546771E-02  0.1117932E+00
         21   -1    0    0  501  502  0.00000000000E+00  0.00000000000E+00  0.53461719714E+03  0.53461719714E+03  0.00000000000E+00 0.  1.
         21   -1    0    0  502  503 -0.00000000000E+00 -0.00000000000E+00 -0.38893942587E+03  0.38893942587E+03  0.00000000000E+00 0. -1.
         25    1    1    2    0    0  0.11346394952E+03 -0.22198140527E+03 -0.16850757378E+03  0.32583679128E+03  0.12500000000E+03 0.  0.
          2    1    1    2  501    0 -0.99605355134E+02  0.14828557373E+03 -0.80528838516E+02  0.19594573734E+03  0.00000000000E+00 0. -1.
         -2    1    1    2    0  503 -0.13858594386E+02  0.73695831542E+02  0.39471418356E+03  0.40177409440E+03  0.00000000000E+00 0.  1.
<mgrwt>
<rscale>  4 0.24281429E+03</rscale>
<asrwt>0</asrwt>
<pdfrwt beam="1">  1       21 0.82248800E-01 0.24281429E+03</pdfrwt>
<pdfrwt beam="2">  1       21 0.59836835E-01 0.24281429E+03</pdfrwt>
<totfact> 0.32393750E+03</totfact>
</mgrwt>
</event>
<event>
 5    0  0.1972558E-002  0.2337109E+03  0.7546771E-02  0.1124055E+00
         21   -1    0    0  501  502  0.00000000000E+00  0.00000000000E+00  0.21411637724E+03  0.21411637724E+03  0.00000000000E+00 0. -1.
         21   -1    0    0  502  503 -0.00000000000E+00 -0.00000000000E+00 -0.48342008878E+03  0.48342008878E+03  0.00000000000E+00 0. -1.
         25    1    1    2    0    0 -0.20727679226E+03 -0.37244584861E+02 -0.33307565246E+03  0.41341893761E+03  0.12500000000E+03 0.  0.
          1    1    1    2  501    0  0.58511209933E+02 -0.61974646129E+02  0.61817919870E+02  0.10528947558E+03  0.00000000000E+00 0.  1.
         -1    1    1    2    0  503  0.14876558233E+03  0.99219230989E+02  0.19540210510E+01  0.17882805284E+03  0.00000000000E+00 0. -1.
<mgrwt>
<rscale>  4 0.23371094E+03</rscale>
<asrwt>0</asrwt>
<pdfrwt beam="1">  1       21 0.32940981E-01 0.23371094E+03</pdfrwt>
<pdfrwt beam="2">  1       21 0.74372321E-01 0.23371094E+03</pdfrwt>
<totfact> 0.14016042E+04</totfact>
</mgrwt>
</event>
<event>
 5    0  0.1972558E-002  0.3862912E+03  0.7546771E-02  0.1048633E+00
         21   -1    0    0  503  502  0.00000000000E+00  0.00000000000E+00  0.21719669610E+03  0.21719669610E+03  0.00000000000E+00 0.  1.
         21   -1    0    0  501  503 -0.00000000000E+00 -0.00000000000E+00 -0.93618405162E+03  0.93618405162E+03  0.00000000000E+00 0. -1.
         25    1    1    2    0    0  0.35449075185E+03  0.10269720302E+03 -0.66152078756E+03  0.76775332043E+03  0.12500000000E+03 0.  0.
          3    1    1    2  501    0 -0.85705313947E+01 -0.21626587020E+02 -0.15294068404E+02  0.27840111402E+02  0.00000000000E+00 0. -1.
         -3    1    1    2    0  502 -0.34592022045E+03 -0.81070616000E+02 -0.42172499558E+02  0.35778731589E+03  0.00000000000E+00 0.  1.
<mgrwt>
<rscale>  4 0.38629125E+03</rscale>
<asrwt>0</asrwt>
<pdfrwt beam="1">  1       21 0.33414877E-01 0.38629125E+03</pdfrwt>
<pdfrwt beam="2">  1       21 0.14402831E+00 0.38629125E+03</pdfrwt>
<totfact> 0.25340429E+03</totfact>
</mgrwt>
</event>
<event>
 5    0  0.1972558E-002  0.2516777E+03  0.7546771E-02  0.1112249E+00
         21   -1    0    0  501  502  0.00000000000E+00  0.00000000000E+00  0.68650795533E+03  0.68650795533E+03  0.00000000000E+00 0.  1.
         21   -1    0    0  502  503 -0.00000000000E+00 -0.00000000000E+00 -0.45931980631E+03  0.45931980631E+03  0.00000000000E+00 0. -1.
         25    1    1    2    0    0  0.21853673523E+03  0.35675181988E+02 -0.39823918638E+03  0.47249388654E+03  0.12500000000E+03 0.  0.
          2    1    1    2  501    0 -0.53040023608E+02  0.16817905903E+02  0.59907005658E+02  0.81761454184E+02  0.00000000000E+00 0. -1.
         -2    1    1    2    0  503 -0.16549671162E+03 -0.52493087891E+02  0.56552032974E+03  0.59157242091E+03  0.00000000000E+00 0.  1.
<mgrwt>
<rscale>  4 0.25167770E+03</rscale>
<asrwt>0</asrwt>
<pdfrwt beam="1">  1       21 0.10561661E+00 0.25167770E+03</pdfrwt>
<pdfrwt beam="2">  1       21 0.70664585E-01 0.25167770E+03</pdfrwt>
<totfact> 0.12417997E+03</totfact>
</mgrwt>
</event>
<event>
 5    0  0.1972558E-002  0.2902537E+03  0.7546771E-02  0.1090217E+00
         21   -1    0    0  501  502  0.00000000000E+00  0.00000000000E+00  0.62752886871E+03  0.62752886871E+03  0.00000000000E+00 0.  1.
         21   -1    0    0  502  503 -0.00000000000E+00 -0.00000000000E+00 -0.11276911418E+04  0.11276911418E+04  0.00000000000E+00 0. -1.
         25    1    1    2    0    0 -0.21734870461E+03  0.14390566057E+03 -0.90942757735E+03  0.95427083000E+03  0.12500000000E+03 0.  0.
          3    1    1    2  501    0  0.20057809506E+03 -0.18021293632E+03 -0.10187415529E+03  0.28824749462E+03  0.00000000000E+00 0. -1.
         -3    1    1    2    0  503  0.16770609549E+02  0.36307275750E+02  0.51113945954E+03  0.51270168589E+03  0.00000000000E+00 0.  1.
<mgrwt>
<rscale>  4 0.29025374E+03</rscale>
<asrwt>0</asrwt>
<pdfrwt beam="1">  1       21 0.96542904E-01 0.29025374E+03</pdfrwt>
<pdfrwt beam="2">  1       21 0.17349094E+00 0.29025374E+03</pdfrwt>
<totfact> 0.16195642E+02</totfact>
</mgrwt>
</event>
<event>
 5    0  0.1972558E-002  0.2627614E+03  0.7546771E-02  0.1105495E+00
         21   -1    0    0  501  502  0.00000000000E+00  0.00000000000E+00  0.40073139632E+03  0.40073139632E+03  0.00000000000E+00 0.  1.
         21   -1    0    0  502  503 -0.00000000000E+00 -0.00000000000E+00 -0.21665787976E+03  0.21665787976E+03  0.00000000000E+00 0.  1.
         25    1    1    2    0    0 -0.12014632172E+03  0.19744215259E+03 -0.67059029384E+02  0.27118343545E+03  0.12500000000E+03 0.  0.
          2    1    1    2  501    0  0.24216853880E+02 -0.83288562252E+01  0.19656822404E+02  0.32283378462E+02  0.00000000000E+00 0. -1.
         -2    1    1    2    0  503  0.95929467835E+02 -0.18911329636E+03  0.23147572354E+03  0.31392246216E+03  0.00000000000E+00 0.  1.
<mgrwt>
<rscale>  4 0.26276138E+03</rscale>
<asrwt>0</asrwt>
<pdfrwt beam="1">  1       21 0.61650984E-01 0.26276138E+03</pdfrwt>
<pdfrwt beam="2">  1       21 0.33331982E-01 0.26276138E+03</pdfrwt>
<totfact> 0.20412951E+04</totfact>
</mgrwt>
</event>
<event>
 5    0  0.1972558E-002  0.3028790E+03  0.7546771E-02  0.1083810E+00
         21   -1    0    0  501  502  0.00000000000E+00  0.00000000000E+00  0.17809180039E+04  0.17809180039E+04  0.00000000000E+00 0. -1.
         21   -1    0    0  502  503 -0.00000000000E+00 -0.00000000000E+00 -0.63879310929E+02  0.63879310929E+02  0.00000000000E+00 0. -1.
         25    1    1    2    0    0 -0.57865932929E+02  0.27496710618E+03  0.48306298993E+03  0.57265192562E+03  0.12500000000E+03 0.  0.
          3    1    1    2  501    0  0.35514023249E+02 -0.26469727667E+03  0.94176068340E+03  0.97889686838E+03  0.00000000000E+00 0. -1.
         -3    1    1    2    0  503  0.22351909680E+02 -0.10269829513E+02  0.29221501960E+03  0.29324852079E+03  0.00000000000E+00 0.  1.
<mgrwt>
<rscale>  4 0.30287904E+03</rscale>
<asrwt>0</asrwt>
<pdfrwt beam="1">  1       21 0.27398735E+00 0.30287904E+03</pdfrwt>
<pdfrwt beam="2">  1       21 0.98275877E-02 0.30287904E+03</pdfrwt>
<totfact> 0.36540082E+03</totfact>
</mgrwt>
</event>
<event>
 5    0  0.1972558E-002  0.2583762E+03  0.7546771E-02  0.1108123E+00
         21   -1    0    0  501  502  0.00000000000E+00  0.00000000000E+00  0.17658330459E+04  0.17658330459E+04  0.00000000000E+00 0. -1.
         21   -1    0    0  502  503 -0.00000000000E+00 -0.00000000000E+00 -0.80991237746E+02  0.80991237746E+02  0.00000000000E+00 0. -1.
         25    1    1    2    0    0  0.24062990551E+02 -0.23318697255E+03  0.22845936875E+03  0.35039103135E+03  0.12500000000E+03 0.  0.
          1    1    1    2  501    0 -0.20774803169E+02  0.20915748649E+03  0.53609996033E+03  0.57583123748E+03  0.00000000000E+00 0.  1.
         -1    1    1    2    0  503 -0.32881873821E+01  0.24029486064E+02  0.92028247913E+03  0.92060201486E+03  0.00000000000E+00 0. -1.
<mgrwt>
<rscale>  4 0.25837620E+03</rscale>
<asrwt>0</asrwt>
<pdfrwt beam="1">  1       21 0.27166659E+00 0.25837620E+03</pdfrwt>
<pdfrwt beam="2">  1       21 0.12460192E-01 0.25837620E+03</pdfrwt>
<totfact> 0.25513424E+03</totfact>
</mgrwt>
</event>
<event>
 5    0  0.1972558E-002  0.2928902E+03  0.7546771E-02  0.1088850E+00
         21   -1    0    0  501  502  0.00000000000E+00  0.00000000000E+00  0.38348743154E+03  0.38348743154E+03  0.00000000000E+00 0. -1.
         21   -1    0    0  502  503 -0.00000000000E+00 -0.00000000000E+00 -0.72072546288E+03  0.72072546288E+03  0.00000000000E+00 0.  1.
         25    1    1    2    0    0  0.23133703771E+03 -0.13914372303E+03 -0.49357772471E+03  0.57630007028E+03  0.12500000000E+03 0.  0.
          3    1    1    2  501    0  0.24113209594E+01  0.36158327731E+02  0.25242179449E+03  0.25500980661E+03  0.00000000000E+00 0.  1.
         -3    1    1    2    0  503 -0.23374835867E+03  0.10298539530E+03 -0.96082101124E+02  0.27290301754E+03  0.00000000000E+00 0. -1.
<mgrwt>
<rscale>  4 0.29289020E+03</rscale>
<asrwt>0</asrwt>
<pdfrwt beam="1">  1       21 0.58998067E-01 0.29289020E+03</pdfrwt>
<pdfrwt beam="2">  1       21 0.11088084E+00 0.29289020E+03</pdfrwt>
<totfact> 0.15924456E+03</totfact>
</mgrwt>
</event>
<event>
 5    0  0.1972558E-002  0.2835718E+03  0.7546771E-02  0.1093754E+00
         21   -1    0    0  501  502  0.00000000000E+00  0.00000000000E+00  0.73553871680E+03  0.73553871680E+03  0.00000000000E+00 0. -1.
         21   -1    0    0  502  503 -0.00000000000E+00 -0.00000000000E+00 -0.34465397814E+03  0.34465397814E+03  0.00000000000E+00 0. -1.
         25    1    1    2    0    0 -0.15021235366E+02 -0.25218377187E+03 -0.24241044677E+03  0.37176621284E+03  0.12500000000E+03 0.  0.
          4    1    1    2  501    0 -0.37747945053E+02 -0.15316678270E+02  0.12712061778E+03  0.13348842442E+03  0.00000000000E+00 0.  1.
         -4    1    1    2    0  503  0.52769180420E+02  0.26750045014E+03  0.50617456766E+03  0.57493805768E+03  0.00000000000E+00 0. -1.
<mgrwt>
<rscale>  4 0.28357183E+03</rscale>
<asrwt>0</asrwt>
<pdfrwt beam="1">  1       21 0.11315980E+00 0.28357183E+03</pdfrwt>
<pdfrwt beam="2">  1       21 0.53023689E-01 0.28357183E+03</pdfrwt>
<totfact> 0.19153253E+03</totfact>
</mgrwt>
</event>
<event>
 5    0  0.1972558E-002  0.3192602E+03  0.7546771E-02  0.1075990E+00
         21   -1    0    0  501  502  0.00000000000E+00  0.00000000000E+00  0.16002304160E+04  0.16002304160E+04  0.00000000000E+00 0. -1.
         21   -1    0    0  502  503 -0.00000000000E+00 -0.00000000000E+00 -0.12510315565E+03  0.12510315565E+03  0.00000000000E+00 0.  1.
         25    1    1    2    0    0  0.11656272584E+03 -0.26965760486E+03  0.12836710053E+03  0.34410057456E+03  0.12500000000E+03 0.  0.
          1    1    1    2  501    0 -0.10195316527E+03  0.24301760772E+03  0.10361082734E+04  0.10690988541E+04  0.00000000000E+00 0. -1.
         -1    1    1    2    0  503 -0.14609560564E+02  0.26639997136E+02  0.31065188641E+03  0.31213414302E+03  0.00000000000E+00 0.  1.
<mgrwt>
<rscale>  4 0.31926023E+03</rscale>
<asrwt>0</asrwt>
<pdfrwt beam="1">  1       21 0.24618928E+00 0.31926023E+03</pdfrwt>
<pdfrwt beam="2">  1       21 0.19246641E-01 0.31926023E+03</pdfrwt>
<totfact> 0.15495909E+03</totfact>
</mgrwt>
</event>
<event>
 5    0  0.1972558E-002  0.2516416E+03  0.7546771E-02  0.1112272E+00
         21   -1    0    0  501  502  0.00000000000E+00  0.00000000000E+00  0.41056817782E+03  0.41056817782E+03  0.00000000000E+00 0. -1.
         21   -1    0    0  502  503 -0.00000000000E+00 -0.00000000000E+00 -0.18001935773E+03  0.18001935773E+03  0.00000000000E+00 0.  1.
         25    1    1    2    0    0  0.78825637333E+02  0.20367871708E+03 -0.24015202073E+02  0.25278494975E+03  0.12500000000E+03 0.  0.
          3    1    1    2  501    0 -0.51259509676E+02 -0.16983042506E+03  0.19080011876E+03  0.26052753391E+03  0.00000000000E+00 0. -1.
         -3    1    1    2    0  503 -0.27566127657E+02 -0.33848292011E+02  0.63763903402E+02  0.77275051881E+02  0.00000000000E+00 0.  1.
<mgrwt>
<rscale>  4 0.25164161E+03</rscale>
<asrwt>0</asrwt>
<pdfrwt beam="1">  1       21 0.63164335E-01 0.25164161E+03</pdfrwt>
<pdfrwt beam="2">  1       21 0.27695286E-01 0.25164161E+03</pdfrwt>
<totfact> 0.28008781E+04</totfact>
</mgrwt>
</event>
<event>
 5    0  0.1972558E-002  0.3093405E+03  0.7546771E-02  0.1080662E+00
         21   -1    0    0  501  502  0.00000000000E+00  0.00000000000E+00  0.68817338970E+03  0.68817338970E+03  0.00000000000E+00 0.  1.
         21   -1    0    0  502  503 -0.00000000000E+00 -0.00000000000E+00 -0.29360395417E+03  0.29360395417E+03  0.00000000000E+00 0.  1.
         25    1    1    2    0    0  0.11758473610E+03  0.28456667702E+03  0.32033240228E+03  0.46156495944E+03  0.12500000000E+03 0.  0.
          4    1    1    2  501    0 -0.12006824597E+02 -0.28013683416E+02  0.20940279237E+03  0.21160921471E+03  0.00000000000E+00 0. -1.
         -4    1    1    2    0  503 -0.10557791151E+03 -0.25655299360E+03 -0.13516575912E+03  0.30860316972E+03  0.00000000000E+00 0.  1.
<mgrwt>
<rscale>  4 0.30934054E+03</rscale>
<asrwt>0</asrwt>
<pdfrwt beam="1">  1       21 0.10587283E+00 0.30934054E+03</pdfrwt>
<pdfrwt beam="2">  1       21 0.45169839E-01 0.30934054E+03</pdfrwt>
<totfact> 0.31105335E+03</totfact>
</mgrwt>
</event>
<event>
 5    0  0.1972558E-002  0.1991188E+03  0.7546771E-02  0.1150485E+00
         21   -1    0    0  501  502  0.00000000000E+00  0.00000000000E+00  0.16154579173E+04  0.16154579173E+04  0.00000000000E+00 0.  1.
         21   -1    0    0  502  503 -0.00000000000E+00 -0.00000000000E+00 -0.40151548799E+02  0.40151548799E+02  0.00000000000E+00 0. -1.
         25    1    1    2    0    0  0.18333800081E+03  0.10024261362E+03  0.66080366381E+03  0.70423567521E+03  0.12500000000E+03 0.  0.
          3    1    1    2  501    0 -0.53682009489E+02 -0.66810267558E+02  0.64260367061E+03  0.64829379719E+03  0.00000000000E+00 0. -1.
         -3    1    1    2    0  503 -0.12965599132E+03 -0.33432346059E+02  0.27189903409E+03  0.30307999371E+03  0.00000000000E+00 0.  1.
<mgrwt>
<rscale>  4 0.19911883E+03</rscale>
<asrwt>0</asrwt>
<pdfrwt beam="1">  1       21 0.24853194E+00 0.19911883E+03</pdfrwt>
<pdfrwt beam="2">  1       21 0.61771626E-02 0.19911883E+03</pdfrwt>
<totfact> 0.12648972E+04</totfact>
</mgrwt>
</event>
<event>
 5    0  0.1972558E-002  0.2374450E+03  0.7546771E-02  0.1121507E+00
         21   -1    0    0  503  502  0.00000000000E+00  0.00000000000E+00  0.56367301045E+03  0.56367301045E+03  0.00000000000E+00 0. -1.
         21   -1    0    0  501  503 -0.00000000000E+00 -0.00000000000E+00 -0.86733217974E+03  0.86733217974E+03  0.00000000000E+00 0.  1.
         25    1    1    2    0    0 -0.13135637206E+03 -0.15293330243E+03 -0.79200324379E+03  0.82676310371E+03  0.12500000000E+03 0.  0.
          3    1    1    2  501    0  0.63254947809E+02 -0.63919292808E+02  0.33860879538E+02  0.96090704954E+02  0.00000000000E+00 0.  1.
         -3    1    1    2    0  502  0.68101424248E+02  0.21685259524E+03  0.45448319496E+03  0.50815138153E+03  0.00000000000E+00 0. -1.
<mgrwt>
<rscale>  4 0.23744500E+03</rscale>
<asrwt>0</asrwt>
<pdfrwt beam="1">  1       21 0.86718925E-01 0.23744500E+03</pdfrwt>
<pdfrwt beam="2">  1       21 0.13343572E+00 0.23744500E+03</pdfrwt>
<totfact> 0.44189918E+02</totfact>
</mgrwt>
</event>
<event>
 5    0  0.1972558E-002  0.5085566E+03  0.7546771E-02  0.1011569E+00
         21   -1    0    0  501  502  0.00000000000E+00  0.00000000000E+00  0.42242957318E+03  0.42242957318E+03  0.00000000000E+00 0.  1.
         21   -1    0    0  502  503 -0.00000000000E+00 -0.00000000000E+00 -0.10140062808E+04  0.10140062808E+04  0.00000000000E+00 0.  1.
         25    1    1    2    0    0  0.52642510363E+03 -0.51746486997E+02 -0.57914730506E+03  0.79425291287E+03  0.12500000000E+03 0.  0.
          2    1    1    2  501    0 -0.48236352867E+03 -0.46763263397E+02  0.90556386358E+02  0.49301301778E+03  0.00000000000E+00 0.  1.
         -2    1    1    2    0  503 -0.44061574961E+02  0.98509750394E+02 -0.10298578897E+03  0.14916992338E+03  0.00000000000E+00 0. -1.
<mgrwt>
<rscale>  4 0.50855661E+03</rscale>
<asrwt>0</asrwt>
<pdfrwt beam="1">  1       21 0.64989166E-01 0.50855661E+03</pdfrwt>
<pdfrwt beam="2">  1       21 0.15600096E+00 0.50855661E+03</pdfrwt>
<totfact> 0.47605445E+02</totfact>
</mgrwt>
</event>
<event>
 5    0  0.1972558E-002  0.3032397E+03  0.7546771E-02  0.1083632E+00
         21   -1    0    0  501  502  0.00000000000E+00  0.00000000000E+00  0.14707073543E+04  0.14707073543E+04  0.00000000000E+00 0.  1.
         21   -1    0    0  502  503 -0.00000000000E+00 -0.00000000000E+00 -0.14011918067E+03  0.14011918067E+03  0.00000000000E+00 0.  1.
         25    1    1    2    0    0 -0.23116201455E+03  0.18843202817E+03  0.13303496140E+03  0.34966527876E+03  0.12500000000E+03 0.  0.
          4    1    1    2  501    0  0.48099098136E+02 -0.40924881250E+02  0.77533625041E+03  0.77790402387E+03  0.00000000000E+00 0. -1.
         -4    1    1    2    0  503  0.18306291642E+03 -0.14750714692E+03  0.42221696183E+03  0.48325723235E+03  0.00000000000E+00 0.  1.
<mgrwt>
<rscale>  4 0.30323972E+03</rscale>
<asrwt>0</asrwt>
<pdfrwt beam="1">  1       21 0.22626266E+00 0.30323972E+03</pdfrwt>
<pdfrwt beam="2">  1       21 0.21556798E-01 0.30323972E+03</pdfrwt>
<totfact> 0.16754186E+03</totfact>
</mgrwt>
</event>
<event>
 5    0  0.1972558E-002  0.2502512E+03  0.7546771E-02  0.1113146E+00
         21   -1    0    0  501  502  0.00000000000E+00  0.00000000000E+00  0.47428842111E+03  0.47428842111E+03  0.00000000000E+00 0. -1.
         21   -1    0    0  502  503 -0.00000000000E+00 -0.00000000000E+00 -0.11177416016E+04  0.11177416016E+04  0.00000000000E+00 0.  1.
         25    1    1    2    0    0 -0.84013028544E+02  0.19686299687E+03 -0.10337834306E+04  0.10630834445E+04  0.12500000000E+03 0.  0.
          3    1    1    2  501    0 -0.22761465256E+02  0.50117774385E+02  0.17761234692E+03  0.18594628630E+03  0.00000000000E+00 0.  1.
         -3    1    1    2    0  503  0.10677449380E+03 -0.24698077126E+03  0.21271790323E+03  0.34300029191E+03  0.00000000000E+00 0. -1.
<mgrwt>
<rscale>  4 0.25025120E+03</rscale>
<asrwt>0</asrwt>
<pdfrwt beam="1">  1       21 0.72967450E-01 0.25025120E+03</pdfrwt>
<pdfrwt beam="2">  1       21 0.17196025E+00 0.25025120E+03</pdfrwt>
<totfact> 0.32824999E+02</totfact>
</mgrwt>
</event>
<event>
 5    0  0.1972558E-002  0.2436623E+03  0.7546771E-02  0.1117377E+00
         21   -1    0    0  501  502  0.00000000000E+00  0.00000000000E+00  0.62849273671E+03  0.62849273671E+03  0.00000000000E+00 0.  1.
         21   -1    0    0  502  503 -0.00000000000E+00 -0.00000000000E+00 -0.18622618837E+03  0.18622618837E+03  0.00000000000E+00 0.  1.
         25    1    1    2    0    0  0.21898691362E+03 -0.21873576609E+02  0.29647694063E+03  0.38981700581E+03  0.12500000000E+03 0.  0.
          2    1    1    2  501    0 -0.19912631417E+03 -0.54753746841E+02  0.23014695889E+03  0.30921979962E+03  0.00000000000E+00 0.  1.
         -2    1    1    2    0  503 -0.19860599447E+02  0.76627323450E+02 -0.84357351182E+02  0.11568211966E+03  0.00000000000E+00 0. -1.
<mgrwt>
<rscale>  4 0.24366234E+03</rscale>
<asrwt>0</asrwt>
<pdfrwt beam="1">  1       21 0.96691189E-01 0.24366234E+03</pdfrwt>
<pdfrwt beam="2">  1       21 0.28650183E-01 0.24366234E+03</pdfrwt>
<totfact> 0.10022620E+04</totfact>
</mgrwt>
</event>
<event>
 5    0  0.1972558E-002  0.2625994E+03  0.7546771E-02  0.1105591E+00
         21   -1    0    0  501  502  0.00000000000E+00  0.00000000000E+00  0.42132800932E+03  0.42132800932E+03  0.00000000000E+00 0. -1.
         21   -1    0    0  502  503 -0.00000000000E+00 -0.00000000000E+00 -0.28078502458E+03  0.28078502458E+03  0.00000000000E+00 0.  1.
         25    1    1    2    0    0 -0.22054006054E+03 -0.63735783334E+02 -0.10674823323E+03  0.28234793018E+03  0.12500000000E+03 0.  0.
          2    1    1    2  501    0  0.22968588504E+03  0.44887945418E+02  0.74346845124E+02  0.24555648395E+03  0.00000000000E+00 0.  1.
         -2    1    1    2    0  503 -0.91458245029E+01  0.18847837916E+02  0.17294437284E+03  0.17420861976E+03  0.00000000000E+00 0. -1.
<mgrwt>
<rscale>  4 0.26259943E+03</rscale>
<asrwt>0</asrwt>
<pdfrwt beam="1">  1       21 0.64819694E-01 0.26259943E+03</pdfrwt>
<pdfrwt beam="2">  1       21 0.43197696E-01 0.26259943E+03</pdfrwt>
<totfact> 0.10834687E+04</totfact>
</mgrwt>
</event>
<event>
 5    0  0.1972558E-002  0.2952182E+03  0.7546771E-02  0.1087656E+00
         21   -1    0    0  501  502  0.00000000000E+00  0.00000000000E+00  0.17440068263E+04  0.17440068263E+04  0.00000000000E+00 0.  1.
         21   -1    0    0  502  503 -0.00000000000E+00 -0.00000000000E+00 -0.91673006450E+02  0.91673006450E+02  0.00000000000E+00 0. -1.
         25    1    1    2    0    0  0.23786207802E+03  0.12335389979E+03  0.26964496482E+03  0.40015991779E+03  0.12500000000E+03 0.  0.
          1    1    1    2  501    0 -0.12155406951E+02  0.19470413405E+02  0.72908286400E+03  0.72944408525E+03  0.00000000000E+00 0. -1.
         -1    1    1    2    0  503 -0.22570667107E+03 -0.14282431320E+03  0.65360599107E+03  0.70607582976E+03  0.00000000000E+00 0.  1.
<mgrwt>
<rscale>  4 0.29521822E+03</rscale>
<asrwt>0</asrwt>
<pdfrwt beam="1">  1       21 0.26830872E+00 0.29521822E+03</pdfrwt>
<pdfrwt beam="2">  1       21 0.14103541E-01 0.29521822E+03</pdfrwt>
<totfact> 0.20687304E+03</totfact>
</mgrwt>
</event>
<event>
 5    0  0.1972558E-002  0.2501800E+03  0.7546771E-02  0.1113191E+00
         21   -1    0    0  501  502  0.00000000000E+00  0.00000000000E+00  0.27424946736E+03  0.27424946736E+03  0.00000000000E+00 0.  1.
         21   -1    0    0  502  503 -0.00000000000E+00 -0.00000000000E+00 -0.38411994629E+03  0.38411994629E+03  0.00000000000E+00 0.  1.
         25    1    1    2    0    0 -0.21312527724E+03 -0.34532967334E+02 -0.23633957563E+03  0.34365142898E+03  0.12500000000E+03 0.  0.
          1    1    1    2  501    0  0.69387936039E+01 -0.51337432697E+02  0.64888331379E+02  0.83031165243E+02  0.00000000000E+00 0. -1.
         -1    1    1    2    0  503  0.20618648363E+03  0.85870400031E+02  0.61580765323E+02  0.23168681942E+03  0.00000000000E+00 0.  1.
<mgrwt>
<rscale>  4 0.25017999E+03</rscale>
<asrwt>0</asrwt>
<pdfrwt beam="1">  1       21 0.42192226E-01 0.25017999E+03</pdfrwt>
<pdfrwt beam="2">  1       21 0.59095376E-01 0.25017999E+03</pdfrwt>
<totfact> 0.13992395E+04</totfact>
</mgrwt>
</event>
<event>
 5    0  0.1972558E-002  0.2368297E+03  0.7546771E-02  0.1121923E+00
         21   -1    0    0  501  502  0.00000000000E+00  0.00000000000E+00  0.29644788901E+03  0.29644788901E+03  0.00000000000E+00 0.  1.
         21   -1    0    0  502  503 -0.00000000000E+00 -0.00000000000E+00 -0.10719575133E+04  0.10719575133E+04  0.00000000000E+00 0. -1.
         25    1    1    2    0    0  0.15798800887E+03 -0.13304946412E+03 -0.97764851818E+03  0.10070173762E+04  0.12500000000E+03 0.  0.
          1    1    1    2  501    0 -0.13988694222E+03  0.93629845451E+02  0.14671736903E+02  0.16896793905E+03  0.00000000000E+00 0. -1.
         -1    1    1    2    0  503 -0.18101066648E+02  0.39419618665E+02  0.18746715700E+03  0.19242008705E+03  0.00000000000E+00 0.  1.
<mgrwt>
<rscale>  4 0.23682968E+03</rscale>
<asrwt>0</asrwt>
<pdfrwt beam="1">  1       21 0.45607368E-01 0.23682968E+03</pdfrwt>
<pdfrwt beam="2">  1       21 0.16491654E+00 0.23682968E+03</pdfrwt>
<totfact> 0.10236252E+03</totfact>
</mgrwt>
</event>
<event>
 5    0  0.1972558E-002  0.2516847E+03  0.7546771E-02  0.1112245E+00
         21   -1    0    0  501  502  0.00000000000E+00  0.00000000000E+00  0.65920724721E+03  0.65920724721E+03  0.00000000000E+00 0.  1.
         21   -1    0    0  502  503 -0.00000000000E+00 -0.00000000000E+00 -0.23028465946E+03  0.23028465946E+03  0.00000000000E+00 0. -1.
         25    1    1    2    0    0  0.73961901528E+02 -0.20656260537E+03 -0.10746440793E+03  0.27443044982E+03  0.12500000000E+03 0.  0.
          3    1    1    2  501    0 -0.49363890568E+02  0.21038048223E+03  0.26231605665E+03  0.33986240535E+03  0.00000000000E+00 0. -1.
         -3    1    1    2    0  503 -0.24598010960E+02 -0.38178768614E+01  0.27407093903E+03  0.27519905150E+03  0.00000000000E+00 0.  1.
<mgrwt>
<rscale>  4 0.25168470E+03</rscale>
<asrwt>0</asrwt>
<pdfrwt beam="1">  1       21 0.10141650E+00 0.25168470E+03</pdfrwt>
<pdfrwt beam="2">  1       21 0.35428409E-01 0.25168470E+03</pdfrwt>
<totfact> 0.58536209E+03</totfact>
</mgrwt>
</event>
<event>
 5    0  0.1972558E-002  0.2967358E+03  0.7546771E-02  0.1086884E+00
         21   -1    0    0  503  502  0.00000000000E+00  0.00000000000E+00  0.16789827089E+04  0.16789827089E+04  0.00000000000E+00 0.  1.
         21   -1    0    0  501  503 -0.00000000000E+00 -0.00000000000E+00 -0.73513757493E+02  0.73513757493E+02  0.00000000000E+00 0. -1.
         25    1    1    2    0    0  0.15800803511E+03  0.18111643852E+03  0.78821568124E+03  0.83347385299E+03  0.12500000000E+03 0.  0.
          1    1    1    2  501    0  0.98173795452E+02  0.10050462680E+02  0.15656047157E+03  0.18506833109E+03  0.00000000000E+00 0. -1.
         -1    1    1    2    0  502 -0.25618183056E+03 -0.19116690120E+03  0.66069279864E+03  0.73395428236E+03  0.00000000000E+00 0.  1.
<mgrwt>
<rscale>  4 0.29673581E+03</rscale>
<asrwt>0</asrwt>
<pdfrwt beam="1">  1       21 0.25830500E+00 0.29673581E+03</pdfrwt>
<pdfrwt beam="2">  1       21 0.11309810E-01 0.29673581E+03</pdfrwt>
<totfact> 0.35372671E+03</totfact>
</mgrwt>
</event>
<event>
 5    0  0.1972558E-002  0.3057688E+03  0.7546771E-02  0.1082481E+00
         21   -1    0    0  503  502  0.00000000000E+00  0.00000000000E+00  0.48023776660E+03  0.48023776660E+03  0.00000000000E+00 0. -1.
         21   -1    0    0  501  503 -0.00000000000E+00 -0.00000000000E+00 -0.46981291567E+03  0.46981291567E+03  0.00000000000E+00 0. -1.
         25    1    1    2    0    0  0.87292399844E+02  0.26420051427E+03 -0.35861316304E+03  0.47079748886E+03  0.12500000000E+03 0.  0.
          3    1    1    2  501    0 -0.85322482374E+02 -0.10138388867E+03  0.10509587785E+03  0.16912646872E+03  0.00000000000E+00 0.  1.
         -3    1    1    2    0  502 -0.19699174702E+01 -0.16281662560E+03  0.26394213612E+03  0.31012672469E+03  0.00000000000E+00 0. -1.
<mgrwt>
<rscale>  4 0.30558541E+03</rscale>
<asrwt>0</asrwt>
<pdfrwt beam="1">  1       21 0.73882734E-01 0.30576881E+03</pdfrwt>
<pdfrwt beam="2">  1       21 0.72278910E-01 0.30576881E+03</pdfrwt>
<totfact> 0.26240823E+03</totfact>
</mgrwt>
</event>
<event>
 5    0  0.1972558E-002  0.2373554E+03  0.7546771E-02  0.1121567E+00
         21   -1    0    0  501  502  0.00000000000E+00  0.00000000000E+00  0.36078294676E+03  0.36078294676E+03  0.00000000000E+00 0. -1.
         21   -1    0    0  502  503 -0.00000000000E+00 -0.00000000000E+00 -0.47899315538E+03  0.47899315538E+03  0.00000000000E+00 0.  1.
         25    1    1    2    0    0  0.16306139240E+03  0.12398970934E+03 -0.40577513361E+03  0.47142435742E+03  0.12500000000E+03 0.  0.
          2    1    1    2  501    0 -0.18444881514E+02 -0.13445865586E+02  0.11596815706E+03  0.11819314027E+03  0.00000000000E+00 0.  1.
         -2    1    1    2    0  503 -0.14461651088E+03 -0.11054384376E+03  0.17159676794E+03  0.25015860445E+03  0.00000000000E+00 0. -1.
<mgrwt>
<rscale>  4 0.23735545E+03</rscale>
<asrwt>0</asrwt>
<pdfrwt beam="1">  1       21 0.55505069E-01 0.23735545E+03</pdfrwt>
<pdfrwt beam="2">  1       21 0.73691254E-01 0.23735545E+03</pdfrwt>
<totfact> 0.48971656E+03</totfact>
</mgrwt>
</event>
<event>
 5    0  0.1972558E-002  0.1987134E+03  0.7546771E-02  0.1150829E+00
         21   -1    0    0  501  502  0.00000000000E+00  0.00000000000E+00  0.43891583283E+03  0.43891583283E+03  0.00000000000E+00 0.  1.
         21   -1    0    0  502  503 -0.00000000000E+00 -0.00000000000E+00 -0.25326179556E+03  0.25326179556E+03  0.00000000000E+00 0. -1.
         25    1    1    2    0    0  0.16509986123E+03  0.11615709831E+03 -0.15517854690E+02  0.23794167243E+03  0.12500000000E+03 0.  0.
          1    1    1    2  501    0 -0.13728109548E+03  0.35982681446E+02 -0.57280037575E+02  0.15304200484E+03  0.00000000000E+00 0. -1.
         -1    1    1    2    0  503 -0.27818765751E+02 -0.15213977976E+03  0.25845192953E+03  0.30119395112E+03  0.00000000000E+00 0.  1.
<mgrwt>
<rscale>  4 0.19871344E+03</rscale>
<asrwt>0</asrwt>
<pdfrwt beam="1">  1       21 0.67525513E-01 0.19871344E+03</pdfrwt>
<pdfrwt beam="2">  1       21 0.38963353E-01 0.19871344E+03</pdfrwt>
<totfact> 0.12685576E+04</totfact>
</mgrwt>
</event>
<event>
 5    0  0.1972558E-002  0.2561614E+03  0.7546771E-02  0.1109472E+00
         21   -1    0    0  501  502  0.00000000000E+00  0.00000000000E+00  0.49840292017E+03  0.49840292017E+03  0.00000000000E+00 0.  1.
         21   -1    0    0  502  503 -0.00000000000E+00 -0.00000000000E+00 -0.25742098512E+03  0.25742098512E+03  0.00000000000E+00 0.  1.
         25    1    1    2    0    0 -0.21272693949E+03  0.82366551620E+02 -0.32222470717E+02  0.26210739637E+03  0.12500000000E+03 0.  0.
          1    1    1    2  501    0  0.21854911635E+03 -0.36030678457E+02  0.50820808588E+01  0.22155756271E+03  0.00000000000E+00 0.  1.
         -1    1    1    2    0  503 -0.58221768612E+01 -0.46335873163E+02  0.26812232492E+03  0.27215894621E+03  0.00000000000E+00 0. -1.
<mgrwt>
<rscale>  4 0.25616145E+03</rscale>
<asrwt>0</asrwt>
<pdfrwt beam="1">  1       21 0.76677372E-01 0.25616145E+03</pdfrwt>
<pdfrwt beam="2">  1       21 0.39603229E-01 0.25616145E+03</pdfrwt>
<totfact> 0.89350156E+03</totfact>
</mgrwt>
</event>
<event>
 5    0  0.1972558E-002  0.2379556E+03  0.7546771E-02  0.1121162E+00
         21   -1    0    0  501  502  0.00000000000E+00  0.00000000000E+00  0.20776403602E+03  0.20776403602E+03  0.00000000000E+00 0.  1.
         21   -1    0    0  502  503 -0.00000000000E+00 -0.00000000000E+00 -0.36627794179E+03  0.36627794179E+03  0.00000000000E+00 0.  1.
         25    1    1    2    0    0 -0.14475882756E+01  0.21838893853E+03 -0.15387922856E+03  0.29495701545E+03  0.12500000000E+03 0.  0.
          3    1    1    2  501    0  0.72127761179E+02 -0.17763978655E+03 -0.29076793845E+02  0.19391690911E+03  0.00000000000E+00 0.  1.
         -3    1    1    2    0  503 -0.70680172903E+02 -0.40749151976E+02  0.24442116634E+02  0.85168053247E+02  0.00000000000E+00 0. -1.
<mgrwt>
<rscale>  4 0.23795556E+03</rscale>
<asrwt>0</asrwt>
<pdfrwt beam="1">  1       21 0.31963699E-01 0.23795556E+03</pdfrwt>
<pdfrwt beam="2">  1       21 0.56350451E-01 0.23795556E+03</pdfrwt>
<totfact> 0.27233578E+04</totfact>
</mgrwt>
</event>
<event>
 5    0  0.1972558E-002  0.3043172E+03  0.7546771E-02  0.1083102E+00
         21   -1    0    0  501  502  0.00000000000E+00  0.00000000000E+00  0.43170576050E+03  0.43170576050E+03  0.00000000000E+00 0.  1.
         21   -1    0    0  502  503 -0.00000000000E+00 -0.00000000000E+00 -0.26784810762E+03  0.26784810762E+03  0.00000000000E+00 0.  1.
         25    1    1    2    0    0 -0.29073890058E+03 -0.25039554431E+02 -0.27610593901E+02  0.31865880263E+03  0.12500000000E+03 0.  0.
          1    1    1    2  501    0  0.25857581474E+03  0.21309171091E+02  0.90373139143E+02  0.27474140027E+03  0.00000000000E+00 0.  1.
         -1    1    1    2    0  503  0.32163085839E+02  0.37303833398E+01  0.10109510764E+03  0.10615366522E+03  0.00000000000E+00 0. -1.
<mgrwt>
<rscale>  4 0.30431720E+03</rscale>
<asrwt>0</asrwt>
<pdfrwt beam="1">  1       21 0.66416271E-01 0.30431720E+03</pdfrwt>
<pdfrwt beam="2">  1       21 0.41207401E-01 0.30431720E+03</pdfrwt>
<totfact> 0.11093194E+04</totfact>
</mgrwt>
</event>
<event>
 5    0  0.1972558E-002  0.2635785E+03  0.7546771E-02  0.1105012E+00
         21   -1    0    0  501  502  0.00000000000E+00  0.00000000000E+00  0.79908609447E+02  0.79908609447E+02  0.00000000000E+00 0. -1.
         21   -1    0    0  502  503 -0.00000000000E+00 -0.00000000000E+00 -0.21471915281E+04  0.21471915281E+04  0.00000000000E+00 0.  1.
         25    1    1    2    0    0  0.16892322154E+02 -0.21531878820E+03 -0.10237963971E+04  0.10537701808E+04  0.12500000000E+03 0.  0.
          2    1    1    2  501    0  0.40041084354E+02 -0.26512007613E+02  0.39519446328E+02  0.62192938683E+02  0.00000000000E+00 0. -1.
         -2    1    1    2    0  503 -0.56933406508E+02  0.24183079582E+03 -0.10830059678E+04  0.11111370181E+04  0.00000000000E+00 0.  1.
<mgrwt>
<rscale>  4 0.26357852E+03</rscale>
<asrwt>0</asrwt>
<pdfrwt beam="1">  1       21 0.12293634E-01 0.26357852E+03</pdfrwt>
<pdfrwt beam="2">  1       21 0.33033712E+00 0.26357852E+03</pdfrwt>
<totfact> 0.11773206E+03</totfact>
</mgrwt>
</event>
<event>
 5    0  0.1972558E-002  0.2414152E+03  0.7546771E-02  0.1118854E+00
         21   -1    0    0  501  502  0.00000000000E+00  0.00000000000E+00  0.80514272037E+03  0.80514272037E+03  0.00000000000E+00 0. -1.
         21   -1    0    0  502  503 -0.00000000000E+00 -0.00000000000E+00 -0.17323604771E+03  0.17323604771E+03  0.00000000000E+00 0. -1.
         25    1    1    2    0    0 -0.85680618261E+02 -0.18829382894E+03 -0.39307145721E+02  0.24487912543E+03  0.12500000000E+03 0.  0.
          3    1    1    2  501    0 -0.19894510646E+02  0.10983266251E+02  0.35611970659E+03  0.35684404032E+03  0.00000000000E+00 0.  1.
         -3    1    1    2    0  503  0.10557512891E+03  0.17731056269E+03  0.31509411179E+03  0.37665560233E+03  0.00000000000E+00 0. -1.
<mgrwt>
<rscale>  4 0.24141517E+03</rscale>
<asrwt>0</asrwt>
<pdfrwt beam="1">  1       21 0.12386811E+00 0.24141517E+03</pdfrwt>
<pdfrwt beam="2">  1       21 0.26651700E-01 0.24141517E+03</pdfrwt>
<totfact> 0.63136808E+03</totfact>
</mgrwt>
</event>
<event>
 5    0  0.1972558E-002  0.1835980E+03  0.7546771E-02  0.1164366E+00
         21   -1    0    0  501  502  0.00000000000E+00  0.00000000000E+00  0.87343180021E+03  0.87343180021E+03  0.00000000000E+00 0. -1.
         21   -1    0    0  502  503 -0.00000000000E+00 -0.00000000000E+00 -0.17968909326E+03  0.17968909326E+03  0.00000000000E+00 0.  1.
         25    1    1    2    0    0  0.13136538794E+03 -0.15467953216E+03 -0.57743424710E+02  0.24523850823E+03  0.12500000000E+03 0.  0.
          2    1    1    2  501    0 -0.62020280985E+02  0.42576621084E+02  0.41806038131E+02  0.86064096699E+02  0.00000000000E+00 0.  1.
         -2    1    1    2    0  503 -0.69345106958E+02  0.11210291108E+03  0.70968009353E+03  0.72181828855E+03  0.00000000000E+00 0. -1.
<mgrwt>
<rscale>  4 0.18359802E+03</rscale>
<asrwt>0</asrwt>
<pdfrwt beam="1">  1       21 0.13437412E+00 0.18359802E+03</pdfrwt>
<pdfrwt beam="2">  1       21 0.27644476E-01 0.18359802E+03</pdfrwt>
<totfact> 0.50016819E+03</totfact>
</mgrwt>
</event>
<event>
 5    0  0.1972558E-002  0.2695714E+03  0.7546771E-02  0.1101525E+00
         21   -1    0    0  501  502  0.00000000000E+00  0.00000000000E+00  0.18353976395E+03  0.18353976395E+03  0.00000000000E+00 0.  1.
         21   -1    0    0  502  503 -0.00000000000E+00 -0.00000000000E+00 -0.78083099430E+03  0.78083099430E+03  0.00000000000E+00 0.  1.
         25    1    1    2    0    0  0.23171477505E+02 -0.22771522114E+03 -0.52852541455E+03  0.58936852066E+03  0.12500000000E+03 0.  0.
          3    1    1    2  501    0  0.46441468535E+01 -0.36146698714E+02  0.67516490071E+02  0.76724366139E+02  0.00000000000E+00 0. -1.
         -3    1    1    2    0  503 -0.27815624358E+02  0.26386191986E+03 -0.13628230587E+03  0.29827787146E+03  0.00000000000E+00 0.  1.
<mgrwt>
<rscale>  4 0.26957138E+03</rscale>
<asrwt>0</asrwt>
<pdfrwt beam="1">  1       21 0.28236887E-01 0.26957138E+03</pdfrwt>
<pdfrwt beam="2">  1       21 0.12012784E+00 0.26957138E+03</pdfrwt>
<totfact> 0.59922843E+03</totfact>
</mgrwt>
</event>
<event>
 5    0  0.1972558E-002  0.2622893E+03  0.7546771E-02  0.1105776E+00
         21   -1    0    0  501  502  0.00000000000E+00  0.00000000000E+00  0.18555688928E+03  0.18555688928E+03  0.00000000000E+00 0. -1.
         21   -1    0    0  502  503 -0.00000000000E+00 -0.00000000000E+00 -0.55789402402E+03  0.55789402402E+03  0.00000000000E+00 0. -1.
         25    1    1    2    0    0  0.18566924128E+03  0.89323380721E+02  0.27804114803E+01  0.24100718701E+03  0.12500000000E+03 0.  0.
          2    1    1    2  501    0 -0.23307394249E+03 -0.52301492634E+02 -0.37215848032E+03  0.44222261733E+03  0.00000000000E+00 0. -1.
         -2    1    1    2    0  503  0.47404701209E+02 -0.37021888088E+02 -0.29590658974E+01  0.60221108968E+02  0.00000000000E+00 0.  1.
<mgrwt>
<rscale>  4 0.26228928E+03</rscale>
<asrwt>0</asrwt>
<pdfrwt beam="1">  1       21 0.28547214E-01 0.26228928E+03</pdfrwt>
<pdfrwt beam="2">  1       21 0.85829849E-01 0.26228928E+03</pdfrwt>
<totfact> 0.13204225E+04</totfact>
</mgrwt>
</event>
<event>
 5    0  0.1972558E-002  0.2127122E+03  0.7546771E-02  0.1139436E+00
         21   -1    0    0  501  502  0.00000000000E+00  0.00000000000E+00  0.38637880861E+03  0.38637880861E+03  0.00000000000E+00 0. -1.
         21   -1    0    0  502  503 -0.00000000000E+00 -0.00000000000E+00 -0.10605194517E+04  0.10605194517E+04  0.00000000000E+00 0.  1.
         25    1    1    2    0    0  0.27064236667E+03  0.69107630833E+02 -0.87428544926E+03  0.92629541835E+03  0.12500000000E+03 0.  0.
          4    1    1    2  501    0 -0.10115235625E+03 -0.79793551681E+02 -0.10842345691E+03  0.16838781450E+03  0.00000000000E+00 0.  1.
         -4    1    1    2    0  503 -0.16949001043E+03  0.10685920847E+02  0.30856826311E+03  0.35221502742E+03  0.00000000000E+00 0. -1.
<mgrwt>
<rscale>  4 0.21271222E+03</rscale>
<asrwt>0</asrwt>
<pdfrwt beam="1">  1       21 0.59442894E-01 0.21271222E+03</pdfrwt>
<pdfrwt beam="2">  1       21 0.16315684E+00 0.21271222E+03</pdfrwt>
<totfact> 0.61743579E+02</totfact>
</mgrwt>
</event>
<event>
 5    0  0.1972558E-002  0.2945548E+03  0.7546771E-02  0.1087995E+00
         21   -1    0    0  501  502  0.00000000000E+00  0.00000000000E+00  0.10840299796E+03  0.10840299796E+03  0.00000000000E+00 0.  1.
         21   -1    0    0  502  503 -0.00000000000E+00 -0.00000000000E+00 -0.16445246088E+04  0.16445246088E+04  0.00000000000E+00 0. -1.
         25    1    1    2    0    0  0.21418739693E+03  0.17537791692E+03 -0.68170582851E+03  0.74631192632E+03  0.12500000000E+03 0.  0.
          2    1    1    2  501    0 -0.14211019353E+03 -0.22467484205E+03 -0.87700973661E+03  0.91641702836E+03  0.00000000000E+00 0. -1.
         -2    1    1    2    0  503 -0.72077203393E+02  0.49296925130E+02  0.22593954246E+02  0.90198652122E+02  0.00000000000E+00 0.  1.
<mgrwt>
<rscale>  4 0.29455481E+03</rscale>
<asrwt>0</asrwt>
<pdfrwt beam="1">  1       21 0.16677385E-01 0.29455481E+03</pdfrwt>
<pdfrwt beam="2">  1       21 0.25300378E+00 0.29455481E+03</pdfrwt>
<totfact> 0.18753703E+03</totfact>
</mgrwt>
</event>
<event>
 5    0  0.1972558E-002  0.3437911E+03  0.7546771E-02  0.1065193E+00
         21   -1    0    0  501  502  0.00000000000E+00  0.00000000000E+00  0.56311903792E+03  0.56311903792E+03  0.00000000000E+00 0. -1.
         21   -1    0    0  502  503 -0.00000000000E+00 -0.00000000000E+00 -0.88967686092E+03  0.88967686092E+03  0.00000000000E+00 0.  1.
         25    1    1    2    0    0 -0.18107043582E+03 -0.26335485557E+03 -0.74811164505E+03  0.82306641053E+03  0.12500000000E+03 0.  0.
          3    1    1    2  501    0  0.22600122002E+03  0.23836843391E+03  0.16408570156E+03  0.36717867475E+03  0.00000000000E+00 0.  1.
         -3    1    1    2    0  503 -0.44930784208E+02  0.24986421668E+02  0.25746812049E+03  0.26255081357E+03  0.00000000000E+00 0. -1.
<mgrwt>
<rscale>  4 0.34379108E+03</rscale>
<asrwt>0</asrwt>
<pdfrwt beam="1">  1       21 0.86633698E-01 0.34379108E+03</pdfrwt>
<pdfrwt beam="2">  1       21 0.13687336E+00 0.34379108E+03</pdfrwt>
<totfact> 0.38217166E+02</totfact>
</mgrwt>
</event>
<event>
 5    0  0.1972558E-002  0.2403810E+03  0.7546771E-02  0.1119539E+00
         21   -1    0    0  501  502  0.00000000000E+00  0.00000000000E+00  0.82741835393E+03  0.82741835393E+03  0.00000000000E+00 0.  1.
         21   -1    0    0  502  503 -0.00000000000E+00 -0.00000000000E+00 -0.83717699721E+02  0.83717699721E+02  0.00000000000E+00 0.  1.
         25    1    1    2    0    0  0.18338617492E+03 -0.12943651049E+03  0.27455379971E+03  0.37601740430E+03  0.12500000000E+03 0.  0.
          4    1    1    2  501    0 -0.18087762622E+03  0.81237302753E+02  0.42798462265E+03  0.47168533181E+03  0.00000000000E+00 0.  1.
         -4    1    1    2    0  503 -0.25085486984E+01  0.48199207737E+02  0.41162231852E+02  0.63433317539E+02  0.00000000000E+00 0. -1.
<mgrwt>
<rscale>  4 0.24038101E+03</rscale>
<asrwt>0</asrwt>
<pdfrwt beam="1">  1       21 0.12729513E+00 0.24038101E+03</pdfrwt>
<pdfrwt beam="2">  1       21 0.12879647E-01 0.24038101E+03</pdfrwt>
<totfact> 0.22909388E+04</totfact>
</mgrwt>
</event>
<event>
 5    0  0.1972558E-002  0.3148210E+03  0.7546771E-02  0.1078058E+00
         21   -1    0    0  501  502  0.00000000000E+00  0.00000000000E+00  0.13270995737E+03  0.13270995737E+03  0.00000000000E+00 0. -1.
         21   -1    0    0  502  503 -0.00000000000E+00 -0.00000000000E+00 -0.10819103186E+04  0.10819103186E+04  0.00000000000E+00 0. -1.
         25    1    1    2    0    0  0.26755464177E+03 -0.14011242589E+03 -0.77821509051E+03  0.84407387432E+03  0.12500000000E+03 0.  0.
          4    1    1    2  501    0 -0.30413700641E+02  0.27424310515E+02  0.20293766401E+02  0.45704736611E+02  0.00000000000E+00 0.  1.
         -4    1    1    2    0  503 -0.23714094113E+03  0.11268811537E+03 -0.19127903715E+03  0.32484166506E+03  0.00000000000E+00 0. -1.
<mgrwt>
<rscale>  4 0.31482096E+03</rscale>
<asrwt>0</asrwt>
<pdfrwt beam="1">  1       21 0.20416918E-01 0.31482096E+03</pdfrwt>
<pdfrwt beam="2">  1       21 0.16644773E+00 0.31482096E+03</pdfrwt>
<totfact> 0.46159722E+03</totfact>
</mgrwt>
</event>
<event>
 5    0  0.1972558E-002  0.2823624E+03  0.7546771E-02  0.1094406E+00
         21   -1    0    0  501  502  0.00000000000E+00  0.00000000000E+00  0.77821672085E+02  0.77821672085E+02  0.00000000000E+00 0. -1.
         21   -1    0    0  502  503 -0.00000000000E+00 -0.00000000000E+00 -0.21555687219E+04  0.21555687219E+04  0.00000000000E+00 0.  1.
         25    1    1    2    0    0  0.17943747474E+02  0.25278971246E+03 -0.11991907454E+04  0.12320341151E+04  0.12500000000E+03 0.  0.
          1    1    1    2  501    0 -0.56751146948E+02 -0.24807376224E+03 -0.91389087087E+03  0.94866106068E+03  0.00000000000E+00 0.  1.
         -1    1    1    2    0  503  0.38807399473E+02 -0.47159502181E+01  0.35334566454E+02  0.52695218254E+02  0.00000000000E+00 0. -1.
<mgrwt>
<rscale>  4 0.28236244E+03</rscale>
<asrwt>0</asrwt>
<pdfrwt beam="1">  1       21 0.11972567E-01 0.28236244E+03</pdfrwt>
<pdfrwt beam="2">  1       21 0.33162591E+00 0.28236244E+03</pdfrwt>
<totfact> 0.11910014E+03</totfact>
</mgrwt>
</event>
<event>
 5    0  0.1972558E-002  0.2341934E+03  0.7546771E-02  0.1123723E+00
         21   -1    0    0  501  502  0.00000000000E+00  0.00000000000E+00  0.46179000525E+03  0.46179000525E+03  0.00000000000E+00 0. -1.
         21   -1    0    0  502  503 -0.00000000000E+00 -0.00000000000E+00 -0.18482594449E+03  0.18482594449E+03  0.00000000000E+00 0.  1.
         25    1    1    2    0    0 -0.19991418119E+03  0.54239914979E+02 -0.24322547996E+01  0.24194744074E+03  0.12500000000E+03 0.  0.
          2    1    1    2  501    0  0.14319640430E+02 -0.25417379981E+02  0.19771649349E+03  0.19985721679E+03  0.00000000000E+00 0. -1.
         -2    1    1    2    0  503  0.18559454076E+03 -0.28822534998E+02  0.81679822080E+02  0.20481129221E+03  0.00000000000E+00 0.  1.
<mgrwt>
<rscale>  4 0.23419342E+03</rscale>
<asrwt>0</asrwt>
<pdfrwt beam="1">  1       21 0.71044616E-01 0.23419342E+03</pdfrwt>
<pdfrwt beam="2">  1       21 0.28434761E-01 0.23419342E+03</pdfrwt>
<totfact> 0.20714317E+04</totfact>
</mgrwt>
</event>
<event>
 5    0  0.1972558E-002  0.2428254E+03  0.7546771E-02  0.1117925E+00
         21   -1    0    0  501  502  0.00000000000E+00  0.00000000000E+00  0.11772909021E+04  0.11772909021E+04  0.00000000000E+00 0.  1.
         21   -1    0    0  502  503 -0.00000000000E+00 -0.00000000000E+00 -0.61478733313E+02  0.61478733313E+02  0.00000000000E+00 0.  1.
         25    1    1    2    0    0  0.22856173086E+03  0.26584488637E+02  0.45373478694E+03  0.52387732985E+03  0.12500000000E+03 0.  0.
          2    1    1    2  501    0 -0.19380947131E+03 -0.45783753963E+02  0.63823092351E+03  0.66857832378E+03  0.00000000000E+00 0.  1.
         -2    1    1    2    0  503 -0.34752259550E+02  0.19199265327E+02  0.23846458318E+02  0.46313981768E+02  0.00000000000E+00 0. -1.
<mgrwt>
<rscale>  4 0.24282538E+03</rscale>
<asrwt>0</asrwt>
<pdfrwt beam="1">  1       21 0.18112166E+00 0.24282538E+03</pdfrwt>
<pdfrwt beam="2">  1       21 0.94582675E-02 0.24282538E+03</pdfrwt>
<totfact> 0.15458916E+04</totfact>
</mgrwt>
</event>
<event>
 5    0  0.1972558E-002  0.2697719E+03  0.7546771E-02  0.1101410E+00
         21   -1    0    0  501  502  0.00000000000E+00  0.00000000000E+00  0.25435677015E+03  0.25435677015E+03  0.00000000000E+00 0.  1.
         21   -1    0    0  502  503 -0.00000000000E+00 -0.00000000000E+00 -0.57608416023E+03  0.57608416023E+03  0.00000000000E+00 0. -1.
         25    1    1    2    0    0 -0.23528226690E+03 -0.39785068437E+02 -0.44049791881E+03  0.51633711203E+03  0.12500000000E+03 0.  0.
          2    1    1    2  501    0  0.24158214003E+03  0.14276646407E+02  0.59411641636E+02  0.24918967912E+03  0.00000000000E+00 0. -1.
         -2    1    1    2    0  503 -0.62998731359E+01  0.25508422030E+02  0.59358887088E+02  0.64914139232E+02  0.00000000000E+00 0.  1.
<mgrwt>
<rscale>  4 0.26977189E+03</rscale>
<asrwt>0</asrwt>
<pdfrwt beam="1">  1       21 0.39131811E-01 0.26977189E+03</pdfrwt>
<pdfrwt beam="2">  1       21 0.88628332E-01 0.26977189E+03</pdfrwt>
<totfact> 0.65183799E+03</totfact>
</mgrwt>
</event>
<event>
 5    0  0.1972558E-002  0.4067294E+03  0.7546771E-02  0.1041474E+00
         21   -1    0    0  501  502  0.00000000000E+00  0.00000000000E+00  0.11020440635E+04  0.11020440635E+04  0.00000000000E+00 0.  1.
         21   -1    0    0  502  503 -0.00000000000E+00 -0.00000000000E+00 -0.65342927741E+03  0.65342927741E+03  0.00000000000E+00 0. -1.
         25    1    1    2    0    0  0.99491746899E+02  0.37088673062E+03 -0.48763035515E+03  0.63313816653E+03  0.12500000000E+03 0.  0.
          1    1    1    2  501    0 -0.13238419413E+03 -0.38443031393E+03  0.35427841061E+03  0.53928233176E+03  0.00000000000E+00 0. -1.
         -1    1    1    2    0  503  0.32892447228E+02  0.13543583313E+02  0.58196673066E+03  0.58305284266E+03  0.00000000000E+00 0.  1.
<mgrwt>
<rscale>  4 0.40672937E+03</rscale>
<asrwt>0</asrwt>
<pdfrwt beam="1">  1       21 0.16954524E+00 0.40672937E+03</pdfrwt>
<pdfrwt beam="2">  1       21 0.10052758E+00 0.40672937E+03</pdfrwt>
<totfact> 0.14417269E+02</totfact>
</mgrwt>
</event>
<event>
 5    0  0.1972558E-002  0.2406901E+03  0.7546771E-02  0.1119334E+00
         21   -1    0    0  501  502  0.00000000000E+00  0.00000000000E+00  0.53774962519E+03  0.53774962519E+03  0.00000000000E+00 0.  1.
         21   -1    0    0  502  503 -0.00000000000E+00 -0.00000000000E+00 -0.84466150071E+03  0.84466150071E+03  0.00000000000E+00 0. -1.
         25    1    1    2    0    0  0.20732341049E+03  0.15456172743E+02 -0.77947026101E+03  0.81634599136E+03  0.12500000000E+03 0.  0.
          2    1    1    2  501    0 -0.27051907604E+02 -0.92456674809E+02  0.25821815426E+03  0.27560235414E+03  0.00000000000E+00 0.  1.
         -2    1    1    2    0  503 -0.18027150289E+03  0.77000502066E+02  0.21434023123E+03  0.29046278040E+03  0.00000000000E+00 0. -1.
<mgrwt>
<rscale>  4 0.24069008E+03</rscale>
<asrwt>0</asrwt>
<pdfrwt beam="1">  1       21 0.82730712E-01 0.24069008E+03</pdfrwt>
<pdfrwt beam="2">  1       21 0.12994792E+00 0.24069008E+03</pdfrwt>
<totfact> 0.52527869E+02</totfact>
</mgrwt>
</event>
<event>
 5    0  0.1972558E-002  0.2409661E+03  0.7546771E-02  0.1119151E+00
         21   -1    0    0  501  502  0.00000000000E+00  0.00000000000E+00  0.23058400682E+03  0.23058400682E+03  0.00000000000E+00 0. -1.
         21   -1    0    0  502  503 -0.00000000000E+00 -0.00000000000E+00 -0.15274180270E+04  0.15274180270E+04  0.00000000000E+00 0.  1.
         25    1    1    2    0    0 -0.20197719850E+03  0.10377075805E+02 -0.13142769653E+04  0.13356090049E+04  0.12500000000E+03 0.  0.
          2    1    1    2  501    0  0.23188451302E+03  0.33833896167E+02 -0.12831431959E+03  0.26716984209E+03  0.00000000000E+00 0.  1.
         -2    1    1    2    0  503 -0.29907314523E+02 -0.44210971972E+02  0.14575726473E+03  0.15522318682E+03  0.00000000000E+00 0. -1.
<mgrwt>
<rscale>  4 0.24096607E+03</rscale>
<asrwt>0</asrwt>
<pdfrwt beam="1">  1       21 0.35474464E-01 0.24096607E+03</pdfrwt>
<pdfrwt beam="2">  1       21 0.23498738E+00 0.24096607E+03</pdfrwt>
<totfact> 0.59170771E+02</totfact>
</mgrwt>
</event>
<event>
 5    0  0.1972558E-002  0.3445844E+03  0.7546771E-02  0.1064860E+00
         21   -1    0    0  501  502  0.00000000000E+00  0.00000000000E+00  0.20750594073E+03  0.20750594073E+03  0.00000000000E+00 0. -1.
         21   -1    0    0  502  503 -0.00000000000E+00 -0.00000000000E+00 -0.12823778580E+04  0.12823778580E+04  0.00000000000E+00 0.  1.
         25    1    1    2    0    0  0.33119818254E+03 -0.45986668704E+02 -0.93252520818E+03  0.99851653652E+03  0.12500000000E+03 0.  0.
          2    1    1    2  501    0 -0.29547354955E+03 -0.12291448676E+02 -0.23394427083E+03  0.37707508543E+03  0.00000000000E+00 0. -1.
         -2    1    1    2    0  503 -0.35724632988E+02  0.58278117380E+02  0.91597561713E+02  0.11429217681E+03  0.00000000000E+00 0.  1.
<mgrwt>
<rscale>  4 0.34458442E+03</rscale>
<asrwt>0</asrwt>
<pdfrwt beam="1">  1       21 0.31923991E-01 0.34458442E+03</pdfrwt>
<pdfrwt beam="2">  1       21 0.19728890E+00 0.34458442E+03</pdfrwt>
<totfact> 0.11658360E+03</totfact>
</mgrwt>
</event>
<event>
 5    0  0.1972558E-002  0.2403613E+03  0.7546771E-02  0.1119552E+00
         21   -1    0    0  501  502  0.00000000000E+00  0.00000000000E+00  0.76063772366E+03  0.76063772366E+03  0.00000000000E+00 0. -1.
         21   -1    0    0  502  503 -0.00000000000E+00 -0.00000000000E+00 -0.46012908008E+03  0.46012908008E+03  0.00000000000E+00 0.  1.
         25    1    1    2    0    0 -0.22031935765E+03  0.92132153727E+02 -0.37790568307E+03  0.46418386271E+03  0.12500000000E+03 0.  0.
          3    1    1    2  501    0  0.10511986319E+03 -0.56187919731E+02  0.60213563840E+03  0.61381967629E+03  0.00000000000E+00 0. -1.
         -3    1    1    2    0  503  0.11519949445E+03 -0.35944233996E+02  0.76278688248E+02  0.14276326475E+03  0.00000000000E+00 0.  1.
<mgrwt>
<rscale>  4 0.24036129E+03</rscale>
<asrwt>0</asrwt>
<pdfrwt beam="1">  1       21 0.11702119E+00 0.24036129E+03</pdfrwt>
<pdfrwt beam="2">  1       21 0.70789089E-01 0.24036129E+03</pdfrwt>
<totfact> 0.97150996E+02</totfact>
</mgrwt>
</event>
<event>
 5    0  0.1972558E-002  0.3631207E+03  0.7546771E-02  0.1057355E+00
         21   -1    0    0  501  502  0.00000000000E+00  0.00000000000E+00  0.49195486284E+03  0.49195486284E+03  0.00000000000E+00 0.  1.
         21   -1    0    0  502  503 -0.00000000000E+00 -0.00000000000E+00 -0.78014858186E+03  0.78014858186E+03  0.00000000000E+00 0.  1.
         25    1    1    2    0    0 -0.32087399114E+03 -0.15280185597E+03 -0.57961034031E+03  0.69128986103E+03  0.12500000000E+03 0.  0.
          3    1    1    2  501    0  0.25325890109E+03  0.16265955242E+03  0.20810528715E+02  0.30171390269E+03  0.00000000000E+00 0. -1.
         -3    1    1    2    0  503  0.67615090047E+02 -0.98576964473E+01  0.27060609257E+03  0.27909968097E+03  0.00000000000E+00 0.  1.
<mgrwt>
<rscale>  4 0.36312069E+03</rscale>
<asrwt>0</asrwt>
<pdfrwt beam="1">  1       21 0.75685364E-01 0.36312069E+03</pdfrwt>
<pdfrwt beam="2">  1       21 0.12002286E+00 0.36312069E+03</pdfrwt>
<totfact> 0.72264366E+02</totfact>
</mgrwt>
</event>
<event>
 5    0  0.1297746E-001  0.5449269E+03  0.7546771E-02  0.1025900E+00
         21   -1    0    0  501  502  0.00000000000E+00  0.00000000000E+00  0.14432446084E+04  0.14432446084E+04  0.00000000000E+00 0. -1.
         21   -1    0    0  502  503 -0.00000000000E+00 -0.00000000000E+00 -0.86867365739E+03  0.86867365739E+03  0.00000000000E+00 0.  1.
         25    1    1    2    0    0 -0.11436520417E+03 -0.20711467154E+03 -0.27223209032E+03  0.38172136185E+03  0.12500000000E+03 0.  0.
          2    1    1    2  501    0  0.47177165772E+03  0.31751780405E+03  0.12542087619E+04  0.13771077196E+04  0.00000000000E+00 0. -1.
         -2    1    1    2    0  503 -0.35740645355E+03 -0.11040313252E+03 -0.40740572056E+03  0.55308918436E+03  0.00000000000E+00 0.  1.
<mgrwt>
<rscale>  4 0.45616133E+03</rscale>
<asrwt>0</asrwt>
<pdfrwt beam="1">  1       21 0.22203763E+00 0.54492686E+03</pdfrwt>
<pdfrwt beam="2">  1       21 0.13364210E+00 0.54492686E+03</pdfrwt>
<totfact> 0.28626224E+01</totfact>
</mgrwt>
</event>
<event>
 5    0  0.1972558E-002  0.2899876E+03  0.7546771E-02  0.1090356E+00
         21   -1    0    0  501  502  0.00000000000E+00  0.00000000000E+00  0.15571522687E+03  0.15571522687E+03  0.00000000000E+00 0. -1.
         21   -1    0    0  502  503 -0.00000000000E+00 -0.00000000000E+00 -0.15772349076E+04  0.15772349076E+04  0.00000000000E+00 0.  1.
         25    1    1    2    0    0 -0.24950076566E+03 -0.78290665707E+02 -0.13061152208E+04  0.13378871516E+04  0.12500000000E+03 0.  0.
          2    1    1    2  501    0  0.14819027538E+02 -0.47471613236E+02  0.58702384219E+02  0.76935866496E+02  0.00000000000E+00 0.  1.
         -2    1    1    2    0  503  0.23468173812E+03  0.12576227894E+03 -0.17410684420E+03  0.31812711644E+03  0.00000000000E+00 0. -1.
<mgrwt>
<rscale>  4 0.28998758E+03</rscale>
<asrwt>0</asrwt>
<pdfrwt beam="1">  1       21 0.23956189E-01 0.28998758E+03</pdfrwt>
<pdfrwt beam="2">  1       21 0.24265152E+00 0.28998758E+03</pdfrwt>
<totfact> 0.10973411E+03</totfact>
</mgrwt>
</event>
<event>
 5    0  0.1972558E-002  0.2649235E+03  0.7546771E-02  0.1104221E+00
         21   -1    0    0  501  502  0.00000000000E+00  0.00000000000E+00  0.56917486237E+03  0.56917486237E+03  0.00000000000E+00 0.  1.
         21   -1    0    0  502  503 -0.00000000000E+00 -0.00000000000E+00 -0.35553391001E+03  0.35553391001E+03  0.00000000000E+00 0. -1.
         25    1    1    2    0    0  0.15145850184E+03  0.15678881484E+03 -0.16966256173E+03  0.30320421351E+03  0.12500000000E+03 0.  0.
          1    1    1    2  501    0 -0.13400889115E+03 -0.30760279666E+03  0.28859155893E+03  0.44256406464E+03  0.00000000000E+00 0.  1.
         -1    1    1    2    0  503 -0.17449610695E+02  0.15081398183E+03  0.94711955147E+02  0.17894049423E+03  0.00000000000E+00 0. -1.
<mgrwt>
<rscale>  4 0.26492353E+03</rscale>
<asrwt>0</asrwt>
<pdfrwt beam="1">  1       21 0.87565363E-01 0.26492353E+03</pdfrwt>
<pdfrwt beam="2">  1       21 0.54697525E-01 0.26492353E+03</pdfrwt>
<totfact> 0.33510117E+03</totfact>
</mgrwt>
</event>
<event>
 5    0  0.1972558E-002  0.2636042E+03  0.7546771E-02  0.1104997E+00
         21   -1    0    0  501  502  0.00000000000E+00  0.00000000000E+00  0.16947160264E+03  0.16947160264E+03  0.00000000000E+00 0. -1.
         21   -1    0    0  502  503 -0.00000000000E+00 -0.00000000000E+00 -0.57076137424E+03  0.57076137424E+03  0.00000000000E+00 0. -1.
         25    1    1    2    0    0  0.19104592498E+03 -0.13177114905E+03 -0.42169356504E+03  0.49730538301E+03  0.12500000000E+03 0.  0.
          4    1    1    2  501    0 -0.13633401016E+03  0.55232232315E+02  0.22576584863E+02  0.14881956859E+03  0.00000000000E+00 0. -1.
         -4    1    1    2    0  503 -0.54711914827E+02  0.76538916739E+02 -0.21727914308E+01  0.94108025281E+02  0.00000000000E+00 0.  1.
<mgrwt>
<rscale>  4 0.26360421E+03</rscale>
<asrwt>0</asrwt>
<pdfrwt beam="1">  1       21 0.26072554E-01 0.26360421E+03</pdfrwt>
<pdfrwt beam="2">  1       21 0.87809442E-01 0.26360421E+03</pdfrwt>
<totfact> 0.14926400E+04</totfact>
</mgrwt>
</event>
<event>
 5    0  0.1972558E-002  0.2338437E+03  0.7546771E-02  0.1123963E+00
         21   -1    0    0  501  502  0.00000000000E+00  0.00000000000E+00  0.93937690349E+03  0.93937690349E+03  0.00000000000E+00 0. -1.
         21   -1    0    0  502  503 -0.00000000000E+00 -0.00000000000E+00 -0.14101153711E+03  0.14101153711E+03  0.00000000000E+00 0.  1.
         25    1    1    2    0    0  0.16266819091E+03 -0.13261649181E+03  0.20937375928E+02  0.24517636090E+03  0.12500000000E+03 0.  0.
          4    1    1    2  501    0 -0.15273160542E+03  0.84224846350E+02  0.24635812598E+03  0.30184945630E+03  0.00000000000E+00 0.  1.
         -4    1    1    2    0  503 -0.99365854926E+01  0.48391645456E+02  0.53106986447E+03  0.53336262339E+03  0.00000000000E+00 0. -1.
<mgrwt>
<rscale>  4 0.23384370E+03</rscale>
<asrwt>0</asrwt>
<pdfrwt beam="1">  1       21 0.14451952E+00 0.23384370E+03</pdfrwt>
<pdfrwt beam="2">  1       21 0.21694083E-01 0.23384370E+03</pdfrwt>
<totfact> 0.63306570E+03</totfact>
</mgrwt>
</event>
<event>
 5    0  0.1972558E-002  0.3765341E+03  0.7546771E-02  0.1052222E+00
         21   -1    0    0  501  502  0.00000000000E+00  0.00000000000E+00  0.75330747606E+03  0.75330747606E+03  0.00000000000E+00 0.  1.
         21   -1    0    0  502  503 -0.00000000000E+00 -0.00000000000E+00 -0.27584559204E+03  0.27584559204E+03  0.00000000000E+00 0. -1.
         25    1    1    2    0    0 -0.28201009190E+03  0.21937324543E+03 -0.10994074788E+02  0.37868216544E+03  0.12500000000E+03 0.  0.
          4    1    1    2  501    0  0.29447302572E+03 -0.19205806773E+03  0.30759642243E+03  0.46713619357E+03  0.00000000000E+00 0.  1.
         -4    1    1    2    0  503 -0.12462933819E+02 -0.27315177697E+02  0.18085953639E+03  0.18333470908E+03  0.00000000000E+00 0. -1.
<mgrwt>
<rscale>  4 0.37653406E+03</rscale>
<asrwt>0</asrwt>
<pdfrwt beam="1">  1       21 0.11589346E+00 0.37653406E+03</pdfrwt>
<pdfrwt beam="2">  1       21 0.42437784E-01 0.37653406E+03</pdfrwt>
<totfact> 0.27414115E+03</totfact>
</mgrwt>
</event>
<event>
 5    0  0.1972558E-002  0.2894501E+03  0.7546771E-02  0.1090637E+00
         21   -1    0    0  501  502  0.00000000000E+00  0.00000000000E+00  0.17304280443E+04  0.17304280443E+04  0.00000000000E+00 0.  1.
         21   -1    0    0  502  503 -0.00000000000E+00 -0.00000000000E+00 -0.14623500400E+03  0.14623500400E+03  0.00000000000E+00 0. -1.
         25    1    1    2    0    0 -0.13741035157E+03 -0.24401022126E+03  0.91980310896E+02  0.32016865929E+03  0.12500000000E+03 0.  0.
          4    1    1    2  501    0  0.12999846478E+03  0.18337701878E+03  0.37214852969E+03  0.43476575304E+03  0.00000000000E+00 0. -1.
         -4    1    1    2    0  503  0.74118867890E+01  0.60633202484E+02  0.11200641997E+04  0.11217286360E+04  0.00000000000E+00 0.  1.
<mgrwt>
<rscale>  4 0.28945011E+03</rscale>
<asrwt>0</asrwt>
<pdfrwt beam="1">  1       21 0.26621969E+00 0.28945011E+03</pdfrwt>
<pdfrwt beam="2">  1       21 0.22497694E-01 0.28945011E+03</pdfrwt>
<totfact> 0.89444132E+02</totfact>
</mgrwt>
</event>
<event>
 5    0  0.1972558E-002  0.2400562E+03  0.7546771E-02  0.1119755E+00
         21   -1    0    0  501  502  0.00000000000E+00  0.00000000000E+00  0.11088399567E+04  0.11088399567E+04  0.00000000000E+00 0.  1.
         21   -1    0    0  502  503 -0.00000000000E+00 -0.00000000000E+00 -0.44561522773E+03  0.44561522773E+03  0.00000000000E+00 0. -1.
         25    1    1    2    0    0  0.21334640966E+03  0.39098899510E+02 -0.23770318149E+03  0.34521474034E+03  0.12500000000E+03 0.  0.
          3    1    1    2  501    0 -0.24628821754E+02 -0.55321111785E+01  0.99527812213E+03  0.99559817371E+03  0.00000000000E+00 0.  1.
         -3    1    1    2    0  503 -0.18871758791E+03 -0.33566788332E+02 -0.94350211635E+02  0.21364227040E+03  0.00000000000E+00 0. -1.
<mgrwt>
<rscale>  4 0.24005620E+03</rscale>
<asrwt>0</asrwt>
<pdfrwt beam="1">  1       21 0.17059076E+00 0.24005620E+03</pdfrwt>
<pdfrwt beam="2">  1       21 0.68556189E-01 0.24005620E+03</pdfrwt>
<totfact> 0.38932095E+02</totfact>
</mgrwt>
</event>
<event>
 5    0  0.1972558E-002  0.1770569E+03  0.7546771E-02  0.1170682E+00
         21   -1    0    0  501  502  0.00000000000E+00  0.00000000000E+00  0.17266611622E+04  0.17266611622E+04  0.00000000000E+00 0. -1.
         21   -1    0    0  502  503 -0.00000000000E+00 -0.00000000000E+00 -0.50274839219E+02  0.50274839219E+02  0.00000000000E+00 0. -1.
         25    1    1    2    0    0 -0.21346302613E+03 -0.23590735845E+02  0.44704682171E+03  0.51146734709E+03  0.12500000000E+03 0.  0.
          2    1    1    2  501    0  0.11457192519E+03  0.22360420394E+02  0.10803752329E+04  0.10866634061E+04  0.00000000000E+00 0.  1.
         -2    1    1    2    0  503  0.98891100942E+02  0.12303154502E+01  0.14896426845E+03  0.17880524824E+03  0.00000000000E+00 0. -1.
<mgrwt>
<rscale>  4 0.17705693E+03</rscale>
<asrwt>0</asrwt>
<pdfrwt beam="1">  1       21 0.26564013E+00 0.17705693E+03</pdfrwt>
<pdfrwt beam="2">  1       21 0.77345920E-02 0.17705693E+03</pdfrwt>
<totfact> 0.69724914E+03</totfact>
</mgrwt>
</event>
<event>
 5    0  0.1972558E-002  0.2928257E+03  0.7546771E-02  0.1088883E+00
         21   -1    0    0  501  502  0.00000000000E+00  0.00000000000E+00  0.30659457310E+03  0.30659457310E+03  0.00000000000E+00 0. -1.
         21   -1    0    0  502  503 -0.00000000000E+00 -0.00000000000E+00 -0.55131217619E+03  0.55131217619E+03  0.00000000000E+00 0.  1.
         25    1    1    2    0    0 -0.27051364835E+03  0.34173987391E+02 -0.33520444800E+03  0.44981386964E+03  0.12500000000E+03 0.  0.
          1    1    1    2  501    0  0.23277719788E+02  0.10957576406E+02  0.14804559984E+03  0.15026450130E+03  0.00000000000E+00 0.  1.
         -1    1    1    2    0  503  0.24723592856E+03 -0.45131563797E+02 -0.57558754922E+02  0.25782837836E+03  0.00000000000E+00 0. -1.
<mgrwt>
<rscale>  4 0.29282567E+03</rscale>
<asrwt>0</asrwt>
<pdfrwt beam="1">  1       21 0.47168396E-01 0.29282567E+03</pdfrwt>
<pdfrwt beam="2">  1       21 0.84817258E-01 0.29282567E+03</pdfrwt>
<totfact> 0.48529371E+03</totfact>
</mgrwt>
</event>
<event>
 5    0  0.1972558E-002  0.2366759E+03  0.7546771E-02  0.1122027E+00
         21   -1    0    0  501  502  0.00000000000E+00  0.00000000000E+00  0.44776111351E+03  0.44776111351E+03  0.00000000000E+00 0. -1.
         21   -1    0    0  502  503 -0.00000000000E+00 -0.00000000000E+00 -0.41678573050E+03  0.41678573050E+03  0.00000000000E+00 0. -1.
         25    1    1    2    0    0  0.19606834644E+03 -0.10560244461E+03  0.14505523803E+01  0.25538554557E+03  0.12500000000E+03 0.  0.
          1    1    1    2  501    0 -0.14020125290E+03  0.13849369902E+03 -0.25220461589E+03  0.32006884300E+03  0.00000000000E+00 0. -1.
         -1    1    1    2    0  503 -0.55867093547E+02 -0.32891254403E+02  0.28172944651E+03  0.28909245544E+03  0.00000000000E+00 0.  1.
<mgrwt>
<rscale>  4 0.23667591E+03</rscale>
<asrwt>0</asrwt>
<pdfrwt beam="1">  1       21 0.68886325E-01 0.23667591E+03</pdfrwt>
<pdfrwt beam="2">  1       21 0.64120882E-01 0.23667591E+03</pdfrwt>
<totfact> 0.41699176E+03</totfact>
</mgrwt>
</event>
<event>
 5    0  0.1972558E-002  0.2434596E+03  0.7546771E-02  0.1117509E+00
         21   -1    0    0  501  502  0.00000000000E+00  0.00000000000E+00  0.16679704236E+03  0.16679704236E+03  0.00000000000E+00 0.  1.
         21   -1    0    0  502  503 -0.00000000000E+00 -0.00000000000E+00 -0.23662960041E+04  0.23662960041E+04  0.00000000000E+00 0. -1.
         25    1    1    2    0    0 -0.13690511229E+03  0.16307956304E+03 -0.21495362642E+04  0.21636702856E+04  0.12500000000E+03 0.  0.
          2    1    1    2  501    0  0.10584159546E+03 -0.15292751043E+03 -0.16574310034E+03  0.24911853019E+03  0.00000000000E+00 0. -1.
         -2    1    1    2    0  503  0.31063516835E+02 -0.10152052606E+02  0.11578040279E+03  0.12030423068E+03  0.00000000000E+00 0.  1.
<mgrwt>
<rscale>  4 0.24345957E+03</rscale>
<asrwt>0</asrwt>
<pdfrwt beam="1">  1       21 0.25661085E-01 0.24345957E+03</pdfrwt>
<pdfrwt beam="2">  1       21 0.36404551E+00 0.24345957E+03</pdfrwt>
<totfact> 0.19267763E+02</totfact>
</mgrwt>
</event>
<event>
 5    0  0.1972558E-002  0.2312514E+03  0.7546771E-02  0.1125762E+00
         21   -1    0    0  501  502  0.00000000000E+00  0.00000000000E+00  0.45281873163E+02  0.45281873163E+02  0.00000000000E+00 0.  1.
         21   -1    0    0  502  503 -0.00000000000E+00 -0.00000000000E+00 -0.17056608888E+04  0.17056608888E+04  0.00000000000E+00 0. -1.
         25    1    1    2    0    0  0.14789686253E+03 -0.13678811344E+03 -0.13023374825E+04  0.13237418132E+04  0.12500000000E+03 0.  0.
          2    1    1    2  501    0 -0.11966190426E+02  0.17463566591E+02  0.48614069587E+01  0.21720938033E+02  0.00000000000E+00 0.  1.
         -2    1    1    2    0  503 -0.13593067210E+03  0.11932454685E+03 -0.36290294009E+03  0.40548001064E+03  0.00000000000E+00 0. -1.
<mgrwt>
<rscale>  4 0.23125140E+03</rscale>
<asrwt>0</asrwt>
<pdfrwt beam="1">  1       21 0.69664417E-02 0.23125140E+03</pdfrwt>
<pdfrwt beam="2">  1       21 0.26240938E+00 0.23125140E+03</pdfrwt>
<totfact> 0.82758920E+03</totfact>
</mgrwt>
</event>
<event>
 5    0  0.1972558E-002  0.3150793E+03  0.7546771E-02  0.1077936E+00
         21   -1    0    0  501  502  0.00000000000E+00  0.00000000000E+00  0.13112589074E+04  0.13112589074E+04  0.00000000000E+00 0.  1.
         21   -1    0    0  502  503 -0.00000000000E+00 -0.00000000000E+00 -0.80755602271E+03  0.80755602271E+03  0.00000000000E+00 0.  1.
         25    1    1    2    0    0  0.21439494926E+03  0.19606152347E+03 -0.75540439195E+03  0.81894206793E+03  0.12500000000E+03 0.  0.
          3    1    1    2  501    0 -0.18753578412E+03 -0.17322633031E+03  0.80760648761E+03  0.84699779850E+03  0.00000000000E+00 0. -1.
         -3    1    1    2    0  503 -0.26859165135E+02 -0.22835193159E+02  0.45150078905E+03  0.45287506369E+03  0.00000000000E+00 0.  1.
<mgrwt>
<rscale>  4 0.31507933E+03</rscale>
<asrwt>0</asrwt>
<pdfrwt beam="1">  1       21 0.20173214E+00 0.31507933E+03</pdfrwt>
<pdfrwt beam="2">  1       21 0.12423939E+00 0.31507933E+03</pdfrwt>
<totfact> 0.54851715E+01</totfact>
</mgrwt>
</event>
<event>
 5    0  0.1972558E-002  0.4671618E+03  0.7546771E-02  0.1022724E+00
         21   -1    0    0  501  502  0.00000000000E+00  0.00000000000E+00  0.11304444019E+03  0.11304444019E+03  0.00000000000E+00 0. -1.
         21   -1    0    0  502  503 -0.00000000000E+00 -0.00000000000E+00 -0.32505331759E+04  0.32505331759E+04  0.00000000000E+00 0.  1.
         25    1    1    2    0    0 -0.26072945769E+03  0.35688180568E+03 -0.23022572810E+04  0.23476281778E+04  0.12500000000E+03 0.  0.
          3    1    1    2  501    0  0.29310016451E+03 -0.37031053507E+03 -0.85422859770E+03  0.97608611093E+03  0.00000000000E+00 0. -1.
         -3    1    1    2    0  503 -0.32370706822E+02  0.13428729394E+02  0.18997142920E+02  0.39863327413E+02  0.00000000000E+00 0.  1.
<mgrwt>
<rscale>  4 0.46716176E+03</rscale>
<asrwt>0</asrwt>
<pdfrwt beam="1">  1       21 0.17391454E-01 0.46716176E+03</pdfrwt>
<pdfrwt beam="2">  1       21 0.50008199E+00 0.46716176E+03</pdfrwt>
<totfact> 0.41242823E+01</totfact>
</mgrwt>
</event>
<event>
 5    0  0.1972558E-002  0.3220348E+03  0.7546771E-02  0.1074903E+00
         21   -1    0    0  503  502  0.00000000000E+00  0.00000000000E+00  0.11252723826E+04  0.11252723826E+04  0.00000000000E+00 0.  1.
         21   -1    0    0  501  503 -0.00000000000E+00 -0.00000000000E+00 -0.11717554925E+03  0.11717554925E+03  0.00000000000E+00 0.  1.
         25    1    1    2    0    0 -0.27901930229E+03 -0.95831114221E+02  0.21336354670E+03  0.38494723867E+03  0.12500000000E+03 0.  0.
          2    1    1    2  501    0  0.75625861510E+02  0.10378545479E+02  0.38152204345E+03  0.38908360898E+03  0.00000000000E+00 0. -1.
         -2    1    1    2    0  502  0.20339344078E+03  0.85452568742E+02  0.41321124320E+03  0.46841708419E+03  0.00000000000E+00 0.  1.
<mgrwt>
<rscale>  4 0.32162700E+03</rscale>
<asrwt>0</asrwt>
<pdfrwt beam="1">  1       21 0.17311882E+00 0.32203485E+03</pdfrwt>
<pdfrwt beam="2">  1       21 0.18027008E-01 0.32203485E+03</pdfrwt>
<totfact> 0.52049809E+03</totfact>
</mgrwt>
</event>
<event>
 5    0  0.1972558E-002  0.5026017E+03  0.7546771E-02  0.1013102E+00
         21   -1    0    0  501  502  0.00000000000E+00  0.00000000000E+00  0.13640009736E+04  0.13640009736E+04  0.00000000000E+00 0. -1.
         21   -1    0    0  502  503 -0.00000000000E+00 -0.00000000000E+00 -0.22574270344E+03  0.22574270344E+03  0.00000000000E+00 0.  1.
         25    1    1    2    0    0  0.16715450954E+03  0.46182352239E+03  0.24346280938E+03  0.56224615201E+03  0.12500000000E+03 0.  0.
          1    1    1    2  501    0 -0.18196207765E+03 -0.44154473712E+03  0.82412489695E+03  0.95249871305E+03  0.00000000000E+00 0. -1.
         -1    1    1    2    0  503  0.14807568109E+02 -0.20278785271E+02  0.70670563794E+02  0.74998811939E+02  0.00000000000E+00 0.  1.
<mgrwt>
<rscale>  4 0.50260169E+03</rscale>
<asrwt>0</asrwt>
<pdfrwt beam="1">  1       21 0.20984630E+00 0.50260169E+03</pdfrwt>
<pdfrwt beam="2">  1       21 0.34729648E-01 0.50260169E+03</pdfrwt>
<totfact> 0.75131359E+02</totfact>
</mgrwt>
</event>
<event>
 5    0  0.1972558E-002  0.2570373E+03  0.7546771E-02  0.1108936E+00
         21   -1    0    0  501  502  0.00000000000E+00  0.00000000000E+00  0.15084403715E+03  0.15084403715E+03  0.00000000000E+00 0.  1.
         21   -1    0    0  502  503 -0.00000000000E+00 -0.00000000000E+00 -0.53737195230E+03  0.53737195230E+03  0.00000000000E+00 0. -1.
         25    1    1    2    0    0 -0.15342014897E+03  0.16402867866E+03 -0.37578729869E+03  0.45528479372E+03  0.12500000000E+03 0.  0.
          2    1    1    2  501    0  0.20131826169E+02 -0.41146636006E+01  0.11535068081E+02  0.23564351828E+02  0.00000000000E+00 0. -1.
         -2    1    1    2    0  503  0.13328832280E+03 -0.15991401506E+03 -0.22275684540E+02  0.20936684391E+03  0.00000000000E+00 0.  1.
<mgrwt>
<rscale>  4 0.25703725E+03</rscale>
<asrwt>0</asrwt>
<pdfrwt beam="1">  1       21 0.23206775E-01 0.25703725E+03</pdfrwt>
<pdfrwt beam="2">  1       21 0.82672608E-01 0.25703725E+03</pdfrwt>
<totfact> 0.21518756E+04</totfact>
</mgrwt>
</event>
<event>
 5    0  0.1972558E-002  0.2461622E+03  0.7546771E-02  0.1115754E+00
         21   -1    0    0  501  502  0.00000000000E+00  0.00000000000E+00  0.35332720127E+03  0.35332720127E+03  0.00000000000E+00 0.  1.
         21   -1    0    0  502  503 -0.00000000000E+00 -0.00000000000E+00 -0.34584722140E+03  0.34584722140E+03  0.00000000000E+00 0. -1.
         25    1    1    2    0    0  0.14487124306E+03 -0.16305811687E+03 -0.15877895375E+03  0.29734051640E+03  0.12500000000E+03 0.  0.
          1    1    1    2  501    0 -0.17074441294E+03  0.11768314685E+03 -0.20052680608E+02  0.20833887683E+03  0.00000000000E+00 0. -1.
         -1    1    1    2    0  503  0.25873169880E+02  0.45374970022E+02  0.18631161422E+03  0.19349502943E+03  0.00000000000E+00 0.  1.
<mgrwt>
<rscale>  4 0.24616222E+03</rscale>
<asrwt>0</asrwt>
<pdfrwt beam="1">  1       21 0.54358031E-01 0.24616222E+03</pdfrwt>
<pdfrwt beam="2">  1       21 0.53207265E-01 0.24616222E+03</pdfrwt>
<totfact> 0.10344884E+04</totfact>
</mgrwt>
</event>
<event>
 5    0  0.1972558E-002  0.2662997E+03  0.7546771E-02  0.1103416E+00
         21   -1    0    0  503  502  0.00000000000E+00  0.00000000000E+00  0.69651880987E+02  0.69651880987E+02  0.00000000000E+00 0.  1.
         21   -1    0    0  501  503 -0.00000000000E+00 -0.00000000000E+00 -0.21289067822E+04  0.21289067822E+04  0.00000000000E+00 0.  1.
         25    1    1    2    0    0 -0.98784905401E+02  0.24663955881E+03 -0.14889829637E+04  0.15176576675E+04  0.12500000000E+03 0.  0.
          2    1    1    2  501    0  0.15281597115E+03 -0.66504512470E+02 -0.37199079112E+03  0.40761835079E+03  0.00000000000E+00 0.  1.
         -2    1    1    2    0  502 -0.54031065750E+02 -0.18013504634E+03 -0.19828114633E+03  0.27328264485E+03  0.00000000000E+00 0. -1.
<mgrwt>
<rscale>  4 0.26629974E+03</rscale>
<asrwt>0</asrwt>
<pdfrwt beam="1">  1       21 0.10715673E-01 0.26629974E+03</pdfrwt>
<pdfrwt beam="2">  1       21 0.32752414E+00 0.26629974E+03</pdfrwt>
<totfact> 0.15613814E+03</totfact>
</mgrwt>
</event>
<event>
 5    0  0.1972558E-002  0.2572036E+03  0.7546771E-02  0.1108835E+00
         21   -1    0    0  501  502  0.00000000000E+00  0.00000000000E+00  0.42936832137E+03  0.42936832137E+03  0.00000000000E+00 0.  1.
         21   -1    0    0  502  503 -0.00000000000E+00 -0.00000000000E+00 -0.33836334093E+03  0.33836334093E+03  0.00000000000E+00 0.  1.
         25    1    1    2    0    0  0.16013811437E+02 -0.22781459709E+03 -0.23958436557E+03  0.35381012002E+03  0.12500000000E+03 0.  0.
          2    1    1    2  501    0  0.12663276242E+00  0.20374497300E+02  0.10528904126E+03  0.10724233486E+03  0.00000000000E+00 0. -1.
         -2    1    1    2    0  503 -0.16140444199E+02  0.20744009979E+03  0.22530030475E+03  0.30667920742E+03  0.00000000000E+00 0.  1.
<mgrwt>
<rscale>  4 0.25720358E+03</rscale>
<asrwt>0</asrwt>
<pdfrwt beam="1">  1       21 0.66056665E-01 0.25720358E+03</pdfrwt>
<pdfrwt beam="2">  1       21 0.52055898E-01 0.25720358E+03</pdfrwt>
<totfact> 0.70661596E+03</totfact>
</mgrwt>
</event>
<event>
 5    0  0.1972558E-002  0.2667100E+03  0.7546771E-02  0.1103177E+00
         21   -1    0    0  501  502  0.00000000000E+00  0.00000000000E+00  0.46098404266E+03  0.46098404266E+03  0.00000000000E+00 0. -1.
         21   -1    0    0  502  503 -0.00000000000E+00 -0.00000000000E+00 -0.13493745109E+04  0.13493745109E+04  0.00000000000E+00 0. -1.
         25    1    1    2    0    0 -0.14473965148E+03 -0.18611364575E+03 -0.12767652327E+04  0.13043551339E+04  0.12500000000E+03 0.  0.
          2    1    1    2  501    0 -0.57140755458E+02  0.49978644095E+02  0.13307553178E+03  0.15320583526E+03  0.00000000000E+00 0.  1.
         -2    1    1    2    0  503  0.20188040694E+03  0.13613500165E+03  0.25529923267E+03  0.35279758444E+03  0.00000000000E+00 0. -1.
<mgrwt>
<rscale>  4 0.26670996E+03</rscale>
<asrwt>0</asrwt>
<pdfrwt beam="1">  1       21 0.70920624E-01 0.26670996E+03</pdfrwt>
<pdfrwt beam="2">  1       21 0.20759607E+00 0.26670996E+03</pdfrwt>
<totfact> 0.19860571E+02</totfact>
</mgrwt>
</event>
<event>
 5    0  0.1972558E-002  0.2834253E+03  0.7546771E-02  0.1093833E+00
         21   -1    0    0  501  502  0.00000000000E+00  0.00000000000E+00  0.10688780163E+03  0.10688780163E+03  0.00000000000E+00 0. -1.
         21   -1    0    0  502  503 -0.00000000000E+00 -0.00000000000E+00 -0.15126108507E+04  0.15126108507E+04  0.00000000000E+00 0. -1.
         25    1    1    2    0    0  0.10213979920E+03 -0.23348364332E+03 -0.12709932590E+04  0.13023041176E+04  0.12500000000E+03 0.  0.
          3    1    1    2  501    0 -0.73578874696E+02  0.24233383109E+03 -0.10245263047E+03  0.27319604314E+03  0.00000000000E+00 0. -1.
         -3    1    1    2    0  503 -0.28560924500E+02 -0.88501877764E+01 -0.32277159607E+02  0.43998491613E+02  0.00000000000E+00 0.  1.
<mgrwt>
<rscale>  4 0.28342534E+03</rscale>
<asrwt>0</asrwt>
<pdfrwt beam="1">  1       21 0.16444278E-01 0.28342534E+03</pdfrwt>
<pdfrwt beam="2">  1       21 0.23270934E+00 0.28342534E+03</pdfrwt>
<totfact> 0.25757903E+03</totfact>
</mgrwt>
</event>
<event>
 5    0  0.1972558E-002  0.2623864E+03  0.7546771E-02  0.1105718E+00
         21   -1    0    0  501  502  0.00000000000E+00  0.00000000000E+00  0.94403236419E+02  0.94403236419E+02  0.00000000000E+00 0.  1.
         21   -1    0    0  502  503 -0.00000000000E+00 -0.00000000000E+00 -0.10157512547E+04  0.10157512547E+04  0.00000000000E+00 0.  1.
         25    1    1    2    0    0  0.76316338567E+02  0.22904509424E+03 -0.70461901500E+03  0.75524750581E+03  0.12500000000E+03 0.  0.
          4    1    1    2  501    0 -0.11314658636E+02 -0.25781024703E+02  0.21238185902E+02  0.35266744607E+02  0.00000000000E+00 0. -1.
         -4    1    1    2    0  503 -0.65001679931E+02 -0.20326406953E+03 -0.23796718922E+03  0.31964024074E+03  0.00000000000E+00 0.  1.
<mgrwt>
<rscale>  4 0.26238643E+03</rscale>
<asrwt>0</asrwt>
<pdfrwt beam="1">  1       21 0.14523576E-01 0.26238643E+03</pdfrwt>
<pdfrwt beam="2">  1       21 0.15626941E+00 0.26238643E+03</pdfrwt>
<totfact> 0.10648942E+04</totfact>
</mgrwt>
</event>
<event>
 5    0  0.1972558E-002  0.2601595E+03  0.7546771E-02  0.1107047E+00
         21   -1    0    0  501  502  0.00000000000E+00  0.00000000000E+00  0.28217969455E+03  0.28217969455E+03  0.00000000000E+00 0. -1.
         21   -1    0    0  502  503 -0.00000000000E+00 -0.00000000000E+00 -0.43883817366E+03  0.43883817366E+03  0.00000000000E+00 0. -1.
         25    1    1    2    0    0  0.26692727454E+03  0.39021823341E+02 -0.61005001713E+02  0.30351191545E+03  0.12500000000E+03 0.  0.
          1    1    1    2  501    0 -0.21304892371E+03 -0.18727198072E+01 -0.20137735789E+03  0.29316580845E+03  0.00000000000E+00 0. -1.
         -1    1    1    2    0  503 -0.53878350830E+02 -0.37149103534E+02  0.10572388049E+03  0.12434014431E+03  0.00000000000E+00 0.  1.
<mgrwt>
<rscale>  4 0.26015945E+03</rscale>
<asrwt>0</asrwt>
<pdfrwt beam="1">  1       21 0.43412261E-01 0.26015945E+03</pdfrwt>
<pdfrwt beam="2">  1       21 0.67513564E-01 0.26015945E+03</pdfrwt>
<totfact> 0.98181941E+03</totfact>
</mgrwt>
</event>
<event>
 5    0  0.1972558E-002  0.2402233E+03  0.7546771E-02  0.1119644E+00
         21   -1    0    0  503  502  0.00000000000E+00  0.00000000000E+00  0.27413303236E+02  0.27413303236E+02  0.00000000000E+00 0. -1.
         21   -1    0    0  501  503 -0.00000000000E+00 -0.00000000000E+00 -0.19274010227E+04  0.19274010227E+04  0.00000000000E+00 0.  1.
         25    1    1    2    0    0  0.72224059513E+02 -0.19200501205E+03 -0.12142785540E+04  0.12378124438E+04  0.12500000000E+03 0.  0.
          4    1    1    2  501    0 -0.28335257481E+02  0.34023768714E+02 -0.18050952203E+03  0.18586067684E+03  0.00000000000E+00 0.  1.
         -4    1    1    2    0  502 -0.43888802033E+02  0.15798124333E+03 -0.50519964348E+03  0.53114120529E+03  0.00000000000E+00 0. -1.
<mgrwt>
<rscale>  4 0.24022331E+03</rscale>
<asrwt>0</asrwt>
<pdfrwt beam="1">  1       21 0.42174311E-02 0.24022331E+03</pdfrwt>
<pdfrwt beam="2">  1       21 0.29652325E+00 0.24022331E+03</pdfrwt>
<totfact> 0.12249958E+04</totfact>
</mgrwt>
</event>
<event>
 5    0  0.1972558E-002  0.3213904E+03  0.7546771E-02  0.1075011E+00
         21   -1    0    0  503  502  0.00000000000E+00  0.00000000000E+00  0.22138393039E+03  0.22138393039E+03  0.00000000000E+00 0. -1.
         21   -1    0    0  501  503 -0.00000000000E+00 -0.00000000000E+00 -0.73018679308E+03  0.73018679308E+03  0.00000000000E+00 0.  1.
         25    1    1    2    0    0 -0.34763272309E+02 -0.29403794556E+03 -0.55863342449E+03  0.64448669613E+03  0.12500000000E+03 0.  0.
          2    1    1    2  501    0  0.16003104893E+02  0.26261709090E+02  0.20709585881E+02  0.37076457192E+02  0.00000000000E+00 0.  1.
         -2    1    1    2    0  502  0.18760167415E+02  0.26777623647E+03  0.29120975929E+02  0.27000757015E+03  0.00000000000E+00 0. -1.
<mgrwt>
<rscale>  4 0.32139041E+03</rscale>
<asrwt>0</asrwt>
<pdfrwt beam="1">  1       21 0.34059066E-01 0.32139041E+03</pdfrwt>
<pdfrwt beam="2">  1       21 0.11233643E+00 0.32139041E+03</pdfrwt>
<totfact> 0.47537556E+03</totfact>
</mgrwt>
</event>
<event>
 5    0  0.1972558E-002  0.5684115E+03  0.7546771E-02  0.9973200E-01
         21   -1    0    0  501  502  0.00000000000E+00  0.00000000000E+00  0.66084457205E+03  0.66084457205E+03  0.00000000000E+00 0.  1.
         21   -1    0    0  502  503 -0.00000000000E+00 -0.00000000000E+00 -0.10940947768E+04  0.10940947768E+04  0.00000000000E+00 0.  1.
         25    1    1    2    0    0  0.32041069783E+03  0.45255234452E+03 -0.87075372028E+03  0.10398575293E+04  0.12500000000E+03 0.  0.
          4    1    1    2  501    0 -0.29791047208E+03 -0.41769237145E+03  0.35864482423E+03  0.62597418196E+03  0.00000000000E+00 0.  1.
         -4    1    1    2    0  503 -0.22500225752E+02 -0.34859973073E+02  0.78858691319E+02  0.89107637597E+02  0.00000000000E+00 0. -1.
<mgrwt>
<rscale>  4 0.56841151E+03</rscale>
<asrwt>0</asrwt>
<pdfrwt beam="1">  1       21 0.10166840E+00 0.56841151E+03</pdfrwt>
<pdfrwt beam="2">  1       21 0.16832227E+00 0.56841151E+03</pdfrwt>
<totfact> 0.13202696E+02</totfact>
</mgrwt>
</event>
<event>
 5    0  0.1972558E-002  0.2430373E+03  0.7546771E-02  0.1117786E+00
         21   -1    0    0  503  502  0.00000000000E+00  0.00000000000E+00  0.64693374878E+03  0.64693374878E+03  0.00000000000E+00 0. -1.
         21   -1    0    0  501  503 -0.00000000000E+00 -0.00000000000E+00 -0.48214335689E+03  0.48214335689E+03  0.00000000000E+00 0.  1.
         25    1    1    2    0    0  0.18788380044E+03 -0.85899190133E+02 -0.41891015758E+03  0.48351805908E+03  0.12500000000E+03 0.  0.
          3    1    1    2  501    0  0.24037656362E+02 -0.26315306738E+02  0.65654991380E+02  0.74705302256E+02  0.00000000000E+00 0.  1.
         -3    1    1    2    0  502 -0.21192145680E+03  0.11221449687E+03  0.51804555809E+03  0.57085374433E+03  0.00000000000E+00 0. -1.
<mgrwt>
<rscale>  4 0.24303726E+03</rscale>
<asrwt>0</asrwt>
<pdfrwt beam="1">  1       21 0.99528270E-01 0.24303726E+03</pdfrwt>
<pdfrwt beam="2">  1       21 0.74175901E-01 0.24303726E+03</pdfrwt>
<totfact> 0.12941362E+03</totfact>
</mgrwt>
</event>
<event>
 5    0  0.1972558E-002  0.1880694E+03  0.7546771E-02  0.1160214E+00
         21   -1    0    0  501  502  0.00000000000E+00  0.00000000000E+00  0.49806649479E+02  0.49806649479E+02  0.00000000000E+00 0.  1.
         21   -1    0    0  502  503 -0.00000000000E+00 -0.00000000000E+00 -0.16153046192E+04  0.16153046192E+04  0.00000000000E+00 0.  1.
         25    1    1    2    0    0  0.21808720690E+03 -0.22936855898E+02 -0.92111721343E+03  0.95507593942E+03  0.12500000000E+03 0.  0.
          3    1    1    2  501    0 -0.12655399070E+03  0.22741633800E+02 -0.11408151190E+03  0.17189440313E+03  0.00000000000E+00 0. -1.
         -3    1    1    2    0  503 -0.91533216209E+02  0.19522209750E+00 -0.53029924441E+03  0.53814092615E+03  0.00000000000E+00 0.  1.
<mgrwt>
<rscale>  4 0.18806937E+03</rscale>
<asrwt>0</asrwt>
<pdfrwt beam="1">  1       21 0.76625613E-02 0.18806937E+03</pdfrwt>
<pdfrwt beam="2">  1       21 0.24850841E+00 0.18806937E+03</pdfrwt>
<totfact> 0.88151939E+03</totfact>
</mgrwt>
</event>
<event>
 5    0  0.1972558E-002  0.2400271E+03  0.7546771E-02  0.1119775E+00
         21   -1    0    0  503  502  0.00000000000E+00  0.00000000000E+00  0.39361705256E+03  0.39361705256E+03  0.00000000000E+00 0. -1.
         21   -1    0    0  501  503 -0.00000000000E+00 -0.00000000000E+00 -0.31471552079E+03  0.31471552079E+03  0.00000000000E+00 0.  1.
         25    1    1    2    0    0  0.21606703565E+03 -0.21286941305E+02 -0.20552993657E+03  0.32404575694E+03  0.12500000000E+03 0.  0.
          1    1    1    2  501    0 -0.68341376590E+02  0.35300475648E+02  0.17504206774E+02  0.78886403074E+02  0.00000000000E+00 0.  1.
         -1    1    1    2    0  502 -0.14772565906E+03 -0.14013534343E+02  0.26692726157E+03  0.30540041333E+03  0.00000000000E+00 0. -1.
<mgrwt>
<rscale>  4 0.24002710E+03</rscale>
<asrwt>0</asrwt>
<pdfrwt beam="1">  1       21 0.60556470E-01 0.24002710E+03</pdfrwt>
<pdfrwt beam="2">  1       21 0.48417772E-01 0.24002710E+03</pdfrwt>
<totfact> 0.10041668E+04</totfact>
</mgrwt>
</event>
<event>
 5    0  0.1972558E-002  0.2426698E+03  0.7546771E-02  0.1118027E+00
         21   -1    0    0  501  502  0.00000000000E+00  0.00000000000E+00  0.16600765583E+03  0.16600765583E+03  0.00000000000E+00 0.  1.
         21   -1    0    0  502  503 -0.00000000000E+00 -0.00000000000E+00 -0.44371925436E+03  0.44371925436E+03  0.00000000000E+00 0.  1.
         25    1    1    2    0    0  0.17898380920E+03  0.11320259463E+03 -0.28380930630E+03  0.37552996383E+03  0.12500000000E+03 0.  0.
          2    1    1    2  501    0 -0.15379578847E+03 -0.12985720559E+03 -0.67076983326E+01  0.20139769515E+03  0.00000000000E+00 0.  1.
         -2    1    1    2    0  503 -0.25188020729E+02  0.16654610952E+02  0.12805406105E+02  0.32799251206E+02  0.00000000000E+00 0. -1.
<mgrwt>
<rscale>  4 0.24266977E+03</rscale>
<asrwt>0</asrwt>
<pdfrwt beam="1">  1       21 0.25539640E-01 0.24266977E+03</pdfrwt>
<pdfrwt beam="2">  1       21 0.68264500E-01 0.24266977E+03</pdfrwt>
<totfact> 0.27740140E+04</totfact>
</mgrwt>
</event>
<event>
 5    0  0.1972558E-002  0.3113761E+03  0.7546771E-02  0.1079688E+00
         21   -1    0    0  501  502  0.00000000000E+00  0.00000000000E+00  0.75733836949E+02  0.75733836949E+02  0.00000000000E+00 0. -1.
         21   -1    0    0  502  503 -0.00000000000E+00 -0.00000000000E+00 -0.13682853386E+04  0.13682853386E+04  0.00000000000E+00 0.  1.
         25    1    1    2    0    0 -0.27627822503E+03 -0.70713485576E+02 -0.90082125850E+03  0.95311803803E+03  0.12500000000E+03 0.  0.
          2    1    1    2  501    0  0.27296016264E+02 -0.11981444080E+02 -0.19939320469E+02  0.35863686465E+02  0.00000000000E+00 0.  1.
         -2    1    1    2    0  503  0.24898220877E+03  0.82694929656E+02 -0.37179092272E+03  0.45503745109E+03  0.00000000000E+00 0. -1.
<mgrwt>
<rscale>  4 0.31137607E+03</rscale>
<asrwt>0</asrwt>
<pdfrwt beam="1">  1       21 0.11651360E-01 0.31137607E+03</pdfrwt>
<pdfrwt beam="2">  1       21 0.21050543E+00 0.31137607E+03</pdfrwt>
<totfact> 0.65402636E+03</totfact>
</mgrwt>
</event>
<event>
 5    0  0.1972558E-002  0.2369599E+03  0.7546771E-02  0.1121835E+00
         21   -1    0    0  501  502  0.00000000000E+00  0.00000000000E+00  0.25173195228E+03  0.25173195228E+03  0.00000000000E+00 0. -1.
         21   -1    0    0  502  503 -0.00000000000E+00 -0.00000000000E+00 -0.26581971593E+03  0.26581971593E+03  0.00000000000E+00 0. -1.
         25    1    1    2    0    0 -0.72268856075E+01 -0.21135646414E+03 -0.84276024329E+02  0.25971374836E+03  0.12500000000E+03 0.  0.
          3    1    1    2  501    0  0.71954770410E+01  0.21373696950E+02  0.63886968196E+02  0.67750679085E+02  0.00000000000E+00 0.  1.
         -3    1    1    2    0  503  0.31408566536E-01  0.18998276719E+03  0.63012924869E+01  0.19008724077E+03  0.00000000000E+00 0. -1.
<mgrwt>
<rscale>  4 0.23695993E+03</rscale>
<asrwt>0</asrwt>
<pdfrwt beam="1">  1       21 0.38727993E-01 0.23695993E+03</pdfrwt>
<pdfrwt beam="2">  1       21 0.40895341E-01 0.23695993E+03</pdfrwt>
<totfact> 0.36228514E+04</totfact>
</mgrwt>
</event>
<event>
 5    0  0.1972558E-002  0.2617902E+03  0.7546771E-02  0.1106072E+00
         21   -1    0    0  503  502  0.00000000000E+00  0.00000000000E+00  0.31932179357E+03  0.31932179357E+03  0.00000000000E+00 0. -1.
         21   -1    0    0  501  503 -0.00000000000E+00 -0.00000000000E+00 -0.71785187343E+03  0.71785187343E+03  0.00000000000E+00 0.  1.
         25    1    1    2    0    0 -0.28136008765E+03  0.81155842093E+02 -0.49491991646E+03  0.58849001124E+03  0.12500000000E+03 0.  0.
          2    1    1    2  501    0  0.16193775519E+03 -0.50166143092E+02 -0.11434556594E+03  0.20448810948E+03  0.00000000000E+00 0.  1.
         -2    1    1    2    0  502  0.11942233245E+03 -0.30989699001E+02  0.21073540254E+03  0.24419554627E+03  0.00000000000E+00 0. -1.
<mgrwt>
<rscale>  4 0.26179022E+03</rscale>
<asrwt>0</asrwt>
<pdfrwt beam="1">  1       21 0.49126430E-01 0.26179022E+03</pdfrwt>
<pdfrwt beam="2">  1       21 0.11043875E+00 0.26179022E+03</pdfrwt>
<totfact> 0.24227121E+03</totfact>
</mgrwt>
</event>
<event>
 5    0  0.1972558E-002  0.3637860E+03  0.7546771E-02  0.1057095E+00
         21   -1    0    0  501  502  0.00000000000E+00  0.00000000000E+00  0.61332807364E+03  0.61332807364E+03  0.00000000000E+00 0.  1.
         21   -1    0    0  502  503 -0.00000000000E+00 -0.00000000000E+00 -0.30774398503E+03  0.30774398503E+03  0.00000000000E+00 0. -1.
         25    1    1    2    0    0  0.73259309591E+02 -0.34258082797E+03 -0.40520401386E+02  0.37415966253E+03  0.12500000000E+03 0.  0.
          1    1    1    2  501    0 -0.15036433476E+01  0.34051050039E+03  0.32818999668E+03  0.47292529615E+03  0.00000000000E+00 0.  1.
         -1    1    1    2    0  503 -0.71755666243E+02  0.20703275829E+01  0.17914493320E+02  0.73987099992E+02  0.00000000000E+00 0. -1.
<mgrwt>
<rscale>  4 0.36378596E+03</rscale>
<asrwt>0</asrwt>
<pdfrwt beam="1">  1       21 0.94358165E-01 0.36378596E+03</pdfrwt>
<pdfrwt beam="2">  1       21 0.47345229E-01 0.36378596E+03</pdfrwt>
<totfact> 0.36245584E+03</totfact>
</mgrwt>
</event>
<event>
 5    0  0.1972558E-002  0.2853749E+03  0.7546771E-02  0.1092789E+00
         21   -1    0    0  501  502  0.00000000000E+00  0.00000000000E+00  0.25905796126E+03  0.25905796126E+03  0.00000000000E+00 0.  1.
         21   -1    0    0  502  503 -0.00000000000E+00 -0.00000000000E+00 -0.88911217164E+03  0.88911217164E+03  0.00000000000E+00 0.  1.
         25    1    1    2    0    0 -0.19665985982E+03 -0.16364075437E+03 -0.59493591759E+03  0.65956587464E+03  0.12500000000E+03 0.  0.
          1    1    1    2  501    0  0.13585970604E+03  0.23240041967E+03 -0.17515717624E+03  0.32116639173E+03  0.00000000000E+00 0.  1.
         -1    1    1    2    0  503  0.60800153776E+02 -0.68759665300E+02  0.14003888345E+03  0.16743786653E+03  0.00000000000E+00 0. -1.
<mgrwt>
<rscale>  4 0.28537492E+03</rscale>
<asrwt>0</asrwt>
<pdfrwt beam="1">  1       21 0.39855070E-01 0.28537492E+03</pdfrwt>
<pdfrwt beam="2">  1       21 0.13678649E+00 0.28537492E+03</pdfrwt>
<totfact> 0.21453859E+03</totfact>
</mgrwt>
</event>
<event>
 5    0  0.1972558E-002  0.4939189E+03  0.7546771E-02  0.1015749E+00
         21   -1    0    0  501  502  0.00000000000E+00  0.00000000000E+00  0.27946765692E+03  0.27946765692E+03  0.00000000000E+00 0.  1.
         21   -1    0    0  502  503 -0.00000000000E+00 -0.00000000000E+00 -0.86456130027E+03  0.86456130027E+03  0.00000000000E+00 0.  1.
         25    1    1    2    0    0  0.43231685357E+03  0.18968187829E+03 -0.31404275470E+03  0.58062460214E+03  0.12500000000E+03 0.  0.
          2    1    1    2  501    0 -0.11882044307E+02 -0.48135062754E+02 -0.18416430777E+02  0.52889811550E+02  0.00000000000E+00 0. -1.
         -2    1    1    2    0  503 -0.42043480926E+03 -0.14154681553E+03 -0.25263445787E+03  0.51051454350E+03  0.00000000000E+00 0.  1.
<mgrwt>
<rscale>  4 0.49252497E+03</rscale>
<asrwt>0</asrwt>
<pdfrwt beam="1">  1       21 0.42995025E-01 0.49391890E+03</pdfrwt>
<pdfrwt beam="2">  1       21 0.13300943E+00 0.49391890E+03</pdfrwt>
<totfact> 0.17894340E+03</totfact>
</mgrwt>
</event>
<event>
 5    0  0.1972558E-002  0.3910540E+03  0.7546771E-02  0.1046922E+00
         21   -1    0    0  501  502  0.00000000000E+00  0.00000000000E+00  0.19229974341E+04  0.19229974341E+04  0.00000000000E+00 0.  1.
         21   -1    0    0  502  503 -0.00000000000E+00 -0.00000000000E+00 -0.22197115299E+03  0.22197115299E+03  0.00000000000E+00 0.  1.
         25    1    1    2    0    0 -0.38069820755E+03  0.61663802448E+01  0.16168600562E+02  0.40106804052E+03  0.12500000000E+03 0.  0.
          3    1    1    2  501    0  0.30561674592E+03 -0.10727719415E+03  0.12295282783E+04  0.12714754339E+04  0.00000000000E+00 0.  1.
         -3    1    1    2    0  503  0.75081461630E+02  0.10111081391E+03  0.45532940220E+03  0.47242511266E+03  0.00000000000E+00 0. -1.
<mgrwt>
<rscale>  4 0.39105398E+03</rscale>
<asrwt>0</asrwt>
<pdfrwt beam="1">  1       21 0.29584575E+00 0.39105398E+03</pdfrwt>
<pdfrwt beam="2">  1       21 0.34149409E-01 0.39105398E+03</pdfrwt>
<totfact> 0.24363311E+02</totfact>
</mgrwt>
</event>
<event>
 5    0  0.1972558E-002  0.3172248E+03  0.7546771E-02  0.1076934E+00
         21   -1    0    0  501  502  0.00000000000E+00  0.00000000000E+00  0.21728174319E+03  0.21728174319E+03  0.00000000000E+00 0. -1.
         21   -1    0    0  502  503 -0.00000000000E+00 -0.00000000000E+00 -0.20648585467E+04  0.20648585467E+04  0.00000000000E+00 0. -1.
         25    1    1    2    0    0  0.10809115238E+03  0.27284927097E+03 -0.18638928365E+04  0.18909923130E+04  0.12500000000E+03 0.  0.
          1    1    1    2  501    0  0.27012957260E+02 -0.29175545470E+02  0.93862107972E+02  0.10193629200E+03  0.00000000000E+00 0. -1.
         -1    1    1    2    0  503 -0.13510410964E+03 -0.24367372550E+03 -0.77546075004E+02  0.28921168491E+03  0.00000000000E+00 0.  1.
<mgrwt>
<rscale>  4 0.31722480E+03</rscale>
<asrwt>0</asrwt>
<pdfrwt beam="1">  1       21 0.33427959E-01 0.31722480E+03</pdfrwt>
<pdfrwt beam="2">  1       21 0.31767056E+00 0.31722480E+03</pdfrwt>
<totfact> 0.20016060E+02</totfact>
</mgrwt>
</event>
<event>
 5    0  0.1972558E-002  0.2365903E+03  0.7546771E-02  0.1122085E+00
         21   -1    0    0  501  502  0.00000000000E+00  0.00000000000E+00  0.13371728373E+03  0.13371728373E+03  0.00000000000E+00 0. -1.
         21   -1    0    0  502  503 -0.00000000000E+00 -0.00000000000E+00 -0.33230217473E+04  0.33230217473E+04  0.00000000000E+00 0.  1.
         25    1    1    2    0    0 -0.13036343829E+03 -0.15875513462E+03 -0.30669021030E+04  0.30763145691E+04  0.12500000000E+03 0.  0.
          1    1    1    2  501    0  0.16919338052E+03  0.32941330823E+01  0.14258576058E+02  0.16982508153E+03  0.00000000000E+00 0. -1.
         -1    1    1    2    0  503 -0.38829942232E+02  0.15546100154E+03 -0.13666093664E+03  0.21059938039E+03  0.00000000000E+00 0.  1.
<mgrwt>
<rscale>  4 0.23659025E+03</rscale>
<asrwt>0</asrwt>
<pdfrwt beam="1">  1       21 0.20571889E-01 0.23659025E+03</pdfrwt>
<pdfrwt beam="2">  1       21 0.51123414E+00 0.23659025E+03</pdfrwt>
<totfact> 0.31876117E+01</totfact>
</mgrwt>
</event>
<event>
 5    0  0.1972558E-002  0.3162333E+03  0.7546771E-02  0.1077396E+00
         21   -1    0    0  501  502  0.00000000000E+00  0.00000000000E+00  0.10240142963E+04  0.10240142963E+04  0.00000000000E+00 0. -1.
         21   -1    0    0  502  503 -0.00000000000E+00 -0.00000000000E+00 -0.55970927074E+03  0.55970927074E+03  0.00000000000E+00 0. -1.
         25    1    1    2    0    0  0.28188316630E+03 -0.67873215692E+02 -0.47335564935E+03  0.56899513498E+03  0.12500000000E+03 0.  0.
          2    1    1    2  501    0  0.13256289298E+02  0.24934837429E+02  0.39085764921E+03  0.39187648216E+03  0.00000000000E+00 0.  1.
         -2    1    1    2    0  503 -0.29513945560E+03  0.42938378263E+02  0.54680302569E+03  0.62285194989E+03  0.00000000000E+00 0. -1.
<mgrwt>
<rscale>  4 0.31623329E+03</rscale>
<asrwt>0</asrwt>
<pdfrwt beam="1">  1       21 0.15754066E+00 0.31623329E+03</pdfrwt>
<pdfrwt beam="2">  1       21 0.86109119E-01 0.31623329E+03</pdfrwt>
<totfact> 0.27131484E+02</totfact>
</mgrwt>
</event>
<event>
 5    0  0.1972558E-002  0.2675987E+03  0.7546771E-02  0.1102662E+00
         21   -1    0    0  501  502  0.00000000000E+00  0.00000000000E+00  0.11072512778E+04  0.11072512778E+04  0.00000000000E+00 0. -1.
         21   -1    0    0  502  503 -0.00000000000E+00 -0.00000000000E+00 -0.63003742606E+02  0.63003742606E+02  0.00000000000E+00 0. -1.
         25    1    1    2    0    0 -0.27591318297E+01 -0.22844032184E+03  0.51458665268E+03  0.57672958704E+03  0.12500000000E+03 0.  0.
          4    1    1    2  501    0 -0.17360525647E+02 -0.15140374023E+02  0.37321461452E+02  0.43857841502E+02  0.00000000000E+00 0.  1.
         -4    1    1    2    0  503  0.20119657476E+02  0.24358069586E+03  0.49233942105E+03  0.54966759185E+03  0.00000000000E+00 0. -1.
<mgrwt>
<rscale>  4 0.26759866E+03</rscale>
<asrwt>0</asrwt>
<pdfrwt beam="1">  1       21 0.17034634E+00 0.26759866E+03</pdfrwt>
<pdfrwt beam="2">  1       21 0.96928843E-02 0.26759866E+03</pdfrwt>
<totfact> 0.17353766E+04</totfact>
</mgrwt>
</event>
<event>
 5    0  0.1972558E-002  0.2568981E+03  0.7546771E-02  0.1109021E+00
         21   -1    0    0  503  502  0.00000000000E+00  0.00000000000E+00  0.21912398294E+03  0.21912398294E+03  0.00000000000E+00 0. -1.
         21   -1    0    0  501  503 -0.00000000000E+00 -0.00000000000E+00 -0.38005520246E+03  0.38005520246E+03  0.00000000000E+00 0. -1.
         25    1    1    2    0    0  0.33641171547E+02 -0.24090100862E+03 -0.16396617315E+03  0.31886506600E+03  0.12500000000E+03 0.  0.
          3    1    1    2  501    0  0.73967591404E+01  0.26981811946E+02 -0.48945962465E+02  0.56377632651E+02  0.00000000000E+00 0.  1.
         -3    1    1    2    0  502 -0.41037930687E+02  0.21391919667E+03  0.51980916092E+02  0.22393648675E+03  0.00000000000E+00 0. -1.
<mgrwt>
<rscale>  4 0.25689814E+03</rscale>
<asrwt>0</asrwt>
<pdfrwt beam="1">  1       21 0.33711382E-01 0.25689814E+03</pdfrwt>
<pdfrwt beam="2">  1       21 0.58470031E-01 0.25689814E+03</pdfrwt>
<totfact> 0.22442851E+04</totfact>
</mgrwt>
</event>
<event>
 5    0  0.1972558E-002  0.2189109E+03  0.7546771E-02  0.1134698E+00
         21   -1    0    0  501  502  0.00000000000E+00  0.00000000000E+00  0.49785114464E+03  0.49785114464E+03  0.00000000000E+00 0.  1.
         21   -1    0    0  502  503 -0.00000000000E+00 -0.00000000000E+00 -0.18539072712E+03  0.18539072712E+03  0.00000000000E+00 0.  1.
         25    1    1    2    0    0  0.59800498455E+02 -0.20291327916E+03  0.13102645687E+03  0.27846513403E+03  0.12500000000E+03 0.  0.
          3    1    1    2  501    0 -0.51123349236E+02  0.16165009713E+03 -0.44222895052E+02  0.17521419801E+03  0.00000000000E+00 0.  1.
         -3    1    1    2    0  503 -0.86771492193E+01  0.41263182026E+02  0.22565685571E+03  0.22956253971E+03  0.00000000000E+00 0. -1.
<mgrwt>
<rscale>  4 0.21891090E+03</rscale>
<asrwt>0</asrwt>
<pdfrwt beam="1">  1       21 0.76592483E-01 0.21891090E+03</pdfrwt>
<pdfrwt beam="2">  1       21 0.28521651E-01 0.21891090E+03</pdfrwt>
<totfact> 0.17551368E+04</totfact>
</mgrwt>
</event>
<event>
 5    0  0.1972558E-002  0.2445224E+03  0.7546771E-02  0.1116816E+00
         21   -1    0    0  501  502  0.00000000000E+00  0.00000000000E+00  0.14996016588E+03  0.14996016588E+03  0.00000000000E+00 0. -1.
         21   -1    0    0  502  503 -0.00000000000E+00 -0.00000000000E+00 -0.76298761385E+03  0.76298761385E+03  0.00000000000E+00 0. -1.
         25    1    1    2    0    0  0.19871817877E+03  0.36249510676E+02 -0.51066846107E+03  0.56321418549E+03  0.12500000000E+03 0.  0.
          3    1    1    2  501    0 -0.22171622135E+03 -0.56456951138E+02 -0.16360065029E+03  0.28126614250E+03  0.00000000000E+00 0. -1.
         -3    1    1    2    0  503  0.22998042575E+02  0.20207440462E+02  0.61241663400E+02  0.68467451744E+02  0.00000000000E+00 0.  1.
<mgrwt>
<rscale>  4 0.24452241E+03</rscale>
<asrwt>0</asrwt>
<pdfrwt beam="1">  1       21 0.23070795E-01 0.24452241E+03</pdfrwt>
<pdfrwt beam="2">  1       21 0.11738271E+00 0.24452241E+03</pdfrwt>
<totfact> 0.95063422E+03</totfact>
</mgrwt>
</event>
<event>
 5    0  0.1972558E-002  0.2615792E+03  0.7546771E-02  0.1106198E+00
         21   -1    0    0  501  502  0.00000000000E+00  0.00000000000E+00  0.49683768806E+03  0.49683768806E+03  0.00000000000E+00 0.  1.
         21   -1    0    0  502  503 -0.00000000000E+00 -0.00000000000E+00 -0.48378424017E+03  0.48378424017E+03  0.00000000000E+00 0. -1.
         25    1    1    2    0    0  0.16414894669E+03 -0.16405801162E+03 -0.40251082251E+03  0.48114433397E+03  0.12500000000E+03 0.  0.
          2    1    1    2  501    0 -0.20728065799E+02  0.54298882226E+01  0.18020238088E+03  0.18147185587E+03  0.00000000000E+00 0. -1.
         -2    1    1    2    0  503 -0.14342088089E+03  0.15862812340E+03  0.23536188953E+03  0.31800573839E+03  0.00000000000E+00 0.  1.
<mgrwt>
<rscale>  4 0.26157918E+03</rscale>
<asrwt>0</asrwt>
<pdfrwt beam="1">  1       21 0.76436567E-01 0.26157918E+03</pdfrwt>
<pdfrwt beam="2">  1       21 0.74428345E-01 0.26157918E+03</pdfrwt>
<totfact> 0.23368914E+03</totfact>
</mgrwt>
</event>
<event>
 5    0  0.1972558E-002  0.2695627E+03  0.7546771E-02  0.1101530E+00
         21   -1    0    0  501  502  0.00000000000E+00  0.00000000000E+00  0.33773273432E+03  0.33773273432E+03  0.00000000000E+00 0.  1.
         21   -1    0    0  502  503 -0.00000000000E+00 -0.00000000000E+00 -0.23790210291E+03  0.23790210291E+03  0.00000000000E+00 0. -1.
         25    1    1    2    0    0 -0.23166929477E+03 -0.80124601897E+02 -0.13356672165E+02  0.27548868336E+03  0.12500000000E+03 0.  0.
          3    1    1    2  501    0  0.23013413713E+03  0.35711938591E+02  0.87278671028E+02  0.24870591076E+03  0.00000000000E+00 0.  1.
         -3    1    1    2    0  503  0.15351576351E+01  0.44412663306E+02  0.25908632548E+02  0.51440243112E+02  0.00000000000E+00 0. -1.
<mgrwt>
<rscale>  4 0.26956268E+03</rscale>
<asrwt>0</asrwt>
<pdfrwt beam="1">  1       21 0.51958882E-01 0.26956268E+03</pdfrwt>
<pdfrwt beam="2">  1       21 0.36600323E-01 0.26956268E+03</pdfrwt>
<totfact> 0.24354617E+04</totfact>
</mgrwt>
</event>
<event>
 5    0  0.1972558E-002  0.2518893E+03  0.7546771E-02  0.1112117E+00
         21   -1    0    0  503  502  0.00000000000E+00  0.00000000000E+00  0.73850952020E+03  0.73850952020E+03  0.00000000000E+00 0. -1.
         21   -1    0    0  501  503 -0.00000000000E+00 -0.00000000000E+00 -0.21369485117E+03  0.21369485117E+03  0.00000000000E+00 0. -1.
         25    1    1    2    0    0  0.95437150182E+02  0.31885533044E+03  0.88833039263E+02  0.36646047570E+03  0.12500000000E+03 0.  0.
          2    1    1    2  501    0  0.89180208825E+01 -0.14856349430E+03  0.60913213992E+02  0.16081375119E+03  0.00000000000E+00 0.  1.
         -2    1    1    2    0  502 -0.10435517106E+03 -0.17029183614E+03  0.37506841577E+03  0.42493014448E+03  0.00000000000E+00 0. -1.
<mgrwt>
<rscale>  4 0.25188932E+03</rscale>
<asrwt>0</asrwt>
<pdfrwt beam="1">  1       21 0.11361685E+00 0.25188932E+03</pdfrwt>
<pdfrwt beam="2">  1       21 0.32876131E-01 0.25188932E+03</pdfrwt>
<totfact> 0.51543157E+03</totfact>
</mgrwt>
</event>
<event>
 5    0  0.1972558E-002  0.2758404E+03  0.7546771E-02  0.1097983E+00
         21   -1    0    0  501  502  0.00000000000E+00  0.00000000000E+00  0.10873000103E+03  0.10873000103E+03  0.00000000000E+00 0. -1.
         21   -1    0    0  502  503 -0.00000000000E+00 -0.00000000000E+00 -0.99704247630E+03  0.99704247630E+03  0.00000000000E+00 0. -1.
         25    1    1    2    0    0 -0.11427262463E+03 -0.21661119280E+03 -0.59844380431E+03  0.65858836044E+03  0.12500000000E+03 0.  0.
          3    1    1    2  501    0  0.61053959950E+02 -0.31003356671E+02 -0.91240255103E+01  0.69079968095E+02  0.00000000000E+00 0.  1.
         -3    1    1    2    0  503  0.53218664685E+02  0.24761454947E+03 -0.28074464545E+03  0.37810414879E+03  0.00000000000E+00 0. -1.
<mgrwt>
<rscale>  4 0.27584040E+03</rscale>
<asrwt>0</asrwt>
<pdfrwt beam="1">  1       21 0.16727692E-01 0.27584040E+03</pdfrwt>
<pdfrwt beam="2">  1       21 0.15339116E+00 0.27584040E+03</pdfrwt>
<totfact> 0.85663219E+03</totfact>
</mgrwt>
</event>
<event>
 5    0  0.1972558E-002  0.2768296E+03  0.7546771E-02  0.1097433E+00
         21   -1    0    0  501  502  0.00000000000E+00  0.00000000000E+00  0.49227853912E+03  0.49227853912E+03  0.00000000000E+00 0. -1.
         21   -1    0    0  502  503 -0.00000000000E+00 -0.00000000000E+00 -0.69081947117E+03  0.69081947117E+03  0.00000000000E+00 0.  1.
         25    1    1    2    0    0  0.13056442841E+03  0.20549005847E+03 -0.57364796941E+03  0.63558652197E+03  0.12500000000E+03 0.  0.
          4    1    1    2  501    0 -0.13348946160E+03 -0.23722276614E+03  0.13235123460E+03  0.30267296944E+03  0.00000000000E+00 0.  1.
         -4    1    1    2    0  503  0.29250331854E+01  0.31732707667E+02  0.24275580276E+03  0.24483851888E+03  0.00000000000E+00 0. -1.
<mgrwt>
<rscale>  4 0.27682959E+03</rscale>
<asrwt>0</asrwt>
<pdfrwt beam="1">  1       21 0.75735160E-01 0.27682959E+03</pdfrwt>
<pdfrwt beam="2">  1       21 0.10627992E+00 0.27682959E+03</pdfrwt>
<totfact> 0.10279676E+03</totfact>
</mgrwt>
</event>
<event>
 5    0  0.1972558E-002  0.2492788E+03  0.7546771E-02  0.1113761E+00
         21   -1    0    0  501  502  0.00000000000E+00  0.00000000000E+00  0.63218054279E+03  0.63218054279E+03  0.00000000000E+00 0.  1.
         21   -1    0    0  502  503 -0.00000000000E+00 -0.00000000000E+00 -0.22993864718E+03  0.22993864718E+03  0.00000000000E+00 0. -1.
         25    1    1    2    0    0 -0.21564099679E+03 -0.37289163131E+01 -0.13140355517E+03  0.28179219050E+03  0.12500000000E+03 0.  0.
          4    1    1    2  501    0  0.56797022492E+02 -0.12434986697E+02  0.23032332123E+03  0.23754865388E+03  0.00000000000E+00 0.  1.
         -4    1    1    2    0  503  0.15884397430E+03  0.16163903010E+02  0.30332212956E+03  0.34277834560E+03  0.00000000000E+00 0. -1.
<mgrwt>
<rscale>  4 0.24927885E+03</rscale>
<asrwt>0</asrwt>
<pdfrwt beam="1">  1       21 0.97258544E-01 0.24927885E+03</pdfrwt>
<pdfrwt beam="2">  1       21 0.35375177E-01 0.24927885E+03</pdfrwt>
<totfact> 0.64974296E+03</totfact>
</mgrwt>
</event>
<event>
 5    0  0.2093421E-002  0.2418753E+03  0.7546771E-02  0.1118550E+00
         21   -1    0    0  501  502  0.00000000000E+00  0.00000000000E+00  0.90310237193E+03  0.90310237193E+03  0.00000000000E+00 0.  1.
         21   -1    0    0  502  503 -0.00000000000E+00 -0.00000000000E+00 -0.96105867725E+02  0.96105867725E+02  0.00000000000E+00 0.  1.
         25    1    1    2    0    0  0.87456686742E+02 -0.19194165659E+03  0.55067220485E+03  0.60278947303E+03  0.12500000000E+03 0.  0.
          1    1    1    2  501    0 -0.11430676208E+03  0.16879287935E+03  0.28529011870E+03  0.35063873688E+03  0.00000000000E+00 0.  1.
         -1    1    1    2    0  503  0.26850075335E+02  0.23148777241E+02 -0.28965819346E+02  0.45780029746E+02  0.00000000000E+00 0. -1.
<mgrwt>
<rscale>  4 0.24187529E+03</rscale>
<asrwt>0</asrwt>
<pdfrwt beam="1">  1       21 0.13893882E+00 0.24187529E+03</pdfrwt>
<pdfrwt beam="2">  1       21 0.14785519E-01 0.24187529E+03</pdfrwt>
<totfact> 0.14236199E+04</totfact>
</mgrwt>
</event>
<event>
 5    0  0.1972558E-002  0.1847452E+03  0.7546771E-02  0.1163288E+00
         21   -1    0    0  501  502  0.00000000000E+00  0.00000000000E+00  0.10433125142E+03  0.10433125142E+03  0.00000000000E+00 0.  1.
         21   -1    0    0  502  503 -0.00000000000E+00 -0.00000000000E+00 -0.74754168921E+03  0.74754168921E+03  0.00000000000E+00 0.  1.
         25    1    1    2    0    0  0.21329111995E+03  0.81420232526E+02 -0.39949843904E+03  0.47680851388E+03  0.12500000000E+03 0.  0.
          3    1    1    2  501    0 -0.10657214889E+03 -0.58710771611E+02 -0.16206894925E+02  0.12274869069E+03  0.00000000000E+00 0.  1.
         -3    1    1    2    0  503 -0.10671897106E+03 -0.22709460915E+02 -0.22750510383E+03  0.25231573607E+03  0.00000000000E+00 0. -1.
<mgrwt>
<rscale>  4 0.18474520E+03</rscale>
<asrwt>0</asrwt>
<pdfrwt beam="1">  1       21 0.16050962E-01 0.18474520E+03</pdfrwt>
<pdfrwt beam="2">  1       21 0.11500641E+00 0.18474520E+03</pdfrwt>
<totfact> 0.20421133E+04</totfact>
</mgrwt>
</event>
<event>
 5    0  0.1972558E-002  0.2730761E+03  0.7546771E-02  0.1099532E+00
         21   -1    0    0  501  502  0.00000000000E+00  0.00000000000E+00  0.22763063203E+03  0.22763063203E+03  0.00000000000E+00 0.  1.
         21   -1    0    0  502  503 -0.00000000000E+00 -0.00000000000E+00 -0.87682296641E+03  0.87682296641E+03  0.00000000000E+00 0. -1.
         25    1    1    2    0    0  0.12622688926E+01  0.23685020565E+03 -0.68311097016E+03  0.73373374653E+03  0.12500000000E+03 0.  0.
          3    1    1    2  501    0 -0.71494353709E+02  0.40958514899E+02  0.12922440756E+02  0.83402829869E+02  0.00000000000E+00 0. -1.
         -3    1    1    2    0  503  0.70232084817E+02 -0.27780872055E+03  0.20996195026E+02  0.28731702205E+03  0.00000000000E+00 0.  1.
<mgrwt>
<rscale>  4 0.27307615E+03</rscale>
<asrwt>0</asrwt>
<pdfrwt beam="1">  1       21 0.35020097E-01 0.27307615E+03</pdfrwt>
<pdfrwt beam="2">  1       21 0.13489584E+00 0.27307615E+03</pdfrwt>
<totfact> 0.29102852E+03</totfact>
</mgrwt>
</event>
<event>
 5    0  0.1972558E-002  0.2576584E+03  0.7546771E-02  0.1108558E+00
         21   -1    0    0  501  502  0.00000000000E+00  0.00000000000E+00  0.67084806873E+02  0.67084806873E+02  0.00000000000E+00 0. -1.
         21   -1    0    0  502  503 -0.00000000000E+00 -0.00000000000E+00 -0.26390266932E+04  0.26390266932E+04  0.00000000000E+00 0. -1.
         25    1    1    2    0    0 -0.12200093446E+03 -0.24066389105E+03 -0.18748079839E+04  0.18982447980E+04  0.12500000000E+03 0.  0.
          3    1    1    2  501    0  0.29956179704E+02  0.18113971178E+03 -0.67033494652E+03  0.69502367471E+03  0.00000000000E+00 0.  1.
         -3    1    1    2    0  503  0.92044754753E+02  0.59524179275E+02 -0.26798955904E+02  0.11284302740E+03  0.00000000000E+00 0. -1.
<mgrwt>
<rscale>  4 0.25765837E+03</rscale>
<asrwt>0</asrwt>
<pdfrwt beam="1">  1       21 0.10320742E-01 0.25765837E+03</pdfrwt>
<pdfrwt beam="2">  1       21 0.40600402E+00 0.25765837E+03</pdfrwt>
<totfact> 0.56029828E+02</totfact>
</mgrwt>
</event>
<event>
 5    0  0.1972558E-002  0.3031568E+03  0.7546771E-02  0.1083673E+00
         21   -1    0    0  501  502  0.00000000000E+00  0.00000000000E+00  0.13404694749E+04  0.13404694749E+04  0.00000000000E+00 0.  1.
         21   -1    0    0  502  503 -0.00000000000E+00 -0.00000000000E+00 -0.98793245597E+02  0.98793245597E+02  0.00000000000E+00 0.  1.
         25    1    1    2    0    0  0.22926000872E+03  0.15108353590E+03  0.31762567526E+03  0.43806101858E+03  0.12500000000E+03 0.  0.
          4    1    1    2  501    0  0.14179100476E+02 -0.15210120226E+02  0.45555922127E+03  0.45603355001E+03  0.00000000000E+00 0. -1.
         -4    1    1    2    0  503 -0.24343910919E+03 -0.13587341567E+03  0.46849133276E+03  0.54516815190E+03  0.00000000000E+00 0.  1.
<mgrwt>
<rscale>  4 0.30315682E+03</rscale>
<asrwt>0</asrwt>
<pdfrwt beam="1">  1       21 0.20622606E+00 0.30315682E+03</pdfrwt>
<pdfrwt beam="2">  1       21 0.15198962E-01 0.30315682E+03</pdfrwt>
<totfact> 0.43129634E+03</totfact>
</mgrwt>
</event>
<event>
 5    0  0.1972558E-002  0.2120460E+03  0.7546771E-02  0.1139956E+00
         21   -1    0    0  501  502  0.00000000000E+00  0.00000000000E+00  0.65918354641E+03  0.65918354641E+03  0.00000000000E+00 0. -1.
         21   -1    0    0  502  503 -0.00000000000E+00 -0.00000000000E+00 -0.37655513383E+03  0.37655513383E+03  0.00000000000E+00 0. -1.
         25    1    1    2    0    0  0.14716911926E+03 -0.16392887807E+03 -0.27973655016E+03  0.37737112266E+03  0.12500000000E+03 0.  0.
          4    1    1    2  501    0 -0.13137581120E+03  0.10717947383E+03  0.57383156579E+03  0.59835583834E+03  0.00000000000E+00 0. -1.
         -4    1    1    2    0  503 -0.15793308053E+02  0.56749404239E+02 -0.11466603055E+02  0.60011719242E+02  0.00000000000E+00 0.  1.
<mgrwt>
<rscale>  4 0.21204601E+03</rscale>
<asrwt>0</asrwt>
<pdfrwt beam="1">  1       21 0.10141285E+00 0.21204601E+03</pdfrwt>
<pdfrwt beam="2">  1       21 0.57931559E-01 0.21204601E+03</pdfrwt>
<totfact> 0.21803760E+03</totfact>
</mgrwt>
</event>
<event>
 5    0  0.1972558E-002  0.3174610E+03  0.7546771E-02  0.1076824E+00
         21   -1    0    0  501  502  0.00000000000E+00  0.00000000000E+00  0.31494405289E+03  0.31494405289E+03  0.00000000000E+00 0.  1.
         21   -1    0    0  502  503 -0.00000000000E+00 -0.00000000000E+00 -0.15594420742E+04  0.15594420742E+04  0.00000000000E+00 0. -1.
         25    1    1    2    0    0 -0.10823138188E+03  0.29513194310E+03 -0.14137497980E+04  0.14536610289E+04  0.12500000000E+03 0.  0.
          2    1    1    2  501    0 -0.41834591245E+02 -0.17896939545E+03  0.13461263766E+03  0.22781733856E+03  0.00000000000E+00 0.  1.
         -2    1    1    2    0  503  0.15006597313E+03 -0.11616254766E+03  0.34639138955E+02  0.19290775961E+03  0.00000000000E+00 0. -1.
<mgrwt>
<rscale>  4 0.31746103E+03</rscale>
<asrwt>0</asrwt>
<pdfrwt beam="1">  1       21 0.48452931E-01 0.31746103E+03</pdfrwt>
<pdfrwt beam="2">  1       21 0.23991417E+00 0.31746103E+03</pdfrwt>
<totfact> 0.27204110E+02</totfact>
</mgrwt>
</event>
<event>
 5    0  0.1972558E-002  0.4528063E+03  0.7546771E-02  0.1026888E+00
         21   -1    0    0  501  502  0.00000000000E+00  0.00000000000E+00  0.26917774438E+03  0.26917774438E+03  0.00000000000E+00 0. -1.
         21   -1    0    0  502  503 -0.00000000000E+00 -0.00000000000E+00 -0.93658775729E+03  0.93658775729E+03  0.00000000000E+00 0. -1.
         25    1    1    2    0    0 -0.26253752830E+03 -0.37695194941E+03 -0.40967132238E+03  0.62807190537E+03  0.12500000000E+03 0.  0.
          4    1    1    2  501    0 -0.16609157175E+02  0.72578548495E+02  0.23450347730E+02  0.78060416424E+02  0.00000000000E+00 0.  1.
         -4    1    1    2    0  503  0.27914668548E+03  0.30437340092E+03 -0.28118903826E+03  0.49963317988E+03  0.00000000000E+00 0. -1.
<mgrwt>
<rscale>  4 0.45280627E+03</rscale>
<asrwt>0</asrwt>
<pdfrwt beam="1">  1       21 0.41411961E-01 0.45280627E+03</pdfrwt>
<pdfrwt beam="2">  1       21 0.14409042E+00 0.45280627E+03</pdfrwt>
<totfact> 0.15893271E+03</totfact>
</mgrwt>
</event>
<event>
 5    0  0.1972558E-002  0.3906862E+03  0.7546771E-02  0.1047053E+00
         21   -1    0    0  501  502  0.00000000000E+00  0.00000000000E+00  0.20749712373E+03  0.20749712373E+03  0.00000000000E+00 0. -1.
         21   -1    0    0  502  503 -0.00000000000E+00 -0.00000000000E+00 -0.91709757359E+03  0.91709757359E+03  0.00000000000E+00 0. -1.
         25    1    1    2    0    0  0.24816003942E+03  0.27464034524E+03 -0.61187564640E+03  0.72596661842E+03  0.12500000000E+03 0.  0.
          3    1    1    2  501    0 -0.10011239876E+03 -0.19103988787E+03 -0.42212194288E+02  0.21977397591E+03  0.00000000000E+00 0. -1.
         -3    1    1    2    0  503 -0.14804764066E+03 -0.83600457374E+02 -0.55512609172E+02  0.17885410299E+03  0.00000000000E+00 0.  1.
<mgrwt>
<rscale>  4 0.39068622E+03</rscale>
<asrwt>0</asrwt>
<pdfrwt beam="1">  1       21 0.31922635E-01 0.39068622E+03</pdfrwt>
<pdfrwt beam="2">  1       21 0.14109193E+00 0.39068622E+03</pdfrwt>
<totfact> 0.29273578E+03</totfact>
</mgrwt>
</event>
<event>
 5    0  0.1972558E-002  0.2401964E+03  0.7546771E-02  0.1119662E+00
         21   -1    0    0  503  502  0.00000000000E+00  0.00000000000E+00  0.44377048996E+03  0.44377048996E+03  0.00000000000E+00 0. -1.
         21   -1    0    0  501  503 -0.00000000000E+00 -0.00000000000E+00 -0.30383325034E+03  0.30383325034E+03  0.00000000000E+00 0. -1.
         25    1    1    2    0    0 -0.21451667343E+03 -0.11940771922E+02 -0.20846598752E+03  0.32441185732E+03  0.12500000000E+03 0.  0.
          1    1    1    2  501    0  0.62613107968E+02  0.30690144342E+02  0.43933567411E+02  0.82416288406E+02  0.00000000000E+00 0.  1.
         -1    1    1    2    0  502  0.15190356546E+03 -0.18749372420E+02  0.30446965972E+03  0.34077559458E+03  0.00000000000E+00 0. -1.
<mgrwt>
<rscale>  4 0.24019643E+03</rscale>
<asrwt>0</asrwt>
<pdfrwt beam="1">  1       21 0.68272383E-01 0.24019643E+03</pdfrwt>
<pdfrwt beam="2">  1       21 0.46743577E-01 0.24019643E+03</pdfrwt>
<totfact> 0.83132655E+03</totfact>
</mgrwt>
</event>
<event>
 5    0  0.1972558E-002  0.2996657E+03  0.7546771E-02  0.1085408E+00
         21   -1    0    0  501  502  0.00000000000E+00  0.00000000000E+00  0.94865938982E+03  0.94865938982E+03  0.00000000000E+00 0. -1.
         21   -1    0    0  502  503 -0.00000000000E+00 -0.00000000000E+00 -0.25453005352E+03  0.25453005352E+03  0.00000000000E+00 0. -1.
         25    1    1    2    0    0 -0.10955015451E+03  0.25552322284E+03 -0.11682030830E+03  0.32644346860E+03  0.12500000000E+03 0.  0.
          2    1    1    2  501    0 -0.22188584046E+01 -0.35210445272E+02  0.36698097037E+03  0.36867293283E+03  0.00000000000E+00 0.  1.
         -2    1    1    2    0  503  0.11176901291E+03 -0.22031277756E+03  0.44396867424E+03  0.50807304190E+03  0.00000000000E+00 0. -1.
<mgrwt>
<rscale>  4 0.29966573E+03</rscale>
<asrwt>0</asrwt>
<pdfrwt beam="1">  1       21 0.14594760E+00 0.29966573E+03</pdfrwt>
<pdfrwt beam="2">  1       21 0.39158470E-01 0.29966573E+03</pdfrwt>
<totfact> 0.18586394E+03</totfact>
</mgrwt>
</event>
<event>
 5    0  0.1972558E-002  0.2095060E+03  0.7546771E-02  0.1141958E+00
         21   -1    0    0  503  502  0.00000000000E+00  0.00000000000E+00  0.13111013183E+04  0.13111013183E+04  0.00000000000E+00 0. -1.
         21   -1    0    0  501  503 -0.00000000000E+00 -0.00000000000E+00 -0.94628555602E+02  0.94628555602E+02  0.00000000000E+00 0. -1.
         25    1    1    2    0    0  0.20299055117E+03 -0.12333852094E+02  0.19137498997E+03  0.30595207885E+03  0.12500000000E+03 0.  0.
          3    1    1    2  501    0 -0.14721041968E+03 -0.69129445451E+01  0.11283405608E+03  0.18560770640E+03  0.00000000000E+00 0.  1.
         -3    1    1    2    0  502 -0.55780131484E+02  0.19246796639E+02  0.91226371670E+03  0.91417008869E+03  0.00000000000E+00 0. -1.
<mgrwt>
<rscale>  4 0.20950603E+03</rscale>
<asrwt>0</asrwt>
<pdfrwt beam="1">  1       21 0.20170788E+00 0.20950603E+03</pdfrwt>
<pdfrwt beam="2">  1       21 0.14558240E-01 0.20950603E+03</pdfrwt>
<totfact> 0.53413343E+03</totfact>
</mgrwt>
</event>
<event>
 5    0  0.1972558E-002  0.2957921E+03  0.7546771E-02  0.1087363E+00
         21   -1    0    0  501  502  0.00000000000E+00  0.00000000000E+00  0.55393324719E+03  0.55393324719E+03  0.00000000000E+00 0. -1.
         21   -1    0    0  502  503 -0.00000000000E+00 -0.00000000000E+00 -0.44222696517E+03  0.44222696517E+03  0.00000000000E+00 0.  1.
         25    1    1    2    0    0  0.14775665821E+03  0.23030754777E+03 -0.29414610705E+03  0.42073807635E+03  0.12500000000E+03 0.  0.
          4    1    1    2  501    0 -0.11860081121E+03 -0.22249419656E+03  0.10510026472E+03  0.27315908472E+03  0.00000000000E+00 0. -1.
         -4    1    1    2    0  503 -0.29155846998E+02 -0.78133512086E+01  0.30075212435E+03  0.30226305128E+03  0.00000000000E+00 0.  1.
<mgrwt>
<rscale>  4 0.29579214E+03</rscale>
<asrwt>0</asrwt>
<pdfrwt beam="1">  1       21 0.85220500E-01 0.29579214E+03</pdfrwt>
<pdfrwt beam="2">  1       21 0.68034917E-01 0.29579214E+03</pdfrwt>
<totfact> 0.21799551E+03</totfact>
</mgrwt>
</event>
<event>
 5    0  0.1972558E-002  0.2730553E+03  0.7546771E-02  0.1099544E+00
         21   -1    0    0  501  502  0.00000000000E+00  0.00000000000E+00  0.46348477393E+02  0.46348477393E+02  0.00000000000E+00 0. -1.
         21   -1    0    0  502  503 -0.00000000000E+00 -0.00000000000E+00 -0.25893876213E+04  0.25893876213E+04  0.00000000000E+00 0.  1.
         25    1    1    2    0    0 -0.87749401545E+02  0.25141300675E+03 -0.17885455115E+04  0.18125751030E+04  0.12500000000E+03 0.  0.
          4    1    1    2  501    0 -0.20320903633E+02 -0.66474240388E+02 -0.46890478265E+02  0.83847961881E+02  0.00000000000E+00 0. -1.
         -4    1    1    2    0  503  0.10807030518E+03 -0.18493876637E+03 -0.70760315421E+03  0.73931303385E+03  0.00000000000E+00 0.  1.
<mgrwt>
<rscale>  4 0.27305532E+03</rscale>
<asrwt>0</asrwt>
<pdfrwt beam="1">  1       21 0.71305331E-02 0.27305532E+03</pdfrwt>
<pdfrwt beam="2">  1       21 0.39836743E+00 0.27305532E+03</pdfrwt>
<totfact> 0.11801314E+03</totfact>
</mgrwt>
</event>
<event>
 5    0  0.1972558E-002  0.3118110E+03  0.7546771E-02  0.1079481E+00
         21   -1    0    0  501  502  0.00000000000E+00  0.00000000000E+00  0.67844853831E+03  0.67844853831E+03  0.00000000000E+00 0.  1.
         21   -1    0    0  502  503 -0.00000000000E+00 -0.00000000000E+00 -0.17031569250E+03  0.17031569250E+03  0.00000000000E+00 0.  1.
         25    1    1    2    0    0  0.25533043636E+03  0.29783120641E+02  0.24941306431E+03  0.37935806655E+03  0.12500000000E+03 0.  0.
          4    1    1    2  501    0 -0.30353000737E+03 -0.46928788859E+02  0.13494209863E+03  0.33547301915E+03  0.00000000000E+00 0.  1.
         -4    1    1    2    0  503  0.48199571001E+02  0.17145668218E+02  0.12377768286E+03  0.13393314510E+03  0.00000000000E+00 0. -1.
<mgrwt>
<rscale>  4 0.31181100E+03</rscale>
<asrwt>0</asrwt>
<pdfrwt beam="1">  1       21 0.10437670E+00 0.31181100E+03</pdfrwt>
<pdfrwt beam="2">  1       21 0.26202415E-01 0.31181100E+03</pdfrwt>
<totfact> 0.95868570E+03</totfact>
</mgrwt>
</event>
<event>
 5    0  0.1972558E-002  0.2708495E+03  0.7546771E-02  0.1100794E+00
         21   -1    0    0  501  502  0.00000000000E+00  0.00000000000E+00  0.22786786574E+03  0.22786786574E+03  0.00000000000E+00 0.  1.
         21   -1    0    0  502  503 -0.00000000000E+00 -0.00000000000E+00 -0.80419866516E+03  0.80419866516E+03  0.00000000000E+00 0.  1.
         25    1    1    2    0    0  0.21758495280E+03  0.10908165477E+03 -0.69825438369E+03  0.74995080068E+03  0.12500000000E+03 0.  0.
          4    1    1    2  501    0 -0.17419728661E+02 -0.14941665439E+02  0.40227203688E+02  0.46313369876E+02  0.00000000000E+00 0. -1.
         -4    1    1    2    0  503 -0.20016522414E+03 -0.94139989330E+02  0.81696380579E+02  0.23580236035E+03  0.00000000000E+00 0.  1.
<mgrwt>
<rscale>  4 0.27084948E+03</rscale>
<asrwt>0</asrwt>
<pdfrwt beam="1">  1       21 0.35056595E-01 0.27084948E+03</pdfrwt>
<pdfrwt beam="2">  1       21 0.12372287E+00 0.27084948E+03</pdfrwt>
<totfact> 0.36256520E+03</totfact>
</mgrwt>
</event>
<event>
 5    0  0.1972558E-002  0.3095397E+03  0.7546771E-02  0.1080567E+00
         21   -1    0    0  501  502  0.00000000000E+00  0.00000000000E+00  0.13461256180E+04  0.13461256180E+04  0.00000000000E+00 0.  1.
         21   -1    0    0  502  503 -0.00000000000E+00 -0.00000000000E+00 -0.11217280903E+03  0.11217280903E+03  0.00000000000E+00 0. -1.
         25    1    1    2    0    0 -0.21014572313E+03 -0.19681497062E+03  0.18237776039E+03  0.36302066759E+03  0.12500000000E+03 0.  0.
          3    1    1    2  501    0  0.27207321699E+02 -0.18549255015E-01  0.21221449686E+03  0.21395146968E+03  0.00000000000E+00 0.  1.
         -3    1    1    2    0  503  0.18293840143E+03  0.19683351988E+03  0.83936055168E+03  0.88132628974E+03  0.00000000000E+00 0. -1.
<mgrwt>
<rscale>  4 0.30953971E+03</rscale>
<asrwt>0</asrwt>
<pdfrwt beam="1">  1       21 0.20709624E+00 0.30953971E+03</pdfrwt>
<pdfrwt beam="2">  1       21 0.17257356E-01 0.30953971E+03</pdfrwt>
<totfact> 0.33521396E+03</totfact>
</mgrwt>
</event>
<event>
 5    0  0.1972558E-002  0.2669916E+03  0.7546771E-02  0.1103014E+00
         21   -1    0    0  501  502  0.00000000000E+00  0.00000000000E+00  0.10073691015E+04  0.10073691015E+04  0.00000000000E+00 0.  1.
         21   -1    0    0  502  503 -0.00000000000E+00 -0.00000000000E+00 -0.19768224530E+04  0.19768224530E+04  0.00000000000E+00 0.  1.
         25    1    1    2    0    0  0.21491432626E+03 -0.97320744240E+02 -0.19513976923E+04  0.19695779874E+04  0.12500000000E+03 0.  0.
          2    1    1    2  501    0 -0.80173378335E+02  0.18504727698E+01  0.46709476064E+03  0.47392901395E+03  0.00000000000E+00 0. -1.
         -2    1    1    2    0  503 -0.13474094792E+03  0.95470271470E+02  0.51484958016E+03  0.54068455311E+03  0.00000000000E+00 0.  1.
<mgrwt>
<rscale>  4 0.26699156E+03</rscale>
<asrwt>0</asrwt>
<pdfrwt beam="1">  1       21 0.15497986E+00 0.26699156E+03</pdfrwt>
<pdfrwt beam="2">  1       21 0.30412653E+00 0.26699156E+03</pdfrwt>
<totfact> 0.77956977E+00</totfact>
</mgrwt>
</event>
<event>
 5    0  0.1972558E-002  0.3601286E+03  0.7546771E-02  0.1058533E+00
         21   -1    0    0  501  502  0.00000000000E+00  0.00000000000E+00  0.19130043019E+03  0.19130043019E+03  0.00000000000E+00 0.  1.
         21   -1    0    0  502  503 -0.00000000000E+00 -0.00000000000E+00 -0.73408058070E+03  0.73408058070E+03  0.00000000000E+00 0.  1.
         25    1    1    2    0    0 -0.34418223654E+03  0.68549097888E+02 -0.27799489192E+03  0.46482959319E+03  0.12500000000E+03 0.  0.
          3    1    1    2  501    0  0.19145948435E+02 -0.29976264557E+02  0.55900783378E+01  0.36005454505E+02  0.00000000000E+00 0. -1.
         -3    1    1    2    0  503  0.32503628810E+03 -0.38572833331E+02 -0.27037533693E+03  0.42454596320E+03  0.00000000000E+00 0.  1.
<mgrwt>
<rscale>  4 0.36012857E+03</rscale>
<asrwt>0</asrwt>
<pdfrwt beam="1">  1       21 0.29430835E-01 0.36012857E+03</pdfrwt>
<pdfrwt beam="2">  1       21 0.11293547E+00 0.36012857E+03</pdfrwt>
<totfact> 0.61634022E+03</totfact>
</mgrwt>
</event>
<event>
 5    0  0.1972558E-002  0.2349591E+03  0.7546771E-02  0.1123197E+00
         21   -1    0    0  501  502  0.00000000000E+00  0.00000000000E+00  0.55193969960E+03  0.55193969960E+03  0.00000000000E+00 0.  1.
         21   -1    0    0  502  503 -0.00000000000E+00 -0.00000000000E+00 -0.38397543858E+03  0.38397543858E+03  0.00000000000E+00 0. -1.
         25    1    1    2    0    0 -0.24745789486E+03  0.47751471947E+02 -0.67147498295E+02  0.28922205886E+03  0.12500000000E+03 0.  0.
          4    1    1    2  501    0  0.15347930683E+03 -0.10048403078E+03 -0.15612293982E+03  0.24088858504E+03  0.00000000000E+00 0. -1.
         -4    1    1    2    0  503  0.93978588038E+02  0.52732558838E+02  0.39123469913E+03  0.40580449428E+03  0.00000000000E+00 0.  1.
<mgrwt>
<rscale>  4 0.23495912E+03</rscale>
<asrwt>0</asrwt>
<pdfrwt beam="1">  1       21 0.84913800E-01 0.23495912E+03</pdfrwt>
<pdfrwt beam="2">  1       21 0.59073144E-01 0.23495912E+03</pdfrwt>
<totfact> 0.31123084E+03</totfact>
</mgrwt>
</event>
<event>
 5    0  0.1972558E-002  0.3391723E+03  0.7546771E-02  0.1067247E+00
         21   -1    0    0  501  502  0.00000000000E+00  0.00000000000E+00  0.83770502469E+03  0.83770502469E+03  0.00000000000E+00 0. -1.
         21   -1    0    0  502  503 -0.00000000000E+00 -0.00000000000E+00 -0.13762593258E+03  0.13762593258E+03  0.00000000000E+00 0.  1.
         25    1    1    2    0    0  0.29176654094E+03 -0.11688861482E+03  0.31547699944E+03  0.46253799829E+03  0.12500000000E+03 0.  0.
          2    1    1    2  501    0 -0.15239550715E+03  0.10218914456E+03  0.13965120411E+03  0.23058506169E+03  0.00000000000E+00 0. -1.
         -2    1    1    2    0  503 -0.13937103379E+03  0.14699470251E+02  0.24495088856E+03  0.28220789729E+03  0.00000000000E+00 0.  1.
<mgrwt>
<rscale>  4 0.33894245E+03</rscale>
<asrwt>0</asrwt>
<pdfrwt beam="1">  1       21 0.12887769E+00 0.33917230E+03</pdfrwt>
<pdfrwt beam="2">  1       21 0.21173221E-01 0.33917230E+03</pdfrwt>
<totfact> 0.84295994E+03</totfact>
</mgrwt>
</event>
<event>
 5    0  0.1972558E-002  0.2379015E+03  0.7546771E-02  0.1121199E+00
         21   -1    0    0  501  502  0.00000000000E+00  0.00000000000E+00  0.97304649495E+03  0.97304649495E+03  0.00000000000E+00 0.  1.
         21   -1    0    0  502  503 -0.00000000000E+00 -0.00000000000E+00 -0.23214061969E+03  0.23214061969E+03  0.00000000000E+00 0. -1.
         25    1    1    2    0    0 -0.67583385336E+02 -0.20135415292E+03 -0.40692585561E+02  0.24978369721E+03  0.12500000000E+03 0.  0.
          2    1    1    2  501    0 -0.19128105680E+03  0.13992477823E+03  0.56374785482E+03  0.61153824906E+03  0.00000000000E+00 0. -1.
         -2    1    1    2    0  503  0.25886444214E+03  0.61429374694E+02  0.21785060600E+03  0.34386516837E+03  0.00000000000E+00 0.  1.
<mgrwt>
<rscale>  4 0.23790146E+03</rscale>
<asrwt>0</asrwt>
<pdfrwt beam="1">  1       21 0.14969946E+00 0.23790146E+03</pdfrwt>
<pdfrwt beam="2">  1       21 0.35713942E-01 0.23790146E+03</pdfrwt>
<totfact> 0.21837728E+03</totfact>
</mgrwt>
</event>
<event>
 5    0  0.1972558E-002  0.3199228E+03  0.7546771E-02  0.1075685E+00
         21   -1    0    0  503  502  0.00000000000E+00  0.00000000000E+00  0.93863017558E+03  0.93863017558E+03  0.00000000000E+00 0. -1.
         21   -1    0    0  501  503 -0.00000000000E+00 -0.00000000000E+00 -0.16985585635E+03  0.16985585635E+03  0.00000000000E+00 0.  1.
         25    1    1    2    0    0  0.28301624923E+03  0.15982177265E+03  0.12917881579E+03  0.37142073554E+03  0.12500000000E+03 0.  0.
          2    1    1    2  501    0 -0.39949276771E+02 -0.96839013870E+02  0.27584682274E+03  0.29506814287E+03  0.00000000000E+00 0.  1.
         -2    1    1    2    0  502 -0.24306697246E+03 -0.62982758777E+02  0.36374868070E+03  0.44199715352E+03  0.00000000000E+00 0. -1.
<mgrwt>
<rscale>  4 0.31992284E+03</rscale>
<asrwt>0</asrwt>
<pdfrwt beam="1">  1       21 0.14440464E+00 0.31992284E+03</pdfrwt>
<pdfrwt beam="2">  1       21 0.26131671E-01 0.31992284E+03</pdfrwt>
<totfact> 0.42207359E+03</totfact>
</mgrwt>
</event>
<event>
 5    0  0.1972558E-002  0.2129075E+03  0.7546771E-02  0.1139284E+00
         21   -1    0    0  501  502  0.00000000000E+00  0.00000000000E+00  0.23284610969E+03  0.23284610969E+03  0.00000000000E+00 0. -1.
         21   -1    0    0  502  503 -0.00000000000E+00 -0.00000000000E+00 -0.37081698993E+03  0.37081698993E+03  0.00000000000E+00 0.  1.
         25    1    1    2    0    0  0.20674883337E+02  0.19916565710E+03  0.70113583875E+02  0.24624240986E+03  0.12500000000E+03 0.  0.
          3    1    1    2  501    0  0.56189725888E+02 -0.48269990156E+02  0.16749351932E+02  0.75946152208E+02  0.00000000000E+00 0.  1.
         -3    1    1    2    0  503 -0.76864609225E+02 -0.15089566695E+03 -0.22483381605E+03  0.28147453756E+03  0.00000000000E+00 0. -1.
<mgrwt>
<rscale>  4 0.21290752E+03</rscale>
<asrwt>0</asrwt>
<pdfrwt beam="1">  1       21 0.35822479E-01 0.21290752E+03</pdfrwt>
<pdfrwt beam="2">  1       21 0.57048767E-01 0.21290752E+03</pdfrwt>
<totfact> 0.21433714E+04</totfact>
</mgrwt>
</event>
<event>
 5    0  0.1972558E-002  0.2308551E+03  0.7546771E-02  0.1126039E+00
         21   -1    0    0  503  502  0.00000000000E+00  0.00000000000E+00  0.21949120618E+04  0.21949120618E+04  0.00000000000E+00 0. -1.
         21   -1    0    0  501  503 -0.00000000000E+00 -0.00000000000E+00 -0.37160558981E+02  0.37160558981E+02  0.00000000000E+00 0.  1.
         25    1    1    2    0    0 -0.93013290983E+02  0.17767880167E+03  0.44526830441E+03  0.50409333637E+03  0.12500000000E+03 0.  0.
          2    1    1    2  501    0  0.51011965097E+02 -0.29598451824E+01  0.35810162066E+03  0.36172883765E+03  0.00000000000E+00 0.  1.
         -2    1    1    2    0  502  0.42001325887E+02 -0.17471895648E+03  0.13543815777E+04  0.13662504467E+04  0.00000000000E+00 0. -1.
<mgrwt>
<rscale>  4 0.23085510E+03</rscale>
<asrwt>0</asrwt>
<pdfrwt beam="1">  1       21 0.33767868E+00 0.23085510E+03</pdfrwt>
<pdfrwt beam="2">  1       21 0.57170108E-02 0.23085510E+03</pdfrwt>
<totfact> 0.42304808E+03</totfact>
</mgrwt>
</event>
<event>
 5    0  0.1972558E-002  0.2709713E+03  0.7546771E-02  0.1100725E+00
         21   -1    0    0  501  502  0.00000000000E+00  0.00000000000E+00  0.37546980442E+03  0.37546980442E+03  0.00000000000E+00 0.  1.
         21   -1    0    0  502  503 -0.00000000000E+00 -0.00000000000E+00 -0.48504460448E+03  0.48504460448E+03  0.00000000000E+00 0. -1.
         25    1    1    2    0    0  0.95524671651E+01 -0.24542744240E+03 -0.37606775882E+03  0.46623796321E+03  0.12500000000E+03 0.  0.
          2    1    1    2  501    0 -0.59691123080E-01  0.27188490879E+02  0.13839938784E+03  0.14104470267E+03  0.00000000000E+00 0.  1.
         -2    1    1    2    0  503 -0.94927760420E+01  0.21823895152E+03  0.12809357093E+03  0.25323174301E+03  0.00000000000E+00 0. -1.
<mgrwt>
<rscale>  4 0.27097130E+03</rscale>
<asrwt>0</asrwt>
<pdfrwt beam="1">  1       21 0.57764585E-01 0.27097130E+03</pdfrwt>
<pdfrwt beam="2">  1       21 0.74622247E-01 0.27097130E+03</pdfrwt>
<totfact> 0.42818589E+03</totfact>
</mgrwt>
</event>
