<event>
 5    0  0.6041737E-002  0.6779278E+03  0.7546771E-02  0.9755741E-01
          1   -1    0    0  503    0  0.00000000000E+00  0.00000000000E+00  0.43977546291E+03  0.43977546291E+03  0.00000000000E+00 0. -1.
         -1   -1    0    0    0  501 -0.00000000000E+00 -0.00000000000E+00 -0.26126181697E+03  0.26126181697E+03  0.00000000000E+00 0.  1.
         25    1    1    2    0    0  0.23374728253E+03  0.21149235301E+03  0.14444615434E+03  0.36858716605E+03  0.12500000000E+03 0.  0.
         21    1    1    2  502  501 -0.11638469682E+02 -0.42234067693E+02  0.30134890476E+02  0.53172192680E+02  0.00000000000E+00 0.  1.
         21    1    1    2  503  502 -0.22210881285E+03 -0.16925828531E+03  0.39326011143E+01  0.27927792115E+03  0.00000000000E+00 0.  1.
<mgrwt>
<rscale>  4 0.67792783E+03</rscale>
<asrwt>0</asrwt>
<pdfrwt beam="1">  1        1 0.67657764E-01 0.67792783E+03</pdfrwt>
<pdfrwt beam="2">  1       -1 0.40194126E-01 0.67792783E+03</pdfrwt>
<totfact> 0.32297808E+02</totfact>
</mgrwt>
</event>
<event>
 5    0  0.6041737E-002  0.4606245E+03  0.7546771E-02  0.1024600E+00
         -1   -1    0    0    0  501 -0.00000000000E+00  0.00000000000E+00  0.68384968250E+02  0.68384968250E+02  0.00000000000E+00 0. -1.
          1   -1    0    0  503    0  0.00000000000E+00 -0.00000000000E+00 -0.77566354495E+03  0.77566354495E+03  0.00000000000E+00 0.  1.
         25    1    1    2    0    0 -0.14999780145E+03 -0.13816855754E+03 -0.30330244423E+03  0.38627356033E+03  0.12500000000E+03 0.  0.
         21    1    1    2  502  501  0.33099599241E+02  0.35272761570E+02 -0.16970723778E+03  0.17646613764E+03  0.00000000000E+00 0.  1.
         21    1    1    2  503  502  0.11689820221E+03  0.10289579597E+03 -0.23426889469E+03  0.28130881523E+03  0.00000000000E+00 0.  1.
<mgrwt>
<rscale>  4 0.46062448E+03</rscale>
<asrwt>0</asrwt>
<pdfrwt beam="1">  1        1 0.11933285E+00 0.46062448E+03</pdfrwt>
<pdfrwt beam="2">  1       -1 0.10520765E-01 0.46062448E+03</pdfrwt>
<totfact> 0.13611245E+03</totfact>
</mgrwt>
</event>
<event>
 5    0  0.6041737E-002  0.4750050E+03  0.7546771E-02  0.1020517E+00
         -2   -1    0    0    0  501 -0.00000000000E+00  0.00000000000E+00  0.69144864690E+02  0.69144864690E+02  0.00000000000E+00 0.  1.
          2   -1    0    0  503    0  0.00000000000E+00 -0.00000000000E+00 -0.10081034173E+04  0.10081034173E+04  0.00000000000E+00 0. -1.
         25    1    1    2    0    0  0.12663806118E+03 -0.16572966463E+03 -0.56960066815E+03  0.61933306180E+03  0.12500000000E+03 0.  0.
         21    1    1    2  502  501 -0.84179843724E+02  0.19630780136E+03 -0.25849101746E+03  0.33532164421E+03  0.00000000000E+00 0.  1.
         21    1    1    2  503  502 -0.42458217455E+02 -0.30578136736E+02 -0.11086686703E+03  0.12259357602E+03  0.00000000000E+00 0.  1.
<mgrwt>
<rscale>  4 0.47500502E+03</rscale>
<asrwt>0</asrwt>
<pdfrwt beam="1">  1        2 0.15509283E+00 0.47500502E+03</pdfrwt>
<pdfrwt beam="2">  1       -2 0.10637672E-01 0.47500502E+03</pdfrwt>
<totfact> 0.15568019E+03</totfact>
</mgrwt>
</event>
<event>
 5    0  0.6041737E-002  0.6962256E+03  0.7546771E-02  0.9723709E-01
         -2   -1    0    0    0  501 -0.00000000000E+00  0.00000000000E+00  0.35474966090E+02  0.35474966090E+02  0.00000000000E+00 0. -1.
          2   -1    0    0  503    0  0.00000000000E+00 -0.00000000000E+00 -0.34160008883E+04  0.34160008883E+04  0.00000000000E+00 0.  1.
         25    1    1    2    0    0 -0.23937041046E+03  0.22362742483E+03 -0.19152513236E+04  0.19470798779E+04  0.12500000000E+03 0.  0.
         21    1    1    2  502  501  0.15129148993E+03 -0.18351406177E+03 -0.89998202059E+03  0.93087816774E+03  0.00000000000E+00 0.  1.
         21    1    1    2  503  502  0.88078920535E+02 -0.40113363066E+02 -0.56529257806E+03  0.57351780875E+03  0.00000000000E+00 0.  1.
<mgrwt>
<rscale>  4 0.69622558E+03</rscale>
<asrwt>0</asrwt>
<pdfrwt beam="1">  1        2 0.52553853E+00 0.69622558E+03</pdfrwt>
<pdfrwt beam="2">  1       -2 0.54576878E-02 0.69622558E+03</pdfrwt>
<totfact> 0.18084000E+02</totfact>
</mgrwt>
</event>
<event>
 5    0  0.6041737E-002  0.1150148E+04  0.7546771E-02  0.9157647E-01
          1   -1    0    0  503    0  0.00000000000E+00  0.00000000000E+00  0.95494876982E+03  0.95494876982E+03  0.00000000000E+00 0. -1.
         -1   -1    0    0    0  501 -0.00000000000E+00 -0.00000000000E+00 -0.34631194025E+03  0.34631194025E+03  0.00000000000E+00 0.  1.
         25    1    1    2    0    0 -0.22349486000E+03  0.16628987988E+03 -0.24660224163E+03  0.39247922515E+03  0.12500000000E+03 0.  0.
         21    1    1    2  502  501  0.12027460212E+03 -0.21837570491E+02  0.25413018689E+03  0.28200179306E+03  0.00000000000E+00 0. -1.
         21    1    1    2  503  502  0.10322025788E+03 -0.14445230939E+03  0.60110888431E+03  0.62677969186E+03  0.00000000000E+00 0. -1.
<mgrwt>
<rscale>  4 0.11501481E+04</rscale>
<asrwt>0</asrwt>
<pdfrwt beam="1">  1        1 0.14691519E+00 0.11501481E+04</pdfrwt>
<pdfrwt beam="2">  1       -1 0.53278761E-01 0.11501481E+04</pdfrwt>
<totfact> 0.57950895E+01</totfact>
</mgrwt>
</event>
<event>
 5    0  0.6041737E-002  0.4168966E+03  0.7546771E-02  0.1038081E+00
          2   -1    0    0  503    0  0.00000000000E+00  0.00000000000E+00  0.12656812339E+04  0.12656812339E+04  0.00000000000E+00 0.  1.
         -2   -1    0    0    0  501 -0.00000000000E+00 -0.00000000000E+00 -0.48063002445E+02  0.48063002445E+02  0.00000000000E+00 0. -1.
         25    1    1    2    0    0 -0.87200030889E+02 -0.19569614313E+03  0.61825777784E+03  0.66615951970E+03  0.12500000000E+03 0.  0.
         21    1    1    2  502  501  0.33432552382E+02  0.39904741819E+02  0.43608083497E+02  0.67910153325E+02  0.00000000000E+00 0. -1.
         21    1    1    2  503  502  0.53767478507E+02  0.15579140132E+03  0.55575237006E+03  0.57967456327E+03  0.00000000000E+00 0. -1.
<mgrwt>
<rscale>  4 0.41689655E+03</rscale>
<asrwt>0</asrwt>
<pdfrwt beam="1">  1        2 0.19472016E+00 0.41689655E+03</pdfrwt>
<pdfrwt beam="2">  1       -2 0.73943090E-02 0.41689655E+03</pdfrwt>
<totfact> 0.19583911E+03</totfact>
</mgrwt>
</event>
<event>
 5    0  0.6041737E-002  0.7686955E+03  0.7546771E-02  0.9606468E-01
          1   -1    0    0  503    0  0.00000000000E+00  0.00000000000E+00  0.14861919769E+03  0.14861919769E+03  0.00000000000E+00 0. -1.
         -1   -1    0    0    0  501 -0.00000000000E+00 -0.00000000000E+00 -0.99397116618E+03  0.99397116618E+03  0.00000000000E+00 0.  1.
         25    1    1    2    0    0 -0.18118427221E+03 -0.30717655576E+03 -0.31579526034E+03  0.49248027713E+03  0.12500000000E+03 0.  0.
         21    1    1    2  502  501  0.23713247168E+02  0.57369923967E+02 -0.19115292001E+03  0.20098026046E+03  0.00000000000E+00 0.  1.
         21    1    1    2  503  502  0.15747102504E+03  0.24980663180E+03 -0.33840378814E+03  0.44912982627E+03  0.00000000000E+00 0. -1.
<mgrwt>
<rscale>  4 0.76869551E+03</rscale>
<asrwt>0</asrwt>
<pdfrwt beam="1">  1        1 0.22864493E-01 0.76869551E+03</pdfrwt>
<pdfrwt beam="2">  1       -1 0.15291864E+00 0.76869551E+03</pdfrwt>
<totfact> 0.73941349E+01</totfact>
</mgrwt>
</event>
<event>
 5    0  0.6041737E-002  0.5048209E+03  0.7546771E-02  0.1012528E+00
         -2   -1    0    0    0  501 -0.00000000000E+00  0.00000000000E+00  0.11551454058E+03  0.11551454058E+03  0.00000000000E+00 0. -1.
          2   -1    0    0  503    0  0.00000000000E+00 -0.00000000000E+00 -0.55154130869E+03  0.55154130869E+03  0.00000000000E+00 0.  1.
         25    1    1    2    0    0  0.21935106649E+03 -0.72304754769E+02 -0.20506335848E+03  0.33319491131E+03  0.12500000000E+03 0.  0.
         21    1    1    2  502  501 -0.17128713931E+03  0.84530137954E+02 -0.19157169657E+03  0.27052604910E+03  0.00000000000E+00 0. -1.
         21    1    1    2  503  502 -0.48063927179E+02 -0.12225383186E+02 -0.39391713056E+02  0.63334888864E+02  0.00000000000E+00 0. -1.
<mgrwt>
<rscale>  4 0.50482092E+03</rscale>
<asrwt>0</asrwt>
<pdfrwt beam="1">  1        2 0.84852509E-01 0.50482092E+03</pdfrwt>
<pdfrwt beam="2">  1       -2 0.17771468E-01 0.50482092E+03</pdfrwt>
<totfact> 0.14382282E+03</totfact>
</mgrwt>
</event>
<event>
 5    0  0.6041737E-002  0.7516962E+03  0.7546771E-02  0.9632693E-01
          2   -1    0    0  503    0  0.00000000000E+00  0.00000000000E+00  0.55334480481E+03  0.55334480481E+03  0.00000000000E+00 0. -1.
         -2   -1    0    0    0  501 -0.00000000000E+00 -0.00000000000E+00 -0.25528710918E+03  0.25528710918E+03  0.00000000000E+00 0.  1.
         25    1    1    2    0    0  0.29224803475E+03 -0.64374548102E+02 -0.71184579860E+02  0.33203198741E+03  0.12500000000E+03 0.  0.
         21    1    1    2  502  501 -0.23334857334E+02  0.13204353944E+02  0.43639346747E+02  0.51217800757E+02  0.00000000000E+00 0. -1.
         21    1    1    2  503  502 -0.26891317741E+03  0.51170194158E+02  0.32560292875E+03  0.42538212582E+03  0.00000000000E+00 0. -1.
<mgrwt>
<rscale>  4 0.75169620E+03</rscale>
<asrwt>0</asrwt>
<pdfrwt beam="1">  1        2 0.85129969E-01 0.75169620E+03</pdfrwt>
<pdfrwt beam="2">  1       -2 0.39274940E-01 0.75169620E+03</pdfrwt>
<totfact> 0.33739436E+02</totfact>
</mgrwt>
</event>
<event>
 5    0  0.6041737E-002  0.5499930E+03  0.7546771E-02  0.1001496E+00
         -1   -1    0    0    0  501 -0.00000000000E+00  0.00000000000E+00  0.55342262644E+02  0.55342262644E+02  0.00000000000E+00 0. -1.
          1   -1    0    0  503    0  0.00000000000E+00 -0.00000000000E+00 -0.13664613936E+04  0.13664613936E+04  0.00000000000E+00 0.  1.
         25    1    1    2    0    0 -0.33674028929E+02  0.23257659188E+03 -0.96362883281E+03  0.99971562894E+03  0.12500000000E+03 0.  0.
         21    1    1    2  502  501  0.35533395139E+02 -0.16409259311E+03 -0.21359147362E+03  0.27168054565E+03  0.00000000000E+00 0. -1.
         21    1    1    2  503  502 -0.18593662100E+01 -0.68483998772E+02 -0.13389882457E+03  0.15040748170E+03  0.00000000000E+00 0. -1.
<mgrwt>
<rscale>  4 0.54999296E+03</rscale>
<asrwt>0</asrwt>
<pdfrwt beam="1">  1        1 0.21022480E+00 0.54999296E+03</pdfrwt>
<pdfrwt beam="2">  1       -1 0.85141954E-02 0.54999296E+03</pdfrwt>
<totfact> 0.67591843E+02</totfact>
</mgrwt>
</event>
<event>
 5    0  0.6041737E-002  0.8336021E+03  0.7546771E-02  0.9512614E-01
          1   -1    0    0  503    0  0.00000000000E+00  0.00000000000E+00  0.60122019959E+03  0.60122019959E+03  0.00000000000E+00 0. -1.
         -1   -1    0    0    0  501 -0.00000000000E+00 -0.00000000000E+00 -0.28895087803E+03  0.28895087803E+03  0.00000000000E+00 0.  1.
         25    1    1    2    0    0  0.13847242462E+03 -0.18650907050E+03  0.51096196631E+03  0.57503684819E+03  0.12500000000E+03 0.  0.
         21    1    1    2  502  501 -0.54848617386E+02  0.51805241591E+02 -0.23889974238E+02  0.79138389891E+02  0.00000000000E+00 0.  1.
         21    1    1    2  503  502 -0.83623807232E+02  0.13470382891E+03 -0.17480267051E+03  0.23599583953E+03  0.00000000000E+00 0.  1.
<mgrwt>
<rscale>  4 0.83360207E+03</rscale>
<asrwt>0</asrwt>
<pdfrwt beam="1">  1        1 0.92495415E-01 0.83360207E+03</pdfrwt>
<pdfrwt beam="2">  1       -1 0.44453981E-01 0.83360207E+03</pdfrwt>
<totfact> 0.17278942E+02</totfact>
</mgrwt>
</event>
<event>
 5    0  0.6041737E-002  0.7763468E+03  0.7546771E-02  0.9594900E-01
          2   -1    0    0  503    0  0.00000000000E+00  0.00000000000E+00  0.17105217792E+04  0.17105217792E+04  0.00000000000E+00 0. -1.
         -2   -1    0    0    0  501 -0.00000000000E+00 -0.00000000000E+00 -0.88089265769E+02  0.88089265769E+02  0.00000000000E+00 0.  1.
         25    1    1    2    0    0  0.28509132939E+03  0.23214811234E+03  0.64082185354E+03  0.74929797820E+03  0.12500000000E+03 0.  0.
         21    1    1    2  502  501 -0.19011260695E+02 -0.87507072196E+01  0.32947970573E+02  0.39032956267E+02  0.00000000000E+00 0.  1.
         21    1    1    2  503  502 -0.26608006869E+03 -0.22339740512E+03  0.94866268929E+03  0.10102801105E+04  0.00000000000E+00 0.  1.
<mgrwt>
<rscale>  4 0.77634685E+03</rscale>
<asrwt>0</asrwt>
<pdfrwt beam="1">  1        2 0.26315717E+00 0.77634685E+03</pdfrwt>
<pdfrwt beam="2">  1       -2 0.13552196E-01 0.77634685E+03</pdfrwt>
<totfact> 0.40821662E+02</totfact>
</mgrwt>
</event>
<event>
 5    0  0.6041737E-002  0.5527082E+03  0.7546771E-02  0.1000869E+00
          2   -1    0    0  503    0  0.00000000000E+00  0.00000000000E+00  0.20217704067E+03  0.20217704067E+03  0.00000000000E+00 0. -1.
         -2   -1    0    0    0  501 -0.00000000000E+00 -0.00000000000E+00 -0.37774608426E+03  0.37774608426E+03  0.00000000000E+00 0.  1.
         25    1    1    2    0    0 -0.18250147835E+03  0.17908860490E+03 -0.77511841698E+02  0.29497898842E+03  0.12500000000E+03 0.  0.
         21    1    1    2  502  501  0.71561450367E+02 -0.10991527884E+03 -0.78213084249E+02  0.15270787880E+03  0.00000000000E+00 0. -1.
         21    1    1    2  503  502  0.11094002799E+03 -0.69173326062E+02 -0.19844117644E+02  0.13223625771E+03  0.00000000000E+00 0. -1.
<mgrwt>
<rscale>  4 0.55270819E+03</rscale>
<asrwt>0</asrwt>
<pdfrwt beam="1">  1        2 0.31104160E-01 0.55270819E+03</pdfrwt>
<pdfrwt beam="2">  1       -2 0.58114782E-01 0.55270819E+03</pdfrwt>
<totfact> 0.47743519E+02</totfact>
</mgrwt>
</event>
<event>
 5    0  0.6041737E-002  0.5663168E+03  0.7546771E-02  0.9977862E-01
          2   -1    0    0  503    0  0.00000000000E+00  0.00000000000E+00  0.23491987795E+04  0.23491987795E+04  0.00000000000E+00 0.  1.
         -2   -1    0    0    0  501 -0.00000000000E+00 -0.00000000000E+00 -0.34130219530E+02  0.34130219530E+02  0.00000000000E+00 0. -1.
         25    1    1    2    0    0  0.12449117219E+03 -0.22236537839E+03  0.14925239289E+04  0.15192751863E+04  0.12500000000E+03 0.  0.
         21    1    1    2  502  501 -0.22038882314E+02  0.42450441378E+01  0.50245339980E+02  0.55030236444E+02  0.00000000000E+00 0. -1.
         21    1    1    2  503  502 -0.10245228988E+03  0.21812033426E+03  0.77229929110E+03  0.80902357626E+03  0.00000000000E+00 0. -1.
<mgrwt>
<rscale>  4 0.56631677E+03</rscale>
<asrwt>0</asrwt>
<pdfrwt beam="1">  1        2 0.36141507E+00 0.56631677E+03</pdfrwt>
<pdfrwt beam="2">  1       -2 0.52508048E-02 0.56631677E+03</pdfrwt>
<totfact> 0.85188261E+02</totfact>
</mgrwt>
</event>
<event>
 5    0  0.6041737E-002  0.5050683E+03  0.7546771E-02  0.1012464E+00
         -2   -1    0    0    0  501 -0.00000000000E+00  0.00000000000E+00  0.33020597588E+02  0.33020597588E+02  0.00000000000E+00 0.  1.
          2   -1    0    0  503    0  0.00000000000E+00 -0.00000000000E+00 -0.19313248831E+04  0.19313248831E+04  0.00000000000E+00 0. -1.
         25    1    1    2    0    0 -0.91756314595E+02 -0.21554938442E+03 -0.88956115996E+03  0.92834520288E+03  0.12500000000E+03 0.  0.
         21    1    1    2  502  501  0.78962758985E+00  0.21792669855E+02 -0.10717926186E+03  0.10937521723E+03  0.00000000000E+00 0. -1.
         21    1    1    2  503  502  0.90966687005E+02  0.19375671457E+03 -0.90156386370E+03  0.92662506059E+03  0.00000000000E+00 0. -1.
<mgrwt>
<rscale>  4 0.50506832E+03</rscale>
<asrwt>0</asrwt>
<pdfrwt beam="1">  1        2 0.29712691E+00 0.50506832E+03</pdfrwt>
<pdfrwt beam="2">  1       -2 0.50800918E-02 0.50506832E+03</pdfrwt>
<totfact> 0.15194971E+03</totfact>
</mgrwt>
</event>
<event>
 5    0  0.6041737E-002  0.5534703E+03  0.7546771E-02  0.1000694E+00
          1   -1    0    0  503    0  0.00000000000E+00  0.00000000000E+00  0.31732106065E+03  0.31732106065E+03  0.00000000000E+00 0. -1.
         -1   -1    0    0    0  501 -0.00000000000E+00 -0.00000000000E+00 -0.41000204935E+03  0.41000204935E+03  0.00000000000E+00 0.  1.
         25    1    1    2    0    0 -0.17808239604E+03 -0.17516564613E+03  0.19186365380E+02  0.27998117790E+03  0.12500000000E+03 0.  0.
         21    1    1    2  502  501  0.48482522933E+02  0.12211954850E+02  0.12341876986E+03  0.13316110402E+03  0.00000000000E+00 0. -1.
         21    1    1    2  503  502  0.12959987311E+03  0.16295369128E+03 -0.23528612394E+03  0.31418082807E+03  0.00000000000E+00 0. -1.
<mgrwt>
<rscale>  4 0.55347031E+03</rscale>
<asrwt>0</asrwt>
<pdfrwt beam="1">  1        1 0.48818625E-01 0.55347031E+03</pdfrwt>
<pdfrwt beam="2">  1       -1 0.63077238E-01 0.55347031E+03</pdfrwt>
<totfact> 0.21236084E+02</totfact>
</mgrwt>
</event>
<event>
 5    0  0.6041737E-002  0.6393145E+03  0.7546771E-02  0.9827039E-01
          2   -1    0    0  503    0  0.00000000000E+00  0.00000000000E+00  0.89160081755E+03  0.89160081755E+03  0.00000000000E+00 0. -1.
         -2   -1    0    0    0  501 -0.00000000000E+00 -0.00000000000E+00 -0.11460372291E+03  0.11460372291E+03  0.00000000000E+00 0.  1.
         25    1    1    2    0    0  0.74930365972E+02 -0.28168804514E+03  0.26316122208E+03  0.41211836082E+03  0.12500000000E+03 0.  0.
         21    1    1    2  502  501 -0.38627098170E+02  0.22948340219E+03  0.42915900277E+03  0.48819272245E+03  0.00000000000E+00 0. -1.
         21    1    1    2  503  502 -0.36303267802E+02  0.52204642941E+02  0.84676869787E+02  0.10589345719E+03  0.00000000000E+00 0.  1.
<mgrwt>
<rscale>  4 0.63931455E+03</rscale>
<asrwt>0</asrwt>
<pdfrwt beam="1">  1        2 0.13716935E+00 0.63931455E+03</pdfrwt>
<pdfrwt beam="2">  1       -2 0.17631343E-01 0.63931455E+03</pdfrwt>
<totfact> 0.79474291E+02</totfact>
</mgrwt>
</event>
<event>
 5    0  0.6041737E-002  0.4833184E+03  0.7546771E-02  0.1018227E+00
         -1   -1    0    0    0  501 -0.00000000000E+00  0.00000000000E+00  0.91810689661E+02  0.91810689661E+02  0.00000000000E+00 0. -1.
          1   -1    0    0  503    0  0.00000000000E+00 -0.00000000000E+00 -0.63608255478E+03  0.63608255478E+03  0.00000000000E+00 0.  1.
         25    1    1    2    0    0  0.19943942469E+03  0.88281390231E+02 -0.29511660232E+03  0.38767060366E+03  0.12500000000E+03 0.  0.
         21    1    1    2  502  501 -0.12097941628E+03 -0.14385537732E+02 -0.10945863882E+03  0.16378081839E+03  0.00000000000E+00 0.  1.
         21    1    1    2  503  502 -0.78460008407E+02 -0.73895852499E+02 -0.13969662398E+03  0.17644182238E+03  0.00000000000E+00 0.  1.
<mgrwt>
<rscale>  4 0.48331844E+03</rscale>
<asrwt>0</asrwt>
<pdfrwt beam="1">  1        1 0.97858850E-01 0.48331844E+03</pdfrwt>
<pdfrwt beam="2">  1       -1 0.14124722E-01 0.48331844E+03</pdfrwt>
<totfact> 0.11463560E+03</totfact>
</mgrwt>
</event>
<event>
 5    0  0.6041737E-002  0.6166152E+03  0.7546771E-02  0.9871522E-01
          2   -1    0    0  503    0  0.00000000000E+00  0.00000000000E+00  0.40755667400E+03  0.40755667400E+03  0.00000000000E+00 0.  1.
         -2   -1    0    0    0  501 -0.00000000000E+00 -0.00000000000E+00 -0.23322788105E+03  0.23322788105E+03  0.00000000000E+00 0. -1.
         25    1    1    2    0    0  0.28252645280E+03 -0.61603439156E+02  0.56763114957E+02  0.32009878392E+03  0.12500000000E+03 0.  0.
         21    1    1    2  502  501 -0.24282183590E+03  0.28154001097E+02  0.82327045338E+02  0.25793959402E+03  0.00000000000E+00 0. -1.
         21    1    1    2  503  502 -0.39704616903E+02  0.33449438058E+02  0.35238632662E+02  0.62746177108E+02  0.00000000000E+00 0. -1.
<mgrwt>
<rscale>  4 0.61661521E+03</rscale>
<asrwt>0</asrwt>
<pdfrwt beam="1">  1        2 0.62701027E-01 0.61661521E+03</pdfrwt>
<pdfrwt beam="2">  1       -2 0.35881213E-01 0.61661521E+03</pdfrwt>
<totfact> 0.57261895E+02</totfact>
</mgrwt>
</event>
<event>
 5    0  0.6041737E-002  0.6577049E+03  0.7546771E-02  0.9792428E-01
         -2   -1    0    0    0  501 -0.00000000000E+00  0.00000000000E+00  0.22447148570E+03  0.22447148570E+03  0.00000000000E+00 0.  1.
          2   -1    0    0  503    0  0.00000000000E+00 -0.00000000000E+00 -0.48177137361E+03  0.48177137361E+03  0.00000000000E+00 0. -1.
         25    1    1    2    0    0 -0.19780271808E+03 -0.33255024388E+02 -0.39241588916E+03  0.45809064823E+03  0.12500000000E+03 0.  0.
         21    1    1    2  502  501  0.10990061488E+03  0.34665086087E+02  0.49440383749E+02  0.12539603219E+03  0.00000000000E+00 0.  1.
         21    1    1    2  503  502  0.87902103210E+02 -0.14100616995E+01  0.85675617504E+02  0.12275617890E+03  0.00000000000E+00 0.  1.
<mgrwt>
<rscale>  4 0.65770491E+03</rscale>
<asrwt>0</asrwt>
<pdfrwt beam="1">  1        2 0.74118673E-01 0.65770491E+03</pdfrwt>
<pdfrwt beam="2">  1       -2 0.34534075E-01 0.65770491E+03</pdfrwt>
<totfact> 0.50891683E+02</totfact>
</mgrwt>
</event>
<event>
 5    0  0.6041737E-002  0.1258042E+04  0.7546771E-02  0.9063516E-01
          1   -1    0    0  503    0  0.00000000000E+00  0.00000000000E+00  0.34567805214E+03  0.34567805214E+03  0.00000000000E+00 0. -1.
         -1   -1    0    0    0  501 -0.00000000000E+00 -0.00000000000E+00 -0.11446124495E+04  0.11446124495E+04  0.00000000000E+00 0.  1.
         25    1    1    2    0    0 -0.31086526067E+03  0.53758234887E+03 -0.37415375647E+03  0.73569560661E+03  0.12500000000E+03 0.  0.
         21    1    1    2  502  501  0.29673987830E+03 -0.52095976055E+03 -0.42065049896E+03  0.73239365765E+03  0.00000000000E+00 0.  1.
         21    1    1    2  503  502  0.14125382363E+02 -0.16622588320E+02 -0.41301419303E+01  0.22201237392E+02  0.00000000000E+00 0.  1.
<mgrwt>
<rscale>  4 0.12580420E+04</rscale>
<asrwt>0</asrwt>
<pdfrwt beam="1">  1        1 0.53181238E-01 0.12580420E+04</pdfrwt>
<pdfrwt beam="2">  1       -1 0.17609422E+00 0.12580420E+04</pdfrwt>
<totfact> 0.15933894E+01</totfact>
</mgrwt>
</event>
<event>
 5    0  0.6041737E-002  0.6813783E+03  0.7546771E-02  0.9749619E-01
          1   -1    0    0  503    0  0.00000000000E+00  0.00000000000E+00  0.14026649152E+04  0.14026649152E+04  0.00000000000E+00 0. -1.
         -1   -1    0    0    0  501 -0.00000000000E+00 -0.00000000000E+00 -0.82748993080E+02  0.82748993080E+02  0.00000000000E+00 0.  1.
         25    1    1    2    0    0  0.17265896800E+03  0.18491820890E+03  0.23571132678E+03  0.36768286985E+03  0.12500000000E+03 0.  0.
         21    1    1    2  502  501 -0.81970711153E+02 -0.12581595418E+03  0.79224682005E+03  0.80635220326E+03  0.00000000000E+00 0. -1.
         21    1    1    2  503  502 -0.90688256846E+02 -0.59102254713E+02  0.29195777533E+03  0.31137883522E+03  0.00000000000E+00 0. -1.
<mgrwt>
<rscale>  4 0.68137834E+03</rscale>
<asrwt>0</asrwt>
<pdfrwt beam="1">  1        1 0.21579458E+00 0.68137834E+03</pdfrwt>
<pdfrwt beam="2">  1       -1 0.12730615E-01 0.68137834E+03</pdfrwt>
<totfact> 0.33492869E+02</totfact>
</mgrwt>
</event>
<event>
 5    0  0.6041737E-002  0.7335749E+03  0.7546771E-02  0.9661477E-01
         -1   -1    0    0    0  501 -0.00000000000E+00  0.00000000000E+00  0.48466979735E+02  0.48466979735E+02  0.00000000000E+00 0. -1.
          1   -1    0    0  503    0  0.00000000000E+00 -0.00000000000E+00 -0.27757671797E+04  0.27757671797E+04  0.00000000000E+00 0.  1.
         25    1    1    2    0    0  0.22676695350E+03 -0.11046519180E+03 -0.23261801332E+04  0.23431527526E+04  0.12500000000E+03 0.  0.
         21    1    1    2  502  501 -0.41883976952E+02  0.48918526854E+02 -0.14990445038E+03  0.16315218061E+03  0.00000000000E+00 0. -1.
         21    1    1    2  503  502 -0.18488297654E+03  0.61546664951E+02 -0.25121561634E+03  0.31792922621E+03  0.00000000000E+00 0. -1.
<mgrwt>
<rscale>  4 0.73357495E+03</rscale>
<asrwt>0</asrwt>
<pdfrwt beam="1">  1        1 0.42704115E+00 0.73357495E+03</pdfrwt>
<pdfrwt beam="2">  1       -1 0.74564576E-02 0.73357495E+03</pdfrwt>
<totfact> 0.91359818E+01</totfact>
</mgrwt>
</event>
