<LesHouchesEvents version="3.0">
  <!--
  <scalesfunctionalform>
    muR  H_T/2 := sum_i mT(i)/2, i=final state
    muF1 H_T/2 := sum_i mT(i)/2, i=final state
    muF2 H_T/2 := sum_i mT(i)/2, i=final state
    QES  H_T/2 := sum_i mT(i)/2, i=final state
  </scalesfunctionalform>
HERWIG6   
  -->
  <header>
      140
  </header>
  <init>
   2212   2212 0.65000000D+04 0.65000000D+04 -1 -1   247000   247000 -3   1
 0.25848712D-01 0.61000427D-03 0.44822969D-03     66
  </init>
  <event>
  5     66 -.44822969E-03 0.20967613E+02 0.75467711E-02 0.11862670E+00
        2 -1    0    0  502    0 0.00000000E+00 0.00000000E+00 0.96275185E+03 0.96275190E+03 0.32000000E+00 0.0000E+00 0.9000E+01
       21 -1    0    0  501  502 0.00000000E+00 0.00000000E+00 -.35329367E+02 0.35337327E+02 0.75000000E+00 0.0000E+00 0.9000E+01
       25  1    1    2    0    0 0.10676493E+03 -.38165079E+02 0.25156792E+03 0.30293026E+03 0.12500000E+03 0.0000E+00 0.9000E+01
       23  1    1    2    0    0 -.97069236E+02 0.19574565E+02 0.49099482E+03 0.50911370E+03 0.91188000E+02 0.0000E+00 0.9000E+01
        2  1    1    2  501    0 -.96956964E+01 0.18590515E+02 0.18485975E+03 0.18604527E+03 0.32000000E+00 0.0000E+00 0.9000E+01
#aMCatNLO 1  0  0  5  2 0.27011358D+01 0.00000000D+00  -5  6  0 0.00000000D+00 0.00000000D+00 0.00000000D+00 0.00000000D+00 0.00000000D+00
  <mgrwgt>
 -.2340007421D+00    7    2    0
 0.184438099928961D+03 0.000000000000000D+00 0.000000000000000D+00 0.184438099928961D+03
 0.184438099928961D+03 -.000000000000000D+00 -.000000000000000D+00 -.184438099928961D+03
 0.187168040117207D+03 0.106765101025216D+03 -.381654029303816D+02 -.809412778720062D+02
 0.143086412976810D+03 -.970691066529506D+02 0.195743170203289D+02 0.485067508843461D+02
 0.386217467639052D+02 -.969599437226585D+01 0.185910859100527D+02 0.324345269876600D+02
 0.000000000000000D+00 0.000000000000000D+00 0.000000000000000D+00 0.000000000000000D+00
 0.184438099928961D+03 0.000000000000000D+00 0.000000000000000D+00 0.184438099928961D+03
 0.184438099928961D+03 -.000000000000000D+00 -.000000000000000D+00 -.184438099928961D+03
 0.186910442128109D+03 0.106657997583447D+03 -.379600429424586D+02 -.805830011095459D+02
 0.143256776788447D+03 -.971510903612006D+02 0.197315124666937D+02 0.487809984442857D+02
 0.333520694240967D+02 -.823495743703151D+01 0.136746132971691D+02 0.292839710772452D+02
 0.535691151727014D+01 -.127194978521539D+01 0.455391717859582D+01 0.251803158801509D+01
0.936729652330D-06 0.000000000000D+00 0.000000000000D+00 0.782822479469D-07 0.000000000000D+00  6 2 21 25 23 2 21 2 0.14811629D+00 0.54359037D-02 0.26299518D+05 0.26299518D+05 0.26299518D+05 0.12209451D+01  1  2  2  3  6  5        2 0.114784051669D-01 0.100000000000D+01
-.351231372973D-07 0.494325818370D-07 -.189098728428D-08 0.782822479469D-07 0.000000000000D+00  6 2 21 25 23 2 21 4 0.14811629D+00 0.54359037D-02 0.26299518D+05 0.26299518D+05 0.26299518D+05 0.12209451D+01  1  2  3  3  6  5        2 -.641583062301D-03 0.100000000000D+01
0.103061497208D-06 0.000000000000D+00 0.000000000000D+00 0.782822479469D-07 0.000000000000D+00  6 2 21 25 23 2 21 4 0.14811629D+00 0.54359037D-02 0.26299518D+05 0.26299518D+05 0.26299518D+05 0.12209451D+01  1  2 15  3  6  5        2 0.188259125101D-02 0.100000000000D+01
0.810897836669D-08 0.000000000000D+00 0.000000000000D+00 0.782935513936D-07 0.000000000000D+00  6 2 21 25 23 2 21 4 0.14811629D+00 0.54359037D-02 0.26249487D+05 0.26249487D+05 0.26249487D+05 0.12210333D+01  1  2 12  3  6  5        2 0.148167578641D-03 0.100000000000D+01
-.153343656393D-04 0.000000000000D+00 0.000000000000D+00 0.782822479469D-07 0.000000000000D+00  6 2 21 25 23 2 21 4 0.14811629D+00 0.54359037D-02 0.26299518D+05 0.26299518D+05 0.26299518D+05 0.12209451D+01  1  2  4  3  6  5        2 -.280107929483D+00 0.100000000000D+01
-.634419908100D-05 0.000000000000D+00 0.000000000000D+00 0.782822479469D-07 0.000000000000D+00  6 2 21 25 23 2 21 4 0.14811629D+00 0.54359037D-02 0.26299518D+05 0.26299518D+05 0.26299518D+05 0.12209451D+01  1  2  5  3  6  5        2 -.115887445924D+00 0.100000000000D+01
0.816388437165D-05 0.000000000000D+00 -.000000000000D+00 0.782822479469D-07 0.000000000000D+00  6 2 21 25 23 2 21 4 0.14811629D+00 0.54359037D-02 0.26299518D+05 0.26299518D+05 0.26299518D+05 0.12209451D+01  1  2  6  3  6  5        2 0.149127052378D+00 0.100000000000D+01
  </mgrwgt>
  </event>
  <event>
  5     66 0.44822969E-03 0.11593712E+03 0.75467711E-02 0.11206243E+00
        2 -1    0    0  502    0 0.00000000E+00 0.00000000E+00 0.36023472E+04 0.36023472E+04 0.32000000E+00 0.0000E+00 0.9000E+01
       21 -1    0    0  501  502 0.00000000E+00 0.00000000E+00 -.31387882E+02 0.31396841E+02 0.75000000E+00 0.0000E+00 0.9000E+01
       25  1    1    2    0    0 -.45682109E+01 -.15201143E+02 0.19994116E+04 0.20033780E+04 0.12500000E+03 0.0000E+00 0.9000E+01
       23  1    1    2    0    0 -.11403250E+03 0.40997922E+02 0.14523582E+04 0.14602547E+04 0.91188000E+02 0.0000E+00 0.9000E+01
        2  1    1    2  501    0 0.11860071E+03 -.25796779E+02 0.11918953E+03 0.17011128E+03 0.32000000E+00 0.0000E+00 0.9000E+01
#aMCatNLO 1  0  0  2  1 0.63647831D+02 0.00000000D+00  -5  6  0 0.00000000D+00 0.00000000D+00 0.00000000D+00 0.00000000D+00 0.00000000D+00
  <mgrwgt>
 0.2087625490D-01   23    2    0
 0.336283141592643D+03 0.000000000000000D+00 0.000000000000000D+00 0.336283141592643D+03
 0.336283141592643D+03 0.000000000000000D+00 0.000000000000000D+00 -.336283141592643D+03
 0.208077175167296D+03 -.456823387430149D+01 -.152011379337376D+02 0.165587340912253D+03
 0.178242455802788D+03 -.114032516407242D+03 0.409979266148818D+02 0.936529600264821D+02
 0.286246652215202D+03 0.118600750281543D+03 -.257967886811442D+02 -.259240300938735D+03
 0.000000000000000D+00 -.000000000000000D+00 -.000000000000000D+00 -.000000000000000D+00
 0.344815662616104D+03 0.000000000000000D+00 0.000000000000000D+00 0.344815662616104D+03
 0.481847178509975D+03 0.000000000000000D+00 0.000000000000000D+00 -.481847178509975D+03
 0.208163795900798D+03 0.141824365801959D+02 -.931970740350839D+01 0.165587340912253D+03
 0.169903253368135D+03 -.983493763115897D+02 0.459171799926354D+02 0.936529600264821D+02
 0.297504154770338D+03 0.144897342328322D+03 -.175484660582157D+02 -.259240300938735D+03
 0.151091637086808D+03 -.607304025969285D+02 -.190490065309113D+02 -.137031515893871D+03
0.154787399927D-04 0.000000000000D+00 0.000000000000D+00 0.618190476211D-06 0.000000000000D+00  6 2 21 25 23 2 21 2 0.55420795D+00 0.48295952D-02 0.39806922D+05 0.39806922D+05 0.39806922D+05 0.12022137D+01  1  2  2  2  6  2       21 0.732269646571D-02 0.100000000000D+01
0.168020464375D-06 0.816835550702D-06 -.312471164225D-07 0.618190476211D-06 0.000000000000D+00  6 2 21 25 23 2 21 4 0.55420795D+00 0.48295952D-02 0.39806922D+05 0.39806922D+05 0.39806922D+05 0.12022137D+01  1  2  3  2  6  2       21 0.114884374394D-03 0.100000000000D+01
0.169690938884D-05 0.000000000000D+00 0.000000000000D+00 0.618190476211D-06 0.000000000000D+00  6 2 21 25 23 2 21 4 0.55420795D+00 0.48295952D-02 0.39806922D+05 0.39806922D+05 0.39806922D+05 0.12022137D+01  1  2 15  2  6  2       21 0.116026565136D-02 0.100000000000D+01
0.670954107274D-04 0.000000000000D+00 0.000000000000D+00 0.602322198082D-06 0.000000000000D+00  6 2 21 25 23 2 21 4 0.55420795D+00 0.69609501D-02 0.57004400D+05 0.57004400D+05 0.57004400D+05 0.11866836D+01  1  2 12  2  6  2       21 0.226741775623D-01 0.100000000000D+01
-.569835606555D-04 0.000000000000D+00 0.000000000000D+00 0.618190476211D-06 0.000000000000D+00  6 2 21 25 23 2 21 4 0.55420795D+00 0.48295952D-02 0.39806922D+05 0.39806922D+05 0.39806922D+05 0.12022137D+01  1  2  4  2  6  2       21 -.389626391106D-01 0.100000000000D+01
-.149210192298D-03 0.000000000000D+00 -.193126670764D-04 0.618190476211D-06 0.000000000000D+00  6 2 21 25 23 2 21 4 0.55420795D+00 0.71836934D-02 0.39806922D+05 0.39806922D+05 0.39806922D+05 0.12022137D+01  1  2  5  2  6  2       21 -.517033521407D-01 0.100000000000D+01
0.119558136365D-03 0.000000000000D+00 0.143591035132D-04 0.618190476211D-06 0.000000000000D+00  6 2 21 25 23 2 21 4 0.55420795D+00 0.48295952D-02 0.39806922D+05 0.39806922D+05 0.39806922D+05 0.12022137D+01  1  2  6  2  6  2       21 0.817481474717D-01 0.100000000000D+01
0.805035276974D-05 0.000000000000D+00 0.000000000000D+00 0.602322198082D-06 0.000000000000D+00  6 2 -1 25 23 2 -1 4 0.55420795D+00 0.69609501D-02 0.57004400D+05 0.57004400D+05 0.57004400D+05 0.11866836D+01  1  2 12  5  6  2       21 0.170132327805D-03 0.100000000000D+01
0.805035276974D-05 0.000000000000D+00 0.000000000000D+00 0.602322198082D-06 0.000000000000D+00  6 2 -3 25 23 2 -3 4 0.55420795D+00 0.69609501D-02 0.57004400D+05 0.57004400D+05 0.57004400D+05 0.11866836D+01  1  2 12  5  6  2       21 0.119450988840D-03 0.100000000000D+01
-.175241210777D-04 0.000000000000D+00 -.256191860847D-05 0.618190476211D-06 0.000000000000D+00  6 2 -1 25 23 2 -1 4 0.55420795D+00 0.71836934D-02 0.39806922D+05 0.39806922D+05 0.39806922D+05 0.12022137D+01  1  2  5  5  6  2       21 -.379414902366D-03 0.100000000000D+01
-.175241210777D-04 0.000000000000D+00 -.256191860847D-05 0.618190476211D-06 0.000000000000D+00  6 2 -3 25 23 2 -3 4 0.55420795D+00 0.71836934D-02 0.39806922D+05 0.39806922D+05 0.39806922D+05 0.12022137D+01  1  2  5  5  6  2       21 -.263585025220D-03 0.100000000000D+01
0.805035276974D-05 0.000000000000D+00 0.000000000000D+00 0.602322198082D-06 0.000000000000D+00  6 2 1 25 23 2 1 4 0.55420795D+00 0.69609501D-02 0.57004400D+05 0.57004400D+05 0.57004400D+05 0.11866836D+01  1  2 12  6  6  2       21 0.199888319406D-03 0.100000000000D+01
0.805035276974D-05 0.000000000000D+00 0.000000000000D+00 0.602322198082D-06 0.000000000000D+00  6 2 3 25 23 2 3 4 0.55420795D+00 0.69609501D-02 0.57004400D+05 0.57004400D+05 0.57004400D+05 0.11866836D+01  1  2 12  6  6  2       21 0.119438463100D-03 0.100000000000D+01
-.175241210777D-04 0.000000000000D+00 -.256191860847D-05 0.618190476211D-06 0.000000000000D+00  6 2 1 25 23 2 1 4 0.55420795D+00 0.71836934D-02 0.39806922D+05 0.39806922D+05 0.39806922D+05 0.12022137D+01  1  2  5  6  6  2       21 -.448123486424D-03 0.100000000000D+01
-.175241210777D-04 0.000000000000D+00 -.256191860847D-05 0.618190476211D-06 0.000000000000D+00  6 2 3 25 23 2 3 4 0.55420795D+00 0.71836934D-02 0.39806922D+05 0.39806922D+05 0.39806922D+05 0.12022137D+01  1  2  5  6  6  2       21 -.263556248558D-03 0.100000000000D+01
0.805035276974D-05 0.000000000000D+00 0.000000000000D+00 0.602322198082D-06 0.000000000000D+00  6 2 -2 25 23 2 -2 4 0.55420795D+00 0.69609501D-02 0.57004400D+05 0.57004400D+05 0.57004400D+05 0.11866836D+01  1  2 12  7  6  2       21 0.164947630729D-03 0.100000000000D+01
-.175241210777D-04 0.000000000000D+00 -.256191860847D-05 0.618190476211D-06 0.000000000000D+00  6 2 -2 25 23 2 -2 4 0.55420795D+00 0.71836934D-02 0.39806922D+05 0.39806922D+05 0.39806922D+05 0.12022137D+01  1  2  5  7  6  2       21 -.367437272491D-03 0.100000000000D+01
0.805035276974D-05 0.000000000000D+00 0.000000000000D+00 0.602322198082D-06 0.000000000000D+00  6 2 2 25 23 2 2 4 0.55420795D+00 0.69609501D-02 0.57004400D+05 0.57004400D+05 0.57004400D+05 0.11866836D+01  1  2 12  8  6  2       21 0.219975625150D-03 0.100000000000D+01
-.175241210777D-04 0.000000000000D+00 -.256191860847D-05 0.618190476211D-06 0.000000000000D+00  6 2 2 25 23 2 2 4 0.55420795D+00 0.71836934D-02 0.39806922D+05 0.39806922D+05 0.39806922D+05 0.12022137D+01  1  2  5  8  6  2       21 -.494433831064D-03 0.100000000000D+01
0.805035276974D-05 0.000000000000D+00 0.000000000000D+00 0.602322198082D-06 0.000000000000D+00  6 2 -4 25 23 2 -4 4 0.55420795D+00 0.69609501D-02 0.57004400D+05 0.57004400D+05 0.57004400D+05 0.11866836D+01  1  2 12  9  6  2       21 0.106519478044D-03 0.100000000000D+01
-.175241210777D-04 0.000000000000D+00 -.256191860847D-05 0.618190476211D-06 0.000000000000D+00  6 2 -4 25 23 2 -4 4 0.55420795D+00 0.71836934D-02 0.39806922D+05 0.39806922D+05 0.39806922D+05 0.12022137D+01  1  2  5  9  6  2       21 -.234123460975D-03 0.100000000000D+01
0.805035276974D-05 0.000000000000D+00 0.000000000000D+00 0.602322198082D-06 0.000000000000D+00  6 2 4 25 23 2 4 4 0.55420795D+00 0.69609501D-02 0.57004400D+05 0.57004400D+05 0.57004400D+05 0.11866836D+01  1  2 12 10  6  2       21 0.106519478044D-03 0.100000000000D+01
-.175241210777D-04 0.000000000000D+00 -.256191860847D-05 0.618190476211D-06 0.000000000000D+00  6 2 4 25 23 2 4 4 0.55420795D+00 0.71836934D-02 0.39806922D+05 0.39806922D+05 0.39806922D+05 0.12022137D+01  1  2  5 10  6  2       21 -.234123460975D-03 0.100000000000D+01
  </mgrwgt>
  </event>
  <event>
  6     66 -.44822969E-03 0.64592010E+02 0.75467711E-02 0.11896816E+00
        2 -1    0    0  503    0 0.00000000E+00 0.00000000E+00 0.26490518E+04 0.26490519E+04 0.32000000E+00 0.0000E+00 0.9000E+01
       21 -1    0    0  501  502 0.00000000E+00 0.00000000E+00 -.10952069E+02 0.10977719E+02 0.75000000E+00 0.0000E+00 0.9000E+01
       25  1    1    2    0    0 0.42522215E+01 0.23792913E+02 0.73327218E+03 0.74424275E+03 0.12500000E+03 0.0000E+00 0.9000E+01
       23  1    1    2    0    0 -.60347157E+02 -.59442496E+02 0.87894467E+03 0.88771289E+03 0.91188000E+02 0.0000E+00 0.9000E+01
        2  1    1    2  501    0 0.47827376E+02 0.29690559E+02 0.91087066E+03 0.91260859E+03 0.32000000E+00 0.0000E+00 0.9000E+01
       21  1    1    2  503  502 0.82675596E+01 0.59590243E+01 0.11501226E+03 0.11546534E+03 0.75000000E+00 0.0000E+00 0.9000E+01
#aMCatNLO 2  0  0  1  2 0.10191296D+02 0.00000000D+00  -5  6  0 0.00000000D+00 0.00000000D+00 0.00000000D+00 0.00000000D+00 0.00000000D+00
  <mgrwgt>
 -.1564070985D+00    3    2    0
 0.164873217363661D+03 0.000000000000000D+00 0.000000000000000D+00 0.164873217363661D+03
 0.164873217363661D+03 0.000000000000000D+00 0.000000000000000D+00 -.164873217363661D+03
 0.132952322755677D+03 0.757716733482713D+01 0.261894580069797D+02 -.361665446318870D+02
 0.122321432009621D+03 -.572494820709161D+02 -.572097623919009D+02 -.983978020885407D+01
 0.744726799620239D+02 0.496723147360889D+02 0.310203043849212D+02 0.460063248407411D+02
 0.000000000000000D+00 0.000000000000000D+00 0.000000000000000D+00 0.000000000000000D+00
 0.172440955620914D+03 0.000000000000000D+00 0.000000000000000D+00 0.172440955620914D+03
 0.168419105763661D+03 0.000000000000000D+00 0.000000000000000D+00 -.168419105763661D+03
 0.132352544198463D+03 0.425203623899101D+01 0.237927970826937D+02 -.361665446318870D+02
 0.124849093856452D+03 -.603473310134065D+02 -.594426047358027D+02 -.983978020885407D+01
 0.727022475347439D+02 0.478277352017394D+02 0.296907833632541D+02 0.460063248407411D+02
 0.109561757949164D+02 0.826755957267606D+01 0.595902428985499D+01 0.402184985725246D+01
-.106464410947D-04 0.000000000000D+00 0.000000000000D+00 0.115502647521D-06 0.000000000000D+00  6 2 21 25 23 2 21 4 0.41156388D+00 0.16512675D-02 0.25322592D+05 0.25322592D+05 0.25322592D+05 0.12227011D+01  1  2 13  1  6  1        2 -.169646973712D+00 0.100000000000D+01
-.320923604206D-06 0.000000000000D+00 0.000000000000D+00 0.116056790454D-06 0.000000000000D+00  6 2 21 25 23 2 21 4 0.38963332D+00 0.16512675D-02 0.23781720D+05 0.23781720D+05 0.23781720D+05 0.12256307D+01  1  2  8  1  6  1        2 -.618087856391D-02 0.100000000000D+01
0.121999483689D-05 0.000000000000D+00 0.000000000000D+00 0.116056790454D-06 0.104995754127D-06  6 2 21 25 23 2 21 4 0.40751762D+00 0.16867809D-02 0.25322592D+05 0.25322592D+05 0.25322592D+05 0.12227011D+01  1  2  1  1  6  1        2 0.194207537309D-01 0.100000000000D+01
  </mgrwgt>
  </event>
  <event>
  5     66 0.44822969E-03 0.26115467E+02 0.75467711E-02 0.11159731E+00
        2 -1    0    0  502    0 0.00000000E+00 0.00000000E+00 0.11149716E+04 0.11149717E+04 0.32000000E+00 0.0000E+00 0.9000E+01
       21 -1    0    0  501  502 0.00000000E+00 0.00000000E+00 -.51606902E+02 0.51612352E+02 0.75000000E+00 0.0000E+00 0.9000E+01
       25  1    1    2    0    0 -.11172673E+03 -.24029958E+02 0.37300674E+03 0.40965758E+03 0.12500000E+03 0.0000E+00 0.9000E+01
       23  1    1    2    0    0 0.87696292E+02 0.34255040E+02 0.71140848E+03 0.72338186E+03 0.91188000E+02 0.0000E+00 0.9000E+01
        2  1    1    2  501    0 0.24030443E+02 -.10225082E+02 -.21050484E+02 0.33544593E+02 0.32000000E+00 0.0000E+00 0.9000E+01
#aMCatNLO 1  0  0  1  2 0.17328350D+03 0.00000000D+00  -5  6  0 0.00000000D+00 0.00000000D+00 0.00000000D+00 0.00000000D+00 0.00000000D+00
  <mgrwgt>
 0.2734710335D+00    3    2    0
 0.239882133176503D+03 0.000000000000000D+00 0.000000000000000D+00 0.239882133176503D+03
 0.239882133176503D+03 0.000000000000000D+00 0.000000000000000D+00 -.239882133176503D+03
 0.169370227204506D+03 -.111726760738439D+03 -.240299470328270D+02 -.983078735914155D+00
 0.182170904005048D+03 0.876962631444997D+02 0.342550523042283D+02 0.126518550988152D+03
 0.128223135143452D+03 0.240304975939395D+02 -.102251052714013D+02 -.125535472252238D+03
 0.000000000000000D+00 -.000000000000000D+00 -.000000000000000D+00 -.000000000000000D+00
 0.256901299015638D+03 0.000000000000000D+00 0.000000000000000D+00 0.256901299015638D+03
 0.761647624164215D+03 0.000000000000000D+00 0.000000000000000D+00 -.761647624164215D+03
 0.162162838799881D+03 -.101524120779533D+03 0.190702056564120D+02 -.983078735914155D+00
 0.203355715442153D+03 0.995605074571376D+02 0.843745060413727D+02 0.126518550988152D+03
 0.131682308857910D+03 0.320288601719588D+02 0.235632720275163D+02 -.125535472252238D+03
 0.521348060079909D+03 -.300652468495632D+02 -.127007983725301D+03 -.504746325148577D+03
0.359951189741D-04 0.000000000000D+00 0.000000000000D+00 0.141788078870D-05 0.000000000000D+00  6 2 21 25 23 2 21 2 0.17153452D+00 0.79399461D-02 0.26659158D+05 0.26659158D+05 0.26659158D+05 0.12203170D+01  1  2  2  1  6  1        2 0.186982870359D+00 0.100000000000D+01
0.786805552629D-05 0.189951461448D-05 -.726637745553D-07 0.141788078870D-05 0.000000000000D+00  6 2 21 25 23 2 21 4 0.17153452D+00 0.79399461D-02 0.26659158D+05 0.26659158D+05 0.26659158D+05 0.12203170D+01  1  2  3  1  6  1        2 0.608654646216D-01 0.100000000000D+01
0.331223651921D-05 0.000000000000D+00 0.000000000000D+00 0.141788078870D-05 0.000000000000D+00  6 2 21 25 23 2 21 4 0.17153452D+00 0.79399461D-02 0.26659158D+05 0.26659158D+05 0.26659158D+05 0.12203170D+01  1  2 15  1  6  1        2 0.256226985187D-01 0.100000000000D+01
  </mgrwgt>
  </event>
  <event>
  5     66 0.44822969E-03 0.28310068E+02 0.75467711E-02 0.11931603E+00
        2 -1    0    0  502    0 0.00000000E+00 0.00000000E+00 0.11570698E+04 0.11570699E+04 0.32000000E+00 0.0000E+00 0.9000E+01
       21 -1    0    0  501  502 0.00000000E+00 0.00000000E+00 -.24803830E+02 0.24815166E+02 0.75000000E+00 0.0000E+00 0.9000E+01
       25  1    1    2    0    0 -.25770763E+01 -.65553610E+02 0.39180669E+03 0.41646296E+03 0.12500000E+03 0.0000E+00 0.9000E+01
       23  1    1    2    0    0 0.77862659E+01 0.93379774E+02 0.71650285E+03 0.72833509E+03 0.91188000E+02 0.0000E+00 0.9000E+01
        2  1    1    2  501    0 -.52091896E+01 -.27826164E+02 0.23956473E+02 0.37087007E+02 0.32000000E+00 0.0000E+00 0.9000E+01
#aMCatNLO 1  0  0  5  2 0.16861540D+02 0.00000000D+00  -5  6  0 0.00000000D+00 0.00000000D+00 0.00000000D+00 0.00000000D+00 0.00000000D+00
  <mgrwgt>
 0.5388178842D-01    4    2    0
 0.169429892963706D+03 0.000000000000000D+00 0.000000000000000D+00 0.169429892963706D+03
 0.169429892963706D+03 -.000000000000000D+00 -.000000000000000D+00 -.169429892963706D+03
 0.143368715691273D+03 -.257702984960560D+01 -.655533620525370D+02 -.250140816287182D+02
 0.146186229965593D+03 0.778631324602306D+01 0.933800271632462D+02 0.653812384448272D+02
 0.493048402705463D+02 -.520928339641746D+01 -.278266651107093D+02 -.403671568161090D+02
 0.000000000000000D+00 0.000000000000000D+00 0.000000000000000D+00 0.000000000000000D+00
 0.169429892963706D+03 0.000000000000000D+00 0.000000000000000D+00 0.169429892963706D+03
 0.169429892963706D+03 -.000000000000000D+00 -.000000000000000D+00 -.169429892963706D+03
 0.148630253044783D+03 -.384972205539654D+01 -.723517596639838D+02 -.348762760881585D+02
 0.137837037079178D+03 0.654838353758664D+01 0.867673219587361D+02 0.557884213786374D+02
 0.175671648728783D+02 0.171525031215396D+02 0.179842224766404D-01 0.379428450491065D+01
 0.348253309305725D+02 -.198511646037297D+02 -.144335465172289D+02 -.247064297953895D+02
0.603826827657D-05 0.000000000000D+00 0.000000000000D+00 0.563658628073D-06 0.000000000000D+00  6 2 21 25 23 2 21 2 0.17801162D+00 0.38168492D-02 0.22534562D+05 0.22534562D+05 0.22534562D+05 0.12281617D+01  1  2  2  3  6  5        2 0.104270664452D+00 0.100000000000D+01
0.465599634398D-06 0.318648171319D-06 -.121895239482D-07 0.563658628073D-06 0.000000000000D+00  6 2 21 25 23 2 21 4 0.17801162D+00 0.38168492D-02 0.22534562D+05 0.22534562D+05 0.22534562D+05 0.12281617D+01  1  2  3  3  6  5        2 0.121275605476D-01 0.100000000000D+01
0.524901444960D-06 0.000000000000D+00 0.000000000000D+00 0.563658628073D-06 0.000000000000D+00  6 2 21 25 23 2 21 4 0.17801162D+00 0.38168492D-02 0.22534562D+05 0.22534562D+05 0.22534562D+05 0.12281617D+01  1  2 15  3  6  5        2 0.136722058717D-01 0.100000000000D+01
-.292502386885D-05 0.000000000000D+00 0.000000000000D+00 0.563658628073D-06 0.000000000000D+00  6 2 21 25 23 2 21 4 0.17801162D+00 0.38168492D-02 0.22534562D+05 0.22534562D+05 0.22534562D+05 0.12281617D+01  1  2  4  3  6  5        2 -.761886424555D-01 0.100000000000D+01
  </mgrwgt>
  </event>
  <event>
  6     66 -.44822969E-03 0.30764642E+02 0.75467711E-02 0.11781045E+00
        2 -1    0    0  502    0 0.00000000E+00 0.00000000E+00 0.20383485E+02 0.20385996E+02 0.32000000E+00 0.0000E+00 0.9000E+01
       21 -1    0    0  503  502 0.00000000E+00 0.00000000E+00 -.20539708E+04 0.20539710E+04 0.75000000E+00 0.0000E+00 0.9000E+01
       25  1    1    2    0    0 -.39213262E+02 -.60891098E+02 -.74214160E+03 0.75607180E+03 0.12500000E+03 0.0000E+00 0.9000E+01
       23  1    1    2    0    0 0.20686886E+02 0.79967934E+02 -.31070040E+03 0.33417482E+03 0.91188000E+02 0.0000E+00 0.9000E+01
        2  1    1    2  501    0 0.68709042E+01 -.43977842E+02 -.80462963E+03 0.80585992E+03 0.32000000E+00 0.0000E+00 0.9000E+01
       21  1    1    2  503  501 0.11655472E+02 0.24901006E+02 -.17611570E+03 0.17825042E+03 0.75000000E+00 0.0000E+00 0.9000E+01
#aMCatNLO 2  0  0  2  1 0.27493820D+02 0.00000000D+00  -5  6  0 0.00000000D+00 0.00000000D+00 0.00000000D+00 0.00000000D+00 0.00000000D+00
  <mgrwgt>
 -.1298330091D-01    2    2    0
 0.189909976587045D+03 0.000000000000000D+00 0.000000000000000D+00 0.189909976587045D+03
 0.189909976587045D+03 0.000000000000000D+00 0.000000000000000D+00 -.189909976587045D+03
 0.139835690363955D+03 -.348539665399929D+02 -.515776518350567D+02 -.734623353661884D+01
 0.154668903121426D+03 0.253309378377053D+02 0.898897562930552D+02 0.829782715572128D+02
 0.853153596887087D+02 0.952302870228761D+01 -.383121044579986D+02 -.756320380205939D+02
 0.000000000000000D+00 0.000000000000000D+00 0.000000000000000D+00 -.000000000000000D+00
 0.200922684086729D+03 0.000000000000000D+00 0.000000000000000D+00 0.200922684086729D+03
 0.208377668530076D+03 0.000000000000000D+00 0.000000000000000D+00 -.208377668530076D+03
 0.144652557233237D+03 -.392132852313308D+02 -.608909962827572D+02 -.734623353661884D+01
 0.148403089591978D+03 0.206868535431329D+02 0.799680323398483D+02 0.829782715572128D+02
 0.877580963041607D+02 0.687096009117073D+01 -.439780422393645D+02 -.756320380205939D+02
 0.284866094874291D+02 0.116554715970272D+02 0.249010061822735D+02 -.745498444334773D+01
-.773508099814D-04 0.000000000000D+00 0.000000000000D+00 0.494683394931D-06 0.000000000000D+00  6 2 21 25 23 2 21 4 0.29641595D-02 0.32368175D+00 0.28816452D+05 0.28816452D+05 0.28816452D+05 0.12167374D+01  1  2 13  2  6  2       21 -.163894933013D-01 0.100000000000D+01
0.156699755882D-04 0.000000000000D+00 0.000000000000D+00 0.501638488864D-06 0.495298735987D-08  6 2 21 25 23 2 21 4 0.31360484D-02 0.31598806D+00 0.28816452D+05 0.28816452D+05 0.28816452D+05 0.12167374D+01  1  2  1  2  6  2       21 0.340619239394D-02 0.100000000000D+01
  </mgrwgt>
  </event>
  <event>
  5     66 0.44822969E-03 0.51601463E+02 0.75467711E-02 0.96325787E-01
        2 -1    0    0  502    0 0.00000000E+00 0.00000000E+00 0.16283547E+04 0.16283548E+04 0.32000000E+00 0.0000E+00 0.9000E+01
       21 -1    0    0  501  502 0.00000000E+00 0.00000000E+00 -.61129911E+02 0.61134511E+02 0.75000000E+00 0.0000E+00 0.9000E+01
       25  1    1    2    0    0 0.53954321E+02 0.44253747E+02 0.98164047E+03 0.99202443E+03 0.12500000E+03 0.0000E+00 0.9000E+01
       23  1    1    2    0    0 -.12971243E+02 -.12899381E+02 0.62540609E+03 0.63228370E+03 0.91188000E+02 0.0000E+00 0.9000E+01
        2  1    1    2  501    0 -.40983078E+02 -.31354365E+02 -.39821735E+02 0.65181147E+02 0.32000000E+00 0.0000E+00 0.9000E+01
#aMCatNLO 1  0  0  2  1 0.36838647D+01 0.00000000D+00  -5  6  0 0.00000000D+00 0.00000000D+00 0.00000000D+00 0.00000000D+00 0.00000000D+00
  <mgrwgt>
 0.1932586424D+00    3    2    0
 0.315507673736786D+03 0.000000000000000D+00 0.000000000000000D+00 0.315507673736786D+03
 0.315507673736786D+03 0.000000000000000D+00 0.000000000000000D+00 -.315507673736786D+03
 0.218003194955025D+03 0.539543311702855D+02 0.442537540138294D+02 0.164410852483190D+03
 0.139591847998181D+03 -.129712367780855D+02 -.128993767089332D+02 0.104096041137573D+03
 0.273420304520365D+03 -.409830943922000D+02 -.313543773048961D+02 -.268506893620763D+03
 0.000000000000000D+00 -.000000000000000D+00 0.000000000000000D+00 0.000000000000000D+00
 0.123863081790500D+04 0.000000000000000D+00 0.000000000000000D+00 0.123863081790500D+04
 0.649840566916978D+03 0.000000000000000D+00 0.000000000000000D+00 -.649840566916978D+03
 0.362733405047392D+03 0.288396525278739D+03 -.758092272099893D+02 0.164410852483190D+03
 0.205428288171562D+03 0.126312696307750D+03 -.842297287663288D+02 0.104096041137573D+03
 0.389711062878205D+03 0.226721701128545D+03 -.168451865068830D+03 -.268506893620763D+03
 0.930598628724819D+03 -.641430922715034D+03 0.328490821045148D+03 0.588790250988022D+03
0.679764083635D-04 0.000000000000D+00 0.000000000000D+00 0.493989775779D-05 0.000000000000D+00  6 2 21 25 23 2 21 2 0.25051647D+00 0.94049580D-02 0.20702198D+05 0.20702198D+05 0.20702198D+05 0.12321796D+01  1  2  2  2  6  2       21 0.142741389135D+00 0.100000000000D+01
0.997620842021D-05 0.358721362247D-05 -.137224783614D-06 0.493989775779D-05 0.000000000000D+00  6 2 21 25 23 2 21 4 0.25051647D+00 0.94049580D-02 0.20702198D+05 0.20702198D+05 0.20702198D+05 0.12321796D+01  1  2  3  2  6  2       21 0.318057196249D-01 0.100000000000D+01
0.586907518057D-05 0.000000000000D+00 0.000000000000D+00 0.493989775779D-05 0.000000000000D+00  6 2 21 25 23 2 21 4 0.25051647D+00 0.94049580D-02 0.20702198D+05 0.20702198D+05 0.20702198D+05 0.12321796D+01  1  2 15  2  6  2       21 0.187115336597D-01 0.100000000000D+01
  </mgrwgt>
  </event>
  <event>
  6     66 -.44822969E-03 0.32275989E+02 0.75467711E-02 0.11778440E+00
        2 -1    0    0  503    0 0.00000000E+00 0.00000000E+00 0.23941399E+03 0.23941420E+03 0.32000000E+00 0.0000E+00 0.9000E+01
       21 -1    0    0  501  502 0.00000000E+00 0.00000000E+00 -.26438421E+03 0.26438527E+03 0.75000000E+00 0.0000E+00 0.9000E+01
       25  1    1    2    0    0 -.62232184E+02 0.52468391E+02 0.69847431E+02 0.16471017E+03 0.12500000E+03 0.0000E+00 0.9000E+01
       23  1    1    2    0    0 0.28309127E+02 -.75313415E+02 0.49672818E+02 0.13136269E+03 0.91188000E+02 0.0000E+00 0.9000E+01
        2  1    1    2  501    0 0.17354810E+02 0.41078847E+02 -.16790708E+03 0.17372838E+03 0.32000000E+00 0.0000E+00 0.9000E+01
       21  1    1    2  503  502 0.16568246E+02 -.18233823E+02 0.23416610E+02 0.33998223E+02 0.75000000E+00 0.0000E+00 0.9000E+01
#aMCatNLO 2  0  0  1  2 0.24636945D+02 0.00000000D+00  -5  6  0 0.00000000D+00 0.00000000D+00 0.00000000D+00 0.00000000D+00 0.00000000D+00
  <mgrwgt>
 -.1453341780D+00    2    2    0
 0.233326460533849D+03 0.000000000000000D+00 0.000000000000000D+00 0.233326460533849D+03
 0.233326460533849D+03 0.000000000000000D+00 0.000000000000000D+00 -.233326460533849D+03
 0.168804234883385D+03 -.561717794950560D+02 0.457986998705541D+02 0.872758843730080D+02
 0.141347398495520D+03 0.332506533059895D+02 -.807517422570919D+02 0.635404272461272D+02
 0.156501287688793D+03 0.229211261890664D+02 0.349530423865378D+02 -.150816311619135D+03
 0.000000000000000D+00 0.000000000000000D+00 -.000000000000000D+00 0.000000000000000D+00
 0.265480602615238D+03 0.000000000000000D+00 0.000000000000000D+00 0.265480602615238D+03
 0.238418882872218D+03 0.000000000000000D+00 0.000000000000000D+00 -.238418882872218D+03
 0.172823194710223D+03 -.622322030038421D+02 0.524683670990957D+02 0.872758843730080D+02
 0.137208442069820D+03 0.283091110923561D+02 -.753134354930607D+02 0.635404272461272D+02
 0.157271185611717D+03 0.173548457652068D+02 0.410788911946395D+02 -.150816311619135D+03
 0.365966630956961D+02 0.165682461462793D+02 -.182338228006744D+02 0.270617197430207D+02
-.882003421876D-04 0.000000000000D+00 0.000000000000D+00 0.142401035507D-05 0.000000000000D+00  6 2 21 25 23 2 21 4 0.37153728D-01 0.39805185D-01 0.28901265D+05 0.28901265D+05 0.28901265D+05 0.12166028D+01  1  2 13  1  6  1        2 -.202140656545D+00 0.100000000000D+01
0.256483783986D-04 0.000000000000D+00 0.000000000000D+00 0.144229464990D-05 0.163004961685D-07  6 2 21 25 23 2 21 4 0.36832434D-01 0.40673946D-01 0.28901265D+05 0.28901265D+05 0.28901265D+05 0.12166028D+01  1  2  1  1  6  1        2 0.568064785874D-01 0.100000000000D+01
  </mgrwgt>
  </event>
  <event>
  5     66 -.44822969E-03 0.59615180E+02 0.75467711E-02 0.11733726E+00
        2 -1    0    0  502    0 0.00000000E+00 0.00000000E+00 0.62113245E+03 0.62113253E+03 0.32000000E+00 0.0000E+00 0.9000E+01
       21 -1    0    0  501  502 0.00000000E+00 0.00000000E+00 -.52234535E+02 0.52239919E+02 0.75000000E+00 0.0000E+00 0.9000E+01
       25  1    1    2    0    0 0.22836108E+02 0.12705361E+03 0.24936305E+03 0.30736142E+03 0.12500000E+03 0.0000E+00 0.9000E+01
       23  1    1    2    0    0 -.32921470E+02 -.68298445E+02 0.22234413E+03 0.25199338E+03 0.91188000E+02 0.0000E+00 0.9000E+01
        2  1    1    2  501    0 0.10085361E+02 -.58755168E+02 0.97190727E+02 0.11401765E+03 0.32000000E+00 0.0000E+00 0.9000E+01
#aMCatNLO 1  0  0  5  2 0.17649715D+02 0.00000000D+00  -5  6  0 0.00000000D+00 0.00000000D+00 0.00000000D+00 0.00000000D+00 0.00000000D+00
  <mgrwgt>
 -.4960530703D-01    7    2    0
 0.180128856869543D+03 0.000000000000000D+00 0.000000000000000D+00 0.180128856869543D+03
 0.180128856869543D+03 -.000000000000000D+00 -.000000000000000D+00 -.180128856869543D+03
 0.180722554985665D+03 0.228360355928927D+02 0.127054037582864D+03 -.192724905717679D+02
 0.119898156114271D+03 -.329215179419533D+02 -.682981633179971D+02 0.176593046122445D+02
 0.596370026391508D+02 0.100854823490606D+02 -.587558742648670D+02 0.161318595952343D+01
 0.000000000000000D+00 0.000000000000000D+00 -.000000000000000D+00 0.000000000000000D+00
 0.180128856869543D+03 0.000000000000000D+00 0.000000000000000D+00 0.180128856869543D+03
 0.180128856869543D+03 -.000000000000000D+00 -.000000000000000D+00 -.180128856869543D+03
 0.176589933525156D+03 0.238876957822295D+02 0.120927289082848D+03 -.191042761628868D+02
 0.122136485219608D+03 -.322091493432734D+02 -.724482712023434D+02 0.177732488919152D+02
 0.380247452056983D+02 0.139394805437666D+02 -.313422525934233D+02 0.164083921362904D+02
 0.235065497886244D+02 -.561802698272266D+01 -.171367652870817D+02 -.150773648653188D+02
0.200405778425D-05 0.000000000000D+00 0.000000000000D+00 0.101747145058D-06 0.000000000000D+00  6 2 21 25 23 2 21 2 0.95559259D-01 0.80365028D-02 0.32022694D+05 0.32022694D+05 0.32022694D+05 0.12119356D+01  1  2  2  3  6  5        2 0.213516102914D-01 0.100000000000D+01
-.804688061811D-07 0.105757034785D-06 -.404561527176D-08 0.101747145058D-06 0.000000000000D+00  6 2 21 25 23 2 21 4 0.95559259D-01 0.80365028D-02 0.32022694D+05 0.32022694D+05 0.32022694D+05 0.12119356D+01  1  2  3  3  6  5        2 -.125923566992D-02 0.100000000000D+01
0.160853907529D-06 0.000000000000D+00 0.000000000000D+00 0.101747145058D-06 0.000000000000D+00  6 2 21 25 23 2 21 4 0.95559259D-01 0.80365028D-02 0.32022694D+05 0.32022694D+05 0.32022694D+05 0.12119356D+01  1  2 15  3  6  5        2 0.251716146442D-02 0.100000000000D+01
0.118370652183D-05 0.000000000000D+00 0.000000000000D+00 0.102143088994D-06 0.000000000000D+00  6 2 21 25 23 2 21 4 0.95559259D-01 0.80365028D-02 0.30402512D+05 0.30402512D+05 0.30402512D+05 0.12142914D+01  1  2 12  3  6  5        2 0.186673093516D-01 0.100000000000D+01
-.642727361260D-05 0.000000000000D+00 0.000000000000D+00 0.101747145058D-06 0.000000000000D+00  6 2 21 25 23 2 21 4 0.95559259D-01 0.80365028D-02 0.32022694D+05 0.32022694D+05 0.32022694D+05 0.12119356D+01  1  2  4  3  6  5        2 -.100578753152D+00 0.100000000000D+01
-.884264245850D-06 0.000000000000D+00 0.000000000000D+00 0.101747145058D-06 0.000000000000D+00  6 2 21 25 23 2 21 4 0.95559259D-01 0.80365028D-02 0.32022694D+05 0.32022694D+05 0.32022694D+05 0.12119356D+01  1  2  5  3  6  5        2 -.138376239546D-01 0.100000000000D+01
0.150390511220D-05 0.000000000000D+00 -.000000000000D+00 0.101747145058D-06 0.000000000000D+00  6 2 21 25 23 2 21 4 0.95559259D-01 0.80365028D-02 0.32022694D+05 0.32022694D+05 0.32022694D+05 0.12119356D+01  1  2  6  3  6  5        2 0.235342246435D-01 0.100000000000D+01
  </mgrwgt>
  </event>
  <event>
  6     66 0.44822969E-03 0.68408338E+02 0.75467711E-02 0.11734650E+00
        2 -1    0    0  502    0 0.00000000E+00 0.00000000E+00 0.12208064E+04 0.12208064E+04 0.32000000E+00 0.0000E+00 0.9000E+01
       21 -1    0    0  501  502 0.00000000E+00 0.00000000E+00 -.27387083E+02 0.27397350E+02 0.75000000E+00 0.0000E+00 0.9000E+01
       25  1    1    2    0    0 0.28130608E+02 0.32770858E+01 0.38287255E+03 0.40375544E+03 0.12500000E+03 0.0000E+00 0.9000E+01
       23  1    1    2    0    0 -.32906865E+02 -.76718167E+02 0.41799263E+03 0.43589176E+03 0.91188000E+02 0.0000E+00 0.9000E+01
        2  1    1    2  503    0 0.23544123E+02 0.74458265E+02 0.37424805E+03 0.38230886E+03 0.32000000E+00 0.0000E+00 0.9000E+01
       21  1    1    2  501  503 -.18767865E+02 -.10171834E+01 0.18306072E+02 0.26247708E+02 0.75000000E+00 0.0000E+00 0.9000E+01
#aMCatNLO 2  0  0  5  1 0.29751694D+02 0.00000000D+00  -5  6  0 0.00000000D+00 0.00000000D+00 0.00000000D+00 0.00000000D+00 0.00000000D+00
  <mgrwgt>
 0.5643506157D-01    1    2    0
 0.182868148415057D+03 0.000000000000000D+00 0.000000000000000D+00 0.182868148415057D+03
 0.182868148415057D+03 -.000000000000000D+00 -.000000000000000D+00 -.182868148415057D+03
 0.128992163203560D+03 0.271794064421733D+02 -.113488598779405D+02 -.121021243116999D+02
 0.133449702637095D+03 -.338563504054892D+02 -.913177190856078D+02 0.289715518256858D+01
 0.103294430989459D+03 0.667694396331590D+01 0.102666578963548D+03 0.920496912913134D+01
 0.000000000000000D+00 0.000000000000000D+00 0.000000000000000D+00 -.000000000000000D+00
 0.182868148415057D+03 0.000000000000000D+00 0.000000000000000D+00 0.182868148415057D+03
 0.182868148415057D+03 -.000000000000000D+00 -.000000000000000D+00 -.182868148415057D+03
 0.128624446127032D+03 0.281363351870654D+02 0.336514717224867D+01 -.107828831133456D+02
 0.123645456085242D+03 -.329013586128666D+02 -.766334951613829D+02 0.421372605959890D+01
 0.834175870350193D+02 0.236691878929997D+02 0.741872808601437D+02 0.299083722360320D+02
 0.300488075828198D+02 -.189041644671985D+02 -.918932871009451D+00 -.233392151822854D+02
0.290473754948D-05 0.000000000000D+00 0.000000000000D+00 0.113703421506D-06 0.568217451559D-08  6 2 21 25 23 2 21 4 0.18781716D+00 0.42141904D-02 0.30370621D+05 0.30370621D+05 0.30370621D+05 0.12143391D+01  1  2  1  3  6  5        2 0.564350615723D-01 0.100000000000D+01
  </mgrwgt>
  </event>
  <event>
  6     66 0.44822969E-03 0.24955986E+02 0.75467711E-02 0.11670757E+00
        4 -1    0    0  502    0 0.00000000E+00 0.00000000E+00 0.95243970E+03 0.95244096E+03 0.15500000E+01 0.0000E+00 0.9000E+01
       21 -1    0    0  501  502 0.00000000E+00 0.00000000E+00 -.37664675E+02 0.37672141E+02 0.75000000E+00 0.0000E+00 0.9000E+01
       25  1    1    2    0    0 -.19872982E+02 0.86781520E+02 0.46429961E+03 0.48900419E+03 0.12500000E+03 0.0000E+00 0.9000E+01
       23  1    1    2    0    0 0.46210492E+02 -.11811644E+03 0.25676073E+03 0.30054654E+03 0.91188000E+02 0.0000E+00 0.9000E+01
        4  1    1    2  503    0 -.18960334E+02 -.71695223E+00 0.68040585E+02 0.70653605E+02 0.15500000E+01 0.0000E+00 0.9000E+01
       21  1    1    2  501  503 -.73771761E+01 0.32051867E+02 0.12567410E+03 0.12990876E+03 0.75000000E+00 0.0000E+00 0.9000E+01
#aMCatNLO 2  0  0  5  2 0.14435847D+02 0.00000000D+00  -5  6  0 0.00000000D+00 0.00000000D+00 0.00000000D+00 0.00000000D+00 0.00000000D+00
  <mgrwgt>
 0.1749416085D-02    2    2    0
 0.189413970040019D+03 0.000000000000000D+00 0.000000000000000D+00 0.189413970040019D+03
 0.189413970040019D+03 -.000000000000000D+00 -.000000000000000D+00 -.189413970040019D+03
 0.154689278562620D+03 -.175212449440106D+02 0.839835535017895D+02 0.307171225710964D+02
 0.169069064534902D+03 0.487356493559947D+02 -.121120728184813D+03 -.567776621968288D+02
 0.550695969825152D+02 -.312144044119841D+02 0.371371746830234D+02 0.260605396257324D+02
 0.000000000000000D+00 0.000000000000000D+00 0.000000000000000D+00 0.000000000000000D+00
 0.189413970040019D+03 0.000000000000000D+00 0.000000000000000D+00 0.189413970040019D+03
 0.189413970040019D+03 -.000000000000000D+00 -.000000000000000D+00 -.189413970040019D+03
 0.156803030770680D+03 -.197671643527956D+02 0.866556243927535D+02 0.325922143068327D+02
 0.165658853693353D+03 0.463221967419635D+02 -.118249335537575D+03 -.547626989557349D+02
 0.190690864856510D+02 -.178467150316302D+02 -.116704067531426D+01 0.661534867102119D+01
 0.372969691303530D+02 -.870831735753775D+01 0.327607518201360D+02 0.155551359778810D+02
-.109645008470D-05 0.000000000000D+00 0.000000000000D+00 0.701365643064D-07 0.000000000000D+00  6 4 21 25 23 4 21 4 0.14652986D+00 0.57952367D-02 0.32671847D+05 0.32671847D+05 0.32671847D+05 0.12110287D+01  1  2 13  3  6  5        4 -.697999871310D-03 0.100000000000D+01
0.384451279047D-05 0.000000000000D+00 0.000000000000D+00 0.701985543633D-07 0.192465389037D-08  6 4 21 25 23 4 21 4 0.14652986D+00 0.57952367D-02 0.32671847D+05 0.32671847D+05 0.32671847D+05 0.12110287D+01  1  2  1  3  6  5        4 0.244741595668D-02 0.100000000000D+01
  </mgrwgt>
  </event>
  <event>
  5     66 0.44822969E-03 0.72038385E+02 0.75467711E-02 0.11404486E+00
        2 -1    0    0  502    0 0.00000000E+00 0.00000000E+00 0.19997656E+04 0.19997656E+04 0.32000000E+00 0.0000E+00 0.9000E+01
       21 -1    0    0  501  502 0.00000000E+00 0.00000000E+00 -.31827823E+02 0.31836659E+02 0.75000000E+00 0.0000E+00 0.9000E+01
       25  1    1    2    0    0 -.46878145E+02 -.23707186E+02 0.17558297E+04 0.17610572E+04 0.12500000E+03 0.0000E+00 0.9000E+01
       23  1    1    2    0    0 -.60216391E+01 -.25191698E+02 0.10495409E+03 0.14142664E+03 0.91188000E+02 0.0000E+00 0.9000E+01
        2  1    1    2  501    0 0.52899784E+02 0.48898885E+02 0.10715396E+03 0.12911840E+03 0.32000000E+00 0.0000E+00 0.9000E+01
#aMCatNLO 1  0  0  2  1 0.42189442D+02 0.00000000D+00  -5  6  0 0.00000000D+00 0.00000000D+00 0.00000000D+00 0.00000000D+00 0.00000000D+00
  <mgrwgt>
 0.8431838453D-01    3    2    0
 0.252303756145483D+03 0.000000000000000D+00 0.000000000000000D+00 0.252303756145483D+03
 0.252303756145483D+03 0.000000000000000D+00 0.000000000000000D+00 -.252303756145483D+03
 0.242573397750148D+03 -.468782702658620D+02 -.237073020557601D+02 0.201139864030403D+03
 0.160083866381101D+03 -.602172173097468D+01 -.251917747239647D+02 -.128998861565419D+03
 0.101950248159716D+03 0.528999919968367D+02 0.488990767797247D+02 -.721410024649846D+02
 0.000000000000000D+00 -.000000000000000D+00 0.000000000000000D+00 0.000000000000000D+00
 0.795340629017205D+03 0.000000000000000D+00 0.000000000000000D+00 0.795340629017205D+03
 0.263205704762895D+03 0.000000000000000D+00 0.000000000000000D+00 -.263205704762895D+03
 0.238081684910459D+03 0.344262108093875D+01 -.242650396193141D+02 0.201139864030403D+03
 0.162416668882195D+03 0.277416045703692D+02 -.255659945528427D+02 -.128998861565419D+03
 0.115294611409506D+03 0.756438583750332D+02 0.486469924409925D+02 -.721410024649846D+02
 0.542753368577940D+03 -.106828084026341D+03 0.118404173116427D+01 0.532134924254311D+03
0.198476650347D-04 0.000000000000D+00 0.000000000000D+00 0.569302925389D-07 0.000000000000D+00  6 2 21 25 23 2 21 2 0.30765692D+00 0.48972698D-02 0.22864990D+05 0.22864990D+05 0.22864990D+05 0.12274761D+01  1  2  2  2  6  2       21 0.813794674341D-01 0.100000000000D+01
-.786204022986D-06 0.104739005930D-05 -.400667173393D-07 0.569302925389D-07 0.000000000000D+00  6 2 21 25 23 2 21 4 0.30765692D+00 0.48972698D-02 0.22864990D+05 0.22864990D+05 0.22864990D+05 0.12274761D+01  1  2  3  2  6  2       21 -.485698525463D-02 0.100000000000D+01
0.126192884481D-05 0.000000000000D+00 0.000000000000D+00 0.569302925389D-07 0.000000000000D+00  6 2 21 25 23 2 21 4 0.30765692D+00 0.48972698D-02 0.22864990D+05 0.22864990D+05 0.22864990D+05 0.12274761D+01  1  2 15  2  6  2       21 0.779590235160D-02 0.100000000000D+01
  </mgrwgt>
  </event>
  <event>
  5     66 0.44822969E-03 0.31331974E+02 0.75467711E-02 0.10329814E+00
        4 -1    0    0  502    0 0.00000000E+00 0.00000000E+00 0.66762016E+02 0.66780006E+02 0.15500000E+01 0.0000E+00 0.9000E+01
       21 -1    0    0  501  502 0.00000000E+00 0.00000000E+00 -.42088095E+03 0.42088162E+03 0.75000000E+00 0.0000E+00 0.9000E+01
       25  1    1    2    0    0 0.66711113E+02 -.37228060E+02 -.12623591E+03 0.19338254E+03 0.12500000E+03 0.0000E+00 0.9000E+01
       23  1    1    2    0    0 -.89889616E+02 0.16161079E+02 -.10186418E+03 0.16441681E+03 0.91188000E+02 0.0000E+00 0.9000E+01
        4  1    1    2  501    0 0.23178503E+02 0.21066981E+02 -.12601884E+03 0.12986228E+03 0.15500000E+01 0.0000E+00 0.9000E+01
#aMCatNLO 1  0  0  1  2 0.69283875D+03 0.00000000D+00  -5  6  0 0.00000000D+00 0.00000000D+00 0.00000000D+00 0.00000000D+00 0.00000000D+00
  <mgrwgt>
 0.4077973839D-01    5    2    0
 0.167640717758885D+03 0.000000000000000D+00 0.000000000000000D+00 0.167640717758885D+03
 0.167640717758885D+03 0.000000000000000D+00 0.000000000000000D+00 -.167640717758885D+03
 0.147943742803883D+03 0.667071626695573D+02 -.372316504693910D+02 0.206472682629910D+02
 0.131557714765388D+03 -.898931292692816D+02 0.161578858931335D+02 0.255015490496546D+02
 0.557799779484988D+02 0.231859665997244D+02 0.210737645762575D+02 -.461488173126457D+02
 0.000000000000000D+00 -.000000000000000D+00 0.000000000000000D+00 0.000000000000000D+00
 0.453500497860909D+03 0.000000000000000D+00 0.000000000000000D+00 0.453500497860909D+03
 0.429411603129565D+03 0.000000000000000D+00 0.000000000000000D+00 -.429411603129565D+03
 0.307562339950001D+03 0.226662515951147D+03 -.164825323089300D+03 0.206472682629910D+02
 0.107635653407306D+03 -.589807155816615D+01 -.508435471655995D+02 0.255015490496546D+02
 0.895901634869205D+02 0.742340935299215D+02 -.196464605475914D+02 -.461488173126457D+02
 0.378123944146246D+03 -.294998537922902D+03 0.235315330802491D+03 0.240888947313445D+02
0.194360614207D-04 0.000000000000D+00 0.000000000000D+00 0.600458405325D-06 0.000000000000D+00  6 4 21 25 23 4 21 2 0.10272515D-01 0.64752351D-01 0.23545406D+05 0.23545406D+05 0.23545406D+05 0.12260987D+01  1  2  2  1  6  1        4 0.193823299482D-01 0.100000000000D+01
0.147857566265D-05 0.102566913984D-05 -.392358082310D-07 0.600458405325D-06 0.000000000000D+00  6 4 21 25 23 4 21 4 0.10272515D-01 0.64752351D-01 0.23545406D+05 0.23545406D+05 0.23545406D+05 0.12260987D+01  1  2  3  1  6  1        4 0.221662444233D-02 0.100000000000D+01
0.171075320983D-05 0.000000000000D+00 0.000000000000D+00 0.600458405325D-06 0.000000000000D+00  6 4 21 25 23 4 21 4 0.10272515D-01 0.64752351D-01 0.23545406D+05 0.23545406D+05 0.23545406D+05 0.12260987D+01  1  2 15  1  6  1        4 0.256469619751D-02 0.100000000000D+01
0.712217767782D-04 0.000000000000D+00 -.337027623086D-04 0.600458405325D-06 0.000000000000D+00  6 4 21 25 23 4 21 4 0.68580361D-01 0.64752351D-01 0.23545406D+05 0.23545406D+05 0.23545406D+05 0.12260987D+01  1  2  5  1  6  1        4 0.298260822964D-02 0.100000000000D+01
0.136915908060D-04 0.000000000000D+00 -.783279920020D-05 0.600458405325D-06 0.000000000000D+00  6 21 21 25 23 4 -4 4 0.68580361D-01 0.64752351D-01 0.23545406D+05 0.23545406D+05 0.23545406D+05 0.12260987D+01  1  2  5  4  6  1        4 0.136334795748D-01 0.100000000000D+01
  </mgrwgt>
  </event>
  <event>
  5     66 -.44822969E-03 0.26896568E+02 0.75467711E-02 0.12269651E+00
        2 -1    0    0  502    0 0.00000000E+00 0.00000000E+00 0.16577751E+03 0.16577782E+03 0.32000000E+00 0.0000E+00 0.9000E+01
       21 -1    0    0  501  502 -.00000000E+00 -.00000000E+00 -.63223992E+03 0.63224036E+03 0.75000000E+00 0.0000E+00 0.9000E+01
       25  1    1    2    0    0 -.32046482E+02 0.22974485E+02 0.37204443E+02 0.13624968E+03 0.12500000E+03 0.0000E+00 0.9000E+01
       23  1    1    2    0    0 0.59465872E+01 -.16476768E+02 0.51344727E+02 0.10610550E+03 0.91188000E+02 0.0000E+00 0.9000E+01
        2  1    1    2  501    0 0.26099895E+02 -.64977174E+01 -.55501157E+03 0.55566300E+03 0.32000000E+00 0.0000E+00 0.9000E+01
#aMCatNLO 1  0  0  5  5 0.57525244D+01 0.00000000D+00  -5  6  0 0.00000000D+00 0.00000000D+00 0.00000000D+00 0.00000000D+00 0.00000000D+00
  <mgrwgt>
 -.1552693999D+00    7    2    0
 0.323745984720749D+03 0.000000000000000D+00 0.000000000000000D+00 0.323745984720749D+03
 0.323745984720749D+03 -.000000000000000D+00 -.000000000000000D+00 -.323745984720749D+03
 0.194727079663502D+03 -.320464870169273D+02 0.229744863277915D+02 0.144009830227398D+03
 0.167761975407366D+03 0.594658293776118D+01 -.164767666309685D+02 0.139721091326022D+03
 0.285002914370631D+03 0.260999040791663D+02 -.649771969682303D+01 -.283730921553420D+03
 0.000000000000000D+00 0.000000000000000D+00 0.000000000000000D+00 -.000000000000000D+00
 0.323745984720749D+03 0.000000000000000D+00 0.000000000000000D+00 0.323745984720749D+03
 0.323745984720749D+03 -.000000000000000D+00 -.000000000000000D+00 -.323745984720749D+03
 0.194253661911645D+03 -.319889349657608D+02 0.229601584170328D+02 0.143384184383442D+03
 0.167316362116859D+03 0.599615980253834D+01 -.164891090736761D+02 0.139182143386279D+03
 0.276752993578369D+03 0.303104633859521D+02 -.915471806995954D+01 -.274935785959153D+03
 0.916895183462513D+01 -.431768822272948D+01 0.268366872660276D+01 -.763054181056844D+01
0.134014726214D-03 0.000000000000D+00 0.000000000000D+00 0.225953562965D-04 0.000000000000D+00  6 2 21 25 23 2 21 2 0.25504291D-01 0.97267737D-01 0.15728116D+05 0.15728116D+05 0.15728116D+05 0.12454826D+01  1  2  2  3  6  5        2 0.485577304987D-01 0.100000000000D+01
0.421295535165D-04 0.707215139869D-05 -.270537120871D-06 0.225953562965D-04 0.000000000000D+00  6 2 21 25 23 2 21 4 0.25504291D-01 0.97267737D-01 0.15728116D+05 0.15728116D+05 0.15728116D+05 0.12454826D+01  1  2  3  3  6  5        2 0.236792547382D-01 0.100000000000D+01
0.937360930683D-05 0.000000000000D+00 0.000000000000D+00 0.225953562965D-04 0.000000000000D+00  6 2 21 25 23 2 21 4 0.25504291D-01 0.97267737D-01 0.15728116D+05 0.15728116D+05 0.15728116D+05 0.12454826D+01  1  2 15  3  6  5        2 0.526851257765D-02 0.100000000000D+01
-.901468923122D-03 0.000000000000D+00 0.000000000000D+00 0.225953562965D-04 0.000000000000D+00  6 2 21 25 23 2 21 4 0.25504291D-01 0.97267737D-01 0.15728116D+05 0.15728116D+05 0.15728116D+05 0.12454826D+01  1  2  4  3  6  5        2 -.506677865949D+00 0.100000000000D+01
-.334163082927D-02 0.000000000000D+00 0.000000000000D+00 0.225953562965D-04 0.000000000000D+00  6 2 21 25 23 2 21 4 0.25504291D-01 0.97267737D-01 0.15728116D+05 0.15728116D+05 0.15728116D+05 0.12454826D+01  1  2  5  3  6  5        2 -.187819051099D+01 0.100000000000D+01
0.345086424924D-02 0.000000000000D+00 -.000000000000D+00 0.225953562965D-04 0.000000000000D+00  6 2 21 25 23 2 21 4 0.25504291D-01 0.97267737D-01 0.15728116D+05 0.15728116D+05 0.15728116D+05 0.12454826D+01  1  2  6  3  6  5        2 0.193958603412D+01 0.100000000000D+01
0.383730263824D-03 0.000000000000D+00 0.000000000000D+00 0.225953562965D-04 0.599568986218D-05  6 2 21 25 23 2 21 4 0.25504291D-01 0.97267737D-01 0.16986217D+05 0.16986217D+05 0.16986217D+05 0.12417125D+01  1  2 11  3  6  5        2 0.212507445150D+00 0.100000000000D+01
  </mgrwgt>
  </event>
  <event>
  6     66 0.44822969E-03 0.15386589E+03 0.75467711E-02 0.10794501E+00
        2 -1    0    0  502    0 0.00000000E+00 0.00000000E+00 0.15847554E+04 0.15847554E+04 0.32000000E+00 0.0000E+00 0.9000E+01
       21 -1    0    0  501  502 0.00000000E+00 0.00000000E+00 -.69822504E+02 0.69826532E+02 0.75000000E+00 0.0000E+00 0.9000E+01
       25  1    1    2    0    0 -.29262519E+02 -.12292788E+03 0.33898914E+03 0.38276128E+03 0.12500000E+03 0.0000E+00 0.9000E+01
       23  1    1    2    0    0 0.14391705E+03 0.21527873E+03 0.94112452E+03 0.98035078E+03 0.91188000E+02 0.0000E+00 0.9000E+01
        2  1    1    2  503    0 0.89422139E+01 0.83519910E+01 0.97185821E+01 0.15629209E+02 0.32000000E+00 0.0000E+00 0.9000E+01
       21  1    1    2  501  503 -.12359675E+03 -.10070284E+03 0.22510064E+03 0.27584068E+03 0.75000000E+00 0.0000E+00 0.9000E+01
#aMCatNLO 2  0  0  5  1 0.14858828D+02 0.00000000D+00  -5  6  0 0.00000000D+00 0.00000000D+00 0.00000000D+00 0.00000000D+00 0.00000000D+00
  <mgrwgt>
 0.1680781901D-01    1    2    0
 0.332648385098617D+03 0.000000000000000D+00 0.000000000000000D+00 0.332648385098617D+03
 0.332648385098617D+03 -.000000000000000D+00 -.000000000000000D+00 -.332648385098617D+03
 0.176593182325388D+03 -.250115483579891D+02 -.119503844078932D+03 -.255618024188795D+02
 0.304642403239288D+03 0.151066322340974D+03 0.221037254234169D+03 0.113195587380435D+03
 0.184061184632559D+03 -.126054773982984D+03 -.101533410155236D+03 -.876337849615551D+02
 0.000000000000000D+00 0.000000000000000D+00 0.000000000000000D+00 0.000000000000000D+00
 0.332648385098617D+03 0.000000000000000D+00 0.000000000000000D+00 0.332648385098617D+03
 0.332648385098617D+03 -.000000000000000D+00 -.000000000000000D+00 -.332648385098617D+03
 0.179795755711247D+03 -.289943876486329D+02 -.122711903896912D+03 -.283306882841607D+02
 0.295687503736122D+03 0.144357310680785D+03 0.215633342814501D+03 0.108531455538725D+03
 0.156900240597455D+02 0.842629359062575D+01 0.786272818153825D+01 -.106466866612676D+02
 0.174123486690120D+03 -.123789216622777D+03 -.100784167099128D+03 -.695540805932963D+02
0.836344336072D-05 0.000000000000D+00 0.000000000000D+00 0.248317234299D-07 0.149752496265D-09  6 2 21 25 23 2 21 4 0.24380883D+00 0.10742236D-01 0.97266685D+05 0.97266685D+05 0.97266685D+05 0.11646789D+01  1  2  1  3  6  5        2 0.168078190131D-01 0.100000000000D+01
  </mgrwgt>
  </event>
  <event>
  5     66 0.44822969E-03 0.22265239E+02 0.75467711E-02 0.12193610E+00
        2 -1    0    0  502    0 0.00000000E+00 0.00000000E+00 0.89113806E+03 0.89113812E+03 0.32000000E+00 0.0000E+00 0.9000E+01
       21 -1    0    0  501  502 0.00000000E+00 0.00000000E+00 -.32766939E+02 0.32775521E+02 0.75000000E+00 0.0000E+00 0.9000E+01
       25  1    1    2    0    0 -.29849051E+02 0.43647328E+01 0.12678728E+03 0.18058247E+03 0.12500000E+03 0.0000E+00 0.9000E+01
       23  1    1    2    0    0 0.52020555E+02 -.23463973E+01 0.66186112E+03 0.67013957E+03 0.91188000E+02 0.0000E+00 0.9000E+01
        2  1    1    2  501    0 -.22171504E+02 -.20183355E+01 0.69722730E+02 0.73191603E+02 0.32000000E+00 0.0000E+00 0.9000E+01
#aMCatNLO 1  0  0  1  2 0.15283763D+02 0.00000000D+00  -5  6  0 0.00000000D+00 0.00000000D+00 0.00000000D+00 0.00000000D+00 0.00000000D+00
  <mgrwgt>
 0.1739037972D+00    9    2    0
 0.170891361508296D+03 0.000000000000000D+00 0.000000000000000D+00 0.170891361508296D+03
 0.170891361508296D+03 0.000000000000000D+00 0.000000000000000D+00 -.170891361508296D+03
 0.169733744531528D+03 -.298479609587446D+02 0.436483198990308D+01 -.110790755485280D+03
 0.149301511617015D+03 0.520215133664321D+02 -.234631001533170D+01 0.106131743618503D+03
 0.227474668680505D+02 -.221735524076875D+02 -.201852197457138D+01 0.465901186677675D+01
 0.000000000000000D+00 0.000000000000000D+00 -.000000000000000D+00 0.000000000000000D+00
 0.204336684284782D+03 0.000000000000000D+00 0.000000000000000D+00 0.204336684284782D+03
 0.172817185981630D+03 0.000000000000000D+00 0.000000000000000D+00 -.172817185981630D+03
 0.170992249405984D+03 -.352794785716048D+02 0.970135287652626D+01 -.110790755485280D+03
 0.147717801125563D+03 0.472867245413188D+02 0.230566780374812D+01 0.106131743618503D+03
 0.234142297442935D+02 -.229094166289404D+02 -.129552794853028D+01 0.465901186677675D+01
 0.350295899905712D+02 0.109021706592265D+02 -.107114927317441D+02 0.315194983031523D+02
0.858523625361D-06 0.000000000000D+00 0.000000000000D+00 0.143695497208D-06 0.000000000000D+00  6 2 21 25 23 2 21 2 0.13709883D+00 0.50417321D-02 0.16366474D+05 0.16366474D+05 0.16366474D+05 0.12435290D+01  1  2  2  1  6  1        2 0.137033287727D-01 0.100000000000D+01
0.299394419963D-07 0.453055364096D-07 -.173311184798D-08 0.143695497208D-06 0.000000000000D+00  6 2 21 25 23 2 21 4 0.13709883D+00 0.50417321D-02 0.16366474D+05 0.16366474D+05 0.16366474D+05 0.12435290D+01  1  2  3  1  6  1        2 0.738974329021D-03 0.100000000000D+01
0.823754450836D-07 0.000000000000D+00 0.000000000000D+00 0.143695497208D-06 0.000000000000D+00  6 2 21 25 23 2 21 4 0.13709883D+00 0.50417321D-02 0.16366474D+05 0.16366474D+05 0.16366474D+05 0.12435290D+01  1  2 15  1  6  1        2 0.203321555779D-02 0.100000000000D+01
0.171024644409D-04 0.000000000000D+00 0.000000000000D+00 0.142388042032D-06 0.000000000000D+00  6 2 21 25 23 2 21 4 0.16460442D+00 0.50417321D-02 0.18390085D+05 0.18390085D+05 0.18390085D+05 0.12378588D+01  1  2 12  1  6  1        2 0.323483918984D+00 0.100000000000D+01
-.113008615923D-04 0.000000000000D+00 0.000000000000D+00 0.143695497208D-06 0.000000000000D+00  6 2 21 25 23 2 21 4 0.13709883D+00 0.50417321D-02 0.16366474D+05 0.16366474D+05 0.16366474D+05 0.12435290D+01  1  2  4  1  6  1        2 -.278931271116D+00 0.100000000000D+01
-.208134889528D-04 0.000000000000D+00 -.196055961196D-05 0.143695497208D-06 0.000000000000D+00  6 2 21 25 23 2 21 4 0.16472410D+00 0.50417321D-02 0.16366474D+05 0.16366474D+05 0.16366474D+05 0.12435290D+01  1  2  5  1  6  1        2 -.400443869488D+00 0.100000000000D+01
0.208536150821D-04 0.000000000000D+00 0.192798376726D-05 0.143695497208D-06 0.000000000000D+00  6 2 21 25 23 2 21 4 0.13709883D+00 0.50417321D-02 0.16366474D+05 0.16366474D+05 0.16366474D+05 0.12435290D+01  1  2  6  1  6  1        2 0.514715211289D+00 0.100000000000D+01
0.456615091816D-06 0.000000000000D+00 0.000000000000D+00 0.142388042032D-06 0.000000000000D+00  6 21 21 25 23 2 -2 4 0.16460442D+00 0.50417321D-02 0.18390085D+05 0.18390085D+05 0.18390085D+05 0.12378588D+01  1  2 12  4  6  1        2 0.685408926410D-02 0.100000000000D+01
-.537954804236D-06 0.000000000000D+00 -.525067669282D-07 0.143695497208D-06 0.000000000000D+00  6 21 21 25 23 2 -2 4 0.16472410D+00 0.50417321D-02 0.16366474D+05 0.16366474D+05 0.16366474D+05 0.12435290D+01  1  2  5  4  6  1        2 -.824980039403D-02 0.100000000000D+01
  </mgrwgt>
  </event>
  <event>
  5     66 -.44822969E-03 0.28956617E+02 0.75467711E-02 0.11260263E+00
        2 -1    0    0  502    0 0.00000000E+00 0.00000000E+00 0.47581764E+04 0.47581764E+04 0.32000000E+00 0.0000E+00 0.9000E+01
       21 -1    0    0  501  502 0.00000000E+00 0.00000000E+00 -.25217800E+02 0.25228950E+02 0.75000000E+00 0.0000E+00 0.9000E+01
       25  1    1    2    0    0 0.18311150E+03 -.71172517E+02 0.37296484E+04 0.37369101E+04 0.12500000E+03 0.0000E+00 0.9000E+01
       23  1    1    2    0    0 -.17125009E+03 0.44756799E+02 0.99721985E+03 0.10169034E+04 0.91188000E+02 0.0000E+00 0.9000E+01
        2  1    1    2  501    0 -.11861411E+02 0.26415717E+02 0.60903694E+01 0.29591860E+02 0.32000000E+00 0.0000E+00 0.9000E+01
#aMCatNLO 1  0  0  2  1 0.91503888D+00 0.00000000D+00  -5  6  0 0.00000000D+00 0.00000000D+00 0.00000000D+00 0.00000000D+00 0.00000000D+00
  <mgrwgt>
 -.3914198674D+00   41    2    0
 0.346435323035816D+03 0.000000000000000D+00 0.000000000000000D+00 0.346435323035816D+03
 0.346435323035816D+03 0.000000000000000D+00 0.000000000000000D+00 -.346435323035816D+03
 0.321682976060034D+03 0.183111510508309D+03 -.711725403649968D+02 0.221944996123360D+03
 0.208495908315818D+03 -.171250081640455D+03 0.447567838709518D+02 -.618508874318254D+02
 0.162691761695781D+03 -.118614288678545D+02 0.264157564940451D+02 -.160094108691535D+03
 0.000000000000000D+00 -.000000000000000D+00 0.000000000000000D+00 -.000000000000000D+00
 0.346436739155714D+03 0.000000000000000D+00 0.000000000000000D+00 0.346436739155714D+03
 0.534337237675940D+03 0.000000000000000D+00 0.000000000000000D+00 -.534337237675940D+03
 0.321915942420120D+03 0.183398655352644D+03 -.714858440173826D+02 0.221944996123360D+03
 0.208299706743715D+03 -.171064126212984D+03 0.445538879605533D+02 -.618508874318254D+02
 0.162655601130100D+03 -.117162735309344D+02 0.262573775500466D+02 -.160094108691535D+03
 0.187902726537719D+03 -.618255608725776D+00 0.674578506782721D+00 -.187900498520226D+03
0.312056405464D-05 0.000000000000D+00 0.000000000000D+00 0.571880059636D-06 0.000000000000D+00  6 2 21 25 23 2 21 2 0.73202800D+00 0.38805200D-02 0.53111769D+05 0.53111769D+05 0.53111769D+05 0.11896937D+01  1  2  2  2  6  2       21 0.226347179538D-03 0.100000000000D+01
0.807505476981D-06 0.164676689400D-06 -.629951975196D-08 0.571880059636D-06 0.000000000000D+00  6 2 21 25 23 2 21 4 0.73202800D+00 0.38805200D-02 0.53111769D+05 0.53111769D+05 0.53111769D+05 0.11896937D+01  1  2  3  2  6  2       21 0.829006157968D-04 0.100000000000D+01
0.317037778064D-06 0.000000000000D+00 0.000000000000D+00 0.571880059636D-06 0.000000000000D+00  6 2 21 25 23 2 21 4 0.73202800D+00 0.38805200D-02 0.53111769D+05 0.53111769D+05 0.53111769D+05 0.11896937D+01  1  2 15  2  6  2       21 0.325479241709D-04 0.100000000000D+01
0.387920903808D-06 0.000000000000D+00 0.000000000000D+00 0.571732758194D-06 0.000000000000D+00  6 2 21 25 23 2 21 4 0.73202800D+00 0.59852669D-02 0.53302635D+05 0.53302635D+05 0.53302635D+05 0.11895404D+01  1  2 12  2  6  2       21 0.190549634904D-04 0.100000000000D+01
0.388086569351D-06 0.000000000000D+00 0.000000000000D+00 0.571732758194D-06 0.000000000000D+00  6 2 21 25 23 2 21 4 0.73202800D+00 0.59878230D-02 0.53302635D+05 0.53302635D+05 0.53302635D+05 0.11895404D+01  1  2 12  2  6  2       21 0.190491208607D-04 0.100000000000D+01
-.152569625097D+00 0.000000000000D+00 0.000000000000D+00 0.571880059636D-06 0.000000000000D+00  6 2 21 25 23 2 21 4 0.73202800D+00 0.38805200D-02 0.53111769D+05 0.53111769D+05 0.53111769D+05 0.11896937D+01  1  2  4  2  6  2       21 -.156631951522D+02 0.100000000000D+01
-.178120631589D+00 0.000000000000D+00 -.382849462854D-05 0.571880059636D-06 0.000000000000D+00  6 2 21 25 23 2 21 4 0.73202800D+00 0.59852721D-02 0.53111769D+05 0.53111769D+05 0.53111769D+05 0.11896937D+01  1  2  5  2  6  2       21 -.875735611392D+01 0.100000000000D+01
0.147647995629D+00 0.000000000000D+00 0.270021627996D-05 0.571880059636D-06 0.000000000000D+00  6 2 21 25 23 2 21 4 0.73202800D+00 0.38805200D-02 0.53111769D+05 0.53111769D+05 0.53111769D+05 0.11896937D+01  1  2  6  2  6  2       21 0.151579278503D+02 0.100000000000D+01
0.180820948039D+00 0.000000000000D+00 0.000000000000D+00 0.571880059636D-06 0.142018955634D-04  6 2 21 25 23 2 21 4 0.73203099D+00 0.59852625D-02 0.53302635D+05 0.53302635D+05 0.53302635D+05 0.11895404D+01  1  2 11  2  6  2       21 0.888165513899D+01 0.100000000000D+01
0.369520382497D-07 0.000000000000D+00 0.000000000000D+00 0.571732758194D-06 0.000000000000D+00  6 2 -1 25 23 2 -1 4 0.73202800D+00 0.59852669D-02 0.53302635D+05 0.53302635D+05 0.53302635D+05 0.11895404D+01  1  2 12  5  6  2       21 0.109771658779D-06 0.100000000000D+01
0.369520382497D-07 0.000000000000D+00 0.000000000000D+00 0.571732758194D-06 0.000000000000D+00  6 2 -3 25 23 2 -3 4 0.73202800D+00 0.59852669D-02 0.53302635D+05 0.53302635D+05 0.53302635D+05 0.11895404D+01  1  2 12  5  6  2       21 0.782511530110D-07 0.100000000000D+01
0.369678189911D-07 0.000000000000D+00 0.000000000000D+00 0.571732758194D-06 0.000000000000D+00  6 2 -1 25 23 2 -1 4 0.73202800D+00 0.59878230D-02 0.53302635D+05 0.53302635D+05 0.53302635D+05 0.11895404D+01  1  2 12  5  6  2       21 0.109747812432D-06 0.100000000000D+01
0.369678189911D-07 0.000000000000D+00 0.000000000000D+00 0.571732758194D-06 0.000000000000D+00  6 2 -3 25 23 2 -3 4 0.73202800D+00 0.59878230D-02 0.53302635D+05 0.53302635D+05 0.53302635D+05 0.11895404D+01  1  2 12  5  6  2       21 0.782306010362D-07 0.100000000000D+01
-.169668924773D-01 0.000000000000D+00 -.564061522350D-06 0.571880059636D-06 0.000000000000D+00  6 2 -1 25 23 2 -1 4 0.73202800D+00 0.59852721D-02 0.53111769D+05 0.53111769D+05 0.53111769D+05 0.11896937D+01  1  2  5  5  6  2       21 -.504446870641D-01 0.100000000000D+01
-.169668924773D-01 0.000000000000D+00 -.564061522350D-06 0.571880059636D-06 0.000000000000D+00  6 2 -3 25 23 2 -3 4 0.73202800D+00 0.59852721D-02 0.53111769D+05 0.53111769D+05 0.53111769D+05 0.11896937D+01  1  2  5  5  6  2       21 -.359572012290D-01 0.100000000000D+01
0.164360843567D-01 0.000000000000D+00 0.000000000000D+00 0.571880059636D-06 0.129070503040D-05  6 2 -1 25 23 2 -1 4 0.73203099D+00 0.59852625D-02 0.53302635D+05 0.53302635D+05 0.53302635D+05 0.11895404D+01  1  2 11  5  6  2       21 0.488236618514D-01 0.100000000000D+01
0.164360843567D-01 0.000000000000D+00 0.000000000000D+00 0.571880059636D-06 0.129070503040D-05  6 2 -3 25 23 2 -3 4 0.73203099D+00 0.59852625D-02 0.53302635D+05 0.53302635D+05 0.53302635D+05 0.11895404D+01  1  2 11  5  6  2       21 0.348041395710D-01 0.100000000000D+01
0.369520382497D-07 0.000000000000D+00 0.000000000000D+00 0.571732758194D-06 0.000000000000D+00  6 2 1 25 23 2 1 4 0.73202800D+00 0.59852669D-02 0.53302635D+05 0.53302635D+05 0.53302635D+05 0.11895404D+01  1  2 12  6  6  2       21 0.126279433761D-06 0.100000000000D+01
0.369520382497D-07 0.000000000000D+00 0.000000000000D+00 0.571732758194D-06 0.000000000000D+00  6 2 3 25 23 2 3 4 0.73202800D+00 0.59852669D-02 0.53302635D+05 0.53302635D+05 0.53302635D+05 0.11895404D+01  1  2 12  6  6  2       21 0.782433871417D-07 0.100000000000D+01
0.369678189911D-07 0.000000000000D+00 0.000000000000D+00 0.571732758194D-06 0.000000000000D+00  6 2 1 25 23 2 1 4 0.73202800D+00 0.59878230D-02 0.53302635D+05 0.53302635D+05 0.53302635D+05 0.11895404D+01  1  2 12  6  6  2       21 0.126259078269D-06 0.100000000000D+01
0.369678189911D-07 0.000000000000D+00 0.000000000000D+00 0.571732758194D-06 0.000000000000D+00  6 2 3 25 23 2 3 4 0.73202800D+00 0.59878230D-02 0.53302635D+05 0.53302635D+05 0.53302635D+05 0.11895404D+01  1  2 12  6  6  2       21 0.782228357771D-07 0.100000000000D+01
-.169668924773D-01 0.000000000000D+00 -.564061522350D-06 0.571880059636D-06 0.000000000000D+00  6 2 1 25 23 2 1 4 0.73202800D+00 0.59852721D-02 0.53111769D+05 0.53111769D+05 0.53111769D+05 0.11896937D+01  1  2  5  6  6  2       21 -.580309920190D-01 0.100000000000D+01
-.169668924773D-01 0.000000000000D+00 -.564061522350D-06 0.571880059636D-06 0.000000000000D+00  6 2 3 25 23 2 3 4 0.73202800D+00 0.59852721D-02 0.53111769D+05 0.53111769D+05 0.53111769D+05 0.11896937D+01  1  2  5  6  6  2       21 -.359536317337D-01 0.100000000000D+01
0.164353429915D-01 0.000000000000D+00 0.000000000000D+00 0.571880059636D-06 0.129064681192D-05  6 2 1 25 23 2 1 4 0.73203099D+00 0.59852625D-02 0.53302635D+05 0.53302635D+05 0.53302635D+05 0.11895404D+01  1  2 11  6  6  2       21 0.561633644657D-01 0.100000000000D+01
0.164353429915D-01 0.000000000000D+00 0.000000000000D+00 0.571880059636D-06 0.129064681192D-05  6 2 3 25 23 2 3 4 0.73203099D+00 0.59852625D-02 0.53302635D+05 0.53302635D+05 0.53302635D+05 0.11895404D+01  1  2 11  6  6  2       21 0.347991157912D-01 0.100000000000D+01
0.369520382497D-07 0.000000000000D+00 0.000000000000D+00 0.571732758194D-06 0.000000000000D+00  6 2 -2 25 23 2 -2 4 0.73202800D+00 0.59852669D-02 0.53302635D+05 0.53302635D+05 0.53302635D+05 0.11895404D+01  1  2 12  7  6  2       21 0.106884200733D-06 0.100000000000D+01
0.369678189911D-07 0.000000000000D+00 0.000000000000D+00 0.571732758194D-06 0.000000000000D+00  6 2 -2 25 23 2 -2 4 0.73202800D+00 0.59878230D-02 0.53302635D+05 0.53302635D+05 0.53302635D+05 0.11895404D+01  1  2 12  7  6  2       21 0.106859779048D-06 0.100000000000D+01
-.169668924773D-01 0.000000000000D+00 -.564061522350D-06 0.571880059636D-06 0.000000000000D+00  6 2 -2 25 23 2 -2 4 0.73202800D+00 0.59852721D-02 0.53111769D+05 0.53111769D+05 0.53111769D+05 0.11896937D+01  1  2  5  7  6  2       21 -.491177138513D-01 0.100000000000D+01
0.164500487838D-01 0.000000000000D+00 0.000000000000D+00 0.571880059636D-06 0.129197356212D-05  6 2 -2 25 23 2 -2 4 0.73203099D+00 0.59852625D-02 0.53302635D+05 0.53302635D+05 0.53302635D+05 0.11895404D+01  1  2 11  7  6  2       21 0.475797847724D-01 0.100000000000D+01
0.369520382497D-07 0.000000000000D+00 0.000000000000D+00 0.571732758194D-06 0.000000000000D+00  6 2 2 25 23 2 2 4 0.73202800D+00 0.59852669D-02 0.53302635D+05 0.53302635D+05 0.53302635D+05 0.11895404D+01  1  2 12  8  6  2       21 0.137409225320D-06 0.100000000000D+01
0.369678189911D-07 0.000000000000D+00 0.000000000000D+00 0.571732758194D-06 0.000000000000D+00  6 2 2 25 23 2 2 4 0.73202800D+00 0.59878230D-02 0.53302635D+05 0.53302635D+05 0.53302635D+05 0.11895404D+01  1  2 12  8  6  2       21 0.137391229335D-06 0.100000000000D+01
-.169668924773D-01 0.000000000000D+00 -.564061522350D-06 0.571880059636D-06 0.000000000000D+00  6 2 2 25 23 2 2 4 0.73202800D+00 0.59852721D-02 0.53111769D+05 0.53111769D+05 0.53111769D+05 0.11896937D+01  1  2  5  8  6  2       21 -.631457052445D-01 0.100000000000D+01
0.166088668961D-01 0.000000000000D+00 0.000000000000D+00 0.571880059636D-06 0.652153460243D-06  6 2 2 25 23 2 2 4 0.73203099D+00 0.59852625D-02 0.53302635D+05 0.53302635D+05 0.53302635D+05 0.11895404D+01  1  2 11  8  6  2       21 0.617586212392D-01 0.100000000000D+01
0.369520382497D-07 0.000000000000D+00 0.000000000000D+00 0.571732758194D-06 0.000000000000D+00  6 2 -4 25 23 2 -4 4 0.73202800D+00 0.59852669D-02 0.53302635D+05 0.53302635D+05 0.53302635D+05 0.11895404D+01  1  2 12  9  6  2       21 0.700324526431D-07 0.100000000000D+01
0.369678189911D-07 0.000000000000D+00 0.000000000000D+00 0.571732758194D-06 0.000000000000D+00  6 2 -4 25 23 2 -4 4 0.73202800D+00 0.59878230D-02 0.53302635D+05 0.53302635D+05 0.53302635D+05 0.11895404D+01  1  2 12  9  6  2       21 0.700132557871D-07 0.100000000000D+01
-.169668924773D-01 0.000000000000D+00 -.564061522350D-06 0.571880059636D-06 0.000000000000D+00  6 2 -4 25 23 2 -4 4 0.73202800D+00 0.59852721D-02 0.53111769D+05 0.53111769D+05 0.53111769D+05 0.11896937D+01  1  2  5  9  6  2       21 -.321796632966D-01 0.100000000000D+01
0.164227274794D-01 0.000000000000D+00 0.000000000000D+00 0.571880059636D-06 0.128965613163D-05  6 2 -4 25 23 2 -4 4 0.73203099D+00 0.59852625D-02 0.53302635D+05 0.53302635D+05 0.53302635D+05 0.11895404D+01  1  2 11  9  6  2       21 0.311233563741D-01 0.100000000000D+01
0.369520382497D-07 0.000000000000D+00 0.000000000000D+00 0.571732758194D-06 0.000000000000D+00  6 2 4 25 23 2 4 4 0.73202800D+00 0.59852669D-02 0.53302635D+05 0.53302635D+05 0.53302635D+05 0.11895404D+01  1  2 12 10  6  2       21 0.700324526431D-07 0.100000000000D+01
0.369678189911D-07 0.000000000000D+00 0.000000000000D+00 0.571732758194D-06 0.000000000000D+00  6 2 4 25 23 2 4 4 0.73202800D+00 0.59878230D-02 0.53302635D+05 0.53302635D+05 0.53302635D+05 0.11895404D+01  1  2 12 10  6  2       21 0.700132557871D-07 0.100000000000D+01
-.169668924773D-01 0.000000000000D+00 -.564061522350D-06 0.571880059636D-06 0.000000000000D+00  6 2 4 25 23 2 4 4 0.73202800D+00 0.59852721D-02 0.53111769D+05 0.53111769D+05 0.53111769D+05 0.11896937D+01  1  2  5 10  6  2       21 -.321796632966D-01 0.100000000000D+01
0.164231566425D-01 0.000000000000D+00 0.000000000000D+00 0.571880059636D-06 0.128968983326D-05  6 2 4 25 23 2 4 4 0.73203099D+00 0.59852625D-02 0.53302635D+05 0.53302635D+05 0.53302635D+05 0.11895404D+01  1  2 11 10  6  2       21 0.311241696979D-01 0.100000000000D+01
  </mgrwgt>
  </event>
  <event>
  6     66 -.44822969E-03 0.18611874E+02 0.75467711E-02 0.12159063E+00
        2 -1    0    0  503    0 0.00000000E+00 0.00000000E+00 0.34069188E+03 0.34069203E+03 0.32000000E+00 0.0000E+00 0.9000E+01
       21 -1    0    0  501  502 0.00000000E+00 0.00000000E+00 -.60910757E+02 0.60915375E+02 0.75000000E+00 0.0000E+00 0.9000E+01
       25  1    1    2    0    0 0.10181116E+01 0.54631479E+02 0.18501869E+03 0.22987508E+03 0.12500000E+03 0.0000E+00 0.9000E+01
       23  1    1    2    0    0 -.15353271E+02 -.62042846E+02 0.82750285E+02 0.13873680E+03 0.91188000E+02 0.0000E+00 0.9000E+01
        2  1    1    2  501    0 0.20837002E+02 0.66810616E+01 0.33887367E+01 0.22145048E+02 0.32000000E+00 0.0000E+00 0.9000E+01
       21  1    1    2  503  502 -.65018423E+01 0.73030531E+00 0.86234147E+01 0.10850488E+02 0.75000000E+00 0.0000E+00 0.9000E+01
#aMCatNLO 2  0  0  1  2 0.65427288D+01 0.00000000D+00  -5  6  0 0.00000000D+00 0.00000000D+00 0.00000000D+00 0.00000000D+00 0.00000000D+00
  <mgrwgt>
 -.2056638744D+00    3    2    0
 0.140642863005939D+03 0.000000000000000D+00 0.000000000000000D+00 0.140642863005939D+03
 0.140642863005939D+03 0.000000000000000D+00 0.000000000000000D+00 -.140642863005939D+03
 0.141099691015707D+03 -.224182904200186D+01 0.549973278494378D+02 0.354173818441707D+02
 0.113153742631069D+03 -.179664096647489D+02 -.617495852846145D+02 -.187807073443648D+02
 0.270322923651030D+02 0.202082387067507D+02 0.675225743517669D+01 -.166366744998058D+02
 0.000000000000000D+00 -.000000000000000D+00 0.000000000000000D+00 0.000000000000000D+00
 0.144798809066904D+03 0.000000000000000D+00 0.000000000000000D+00 0.144798809066904D+03
 0.143279755711908D+03 0.000000000000000D+00 0.000000000000000D+00 -.143279755711908D+03
 0.140943246086699D+03 0.101740271059458D+01 0.546312417256329D+02 0.354173818441707D+02
 0.112929380873382D+03 -.153538383221651D+02 -.620430366831560D+02 -.187807073443648D+02
 0.274891809627372D+02 0.208382779443719D+02 0.668148964698181D+01 -.166366744998058D+02
 0.671675685599357D+01 -.650184233280132D+01 0.730305310541368D+00 0.151905335499592D+01
-.100960754957D-04 0.000000000000D+00 0.000000000000D+00 0.736830335910D-06 0.000000000000D+00  6 2 21 25 23 2 21 4 0.52872532D-01 0.91974515D-02 0.19072085D+05 0.19072085D+05 0.19072085D+05 0.12361039D+01  1  2 13  1  6  1        2 -.257782586710D+00 0.100000000000D+01
-.424490356854D-05 0.000000000000D+00 0.000000000000D+00 0.739669890857D-06 0.000000000000D+00  6 2 21 25 23 2 21 4 0.50902742D-01 0.91974515D-02 0.18153937D+05 0.18153937D+05 0.18153937D+05 0.12384834D+01  1  2  8  1  6  1        2 -.113628156883D+00 0.100000000000D+01
0.664250325300D-05 0.000000000000D+00 0.000000000000D+00 0.739669890857D-06 0.153433909201D-06  6 2 21 25 23 2 21 4 0.52406900D-01 0.93698932D-02 0.19072085D+05 0.19072085D+05 0.19072085D+05 0.12361039D+01  1  2  1  1  6  1        2 0.165746869167D+00 0.100000000000D+01
  </mgrwgt>
  </event>
  <event>
  5     66 -.44822969E-03 0.30417518E+02 0.75467711E-02 0.11818604E+00
        2 -1    0    0  502    0 0.00000000E+00 0.00000000E+00 0.29785342E+04 0.29785343E+04 0.32000000E+00 0.0000E+00 0.9000E+01
       21 -1    0    0  501  502 0.00000000E+00 0.00000000E+00 -.10559596E+02 0.10586198E+02 0.75000000E+00 0.0000E+00 0.9000E+01
       25  1    1    2    0    0 -.76242994E+02 0.43699169E+02 0.15156118E+04 0.15232947E+04 0.12500000E+03 0.0000E+00 0.9000E+01
       23  1    1    2    0    0 0.10043818E+03 -.62132456E+02 0.13686175E+04 0.13767271E+04 0.91188000E+02 0.0000E+00 0.9000E+01
        2  1    1    2  501    0 -.24195182E+02 0.18433288E+02 0.83745271E+02 0.89098629E+02 0.32000000E+00 0.0000E+00 0.9000E+01
#aMCatNLO 1  0  0  5  2 0.15474137D+01 0.00000000D+00  -5  6  0 0.00000000D+00 0.00000000D+00 0.00000000D+00 0.00000000D+00 0.00000000D+00
  <mgrwgt>
 -.1340604808D+00    8    2    0
 0.177459578503753D+03 0.000000000000000D+00 0.000000000000000D+00 0.177459578503753D+03
 0.177459578503753D+03 -.000000000000000D+00 -.000000000000000D+00 -.177459578503753D+03
 0.155004083370119D+03 -.762427781692692D+02 0.436990045294116D+02 0.260519028399239D+02
 0.149839886098180D+03 0.100438384715214D+03 -.621326153821520D+02 0.137262195628524D+02
 0.500751875392066D+02 -.241956065459452D+02 0.184336108527404D+02 -.397781224027763D+02
 0.000000000000000D+00 0.000000000000000D+00 0.000000000000000D+00 -.000000000000000D+00
 0.177459578503753D+03 0.000000000000000D+00 0.000000000000000D+00 0.177459578503753D+03
 0.177459578503753D+03 -.000000000000000D+00 -.000000000000000D+00 -.177459578503753D+03
 0.155012822085803D+03 -.762630718046233D+02 0.437144653931926D+02 0.260185396460904D+02
 0.149817590656824D+03 0.100418769205681D+03 -.621176711537970D+02 0.136939712231500D+02
 0.267561119119389D+02 -.132345952956489D+02 0.111190128195440D+02 -.204230890396972D+02
 0.233326323529392D+02 -.109211021054092D+02 0.728419294106039D+01 -.192894218295432D+02
0.632496557753D-06 0.000000000000D+00 0.000000000000D+00 0.473415199327D-06 0.000000000000D+00  6 2 21 25 23 2 21 2 0.45823808D+00 0.16266009D-02 0.27626840D+05 0.27626840D+05 0.27626840D+05 0.12186727D+01  1  2  2  3  6  5        2 0.461393230551D-02 0.100000000000D+01
0.518913297489D-07 0.333777603548D-07 -.127682831977D-08 0.473415199327D-06 0.000000000000D+00  6 2 21 25 23 2 21 4 0.45823808D+00 0.16266009D-02 0.27626840D+05 0.27626840D+05 0.27626840D+05 0.12186727D+01  1  2  3  3  6  5        2 0.562188606093D-03 0.100000000000D+01
0.434508763566D-07 0.000000000000D+00 0.000000000000D+00 0.473415199327D-06 0.000000000000D+00  6 2 21 25 23 2 21 4 0.45823808D+00 0.16266009D-02 0.27626840D+05 0.27626840D+05 0.27626840D+05 0.12186727D+01  1  2 15  3  6  5        2 0.470745069179D-03 0.100000000000D+01
0.518196953220D-08 0.000000000000D+00 0.000000000000D+00 0.473417240731D-06 0.000000000000D+00  6 2 21 25 23 2 21 4 0.45823808D+00 0.16266009D-02 0.27625263D+05 0.27625263D+05 0.27625263D+05 0.12186754D+01  1  2 12  3  6  5        2 0.561418355430D-04 0.100000000000D+01
-.650882173843D-04 0.000000000000D+00 0.000000000000D+00 0.473415199327D-06 0.000000000000D+00  6 2 21 25 23 2 21 4 0.45823808D+00 0.16266009D-02 0.27626840D+05 0.27626840D+05 0.27626840D+05 0.12186727D+01  1  2  4  3  6  5        2 -.705163162737D+00 0.100000000000D+01
-.219867472069D-04 0.000000000000D+00 0.000000000000D+00 0.473415199327D-06 0.000000000000D+00  6 2 21 25 23 2 21 4 0.45823808D+00 0.16266009D-02 0.27626840D+05 0.27626840D+05 0.27626840D+05 0.12186727D+01  1  2  5  3  6  5        2 -.238203546230D+00 0.100000000000D+01
0.433353783859D-04 0.000000000000D+00 -.000000000000D+00 0.473415199327D-06 0.000000000000D+00  6 2 21 25 23 2 21 4 0.45823808D+00 0.16266009D-02 0.27626840D+05 0.27626840D+05 0.27626840D+05 0.12186727D+01  1  2  6  3  6  5        2 0.469493768750D+00 0.100000000000D+01
0.308387672356D-04 0.000000000000D+00 0.000000000000D+00 0.473415199327D-06 0.754209363827D-06  6 2 21 25 23 2 21 4 0.45823808D+00 0.16266009D-02 0.27625263D+05 0.27625263D+05 0.27625263D+05 0.12186754D+01  1  2 11  3  6  5        2 0.334109451576D+00 0.100000000000D+01
  </mgrwgt>
  </event>
  <event>
  6     66 0.44822969E-03 0.33460059E+02 0.75467711E-02 0.11692729E+00
        2 -1    0    0  502    0 0.00000000E+00 0.00000000E+00 0.15738505E+04 0.15738505E+04 0.32000000E+00 0.0000E+00 0.9000E+01
       21 -1    0    0  503  502 0.00000000E+00 0.00000000E+00 -.24820765E+02 0.24832094E+02 0.75000000E+00 0.0000E+00 0.9000E+01
       25  1    1    2    0    0 -.11534308E+03 0.52352662E+02 0.84815546E+03 0.86662420E+03 0.12500000E+03 0.0000E+00 0.9000E+01
       23  1    1    2    0    0 0.10290207E+03 -.16819795E+02 0.52380001E+03 0.54180572E+03 0.91188000E+02 0.0000E+00 0.9000E+01
        2  1    1    2  501    0 -.32770777E+01 -.33598382E+01 0.13464956E+03 0.13473171E+03 0.32000000E+00 0.0000E+00 0.9000E+01
       21  1    1    2  503  501 0.15718087E+02 -.32173029E+02 0.42424715E+02 0.55520996E+02 0.75000000E+00 0.0000E+00 0.9000E+01
#aMCatNLO 2  0  0  2  5 0.29793193D+01 0.00000000D+00  -5  6  0 0.00000000D+00 0.00000000D+00 0.00000000D+00 0.00000000D+00 0.00000000D+00
  <mgrwgt>
 0.8268931985D-01    1    2    0
 0.165987174946061D+03 0.000000000000000D+00 0.000000000000000D+00 0.165987174946061D+03
 0.165987174946061D+03 0.000000000000000D+00 0.000000000000000D+00 -.165987174946061D+03
 0.168713570383567D+03 -.107153479273469D+03 0.355906504789798D+02 0.952398601660021D+01
 0.147881156214911D+03 0.109711093920338D+03 -.307560791881187D+02 -.238982108793913D+02
 0.153796232936435D+02 -.255761464686973D+01 -.483457129086104D+01 0.143742248627911D+02
 0.000000000000000D+00 0.000000000000000D+00 -.000000000000000D+00 -.000000000000000D+00
 0.172309569410609D+03 0.000000000000000D+00 0.000000000000000D+00 0.172309569410609D+03
 0.226756421596369D+03 0.000000000000000D+00 0.000000000000000D+00 -.226756421596369D+03
 0.178214816956505D+03 -.115342789610036D+03 0.523531809747140D+02 0.952398601660021D+01
 0.140563678475688D+03 0.102902298928461D+03 -.168192970904961D+02 -.238982108793913D+02
 0.151213863633979D+02 -.327759676068650D+01 -.336085474536062D+01 0.143742248627911D+02
 0.651661092113864D+02 0.157180874422616D+02 -.321730291388573D+02 -.544468521857600D+02
0.562607764493D-05 0.000000000000D+00 0.000000000000D+00 0.194454973222D-06 0.258832953707D-08  6 2 21 25 23 2 21 4 0.24212877D+00 0.38194066D-02 0.31858526D+05 0.31858526D+05 0.31858526D+05 0.12121682D+01  1  2  1  2  6  2       21 0.826893198544D-01 0.100000000000D+01
  </mgrwgt>
  </event>
  <event>
  6     66 -.44822969E-03 0.50285963E+02 0.75467711E-02 0.12121912E+00
        2 -1    0    0  502    0 0.00000000E+00 0.00000000E+00 0.75758451E+03 0.75758458E+03 0.32000000E+00 0.0000E+00 0.9000E+01
       21 -1    0    0  501  503 0.00000000E+00 0.00000000E+00 -.50847260E+02 0.50852791E+02 0.75000000E+00 0.0000E+00 0.9000E+01
       25  1    1    2    0    0 0.42826799E+02 -.24498113E+02 0.41885997E+03 0.43988973E+03 0.12500000E+03 0.0000E+00 0.9000E+01
       23  1    1    2    0    0 0.57585422E+01 -.10509467E+01 0.29727385E+03 0.31100042E+03 0.91188000E+02 0.0000E+00 0.9000E+01
        2  1    1    2  501    0 -.37204477E+02 0.14080138E+02 -.21943644E+01 0.39841448E+02 0.32000000E+00 0.0000E+00 0.9000E+01
       21  1    1    2  502  503 -.11380864E+02 0.11468922E+02 -.72022108E+01 0.17705778E+02 0.75000000E+00 0.0000E+00 0.9000E+01
#aMCatNLO 2  0  0  2  1 0.16157359D+02 0.00000000D+00  -5  6  0 0.00000000D+00 0.00000000D+00 0.00000000D+00 0.00000000D+00 0.00000000D+00
  <mgrwgt>
 -.1138128347D+00    3    2    0
 0.169768837724442D+03 0.000000000000000D+00 0.000000000000000D+00 0.169768837724442D+03
 0.169768837724442D+03 0.000000000000000D+00 0.000000000000000D+00 -.169768837724442D+03
 0.141444385022569D+03 0.380533535832680D+02 -.196876829707628D+02 0.504564314505326D+02
 0.989720758064240D+02 0.244111566840296D+01 0.229218330401643D+01 0.383276309654902D+02
 0.991212146198911D+02 -.404944692516710D+02 0.173954996667464D+02 -.887840624160227D+02
 0.000000000000000D+00 -.000000000000000D+00 0.000000000000000D+00 -.000000000000000D+00
 0.171144901871779D+03 0.000000000000000D+00 0.000000000000000D+00 0.171144901871779D+03
 0.225085539026505D+03 0.000000000000000D+00 0.000000000000000D+00 -.225085539026505D+03
 0.143544952964031D+03 0.428268900488186D+02 -.244981537155332D+02 0.504564314505326D+02
 0.990884691838413D+02 0.575860551057491D+01 -.105097494920126D+01 0.383276309654902D+02
 0.972884707742490D+02 -.372046311053038D+02 0.140802070587735D+02 -.887840624160227D+02
 0.563085479761629D+02 -.113808644540897D+02 0.114689216059610D+02 -.539406371547259D+02
-.662313908638D-05 0.000000000000D+00 0.000000000000D+00 0.106167300162D-05 0.000000000000D+00  6 2 21 25 23 2 21 4 0.11561310D+00 0.78413140D-02 0.19838414D+05 0.19838414D+05 0.19838414D+05 0.12342141D+01  1  2 13  2  6  2       21 -.927274787358D-01 0.100000000000D+01
-.477156951358D-05 0.000000000000D+00 0.000000000000D+00 0.106167300162D-05 0.000000000000D+00  6 2 21 25 23 2 21 4 0.11561310D+00 0.86258139D-02 0.19838414D+05 0.19838414D+05 0.19838414D+05 0.12342141D+01  1  2 13  2  6  2       21 -.566414232415D-01 0.100000000000D+01
0.255439226711D-05 0.000000000000D+00 0.000000000000D+00 0.107028396168D-05 0.204628669688D-06  6 2 21 25 23 2 21 4 0.11655020D+00 0.78229726D-02 0.19838414D+05 0.19838414D+05 0.19838414D+05 0.12342141D+01  1  2  1  2  6  2       21 0.355560673148D-01 0.100000000000D+01
  </mgrwgt>
  </event>
  <event>
  6     66 -.44822969E-03 0.55281427E+02 0.75467711E-02 0.11844195E+00
        2 -1    0    0  503    0 0.00000000E+00 0.00000000E+00 0.13721753E+04 0.13721754E+04 0.32000000E+00 0.0000E+00 0.9000E+01
       21 -1    0    0  501  502 0.00000000E+00 0.00000000E+00 -.22155071E+02 0.22167762E+02 0.75000000E+00 0.0000E+00 0.9000E+01
       25  1    1    2    0    0 -.27871613E+02 0.16855861E+02 0.36919723E+03 0.39114261E+03 0.12500000E+03 0.0000E+00 0.9000E+01
       23  1    1    2    0    0 -.21242718E+01 -.48656360E+02 0.47325809E+03 0.48441762E+03 0.91188000E+02 0.0000E+00 0.9000E+01
        2  1    1    2  501    0 0.37813052E+02 0.57199179E+02 0.23151358E+03 0.24145437E+03 0.32000000E+00 0.0000E+00 0.9000E+01
       21  1    1    2  503  502 -.78171673E+01 -.25398679E+02 0.27605134E+03 0.27732851E+03 0.75000000E+00 0.0000E+00 0.9000E+01
#aMCatNLO 2  0  0  1  2 0.26574443D+02 0.00000000D+00  -5  6  0 0.00000000D+00 0.00000000D+00 0.00000000D+00 0.00000000D+00 0.00000000D+00
  <mgrwgt>
 -.2221989078D-01    2    2    0
 0.152975656902804D+03 0.000000000000000D+00 0.000000000000000D+00 0.152975656902804D+03
 0.152975656902804D+03 0.000000000000000D+00 0.000000000000000D+00 -.152975656902804D+03
 0.131378522419936D+03 -.312247184126287D+02 0.596168132225201D+01 -.249958290342519D+02
 0.111421418656428D+03 -.490861531106463D+01 -.577026358776597D+02 0.273092017442692D+02
 0.631513727292449D+02 0.361333337236934D+02 0.517409545554077D+02 -.231337271001726D+01
 0.000000000000000D+00 -.000000000000000D+00 -.000000000000000D+00 0.000000000000000D+00
 0.192330521120517D+03 0.000000000000000D+00 0.000000000000000D+00 0.192330521120517D+03
 0.158104366726930D+03 0.000000000000000D+00 0.000000000000000D+00 -.158104366726930D+03
 0.131570284734749D+03 -.278718116283336D+02 0.168555768998914D+02 -.249958290342519D+02
 0.106925305869252D+03 -.212443757733522D+01 -.486565921156013D+02 0.273092017442692D+02
 0.686076614688287D+02 0.378134164912680D+02 0.571996945112808D+02 -.231337271001726D+01
 0.433316357746163D+02 -.781716728559924D+01 -.253986792955709D+02 0.342261543935877D+02
-.562651614020D-05 0.000000000000D+00 0.000000000000D+00 0.180687330718D-06 0.000000000000D+00  6 2 21 25 23 2 21 4 0.21340454D+00 0.32987870D-02 0.26846207D+05 0.26846207D+05 0.26846207D+05 0.12199940D+01  1  2 13  1  6  1        2 -.136052326247D+00 0.100000000000D+01
0.488116576646D-05 0.000000000000D+00 0.000000000000D+00 0.183125983696D-06 0.221648201163D-08  6 2 21 25 23 2 21 4 0.21110064D+00 0.34093832D-02 0.26846207D+05 0.26846207D+05 0.26846207D+05 0.12199940D+01  1  2  1  1  6  1        2 0.113832435464D+00 0.100000000000D+01
  </mgrwgt>
  </event>
  <event>
  5     66 0.44822969E-03 0.25139595E+02 0.75467711E-02 0.93857441E-01
        2 -1    0    0  502    0 0.00000000E+00 0.00000000E+00 0.37309436E+03 0.37309450E+03 0.32000000E+00 0.0000E+00 0.9000E+01
       21 -1    0    0  501  502 0.00000000E+00 0.00000000E+00 -.24041990E+04 0.24041991E+04 0.75000000E+00 0.0000E+00 0.9000E+01
       25  1    1    2    0    0 -.54563400E+03 0.52147987E+03 -.22679571E+03 0.79794675E+03 0.12500000E+03 0.0000E+00 0.9000E+01
       23  1    1    2    0    0 0.52409804E+03 -.53444891E+03 -.15489408E+04 0.17227441E+04 0.91188000E+02 0.0000E+00 0.9000E+01
        2  1    1    2  501    0 0.21535959E+02 0.12969035E+02 -.25536812E+03 0.25660275E+03 0.32000000E+00 0.0000E+00 0.9000E+01
#aMCatNLO 1  0  0  2  1 0.14438206D+01 0.00000000D+00  -5  6  0 0.00000000D+00 0.00000000D+00 0.00000000D+00 0.00000000D+00 0.00000000D+00
  <mgrwgt>
 0.1713800516D+01    4    2    0
 0.947097374959040D+03 0.000000000000000D+00 0.000000000000000D+00 0.947097374959040D+03
 0.947097374959040D+03 0.000000000000000D+00 0.000000000000000D+00 -.947097374959040D+03
 0.926772110655581D+03 -.545634051301482D+03 0.521479843556132D+03 0.523090623041556D+03
 0.865014079179187D+03 0.524097993007646D+03 -.534448938085145D+03 -.423815681799571D+03
 0.102408560083313D+03 0.215360582938368D+02 0.129690945290132D+02 -.992749412419851D+02
 0.000000000000000D+00 0.000000000000000D+00 -.000000000000000D+00 0.000000000000000D+00
 0.141493223525326D+04 0.000000000000000D+00 0.000000000000000D+00 0.141493223525326D+04
 0.100312864512912D+04 0.000000000000000D+00 0.000000000000000D+00 -.100312864512912D+04
 0.102560893190823D+04 -.562783673844658D+03 0.667757005017423D+03 0.523090623041556D+03
 0.785112428269001D+03 0.509603359975323D+03 -.410817425435039D+03 -.423815681799571D+03
 0.105154714363237D+03 0.197128323287304D+02 0.285202425619720D+02 -.992749412419851D+02
 0.502184805841915D+03 0.334674815406044D+02 -.285459822144356D+03 0.411803590124132D+03
0.952837538946D+00 0.000000000000D+00 0.000000000000D+00 0.123711118468D-06 0.000000000000D+00  6 2 21 25 23 2 21 2 0.57399152D-01 0.36987679D+00 0.59617908D+06 0.59617908D+06 0.59617908D+06 0.10984217D+01  1  2  2  2  6  2       21 0.111066039165D+01 0.100000000000D+01
0.373285265292D+00 0.502826183671D-01 -.192350446647D-02 0.123711118468D-06 0.000000000000D+00  6 2 21 25 23 2 21 4 0.57399152D-01 0.36987679D+00 0.59617908D+06 0.59617908D+06 0.59617908D+06 0.10984217D+01  1  2  3  2  6  2       21 0.524978480556D+00 0.100000000000D+01
0.896388581419D-01 0.000000000000D+00 0.000000000000D+00 0.123711118468D-06 0.000000000000D+00  6 2 21 25 23 2 21 4 0.57399152D-01 0.36987679D+00 0.59617908D+06 0.59617908D+06 0.59617908D+06 0.10984217D+01  1  2 15  2  6  2       21 0.126065708780D+00 0.100000000000D+01
-.340621228974D-01 0.000000000000D+00 0.000000000000D+00 0.123711118468D-06 0.000000000000D+00  6 2 21 25 23 2 21 4 0.57399152D-01 0.36987679D+00 0.59617908D+06 0.59617908D+06 0.59617908D+06 0.10984217D+01  1  2  4  2  6  2       21 -.479040647618D-01 0.100000000000D+01
  </mgrwgt>
  </event>
  <event>
  6     66 0.44822969E-03 0.27604352E+02 0.75467711E-02 0.12168523E+00
        2 -1    0    0  502    0 0.00000000E+00 0.00000000E+00 0.54617165E+03 0.54617175E+03 0.32000000E+00 0.0000E+00 0.9000E+01
       21 -1    0    0  501  502 0.00000000E+00 0.00000000E+00 -.63269610E+02 0.63274055E+02 0.75000000E+00 0.0000E+00 0.9000E+01
       25  1    1    2    0    0 0.24858549E+02 0.32943501E+02 0.16474928E+03 0.21088041E+03 0.12500000E+03 0.0000E+00 0.9000E+01
       23  1    1    2    0    0 -.13248720E+02 -.62175147E+02 0.46025067E+02 0.12031141E+03 0.91188000E+02 0.0000E+00 0.9000E+01
        2  1    1    2  503    0 0.61303616E+00 0.30537487E+01 0.20674533E+03 0.20676904E+03 0.32000000E+00 0.0000E+00 0.9000E+01
       21  1    1    2  501  503 -.12222865E+02 0.26177898E+02 0.65382366E+02 0.71484943E+02 0.75000000E+00 0.0000E+00 0.9000E+01
#aMCatNLO 2  0  0  5  2 0.22222463D+02 0.00000000D+00  -5  6  0 0.00000000D+00 0.00000000D+00 0.00000000D+00 0.00000000D+00 0.00000000D+00
  <mgrwgt>
 0.3667944270D-01    2    2    0
 0.185896343964701D+03 0.000000000000000D+00 0.000000000000000D+00 0.185896343964701D+03
 0.185896343964701D+03 -.000000000000000D+00 -.000000000000000D+00 -.185896343964701D+03
 0.131637366222857D+03 0.254300419624033D+02 0.315045750204588D+02 -.801067441987419D+01
 0.140695479813972D+03 -.126451048856490D+02 -.636949524179370D+02 -.852233597964290D+02
 0.994598418925721D+02 -.127849370767543D+02 0.321903773974782D+02 0.932340342163032D+02
 0.000000000000000D+00 -.000000000000000D+00 0.000000000000000D+00 0.000000000000000D+00
 0.185896343964701D+03 0.000000000000000D+00 0.000000000000000D+00 0.185896343964701D+03
 0.185896343964701D+03 -.000000000000000D+00 -.000000000000000D+00 -.185896343964701D+03
 0.131693321613869D+03 0.248562243563879D+02 0.329493537615711D+02 -.382611488767042D+01
 0.137423029982926D+03 -.132511462809427D+02 -.621690394536510D+02 -.808038085818948D+02
 0.701728754499313D+02 0.695604415607304D+00 0.286893831858900D+01 0.701107536425953D+02
 0.325034608826755D+02 -.123006824910525D+02 0.263507473734909D+02 0.145191698269699D+02
-.229978915915D-05 0.000000000000D+00 0.000000000000D+00 0.812564081734D-07 0.000000000000D+00  6 2 21 25 23 2 21 4 0.84026757D-01 0.97341353D-02 0.18882466D+05 0.18882466D+05 0.18882466D+05 0.12365847D+01  1  2 13  3  6  5        2 -.322738055229D-01 0.100000000000D+01
0.491351825962D-05 0.000000000000D+00 0.000000000000D+00 0.811124543638D-07 0.199674928174D-08  6 2 21 25 23 2 21 4 0.84026757D-01 0.97341353D-02 0.18882466D+05 0.18882466D+05 0.18882466D+05 0.12365847D+01  1  2  1  3  6  5        2 0.689532482196D-01 0.100000000000D+01
  </mgrwgt>
  </event>
  <event>
  5     66 0.44822969E-03 0.34199524E+02 0.75467711E-02 0.12093759E+00
        2 -1    0    0  502    0 0.00000000E+00 0.00000000E+00 0.58094168E+02 0.58095049E+02 0.32000000E+00 0.0000E+00 0.9000E+01
       21 -1    0    0  501  502 0.00000000E+00 0.00000000E+00 -.10934303E+04 0.10934305E+04 0.75000000E+00 0.0000E+00 0.9000E+01
       25  1    1    2    0    0 -.13687647E+01 -.38906093E+02 -.94345833E+02 0.16137439E+03 0.12500000E+03 0.0000E+00 0.9000E+01
       23  1    1    2    0    0 -.25379040E+02 0.60217133E+02 -.10562052E+03 0.15408162E+03 0.91188000E+02 0.0000E+00 0.9000E+01
        2  1    1    2  501    0 0.26747805E+02 -.21311040E+02 -.83536975E+03 0.83606957E+03 0.32000000E+00 0.0000E+00 0.9000E+01
#aMCatNLO 1  0  0  2  1 0.85153646D+01 0.00000000D+00  -5  6  0 0.00000000D+00 0.00000000D+00 0.00000000D+00 0.00000000D+00 0.00000000D+00
  <mgrwgt>
 0.3010339775D+00   32    2    0
 0.252036856590397D+03 0.000000000000000D+00 0.000000000000000D+00 0.252036856590397D+03
 0.252036856590397D+03 0.000000000000000D+00 0.000000000000000D+00 -.252036856590397D+03
 0.174869503053403D+03 -.136877725623233D+01 -.389060829754377D+02 0.115925779076422D+03
 0.135052085822552D+03 -.253790496181660D+02 0.602171405116290D+02 0.751905204803333D+02
 0.194152124304838D+03 0.267478268743983D+02 -.213110575361913D+02 -.191116299556755D+03
 0.000000000000000D+00 0.000000000000000D+00 0.000000000000000D+00 -.000000000000000D+00
 0.255330281890005D+03 0.000000000000000D+00 0.000000000000000D+00 0.255330281890005D+03
 0.257637836685869D+03 0.000000000000000D+00 0.000000000000000D+00 -.257637836685869D+03
 0.175400404164424D+03 -.333758075411816D+01 -.411141834562899D+02 0.115925779076422D+03
 0.134597405686625D+03 -.268947004095891D+02 0.585172708979579D+02 0.751905204803333D+02
 0.194147823626079D+03 0.245652634284330D+02 -.237588992835782D+02 -.191116299556755D+03
 0.882248509874594D+01 0.566701773527420D+01 0.635581184191023D+01 -.230755479586414D+01
0.114936584099D-03 0.000000000000D+00 0.000000000000D+00 0.467364692405D-05 0.000000000000D+00  6 2 21 25 23 2 21 2 0.89376519D-02 0.16822013D+00 0.19224706D+05 0.19224706D+05 0.19224706D+05 0.12357208D+01  1  2  2  2  6  2       21 0.354074996559D-01 0.100000000000D+01
0.228094202292D-04 0.606537017955D-05 -.232023848598D-06 0.467364692405D-05 0.000000000000D+00  6 2 21 25 23 2 21 4 0.89376519D-02 0.16822013D+00 0.19224706D+05 0.19224706D+05 0.19224706D+05 0.12357208D+01  1  2  3  2  6  2       21 0.107298081765D-01 0.100000000000D+01
0.114481685975D-04 0.000000000000D+00 0.000000000000D+00 0.467364692405D-05 0.000000000000D+00  6 2 21 25 23 2 21 4 0.89376519D-02 0.16822013D+00 0.19224706D+05 0.19224706D+05 0.19224706D+05 0.12357208D+01  1  2 15  2  6  2       21 0.538534744804D-02 0.100000000000D+01
0.172096263532D-03 0.000000000000D+00 0.000000000000D+00 0.465142834088D-05 0.000000000000D+00  6 2 21 25 23 2 21 4 0.89376519D-02 0.17303808D+00 0.20442967D+05 0.20442967D+05 0.20442967D+05 0.12327800D+01  1  2 12  2  6  2       21 0.740691960558D-01 0.100000000000D+01
-.690057373709D-04 0.000000000000D+00 0.000000000000D+00 0.467364692405D-05 0.000000000000D+00  6 2 21 25 23 2 21 4 0.89376519D-02 0.16822013D+00 0.19224706D+05 0.19224706D+05 0.19224706D+05 0.12357208D+01  1  2  4  2  6  2       21 -.324610760653D-01 0.100000000000D+01
-.629706504824D-02 0.000000000000D+00 -.977015897343D-03 0.467364692405D-05 0.000000000000D+00  6 2 21 25 23 2 21 4 0.89376519D-02 0.17341316D+00 0.19224706D+05 0.19224706D+05 0.19224706D+05 0.12357208D+01  1  2  5  2  6  2       21 -.272746919779D+01 0.100000000000D+01
0.631441712275D-02 0.000000000000D+00 0.975212002379D-03 0.467364692405D-05 0.000000000000D+00  6 2 21 25 23 2 21 4 0.89376519D-02 0.16822013D+00 0.19224706D+05 0.19224706D+05 0.19224706D+05 0.12357208D+01  1  2  6  2  6  2       21 0.297037293331D+01 0.100000000000D+01
0.176859010276D-06 0.000000000000D+00 0.000000000000D+00 0.467364692405D-05 0.513920046263D-06  6 2 21 25 23 2 21 4 0.90544423D-02 0.17195846D+00 0.20442967D+05 0.20442967D+05 0.20442967D+05 0.12327800D+01  1  2 11  2  6  2       21 0.761912793489D-04 0.100000000000D+01
0.523498956590D-05 0.000000000000D+00 0.000000000000D+00 0.465142834088D-05 0.000000000000D+00  6 2 -1 25 23 2 -1 4 0.89376519D-02 0.17303808D+00 0.20442967D+05 0.20442967D+05 0.20442967D+05 0.12327800D+01  1  2 12  5  6  2       21 0.263400822340D-03 0.100000000000D+01
0.523498956590D-05 0.000000000000D+00 0.000000000000D+00 0.465142834088D-05 0.000000000000D+00  6 2 -3 25 23 2 -3 4 0.89376519D-02 0.17303808D+00 0.20442967D+05 0.20442967D+05 0.20442967D+05 0.12327800D+01  1  2 12  5  6  2       21 0.125362970690D-03 0.100000000000D+01
-.382941432394D-04 0.000000000000D+00 -.690275877115D-05 0.467364692405D-05 0.000000000000D+00  6 2 -1 25 23 2 -1 4 0.89376519D-02 0.17341316D+00 0.19224706D+05 0.19224706D+05 0.19224706D+05 0.12357208D+01  1  2  5  5  6  2       21 -.193437735219D-02 0.100000000000D+01
-.382941432394D-04 0.000000000000D+00 -.690275877115D-05 0.467364692405D-05 0.000000000000D+00  6 2 -3 25 23 2 -3 4 0.89376519D-02 0.17341316D+00 0.19224706D+05 0.19224706D+05 0.19224706D+05 0.12357208D+01  1  2  5  5  6  2       21 -.919657148521D-03 0.100000000000D+01
0.604133235800D-08 0.000000000000D+00 0.000000000000D+00 0.467364692405D-05 0.288447000523D-08  6 2 -1 25 23 2 -1 4 0.90544423D-02 0.17195846D+00 0.20442967D+05 0.20442967D+05 0.20442967D+05 0.12327800D+01  1  2 11  5  6  2       21 0.304359061003D-06 0.100000000000D+01
0.604133235800D-08 0.000000000000D+00 0.000000000000D+00 0.467364692405D-05 0.288447000523D-08  6 2 -3 25 23 2 -3 4 0.90544423D-02 0.17195846D+00 0.20442967D+05 0.20442967D+05 0.20442967D+05 0.12327800D+01  1  2 11  5  6  2       21 0.144696638855D-06 0.100000000000D+01
0.523498956590D-05 0.000000000000D+00 0.000000000000D+00 0.465142834088D-05 0.000000000000D+00  6 2 1 25 23 2 1 4 0.89376519D-02 0.17303808D+00 0.20442967D+05 0.20442967D+05 0.20442967D+05 0.12327800D+01  1  2 12  6  6  2       21 0.157933325614D-02 0.100000000000D+01
0.523498956590D-05 0.000000000000D+00 0.000000000000D+00 0.465142834088D-05 0.000000000000D+00  6 2 3 25 23 2 3 4 0.89376519D-02 0.17303808D+00 0.20442967D+05 0.20442967D+05 0.20442967D+05 0.12327800D+01  1  2 12  6  6  2       21 0.125981105279D-03 0.100000000000D+01
-.382941432394D-04 0.000000000000D+00 -.690275877115D-05 0.467364692405D-05 0.000000000000D+00  6 2 1 25 23 2 1 4 0.89376519D-02 0.17341316D+00 0.19224706D+05 0.19224706D+05 0.19224706D+05 0.12357208D+01  1  2  5  6  6  2       21 -.116213612689D-01 0.100000000000D+01
-.382941432394D-04 0.000000000000D+00 -.690275877115D-05 0.467364692405D-05 0.000000000000D+00  6 2 3 25 23 2 3 4 0.89376519D-02 0.17341316D+00 0.19224706D+05 0.19224706D+05 0.19224706D+05 0.12357208D+01  1  2  5  6  6  2       21 -.924205549574D-03 0.100000000000D+01
0.606569961807D-08 0.000000000000D+00 0.000000000000D+00 0.467364692405D-05 0.289610429823D-08  6 2 1 25 23 2 1 4 0.90544423D-02 0.17195846D+00 0.20442967D+05 0.20442967D+05 0.20442967D+05 0.12327800D+01  1  2 11  6  6  2       21 0.182118446702D-05 0.100000000000D+01
0.606569961807D-08 0.000000000000D+00 0.000000000000D+00 0.467364692405D-05 0.289610429823D-08  6 2 3 25 23 2 3 4 0.90544423D-02 0.17195846D+00 0.20442967D+05 0.20442967D+05 0.20442967D+05 0.12327800D+01  1  2 11  6  6  2       21 0.145989233429D-06 0.100000000000D+01
0.523498956590D-05 0.000000000000D+00 0.000000000000D+00 0.465142834088D-05 0.000000000000D+00  6 2 -2 25 23 2 -2 4 0.89376519D-02 0.17303808D+00 0.20442967D+05 0.20442967D+05 0.20442967D+05 0.12327800D+01  1  2 12  7  6  2       21 0.193882895213D-03 0.100000000000D+01
-.382941432394D-04 0.000000000000D+00 -.690275877115D-05 0.467364692405D-05 0.000000000000D+00  6 2 -2 25 23 2 -2 4 0.89376519D-02 0.17341316D+00 0.19224706D+05 0.19224706D+05 0.19224706D+05 0.12357208D+01  1  2  5  7  6  2       21 -.142342584290D-02 0.100000000000D+01
0.839048598165D-08 0.000000000000D+00 0.000000000000D+00 0.467364692405D-05 0.998280249743D-08  6 2 -2 25 23 2 -2 4 0.90544423D-02 0.17195846D+00 0.20442967D+05 0.20442967D+05 0.20442967D+05 0.12327800D+01  1  2 11  7  6  2       21 0.310954422971D-06 0.100000000000D+01
0.523498956590D-05 0.000000000000D+00 0.000000000000D+00 0.465142834088D-05 0.000000000000D+00  6 2 2 25 23 2 2 4 0.89376519D-02 0.17303808D+00 0.20442967D+05 0.20442967D+05 0.20442967D+05 0.12327800D+01  1  2 12  8  6  2       21 0.303737662504D-02 0.100000000000D+01
-.382941432394D-04 0.000000000000D+00 -.690275877115D-05 0.467364692405D-05 0.000000000000D+00  6 2 2 25 23 2 2 4 0.89376519D-02 0.17341316D+00 0.19224706D+05 0.19224706D+05 0.19224706D+05 0.12357208D+01  1  2  5  8  6  2       21 -.223580295078D-01 0.100000000000D+01
0.154510028874D-07 0.000000000000D+00 0.000000000000D+00 0.467364692405D-05 0.169540691266D-07  6 2 2 25 23 2 2 4 0.90544423D-02 0.17195846D+00 0.20442967D+05 0.20442967D+05 0.20442967D+05 0.12327800D+01  1  2 11  8  6  2       21 0.890285362488D-05 0.100000000000D+01
0.523498956590D-05 0.000000000000D+00 0.000000000000D+00 0.465142834088D-05 0.000000000000D+00  6 2 -4 25 23 2 -4 4 0.89376519D-02 0.17303808D+00 0.20442967D+05 0.20442967D+05 0.20442967D+05 0.12327800D+01  1  2 12  9  6  2       21 0.973695861389D-04 0.100000000000D+01
-.382941432394D-04 0.000000000000D+00 -.690275877115D-05 0.467364692405D-05 0.000000000000D+00  6 2 -4 25 23 2 -4 4 0.89376519D-02 0.17341316D+00 0.19224706D+05 0.19224706D+05 0.19224706D+05 0.12357208D+01  1  2  5  9  6  2       21 -.713798677192D-03 0.100000000000D+01
0.598671950867D-08 0.000000000000D+00 0.000000000000D+00 0.467364692405D-05 0.285839477605D-08  6 2 -4 25 23 2 -4 4 0.90544423D-02 0.17195846D+00 0.20442967D+05 0.20442967D+05 0.20442967D+05 0.12327800D+01  1  2 11  9  6  2       21 0.111420818459D-06 0.100000000000D+01
0.523498956590D-05 0.000000000000D+00 0.000000000000D+00 0.465142834088D-05 0.000000000000D+00  6 2 4 25 23 2 4 4 0.89376519D-02 0.17303808D+00 0.20442967D+05 0.20442967D+05 0.20442967D+05 0.12327800D+01  1  2 12 10  6  2       21 0.973695861389D-04 0.100000000000D+01
-.382941432394D-04 0.000000000000D+00 -.690275877115D-05 0.467364692405D-05 0.000000000000D+00  6 2 4 25 23 2 4 4 0.89376519D-02 0.17341316D+00 0.19224706D+05 0.19224706D+05 0.19224706D+05 0.12357208D+01  1  2  5 10  6  2       21 -.713798677192D-03 0.100000000000D+01
0.597261373957D-08 0.000000000000D+00 0.000000000000D+00 0.467364692405D-05 0.285165989284D-08  6 2 4 25 23 2 4 4 0.90544423D-02 0.17195846D+00 0.20442967D+05 0.20442967D+05 0.20442967D+05 0.12327800D+01  1  2 11 10  6  2       21 0.111158291321D-06 0.100000000000D+01
  </mgrwgt>
  </event>
  <event>
  5     66 0.44822969E-03 0.89378695E+02 0.75467711E-02 0.11156326E+00
        2 -1    0    0  502    0 0.00000000E+00 0.00000000E+00 0.94509273E+03 0.94509279E+03 0.32000000E+00 0.0000E+00 0.9000E+01
       21 -1    0    0  501  502 0.00000000E+00 0.00000000E+00 -.61071011E+02 0.61075616E+02 0.75000000E+00 0.0000E+00 0.9000E+01
       25  1    1    2    0    0 -.15089751E+02 -.14535896E+03 0.30277475E+03 0.35868437E+03 0.12500000E+03 0.0000E+00 0.9000E+01
       23  1    1    2    0    0 0.67709434E+02 0.37698468E+02 0.46638370E+03 0.48149221E+03 0.91188000E+02 0.0000E+00 0.9000E+01
        2  1    1    2  501    0 -.52619683E+02 0.10766049E+03 0.11486328E+03 0.16599183E+03 0.32000000E+00 0.0000E+00 0.9000E+01
#aMCatNLO 1  0  0  2  1 0.60036315D+02 0.00000000D+00  -5  6  0 0.00000000D+00 0.00000000D+00 0.00000000D+00 0.00000000D+00 0.00000000D+00
  <mgrwgt>
 0.7193768553D-01   23    2    0
 0.240250103867626D+03 0.000000000000000D+00 0.000000000000000D+00 0.240250103867626D+03
 0.240250103867626D+03 0.000000000000000D+00 0.000000000000000D+00 -.240250103867626D+03
 0.194042494763347D+03 -.150896925778068D+02 -.145359077623092D+03 -.258945844619042D+02
 0.150195443084426D+03 0.677094790508943D+02 0.376983749435717D+02 0.907616590449817D+02
 0.136262269887478D+03 -.526197864730875D+02 0.107660702679521D+03 -.648670745830775D+02
 0.000000000000000D+00 0.000000000000000D+00 0.000000000000000D+00 -.000000000000000D+00
 0.254124691466652D+03 0.000000000000000D+00 0.000000000000000D+00 0.254124691466652D+03
 0.317168107188462D+03 0.000000000000000D+00 0.000000000000000D+00 -.317168107188462D+03
 0.212275343835308D+03 -.275760096457185D+02 -.167346514119544D+03 -.258945844619042D+02
 0.143089747957408D+03 0.586967025031026D+02 0.218275740562108D+02 0.907616590449817D+02
 0.128871223162964D+03 -.607674495709433D+02 0.933132995193868D+02 -.648670745830775D+02
 0.870564836994338D+02 0.296467567135591D+02 0.522056405439465D+02 -.630434157218108D+02
0.471696655907D-05 0.000000000000D+00 0.000000000000D+00 0.727515269039D-07 0.000000000000D+00  6 2 21 25 23 2 21 2 0.14539924D+00 0.93958985D-02 0.46614781D+05 0.46614781D+05 0.46614781D+05 0.11953089D+01  1  2  2  2  6  2       21 0.219433308762D-01 0.100000000000D+01
-.259729774537D-06 0.248921164045D-06 -.952219646445D-08 0.727515269039D-07 0.000000000000D+00  6 2 21 25 23 2 21 4 0.14539924D+00 0.93958985D-02 0.46614781D+05 0.46614781D+05 0.46614781D+05 0.11953089D+01  1  2  3  2  6  2       21 -.172632186163D-02 0.100000000000D+01
0.531114101824D-06 0.000000000000D+00 0.000000000000D+00 0.727515269039D-07 0.000000000000D+00  6 2 21 25 23 2 21 4 0.14539924D+00 0.93958985D-02 0.46614781D+05 0.46614781D+05 0.46614781D+05 0.11953089D+01  1  2 15  2  6  2       21 0.353010696072D-02 0.100000000000D+01
0.897783274167D-05 0.000000000000D+00 0.000000000000D+00 0.713859723567D-07 0.000000000000D+00  6 2 21 25 23 2 21 4 0.14539924D+00 0.12610880D-01 0.60689024D+05 0.60689024D+05 0.60689024D+05 0.11840377D+01  1  2 12  2  6  2       21 0.338007782690D-01 0.100000000000D+01
-.574538401776D-05 0.000000000000D+00 0.000000000000D+00 0.727515269039D-07 0.000000000000D+00  6 2 21 25 23 2 21 4 0.14539924D+00 0.93958985D-02 0.46614781D+05 0.46614781D+05 0.46614781D+05 0.11953089D+01  1  2  4  2  6  2       21 -.381873123750D-01 0.100000000000D+01
-.270283455256D-04 0.000000000000D+00 -.624000641784D-05 0.727515269039D-07 0.000000000000D+00  6 2 21 25 23 2 21 4 0.14539924D+00 0.13093894D-01 0.46614781D+05 0.46614781D+05 0.46614781D+05 0.11953089D+01  1  2  5  2  6  2       21 -.993743602936D-01 0.100000000000D+01
0.233799875317D-04 0.000000000000D+00 0.505401380462D-05 0.727515269039D-07 0.000000000000D+00  6 2 21 25 23 2 21 4 0.14539924D+00 0.93958985D-02 0.46614781D+05 0.46614781D+05 0.46614781D+05 0.11953089D+01  1  2  6  2  6  2       21 0.155397599958D+00 0.100000000000D+01
0.825484605496D-06 0.000000000000D+00 0.000000000000D+00 0.713859723567D-07 0.000000000000D+00  6 2 -1 25 23 2 -1 4 0.14539924D+00 0.12610880D-01 0.60689024D+05 0.60689024D+05 0.60689024D+05 0.11840377D+01  1  2 12  5  6  2       21 0.222522293402D-03 0.100000000000D+01
0.825484605496D-06 0.000000000000D+00 0.000000000000D+00 0.713859723567D-07 0.000000000000D+00  6 2 -3 25 23 2 -3 4 0.14539924D+00 0.12610880D-01 0.60689024D+05 0.60689024D+05 0.60689024D+05 0.11840377D+01  1  2 12  5  6  2       21 0.145423174595D-03 0.100000000000D+01
-.264247672901D-05 0.000000000000D+00 -.665135988055D-06 0.727515269039D-07 0.000000000000D+00  6 2 -1 25 23 2 -1 4 0.14539924D+00 0.13093894D-01 0.46614781D+05 0.46614781D+05 0.46614781D+05 0.11953089D+01  1  2  5  5  6  2       21 -.697690795990D-03 0.100000000000D+01
-.264247672901D-05 0.000000000000D+00 -.665135988055D-06 0.727515269039D-07 0.000000000000D+00  6 2 -3 25 23 2 -3 4 0.14539924D+00 0.13093894D-01 0.46614781D+05 0.46614781D+05 0.46614781D+05 0.11953089D+01  1  2  5  5  6  2       21 -.451258157419D-03 0.100000000000D+01
0.825484605496D-06 0.000000000000D+00 0.000000000000D+00 0.713859723567D-07 0.000000000000D+00  6 2 1 25 23 2 1 4 0.14539924D+00 0.12610880D-01 0.60689024D+05 0.60689024D+05 0.60689024D+05 0.11840377D+01  1  2 12  6  6  2       21 0.293050687324D-03 0.100000000000D+01
0.825484605496D-06 0.000000000000D+00 0.000000000000D+00 0.713859723567D-07 0.000000000000D+00  6 2 3 25 23 2 3 4 0.14539924D+00 0.12610880D-01 0.60689024D+05 0.60689024D+05 0.60689024D+05 0.11840377D+01  1  2 12  6  6  2       21 0.145406657864D-03 0.100000000000D+01
-.264247672901D-05 0.000000000000D+00 -.665135988055D-06 0.727515269039D-07 0.000000000000D+00  6 2 1 25 23 2 1 4 0.14539924D+00 0.13093894D-01 0.46614781D+05 0.46614781D+05 0.46614781D+05 0.11953089D+01  1  2  5  6  6  2       21 -.927544550602D-03 0.100000000000D+01
-.264247672901D-05 0.000000000000D+00 -.665135988055D-06 0.727515269039D-07 0.000000000000D+00  6 2 3 25 23 2 3 4 0.14539924D+00 0.13093894D-01 0.46614781D+05 0.46614781D+05 0.46614781D+05 0.11953089D+01  1  2  5  6  6  2       21 -.451205895982D-03 0.100000000000D+01
0.825484605496D-06 0.000000000000D+00 0.000000000000D+00 0.713859723567D-07 0.000000000000D+00  6 2 -2 25 23 2 -2 4 0.14539924D+00 0.12610880D-01 0.60689024D+05 0.60689024D+05 0.60689024D+05 0.11840377D+01  1  2 12  7  6  2       21 0.210393998831D-03 0.100000000000D+01
-.264247672901D-05 0.000000000000D+00 -.665135988055D-06 0.727515269039D-07 0.000000000000D+00  6 2 -2 25 23 2 -2 4 0.14539924D+00 0.13093894D-01 0.46614781D+05 0.46614781D+05 0.46614781D+05 0.11953089D+01  1  2  5  7  6  2       21 -.658152254315D-03 0.100000000000D+01
0.825484605496D-06 0.000000000000D+00 0.000000000000D+00 0.713859723567D-07 0.000000000000D+00  6 2 2 25 23 2 2 4 0.14539924D+00 0.12610880D-01 0.60689024D+05 0.60689024D+05 0.60689024D+05 0.11840377D+01  1  2 12  8  6  2       21 0.341559858355D-03 0.100000000000D+01
-.264247672901D-05 0.000000000000D+00 -.665135988055D-06 0.727515269039D-07 0.000000000000D+00  6 2 2 25 23 2 2 4 0.14539924D+00 0.13093894D-01 0.46614781D+05 0.46614781D+05 0.46614781D+05 0.11953089D+01  1  2  5  8  6  2       21 -.108565532689D-02 0.100000000000D+01
0.825484605496D-06 0.000000000000D+00 0.000000000000D+00 0.713859723567D-07 0.000000000000D+00  6 2 -4 25 23 2 -4 4 0.14539924D+00 0.12610880D-01 0.60689024D+05 0.60689024D+05 0.60689024D+05 0.11840377D+01  1  2 12  9  6  2       21 0.127385022839D-03 0.100000000000D+01
-.264247672901D-05 0.000000000000D+00 -.665135988055D-06 0.727515269039D-07 0.000000000000D+00  6 2 -4 25 23 2 -4 4 0.14539924D+00 0.13093894D-01 0.46614781D+05 0.46614781D+05 0.46614781D+05 0.11953089D+01  1  2  5  9  6  2       21 -.393877868124D-03 0.100000000000D+01
0.825484605496D-06 0.000000000000D+00 0.000000000000D+00 0.713859723567D-07 0.000000000000D+00  6 2 4 25 23 2 4 4 0.14539924D+00 0.12610880D-01 0.60689024D+05 0.60689024D+05 0.60689024D+05 0.11840377D+01  1  2 12 10  6  2       21 0.127385022839D-03 0.100000000000D+01
-.264247672901D-05 0.000000000000D+00 -.665135988055D-06 0.727515269039D-07 0.000000000000D+00  6 2 4 25 23 2 4 4 0.14539924D+00 0.13093894D-01 0.46614781D+05 0.46614781D+05 0.46614781D+05 0.11953089D+01  1  2  5 10  6  2       21 -.393877868124D-03 0.100000000000D+01
  </mgrwgt>
  </event>
  <event>
  6     66 -.44822969E-03 0.26997774E+02 0.75467711E-02 0.11594217E+00
        2 -1    0    0  503    0 0.00000000E+00 0.00000000E+00 0.45022493E+03 0.45022505E+03 0.32000000E+00 0.0000E+00 0.9000E+01
       21 -1    0    0  501  502 0.00000000E+00 0.00000000E+00 -.12194884E+03 0.12195115E+03 0.75000000E+00 0.0000E+00 0.9000E+01
       25  1    1    2    0    0 0.46772762E+02 0.13693739E+03 0.21492664E+03 0.28767690E+03 0.12500000E+03 0.0000E+00 0.9000E+01
       23  1    1    2    0    0 -.51235065E+02 -.10521905E+03 0.15499172E+03 0.21455481E+03 0.91188000E+02 0.0000E+00 0.9000E+01
        2  1    1    2  501    0 -.29901162E+01 -.30618575E+02 -.49975266E+02 0.58686179E+02 0.32000000E+00 0.0000E+00 0.9000E+01
       21  1    1    2  503  502 0.74524200E+01 -.10997623E+01 0.83329992E+01 0.11258304E+02 0.75000000E+00 0.0000E+00 0.9000E+01
#aMCatNLO 2  0  0  1  2 0.75331295D+01 0.00000000D+00  -5  6  0 0.00000000D+00 0.00000000D+00 0.00000000D+00 0.00000000D+00 0.00000000D+00
  <mgrwgt>
 -.3138399795D+00    3    2    0
 0.230330496147784D+03 0.000000000000000D+00 0.000000000000000D+00 0.230330496147784D+03
 0.230330496147784D+03 0.000000000000000D+00 0.000000000000000D+00 -.230330496147784D+03
 0.201442816435380D+03 0.500277259449318D+02 0.136457114681172D+03 0.618941902207818D+02
 0.153025752152918D+03 -.487551230830104D+02 -.105584975924337D+03 0.397036561311907D+02
 0.106192423707270D+03 -.127260286192136D+01 -.308721387568351D+02 -.101597846351972D+03
 0.000000000000000D+00 0.000000000000000D+00 -.000000000000000D+00 0.000000000000000D+00
 0.235466865680264D+03 0.000000000000000D+00 0.000000000000000D+00 0.235466865680264D+03
 0.233140020593513D+03 0.000000000000000D+00 0.000000000000000D+00 -.233140020593513D+03
 0.200986189187727D+03 0.467727623837752D+02 0.136937453459999D+03 0.618941902207818D+02
 0.153582886659323D+03 -.512350634772779D+02 -.105219008220502D+03 0.397036561311907D+02
 0.106153506477117D+03 -.299011888450496D+01 -.306186829090499D+02 -.101597846351972D+03
 0.788430394960891D+01 0.745241997800767D+01 -.109976233044763D+01 0.232684508675142D+01
-.458152580913D-04 0.000000000000D+00 0.000000000000D+00 0.796560404885D-06 0.000000000000D+00  6 2 21 25 23 2 21 4 0.69666325D-01 0.18534045D-01 0.35697986D+05 0.35697986D+05 0.35697986D+05 0.12070510D+01  1  2 13  1  6  1        2 -.225051109584D+00 0.100000000000D+01
-.837751636439D-04 0.000000000000D+00 0.000000000000D+00 0.798930588450D-06 0.000000000000D+00  6 2 21 25 23 2 21 4 0.67749479D-01 0.18534045D-01 0.34295740D+05 0.34295740D+05 0.34295740D+05 0.12088455D+01  1  2  8  1  6  1        2 -.426968244769D+00 0.100000000000D+01
0.699612774074D-04 0.000000000000D+00 0.000000000000D+00 0.798930588450D-06 0.109597699127D-06  6 2 21 25 23 2 21 4 0.69260292D-01 0.18760119D-01 0.35697986D+05 0.35697986D+05 0.35697986D+05 0.12070510D+01  1  2  1  1  6  1        2 0.338179374808D+00 0.100000000000D+01
  </mgrwgt>
  </event>
  <event>
  5     66 0.44822969E-03 0.97374568E+02 0.75467711E-02 0.11310776E+00
        2 -1    0    0  502    0 0.00000000E+00 0.00000000E+00 0.27046681E+04 0.27046681E+04 0.32000000E+00 0.0000E+00 0.9000E+01
       21 -1    0    0  501  502 0.00000000E+00 0.00000000E+00 -.14605010E+02 0.14624254E+02 0.75000000E+00 0.0000E+00 0.9000E+01
       25  1    1    2    0    0 0.16386564E+02 0.25306886E+01 0.71488208E+03 0.72591756E+03 0.12500000E+03 0.0000E+00 0.9000E+01
       23  1    1    2    0    0 -.45785072E+02 -.11230625E+03 0.97114192E+03 0.98292464E+03 0.91188000E+02 0.0000E+00 0.9000E+01
        2  1    1    2  501    0 0.29398508E+02 0.10977556E+03 0.10040391E+04 0.10104502E+04 0.32000000E+00 0.0000E+00 0.9000E+01
#aMCatNLO 1  0  0  2  1 0.52761587D+02 0.00000000D+00  -5  6  0 0.00000000D+00 0.00000000D+00 0.00000000D+00 0.00000000D+00 0.00000000D+00
  <mgrwgt>
 0.4658429549D-01   32    2    0
 0.198816236793814D+03 0.000000000000000D+00 0.000000000000000D+00 0.198816236793814D+03
 0.198816236793814D+03 0.000000000000000D+00 0.000000000000000D+00 -.198816236793814D+03
 0.128018223105107D+03 0.163865288779341D+02 0.253055781792769D+01 -.221075415967451D+02
 0.151965689082069D+03 -.457851136792680D+02 -.112306404820586D+03 -.832550994468935D+01
 0.117648561400452D+03 0.293985848013339D+02 0.109775847002659D+03 0.304330515414345D+02
 0.000000000000000D+00 0.000000000000000D+00 0.000000000000000D+00 -.000000000000000D+00
 0.212319100073465D+03 0.000000000000000D+00 0.000000000000000D+00 0.212319100073465D+03
 0.259736544436811D+03 0.000000000000000D+00 0.000000000000000D+00 -.259736544436811D+03
 0.126963441721118D+03 -.455833036288652D+00 0.240090700839234D+01 -.221075415967451D+02
 0.159487366460477D+03 -.663575932115240D+02 -.112464769700708D+03 -.832550994468935D+01
 0.114666841760237D+03 0.140534026254018D+02 0.109657721332298D+03 0.304330515414345D+02
 0.709379945684447D+02 0.527600236224108D+02 0.406141360017525D+00 -.474174443633461D+02
0.292174577390D-05 0.000000000000D+00 0.000000000000D+00 0.840551596538D-07 0.000000000000D+00  6 2 21 25 23 2 21 2 0.41610427D+00 0.22484064D-02 0.38313481D+05 0.38313481D+05 0.38313481D+05 0.12039047D+01  1  2  2  2  6  2       21 0.174180480706D-01 0.100000000000D+01
-.292078075938D-06 0.154184760476D-06 -.589816292524D-08 0.840551596538D-07 0.000000000000D+00  6 2 21 25 23 2 21 4 0.41610427D+00 0.22484064D-02 0.38313481D+05 0.38313481D+05 0.38313481D+05 0.12039047D+01  1  2  3  2  6  2       21 -.252371475070D-02 0.100000000000D+01
0.308703572750D-06 0.000000000000D+00 0.000000000000D+00 0.840551596538D-07 0.000000000000D+00  6 2 21 25 23 2 21 4 0.41610427D+00 0.22484064D-02 0.38313481D+05 0.38313481D+05 0.38313481D+05 0.12039047D+01  1  2 15  2  6  2       21 0.266736816052D-02 0.100000000000D+01
0.456742293641D-05 0.000000000000D+00 0.000000000000D+00 0.824294524892D-07 0.000000000000D+00  6 2 21 25 23 2 21 4 0.41610427D+00 0.29962570D-02 0.50088670D+05 0.50088670D+05 0.50088670D+05 0.11922056D+01  1  2 12  2  6  2       21 0.234135489468D-01 0.100000000000D+01
0.391939473343D-05 0.000000000000D+00 0.000000000000D+00 0.824294524892D-07 0.000000000000D+00  6 2 21 25 23 2 21 4 0.41610427D+00 0.31289225D-02 0.50088670D+05 0.50088670D+05 0.50088670D+05 0.11922056D+01  1  2 12  2  6  2       21 0.186957753057D-01 0.100000000000D+01
-.573172874166D-05 0.000000000000D+00 0.000000000000D+00 0.840551596538D-07 0.000000000000D+00  6 2 21 25 23 2 21 4 0.41610427D+00 0.22484064D-02 0.38313481D+05 0.38313481D+05 0.38313481D+05 0.12039047D+01  1  2  4  2  6  2       21 -.495252795880D-01 0.100000000000D+01
-.149777148323D-04 0.000000000000D+00 -.379494590232D-05 0.840551596538D-07 0.000000000000D+00  6 2 21 25 23 2 21 4 0.41610427D+00 0.32006503D-02 0.38313481D+05 0.38313481D+05 0.38313481D+05 0.12039047D+01  1  2  5  2  6  2       21 -.723228637213D-01 0.100000000000D+01
0.127414783309D-04 0.000000000000D+00 0.299313246033D-05 0.840551596538D-07 0.000000000000D+00  6 2 21 25 23 2 21 4 0.41610427D+00 0.22484064D-02 0.38313481D+05 0.38313481D+05 0.38313481D+05 0.12039047D+01  1  2  6  2  6  2       21 0.110093360161D+00 0.100000000000D+01
0.407452815338D-06 0.000000000000D+00 0.000000000000D+00 0.824294524892D-07 0.000000000000D+00  6 2 -1 25 23 2 -1 4 0.41610427D+00 0.29962570D-02 0.50088670D+05 0.50088670D+05 0.50088670D+05 0.11922056D+01  1  2 12  5  6  2       21 0.110025405540D-03 0.100000000000D+01
0.407452815338D-06 0.000000000000D+00 0.000000000000D+00 0.824294524892D-07 0.000000000000D+00  6 2 -3 25 23 2 -3 4 0.41610427D+00 0.29962570D-02 0.50088670D+05 0.50088670D+05 0.50088670D+05 0.11922056D+01  1  2 12  5  6  2       21 0.837390696669D-04 0.100000000000D+01
0.415605076499D-06 0.000000000000D+00 0.000000000000D+00 0.824294524892D-07 0.000000000000D+00  6 2 -1 25 23 2 -1 4 0.41610427D+00 0.31289225D-02 0.50088670D+05 0.50088670D+05 0.50088670D+05 0.11922056D+01  1  2 12  5  6  2       21 0.105278686112D-03 0.100000000000D+01
0.415605076499D-06 0.000000000000D+00 0.000000000000D+00 0.824294524892D-07 0.000000000000D+00  6 2 -3 25 23 2 -3 4 0.41610427D+00 0.31289225D-02 0.50088670D+05 0.50088670D+05 0.50088670D+05 0.11922056D+01  1  2 12  5  6  2       21 0.798225106703D-04 0.100000000000D+01
-.157860322044D-05 0.000000000000D+00 -.436500659071D-06 0.840551596538D-07 0.000000000000D+00  6 2 -1 25 23 2 -1 4 0.41610427D+00 0.32006503D-02 0.38313481D+05 0.38313481D+05 0.38313481D+05 0.12039047D+01  1  2  5  5  6  2       21 -.404279675565D-03 0.100000000000D+01
-.157860322044D-05 0.000000000000D+00 -.436500659071D-06 0.840551596538D-07 0.000000000000D+00  6 2 -3 25 23 2 -3 4 0.41610427D+00 0.32006503D-02 0.38313481D+05 0.38313481D+05 0.38313481D+05 0.12039047D+01  1  2  5  5  6  2       21 -.304395239947D-03 0.100000000000D+01
0.407452815338D-06 0.000000000000D+00 0.000000000000D+00 0.824294524892D-07 0.000000000000D+00  6 2 1 25 23 2 1 4 0.41610427D+00 0.29962570D-02 0.50088670D+05 0.50088670D+05 0.50088670D+05 0.11922056D+01  1  2 12  6  6  2       21 0.118276968233D-03 0.100000000000D+01
0.407452815338D-06 0.000000000000D+00 0.000000000000D+00 0.824294524892D-07 0.000000000000D+00  6 2 3 25 23 2 3 4 0.41610427D+00 0.29962570D-02 0.50088670D+05 0.50088670D+05 0.50088670D+05 0.11922056D+01  1  2 12  6  6  2       21 0.837333035269D-04 0.100000000000D+01
0.415605076499D-06 0.000000000000D+00 0.000000000000D+00 0.824294524892D-07 0.000000000000D+00  6 2 1 25 23 2 1 4 0.41610427D+00 0.31289225D-02 0.50088670D+05 0.50088670D+05 0.50088670D+05 0.11922056D+01  1  2 12  6  6  2       21 0.113526570527D-03 0.100000000000D+01
0.415605076499D-06 0.000000000000D+00 0.000000000000D+00 0.824294524892D-07 0.000000000000D+00  6 2 3 25 23 2 3 4 0.41610427D+00 0.31289225D-02 0.50088670D+05 0.50088670D+05 0.50088670D+05 0.11922056D+01  1  2 12  6  6  2       21 0.798168671077D-04 0.100000000000D+01
-.157860322044D-05 0.000000000000D+00 -.436500659071D-06 0.840551596538D-07 0.000000000000D+00  6 2 1 25 23 2 1 4 0.41610427D+00 0.32006503D-02 0.38313481D+05 0.38313481D+05 0.38313481D+05 0.12039047D+01  1  2  5  6  6  2       21 -.436824459290D-03 0.100000000000D+01
-.157860322044D-05 0.000000000000D+00 -.436500659071D-06 0.840551596538D-07 0.000000000000D+00  6 2 3 25 23 2 3 4 0.41610427D+00 0.32006503D-02 0.38313481D+05 0.38313481D+05 0.38313481D+05 0.12039047D+01  1  2  5  6  6  2       21 -.304372978322D-03 0.100000000000D+01
0.407452815338D-06 0.000000000000D+00 0.000000000000D+00 0.824294524892D-07 0.000000000000D+00  6 2 -2 25 23 2 -2 4 0.41610427D+00 0.29962570D-02 0.50088670D+05 0.50088670D+05 0.50088670D+05 0.11922056D+01  1  2 12  7  6  2       21 0.108551232257D-03 0.100000000000D+01
0.415605076499D-06 0.000000000000D+00 0.000000000000D+00 0.824294524892D-07 0.000000000000D+00  6 2 -2 25 23 2 -2 4 0.41610427D+00 0.31289225D-02 0.50088670D+05 0.50088670D+05 0.50088670D+05 0.11922056D+01  1  2 12  7  6  2       21 0.103806696558D-03 0.100000000000D+01
-.157860322044D-05 0.000000000000D+00 -.436500659071D-06 0.840551596538D-07 0.000000000000D+00  6 2 -2 25 23 2 -2 4 0.41610427D+00 0.32006503D-02 0.38313481D+05 0.38313481D+05 0.38313481D+05 0.12039047D+01  1  2  5  7  6  2       21 -.398470466088D-03 0.100000000000D+01
0.407452815338D-06 0.000000000000D+00 0.000000000000D+00 0.824294524892D-07 0.000000000000D+00  6 2 2 25 23 2 2 4 0.41610427D+00 0.29962570D-02 0.50088670D+05 0.50088670D+05 0.50088670D+05 0.11922056D+01  1  2 12  8  6  2       21 0.123899802412D-03 0.100000000000D+01
0.415605076499D-06 0.000000000000D+00 0.000000000000D+00 0.824294524892D-07 0.000000000000D+00  6 2 2 25 23 2 2 4 0.41610427D+00 0.31289225D-02 0.50088670D+05 0.50088670D+05 0.50088670D+05 0.11922056D+01  1  2 12  8  6  2       21 0.119140361100D-03 0.100000000000D+01
-.157860322044D-05 0.000000000000D+00 -.436500659071D-06 0.840551596538D-07 0.000000000000D+00  6 2 2 25 23 2 2 4 0.41610427D+00 0.32006503D-02 0.38313481D+05 0.38313481D+05 0.38313481D+05 0.12039047D+01  1  2  5  8  6  2       21 -.458945996888D-03 0.100000000000D+01
0.407452815338D-06 0.000000000000D+00 0.000000000000D+00 0.824294524892D-07 0.000000000000D+00  6 2 -4 25 23 2 -4 4 0.41610427D+00 0.29962570D-02 0.50088670D+05 0.50088670D+05 0.50088670D+05 0.11922056D+01  1  2 12  9  6  2       21 0.761431615554D-04 0.100000000000D+01
0.415605076499D-06 0.000000000000D+00 0.000000000000D+00 0.824294524892D-07 0.000000000000D+00  6 2 -4 25 23 2 -4 4 0.41610427D+00 0.31289225D-02 0.50088670D+05 0.50088670D+05 0.50088670D+05 0.11922056D+01  1  2 12  9  6  2       21 0.725166631074D-04 0.100000000000D+01
-.157860322044D-05 0.000000000000D+00 -.436500659071D-06 0.840551596538D-07 0.000000000000D+00  6 2 -4 25 23 2 -4 4 0.41610427D+00 0.32006503D-02 0.38313481D+05 0.38313481D+05 0.38313481D+05 0.12039047D+01  1  2  5  9  6  2       21 -.275797700989D-03 0.100000000000D+01
0.407452815338D-06 0.000000000000D+00 0.000000000000D+00 0.824294524892D-07 0.000000000000D+00  6 2 4 25 23 2 4 4 0.41610427D+00 0.29962570D-02 0.50088670D+05 0.50088670D+05 0.50088670D+05 0.11922056D+01  1  2 12 10  6  2       21 0.761431615554D-04 0.100000000000D+01
0.415605076499D-06 0.000000000000D+00 0.000000000000D+00 0.824294524892D-07 0.000000000000D+00  6 2 4 25 23 2 4 4 0.41610427D+00 0.31289225D-02 0.50088670D+05 0.50088670D+05 0.50088670D+05 0.11922056D+01  1  2 12 10  6  2       21 0.725166631074D-04 0.100000000000D+01
-.157860322044D-05 0.000000000000D+00 -.436500659071D-06 0.840551596538D-07 0.000000000000D+00  6 2 4 25 23 2 4 4 0.41610427D+00 0.32006503D-02 0.38313481D+05 0.38313481D+05 0.38313481D+05 0.12039047D+01  1  2  5 10  6  2       21 -.275797700989D-03 0.100000000000D+01
  </mgrwgt>
  </event>
  <event>
  5     66 0.44822969E-03 0.25270137E+02 0.75467711E-02 0.11143441E+00
        2 -1    0    0  502    0 0.00000000E+00 0.00000000E+00 0.29414926E+04 0.29414926E+04 0.32000000E+00 0.0000E+00 0.9000E+01
       21 -1    0    0  501  502 0.00000000E+00 0.00000000E+00 -.38138834E+02 0.38146207E+02 0.75000000E+00 0.0000E+00 0.9000E+01
       25  1    1    2    0    0 0.46029190E+02 0.21573762E+03 0.19707931E+04 0.19870360E+04 0.12500000E+03 0.0000E+00 0.9000E+01
       23  1    1    2    0    0 -.30956738E+02 -.19545465E+03 0.94104781E+03 0.96594362E+03 0.91188000E+02 0.0000E+00 0.9000E+01
        2  1    1    2  501    0 -.15072452E+02 -.20282971E+02 -.84872082E+01 0.26659198E+02 0.32000000E+00 0.0000E+00 0.9000E+01
#aMCatNLO 1  0  0  5  1 0.29820752D+00 0.00000000D+00  -5  6  0 0.00000000D+00 0.00000000D+00 0.00000000D+00 0.00000000D+00 0.00000000D+00
  <mgrwgt>
 0.1736200907D+00    7    2    0
 0.334956873514404D+03 0.000000000000000D+00 0.000000000000000D+00 0.334956873514404D+03
 0.334956873514404D+03 -.000000000000000D+00 -.000000000000000D+00 -.334956873514404D+03
 0.296664970673258D+03 0.460292041183966D+02 0.215737637388404D+03 0.154024962284889D+03
 0.217891317600424D+03 -.309567271497971D+02 -.195454633072698D+03 -.736475552158780D+00
 0.155357458755125D+03 -.150724769685995D+02 -.202830043157067D+02 -.153288486732731D+03
 0.000000000000000D+00 -.000000000000000D+00 0.000000000000000D+00 0.000000000000000D+00
 0.334956873514404D+03 0.000000000000000D+00 0.000000000000000D+00 0.334956873514404D+03
 0.334956873514404D+03 -.000000000000000D+00 -.000000000000000D+00 -.334956873514404D+03
 0.296659895122505D+03 0.460284127780572D+02 0.215736572483177D+03 0.154016914280346D+03
 0.217892121846369D+03 -.309573083710383D+02 -.195455415221044D+03 -.742386626012197D+00
 0.152899891839125D+03 -.145581861274542D+02 -.198565002233491D+02 -.150904458317091D+03
 0.246183822080905D+01 -.512918279564636D+00 -.424657038782946D+00 -.237006933724245D+01
0.664825975594D-05 0.000000000000D+00 0.000000000000D+00 0.911280534803D-06 0.000000000000D+00  6 2 21 25 23 2 21 2 0.45253789D+00 0.58680814D-02 0.61679677D+05 0.61679677D+05 0.61679677D+05 0.11833566D+01  1  2  2  3  6  5        2 0.550323979579D-02 0.100000000000D+01
0.215607630972D-05 0.350838306059D-06 -.134209209987D-07 0.911280534803D-06 0.000000000000D+00  6 2 21 25 23 2 21 4 0.45253789D+00 0.58680814D-02 0.61679677D+05 0.61679677D+05 0.61679677D+05 0.11833566D+01  1  2  3  3  6  5        2 0.249922799229D-02 0.100000000000D+01
0.633860887569D-06 0.000000000000D+00 0.000000000000D+00 0.911280534803D-06 0.000000000000D+00  6 2 21 25 23 2 21 4 0.45253789D+00 0.58680814D-02 0.61679677D+05 0.61679677D+05 0.61679677D+05 0.11833566D+01  1  2 15  3  6  5        2 0.734743416217D-03 0.100000000000D+01
-.522595489529D-02 0.000000000000D+00 0.000000000000D+00 0.911280534803D-06 0.000000000000D+00  6 2 21 25 23 2 21 4 0.45253789D+00 0.58680814D-02 0.61679677D+05 0.61679677D+05 0.61679677D+05 0.11833566D+01  1  2  4  3  6  5        2 -.605769503698D+01 0.100000000000D+01
-.105532066172D-01 0.000000000000D+00 0.000000000000D+00 0.911280534803D-06 0.000000000000D+00  6 2 21 25 23 2 21 4 0.45253789D+00 0.58680814D-02 0.61679677D+05 0.61679677D+05 0.61679677D+05 0.11833566D+01  1  2  5  3  6  5        2 -.122328088608D+02 0.100000000000D+01
0.107345244284D-01 0.000000000000D+00 -.000000000000D+00 0.911280534803D-06 0.000000000000D+00  6 2 21 25 23 2 21 4 0.45253789D+00 0.58680814D-02 0.61679677D+05 0.61679677D+05 0.61679677D+05 0.11833566D+01  1  2  6  3  6  5        2 0.124429844223D+02 0.100000000000D+01
0.518695196173D-02 0.000000000000D+00 0.000000000000D+00 0.911280534803D-06 0.373497253722D-04  6 2 21 25 23 2 21 4 0.45253789D+00 0.58680814D-02 0.61683913D+05 0.61683913D+05 0.61683913D+05 0.11833537D+01  1  2 11  3  6  5        2 0.601240235494D+01 0.100000000000D+01
  </mgrwgt>
  </event>
  <event>
  6     66 0.44822969E-03 0.21289384E+02 0.75467711E-02 0.11707584E+00
        2 -1    0    0  502    0 0.00000000E+00 0.00000000E+00 0.58795377E+02 0.58796248E+02 0.32000000E+00 0.0000E+00 0.9000E+01
       21 -1    0    0  501  503 0.00000000E+00 0.00000000E+00 -.21806855E+04 0.21806856E+04 0.75000000E+00 0.0000E+00 0.9000E+01
       25  1    1    2    0    0 0.68898291E+02 -.99961530E+02 -.18263410E+03 0.25242721E+03 0.12500000E+03 0.0000E+00 0.9000E+01
       23  1    1    2    0    0 -.18557628E+02 0.87521195E+02 -.27474445E+03 0.30299193E+03 0.91188000E+02 0.0000E+00 0.9000E+01
        2  1    1    2  501    0 -.19406477E+02 0.64323569E+01 -.12317826E+01 0.20484293E+02 0.32000000E+00 0.0000E+00 0.9000E+01
       21  1    1    2  502  503 -.30934186E+02 0.60079778E+01 -.16632798E+04 0.16635785E+04 0.75000000E+00 0.0000E+00 0.9000E+01
#aMCatNLO 2  0  0  2  2 0.31512214D+02 0.00000000D+00  -5  6  0 0.00000000D+00 0.00000000D+00 0.00000000D+00 0.00000000D+00 0.00000000D+00
  <mgrwgt>
 0.4938179956D-01    1    2    0
 0.173456266890622D+03 0.000000000000000D+00 0.000000000000000D+00 0.173456266890622D+03
 0.173456266890622D+03 0.000000000000000D+00 0.000000000000000D+00 -.173456266890622D+03
 0.169737254098971D+03 0.534764308736416D+02 -.969663827418419D+02 0.303895934167940D+02
 0.142956325829777D+03 -.311118822703735D+02 0.899594098864758D+02 -.553228262584348D+02
 0.342189538524960D+02 -.223645486032681D+02 0.700697285536616D+01 0.249332328416408D+02
 0.000000000000000D+00 -.000000000000000D+00 0.000000000000000D+00 -.000000000000000D+00
 0.174613636250271D+03 0.000000000000000D+00 0.000000000000000D+00 0.174613636250271D+03
 0.734278155204457D+03 0.000000000000000D+00 0.000000000000000D+00 -.734278155204457D+03
 0.176883882111958D+03 0.688987838857108D+02 -.999616823689419D+02 0.303895934167940D+02
 0.139212694670654D+03 -.185572230513832D+02 0.875210682114032D+02 -.553228262584348D+02
 0.322442415884092D+02 -.194073750344410D+02 0.643263631404553D+01 0.249332328416408D+02
 0.560550973083706D+03 -.309341857998867D+02 0.600797784349309D+01 -.559664518954186D+03
0.119782830614D-02 0.000000000000D+00 0.000000000000D+00 0.111254102844D-06 0.175910348666D-07  6 2 21 25 23 2 21 4 0.90455066D-02 0.33548967D+00 0.31321865D+05 0.31321865D+05 0.31321865D+05 0.12129379D+01  1  2  1  2  6  2       21 0.493817995573D-01 0.100000000000D+01
  </mgrwgt>
  </event>
  <event>
  6     66 0.44822969E-03 0.17714678E+03 0.75467711E-02 0.11014094E+00
        2 -1    0    0  502    0 0.00000000E+00 0.00000000E+00 0.30953649E+04 0.30953649E+04 0.32000000E+00 0.0000E+00 0.9000E+01
       21 -1    0    0  501  503 0.00000000E+00 0.00000000E+00 -.66163361E+02 0.66167612E+02 0.75000000E+00 0.0000E+00 0.9000E+01
       25  1    1    2    0    0 -.71250405E+02 0.25601256E+02 0.59274226E+03 0.61049196E+03 0.12500000E+03 0.0000E+00 0.9000E+01
       23  1    1    2    0    0 -.81074442E+02 -.50957298E+02 0.11215585E+04 0.11293266E+04 0.91188000E+02 0.0000E+00 0.9000E+01
        2  1    1    2  501    0 0.19608499E+03 0.60330194E+02 0.13433187E+04 0.13588945E+04 0.32000000E+00 0.0000E+00 0.9000E+01
       21  1    1    2  502  503 -.43760138E+02 -.34974152E+02 -.28417980E+02 0.62819464E+02 0.75000000E+00 0.0000E+00 0.9000E+01
#aMCatNLO 2  0  0  2  1 0.56019113D+02 0.00000000D+00  -5  6  0 0.00000000D+00 0.00000000D+00 0.00000000D+00 0.00000000D+00 0.00000000D+00
  <mgrwgt>
 0.1970487279D-01    3    2    0
 0.249923684471364D+03 0.000000000000000D+00 0.000000000000000D+00 0.249923684471364D+03
 0.249923684471364D+03 0.000000000000000D+00 0.000000000000000D+00 -.249923684471364D+03
 0.163213165259934D+03 -.852575901912013D+02 0.144064241500361D+02 -.594738225790545D+02
 0.151025673263201D+03 -.937516835537434D+02 -.610892105503433D+02 0.444098280313910D+02
 0.185608530419594D+03 0.179009273744945D+03 0.466827864003072D+02 0.150639945476635D+02
 0.000000000000000D+00 -.000000000000000D+00 -.000000000000000D+00 -.000000000000000D+00
 0.252893399152777D+03 0.000000000000000D+00 0.000000000000000D+00 0.252893399152777D+03
 0.809851443865932D+03 0.000000000000000D+00 0.000000000000000D+00 -.809851443865932D+03
 0.157778930584524D+03 -.712504883439613D+02 0.256012358095900D+02 -.594738225790545D+02
 0.139489102078316D+03 -.810745176701682D+02 -.509573156022452D+02 0.444098280313910D+02
 0.205708639985341D+03 0.196085144245792D+03 0.603302315509677D+02 0.150639945476635D+02
 0.559768170370528D+03 -.437601382316629D+02 -.349741517583125D+02 -.556958044713155D+03
-.177876783079D-03 0.000000000000D+00 0.000000000000D+00 0.808360562508D-07 0.000000000000D+00  6 2 21 25 23 2 21 4 0.47061773D+00 0.10144499D-01 0.72777674D+05 0.72777674D+05 0.72777674D+05 0.11764658D+01  1  2 13  2  6  2       21 -.651774163456D-01 0.100000000000D+01
-.177796664981D-03 0.000000000000D+00 0.000000000000D+00 0.808360562508D-07 0.000000000000D+00  6 2 21 25 23 2 21 4 0.47061773D+00 0.10186744D-01 0.72777674D+05 0.72777674D+05 0.72777674D+05 0.11764658D+01  1  2 13  2  6  2       21 -.646673879173D-01 0.100000000000D+01
0.431844180089D-03 0.000000000000D+00 0.000000000000D+00 0.821526691203D-07 0.340808133621D-08  6 2 21 25 23 2 21 4 0.47620984D+00 0.10179297D-01 0.72777674D+05 0.72777674D+05 0.72777674D+05 0.11764658D+01  1  2  1  2  6  2       21 0.149549677052D+00 0.100000000000D+01
  </mgrwgt>
  </event>
  <event>
  5     66 0.44822969E-03 0.12096628E+03 0.75467711E-02 0.11359934E+00
        2 -1    0    0  502    0 0.00000000E+00 0.00000000E+00 0.11717959E+03 0.11718003E+03 0.32000000E+00 0.0000E+00 0.9000E+01
       21 -1    0    0  501  502 0.00000000E+00 0.00000000E+00 -.53701034E+03 0.53701086E+03 0.75000000E+00 0.0000E+00 0.9000E+01
       25  1    1    2    0    0 0.20608819E+02 0.76027928E+02 -.22123179E+02 0.14939680E+03 0.12500000E+03 0.0000E+00 0.9000E+01
       23  1    1    2    0    0 0.91991703E+02 0.30119576E+01 -.65398296E+02 0.14513350E+03 0.91188000E+02 0.0000E+00 0.9000E+01
        2  1    1    2  501    0 -.11260052E+03 -.79039886E+02 -.33230927E+03 0.35966058E+03 0.32000000E+00 0.0000E+00 0.9000E+01
#aMCatNLO 1  0  0  2  1 0.19283103D+02 0.00000000D+00  -5  6  0 0.00000000D+00 0.00000000D+00 0.00000000D+00 0.00000000D+00 0.00000000D+00
  <mgrwgt>
 0.2726366101D-01   23    2    0
 0.250852477607948D+03 0.000000000000000D+00 0.000000000000000D+00 0.250852477607948D+03
 0.250852477607948D+03 0.000000000000000D+00 0.000000000000000D+00 -.250852477607948D+03
 0.176290993304748D+03 0.206088746747200D+02 0.760279669306338D+02 0.961693134498265D+02
 0.134518945414921D+03 0.919917452173193D+02 0.301198738690642D+01 0.361737760732178D+02
 0.190895016496227D+03 -.112600619892039D+03 -.790399543175402D+02 -.132343089523044D+03
 0.000000000000000D+00 0.000000000000000D+00 -.000000000000000D+00 -.000000000000000D+00
 0.254818434046803D+03 0.000000000000000D+00 0.000000000000000D+00 0.254818434046803D+03
 0.275625363721768D+03 0.000000000000000D+00 0.000000000000000D+00 -.275625363721768D+03
 0.179028241043210D+03 0.187970942295495D+02 0.826089794764481D+02 0.961693134498265D+02
 0.133791400063185D+03 0.906236249745009D+02 0.798147279346899D+01 0.361737760732178D+02
 0.189255751798114D+03 -.114539016864768D+03 -.719990267977088D+02 -.132343089523044D+03
 0.283684048640619D+02 0.511829766071731D+01 -.185914254722083D+02 -.208069296749653D+02
0.632451401062D-05 0.000000000000D+00 0.000000000000D+00 0.233774263451D-06 0.000000000000D+00  6 2 21 25 23 2 21 2 0.18027703D-01 0.82617049D-01 0.43032638D+05 0.43032638D+05 0.43032638D+05 0.11987906D+01  1  2  2  2  6  2       21 0.442727976311D-02 0.100000000000D+01
-.267078900614D-06 0.333753773707D-06 -.127673716142D-07 0.233774263451D-06 0.000000000000D+00  6 2 21 25 23 2 21 4 0.18027703D-01 0.82617049D-01 0.43032638D+05 0.43032638D+05 0.43032638D+05 0.11987906D+01  1  2  3  2  6  2       21 -.268680421040D-03 0.100000000000D+01
0.476181332482D-06 0.000000000000D+00 0.000000000000D+00 0.233774263451D-06 0.000000000000D+00  6 2 21 25 23 2 21 4 0.18027703D-01 0.82617049D-01 0.43032638D+05 0.43032638D+05 0.43032638D+05 0.11987906D+01  1  2 15  2  6  2       21 0.479036721391D-03 0.100000000000D+01
0.342675083958D-04 0.000000000000D+00 0.000000000000D+00 0.232217929834D-06 0.000000000000D+00  6 2 21 25 23 2 21 4 0.18027703D-01 0.91387888D-01 0.47172677D+05 0.47172677D+05 0.47172677D+05 0.11947935D+01  1  2 12  2  6  2       21 0.268789650712D-01 0.100000000000D+01
-.277634705610D-04 0.000000000000D+00 0.000000000000D+00 0.233774263451D-06 0.000000000000D+00  6 2 21 25 23 2 21 4 0.18027703D-01 0.82617049D-01 0.43032638D+05 0.43032638D+05 0.43032638D+05 0.11987906D+01  1  2  4  2  6  2       21 -.279299523202D-01 0.100000000000D+01
-.127790217805D-03 0.000000000000D+00 -.183239965942D-04 0.233774263451D-06 0.000000000000D+00  6 2 21 25 23 2 21 4 0.18027703D-01 0.91677624D-01 0.43032638D+05 0.43032638D+05 0.43032638D+05 0.11987906D+01  1  2  5  2  6  2       21 -.101155317158D+00 0.100000000000D+01
0.126639564722D-03 0.000000000000D+00 0.179331446878D-04 0.233774263451D-06 0.000000000000D+00  6 2 21 25 23 2 21 4 0.18027703D-01 0.82617049D-01 0.43032638D+05 0.43032638D+05 0.43032638D+05 0.11987906D+01  1  2  6  2  6  2       21 0.127398950242D+00 0.100000000000D+01
0.884376677778D-06 0.000000000000D+00 0.000000000000D+00 0.232217929834D-06 0.000000000000D+00  6 2 -1 25 23 2 -1 4 0.18027703D-01 0.91387888D-01 0.47172677D+05 0.47172677D+05 0.47172677D+05 0.11947935D+01  1  2 12  5  6  2       21 0.793653814079D-04 0.100000000000D+01
0.884376677778D-06 0.000000000000D+00 0.000000000000D+00 0.232217929834D-06 0.000000000000D+00  6 2 -3 25 23 2 -3 4 0.18027703D-01 0.91387888D-01 0.47172677D+05 0.47172677D+05 0.47172677D+05 0.11947935D+01  1  2 12  5  6  2       21 0.380116068995D-04 0.100000000000D+01
-.314561964912D-05 0.000000000000D+00 -.489716933357D-06 0.233774263451D-06 0.000000000000D+00  6 2 -1 25 23 2 -1 4 0.18027703D-01 0.91677624D-01 0.43032638D+05 0.43032638D+05 0.43032638D+05 0.11987906D+01  1  2  5  5  6  2       21 -.284217405829D-03 0.100000000000D+01
-.314561964912D-05 0.000000000000D+00 -.489716933357D-06 0.233774263451D-06 0.000000000000D+00  6 2 -3 25 23 2 -3 4 0.18027703D-01 0.91677624D-01 0.43032638D+05 0.43032638D+05 0.43032638D+05 0.11987906D+01  1  2  5  5  6  2       21 -.135802632846D-03 0.100000000000D+01
0.884376677778D-06 0.000000000000D+00 0.000000000000D+00 0.232217929834D-06 0.000000000000D+00  6 2 1 25 23 2 1 4 0.18027703D-01 0.91387888D-01 0.47172677D+05 0.47172677D+05 0.47172677D+05 0.11947935D+01  1  2 12  6  6  2       21 0.272951541989D-03 0.100000000000D+01
0.884376677778D-06 0.000000000000D+00 0.000000000000D+00 0.232217929834D-06 0.000000000000D+00  6 2 3 25 23 2 3 4 0.18027703D-01 0.91387888D-01 0.47172677D+05 0.47172677D+05 0.47172677D+05 0.11947935D+01  1  2 12  6  6  2       21 0.380749172586D-04 0.100000000000D+01
-.314561964912D-05 0.000000000000D+00 -.489716933357D-06 0.233774263451D-06 0.000000000000D+00  6 2 1 25 23 2 1 4 0.18027703D-01 0.91677624D-01 0.43032638D+05 0.43032638D+05 0.43032638D+05 0.11987906D+01  1  2  5  6  6  2       21 -.979638770233D-03 0.100000000000D+01
-.314561964912D-05 0.000000000000D+00 -.489716933357D-06 0.233774263451D-06 0.000000000000D+00  6 2 3 25 23 2 3 4 0.18027703D-01 0.91677624D-01 0.43032638D+05 0.43032638D+05 0.43032638D+05 0.11987906D+01  1  2  5  6  6  2       21 -.136030011703D-03 0.100000000000D+01
0.884376677778D-06 0.000000000000D+00 0.000000000000D+00 0.232217929834D-06 0.000000000000D+00  6 2 -2 25 23 2 -2 4 0.18027703D-01 0.91387888D-01 0.47172677D+05 0.47172677D+05 0.47172677D+05 0.11947935D+01  1  2 12  7  6  2       21 0.597412422708D-04 0.100000000000D+01
-.314561964912D-05 0.000000000000D+00 -.489716933357D-06 0.233774263451D-06 0.000000000000D+00  6 2 -2 25 23 2 -2 4 0.18027703D-01 0.91677624D-01 0.43032638D+05 0.43032638D+05 0.43032638D+05 0.11987906D+01  1  2  5  7  6  2       21 -.213754393666D-03 0.100000000000D+01
0.884376677778D-06 0.000000000000D+00 0.000000000000D+00 0.232217929834D-06 0.000000000000D+00  6 2 2 25 23 2 2 4 0.18027703D-01 0.91387888D-01 0.47172677D+05 0.47172677D+05 0.47172677D+05 0.11947935D+01  1  2 12  8  6  2       21 0.442991487910D-03 0.100000000000D+01
-.314561964912D-05 0.000000000000D+00 -.489716933357D-06 0.233774263451D-06 0.000000000000D+00  6 2 2 25 23 2 2 4 0.18027703D-01 0.91677624D-01 0.43032638D+05 0.43032638D+05 0.43032638D+05 0.11987906D+01  1  2  5  8  6  2       21 -.159038150732D-02 0.100000000000D+01
0.884376677778D-06 0.000000000000D+00 0.000000000000D+00 0.232217929834D-06 0.000000000000D+00  6 2 -4 25 23 2 -4 4 0.18027703D-01 0.91387888D-01 0.47172677D+05 0.47172677D+05 0.47172677D+05 0.11947935D+01  1  2 12  9  6  2       21 0.307363931956D-04 0.100000000000D+01
-.314561964912D-05 0.000000000000D+00 -.489716933357D-06 0.233774263451D-06 0.000000000000D+00  6 2 -4 25 23 2 -4 4 0.18027703D-01 0.91677624D-01 0.43032638D+05 0.43032638D+05 0.43032638D+05 0.11987906D+01  1  2  5  9  6  2       21 -.109702566651D-03 0.100000000000D+01
0.884376677778D-06 0.000000000000D+00 0.000000000000D+00 0.232217929834D-06 0.000000000000D+00  6 2 4 25 23 2 4 4 0.18027703D-01 0.91387888D-01 0.47172677D+05 0.47172677D+05 0.47172677D+05 0.11947935D+01  1  2 12 10  6  2       21 0.307363931956D-04 0.100000000000D+01
-.314561964912D-05 0.000000000000D+00 -.489716933357D-06 0.233774263451D-06 0.000000000000D+00  6 2 4 25 23 2 4 4 0.18027703D-01 0.91677624D-01 0.43032638D+05 0.43032638D+05 0.43032638D+05 0.11987906D+01  1  2  5 10  6  2       21 -.109702566651D-03 0.100000000000D+01
  </mgrwgt>
  </event>
  <event>
  5     66 0.44822969E-03 0.77660832E+02 0.75467711E-02 0.10650271E+00
        2 -1    0    0  502    0 0.00000000E+00 0.00000000E+00 0.10411508E+04 0.10411509E+04 0.32000000E+00 0.0000E+00 0.9000E+01
       21 -1    0    0  501  502 0.00000000E+00 0.00000000E+00 -.36744465E+02 0.36752118E+02 0.75000000E+00 0.0000E+00 0.9000E+01
       25  1    1    2    0    0 0.51055654E+02 -.30837693E+02 0.56877554E+03 0.58539581E+03 0.12500000E+03 0.0000E+00 0.9000E+01
       23  1    1    2    0    0 0.22398779E+02 0.56049274E+02 0.38395571E+03 0.39922483E+03 0.91188000E+02 0.0000E+00 0.9000E+01
        2  1    1    2  501    0 -.73454433E+02 -.25211581E+02 0.51675113E+02 0.93282353E+02 0.32000000E+00 0.0000E+00 0.9000E+01
#aMCatNLO 1  0  0  2  1 0.82677238D+01 0.00000000D+00  -5  6  0 0.00000000D+00 0.00000000D+00 0.00000000D+00 0.00000000D+00 0.00000000D+00
  <mgrwgt>
 0.5664606106D-01    3    2    0
 0.195603377669666D+03 0.000000000000000D+00 0.000000000000000D+00 0.195603377669666D+03
 0.195603377669666D+03 0.000000000000000D+00 0.000000000000000D+00 -.195603377669666D+03
 0.152651145538728D+03 0.510557487055292D+02 -.308376605412889D+02 0.641850562883909D+02
 0.114205857138964D+03 0.223988504261690D+02 0.560492985989830D+02 0.329316578233423D+02
 0.124349752661639D+03 -.734545991316982D+02 -.252116380576942D+02 -.971167141117332D+02
 0.000000000000000D+00 0.000000000000000D+00 -.000000000000000D+00 0.000000000000000D+00
 0.601424573019408D+03 0.000000000000000D+00 0.000000000000000D+00 0.601424573019408D+03
 0.284910914083085D+03 0.000000000000000D+00 0.000000000000000D+00 -.284910914083085D+03
 0.148809607748116D+03 0.362374353273675D+01 0.488512680512295D+02 0.641850562883909D+02
 0.163025010478603D+03 -.212208108515369D+02 0.129333235470849D+03 0.329316578233423D+02
 0.161153565721583D+03 -.118375852484758D+03 0.502590602123367D+02 -.971167141117332D+02
 0.413347303154192D+03 0.135972919803558D+03 -.228443563734415D+03 0.316513658936323D+03
0.490636512689D-05 0.000000000000D+00 0.000000000000D+00 0.387186153353D-06 0.000000000000D+00  6 2 21 25 23 2 21 2 0.16017764D+00 0.56535871D-02 0.26490351D+05 0.26490351D+05 0.26490351D+05 0.12206106D+01  1  2  2  2  6  2       21 0.504256783739D-01 0.100000000000D+01
-.440257521900D-07 0.258916001062D-06 -.990453760475D-08 0.387186153353D-06 0.000000000000D+00  6 2 21 25 23 2 21 4 0.16017764D+00 0.56535871D-02 0.26490351D+05 0.26490351D+05 0.26490351D+05 0.12206106D+01  1  2  3  2  6  2       21 -.674144471733D-03 0.100000000000D+01
0.450254740448D-06 0.000000000000D+00 0.000000000000D+00 0.387186153353D-06 0.000000000000D+00  6 2 21 25 23 2 21 4 0.16017764D+00 0.56535871D-02 0.26490351D+05 0.26490351D+05 0.26490351D+05 0.12206106D+01  1  2 15  2  6  2       21 0.689452715844D-02 0.100000000000D+01
  </mgrwgt>
  </event>
  <event>
  5     66 0.44822969E-03 0.77710466E+02 0.75467711E-02 0.11853391E+00
        2 -1    0    0  502    0 0.00000000E+00 0.00000000E+00 0.21916536E+02 0.21918872E+02 0.32000000E+00 0.0000E+00 0.9000E+01
       21 -1    0    0  501  502 0.00000000E+00 0.00000000E+00 -.14530397E+04 0.14530399E+04 0.75000000E+00 0.0000E+00 0.9000E+01
       25  1    1    2    0    0 -.55532808E+02 -.25350489E+02 -.56643487E+03 0.58326667E+03 0.12500000E+03 0.0000E+00 0.9000E+01
       23  1    1    2    0    0 -.24804311E+02 0.40162173E+02 -.23143071E+03 0.25318704E+03 0.91188000E+02 0.0000E+00 0.9000E+01
        2  1    1    2  501    0 0.80337118E+02 -.14811684E+02 -.63325755E+03 0.63850503E+03 0.32000000E+00 0.0000E+00 0.9000E+01
#aMCatNLO 1  0  0  2  1 0.24431513D+01 0.00000000D+00  -5  6  0 0.00000000D+00 0.00000000D+00 0.00000000D+00 0.00000000D+00 0.00000000D+00
  <mgrwgt>
 0.1081629846D+00   32    2    0
 0.178458571605715D+03 0.000000000000000D+00 0.000000000000000D+00 0.178458571605715D+03
 0.178458571605715D+03 0.000000000000000D+00 0.000000000000000D+00 -.178458571605715D+03
 0.139125388503495D+03 -.555329696208616D+02 -.253504587924659D+02 -.207779940044386D+01
 0.118331746321594D+03 -.248044485883999D+02 0.401621983751469D+02 0.588123115973078D+02
 0.994600083863411D+02 0.803374182092615D+02 -.148117395826810D+02 -.567345121968639D+02
 0.000000000000000D+00 -.000000000000000D+00 -.000000000000000D+00 -.000000000000000D+00
 0.179403074758694D+03 0.000000000000000D+00 0.000000000000000D+00 0.179403074758694D+03
 0.180049705241491D+03 0.000000000000000D+00 0.000000000000000D+00 -.180049705241491D+03
 0.138721784225454D+03 -.547806977081986D+02 -.247687570731346D+02 -.207779940044386D+01
 0.118368370164409D+03 -.241635824330685D+02 0.406577544874279D+02 0.588123115973078D+02
 0.998353505915658D+02 0.808770108904130D+02 -.143944941889865D+02 -.567345121968639D+02
 0.252727501875623D+01 -.193273074914594D+01 -.149450322530678D+01 -.646630482797342D+00
0.255851594598D-04 0.000000000000D+00 0.000000000000D+00 0.226496951135D-06 0.000000000000D+00  6 2 21 25 23 2 21 2 0.33719694D-02 0.22354476D+00 0.26160298D+05 0.26160298D+05 0.26160298D+05 0.12211909D+01  1  2  2  2  6  2       21 0.118414689507D-01 0.100000000000D+01
-.102527179475D-05 0.135016595841D-05 -.516490655381D-07 0.226496951135D-06 0.000000000000D+00  6 2 21 25 23 2 21 4 0.33719694D-02 0.22354476D+00 0.26160298D+05 0.26160298D+05 0.26160298D+05 0.12211909D+01  1  2  3  2  6  2       21 -.707658253088D-03 0.100000000000D+01
0.216173103652D-05 0.000000000000D+00 0.000000000000D+00 0.226496951135D-06 0.000000000000D+00  6 2 21 25 23 2 21 4 0.33719694D-02 0.22354476D+00 0.26160298D+05 0.26160298D+05 0.26160298D+05 0.12211909D+01  1  2 15  2  6  2       21 0.149205978042D-02 0.100000000000D+01
0.477729461661D-07 0.000000000000D+00 0.000000000000D+00 0.226228715391D-06 0.000000000000D+00  6 2 21 25 23 2 21 4 0.33719694D-02 0.22612523D+00 0.26572453D+05 0.26572453D+05 0.26572453D+05 0.12204676D+01  1  2 12  2  6  2       21 0.317153657237D-04 0.100000000000D+01
-.260108316646D-03 0.000000000000D+00 0.000000000000D+00 0.226496951135D-06 0.000000000000D+00  6 2 21 25 23 2 21 4 0.33719694D-02 0.22354476D+00 0.26160298D+05 0.26160298D+05 0.26160298D+05 0.12211909D+01  1  2  4  2  6  2       21 -.179530733132D+00 0.100000000000D+01
-.477707901268D-02 0.000000000000D+00 -.512964591691D-03 0.226496951135D-06 0.000000000000D+00  6 2 21 25 23 2 21 4 0.33719694D-02 0.22622174D+00 0.26160298D+05 0.26160298D+05 0.26160298D+05 0.12211909D+01  1  2  5  2  6  2       21 -.317709029333D+01 0.100000000000D+01
0.478183039096D-02 0.000000000000D+00 0.512819240855D-03 0.226496951135D-06 0.000000000000D+00  6 2 21 25 23 2 21 4 0.33719694D-02 0.22354476D+00 0.26160298D+05 0.26160298D+05 0.26160298D+05 0.12211909D+01  1  2  6  2  6  2       21 0.330049237513D+01 0.100000000000D+01
0.258634384884D-03 0.000000000000D+00 0.000000000000D+00 0.226496951135D-06 0.388003053904D-06  6 2 21 25 23 2 21 4 0.33898157D-02 0.22553788D+00 0.26572453D+05 0.26572453D+05 0.26572453D+05 0.12204676D+01  1  2 11  2  6  2       21 0.171880158090D+00 0.100000000000D+01
0.475825133174D-08 0.000000000000D+00 0.000000000000D+00 0.226228715391D-06 0.000000000000D+00  6 2 -1 25 23 2 -1 4 0.33719694D-02 0.22612523D+00 0.26572453D+05 0.26572453D+05 0.26572453D+05 0.12204676D+01  1  2 12  5  6  2       21 0.362282880366D-06 0.100000000000D+01
0.475825133174D-08 0.000000000000D+00 0.000000000000D+00 0.226228715391D-06 0.000000000000D+00  6 2 -3 25 23 2 -3 4 0.33719694D-02 0.22612523D+00 0.26572453D+05 0.26572453D+05 0.26572453D+05 0.12204676D+01  1  2 12  5  6  2       21 0.186169735558D-06 0.100000000000D+01
-.115141895612D-04 0.000000000000D+00 -.138122239907D-05 0.226496951135D-06 0.000000000000D+00  6 2 -1 25 23 2 -1 4 0.33719694D-02 0.22622174D+00 0.26160298D+05 0.26160298D+05 0.26160298D+05 0.12211909D+01  1  2  5  5  6  2       21 -.877505165669D-03 0.100000000000D+01
-.115141895612D-04 0.000000000000D+00 -.138122239907D-05 0.226496951135D-06 0.000000000000D+00  6 2 -3 25 23 2 -3 4 0.33719694D-02 0.22622174D+00 0.26160298D+05 0.26160298D+05 0.26160298D+05 0.12211909D+01  1  2  5  5  6  2       21 -.450859405991D-03 0.100000000000D+01
0.210851446393D-05 0.000000000000D+00 0.000000000000D+00 0.226496951135D-06 0.131016550179D-08  6 2 -1 25 23 2 -1 4 0.33898157D-02 0.22553788D+00 0.26572453D+05 0.26572453D+05 0.26572453D+05 0.12204676D+01  1  2 11  5  6  2       21 0.160779477993D-03 0.100000000000D+01
0.210851446393D-05 0.000000000000D+00 0.000000000000D+00 0.226496951135D-06 0.131016550179D-08  6 2 -3 25 23 2 -3 4 0.33898157D-02 0.22553788D+00 0.26572453D+05 0.26572453D+05 0.26572453D+05 0.12204676D+01  1  2 11  5  6  2       21 0.825445588588D-04 0.100000000000D+01
0.475825133174D-08 0.000000000000D+00 0.000000000000D+00 0.226228715391D-06 0.000000000000D+00  6 2 1 25 23 2 1 4 0.33719694D-02 0.22612523D+00 0.26572453D+05 0.26572453D+05 0.26572453D+05 0.12204676D+01  1  2 12  6  6  2       21 0.286159118565D-05 0.100000000000D+01
0.475825133174D-08 0.000000000000D+00 0.000000000000D+00 0.226228715391D-06 0.000000000000D+00  6 2 3 25 23 2 3 4 0.33719694D-02 0.22612523D+00 0.26572453D+05 0.26572453D+05 0.26572453D+05 0.12204676D+01  1  2 12  6  6  2       21 0.187664795583D-06 0.100000000000D+01
-.115141895612D-04 0.000000000000D+00 -.138122239907D-05 0.226496951135D-06 0.000000000000D+00  6 2 1 25 23 2 1 4 0.33719694D-02 0.22622174D+00 0.26160298D+05 0.26160298D+05 0.26160298D+05 0.12211909D+01  1  2  5  6  6  2       21 -.693419260486D-02 0.100000000000D+01
-.115141895612D-04 0.000000000000D+00 -.138122239907D-05 0.226496951135D-06 0.000000000000D+00  6 2 3 25 23 2 3 4 0.33719694D-02 0.22622174D+00 0.26160298D+05 0.26160298D+05 0.26160298D+05 0.12211909D+01  1  2  5  6  6  2       21 -.454482052687D-03 0.100000000000D+01
0.212212401468D-05 0.000000000000D+00 0.000000000000D+00 0.226496951135D-06 0.131862205458D-08  6 2 1 25 23 2 1 4 0.33898157D-02 0.22553788D+00 0.26572453D+05 0.26572453D+05 0.26572453D+05 0.12204676D+01  1  2 11  6  6  2       21 0.127453588202D-02 0.100000000000D+01
0.212212401468D-05 0.000000000000D+00 0.000000000000D+00 0.226496951135D-06 0.131862205458D-08  6 2 3 25 23 2 3 4 0.33898157D-02 0.22553788D+00 0.26572453D+05 0.26572453D+05 0.26572453D+05 0.12204676D+01  1  2 11  6  6  2       21 0.837409934664D-04 0.100000000000D+01
0.475825133174D-08 0.000000000000D+00 0.000000000000D+00 0.226228715391D-06 0.000000000000D+00  6 2 -2 25 23 2 -2 4 0.33719694D-02 0.22612523D+00 0.26572453D+05 0.26572453D+05 0.26572453D+05 0.12204676D+01  1  2 12  7  6  2       21 0.278719215065D-06 0.100000000000D+01
-.115141895612D-04 0.000000000000D+00 -.138122239907D-05 0.226496951135D-06 0.000000000000D+00  6 2 -2 25 23 2 -2 4 0.33719694D-02 0.22622174D+00 0.26160298D+05 0.26160298D+05 0.26160298D+05 0.12211909D+01  1  2  5  7  6  2       21 -.675087458654D-03 0.100000000000D+01
0.569981962339D-05 0.000000000000D+00 0.000000000000D+00 0.226496951135D-06 0.690131371337D-08  6 2 -2 25 23 2 -2 4 0.33898157D-02 0.22553788D+00 0.26572453D+05 0.26572453D+05 0.26572453D+05 0.12204676D+01  1  2 11  7  6  2       21 0.334190671724D-03 0.100000000000D+01
0.475825133174D-08 0.000000000000D+00 0.000000000000D+00 0.226228715391D-06 0.000000000000D+00  6 2 2 25 23 2 2 4 0.33719694D-02 0.22612523D+00 0.26572453D+05 0.26572453D+05 0.26572453D+05 0.12204676D+01  1  2 12  8  6  2       21 0.611042083318D-05 0.100000000000D+01
-.115141895612D-04 0.000000000000D+00 -.138122239907D-05 0.226496951135D-06 0.000000000000D+00  6 2 2 25 23 2 2 4 0.33719694D-02 0.22622174D+00 0.26160298D+05 0.26160298D+05 0.26160298D+05 0.12211909D+01  1  2  5  8  6  2       21 -.148079792984D-01 0.100000000000D+01
0.200042414249D-05 0.000000000000D+00 0.000000000000D+00 0.226496951135D-06 0.911787565443D-09  6 2 2 25 23 2 2 4 0.33898157D-02 0.22553788D+00 0.26572453D+05 0.26572453D+05 0.26572453D+05 0.12204676D+01  1  2 11  8  6  2       21 0.256259087965D-02 0.100000000000D+01
0.475825133174D-08 0.000000000000D+00 0.000000000000D+00 0.226228715391D-06 0.000000000000D+00  6 2 -4 25 23 2 -4 4 0.33719694D-02 0.22612523D+00 0.26572453D+05 0.26572453D+05 0.26572453D+05 0.12204676D+01  1  2 12  9  6  2       21 0.140931002514D-06 0.100000000000D+01
-.115141895612D-04 0.000000000000D+00 -.138122239907D-05 0.226496951135D-06 0.000000000000D+00  6 2 -4 25 23 2 -4 4 0.33719694D-02 0.22622174D+00 0.26160298D+05 0.26160298D+05 0.26160298D+05 0.12211909D+01  1  2  5  9  6  2       21 -.341247400135D-03 0.100000000000D+01
0.216003450404D-05 0.000000000000D+00 0.000000000000D+00 0.226496951135D-06 0.134217845705D-08  6 2 -4 25 23 2 -4 4 0.33898157D-02 0.22553788D+00 0.26572453D+05 0.26572453D+05 0.26572453D+05 0.12204676D+01  1  2 11  9  6  2       21 0.640375747043D-04 0.100000000000D+01
0.475825133174D-08 0.000000000000D+00 0.000000000000D+00 0.226228715391D-06 0.000000000000D+00  6 2 4 25 23 2 4 4 0.33719694D-02 0.22612523D+00 0.26572453D+05 0.26572453D+05 0.26572453D+05 0.12204676D+01  1  2 12 10  6  2       21 0.140931002514D-06 0.100000000000D+01
-.115141895612D-04 0.000000000000D+00 -.138122239907D-05 0.226496951135D-06 0.000000000000D+00  6 2 4 25 23 2 4 4 0.33719694D-02 0.22622174D+00 0.26160298D+05 0.26160298D+05 0.26160298D+05 0.12211909D+01  1  2  5 10  6  2       21 -.341247400135D-03 0.100000000000D+01
0.215215617960D-05 0.000000000000D+00 0.000000000000D+00 0.226496951135D-06 0.133728311055D-08  6 2 4 25 23 2 4 4 0.33898157D-02 0.22553788D+00 0.26572453D+05 0.26572453D+05 0.26572453D+05 0.12204676D+01  1  2 11 10  6  2       21 0.638040095513D-04 0.100000000000D+01
  </mgrwgt>
  </event>
  <event>
  5     66 0.44822969E-03 0.34020957E+02 0.75467711E-02 0.11874750E+00
        2 -1    0    0  502    0 0.00000000E+00 0.00000000E+00 0.66274610E+03 0.66274618E+03 0.32000000E+00 0.0000E+00 0.9000E+01
       21 -1    0    0  501  502 0.00000000E+00 0.00000000E+00 -.82948737E+02 0.82952127E+02 0.75000000E+00 0.0000E+00 0.9000E+01
       25  1    1    2    0    0 -.36793033E+02 0.79174936E+02 0.30643592E+03 0.34227237E+03 0.12500000E+03 0.0000E+00 0.9000E+01
       23  1    1    2    0    0 0.54846135E+02 -.49934531E+02 0.32261871E+03 0.34336516E+03 0.91188000E+02 0.0000E+00 0.9000E+01
        2  1    1    2  501    0 -.18053102E+02 -.29240406E+02 -.49257266E+02 0.60060773E+02 0.32000000E+00 0.0000E+00 0.9000E+01
#aMCatNLO 1  0  0  2  1 0.18286869D+02 0.00000000D+00  -5  6  0 0.00000000D+00 0.00000000D+00 0.00000000D+00 0.00000000D+00 0.00000000D+00
  <mgrwgt>
 0.2251008124D+00   23    2    0
 0.234468003694178D+03 0.000000000000000D+00 0.000000000000000D+00 0.234468003694178D+03
 0.234468003694178D+03 0.000000000000000D+00 0.000000000000000D+00 -.234468003694178D+03
 0.165398275763370D+03 -.367930192964821D+02 0.791749578182746D+02 0.641029594560107D+02
 0.147127481158114D+03 0.548461464728519D+02 -.499345114302196D+02 0.884855307563607D+02
 0.156410250466873D+03 -.180531271763698D+02 -.292404463880549D+02 -.152588490212371D+03
 0.000000000000000D+00 -.000000000000000D+00 0.000000000000000D+00 -.000000000000000D+00
 0.236604282685529D+03 0.000000000000000D+00 0.000000000000000D+00 0.236604282685529D+03
 0.277342637659896D+03 0.000000000000000D+00 0.000000000000000D+00 -.277342637659896D+03
 0.163541244839667D+03 -.304930283286866D+02 0.779854125848868D+02 0.641029594560107D+02
 0.149702275395715D+03 0.605311574494405D+02 -.510079380023413D+02 0.884855307563607D+02
 0.156048913765050D+03 -.120687750715899D+02 -.303703936463200D+02 -.152588490212371D+03
 0.446544863449921D+02 -.179693540491640D+02 0.339291906377454D+01 -.407383549743673D+02
0.353961106632D-05 0.000000000000D+00 0.000000000000D+00 0.206465664069D-05 0.000000000000D+00  6 2 21 25 23 2 21 2 0.10196121D+00 0.12761611D-01 0.23161857D+05 0.23161857D+05 0.23161857D+05 0.12268696D+01  1  2  2  2  6  2       21 0.158815050955D-01 0.100000000000D+01
0.626019059658D-06 0.186790407747D-06 -.714545493575D-08 0.206465664069D-05 0.000000000000D+00  6 2 21 25 23 2 21 4 0.10196121D+00 0.12761611D-01 0.23161857D+05 0.23161857D+05 0.23161857D+05 0.12268696D+01  1  2  3  2  6  2       21 0.422785868459D-02 0.100000000000D+01
0.337321517497D-06 0.000000000000D+00 0.000000000000D+00 0.206465664069D-05 0.000000000000D+00  6 2 21 25 23 2 21 4 0.10196121D+00 0.12761611D-01 0.23161857D+05 0.23161857D+05 0.23161857D+05 0.12268696D+01  1  2 15  2  6  2       21 0.227812186425D-02 0.100000000000D+01
0.352478865978D-04 0.000000000000D+00 0.000000000000D+00 0.204684693163D-05 0.000000000000D+00  6 2 21 25 23 2 21 4 0.10196121D+00 0.15146494D-01 0.25949024D+05 0.25949024D+05 0.25949024D+05 0.12215666D+01  1  2 12  2  6  2       21 0.171683195831D+00 0.100000000000D+01
-.119663600025D-04 0.000000000000D+00 0.000000000000D+00 0.206465664069D-05 0.000000000000D+00  6 2 21 25 23 2 21 4 0.10196121D+00 0.12761611D-01 0.23161857D+05 0.23161857D+05 0.23161857D+05 0.12268696D+01  1  2  4  2  6  2       21 -.808155570965D-01 0.100000000000D+01
-.842135065930D-04 0.000000000000D+00 -.706079559084D-05 0.206465664069D-05 0.000000000000D+00  6 2 21 25 23 2 21 4 0.10196121D+00 0.15203538D-01 0.23161857D+05 0.23161857D+05 0.23161857D+05 0.12268696D+01  1  2  5  2  6  2       21 -.415006621835D+00 0.100000000000D+01
0.790953286598D-04 0.000000000000D+00 0.664600514856D-05 0.206465664069D-05 0.000000000000D+00  6 2 21 25 23 2 21 4 0.10196121D+00 0.12761611D-01 0.23161857D+05 0.23161857D+05 0.23161857D+05 0.12268696D+01  1  2  6  2  6  2       21 0.534175225220D+00 0.100000000000D+01
0.168009945167D-05 0.000000000000D+00 0.000000000000D+00 0.204684693163D-05 0.000000000000D+00  6 2 -1 25 23 2 -1 4 0.10196121D+00 0.15146494D-01 0.25949024D+05 0.25949024D+05 0.25949024D+05 0.12215666D+01  1  2 12  5  6  2       21 0.600895669467D-03 0.100000000000D+01
0.168009945167D-05 0.000000000000D+00 0.000000000000D+00 0.204684693163D-05 0.000000000000D+00  6 2 -3 25 23 2 -3 4 0.10196121D+00 0.15146494D-01 0.25949024D+05 0.25949024D+05 0.25949024D+05 0.12215666D+01  1  2 12  5  6  2       21 0.376057414455D-03 0.100000000000D+01
-.444274219034D-05 0.000000000000D+00 -.345363173810D-06 0.206465664069D-05 0.000000000000D+00  6 2 -1 25 23 2 -1 4 0.10196121D+00 0.15203538D-01 0.23161857D+05 0.23161857D+05 0.23161857D+05 0.12268696D+01  1  2  5  5  6  2       21 -.160590390244D-02 0.100000000000D+01
-.444274219034D-05 0.000000000000D+00 -.345363173810D-06 0.206465664069D-05 0.000000000000D+00  6 2 -3 25 23 2 -3 4 0.10196121D+00 0.15203538D-01 0.23161857D+05 0.23161857D+05 0.23161857D+05 0.12268696D+01  1  2  5  5  6  2       21 -.100183941659D-02 0.100000000000D+01
0.168009945167D-05 0.000000000000D+00 0.000000000000D+00 0.204684693163D-05 0.000000000000D+00  6 2 1 25 23 2 1 4 0.10196121D+00 0.15146494D-01 0.25949024D+05 0.25949024D+05 0.25949024D+05 0.12215666D+01  1  2 12  6  6  2       21 0.830361205388D-03 0.100000000000D+01
0.168009945167D-05 0.000000000000D+00 0.000000000000D+00 0.204684693163D-05 0.000000000000D+00  6 2 3 25 23 2 3 4 0.10196121D+00 0.15146494D-01 0.25949024D+05 0.25949024D+05 0.25949024D+05 0.12215666D+01  1  2 12  6  6  2       21 0.376013185670D-03 0.100000000000D+01
-.444274219034D-05 0.000000000000D+00 -.345363173810D-06 0.206465664069D-05 0.000000000000D+00  6 2 1 25 23 2 1 4 0.10196121D+00 0.15203538D-01 0.23161857D+05 0.23161857D+05 0.23161857D+05 0.12268696D+01  1  2  5  6  6  2       21 -.222174166240D-02 0.100000000000D+01
-.444274219034D-05 0.000000000000D+00 -.345363173810D-06 0.206465664069D-05 0.000000000000D+00  6 2 3 25 23 2 3 4 0.10196121D+00 0.15203538D-01 0.23161857D+05 0.23161857D+05 0.23161857D+05 0.12268696D+01  1  2  5  6  6  2       21 -.100172012193D-02 0.100000000000D+01
0.168009945167D-05 0.000000000000D+00 0.000000000000D+00 0.204684693163D-05 0.000000000000D+00  6 2 -2 25 23 2 -2 4 0.10196121D+00 0.15146494D-01 0.25949024D+05 0.25949024D+05 0.25949024D+05 0.12215666D+01  1  2 12  7  6  2       21 0.561472175207D-03 0.100000000000D+01
-.444274219034D-05 0.000000000000D+00 -.345363173810D-06 0.206465664069D-05 0.000000000000D+00  6 2 -2 25 23 2 -2 4 0.10196121D+00 0.15203538D-01 0.23161857D+05 0.23161857D+05 0.23161857D+05 0.12268696D+01  1  2  5  7  6  2       21 -.150003432991D-02 0.100000000000D+01
0.168009945167D-05 0.000000000000D+00 0.000000000000D+00 0.204684693163D-05 0.000000000000D+00  6 2 2 25 23 2 2 4 0.10196121D+00 0.15146494D-01 0.25949024D+05 0.25949024D+05 0.25949024D+05 0.12215666D+01  1  2 12  8  6  2       21 0.988815724066D-03 0.100000000000D+01
-.444274219034D-05 0.000000000000D+00 -.345363173810D-06 0.206465664069D-05 0.000000000000D+00  6 2 2 25 23 2 2 4 0.10196121D+00 0.15203538D-01 0.23161857D+05 0.23161857D+05 0.23161857D+05 0.12268696D+01  1  2  5  8  6  2       21 -.264673220084D-02 0.100000000000D+01
0.168009945167D-05 0.000000000000D+00 0.000000000000D+00 0.204684693163D-05 0.000000000000D+00  6 2 -4 25 23 2 -4 4 0.10196121D+00 0.15146494D-01 0.25949024D+05 0.25949024D+05 0.25949024D+05 0.12215666D+01  1  2 12  9  6  2       21 0.324761736254D-03 0.100000000000D+01
-.444274219034D-05 0.000000000000D+00 -.345363173810D-06 0.206465664069D-05 0.000000000000D+00  6 2 -4 25 23 2 -4 4 0.10196121D+00 0.15203538D-01 0.23161857D+05 0.23161857D+05 0.23161857D+05 0.12268696D+01  1  2  5  9  6  2       21 -.864041273443D-03 0.100000000000D+01
0.168009945167D-05 0.000000000000D+00 0.000000000000D+00 0.204684693163D-05 0.000000000000D+00  6 2 4 25 23 2 4 4 0.10196121D+00 0.15146494D-01 0.25949024D+05 0.25949024D+05 0.25949024D+05 0.12215666D+01  1  2 12 10  6  2       21 0.324761736254D-03 0.100000000000D+01
-.444274219034D-05 0.000000000000D+00 -.345363173810D-06 0.206465664069D-05 0.000000000000D+00  6 2 4 25 23 2 4 4 0.10196121D+00 0.15203538D-01 0.23161857D+05 0.23161857D+05 0.23161857D+05 0.12268696D+01  1  2  5 10  6  2       21 -.864041273443D-03 0.100000000000D+01
  </mgrwgt>
  </event>
  <event>
  6     66 0.44822969E-03 0.15221573E+03 0.75467711E-02 0.11374583E+00
        2 -1    0    0  502    0 0.00000000E+00 0.00000000E+00 0.15374940E+04 0.15374941E+04 0.32000000E+00 0.0000E+00 0.9000E+01
       21 -1    0    0  501  502 0.00000000E+00 0.00000000E+00 -.38954862E+03 0.38954934E+03 0.75000000E+00 0.0000E+00 0.9000E+01
       25  1    1    2    0    0 0.42780457E+02 0.37363351E+02 0.48162798E+03 0.50081604E+03 0.12500000E+03 0.0000E+00 0.9000E+01
       23  1    1    2    0    0 0.63286106E+02 0.78311587E+02 0.10248094E+04 0.10337734E+04 0.91188000E+02 0.0000E+00 0.9000E+01
        2  1    1    2  503    0 -.93652066E+02 -.10730734E+03 -.30032313E+03 0.33238481E+03 0.32000000E+00 0.0000E+00 0.9000E+01
       21  1    1    2  501  503 -.12414497E+02 -.83675934E+01 -.58168812E+02 0.60069207E+02 0.75000000E+00 0.0000E+00 0.9000E+01
#aMCatNLO 2  0  0  5  2 0.10709414D+02 0.00000000D+00  -5  6  0 0.00000000D+00 0.00000000D+00 0.00000000D+00 0.00000000D+00 0.00000000D+00
  <mgrwgt>
 0.2361834196D+00    2    2    0
 0.773905291566468D+03 0.000000000000000D+00 0.000000000000000D+00 0.773905291566468D+03
 0.773905291566468D+03 -.000000000000000D+00 -.000000000000000D+00 -.773905291566468D+03
 0.266407027735162D+03 0.427944696302057D+02 0.373786336861661D+02 0.228296245127921D+03
 0.527197142718714D+03 0.633138361011441D+02 0.783418291114638D+02 0.509387369215614D+03
 0.754206412679060D+03 -.106108305731350D+03 -.115720462797630D+03 -.737683614343535D+03
 0.000000000000000D+00 0.000000000000000D+00 0.000000000000000D+00 -.000000000000000D+00
 0.773905291566468D+03 0.000000000000000D+00 0.000000000000000D+00 0.773905291566468D+03
 0.773905291566468D+03 -.000000000000000D+00 -.000000000000000D+00 -.773905291566468D+03
 0.266319236550819D+03 0.427804700623663D+02 0.373633659231180D+02 0.228198917668663D+03
 0.527003234306240D+03 0.632861326619036D+02 0.783116160684047D+02 0.509194770030773D+03
 0.636745002394338D+03 -.936822466615675D+02 -.107345526391860D+03 -.620600332499316D+03
 0.117743109881539D+03 -.123843560627023D+02 -.832945559966276D+01 -.116793355200121D+03
-.131415827877D-02 0.000000000000D+00 0.000000000000D+00 0.280857785609D-05 0.000000000000D+00  6 2 21 25 23 2 21 4 0.23653760D+00 0.59930614D-01 0.46341762D+05 0.46341762D+05 0.46341762D+05 0.11955636D+01  1  2 13  3  6  5        2 -.115012803817D+00 0.100000000000D+01
0.401283517286D-02 0.000000000000D+00 0.000000000000D+00 0.280891722236D-05 0.534616921155D-06  6 2 21 25 23 2 21 4 0.23653760D+00 0.59930614D-01 0.46341762D+05 0.46341762D+05 0.46341762D+05 0.11955636D+01  1  2  1  3  6  5        2 0.351196223423D+00 0.100000000000D+01
  </mgrwgt>
  </event>
  <event>
  5     66 -.44822969E-03 0.46532539E+02 0.75467711E-02 0.12129037E+00
        2 -1    0    0  502    0 0.00000000E+00 0.00000000E+00 0.15237303E+04 0.15237304E+04 0.32000000E+00 0.0000E+00 0.9000E+01
       21 -1    0    0  501  502 0.00000000E+00 0.00000000E+00 -.25348639E+02 0.25359732E+02 0.75000000E+00 0.0000E+00 0.9000E+01
       25  1    1    2    0    0 0.40376653E+02 0.11047354E+02 0.34173837E+03 0.36628190E+03 0.12500000E+03 0.0000E+00 0.9000E+01
       23  1    1    2    0    0 -.18572745E+02 0.30060529E+02 0.17829805E+03 0.20335690E+03 0.91188000E+02 0.0000E+00 0.9000E+01
        2  1    1    2  501    0 -.21803908E+02 -.41107883E+02 0.97834528E+03 0.97945131E+03 0.32000000E+00 0.0000E+00 0.9000E+01
#aMCatNLO 1  0  0  5  2 0.92285912D+01 0.00000000D+00  -5  6  0 0.00000000D+00 0.00000000D+00 0.00000000D+00 0.00000000D+00 0.00000000D+00
  <mgrwgt>
 -.2857104517D-01    8    2    0
 0.196553067963807D+03 0.000000000000000D+00 0.000000000000000D+00 0.196553067963807D+03
 0.196553067963807D+03 -.000000000000000D+00 -.000000000000000D+00 -.196553067963807D+03
 0.140799562964217D+03 0.403766760553146D+02 0.110473985053551D+02 -.494691413701778D+02
 0.121747408056235D+03 -.185727246120660D+02 0.300605672300486D+02 -.725161790409800D+02
 0.130559164907162D+03 -.218039514432487D+02 -.411079657354036D+02 0.121985320411158D+03
 0.000000000000000D+00 -.000000000000000D+00 0.000000000000000D+00 0.000000000000000D+00
 0.196553067963807D+03 0.000000000000000D+00 0.000000000000000D+00 0.196553067963807D+03
 0.196553067963807D+03 -.000000000000000D+00 -.000000000000000D+00 -.196553067963807D+03
 0.140138338887983D+03 0.400977244315242D+02 0.105214785214265D+02 -.479085066707354D+02
 0.120874652266806D+03 -.188136312937500D+02 0.296063750785996D+02 -.711683922037681D+02
 0.120024665810907D+03 -.109778175882718D+02 -.394035363118333D+02 0.112839573067876D+03
 0.120684789619185D+02 -.103062755495024D+02 -.724317288192712D+00 0.623732580662769D+01
0.100739215138D-05 0.000000000000D+00 0.000000000000D+00 0.112760294760D-06 0.000000000000D+00  6 2 21 25 23 2 21 2 0.23442091D+00 0.39006465D-02 0.19064770D+05 0.19064770D+05 0.19064770D+05 0.12361224D+01  1  2  2  3  6  5        2 0.107978141195D-01 0.100000000000D+01
-.134751683324D-06 0.531615443593D-07 -.203363451109D-08 0.112760294760D-06 0.000000000000D+00  6 2 21 25 23 2 21 4 0.23442091D+00 0.39006465D-02 0.19064770D+05 0.19064770D+05 0.19064770D+05 0.12361224D+01  1  2  3  3  6  5        2 -.220695972911D-02 0.100000000000D+01
0.122187928116D-06 0.000000000000D+00 0.000000000000D+00 0.112760294760D-06 0.000000000000D+00  6 2 21 25 23 2 21 4 0.23442091D+00 0.39006465D-02 0.19064770D+05 0.19064770D+05 0.19064770D+05 0.12361224D+01  1  2 15  3  6  5        2 0.200119085776D-02 0.100000000000D+01
0.389879969538D-05 0.000000000000D+00 0.000000000000D+00 0.112478485861D-06 0.000000000000D+00  6 2 21 25 23 2 21 4 0.23442091D+00 0.39006465D-02 0.19688722D+05 0.19688722D+05 0.19688722D+05 0.12345767D+01  1  2 12  3  6  5        2 0.635216911040D-01 0.100000000000D+01
-.671859952023D-05 0.000000000000D+00 0.000000000000D+00 0.112760294760D-06 0.000000000000D+00  6 2 21 25 23 2 21 4 0.23442091D+00 0.39006465D-02 0.19064770D+05 0.19064770D+05 0.19064770D+05 0.12361224D+01  1  2  4  3  6  5        2 -.110037056395D+00 0.100000000000D+01
-.463726274075D-05 0.000000000000D+00 0.000000000000D+00 0.112760294760D-06 0.000000000000D+00  6 2 21 25 23 2 21 4 0.23442091D+00 0.39006465D-02 0.19064770D+05 0.19064770D+05 0.19064770D+05 0.12361224D+01  1  2  5  3  6  5        2 -.759489742148D-01 0.100000000000D+01
0.508563562638D-05 0.000000000000D+00 -.000000000000D+00 0.112760294760D-06 0.000000000000D+00  6 2 21 25 23 2 21 4 0.23442091D+00 0.39006465D-02 0.19064770D+05 0.19064770D+05 0.19064770D+05 0.12361224D+01  1  2  6  3  6  5        2 0.832924142210D-01 0.100000000000D+01
0.542261745427D-09 0.000000000000D+00 0.000000000000D+00 0.112760294760D-06 0.205463515628D-07  6 2 21 25 23 2 21 4 0.23442091D+00 0.39006465D-02 0.19688722D+05 0.19688722D+05 0.19688722D+05 0.12345767D+01  1  2 11  3  6  5        2 0.883486862159D-05 0.100000000000D+01
  </mgrwgt>
  </event>
  <event>
  5     66 0.44822969E-03 0.26949224E+03 0.75467711E-02 0.99038271E-01
        2 -1    0    0  502    0 0.00000000E+00 0.00000000E+00 0.46525133E+03 0.46525144E+03 0.32000000E+00 0.0000E+00 0.9000E+01
       21 -1    0    0  501  502 0.00000000E+00 0.00000000E+00 -.31791434E+03 0.31791522E+03 0.75000000E+00 0.0000E+00 0.9000E+01
       25  1    1    2    0    0 0.38716116E+02 0.56065057E+02 -.53667449E+02 0.15214277E+03 0.12500000E+03 0.0000E+00 0.9000E+01
       23  1    1    2    0    0 0.20912561E+03 -.16189742E+03 0.22702604E+03 0.36027818E+03 0.91188000E+02 0.0000E+00 0.9000E+01
        2  1    1    2  501    0 -.24784172E+03 0.10583237E+03 -.26021605E+02 0.27074570E+03 0.32000000E+00 0.0000E+00 0.9000E+01
#aMCatNLO 1  0  0  2  5 0.39970803D+03 0.00000000D+00  -5  6  0 0.00000000D+00 0.00000000D+00 0.00000000D+00 0.00000000D+00 0.00000000D+00
  <mgrwgt>
 0.3448059428D-01   12    2    0
 0.384591287200816D+03 0.000000000000000D+00 0.000000000000000D+00 0.384591287200816D+03
 0.384591287200816D+03 0.000000000000000D+00 0.000000000000000D+00 -.384591287200816D+03
 0.165188799434224D+03 0.387161510584675D+02 0.560650423705668D+02 -.837860974728196D+02
 0.323341416860155D+03 0.209125675906043D+03 -.161897451769493D+03 0.162142182360168D+03
 0.280652358107253D+03 -.247841826964511D+03 0.105832409398927D+03 -.783560848873483D+02
 0.000000000000000D+00 -.000000000000000D+00 0.000000000000000D+00 -.000000000000000D+00
 0.616864771663084D+03 0.000000000000000D+00 0.000000000000000D+00 0.616864771663084D+03
 0.651149030838375D+03 0.000000000000000D+00 0.000000000000000D+00 -.651149030838375D+03
 0.173403366265288D+03 0.852762284082475D+02 -.123118711361573D+02 -.837860974728196D+02
 0.495097537289044D+03 0.321669865853657D+03 -.327176909617487D+03 0.162142182360168D+03
 0.198337226020208D+03 -.181975589213146D+03 0.910297297844204D+01 -.783560848873483D+02
 0.401175672926917D+03 -.224970505048758D+03 0.330385807775203D+03 -.342842591752904D+02
0.104290110995D-03 0.000000000000D+00 0.000000000000D+00 0.221742787024D-07 0.000000000000D+00  6 2 21 25 23 2 21 2 0.71577204D-01 0.48909975D-01 0.11957917D+06 0.11957917D+06 0.11957917D+06 0.11565048D+01  1  2  2  2  6  2       21 0.449247318380D-01 0.100000000000D+01
-.899427399653D-05 0.550354035844D-05 -.210531686786D-06 0.221742787024D-07 0.000000000000D+00  6 2 21 25 23 2 21 4 0.71577204D-01 0.48909975D-01 0.11957917D+06 0.11957917D+06 0.11957917D+06 0.11565048D+01  1  2  3  2  6  2       21 -.518207056928D-02 0.100000000000D+01
0.983339817725D-05 0.000000000000D+00 0.000000000000D+00 0.221742787024D-07 0.000000000000D+00  6 2 21 25 23 2 21 4 0.71577204D-01 0.48909975D-01 0.11957917D+06 0.11957917D+06 0.11957917D+06 0.11565048D+01  1  2 15  2  6  2       21 0.566553379517D-02 0.100000000000D+01
-.984716590865D-04 0.000000000000D+00 -.184888941300D-03 0.221742787024D-07 0.000000000000D+00  6 2 21 25 23 2 21 4 0.71577204D-01 0.12339036D+00 0.11957917D+06 0.11957917D+06 0.11957917D+06 0.11565048D+01  1  2  5  2  6  2       21 -.677768743459D-02 0.100000000000D+01
-.313264881505D-04 0.000000000000D+00 -.584678806155D-04 0.221742787024D-07 0.000000000000D+00  6 2 -1 25 23 2 -1 4 0.71577204D-01 0.12339036D+00 0.11957917D+06 0.11957917D+06 0.11957917D+06 0.11565048D+01  1  2  5  5  6  2       21 -.265473830059D-03 0.100000000000D+01
-.313264881505D-04 0.000000000000D+00 -.584678806155D-04 0.221742787024D-07 0.000000000000D+00  6 2 -3 25 23 2 -3 4 0.71577204D-01 0.12339036D+00 0.11957917D+06 0.11957917D+06 0.11957917D+06 0.11565048D+01  1  2  5  5  6  2       21 -.127674653702D-03 0.100000000000D+01
-.313264881505D-04 0.000000000000D+00 -.584678806155D-04 0.221742787024D-07 0.000000000000D+00  6 2 1 25 23 2 1 4 0.71577204D-01 0.12339036D+00 0.11957917D+06 0.11957917D+06 0.11957917D+06 0.11565048D+01  1  2  5  6  6  2       21 -.117173037170D-02 0.100000000000D+01
-.313264881505D-04 0.000000000000D+00 -.584678806155D-04 0.221742787024D-07 0.000000000000D+00  6 2 3 25 23 2 3 4 0.71577204D-01 0.12339036D+00 0.11957917D+06 0.11957917D+06 0.11957917D+06 0.11565048D+01  1  2  5  6  6  2       21 -.128039072921D-03 0.100000000000D+01
-.313264881505D-04 0.000000000000D+00 -.584678806155D-04 0.221742787024D-07 0.000000000000D+00  6 2 -2 25 23 2 -2 4 0.71577204D-01 0.12339036D+00 0.11957917D+06 0.11957917D+06 0.11957917D+06 0.11565048D+01  1  2  5  7  6  2       21 -.196139007164D-03 0.100000000000D+01
-.313264881505D-04 0.000000000000D+00 -.584678806155D-04 0.221742787024D-07 0.000000000000D+00  6 2 2 25 23 2 2 4 0.71577204D-01 0.12339036D+00 0.11957917D+06 0.11957917D+06 0.11957917D+06 0.11565048D+01  1  2  5  8  6  2       21 -.205560608632D-02 0.100000000000D+01
-.313264881505D-04 0.000000000000D+00 -.584678806155D-04 0.221742787024D-07 0.000000000000D+00  6 2 -4 25 23 2 -4 4 0.71577204D-01 0.12339036D+00 0.11957917D+06 0.11957917D+06 0.11957917D+06 0.11565048D+01  1  2  5  9  6  2       21 -.102625163621D-03 0.100000000000D+01
-.313264881505D-04 0.000000000000D+00 -.584678806155D-04 0.221742787024D-07 0.000000000000D+00  6 2 4 25 23 2 4 4 0.71577204D-01 0.12339036D+00 0.11957917D+06 0.11957917D+06 0.11957917D+06 0.11565048D+01  1  2  5 10  6  2       21 -.102625163621D-03 0.100000000000D+01
  </mgrwgt>
  </event>
  <event>
  6     66 0.44822969E-03 0.19921037E+02 0.75467711E-02 0.12041734E+00
        2 -1    0    0  503    0 0.00000000E+00 0.00000000E+00 0.14039367E+02 0.14043014E+02 0.32000000E+00 0.0000E+00 0.9000E+01
       21 -1    0    0  501  502 0.00000000E+00 0.00000000E+00 -.20453671E+04 0.20453673E+04 0.75000000E+00 0.0000E+00 0.9000E+01
       25  1    1    2    0    0 0.70727171E+02 0.33775750E+02 -.10939313E+04 0.11038360E+04 0.12500000E+03 0.0000E+00 0.9000E+01
       23  1    1    2    0    0 -.85125094E+02 -.20084033E+02 -.44308815E+03 0.46075157E+03 0.91188000E+02 0.0000E+00 0.9000E+01
        2  1    1    2  501    0 0.14557433E+02 -.13716072E+02 -.49162836E+03 0.49203515E+03 0.32000000E+00 0.0000E+00 0.9000E+01
       21  1    1    2  503  502 -.15951020E+00 0.24354961E-01 -.26799532E+01 0.27875950E+01 0.75000000E+00 0.0000E+00 0.9000E+01
#aMCatNLO 2  0  0  1  2 0.16838487D+03 0.00000000D+00  -5  6  0 0.00000000D+00 0.00000000D+00 0.00000000D+00 0.00000000D+00 0.00000000D+00
  <mgrwgt>
 0.1456635934D+02    1    2    0
 0.169030258357810D+03 0.000000000000000D+00 0.000000000000000D+00 0.169030258357810D+03
 0.169030258357810D+03 0.000000000000000D+00 0.000000000000000D+00 -.169030258357810D+03
 0.150748842144269D+03 0.706558565133441D+02 0.337867794319185D+02 -.310872463209976D+02
 0.144162109308214D+03 -.851932762501747D+02 -.200734874432946D+02 0.693298146529968D+02
 0.431495652631365D+02 0.145374197368306D+02 -.137132919886239D+02 -.382425683319993D+02
 0.000000000000000D+00 -.000000000000000D+00 0.000000000000000D+00 0.000000000000000D+00
 0.169468764766241D+03 0.000000000000000D+00 0.000000000000000D+00 0.169468764766241D+03
 0.169045122213209D+03 0.000000000000000D+00 0.000000000000000D+00 -.169045122213209D+03
 0.150779763410093D+03 0.707269930145904D+02 0.337759178897516D+02 -.310872463209976D+02
 0.144123374362383D+03 -.851252640606489D+02 -.200838719470508D+02 0.693298146529968D+02
 0.431574174520273D+02 0.145577812437337D+02 -.137164009040461D+02 -.382425683319993D+02
 0.453331754947411D+00 -.159510197675266D+00 0.243549613451995D-01 0.423642553031646D+00
0.368925843486D-01 0.000000000000D+00 0.000000000000D+00 0.990243243667D-06 0.306277767119D-03  6 2 21 25 23 2 21 4 0.21574959D-02 0.31427918D+00 0.21617187D+05 0.21617187D+05 0.21617187D+05 0.12301256D+01  1  2  1  1  6  1        2 0.145663593361D+02 0.100000000000D+01
  </mgrwgt>
  </event>
  <event>
  5     66 0.44822969E-03 0.21572839E+02 0.75467711E-02 0.11002192E+00
        2 -1    0    0  502    0 0.00000000E+00 0.00000000E+00 0.24663806E+02 0.24665881E+02 0.32000000E+00 0.0000E+00 0.9000E+01
       21 -1    0    0  501  502 0.00000000E+00 0.00000000E+00 -.84750343E+03 0.84750376E+03 0.75000000E+00 0.0000E+00 0.9000E+01
       25  1    1    2    0    0 -.28621380E+02 -.45888271E+02 -.27657444E+03 0.30829099E+03 0.12500000E+03 0.0000E+00 0.9000E+01
       23  1    1    2    0    0 0.71218031E+01 0.44127471E+02 -.52030998E+03 0.53012798E+03 0.91188000E+02 0.0000E+00 0.9000E+01
        2  1    1    2  501    0 0.21499577E+02 0.17607994E+01 -.25955205E+02 0.33750664E+02 0.32000000E+00 0.0000E+00 0.9000E+01
#aMCatNLO 1  0  0  2  1 0.66840072D+02 0.00000000D+00  -5  6  0 0.00000000D+00 0.00000000D+00 0.00000000D+00 0.00000000D+00 0.00000000D+00
  <mgrwgt>
 0.5864903429D-01   12    2    0
 0.144581152715858D+03 0.000000000000000D+00 0.000000000000000D+00 0.144581152715858D+03
 0.144581152715858D+03 0.000000000000000D+00 0.000000000000000D+00 -.144581152715858D+03
 0.142845846854741D+03 -.286220767722344D+02 -.458883278255310D+02 0.430694097274293D+02
 0.118376157602602D+03 0.712122579767318D+01 0.441274240843622D+02 -.608253395516491D+02
 0.279403009743733D+02 0.215008509745612D+02 0.176090374116881D+01 0.177559298242197D+02
 0.000000000000000D+00 -.000000000000000D+00 -.000000000000000D+00 -.000000000000000D+00
 0.250496392795202D+03 0.000000000000000D+00 0.000000000000000D+00 0.250496392795202D+03
 0.329318186851045D+03 0.000000000000000D+00 0.000000000000000D+00 -.329318186851045D+03
 0.138362707150283D+03 -.117955562399504D+01 0.407783438140348D+02 0.430694097274293D+02
 0.177931777677513D+03 0.360372621859915D+02 0.135447628130006D+03 -.608253395516491D+02
 0.403599741607081D+02 0.281661238410172D+02 0.228106102089114D+02 0.177559298242197D+02
 0.223160120657743D+03 -.630238304030138D+02 -.199036582152953D+03 -.788217940558425D+02
0.294387791419D-04 0.000000000000D+00 0.000000000000D+00 0.189766577901D-06 0.000000000000D+00  6 2 21 25 23 2 21 2 0.37946168D-02 0.13038533D+00 0.16812361D+05 0.16812361D+05 0.16812361D+05 0.12422145D+01  1  2  2  2  6  2       21 0.536486548150D-01 0.100000000000D+01
-.429455788998D-06 0.155352705606D-05 -.594284133992D-07 0.189766577901D-06 0.000000000000D+00  6 2 21 25 23 2 21 4 0.37946168D-02 0.13038533D+00 0.16812361D+05 0.16812361D+05 0.16812361D+05 0.12422145D+01  1  2  3  2  6  2       21 -.120767662517D-02 0.100000000000D+01
0.298505891832D-05 0.000000000000D+00 0.000000000000D+00 0.189766577901D-06 0.000000000000D+00  6 2 21 25 23 2 21 4 0.37946168D-02 0.13038533D+00 0.16812361D+05 0.16812361D+05 0.16812361D+05 0.12422145D+01  1  2 15  2  6  2       21 0.839431199386D-02 0.100000000000D+01
-.117395412921D-04 0.000000000000D+00 -.639297824833D-04 0.189766577901D-06 0.000000000000D+00  6 2 21 25 23 2 21 4 0.37946168D-02 0.39137828D+00 0.16812361D+05 0.16812361D+05 0.16812361D+05 0.12422145D+01  1  2  5  2  6  2       21 -.819961928807D-03 0.100000000000D+01
-.292411735552D-05 0.000000000000D+00 -.226213199695D-04 0.189766577901D-06 0.000000000000D+00  6 2 -1 25 23 2 -1 4 0.37946168D-02 0.39137828D+00 0.16812361D+05 0.16812361D+05 0.16812361D+05 0.12422145D+01  1  2  5  5  6  2       21 -.189646850221D-04 0.100000000000D+01
-.292411735552D-05 0.000000000000D+00 -.226213199695D-04 0.189766577901D-06 0.000000000000D+00  6 2 -3 25 23 2 -3 4 0.37946168D-02 0.39137828D+00 0.16812361D+05 0.16812361D+05 0.16812361D+05 0.12422145D+01  1  2  5  5  6  2       21 -.139219436083D-04 0.100000000000D+01
-.292411735552D-05 0.000000000000D+00 -.226213199695D-04 0.189766577901D-06 0.000000000000D+00  6 2 1 25 23 2 1 4 0.37946168D-02 0.39137828D+00 0.16812361D+05 0.16812361D+05 0.16812361D+05 0.12422145D+01  1  2  5  6  6  2       21 -.330641117520D-03 0.100000000000D+01
-.292411735552D-05 0.000000000000D+00 -.226213199695D-04 0.189766577901D-06 0.000000000000D+00  6 2 3 25 23 2 3 4 0.37946168D-02 0.39137828D+00 0.16812361D+05 0.16812361D+05 0.16812361D+05 0.12422145D+01  1  2  5  6  6  2       21 -.144861119353D-04 0.100000000000D+01
-.292411735552D-05 0.000000000000D+00 -.226213199695D-04 0.189766577901D-06 0.000000000000D+00  6 2 -2 25 23 2 -2 4 0.37946168D-02 0.39137828D+00 0.16812361D+05 0.16812361D+05 0.16812361D+05 0.12422145D+01  1  2  5  7  6  2       21 -.168818210077D-04 0.100000000000D+01
-.292411735552D-05 0.000000000000D+00 -.226213199695D-04 0.189766577901D-06 0.000000000000D+00  6 2 2 25 23 2 2 4 0.37946168D-02 0.39137828D+00 0.16812361D+05 0.16812361D+05 0.16812361D+05 0.12422145D+01  1  2  5  8  6  2       21 -.955000179781D-03 0.100000000000D+01
-.292411735552D-05 0.000000000000D+00 -.226213199695D-04 0.189766577901D-06 0.000000000000D+00  6 2 -4 25 23 2 -4 4 0.37946168D-02 0.39137828D+00 0.16812361D+05 0.16812361D+05 0.16812361D+05 0.12422145D+01  1  2  5  9  6  2       21 -.819905171724D-05 0.100000000000D+01
-.292411735552D-05 0.000000000000D+00 -.226213199695D-04 0.189766577901D-06 0.000000000000D+00  6 2 4 25 23 2 4 4 0.37946168D-02 0.39137828D+00 0.16812361D+05 0.16812361D+05 0.16812361D+05 0.12422145D+01  1  2  5 10  6  2       21 -.819905171724D-05 0.100000000000D+01
  </mgrwgt>
  </event>
  <event>
  6     66 -.44822969E-03 0.13814907E+02 0.75467711E-02 0.12416827E+00
        2 -1    0    0  503    0 0.00000000E+00 0.00000000E+00 0.23975861E+04 0.23975861E+04 0.32000000E+00 0.0000E+00 0.9000E+01
       21 -1    0    0  501  502 0.00000000E+00 0.00000000E+00 -.89091855E+01 0.89406983E+01 0.75000000E+00 0.0000E+00 0.9000E+01
       25  1    1    2    0    0 0.50465246E+01 -.12905353E+02 0.78324710E+03 0.79327992E+03 0.12500000E+03 0.0000E+00 0.9000E+01
       23  1    1    2    0    0 0.26405527E+02 0.15547011E+02 0.94437106E+03 0.94925808E+03 0.91188000E+02 0.0000E+00 0.9000E+01
        2  1    1    2  501    0 -.19866297E+02 0.10573537E+01 0.69175258E+02 0.71979903E+02 0.32000000E+00 0.0000E+00 0.9000E+01
       21  1    1    2  503  502 -.11585754E+02 -.36990116E+01 0.59188350E+03 0.59200891E+03 0.75000000E+00 0.0000E+00 0.9000E+01
#aMCatNLO 2  0  0  1  2 0.12161923D+02 0.00000000D+00  -5  6  0 0.00000000D+00 0.00000000D+00 0.00000000D+00 0.00000000D+00 0.00000000D+00
  <mgrwgt>
 -.3998462712D+00    1    2    0
 0.126353421486878D+03 0.000000000000000D+00 0.000000000000000D+00 0.126353421486878D+03
 0.126353421486878D+03 0.000000000000000D+00 0.000000000000000D+00 -.126353421486878D+03
 0.126932230298758D+03 -.766329011877852D+00 -.147615208237900D+02 -.163799063315808D+02
 0.998893647854760D+02 0.217989690963762D+02 0.140760405381543D+02 0.314532014642288D+02
 0.258852478895210D+02 -.210326400844984D+02 0.685480285635731D+00 -.150732951326480D+02
 0.000000000000000D+00 -.000000000000000D+00 -.000000000000000D+00 0.000000000000000D+00
 0.167965570090179D+03 0.000000000000000D+00 0.000000000000000D+00 0.167965570090179D+03
 0.127391435976402D+03 0.000000000000000D+00 0.000000000000000D+00 -.127391435976402D+03
 0.126827937380665D+03 0.504732924444938D+01 -.129053801300327D+02 -.163799063315808D+02
 0.101210426165595D+03 0.264061754625280D+02 0.155469944270322D+02 0.314532014642288D+02
 0.249609662302681D+02 -.198677507512996D+02 0.105739731270227D+01 -.150732951326480D+02
 0.423576762900532D+02 -.115857539556778D+02 -.369901160970176D+01 0.405741341137765D+02
-.121916240992D-04 0.000000000000D+00 0.000000000000D+00 0.931157339707D-06 0.000000000000D+00  6 2 21 25 23 2 21 4 0.36972292D+00 0.13618463D-02 0.16131863D+05 0.16131863D+05 0.16131863D+05 0.12442369D+01  1  2 13  1  6  1        2 -.399846271194D+00 0.100000000000D+01
  </mgrwgt>
  </event>
  <event>
  5     66 0.44822969E-03 0.71779430E+02 0.75467711E-02 0.93864116E-01
        2 -1    0    0  502    0 0.00000000E+00 0.00000000E+00 0.41915562E+03 0.41915574E+03 0.32000000E+00 0.0000E+00 0.9000E+01
       21 -1    0    0  501  502 0.00000000E+00 0.00000000E+00 -.17158934E+03 0.17159098E+03 0.75000000E+00 0.0000E+00 0.9000E+01
       25  1    1    2    0    0 -.52104205E+02 -.60920226E+02 0.10408549E+03 0.18134197E+03 0.12500000E+03 0.0000E+00 0.9000E+01
       23  1    1    2    0    0 0.49627724E+02 -.10816411E+02 0.25570470E+03 0.27618843E+03 0.91188000E+02 0.0000E+00 0.9000E+01
        2  1    1    2  501    0 0.24764810E+01 0.71736638E+02 -.11222391E+03 0.13321631E+03 0.32000000E+00 0.0000E+00 0.9000E+01
#aMCatNLO 1  0  0  2  1 0.79636472D+01 0.00000000D+00  -5  6  0 0.00000000D+00 0.00000000D+00 0.00000000D+00 0.00000000D+00 0.00000000D+00
  <mgrwgt>
 0.8930568543D-01    3    2    0
 0.268184927165317D+03 0.000000000000000D+00 0.000000000000000D+00 0.268184927165317D+03
 0.268184927165317D+03 0.000000000000000D+00 0.000000000000000D+00 -.268184927165317D+03
 0.151684757613338D+03 -.521042062097467D+02 -.609202528062471D+02 0.309376822902457D+02
 0.186165544561533D+03 0.496277232098041D+02 -.108164434563259D+02 0.154150745304262D+03
 0.198519552155764D+03 0.247648299994265D+01 0.717366962625730D+02 -.185088427594508D+03
 0.000000000000000D+00 -.000000000000000D+00 -.000000000000000D+00 0.000000000000000D+00
 0.146426009376422D+04 0.000000000000000D+00 0.000000000000000D+00 0.146426009376422D+04
 0.733643203854613D+03 0.000000000000000D+00 0.000000000000000D+00 -.733643203854613D+03
 0.183372397876901D+03 0.130273365587437D+03 -.849389993785719D+01 0.309376822902457D+02
 0.436553401021755D+03 0.388584726057311D+03 0.866203151504673D+02 0.154150745304262D+03
 0.423038759975286D+03 0.340801732406887D+03 0.168991850692524D+03 -.185088427594508D+03
 0.115493873874489D+04 -.859659824051635D+03 -.247118265905134D+03 0.730616889909604D+03
0.379699200677D-04 0.000000000000D+00 0.000000000000D+00 0.654042225987D-06 0.000000000000D+00  6 2 21 25 23 2 21 2 0.64485615D-01 0.26398495D-01 0.26350301D+05 0.26350301D+05 0.26350301D+05 0.12208559D+01  1  2  2  2  6  2       21 0.735224108263D-01 0.100000000000D+01
0.166261658156D-05 0.200372773128D-05 -.766503289978D-07 0.654042225987D-06 0.000000000000D+00  6 2 21 25 23 2 21 4 0.64485615D-01 0.26398495D-01 0.26350301D+05 0.26350301D+05 0.26350301D+05 0.12208559D+01  1  2  3  2  6  2       21 0.479844978151D-02 0.100000000000D+01
0.380613588435D-05 0.000000000000D+00 0.000000000000D+00 0.654042225987D-06 0.000000000000D+00  6 2 21 25 23 2 21 4 0.64485615D-01 0.26398495D-01 0.26350301D+05 0.26350301D+05 0.26350301D+05 0.12208559D+01  1  2 15  2  6  2       21 0.109848248268D-01 0.100000000000D+01
  </mgrwgt>
  </event>
  <event>
  6     66 0.44822969E-03 0.11413943E+02 0.75467711E-02 0.12130209E+00
        2 -1    0    0  502    0 0.00000000E+00 0.00000000E+00 0.15697153E+04 0.15697153E+04 0.32000000E+00 0.0000E+00 0.9000E+01
       21 -1    0    0  501  502 0.00000000E+00 0.00000000E+00 -.54293530E+02 0.54298710E+02 0.75000000E+00 0.0000E+00 0.9000E+01
       25  1    1    2    0    0 -.41147454E+02 -.34089416E+02 0.60979447E+03 0.62476355E+03 0.12500000E+03 0.0000E+00 0.9000E+01
       23  1    1    2    0    0 0.37048068E+02 0.37386222E+02 0.94055085E+03 0.94642561E+03 0.91188000E+02 0.0000E+00 0.9000E+01
        2  1    1    2  503    0 -.15322230E+02 -.10495637E+02 -.13115755E+02 0.22738834E+02 0.32000000E+00 0.0000E+00 0.9000E+01
       21  1    1    2  501  503 0.19421616E+02 0.71988323E+01 -.21807845E+02 0.30085993E+02 0.75000000E+00 0.0000E+00 0.9000E+01
#aMCatNLO 2  0  0  5  2 0.40932959D+01 0.00000000D+00  -5  6  0 0.00000000D+00 0.00000000D+00 0.00000000D+00 0.00000000D+00 0.00000000D+00
  <mgrwgt>
 0.3716924162D+00    1    2    0
 0.291941115337470D+03 0.000000000000000D+00 0.000000000000000D+00 0.291941115337470D+03
 0.291941115337470D+03 -.000000000000000D+00 -.000000000000000D+00 -.291941115337470D+03
 0.155469092288998D+03 -.411627109737455D+02 -.340771460995025D+02 0.754322079497224D+02
 0.192165712054322D+03 0.370292279174290D+02 0.374013730829416D+02 0.160755662782666D+03
 0.236247426331619D+03 0.413348305631636D+01 -.332422698343897D+01 -.236187870732388D+03
 0.000000000000000D+00 0.000000000000000D+00 0.000000000000000D+00 0.000000000000000D+00
 0.291941115337470D+03 0.000000000000000D+00 0.000000000000000D+00 0.291941115337470D+03
 0.291941115337470D+03 -.000000000000000D+00 -.000000000000000D+00 -.291941115337470D+03
 0.155047883093912D+03 -.411474994183694D+02 -.340893795264096D+02 0.745630172875469D+02
 0.191269433139707D+03 0.370480115763161D+02 0.373862669013341D+02 0.159682361565103D+03
 0.969650125149031D+02 -.153001719652097D+02 -.104761986496030D+02 -.951754571919903D+02
 0.140599901926417D+03 0.193996598072628D+02 0.717931127467867D+01 -.139069921660659D+03
0.876442787144D-04 0.000000000000D+00 0.000000000000D+00 0.187848264468D-03 0.521651400602D-06  6 2 21 25 23 2 21 4 0.24149505D+00 0.83532518D-02 0.19664224D+05 0.19664224D+05 0.19664224D+05 0.12346364D+01  1  2  1  3  6  5        2 0.371692416243D+00 0.100000000000D+01
  </mgrwgt>
  </event>
  <event>
  5     66 0.44822969E-03 0.10920729E+03 0.75467711E-02 0.11344698E+00
        2 -1    0    0  502    0 0.00000000E+00 0.00000000E+00 0.84099921E+03 0.84099928E+03 0.32000000E+00 0.0000E+00 0.9000E+01
       21 -1    0    0  501  502 0.00000000E+00 0.00000000E+00 -.65560922E+02 0.65565212E+02 0.75000000E+00 0.0000E+00 0.9000E+01
       25  1    1    2    0    0 -.28425110E+02 0.24629648E+02 0.69260536E+02 0.14777222E+03 0.12500000E+03 0.0000E+00 0.9000E+01
       23  1    1    2    0    0 0.13373014E+03 0.20249263E+02 0.40879460E+03 0.44013868E+03 0.91188000E+02 0.0000E+00 0.9000E+01
        2  1    1    2  501    0 -.10530503E+03 -.44878911E+02 0.29738315E+03 0.31865359E+03 0.32000000E+00 0.0000E+00 0.9000E+01
#aMCatNLO 1  0  0  2  5 0.28808443D+02 0.00000000D+00  -5  6  0 0.00000000D+00 0.00000000D+00 0.00000000D+00 0.00000000D+00 0.00000000D+00
  <mgrwgt>
 0.4555423696D-01   32    2    0
 0.234816217740670D+03 0.000000000000000D+00 0.000000000000000D+00 0.234816217740670D+03
 0.234816217740670D+03 0.000000000000000D+00 0.000000000000000D+00 -.234816217740670D+03
 0.170894891776270D+03 -.284249828741430D+02 0.246297024235538D+02 -.110297153827082D+03
 0.174645414551743D+03 0.133730267855719D+03 0.202493180275512D+02 0.623854955787547D+02
 0.124092129153328D+03 -.105305284981576D+03 -.448790204511050D+02 0.479116582483270D+02
 0.000000000000000D+00 0.000000000000000D+00 -.000000000000000D+00 -.000000000000000D+00
 0.240583392089330D+03 0.000000000000000D+00 0.000000000000000D+00 0.240583392089330D+03
 0.274215473106945D+03 0.000000000000000D+00 0.000000000000000D+00 -.274215473106945D+03
 0.173127345847420D+03 -.388916072074190D+02 0.258854906586904D+02 -.110297153827082D+03
 0.166976726279821D+03 0.123336664707528D+03 0.214963451624299D+02 0.623854955787547D+02
 0.130411125109287D+03 -.113048359883835D+03 -.439500043656491D+02 0.479116582483270D+02
 0.442836679597464D+02 0.286033023837267D+02 -.343183145547117D+01 -.336320810176148D+02
0.203624251969D-05 0.000000000000D+00 0.000000000000D+00 0.431672001148D-07 0.000000000000D+00  6 2 21 25 23 2 21 2 0.12938483D+00 0.10086630D-01 0.41642212D+05 0.41642212D+05 0.41642212D+05 0.12002298D+01  1  2  2  2  6  2       21 0.985335689705D-02 0.100000000000D+01
-.210751182938D-06 0.107455469936D-06 -.411058697978D-08 0.431672001148D-07 0.000000000000D+00  6 2 21 25 23 2 21 4 0.12938483D+00 0.10086630D-01 0.41642212D+05 0.41642212D+05 0.41642212D+05 0.12002298D+01  1  2  3  2  6  2       21 -.146910748531D-02 0.100000000000D+01
0.189060132628D-06 0.000000000000D+00 0.000000000000D+00 0.431672001148D-07 0.000000000000D+00  6 2 21 25 23 2 21 4 0.12938483D+00 0.10086630D-01 0.41642212D+05 0.41642212D+05 0.41642212D+05 0.12002298D+01  1  2 15  2  6  2       21 0.131790318870D-02 0.100000000000D+01
0.781131786958D-05 0.000000000000D+00 0.000000000000D+00 0.427196670967D-07 0.000000000000D+00  6 2 21 25 23 2 21 4 0.12938483D+00 0.11889037D-01 0.48055097D+05 0.48055097D+05 0.48055097D+05 0.11939920D+01  1  2 12  2  6  2       21 0.396918520088D-01 0.100000000000D+01
0.691855516714D-05 0.000000000000D+00 0.000000000000D+00 0.427196670967D-07 0.000000000000D+00  6 2 21 25 23 2 21 4 0.12938483D+00 0.12110998D-01 0.48055097D+05 0.48055097D+05 0.48055097D+05 0.11939920D+01  1  2 12  2  6  2       21 0.340077398514D-01 0.100000000000D+01
-.110583913563D-04 0.000000000000D+00 0.000000000000D+00 0.431672001148D-07 0.000000000000D+00  6 2 21 25 23 2 21 4 0.12938483D+00 0.10086630D-01 0.41642212D+05 0.41642212D+05 0.41642212D+05 0.12002298D+01  1  2  4  2  6  2       21 -.770859991890D-01 0.100000000000D+01
-.250345605185D-04 0.000000000000D+00 -.402153702051D-05 0.431672001148D-07 0.000000000000D+00  6 2 21 25 23 2 21 4 0.12938483D+00 0.12050690D-01 0.41642212D+05 0.41642212D+05 0.41642212D+05 0.12002298D+01  1  2  5  2  6  2       21 -.127124278459D+00 0.100000000000D+01
0.240398615979D-04 0.000000000000D+00 0.377793906418D-05 0.431672001148D-07 0.000000000000D+00  6 2 21 25 23 2 21 4 0.12938483D+00 0.10086630D-01 0.41642212D+05 0.41642212D+05 0.41642212D+05 0.12002298D+01  1  2  6  2  6  2       21 0.167577425317D+00 0.100000000000D+01
0.354544197278D-06 0.000000000000D+00 0.000000000000D+00 0.427196670967D-07 0.000000000000D+00  6 2 -1 25 23 2 -1 4 0.12938483D+00 0.11889037D-01 0.48055097D+05 0.48055097D+05 0.48055097D+05 0.11939920D+01  1  2 12  5  6  2       21 0.126562476830D-03 0.100000000000D+01
0.354544197278D-06 0.000000000000D+00 0.000000000000D+00 0.427196670967D-07 0.000000000000D+00  6 2 -3 25 23 2 -3 4 0.12938483D+00 0.11889037D-01 0.48055097D+05 0.48055097D+05 0.48055097D+05 0.11939920D+01  1  2 12  5  6  2       21 0.829791390033D-04 0.100000000000D+01
0.356522636876D-06 0.000000000000D+00 0.000000000000D+00 0.427196670967D-07 0.000000000000D+00  6 2 -1 25 23 2 -1 4 0.12938483D+00 0.12110998D-01 0.48055097D+05 0.48055097D+05 0.48055097D+05 0.11939920D+01  1  2 12  5  6  2       21 0.123646443506D-03 0.100000000000D+01
0.356522636876D-06 0.000000000000D+00 0.000000000000D+00 0.427196670967D-07 0.000000000000D+00  6 2 -3 25 23 2 -3 4 0.12938483D+00 0.12110998D-01 0.48055097D+05 0.48055097D+05 0.48055097D+05 0.11939920D+01  1  2 12  5  6  2       21 0.808685469802D-04 0.100000000000D+01
-.117444893805D-05 0.000000000000D+00 -.200494610454D-06 0.431672001148D-07 0.000000000000D+00  6 2 -1 25 23 2 -1 4 0.12938483D+00 0.12050690D-01 0.41642212D+05 0.41642212D+05 0.41642212D+05 0.12002298D+01  1  2  5  5  6  2       21 -.418943022652D-03 0.100000000000D+01
-.117444893805D-05 0.000000000000D+00 -.200494610454D-06 0.431672001148D-07 0.000000000000D+00  6 2 -3 25 23 2 -3 4 0.12938483D+00 0.12050690D-01 0.41642212D+05 0.41642212D+05 0.41642212D+05 0.12002298D+01  1  2  5  5  6  2       21 -.273382121067D-03 0.100000000000D+01
0.354544197278D-06 0.000000000000D+00 0.000000000000D+00 0.427196670967D-07 0.000000000000D+00  6 2 1 25 23 2 1 4 0.12938483D+00 0.11889037D-01 0.48055097D+05 0.48055097D+05 0.48055097D+05 0.11939920D+01  1  2 12  6  6  2       21 0.164423424605D-03 0.100000000000D+01
0.354544197278D-06 0.000000000000D+00 0.000000000000D+00 0.427196670967D-07 0.000000000000D+00  6 2 3 25 23 2 3 4 0.12938483D+00 0.11889037D-01 0.48055097D+05 0.48055097D+05 0.48055097D+05 0.11939920D+01  1  2 12  6  6  2       21 0.829694180537D-04 0.100000000000D+01
0.356522636876D-06 0.000000000000D+00 0.000000000000D+00 0.427196670967D-07 0.000000000000D+00  6 2 1 25 23 2 1 4 0.12938483D+00 0.12110998D-01 0.48055097D+05 0.48055097D+05 0.48055097D+05 0.11939920D+01  1  2 12  6  6  2       21 0.161324198903D-03 0.100000000000D+01
0.356522636876D-06 0.000000000000D+00 0.000000000000D+00 0.427196670967D-07 0.000000000000D+00  6 2 3 25 23 2 3 4 0.12938483D+00 0.12110998D-01 0.48055097D+05 0.48055097D+05 0.48055097D+05 0.11939920D+01  1  2 12  6  6  2       21 0.808590894285D-04 0.100000000000D+01
-.117444893805D-05 0.000000000000D+00 -.200494610454D-06 0.431672001148D-07 0.000000000000D+00  6 2 1 25 23 2 1 4 0.12938483D+00 0.12050690D-01 0.41642212D+05 0.41642212D+05 0.41642212D+05 0.12002298D+01  1  2  5  6  6  2       21 -.546059542012D-03 0.100000000000D+01
-.117444893805D-05 0.000000000000D+00 -.200494610454D-06 0.431672001148D-07 0.000000000000D+00  6 2 3 25 23 2 3 4 0.12938483D+00 0.12050690D-01 0.41642212D+05 0.41642212D+05 0.41642212D+05 0.12002298D+01  1  2  5  6  6  2       21 -.273349669399D-03 0.100000000000D+01
0.354544197278D-06 0.000000000000D+00 0.000000000000D+00 0.427196670967D-07 0.000000000000D+00  6 2 -2 25 23 2 -2 4 0.12938483D+00 0.11889037D-01 0.48055097D+05 0.48055097D+05 0.48055097D+05 0.11939920D+01  1  2 12  7  6  2       21 0.120033085663D-03 0.100000000000D+01
0.356522636876D-06 0.000000000000D+00 0.000000000000D+00 0.427196670967D-07 0.000000000000D+00  6 2 -2 25 23 2 -2 4 0.12938483D+00 0.12110998D-01 0.48055097D+05 0.48055097D+05 0.48055097D+05 0.11939920D+01  1  2 12  7  6  2       21 0.117151807904D-03 0.100000000000D+01
-.117444893805D-05 0.000000000000D+00 -.200494610454D-06 0.431672001148D-07 0.000000000000D+00  6 2 -2 25 23 2 -2 4 0.12938483D+00 0.12050690D-01 0.41642212D+05 0.41642212D+05 0.41642212D+05 0.12002298D+01  1  2  5  7  6  2       21 -.397012535219D-03 0.100000000000D+01
0.354544197278D-06 0.000000000000D+00 0.000000000000D+00 0.427196670967D-07 0.000000000000D+00  6 2 2 25 23 2 2 4 0.12938483D+00 0.11889037D-01 0.48055097D+05 0.48055097D+05 0.48055097D+05 0.11939920D+01  1  2 12  8  6  2       21 0.190350251094D-03 0.100000000000D+01
0.356522636876D-06 0.000000000000D+00 0.000000000000D+00 0.427196670967D-07 0.000000000000D+00  6 2 2 25 23 2 2 4 0.12938483D+00 0.12110998D-01 0.48055097D+05 0.48055097D+05 0.48055097D+05 0.11939920D+01  1  2 12  8  6  2       21 0.187147716355D-03 0.100000000000D+01
-.117444893805D-05 0.000000000000D+00 -.200494610454D-06 0.431672001148D-07 0.000000000000D+00  6 2 2 25 23 2 2 4 0.12938483D+00 0.12050690D-01 0.41642212D+05 0.41642212D+05 0.41642212D+05 0.12002298D+01  1  2  5  8  6  2       21 -.633078095510D-03 0.100000000000D+01
0.354544197278D-06 0.000000000000D+00 0.000000000000D+00 0.427196670967D-07 0.000000000000D+00  6 2 -4 25 23 2 -4 4 0.12938483D+00 0.11889037D-01 0.48055097D+05 0.48055097D+05 0.48055097D+05 0.11939920D+01  1  2 12  9  6  2       21 0.726829459626D-04 0.100000000000D+01
0.356522636876D-06 0.000000000000D+00 0.000000000000D+00 0.427196670967D-07 0.000000000000D+00  6 2 -4 25 23 2 -4 4 0.12938483D+00 0.12110998D-01 0.48055097D+05 0.48055097D+05 0.48055097D+05 0.11939920D+01  1  2 12  9  6  2       21 0.707906680012D-04 0.100000000000D+01
-.117444893805D-05 0.000000000000D+00 -.200494610454D-06 0.431672001148D-07 0.000000000000D+00  6 2 -4 25 23 2 -4 4 0.12938483D+00 0.12050690D-01 0.41642212D+05 0.41642212D+05 0.41642212D+05 0.12002298D+01  1  2  5  9  6  2       21 -.239046502782D-03 0.100000000000D+01
0.354544197278D-06 0.000000000000D+00 0.000000000000D+00 0.427196670967D-07 0.000000000000D+00  6 2 4 25 23 2 4 4 0.12938483D+00 0.11889037D-01 0.48055097D+05 0.48055097D+05 0.48055097D+05 0.11939920D+01  1  2 12 10  6  2       21 0.726829459626D-04 0.100000000000D+01
0.356522636876D-06 0.000000000000D+00 0.000000000000D+00 0.427196670967D-07 0.000000000000D+00  6 2 4 25 23 2 4 4 0.12938483D+00 0.12110998D-01 0.48055097D+05 0.48055097D+05 0.48055097D+05 0.11939920D+01  1  2 12 10  6  2       21 0.707906680012D-04 0.100000000000D+01
-.117444893805D-05 0.000000000000D+00 -.200494610454D-06 0.431672001148D-07 0.000000000000D+00  6 2 4 25 23 2 4 4 0.12938483D+00 0.12050690D-01 0.41642212D+05 0.41642212D+05 0.41642212D+05 0.12002298D+01  1  2  5 10  6  2       21 -.239046502782D-03 0.100000000000D+01
  </mgrwgt>
  </event>
  <event>
  6     66 0.44822969E-03 0.87799117E+02 0.75467711E-02 0.10557782E+00
        2 -1    0    0  502    0 0.00000000E+00 0.00000000E+00 0.19612562E+04 0.19612562E+04 0.32000000E+00 0.0000E+00 0.9000E+01
       21 -1    0    0  501  502 0.00000000E+00 0.00000000E+00 -.37257891E+03 0.37257966E+03 0.75000000E+00 0.0000E+00 0.9000E+01
       25  1    1    2    0    0 -.92765648E+02 0.25897736E+03 0.11639408E+04 0.12025214E+04 0.12500000E+03 0.0000E+00 0.9000E+01
       23  1    1    2    0    0 0.19728718E+03 -.22263514E+03 0.73421814E+03 0.79742095E+03 0.91188000E+02 0.0000E+00 0.9000E+01
        2  1    1    2  503    0 -.97697688E+02 -.15256193E+02 -.28038223E+03 0.29730773E+03 0.32000000E+00 0.0000E+00 0.9000E+01
       21  1    1    2  501  503 -.68238450E+01 -.21086020E+02 -.29099360E+02 0.36585795E+02 0.75000000E+00 0.0000E+00 0.9000E+01
#aMCatNLO 2  0  0  5  1 0.17828439D+02 0.00000000D+00  -5  6  0 0.00000000D+00 0.00000000D+00 0.00000000D+00 0.00000000D+00 0.00000000D+00
  <mgrwgt>
 0.3153112191D+00    4    2    0
 0.854823733351397D+03 0.000000000000000D+00 0.000000000000000D+00 0.854823733351397D+03
 0.854823733351397D+03 -.000000000000000D+00 -.000000000000000D+00 -.854823733351397D+03
 0.560612033499022D+03 -.926578164680785D+02 0.259014849548594D+03 0.472214663966077D+03
 0.406666714373470D+03 0.197365410110613D+03 -.222607942696466D+03 0.261830410715849D+03
 0.742368718830302D+03 -.104707593642534D+03 -.364069068521283D+02 -.734045074681926D+03
 0.000000000000000D+00 0.000000000000000D+00 -.000000000000000D+00 0.000000000000000D+00
 0.854823733351397D+03 0.000000000000000D+00 0.000000000000000D+00 0.854823733351397D+03
 0.854823733351397D+03 -.000000000000000D+00 -.000000000000000D+00 -.854823733351397D+03
 0.559975719848541D+03 -.927656863451411D+02 0.258977343113486D+03 0.471458449930306D+03
 0.406290611355404D+03 0.197287153314997D+03 -.222635152641509D+03 0.261281797063448D+03
 0.666420776812743D+03 -.977041515389355D+02 -.152424909522439D+02 -.659043410565136D+03
 0.769603586861068D+02 -.681731543092015D+01 -.210996995197331D+02 -.736968364286183D+02
-.899598853502D-04 0.000000000000D+00 0.000000000000D+00 0.531602252281D-06 0.000000000000D+00  6 2 21 25 23 2 21 4 0.30173179D+00 0.57319892D-01 0.13110819D+06 0.13110819D+06 0.13110819D+06 0.11529182D+01  1  2  8  3  6  5        2 -.412433393622D-02 0.100000000000D+01
-.102525644967D-03 0.000000000000D+00 0.000000000000D+00 0.531602252281D-06 0.000000000000D+00  6 2 21 25 23 2 21 4 0.30173179D+00 0.57319892D-01 0.13110819D+06 0.13110819D+06 0.13110819D+06 0.11529182D+01  1  2  9  3  6  5        2 -.470042836563D-02 0.100000000000D+01
0.113701987570D-03 0.000000000000D+00 0.000000000000D+00 0.531602252281D-06 0.000000000000D+00  6 2 21 25 23 2 21 4 0.30173179D+00 0.57319892D-01 0.13110819D+06 0.13110819D+06 0.13110819D+06 0.11529182D+01  1  2 10  3  6  5        2 0.521282307245D-02 0.100000000000D+01
0.699840072817D-02 0.000000000000D+00 0.000000000000D+00 0.531602252281D-06 0.101045185985D-07  6 2 21 25 23 2 21 4 0.30173179D+00 0.57319892D-01 0.13481798D+06 0.13481798D+06 0.13481798D+06 0.11518376D+01  1  2  1  3  6  5        2 0.318923158341D+00 0.100000000000D+01
  </mgrwgt>
  </event>
  <event>
  5     66 -.44822969E-03 0.34923307E+02 0.75467711E-02 0.12329326E+00
        2 -1    0    0  502    0 0.00000000E+00 0.00000000E+00 0.32733281E+04 0.32733282E+04 0.32000000E+00 0.0000E+00 0.9000E+01
       21 -1    0    0  501  502 0.00000000E+00 0.00000000E+00 -.61791676E+01 0.62245171E+01 0.75000000E+00 0.0000E+00 0.9000E+01
       25  1    1    2    0    0 -.61237163E+01 0.15880722E+02 0.15889372E+04 0.15939373E+04 0.12500000E+03 0.0000E+00 0.9000E+01
       23  1    1    2    0    0 -.83853409E+01 0.15885548E+02 0.15484268E+04 0.15512135E+04 0.91188000E+02 0.0000E+00 0.9000E+01
        2  1    1    2  501    0 0.14509057E+02 -.31766271E+02 0.12978499E+03 0.13440184E+03 0.32000000E+00 0.0000E+00 0.9000E+01
#aMCatNLO 1  0  0  5  2 0.10024293D+02 0.00000000D+00  -5  6  0 0.00000000D+00 0.00000000D+00 0.00000000D+00 0.00000000D+00 0.00000000D+00
  <mgrwgt>
 -.6685411737D-01    6    2    0
 0.142480985889050D+03 0.000000000000000D+00 0.000000000000000D+00 0.142480985889050D+03
 0.142480985889050D+03 -.000000000000000D+00 -.000000000000000D+00 -.142480985889050D+03
 0.126707489228834D+03 -.612381187692828D+01 0.158809315868980D+02 0.118356565809997D+02
 0.994713150151489D+02 -.838541596752055D+01 0.158857126623712D+02 0.354488377680175D+02
 0.587831675341164D+02 0.145092278444488D+02 -.317666442492692D+02 -.472844943490172D+02
 0.000000000000000D+00 0.000000000000000D+00 0.000000000000000D+00 0.000000000000000D+00
 0.142480985889050D+03 0.000000000000000D+00 0.000000000000000D+00 0.142480985889050D+03
 0.142480985889050D+03 -.000000000000000D+00 -.000000000000000D+00 -.142480985889050D+03
 0.126134169218813D+03 -.510439048176829D+01 0.136490004912311D+02 0.851343807871382D+01
 0.982444328389344D+02 -.758825435752326D+01 0.141403992972877D+02 0.328509473738989D+02
 0.503440374084626D+02 0.348604117747981D+01 -.241793951614588D+02 -.440196145953100D+02
 0.102393323118897D+02 0.920660366181172D+01 -.361000462706001D+01 0.265522914269720D+01
0.842167577922D-05 0.000000000000D+00 0.000000000000D+00 0.850317699863D-06 0.000000000000D+00  6 2 21 25 23 2 21 2 0.50359243D+00 0.95413079D-03 0.16131188D+05 0.16131188D+05 0.16131188D+05 0.12442389D+01  1  2  2  3  6  5        2 0.101384365292D+00 0.100000000000D+01
0.335508067631D-06 0.444424040730D-06 -.170009370059D-07 0.850317699863D-06 0.000000000000D+00  6 2 21 25 23 2 21 4 0.50359243D+00 0.95413079D-03 0.16131188D+05 0.16131188D+05 0.16131188D+05 0.12442389D+01  1  2  3  3  6  5        2 0.625292193441D-02 0.100000000000D+01
0.883679870285D-06 0.000000000000D+00 0.000000000000D+00 0.850317699863D-06 0.000000000000D+00  6 2 21 25 23 2 21 4 0.50359243D+00 0.95413079D-03 0.16131188D+05 0.16131188D+05 0.16131188D+05 0.12442389D+01  1  2 15  3  6  5        2 0.164692947115D-01 0.100000000000D+01
-.120630574574D-04 0.000000000000D+00 0.000000000000D+00 0.850317699863D-06 0.000000000000D+00  6 2 21 25 23 2 21 4 0.50359243D+00 0.95413079D-03 0.16131188D+05 0.16131188D+05 0.16131188D+05 0.12442389D+01  1  2  4  3  6  5        2 -.224821290004D+00 0.100000000000D+01
-.793737040816D-05 0.000000000000D+00 0.000000000000D+00 0.850317699863D-06 0.000000000000D+00  6 2 21 25 23 2 21 4 0.50359243D+00 0.95413079D-03 0.16131188D+05 0.16131188D+05 0.16131188D+05 0.12442389D+01  1  2  5  3  6  5        2 -.147930146292D+00 0.100000000000D+01
0.975420123903D-05 0.000000000000D+00 -.000000000000D+00 0.850317699863D-06 0.000000000000D+00  6 2 21 25 23 2 21 4 0.50359243D+00 0.95413079D-03 0.16131188D+05 0.16131188D+05 0.16131188D+05 0.12442389D+01  1  2  6  3  6  5        2 0.181790736988D+00 0.100000000000D+01
  </mgrwgt>
  </event>
  <event>
  6     66 -.44822969E-03 0.34520516E+02 0.75467711E-02 0.11869261E+00
        2 -1    0    0  502    0 0.00000000E+00 0.00000000E+00 0.79983050E+03 0.79983057E+03 0.32000000E+00 0.0000E+00 0.9000E+01
       21 -1    0    0  503  502 0.00000000E+00 0.00000000E+00 -.21093603E+03 0.21093736E+03 0.75000000E+00 0.0000E+00 0.9000E+01
       25  1    1    2    0    0 0.66764332E+02 0.34511734E+02 0.48000590E+03 0.50167639E+03 0.12500000E+03 0.0000E+00 0.9000E+01
       23  1    1    2    0    0 -.42763921E+02 0.36268260E+00 0.28640041E+03 0.30359402E+03 0.91188000E+02 0.0000E+00 0.9000E+01
        2  1    1    2  501    0 -.45511039E+02 -.16883402E+02 -.16951340E+03 0.17632696E+03 0.32000000E+00 0.0000E+00 0.9000E+01
       21  1    1    2  503  501 0.21510627E+02 -.17991015E+02 -.79984364E+01 0.29170554E+02 0.75000000E+00 0.0000E+00 0.9000E+01
#aMCatNLO 2  0  0  2  1 0.28042534D+02 0.00000000D+00  -5  6  0 0.00000000D+00 0.00000000D+00 0.00000000D+00 0.00000000D+00 0.00000000D+00
  <mgrwgt>
 -.1750840912D+00    2    2    0
 0.389379595165947D+03 0.000000000000000D+00 0.000000000000000D+00 0.389379595165947D+03
 0.389379595165947D+03 0.000000000000000D+00 0.000000000000000D+00 -.389379595165947D+03
 0.265483072248043D+03 0.740782276491558D+02 0.283945609699404D+02 0.220368842502618D+03
 0.161963207033231D+03 -.382767086016786D+02 -.339031790515803D+01 0.128219454107453D+03
 0.351312911050620D+03 -.358015190474772D+02 -.250042430647824D+02 -.348588296610072D+03
 0.000000000000000D+00 0.000000000000000D+00 -.000000000000000D+00 -.000000000000000D+00
 0.394854803877776D+03 0.000000000000000D+00 0.000000000000000D+00 0.394854803877776D+03
 0.427273516186184D+03 0.000000000000000D+00 0.000000000000000D+00 -.427273516186184D+03
 0.264264949302470D+03 0.667643359943742D+02 0.345117389177033D+02 0.220368842502618D+03
 0.163047121974325D+03 -.427639180604110D+02 0.362685289797001D+00 0.128219454107453D+03
 0.351951850789627D+03 -.455110452061038D+02 -.168834091634562D+02 -.348588296610072D+03
 0.428643979975379D+02 0.215106272721407D+02 -.179910150440441D+02 -.324187123084084D+02
-.211778800504D-03 0.000000000000D+00 0.000000000000D+00 0.959239153146D-05 0.000000000000D+00  6 2 21 25 23 2 21 4 0.12134368D+00 0.32646717D-01 0.26107599D+05 0.26107599D+05 0.26107599D+05 0.12212843D+01  1  2 13  2  6  2       21 -.196861959811D+00 0.100000000000D+01
0.235619866554D-04 0.000000000000D+00 0.000000000000D+00 0.974915678233D-05 0.850142742769D-07  6 2 21 25 23 2 21 4 0.12304994D+00 0.32451537D-01 0.26107599D+05 0.26107599D+05 0.26107599D+05 0.12212843D+01  1  2  1  2  6  2       21 0.217778685977D-01 0.100000000000D+01
  </mgrwgt>
  </event>
  <event>
  5     66 0.44822969E-03 0.26759781E+02 0.75467711E-02 0.12344755E+00
        2 -1    0    0  502    0 0.00000000E+00 0.00000000E+00 0.95462353E+03 0.95462359E+03 0.32000000E+00 0.0000E+00 0.9000E+01
       21 -1    0    0  501  502 0.00000000E+00 0.00000000E+00 -.18106988E+02 0.18122514E+02 0.75000000E+00 0.0000E+00 0.9000E+01
       25  1    1    2    0    0 0.18523640E+02 0.28067566E+02 0.55417347E+03 0.56909063E+03 0.12500000E+03 0.0000E+00 0.9000E+01
       23  1    1    2    0    0 -.24927821E+02 -.20863016E+01 0.34493611E+03 0.35766174E+03 0.91188000E+02 0.0000E+00 0.9000E+01
        2  1    1    2  501    0 0.64041804E+01 -.25981264E+02 0.37406965E+02 0.45993728E+02 0.32000000E+00 0.0000E+00 0.9000E+01
#aMCatNLO 1  0  0  5  2 0.61201704D+01 0.00000000D+00  -5  6  0 0.00000000D+00 0.00000000D+00 0.00000000D+00 0.00000000D+00 0.00000000D+00
  <mgrwgt>
 0.2925189063D+00    7    2    0
 0.131502602448392D+03 0.000000000000000D+00 0.000000000000000D+00 0.131502602448392D+03
 0.131502602448392D+03 -.000000000000000D+00 -.000000000000000D+00 -.131502602448392D+03
 0.131511145658815D+03 0.185235197572396D+02 0.280680537536159D+02 0.232216495275698D+02
 0.945825200224381D+02 -.249279070996252D+02 -.208595044300492D+01 0.220227341097645D+01
 0.369115392155314D+02 0.640438734238559D+01 -.259821033106110D+02 -.254239229385463D+02
 0.000000000000000D+00 0.000000000000000D+00 -.000000000000000D+00 0.000000000000000D+00
 0.131502602448392D+03 0.000000000000000D+00 0.000000000000000D+00 0.131502602448392D+03
 0.131502602448392D+03 -.000000000000000D+00 -.000000000000000D+00 -.131502602448392D+03
 0.131255875438873D+03 0.187052873447381D+02 0.273306367323733D+02 0.225000746305141D+02
 0.945506514794416D+02 -.247970753074307D+02 -.261672488861250D+01 0.168290173265025D+01
 0.201719226693880D+02 0.319570481815021D+01 -.926806571857217D+01 -.176294325697468D+02
 0.170267553090819D+02 0.289608314454237D+01 -.154458461251886D+02 -.655354379341758D+01
0.356042885028D-05 0.000000000000D+00 0.000000000000D+00 0.864618863729D-06 0.000000000000D+00  6 2 21 25 23 2 21 2 0.14686636D+00 0.27868889D-02 0.15720318D+05 0.15720318D+05 0.15720318D+05 0.12455070D+01  1  2  2  3  6  5        2 0.138896405915D+00 0.100000000000D+01
0.181408894259D-06 0.187888992388D-06 -.718748004369D-08 0.864618863729D-06 0.000000000000D+00  6 2 21 25 23 2 21 4 0.14686636D+00 0.27868889D-02 0.15720318D+05 0.15720318D+05 0.15720318D+05 0.12455070D+01  1  2  3  3  6  5        2 0.109784142258D-01 0.100000000000D+01
0.215145105374D-06 0.000000000000D+00 0.000000000000D+00 0.864618863729D-06 0.000000000000D+00  6 2 21 25 23 2 21 4 0.14686636D+00 0.27868889D-02 0.15720318D+05 0.15720318D+05 0.15720318D+05 0.12455070D+01  1  2 15  3  6  5        2 0.130200456548D-01 0.100000000000D+01
0.366883118849D-05 0.000000000000D+00 0.000000000000D+00 0.865381622560D-06 0.000000000000D+00  6 2 21 25 23 2 21 4 0.14686636D+00 0.27868889D-02 0.15546004D+05 0.15546004D+05 0.15546004D+05 0.12460563D+01  1  2 12  3  6  5        2 0.222375948149D+00 0.100000000000D+01
-.576906110791D-05 0.000000000000D+00 0.000000000000D+00 0.864618863729D-06 0.000000000000D+00  6 2 21 25 23 2 21 4 0.14686636D+00 0.27868889D-02 0.15720318D+05 0.15720318D+05 0.15720318D+05 0.12455070D+01  1  2  4  3  6  5        2 -.349129202265D+00 0.100000000000D+01
-.439931877416D-05 0.000000000000D+00 0.000000000000D+00 0.864618863729D-06 0.000000000000D+00  6 2 21 25 23 2 21 4 0.14686636D+00 0.27868889D-02 0.15720318D+05 0.15720318D+05 0.15720318D+05 0.12455070D+01  1  2  5  3  6  5        2 -.266235809502D+00 0.100000000000D+01
0.863573403197D-05 0.000000000000D+00 -.000000000000D+00 0.864618863729D-06 0.000000000000D+00  6 2 21 25 23 2 21 4 0.14686636D+00 0.27868889D-02 0.15720318D+05 0.15720318D+05 0.15720318D+05 0.12455070D+01  1  2  6  3  6  5        2 0.522613104135D+00 0.100000000000D+01
  </mgrwgt>
  </event>
  <event>
  5     66 0.44822969E-03 0.85237748E+02 0.75467711E-02 0.11148185E+00
        2 -1    0    0  502    0 0.00000000E+00 0.00000000E+00 0.28784906E+04 0.28784906E+04 0.32000000E+00 0.0000E+00 0.9000E+01
       21 -1    0    0  501  502 0.00000000E+00 0.00000000E+00 -.16870503E+02 0.16887166E+02 0.75000000E+00 0.0000E+00 0.9000E+01
       25  1    1    2    0    0 0.34283560E+02 0.55072710E+02 0.53055001E+03 0.54892320E+03 0.12500000E+03 0.0000E+00 0.9000E+01
       23  1    1    2    0    0 -.12261584E+03 -.82691707E+02 0.16506605E+04 0.16597794E+04 0.91188000E+02 0.0000E+00 0.9000E+01
        2  1    1    2  501    0 0.88332279E+02 0.27618997E+02 0.68040964E+03 0.68667517E+03 0.32000000E+00 0.0000E+00 0.9000E+01
#aMCatNLO 1  0  0  2  5 0.80787046D+02 0.00000000D+00  -5  6  0 0.00000000D+00 0.00000000D+00 0.00000000D+00 0.00000000D+00 0.00000000D+00
  <mgrwgt>
 0.4540828824D-01   32    2    0
 0.220421717988111D+03 0.000000000000000D+00 0.000000000000000D+00 0.220421717988111D+03
 0.220421717988111D+03 0.000000000000000D+00 0.000000000000000D+00 -.220421717988111D+03
 0.161298635929027D+03 0.342833698543137D+02 0.550726507788222D+02 -.786378003265025D+02
 0.186291592699658D+03 -.122616059192983D+03 -.826917756540495D+02 0.672062380567337D+02
 0.932532073475379D+02 0.883326893386695D+02 0.276191248752273D+02 0.114315622697689D+02
 0.000000000000000D+00 -.000000000000000D+00 0.000000000000000D+00 -.000000000000000D+00
 0.236349198984296D+03 0.000000000000000D+00 0.000000000000000D+00 0.236349198984296D+03
 0.357212468703208D+03 0.000000000000000D+00 0.000000000000000D+00 -.357212468703208D+03
 0.156065532022343D+03 0.423908173442019D+02 0.273964459395141D+02 -.786378003265025D+02
 0.197619533076556D+03 -.112808590022451D+03 -.116171304945775D+03 0.672062380567337D+02
 0.944995864613981D+02 0.931290591579587D+02 0.112458688326462D+02 0.114315622697689D+02
 0.145377016127207D+03 -.227112864797091D+02 0.775289901736143D+02 -.120863269718912D+03
0.711320945076D-05 0.000000000000D+00 0.000000000000D+00 0.513753709497D-07 0.000000000000D+00  6 2 21 25 23 2 21 2 0.44284599D+00 0.25967452D-02 0.41438177D+05 0.41438177D+05 0.41438177D+05 0.12004455D+01  1  2  2  2  6  2       21 0.264669723979D-01 0.100000000000D+01
-.529442179532D-06 0.375374375545D-06 -.143595204746D-07 0.513753709497D-07 0.000000000000D+00  6 2 21 25 23 2 21 4 0.44284599D+00 0.25967452D-02 0.41438177D+05 0.41438177D+05 0.41438177D+05 0.12004455D+01  1  2  3  2  6  2       21 -.283884791327D-02 0.100000000000D+01
0.326723412507D-06 0.000000000000D+00 0.000000000000D+00 0.513753709497D-07 0.000000000000D+00  6 2 21 25 23 2 21 4 0.44284599D+00 0.25967452D-02 0.41438177D+05 0.41438177D+05 0.41438177D+05 0.12004455D+01  1  2 15  2  6  2       21 0.175187794564D-02 0.100000000000D+01
0.131200861367D-04 0.000000000000D+00 0.000000000000D+00 0.499440877956D-07 0.000000000000D+00  6 2 21 25 23 2 21 4 0.44284599D+00 0.42531900D-02 0.61315425D+05 0.61315425D+05 0.61315425D+05 0.11836056D+01  1  2 12  2  6  2       21 0.286752669113D-01 0.100000000000D+01
0.116472492392D-04 0.000000000000D+00 0.000000000000D+00 0.499440877956D-07 0.000000000000D+00  6 2 21 25 23 2 21 4 0.44284599D+00 0.45842185D-02 0.61315425D+05 0.61315425D+05 0.61315425D+05 0.11836056D+01  1  2 12  2  6  2       21 0.224205332705D-01 0.100000000000D+01
-.151928404422D-04 0.000000000000D+00 0.000000000000D+00 0.513753709497D-07 0.000000000000D+00  6 2 21 25 23 2 21 4 0.44284599D+00 0.25967452D-02 0.41438177D+05 0.41438177D+05 0.41438177D+05 0.12004455D+01  1  2  4  2  6  2       21 -.814634063043D-01 0.100000000000D+01
-.377115794383D-04 0.000000000000D+00 -.890451839176D-05 0.513753709497D-07 0.000000000000D+00  6 2 21 25 23 2 21 4 0.44284599D+00 0.46222757D-02 0.41438177D+05 0.41438177D+05 0.41438177D+05 0.12004455D+01  1  2  5  2  6  2       21 -.772869565043D-01 0.100000000000D+01
0.241886073016D-04 0.000000000000D+00 0.494566267840D-05 0.513753709497D-07 0.000000000000D+00  6 2 21 25 23 2 21 4 0.44284599D+00 0.25967452D-02 0.41438177D+05 0.41438177D+05 0.41438177D+05 0.12004455D+01  1  2  6  2  6  2       21 0.129698350486D+00 0.100000000000D+01
0.225090871854D-05 0.000000000000D+00 0.000000000000D+00 0.499440877956D-07 0.000000000000D+00  6 2 -1 25 23 2 -1 4 0.44284599D+00 0.42531900D-02 0.61315425D+05 0.61315425D+05 0.61315425D+05 0.11836056D+01  1  2 12  5  6  2       21 0.278319831456D-03 0.100000000000D+01
0.225090871854D-05 0.000000000000D+00 0.000000000000D+00 0.499440877956D-07 0.000000000000D+00  6 2 -3 25 23 2 -3 4 0.44284599D+00 0.42531900D-02 0.61315425D+05 0.61315425D+05 0.61315425D+05 0.11836056D+01  1  2 12  5  6  2       21 0.205898718787D-03 0.100000000000D+01
0.234222121150D-05 0.000000000000D+00 0.000000000000D+00 0.499440877956D-07 0.000000000000D+00  6 2 -1 25 23 2 -1 4 0.44284599D+00 0.45842185D-02 0.61315425D+05 0.61315425D+05 0.61315425D+05 0.11836056D+01  1  2 12  5  6  2       21 0.258914098055D-03 0.100000000000D+01
0.234222121150D-05 0.000000000000D+00 0.000000000000D+00 0.499440877956D-07 0.000000000000D+00  6 2 -3 25 23 2 -3 4 0.44284599D+00 0.45842185D-02 0.61315425D+05 0.61315425D+05 0.61315425D+05 0.11836056D+01  1  2 12  5  6  2       21 0.190154929253D-03 0.100000000000D+01
-.705284062795D-05 0.000000000000D+00 -.181900806847D-05 0.513753709497D-07 0.000000000000D+00  6 2 -1 25 23 2 -1 4 0.44284599D+00 0.46222757D-02 0.41438177D+05 0.41438177D+05 0.41438177D+05 0.12004455D+01  1  2  5  5  6  2       21 -.824691194926D-03 0.100000000000D+01
-.705284062795D-05 0.000000000000D+00 -.181900806847D-05 0.513753709497D-07 0.000000000000D+00  6 2 -3 25 23 2 -3 4 0.44284599D+00 0.46222757D-02 0.41438177D+05 0.41438177D+05 0.41438177D+05 0.12004455D+01  1  2  5  5  6  2       21 -.600750979523D-03 0.100000000000D+01
0.225090871854D-05 0.000000000000D+00 0.000000000000D+00 0.499440877956D-07 0.000000000000D+00  6 2 1 25 23 2 1 4 0.44284599D+00 0.42531900D-02 0.61315425D+05 0.61315425D+05 0.61315425D+05 0.11836056D+01  1  2 12  6  6  2       21 0.307946096742D-03 0.100000000000D+01
0.225090871854D-05 0.000000000000D+00 0.000000000000D+00 0.499440877956D-07 0.000000000000D+00  6 2 3 25 23 2 3 4 0.44284599D+00 0.42531900D-02 0.61315425D+05 0.61315425D+05 0.61315425D+05 0.11836056D+01  1  2 12  6  6  2       21 0.205881612290D-03 0.100000000000D+01
0.234222121150D-05 0.000000000000D+00 0.000000000000D+00 0.499440877956D-07 0.000000000000D+00  6 2 1 25 23 2 1 4 0.44284599D+00 0.45842185D-02 0.61315425D+05 0.61315425D+05 0.61315425D+05 0.11836056D+01  1  2 12  6  6  2       21 0.288639674225D-03 0.100000000000D+01
0.234222121150D-05 0.000000000000D+00 0.000000000000D+00 0.499440877956D-07 0.000000000000D+00  6 2 3 25 23 2 3 4 0.44284599D+00 0.45842185D-02 0.61315425D+05 0.61315425D+05 0.61315425D+05 0.11836056D+01  1  2 12  6  6  2       21 0.190138490303D-03 0.100000000000D+01
-.705284062795D-05 0.000000000000D+00 -.181900806847D-05 0.513753709497D-07 0.000000000000D+00  6 2 1 25 23 2 1 4 0.44284599D+00 0.46222757D-02 0.41438177D+05 0.41438177D+05 0.41438177D+05 0.12004455D+01  1  2  5  6  6  2       21 -.920632431208D-03 0.100000000000D+01
-.705284062795D-05 0.000000000000D+00 -.181900806847D-05 0.513753709497D-07 0.000000000000D+00  6 2 3 25 23 2 3 4 0.44284599D+00 0.46222757D-02 0.41438177D+05 0.41438177D+05 0.41438177D+05 0.12004455D+01  1  2  5  6  6  2       21 -.600697260806D-03 0.100000000000D+01
0.225090871854D-05 0.000000000000D+00 0.000000000000D+00 0.499440877956D-07 0.000000000000D+00  6 2 -2 25 23 2 -2 4 0.44284599D+00 0.42531900D-02 0.61315425D+05 0.61315425D+05 0.61315425D+05 0.11836056D+01  1  2 12  7  6  2       21 0.273083772599D-03 0.100000000000D+01
0.234222121150D-05 0.000000000000D+00 0.000000000000D+00 0.499440877956D-07 0.000000000000D+00  6 2 -2 25 23 2 -2 4 0.44284599D+00 0.45842185D-02 0.61315425D+05 0.61315425D+05 0.61315425D+05 0.11836056D+01  1  2 12  7  6  2       21 0.253673413259D-03 0.100000000000D+01
-.705284062795D-05 0.000000000000D+00 -.181900806847D-05 0.513753709497D-07 0.000000000000D+00  6 2 -2 25 23 2 -2 4 0.44284599D+00 0.46222757D-02 0.41438177D+05 0.41438177D+05 0.41438177D+05 0.12004455D+01  1  2  5  7  6  2       21 -.807761562782D-03 0.100000000000D+01
0.225090871854D-05 0.000000000000D+00 0.000000000000D+00 0.499440877956D-07 0.000000000000D+00  6 2 2 25 23 2 2 4 0.44284599D+00 0.42531900D-02 0.61315425D+05 0.61315425D+05 0.61315425D+05 0.11836056D+01  1  2 12  8  6  2       21 0.327989986002D-03 0.100000000000D+01
0.234222121150D-05 0.000000000000D+00 0.000000000000D+00 0.499440877956D-07 0.000000000000D+00  6 2 2 25 23 2 2 4 0.44284599D+00 0.45842185D-02 0.61315425D+05 0.61315425D+05 0.61315425D+05 0.11836056D+01  1  2 12  8  6  2       21 0.308727776867D-03 0.100000000000D+01
-.705284062795D-05 0.000000000000D+00 -.181900806847D-05 0.513753709497D-07 0.000000000000D+00  6 2 2 25 23 2 2 4 0.44284599D+00 0.46222757D-02 0.41438177D+05 0.41438177D+05 0.41438177D+05 0.12004455D+01  1  2  5  8  6  2       21 -.985360535559D-03 0.100000000000D+01
0.225090871854D-05 0.000000000000D+00 0.000000000000D+00 0.499440877956D-07 0.000000000000D+00  6 2 -4 25 23 2 -4 4 0.44284599D+00 0.42531900D-02 0.61315425D+05 0.61315425D+05 0.61315425D+05 0.11836056D+01  1  2 12  9  6  2       21 0.186075494449D-03 0.100000000000D+01
0.234222121150D-05 0.000000000000D+00 0.000000000000D+00 0.499440877956D-07 0.000000000000D+00  6 2 -4 25 23 2 -4 4 0.44284599D+00 0.45842185D-02 0.61315425D+05 0.61315425D+05 0.61315425D+05 0.11836056D+01  1  2 12  9  6  2       21 0.171539154535D-03 0.100000000000D+01
-.705284062795D-05 0.000000000000D+00 -.181900806847D-05 0.513753709497D-07 0.000000000000D+00  6 2 -4 25 23 2 -4 4 0.44284599D+00 0.46222757D-02 0.41438177D+05 0.41438177D+05 0.41438177D+05 0.12004455D+01  1  2  5  9  6  2       21 -.540102891595D-03 0.100000000000D+01
0.225090871854D-05 0.000000000000D+00 0.000000000000D+00 0.499440877956D-07 0.000000000000D+00  6 2 4 25 23 2 4 4 0.44284599D+00 0.42531900D-02 0.61315425D+05 0.61315425D+05 0.61315425D+05 0.11836056D+01  1  2 12 10  6  2       21 0.186075494449D-03 0.100000000000D+01
0.234222121150D-05 0.000000000000D+00 0.000000000000D+00 0.499440877956D-07 0.000000000000D+00  6 2 4 25 23 2 4 4 0.44284599D+00 0.45842185D-02 0.61315425D+05 0.61315425D+05 0.61315425D+05 0.11836056D+01  1  2 12 10  6  2       21 0.171539154535D-03 0.100000000000D+01
-.705284062795D-05 0.000000000000D+00 -.181900806847D-05 0.513753709497D-07 0.000000000000D+00  6 2 4 25 23 2 4 4 0.44284599D+00 0.46222757D-02 0.41438177D+05 0.41438177D+05 0.41438177D+05 0.12004455D+01  1  2  5 10  6  2       21 -.540102891595D-03 0.100000000000D+01
  </mgrwgt>
  </event>
  <event>
  5     66 0.44822969E-03 0.62115024E+02 0.75467711E-02 0.11991762E+00
        2 -1    0    0  502    0 0.00000000E+00 0.00000000E+00 0.69758020E+03 0.69758028E+03 0.32000000E+00 0.0000E+00 0.9000E+01
       21 -1    0    0  501  502 0.00000000E+00 0.00000000E+00 -.60221203E+02 0.60225873E+02 0.75000000E+00 0.0000E+00 0.9000E+01
       25  1    1    2    0    0 0.65766801E+01 -.29717290E+00 0.36339855E+03 0.38435251E+03 0.12500000E+03 0.0000E+00 0.9000E+01
       23  1    1    2    0    0 0.55534288E+02 -.40391362E+00 0.29022733E+03 0.30924323E+03 0.91188000E+02 0.0000E+00 0.9000E+01
        2  1    1    2  501    0 -.62110968E+02 0.70108652E+00 -.16266879E+02 0.64210417E+02 0.32000000E+00 0.0000E+00 0.9000E+01
#aMCatNLO 1  0  0  5  1 0.77864449D+01 0.00000000D+00  -5  6  0 0.00000000D+00 0.00000000D+00 0.00000000D+00 0.00000000D+00 0.00000000D+00
  <mgrwgt>
 0.2298006812D-01    5    2    0
 0.204965646633391D+03 0.000000000000000D+00 0.000000000000000D+00 0.204965646633391D+03
 0.204965646633391D+03 -.000000000000000D+00 -.000000000000000D+00 -.204965646633391D+03
 0.145510675538753D+03 0.657673454702512D+01 -.297173517972056D+00 0.741957879285775D+02
 0.120428586145478D+03 0.555343330154224D+02 -.403914130046184D+00 0.557096735487344D+02
 0.143992031582551D+03 -.621110675624476D+02 0.701087648018233D+00 -.129905461477312D+03
 0.000000000000000D+00 0.000000000000000D+00 0.000000000000000D+00 0.000000000000000D+00
 0.204965646633391D+03 0.000000000000000D+00 0.000000000000000D+00 0.204965646633391D+03
 0.204965646633391D+03 -.000000000000000D+00 -.000000000000000D+00 -.204965646633391D+03
 0.144527550548268D+03 0.568206216866721D+01 -.287074774252039D+00 0.723245782916680D+02
 0.119379378751327D+03 0.547946044451649D+02 -.395564336944136D+00 0.541625292947631D+02
 0.821271108231455D+01 0.266188708289186D+01 -.653457300649319D+01 -.420265821859518D+01
 0.137811652884873D+03 -.631385536967239D+02 0.721721211768936D+01 -.122284449367836D+03
0.306913887563D-05 0.000000000000D+00 0.000000000000D+00 0.968510641169D-06 0.000000000000D+00  6 2 21 25 23 2 21 2 0.10732040D+00 0.92651653D-02 0.21617321D+05 0.21617321D+05 0.21617321D+05 0.12301253D+01  1  2  2  3  6  5        2 0.229425386406D-01 0.100000000000D+01
0.107812553179D-06 0.161962908147D-06 -.619570713179D-08 0.968510641169D-06 0.000000000000D+00  6 2 21 25 23 2 21 4 0.10732040D+00 0.92651653D-02 0.21617321D+05 0.21617321D+05 0.21617321D+05 0.12301253D+01  1  2  3  3  6  5        2 0.121953132051D-02 0.100000000000D+01
0.309642135225D-06 0.000000000000D+00 0.000000000000D+00 0.968510641169D-06 0.000000000000D+00  6 2 21 25 23 2 21 4 0.10732040D+00 0.92651653D-02 0.21617321D+05 0.21617321D+05 0.21617321D+05 0.12301253D+01  1  2 15  3  6  5        2 0.350254465664D-02 0.100000000000D+01
-.423939009652D-06 0.000000000000D+00 0.000000000000D+00 0.968510641169D-06 0.000000000000D+00  6 2 21 25 23 2 21 4 0.10732040D+00 0.92651653D-02 0.21617321D+05 0.21617321D+05 0.21617321D+05 0.12301253D+01  1  2  5  3  6  5        2 -.479542395585D-02 0.100000000000D+01
0.988404448643D-08 0.000000000000D+00 0.000000000000D+00 0.968510641169D-06 0.109080588072D-07  6 2 21 25 23 2 21 4 0.10732040D+00 0.92651653D-02 0.22819194D+05 0.22819194D+05 0.22819194D+05 0.12275705D+01  1  2 11  3  6  5        2 0.110877460202D-03 0.100000000000D+01
  </mgrwgt>
  </event>
  <event>
  5     66 0.44822969E-03 0.50661789E+02 0.75467711E-02 0.12068610E+00
        2 -1    0    0  502    0 0.00000000E+00 0.00000000E+00 0.20983580E+04 0.20983580E+04 0.32000000E+00 0.0000E+00 0.9000E+01
       21 -1    0    0  501  502 0.00000000E+00 0.00000000E+00 -.10804886E+02 0.10830885E+02 0.75000000E+00 0.0000E+00 0.9000E+01
       25  1    1    2    0    0 0.12726565E+02 0.46107723E+01 0.86696228E+03 0.87603186E+03 0.12500000E+03 0.0000E+00 0.9000E+01
       23  1    1    2    0    0 0.34809091E+01 -.55640057E+02 0.10185438E+04 0.10241360E+04 0.91188000E+02 0.0000E+00 0.9000E+01
        2  1    1    2  501    0 -.16207474E+02 0.51029285E+02 0.20204701E+03 0.20902097E+03 0.32000000E+00 0.0000E+00 0.9000E+01
#aMCatNLO 1  0  0  2  1 0.36111789D+01 0.00000000D+00  -5  6  0 0.00000000D+00 0.00000000D+00 0.00000000D+00 0.00000000D+00 0.00000000D+00
  <mgrwgt>
 0.1486176400D+00   32    2    0
 0.150665068936354D+03 0.000000000000000D+00 0.000000000000000D+00 0.150665068936354D+03
 0.150665068936354D+03 0.000000000000000D+00 0.000000000000000D+00 -.150665068936354D+03
 0.125732114341018D+03 0.127266515919357D+02 0.461050044520023D+01 -.583268004457071D+00
 0.112276113323827D+03 0.348098621649737D+01 -.556403000833039D+02 0.343906094843540D+02
 0.633219102078634D+02 -.162076378084330D+02 0.510297996381037D+02 -.338073414798969D+02
 0.000000000000000D+00 0.000000000000000D+00 -.000000000000000D+00 -.000000000000000D+00
 0.152455887094038D+03 0.000000000000000D+00 0.000000000000000D+00 0.152455887094038D+03
 0.152507435240596D+03 0.000000000000000D+00 0.000000000000000D+00 -.152507435240596D+03
 0.125604370499816D+03 0.112570230072025D+02 0.493934409666568D+01 -.583268004457071D+00
 0.112097863103896D+03 0.216901430108983D+01 -.553467336408949D+02 0.343906094843540D+02
 0.636495419072900D+02 -.169500723005510D+02 0.511959265574479D+02 -.338073414798969D+02
 0.361154682363287D+01 0.352403499225862D+01 -.788537013218719D+00 -.515481465578237D-01
0.106182072199D-05 0.000000000000D+00 0.000000000000D+00 0.323678825198D-06 0.000000000000D+00  6 2 21 25 23 2 21 2 0.32282630D+00 0.16642920D-02 0.20470745D+05 0.20470745D+05 0.20470745D+05 0.12327153D+01  1  2  2  2  6  2       21 0.230426433914D-01 0.100000000000D+01
-.200878755719D-07 0.560338189417D-07 -.214351011359D-08 0.323678825198D-06 0.000000000000D+00  6 2 21 25 23 2 21 4 0.32282630D+00 0.16642920D-02 0.20470745D+05 0.20470745D+05 0.20470745D+05 0.12327153D+01  1  2  3  2  6  2       21 -.662431024208D-03 0.100000000000D+01
0.103056068059D-06 0.000000000000D+00 0.000000000000D+00 0.323678825198D-06 0.000000000000D+00  6 2 21 25 23 2 21 4 0.32282630D+00 0.16642920D-02 0.20470745D+05 0.20470745D+05 0.20470745D+05 0.12327153D+01  1  2 15  2  6  2       21 0.339844482164D-02 0.100000000000D+01
0.384484063525D-07 0.000000000000D+00 0.000000000000D+00 0.323039658011D-06 0.000000000000D+00  6 2 21 25 23 2 21 4 0.32282630D+00 0.16944157D-02 0.21001121D+05 0.21001121D+05 0.21001121D+05 0.12314976D+01  1  2 12  2  6  2       21 0.122681588626D-02 0.100000000000D+01
-.317235790615D-05 0.000000000000D+00 0.000000000000D+00 0.323678825198D-06 0.000000000000D+00  6 2 21 25 23 2 21 4 0.32282630D+00 0.16642920D-02 0.20470745D+05 0.20470745D+05 0.20470745D+05 0.12327153D+01  1  2  4  2  6  2       21 -.104613765124D+00 0.100000000000D+01
-.919563730863D-04 0.000000000000D+00 -.123173053530D-04 0.323678825198D-06 0.000000000000D+00  6 2 21 25 23 2 21 4 0.32282630D+00 0.17092925D-02 0.20470745D+05 0.20470745D+05 0.20470745D+05 0.12327153D+01  1  2  5  2  6  2       21 -.290512878997D+01 0.100000000000D+01
0.921514048319D-04 0.000000000000D+00 0.122997878774D-04 0.323678825198D-06 0.000000000000D+00  6 2 21 25 23 2 21 4 0.32282630D+00 0.16642920D-02 0.20470745D+05 0.20470745D+05 0.20470745D+05 0.12327153D+01  1  2  6  2  6  2       21 0.303884546011D+01 0.100000000000D+01
0.309897180273D-05 0.000000000000D+00 0.000000000000D+00 0.323678825198D-06 0.247524036411D-06  6 2 21 25 23 2 21 4 0.32666345D+00 0.16846433D-02 0.21001121D+05 0.21001121D+05 0.21001121D+05 0.12314976D+01  1  2 11  2  6  2       21 0.968917438854D-01 0.100000000000D+01
0.179143555328D-08 0.000000000000D+00 0.000000000000D+00 0.323039658011D-06 0.000000000000D+00  6 2 -1 25 23 2 -1 4 0.32282630D+00 0.16944157D-02 0.21001121D+05 0.21001121D+05 0.21001121D+05 0.12314976D+01  1  2 12  5  6  2       21 0.268020616608D-05 0.100000000000D+01
0.179143555328D-08 0.000000000000D+00 0.000000000000D+00 0.323039658011D-06 0.000000000000D+00  6 2 -3 25 23 2 -3 4 0.32282630D+00 0.16944157D-02 0.21001121D+05 0.21001121D+05 0.21001121D+05 0.12314976D+01  1  2 12  5  6  2       21 0.210229647503D-05 0.100000000000D+01
-.496127405074D-06 0.000000000000D+00 -.759558097471D-07 0.323678825198D-06 0.000000000000D+00  6 2 -1 25 23 2 -1 4 0.32282630D+00 0.17092925D-02 0.20470745D+05 0.20470745D+05 0.20470745D+05 0.12327153D+01  1  2  5  5  6  2       21 -.735728652497D-03 0.100000000000D+01
-.496127405074D-06 0.000000000000D+00 -.759558097471D-07 0.323678825198D-06 0.000000000000D+00  6 2 -3 25 23 2 -3 4 0.32282630D+00 0.17092925D-02 0.20470745D+05 0.20470745D+05 0.20470745D+05 0.12327153D+01  1  2  5  5  6  2       21 -.576410574256D-03 0.100000000000D+01
0.562175610725D-07 0.000000000000D+00 0.000000000000D+00 0.323678825198D-06 0.109559069285D-08  6 2 -1 25 23 2 -1 4 0.32666345D+00 0.16846433D-02 0.21001121D+05 0.21001121D+05 0.21001121D+05 0.12314976D+01  1  2 11  5  6  2       21 0.823352896110D-04 0.100000000000D+01
0.562175610725D-07 0.000000000000D+00 0.000000000000D+00 0.323678825198D-06 0.109559069285D-08  6 2 -3 25 23 2 -3 4 0.32666345D+00 0.16846433D-02 0.21001121D+05 0.21001121D+05 0.21001121D+05 0.12314976D+01  1  2 11  5  6  2       21 0.646106597326D-04 0.100000000000D+01
0.179143555328D-08 0.000000000000D+00 0.000000000000D+00 0.323039658011D-06 0.000000000000D+00  6 2 1 25 23 2 1 4 0.32282630D+00 0.16944157D-02 0.21001121D+05 0.21001121D+05 0.21001121D+05 0.12314976D+01  1  2 12  6  6  2       21 0.279595785898D-05 0.100000000000D+01
0.179143555328D-08 0.000000000000D+00 0.000000000000D+00 0.323039658011D-06 0.000000000000D+00  6 2 3 25 23 2 3 4 0.32282630D+00 0.16944157D-02 0.21001121D+05 0.21001121D+05 0.21001121D+05 0.12314976D+01  1  2 12  6  6  2       21 0.210218966850D-05 0.100000000000D+01
-.496127405074D-06 0.000000000000D+00 -.759558097471D-07 0.323678825198D-06 0.000000000000D+00  6 2 1 25 23 2 1 4 0.32282630D+00 0.17092925D-02 0.20470745D+05 0.20470745D+05 0.20470745D+05 0.12327153D+01  1  2  5  6  6  2       21 -.767800433593D-03 0.100000000000D+01
-.496127405074D-06 0.000000000000D+00 -.759558097471D-07 0.323678825198D-06 0.000000000000D+00  6 2 3 25 23 2 3 4 0.32282630D+00 0.17092925D-02 0.20470745D+05 0.20470745D+05 0.20470745D+05 0.12327153D+01  1  2  5  6  6  2       21 -.576381052906D-03 0.100000000000D+01
0.573498390231D-07 0.000000000000D+00 0.000000000000D+00 0.323678825198D-06 0.111765698603D-08  6 2 1 25 23 2 1 4 0.32666345D+00 0.16846433D-02 0.21001121D+05 0.21001121D+05 0.21001121D+05 0.12314976D+01  1  2 11  6  6  2       21 0.876003444361D-04 0.100000000000D+01
0.573498390231D-07 0.000000000000D+00 0.000000000000D+00 0.323678825198D-06 0.111765698603D-08  6 2 3 25 23 2 3 4 0.32666345D+00 0.16846433D-02 0.21001121D+05 0.21001121D+05 0.21001121D+05 0.12314976D+01  1  2 11  6  6  2       21 0.659086476914D-04 0.100000000000D+01
0.179143555328D-08 0.000000000000D+00 0.000000000000D+00 0.323039658011D-06 0.000000000000D+00  6 2 -2 25 23 2 -2 4 0.32282630D+00 0.16944157D-02 0.21001121D+05 0.21001121D+05 0.21001121D+05 0.12314976D+01  1  2 12  7  6  2       21 0.265954806255D-05 0.100000000000D+01
-.496127405074D-06 0.000000000000D+00 -.759558097471D-07 0.323678825198D-06 0.000000000000D+00  6 2 -2 25 23 2 -2 4 0.32282630D+00 0.17092925D-02 0.20470745D+05 0.20470745D+05 0.20470745D+05 0.12327153D+01  1  2  5  7  6  2       21 -.730002870536D-03 0.100000000000D+01
0.225654613997D-06 0.000000000000D+00 0.000000000000D+00 0.323678825198D-06 0.136880646595D-07  6 2 -2 25 23 2 -2 4 0.32666345D+00 0.16846433D-02 0.21001121D+05 0.21001121D+05 0.21001121D+05 0.12314976D+01  1  2 11  7  6  2       21 0.327957751327D-03 0.100000000000D+01
0.179143555328D-08 0.000000000000D+00 0.000000000000D+00 0.323039658011D-06 0.000000000000D+00  6 2 2 25 23 2 2 4 0.32282630D+00 0.16944157D-02 0.21001121D+05 0.21001121D+05 0.21001121D+05 0.12314976D+01  1  2 12  8  6  2       21 0.287593284651D-05 0.100000000000D+01
-.496127405074D-06 0.000000000000D+00 -.759558097471D-07 0.323678825198D-06 0.000000000000D+00  6 2 2 25 23 2 2 4 0.32282630D+00 0.17092925D-02 0.20470745D+05 0.20470745D+05 0.20470745D+05 0.12327153D+01  1  2  5  8  6  2       21 -.789953846520D-03 0.100000000000D+01
0.468312956016D-07 0.000000000000D+00 0.000000000000D+00 0.323678825198D-06 0.909397879927D-09  6 2 2 25 23 2 2 4 0.32666345D+00 0.16846433D-02 0.21001121D+05 0.21001121D+05 0.21001121D+05 0.12314976D+01  1  2 11  8  6  2       21 0.735687552574D-04 0.100000000000D+01
0.179143555328D-08 0.000000000000D+00 0.000000000000D+00 0.323039658011D-06 0.000000000000D+00  6 2 -4 25 23 2 -4 4 0.32282630D+00 0.16944157D-02 0.21001121D+05 0.21001121D+05 0.21001121D+05 0.12314976D+01  1  2 12  9  6  2       21 0.191725517228D-05 0.100000000000D+01
-.496127405074D-06 0.000000000000D+00 -.759558097471D-07 0.323678825198D-06 0.000000000000D+00  6 2 -4 25 23 2 -4 4 0.32282630D+00 0.17092925D-02 0.20470745D+05 0.20470745D+05 0.20470745D+05 0.12327153D+01  1  2  5  9  6  2       21 -.525473777939D-03 0.100000000000D+01
0.593368411748D-07 0.000000000000D+00 0.000000000000D+00 0.323678825198D-06 0.115638049204D-08  6 2 -4 25 23 2 -4 4 0.32666345D+00 0.16846433D-02 0.21001121D+05 0.21001121D+05 0.21001121D+05 0.12314976D+01  1  2 11  9  6  2       21 0.621989990980D-04 0.100000000000D+01
0.179143555328D-08 0.000000000000D+00 0.000000000000D+00 0.323039658011D-06 0.000000000000D+00  6 2 4 25 23 2 4 4 0.32282630D+00 0.16944157D-02 0.21001121D+05 0.21001121D+05 0.21001121D+05 0.12314976D+01  1  2 12 10  6  2       21 0.191725517228D-05 0.100000000000D+01
-.496127405074D-06 0.000000000000D+00 -.759558097471D-07 0.323678825198D-06 0.000000000000D+00  6 2 4 25 23 2 4 4 0.32282630D+00 0.17092925D-02 0.20470745D+05 0.20470745D+05 0.20470745D+05 0.12327153D+01  1  2  5 10  6  2       21 -.525473777939D-03 0.100000000000D+01
0.586813858102D-07 0.000000000000D+00 0.000000000000D+00 0.323678825198D-06 0.114360671133D-08  6 2 4 25 23 2 4 4 0.32666345D+00 0.16846433D-02 0.21001121D+05 0.21001121D+05 0.21001121D+05 0.12314976D+01  1  2 11 10  6  2       21 0.615119273426D-04 0.100000000000D+01
  </mgrwgt>
  </event>
  <event>
  5     66 0.44822969E-03 0.11661968E+03 0.75467711E-02 0.10754556E+00
        2 -1    0    0  502    0 0.00000000E+00 0.00000000E+00 0.91742279E+03 0.91742285E+03 0.32000000E+00 0.0000E+00 0.9000E+01
       21 -1    0    0  501  502 0.00000000E+00 0.00000000E+00 -.49896091E+02 0.49901727E+02 0.75000000E+00 0.0000E+00 0.9000E+01
       25  1    1    2    0    0 -.14484638E+03 0.71166678E+02 0.48758360E+03 0.52859051E+03 0.12500000E+03 0.0000E+00 0.9000E+01
       23  1    1    2    0    0 0.42137741E+02 -.15930668E+02 0.19860013E+03 0.22312919E+03 0.91188000E+02 0.0000E+00 0.9000E+01
        2  1    1    2  501    0 0.10270863E+03 -.55236010E+02 0.18134298E+03 0.21560487E+03 0.32000000E+00 0.0000E+00 0.9000E+01
#aMCatNLO 1  0  0  1  2 0.50928506D+00 0.00000000D+00  -5  6  0 0.00000000D+00 0.00000000D+00 0.00000000D+00 0.00000000D+00 0.00000000D+00
  <mgrwgt>
 0.6665564206D-01    6    2    0
 0.213959257605904D+03 0.000000000000000D+00 0.000000000000000D+00 0.213959257605904D+03
 0.213959257605904D+03 0.000000000000000D+00 0.000000000000000D+00 -.213959257605904D+03
 0.206410502652132D+03 -.144846552662141D+03 0.711667726422874D+02 0.305787877241774D+02
 0.101765684600931D+03 0.421376537816633D+02 -.159306207248188D+02 -.341125715752773D+01
 0.119742327958745D+03 0.102708898880477D+03 -.552361519174686D+02 -.271675305666497D+02
 0.000000000000000D+00 -.000000000000000D+00 -.000000000000000D+00 0.000000000000000D+00
 0.336873878995204D+03 0.000000000000000D+00 0.000000000000000D+00 0.336873878995204D+03
 0.310880875382731D+03 0.000000000000000D+00 0.000000000000000D+00 -.310880875382731D+03
 0.224030804756113D+03 -.106174929063543D+03 0.149521315066926D+03 0.305787877241774D+02
 0.112360972726295D+03 0.613751789728288D+02 0.230475069944141D+02 -.341125715752773D+01
 0.128309436344766D+03 0.124994316885250D+03 -.100825336305690D+02 -.271675305666497D+02
 0.183053540550761D+03 -.801945667945350D+02 -.162486288430771D+03 0.259930036124732D+02
0.368251397926D-05 0.000000000000D+00 0.000000000000D+00 0.730977801419D-07 0.000000000000D+00  6 2 21 25 23 2 21 2 0.14114241D+00 0.76767595D-02 0.44618337D+05 0.44618337D+05 0.44618337D+05 0.11972110D+01  1  2  2  1  6  1        2 0.255050538267D-01 0.100000000000D+01
-.250050591928D-06 0.194331601645D-06 -.743393474482D-08 0.730977801419D-07 0.000000000000D+00  6 2 21 25 23 2 21 4 0.14114241D+00 0.76767595D-02 0.44618337D+05 0.44618337D+05 0.44618337D+05 0.11972110D+01  1  2  3  1  6  1        2 -.248228210010D-02 0.100000000000D+01
0.395174437339D-06 0.000000000000D+00 0.000000000000D+00 0.730977801419D-07 0.000000000000D+00  6 2 21 25 23 2 21 4 0.14114241D+00 0.76767595D-02 0.44618337D+05 0.44618337D+05 0.44618337D+05 0.11972110D+01  1  2 15  1  6  1        2 0.392294385172D-02 0.100000000000D+01
-.318764970837D-05 0.000000000000D+00 -.346394038807D-05 0.730977801419D-07 0.000000000000D+00  6 2 21 25 23 2 21 4 0.27973276D+00 0.76767595D-02 0.44618337D+05 0.44618337D+05 0.44618337D+05 0.11972110D+01  1  2  5  1  6  1        2 -.100407103411D-01 0.100000000000D+01
0.501506653305D-05 0.000000000000D+00 0.278621994664D-05 0.730977801419D-07 0.000000000000D+00  6 2 21 25 23 2 21 4 0.14114241D+00 0.76767595D-02 0.44618337D+05 0.44618337D+05 0.44618337D+05 0.11972110D+01  1  2  6  1  6  1        2 0.497851646333D-01 0.100000000000D+01
-.297687644585D-07 0.000000000000D+00 -.256506468584D-06 0.730977801419D-07 0.000000000000D+00  6 21 21 25 23 2 -2 4 0.27973276D+00 0.76767595D-02 0.44618337D+05 0.44618337D+05 0.44618337D+05 0.11972110D+01  1  2  5  4  6  1        2 -.345278069088D-04 0.100000000000D+01
  </mgrwgt>
  </event>
  <event>
  5     66 0.44822969E-03 0.66742009E+02 0.75467711E-02 0.11736218E+00
        2 -1    0    0  502    0 0.00000000E+00 0.00000000E+00 0.41366664E+03 0.41366677E+03 0.32000000E+00 0.0000E+00 0.9000E+01
       21 -1    0    0  501  502 0.00000000E+00 0.00000000E+00 -.33348829E+03 0.33348913E+03 0.75000000E+00 0.0000E+00 0.9000E+01
       25  1    1    2    0    0 -.21055167E+02 -.51423030E+02 0.23347856E+03 0.27060097E+03 0.12500000E+03 0.0000E+00 0.9000E+01
       23  1    1    2    0    0 0.92354584E+02 0.51321326E+02 0.12616447E+03 0.18813817E+03 0.91188000E+02 0.0000E+00 0.9000E+01
        2  1    1    2  501    0 -.71299417E+02 0.10170352E+00 -.27946467E+03 0.28841675E+03 0.32000000E+00 0.0000E+00 0.9000E+01
#aMCatNLO 1  0  0  2  2 0.72823300D+00 0.00000000D+00  -5  6  0 0.00000000D+00 0.00000000D+00 0.00000000D+00 0.00000000D+00 0.00000000D+00
  <mgrwgt>
 0.1346334624D+00   31    2    0
 0.371420705156178D+03 0.000000000000000D+00 0.000000000000000D+00 0.371420705156178D+03
 0.371420705156178D+03 0.000000000000000D+00 0.000000000000000D+00 -.371420705156178D+03
 0.246972251055359D+03 -.210551548033617D+02 -.514230296241081D+02 0.205627442895728D+03
 0.175613397978763D+03 0.923545924924357D+02 0.513213260794182D+02 0.106590641899998D+03
 0.320255761278233D+03 -.712994376890740D+02 0.101703544689870D+00 -.312218084795726D+03
 0.000000000000000D+00 -.000000000000000D+00 -.000000000000000D+00 -.000000000000000D+00
 0.371649091522812D+03 0.000000000000000D+00 0.000000000000000D+00 0.371649091522812D+03
 0.372001848757048D+03 0.000000000000000D+00 0.000000000000000D+00 -.372001848757048D+03
 0.246919035722804D+03 -.209197514026978D+02 -.512223479712974D+02 0.205627442895728D+03
 0.175705828112877D+03 0.924509088665142D+02 0.514640767714099D+02 0.106590641899998D+03
 0.320216903432522D+03 -.711238480823008D+02 0.361945254505511D+00 -.312218084795726D+03
 0.809173011658116D+00 -.407309381515606D+00 -.603674054617949D+00 -.352757234236757D+00
0.242721407369D-04 0.000000000000D+00 0.000000000000D+00 0.196506735987D-05 0.000000000000D+00  6 2 21 25 23 2 21 2 0.63641096D-01 0.51305964D-01 0.30216710D+05 0.30216710D+05 0.30216710D+05 0.12145705D+01  1  2  2  2  6  2       21 0.124965060752D-01 0.100000000000D+01
0.270738834375D-05 0.128087605677D-05 -.489984590341D-07 0.196506735987D-05 0.000000000000D+00  6 2 21 25 23 2 21 4 0.63641096D-01 0.51305964D-01 0.30216710D+05 0.30216710D+05 0.30216710D+05 0.12145705D+01  1  2  3  2  6  2       21 0.205625279228D-02 0.100000000000D+01
0.221170359213D-05 0.000000000000D+00 0.000000000000D+00 0.196506735987D-05 0.000000000000D+00  6 2 21 25 23 2 21 4 0.63641096D-01 0.51305964D-01 0.30216710D+05 0.30216710D+05 0.30216710D+05 0.12145705D+01  1  2 15  2  6  2       21 0.167978180800D-02 0.100000000000D+01
-.129305910435D-02 0.000000000000D+00 0.000000000000D+00 0.196506735987D-05 0.000000000000D+00  6 2 21 25 23 2 21 4 0.63641096D-01 0.51305964D-01 0.30216710D+05 0.30216710D+05 0.30216710D+05 0.12145705D+01  1  2  4  2  6  2       21 -.982074256191D+00 0.100000000000D+01
-.403212287363D-01 0.000000000000D+00 -.338527459609D-02 0.196506735987D-05 0.000000000000D+00  6 2 21 25 23 2 21 4 0.63641096D-01 0.51412793D-01 0.30216710D+05 0.30216710D+05 0.30216710D+05 0.12145705D+01  1  2  5  2  6  2       21 -.304911377598D+02 0.100000000000D+01
0.403279186098D-01 0.000000000000D+00 0.338524530370D-02 0.196506735987D-05 0.000000000000D+00  6 2 21 25 23 2 21 4 0.63641096D-01 0.51305964D-01 0.30216710D+05 0.30216710D+05 0.30216710D+05 0.12145705D+01  1  2  6  2  6  2       21 0.306289252666D+02 0.100000000000D+01
0.128679424906D-02 0.000000000000D+00 0.000000000000D+00 0.196506735987D-05 0.296689205732D-04  6 2 21 25 23 2 21 4 0.63680229D-01 0.51386240D-01 0.30316515D+05 0.30316515D+05 0.30316515D+05 0.12144203D+01  1  2 11  2  6  2       21 0.972893008043D+00 0.100000000000D+01
0.534032599313D-12 0.000000000000D+00 0.000000000000D+00 0.196458153419D-05 0.000000000000D+00  6 2 -1 25 23 2 -1 4 0.63641096D-01 0.51401997D-01 0.30316515D+05 0.30316515D+05 0.30316515D+05 0.12144203D+01  1  2 12  5  6  2       21 0.403234780241D-10 0.100000000000D+01
0.534032599313D-12 0.000000000000D+00 0.000000000000D+00 0.196458153419D-05 0.000000000000D+00  6 2 -3 25 23 2 -3 4 0.63641096D-01 0.51401997D-01 0.30316515D+05 0.30316515D+05 0.30316515D+05 0.12144203D+01  1  2 12  5  6  2       21 0.207369079263D-10 0.100000000000D+01
-.171337090927D-04 0.000000000000D+00 -.156964468649D-05 0.196506735987D-05 0.000000000000D+00  6 2 -1 25 23 2 -1 4 0.63641096D-01 0.51412793D-01 0.30216710D+05 0.30216710D+05 0.30216710D+05 0.12145705D+01  1  2  5  5  6  2       21 -.129390072293D-02 0.100000000000D+01
-.171337090927D-04 0.000000000000D+00 -.156964468649D-05 0.196506735987D-05 0.000000000000D+00  6 2 -3 25 23 2 -3 4 0.63641096D-01 0.51412793D-01 0.30216710D+05 0.30216710D+05 0.30216710D+05 0.12145705D+01  1  2  5  5  6  2       21 -.665331851664D-03 0.100000000000D+01
0.286465518954D-05 0.000000000000D+00 0.000000000000D+00 0.196506735987D-05 0.224774435173D-07  6 2 -1 25 23 2 -1 4 0.63680229D-01 0.51386240D-01 0.30316515D+05 0.30316515D+05 0.30316515D+05 0.12144203D+01  1  2 11  5  6  2       21 0.216281687830D-03 0.100000000000D+01
0.286465518954D-05 0.000000000000D+00 0.000000000000D+00 0.196506735987D-05 0.224774435173D-07  6 2 -3 25 23 2 -3 4 0.63680229D-01 0.51386240D-01 0.30316515D+05 0.30316515D+05 0.30316515D+05 0.12144203D+01  1  2 11  5  6  2       21 0.111231616714D-03 0.100000000000D+01
0.534032599313D-12 0.000000000000D+00 0.000000000000D+00 0.196458153419D-05 0.000000000000D+00  6 2 1 25 23 2 1 4 0.63641096D-01 0.51401997D-01 0.30316515D+05 0.30316515D+05 0.30316515D+05 0.12144203D+01  1  2 12  6  6  2       21 0.934392421212D-10 0.100000000000D+01
0.534032599313D-12 0.000000000000D+00 0.000000000000D+00 0.196458153419D-05 0.000000000000D+00  6 2 3 25 23 2 3 4 0.63641096D-01 0.51401997D-01 0.30316515D+05 0.30316515D+05 0.30316515D+05 0.12144203D+01  1  2 12  6  6  2       21 0.207463572168D-10 0.100000000000D+01
-.171337090927D-04 0.000000000000D+00 -.156964468649D-05 0.196506735987D-05 0.000000000000D+00  6 2 1 25 23 2 1 4 0.63641096D-01 0.51412793D-01 0.30216710D+05 0.30216710D+05 0.30216710D+05 0.12145705D+01  1  2  5  6  6  2       21 -.299863799101D-02 0.100000000000D+01
-.171337090927D-04 0.000000000000D+00 -.156964468649D-05 0.196506735987D-05 0.000000000000D+00  6 2 3 25 23 2 3 4 0.63641096D-01 0.51412793D-01 0.30216710D+05 0.30216710D+05 0.30216710D+05 0.12145705D+01  1  2  5  6  6  2       21 -.665635161791D-03 0.100000000000D+01
0.286630032358D-05 0.000000000000D+00 0.000000000000D+00 0.196506735987D-05 0.224903520193D-07  6 2 1 25 23 2 1 4 0.63680229D-01 0.51386240D-01 0.30316515D+05 0.30316515D+05 0.30316515D+05 0.12144203D+01  1  2 11  6  6  2       21 0.501373604912D-03 0.100000000000D+01
0.286630032358D-05 0.000000000000D+00 0.000000000000D+00 0.196506735987D-05 0.224903520193D-07  6 2 3 25 23 2 3 4 0.63680229D-01 0.51386240D-01 0.30316515D+05 0.30316515D+05 0.30316515D+05 0.12144203D+01  1  2 11  6  6  2       21 0.111346167206D-03 0.100000000000D+01
0.534032599313D-12 0.000000000000D+00 0.000000000000D+00 0.196458153419D-05 0.000000000000D+00  6 2 -2 25 23 2 -2 4 0.63641096D-01 0.51401997D-01 0.30316515D+05 0.30316515D+05 0.30316515D+05 0.12144203D+01  1  2 12  7  6  2       21 0.329038136353D-10 0.100000000000D+01
-.171337090927D-04 0.000000000000D+00 -.156964468649D-05 0.196506735987D-05 0.000000000000D+00  6 2 -2 25 23 2 -2 4 0.63641096D-01 0.51412793D-01 0.30216710D+05 0.30216710D+05 0.30216710D+05 0.12145705D+01  1  2  5  7  6  2       21 -.105577401343D-02 0.100000000000D+01
0.336940158201D-05 0.000000000000D+00 0.000000000000D+00 0.196506735987D-05 0.708087380817D-07  6 2 -2 25 23 2 -2 4 0.63680229D-01 0.51386240D-01 0.30316515D+05 0.30316515D+05 0.30316515D+05 0.12144203D+01  1  2 11  7  6  2       21 0.207591032565D-03 0.100000000000D+01
0.534032599313D-12 0.000000000000D+00 0.000000000000D+00 0.196458153419D-05 0.000000000000D+00  6 2 2 25 23 2 2 4 0.63641096D-01 0.51401997D-01 0.30316515D+05 0.30316515D+05 0.30316515D+05 0.12144203D+01  1  2 12  8  6  2       21 0.134821934142D-09 0.100000000000D+01
-.171337090927D-04 0.000000000000D+00 -.156964468649D-05 0.196506735987D-05 0.000000000000D+00  6 2 2 25 23 2 2 4 0.63641096D-01 0.51412793D-01 0.30216710D+05 0.30216710D+05 0.30216710D+05 0.12145705D+01  1  2  5  8  6  2       21 -.432680514173D-02 0.100000000000D+01
0.224530317928D-05 0.000000000000D+00 0.000000000000D+00 0.196506735987D-05 0.111006221386D-07  6 2 2 25 23 2 2 4 0.63680229D-01 0.51386240D-01 0.30316515D+05 0.30316515D+05 0.30316515D+05 0.12144203D+01  1  2 11  8  6  2       21 0.566658620640D-03 0.100000000000D+01
0.534032599313D-12 0.000000000000D+00 0.000000000000D+00 0.196458153419D-05 0.000000000000D+00  6 2 -4 25 23 2 -4 4 0.63641096D-01 0.51401997D-01 0.30316515D+05 0.30316515D+05 0.30316515D+05 0.12144203D+01  1  2 12  9  6  2       21 0.170927836333D-10 0.100000000000D+01
-.171337090927D-04 0.000000000000D+00 -.156964468649D-05 0.196506735987D-05 0.000000000000D+00  6 2 -4 25 23 2 -4 4 0.63641096D-01 0.51412793D-01 0.30216710D+05 0.30216710D+05 0.30216710D+05 0.12145705D+01  1  2  5  9  6  2       21 -.548388583630D-03 0.100000000000D+01
0.285997980860D-05 0.000000000000D+00 0.000000000000D+00 0.196506735987D-05 0.224407582605D-07  6 2 -4 25 23 2 -4 4 0.63680229D-01 0.51386240D-01 0.30316515D+05 0.30316515D+05 0.30316515D+05 0.12144203D+01  1  2 11  9  6  2       21 0.915362565457D-04 0.100000000000D+01
0.534032599313D-12 0.000000000000D+00 0.000000000000D+00 0.196458153419D-05 0.000000000000D+00  6 2 4 25 23 2 4 4 0.63641096D-01 0.51401997D-01 0.30316515D+05 0.30316515D+05 0.30316515D+05 0.12144203D+01  1  2 12 10  6  2       21 0.170927836333D-10 0.100000000000D+01
-.171337090927D-04 0.000000000000D+00 -.156964468649D-05 0.196506735987D-05 0.000000000000D+00  6 2 4 25 23 2 4 4 0.63641096D-01 0.51412793D-01 0.30216710D+05 0.30216710D+05 0.30216710D+05 0.12145705D+01  1  2  5 10  6  2       21 -.548388583630D-03 0.100000000000D+01
0.285902747006D-05 0.000000000000D+00 0.000000000000D+00 0.196506735987D-05 0.224332857606D-07  6 2 4 25 23 2 4 4 0.63680229D-01 0.51386240D-01 0.30316515D+05 0.30316515D+05 0.30316515D+05 0.12144203D+01  1  2 11 10  6  2       21 0.915057760840D-04 0.100000000000D+01
  </mgrwgt>
  </event>
  <event>
  5     66 -.44822969E-03 0.25532574E+02 0.75467711E-02 0.12377532E+00
        2 -1    0    0  502    0 0.00000000E+00 0.00000000E+00 0.31472880E+03 0.31472896E+03 0.32000000E+00 0.0000E+00 0.9000E+01
       21 -1    0    0  501  502 0.00000000E+00 0.00000000E+00 -.49561363E+02 0.49567037E+02 0.75000000E+00 0.0000E+00 0.9000E+01
       25  1    1    2    0    0 -.11300477E+02 -.14115369E+02 0.15415269E+03 0.19928622E+03 0.12500000E+03 0.0000E+00 0.9000E+01
       23  1    1    2    0    0 0.24614508E+02 -.76693367E+01 0.98105526E+02 0.13639882E+03 0.91188000E+02 0.0000E+00 0.9000E+01
        2  1    1    2  501    0 -.13314032E+02 0.21784706E+02 0.12909224E+02 0.28610965E+02 0.32000000E+00 0.0000E+00 0.9000E+01
#aMCatNLO 1  0  0  5  2 0.43398823D+01 0.00000000D+00  -5  6  0 0.00000000D+00 0.00000000D+00 0.00000000D+00 0.00000000D+00 0.00000000D+00
  <mgrwgt>
 -.1525221603D+01    7    2    0
 0.124897764703705D+03 0.000000000000000D+00 0.000000000000000D+00 0.124897764703705D+03
 0.124897764703705D+03 -.000000000000000D+00 -.000000000000000D+00 -.124897764703705D+03
 0.126995540634767D+03 -.113000352285630D+02 -.141160917000456D+02 0.132632009735949D+02
 0.947782575745741D+02 0.246148378604071D+02 -.766987568637616D+01 -.171741926555706D+01
 0.280217311980695D+02 -.133148026318442D+02 0.217859673864218D+02 -.115457817080379D+02
 0.000000000000000D+00 0.000000000000000D+00 0.000000000000000D+00 -.000000000000000D+00
 0.124897764703705D+03 0.000000000000000D+00 0.000000000000000D+00 0.124897764703705D+03
 0.124897764703705D+03 -.000000000000000D+00 -.000000000000000D+00 -.124897764703705D+03
 0.126919310531825D+03 -.117332751069870D+02 -.134072152620826D+02 0.128875218740387D+02
 0.946589592453802D+02 0.242916123523008D+02 -.714100713512765D+01 -.199770063827073D+01
 0.204291008766679D+02 -.128277862628332D+02 0.149086074102533D+02 -.552534951935910D+01
 0.778815875353743D+01 0.269449017519330D+00 0.563961498695691D+01 -.536447171640886D+01
0.542158556983D-05 0.000000000000D+00 0.000000000000D+00 0.691206662779D-06 0.000000000000D+00  6 2 21 25 23 2 21 2 0.48420265D-01 0.76252741D-02 0.15202436D+05 0.15202436D+05 0.15202436D+05 0.12471594D+01  1  2  2  3  6  5        2 0.139394920548D+00 0.100000000000D+01
0.204780825554D-06 0.286104930809D-06 -.109446192374D-07 0.691206662779D-06 0.000000000000D+00  6 2 21 25 23 2 21 4 0.48420265D-01 0.76252741D-02 0.15202436D+05 0.15202436D+05 0.15202436D+05 0.12471594D+01  1  2  3  3  6  5        2 0.818943295871D-02 0.100000000000D+01
0.604143946261D-06 0.000000000000D+00 0.000000000000D+00 0.691206662779D-06 0.000000000000D+00  6 2 21 25 23 2 21 4 0.48420265D-01 0.76252741D-02 0.15202436D+05 0.15202436D+05 0.15202436D+05 0.12471594D+01  1  2 15  3  6  5        2 0.241604473071D-01 0.100000000000D+01
0.132445079822D-05 0.000000000000D+00 0.000000000000D+00 0.691376306938D-06 0.000000000000D+00  6 2 21 25 23 2 21 4 0.48420265D-01 0.76252741D-02 0.15155449D+05 0.15155449D+05 0.15155449D+05 0.12473124D+01  1  2 12  3  6  5        2 0.529886709329D-01 0.100000000000D+01
-.494621056901D-04 0.000000000000D+00 0.000000000000D+00 0.691206662779D-06 0.000000000000D+00  6 2 21 25 23 2 21 4 0.48420265D-01 0.76252741D-02 0.15202436D+05 0.15202436D+05 0.15202436D+05 0.12471594D+01  1  2  4  3  6  5        2 -.197804944603D+01 0.100000000000D+01
-.939035995735D-05 0.000000000000D+00 0.000000000000D+00 0.691206662779D-06 0.000000000000D+00  6 2 21 25 23 2 21 4 0.48420265D-01 0.76252741D-02 0.15202436D+05 0.15202436D+05 0.15202436D+05 0.12471594D+01  1  2  5  3  6  5        2 -.375531855196D+00 0.100000000000D+01
0.150939726482D-04 0.000000000000D+00 -.000000000000D+00 0.691206662779D-06 0.000000000000D+00  6 2 21 25 23 2 21 4 0.48420265D-01 0.76252741D-02 0.15202436D+05 0.15202436D+05 0.15202436D+05 0.12471594D+01  1  2  6  3  6  5        2 0.603626226961D+00 0.100000000000D+01
  </mgrwgt>
  </event>
  <event>
  5     66 0.44822969E-03 0.72931270E+02 0.75467711E-02 0.11321632E+00
        4 -1    0    0  502    0 0.00000000E+00 0.00000000E+00 0.11687948E+04 0.11687959E+04 0.15500000E+01 0.0000E+00 0.9000E+01
       21 -1    0    0  501  502 0.00000000E+00 0.00000000E+00 -.57845224E+02 0.57850086E+02 0.75000000E+00 0.0000E+00 0.9000E+01
       25  1    1    2    0    0 0.82303608E+02 0.12852720E+03 0.76216045E+03 0.78727802E+03 0.12500000E+03 0.0000E+00 0.9000E+01
       23  1    1    2    0    0 -.12936990E+03 -.72822800E+02 0.31275707E+03 0.35801113E+03 0.91188000E+02 0.0000E+00 0.9000E+01
        4  1    1    2  501    0 0.47066292E+02 -.55704404E+02 0.36032102E+02 0.81356815E+02 0.15500000E+01 0.0000E+00 0.9000E+01
#aMCatNLO 1  0  0  5  2 0.48658784D-01 0.00000000D+00  -5  6  0 0.00000000D+00 0.00000000D+00 0.00000000D+00 0.00000000D+00 0.00000000D+00
  <mgrwgt>
 0.1050385956D-02    5    2    0
 0.260024638050567D+03 0.000000000000000D+00 0.000000000000000D+00 0.260024638050567D+03
 0.260024638050567D+03 -.000000000000000D+00 -.000000000000000D+00 -.260024638050567D+03
 0.228806725712619D+03 0.823017243597790D+02 0.128529433627658D+03 0.115905688342246D+03
 0.176320831267614D+03 -.129371351362594D+03 -.728210821653062D+02 -.270910987926326D+02
 0.114921719120902D+03 0.470696270028152D+02 -.557083514623521D+02 -.888145895496136D+02
 0.000000000000000D+00 0.000000000000000D+00 0.000000000000000D+00 0.000000000000000D+00
 0.260024638050567D+03 0.000000000000000D+00 0.000000000000000D+00 0.260024638050567D+03
 0.260024638050567D+03 -.000000000000000D+00 -.000000000000000D+00 -.260024638050567D+03
 0.227447326061645D+03 0.833887951972437D+02 0.127242851852232D+03 0.113854519544265D+03
 0.176370564744083D+03 -.128531028893702D+03 -.738156296563233D+02 -.286766838060749D+02
 0.113223470180941D+03 0.463922022324588D+02 -.548431713768842D+02 -.875188226906808D+02
 0.300791511446523D+01 -.124996853600055D+01 0.141594918097590D+01 0.234098695249050D+01
0.727083405912D-05 0.000000000000D+00 0.000000000000D+00 0.111313923954D-06 0.000000000000D+00  6 4 21 25 23 4 21 2 0.17981505D+00 0.88997183D-02 0.49380814D+05 0.49380814D+05 0.49380814D+05 0.11928181D+01  1  2  2  3  6  5        4 0.849242061373D-03 0.100000000000D+01
0.997869209385D-07 0.383692454655D-06 -.146777191452D-07 0.111313923954D-06 0.000000000000D+00  6 4 21 25 23 4 21 4 0.17981505D+00 0.88997183D-02 0.49380814D+05 0.49380814D+05 0.49380814D+05 0.11928181D+01  1  2  3  3  6  5        4 0.165832373853D-04 0.100000000000D+01
0.386100102948D-06 0.000000000000D+00 0.000000000000D+00 0.111313923954D-06 0.000000000000D+00  6 4 21 25 23 4 21 4 0.17981505D+00 0.88997183D-02 0.49380814D+05 0.49380814D+05 0.49380814D+05 0.11928181D+01  1  2 15  3  6  5        4 0.641646179824D-04 0.100000000000D+01
-.307063484792D-04 0.000000000000D+00 0.000000000000D+00 0.111313923954D-06 0.000000000000D+00  6 4 21 25 23 4 21 4 0.17981505D+00 0.88997183D-02 0.49380814D+05 0.49380814D+05 0.49380814D+05 0.11928181D+01  1  2  4  3  6  5        4 -.510298004264D-02 0.100000000000D+01
0.314351601528D-04 0.000000000000D+00 0.000000000000D+00 0.111313923954D-06 0.249812242203D-06  6 4 21 25 23 4 21 4 0.17981505D+00 0.88997183D-02 0.49427323D+05 0.49427323D+05 0.49427323D+05 0.11927775D+01  1  2 11  3  6  5        4 0.522337608168D-02 0.100000000000D+01
  </mgrwgt>
  </event>
  <event>
  5     66 0.44822969E-03 0.33288598E+02 0.75467711E-02 0.11464780E+00
        2 -1    0    0  502    0 0.00000000E+00 0.00000000E+00 0.74145389E+03 0.74145396E+03 0.32000000E+00 0.0000E+00 0.9000E+01
       21 -1    0    0  501  502 0.00000000E+00 0.00000000E+00 -.33438263E+02 0.33446673E+02 0.75000000E+00 0.0000E+00 0.9000E+01
       25  1    1    2    0    0 0.14247005E+02 -.58425291E+02 0.51544164E+03 0.53378045E+03 0.12500000E+03 0.0000E+00 0.9000E+01
       23  1    1    2    0    0 -.93325442E+00 0.27915412E+02 0.18319758E+03 0.20653509E+03 0.91188000E+02 0.0000E+00 0.9000E+01
        2  1    1    2  501    0 -.13313751E+02 0.30509880E+02 0.93764157E+01 0.34585088E+02 0.32000000E+00 0.0000E+00 0.9000E+01
#aMCatNLO 1  0  0  1  2 0.12633147D+03 0.00000000D+00  -5  6  0 0.00000000D+00 0.00000000D+00 0.00000000D+00 0.00000000D+00 0.00000000D+00
  <mgrwgt>
 0.1413157231D+00    3    2    0
 0.157468141316939D+03 0.000000000000000D+00 0.000000000000000D+00 0.157468141316939D+03
 0.157468141316939D+03 0.000000000000000D+00 0.000000000000000D+00 -.157468141316939D+03
 0.154590472491953D+03 0.142470868730477D+02 -.584254785659461D+02 0.682400040684155D+02
 0.963287136576046D+02 -.933203540933599D+00 0.279152951103951D+02 -.135585825579049D+02
 0.640170964843193D+02 -.133138833321141D+02 0.305101834555510D+02 -.546814215105105D+02
 0.000000000000000D+00 -.000000000000000D+00 0.000000000000000D+00 -.000000000000000D+00
 0.197450833416294D+03 0.000000000000000D+00 0.000000000000000D+00 0.197450833416294D+03
 0.313258537474071D+03 0.000000000000000D+00 0.000000000000000D+00 -.313258537474071D+03
 0.190667885856127D+03 0.274274758066165D+02 -.123775111037984D+03 0.682400040684155D+02
 0.927390654601816D+02 0.628454167311898D+01 -.787097791936678D+01 -.135585825579049D+02
 0.559225373036960D+02 -.873513532022068D+01 0.780831166197797D+01 -.546814215105105D+02
 0.171379882270359D+03 -.249768821595148D+02 0.123837777295373D+03 -.115807704057777D+03
0.588634028807D-05 0.000000000000D+00 0.000000000000D+00 0.746790644735D-06 0.000000000000D+00  6 2 21 25 23 2 21 2 0.11407048D+00 0.51450004D-02 0.17871963D+05 0.17871963D+05 0.17871963D+05 0.12392414D+01  1  2  2  1  6  1        2 0.113598643066D+00 0.100000000000D+01
0.340189646905D-06 0.310630711098D-06 -.118828251118D-07 0.746790644735D-06 0.000000000000D+00  6 2 21 25 23 2 21 4 0.11407048D+00 0.51450004D-02 0.17871963D+05 0.17871963D+05 0.17871963D+05 0.12392414D+01  1  2  3  1  6  1        2 0.100823250048D-01 0.100000000000D+01
0.595017626094D-06 0.000000000000D+00 0.000000000000D+00 0.746790644735D-06 0.000000000000D+00  6 2 21 25 23 2 21 4 0.11407048D+00 0.51450004D-02 0.17871963D+05 0.17871963D+05 0.17871963D+05 0.12392414D+01  1  2 15  1  6  1        2 0.176347550387D-01 0.100000000000D+01
  </mgrwgt>
  </event>
  <event>
  5     66 0.44822969E-03 0.27165974E+02 0.75467711E-02 0.11894322E+00
        2 -1    0    0  502    0 0.00000000E+00 0.00000000E+00 0.14525011E+03 0.14525046E+03 0.32000000E+00 0.0000E+00 0.9000E+01
       21 -1    0    0  501  502 0.00000000E+00 0.00000000E+00 -.35841529E+03 0.35841607E+03 0.75000000E+00 0.0000E+00 0.9000E+01
       25  1    1    2    0    0 -.68658518E+01 -.85419859E+02 -.11159938E+03 0.18821029E+03 0.12500000E+03 0.0000E+00 0.9000E+01
       23  1    1    2    0    0 -.14913816E+02 0.10165658E+03 0.61234889E+02 0.15040427E+03 0.91188000E+02 0.0000E+00 0.9000E+01
        2  1    1    2  501    0 0.21779667E+02 -.16236719E+02 -.16280069E+03 0.16505197E+03 0.32000000E+00 0.0000E+00 0.9000E+01
#aMCatNLO 1  0  0  2  1 0.27993283D+01 0.00000000D+00  -5  6  0 0.00000000D+00 0.00000000D+00 0.00000000D+00 0.00000000D+00 0.00000000D+00
  <mgrwgt>
 0.1131375018D+00   32    2    0
 0.228166923604131D+03 0.000000000000000D+00 0.000000000000000D+00 0.228166923604131D+03
 0.228166923604131D+03 0.000000000000000D+00 0.000000000000000D+00 -.228166923604131D+03
 0.155601213855192D+03 -.686588555721405D+01 -.854198339069023D+02 -.352569049129624D+02
 0.194609314405539D+03 -.149138578957740D+02 0.101656609849492D+03 0.137844276000009D+03
 0.106123318947530D+03 0.217797434529880D+02 -.162367759425900D+02 -.102587371087047D+03
 0.000000000000000D+00 0.000000000000000D+00 0.000000000000000D+00 -.000000000000000D+00
 0.228468790054388D+03 0.000000000000000D+00 0.000000000000000D+00 0.228468790054388D+03
 0.234754665739790D+03 0.000000000000000D+00 0.000000000000000D+00 -.234754665739790D+03
 0.156013006251296D+03 -.752426213367409D+01 -.861126834726980D+02 -.352569049129624D+02
 0.194223941305683D+03 -.157353823679931D+02 0.100792069867028D+03 0.137844276000009D+03
 0.106105485651446D+03 0.213313477611921D+02 -.167086498996433D+02 -.102587371087047D+03
 0.688102258575317D+01 0.192829674047504D+01 0.202926350531322D+01 -.628587568540155D+01
0.621263112460D-05 0.000000000000D+00 0.000000000000D+00 0.847601541928D-06 0.000000000000D+00  6 2 21 25 23 2 21 2 0.22346258D-01 0.55140901D-01 0.24978960D+05 0.24978960D+05 0.24978960D+05 0.12233368D+01  1  2  2  2  6  2       21 0.870226587635D-02 0.100000000000D+01
0.103229360670D-05 0.327849551603D-06 -.125415123022D-07 0.847601541928D-06 0.000000000000D+00  6 2 21 25 23 2 21 4 0.22346258D-01 0.55140901D-01 0.24978960D+05 0.24978960D+05 0.24978960D+05 0.12233368D+01  1  2  3  2  6  2       21 0.216397446376D-02 0.100000000000D+01
0.495268687163D-06 0.000000000000D+00 0.000000000000D+00 0.847601541928D-06 0.000000000000D+00  6 2 21 25 23 2 21 4 0.22346258D-01 0.55140901D-01 0.24978960D+05 0.24978960D+05 0.24978960D+05 0.12233368D+01  1  2 15  2  6  2       21 0.103822089449D-02 0.100000000000D+01
0.543926712088D-06 0.000000000000D+00 0.000000000000D+00 0.846543330007D-06 0.000000000000D+00  6 2 21 25 23 2 21 4 0.22346258D-01 0.56768859D-01 0.25392507D+05 0.25392507D+05 0.25392507D+05 0.12225730D+01  1  2 12  2  6  2       21 0.106936433484D-02 0.100000000000D+01
-.129063756818D-03 0.000000000000D+00 0.000000000000D+00 0.847601541928D-06 0.000000000000D+00  6 2 21 25 23 2 21 4 0.22346258D-01 0.55140901D-01 0.24978960D+05 0.24978960D+05 0.24978960D+05 0.12233368D+01  1  2  4  2  6  2       21 -.270553524829D+00 0.100000000000D+01
-.105539138145D-02 0.000000000000D+00 -.624043722828D-04 0.847601541928D-06 0.000000000000D+00  6 2 21 25 23 2 21 4 0.22346258D-01 0.56775070D-01 0.24978960D+05 0.24978960D+05 0.24978960D+05 0.12233368D+01  1  2  5  2  6  2       21 -.208015295151D+01 0.100000000000D+01
0.105486449419D-02 0.000000000000D+00 0.622980432260D-04 0.847601541928D-06 0.000000000000D+00  6 2 21 25 23 2 21 4 0.22346258D-01 0.55140901D-01 0.24978960D+05 0.24978960D+05 0.24978960D+05 0.12233368D+01  1  2  6  2  6  2       21 0.221128932054D+01 0.100000000000D+01
0.123850477454D-03 0.000000000000D+00 0.000000000000D+00 0.847601541928D-06 0.114734336404D-05  6 2 21 25 23 2 21 4 0.22375822D-01 0.56732955D-01 0.25392507D+05 0.25392507D+05 0.25392507D+05 0.12225730D+01  1  2 11  2  6  2       21 0.243455876235D+00 0.100000000000D+01
0.249676729828D-07 0.000000000000D+00 0.000000000000D+00 0.846543330007D-06 0.000000000000D+00  6 2 -1 25 23 2 -1 4 0.22346258D-01 0.56768859D-01 0.25392507D+05 0.25392507D+05 0.25392507D+05 0.12225730D+01  1  2 12  5  6  2       21 0.499703770955D-05 0.100000000000D+01
0.249676729828D-07 0.000000000000D+00 0.000000000000D+00 0.846543330007D-06 0.000000000000D+00  6 2 -3 25 23 2 -3 4 0.22346258D-01 0.56768859D-01 0.25392507D+05 0.25392507D+05 0.25392507D+05 0.12225730D+01  1  2 12  5  6  2       21 0.251713334054D-05 0.100000000000D+01
-.699285225917D-05 0.000000000000D+00 -.422793651676D-06 0.847601541928D-06 0.000000000000D+00  6 2 -1 25 23 2 -1 4 0.22346258D-01 0.56775070D-01 0.24978960D+05 0.24978960D+05 0.24978960D+05 0.12233368D+01  1  2  5  5  6  2       21 -.140259826096D-02 0.100000000000D+01
-.699285225917D-05 0.000000000000D+00 -.422793651676D-06 0.847601541928D-06 0.000000000000D+00  6 2 -3 25 23 2 -3 4 0.22346258D-01 0.56775070D-01 0.24978960D+05 0.24978960D+05 0.24978960D+05 0.12233368D+01  1  2  5  5  6  2       21 -.706224129089D-03 0.100000000000D+01
0.424841576144D-05 0.000000000000D+00 0.000000000000D+00 0.847601541928D-06 0.113269275448D-07  6 2 -1 25 23 2 -1 4 0.22375822D-01 0.56732955D-01 0.25392507D+05 0.25392507D+05 0.25392507D+05 0.12225730D+01  1  2 11  5  6  2       21 0.850030601504D-03 0.100000000000D+01
0.424841576144D-05 0.000000000000D+00 0.000000000000D+00 0.847601541928D-06 0.113269275448D-07  6 2 -3 25 23 2 -3 4 0.22375822D-01 0.56732955D-01 0.25392507D+05 0.25392507D+05 0.25392507D+05 0.12225730D+01  1  2 11  5  6  2       21 0.428226280273D-03 0.100000000000D+01
0.249676729828D-07 0.000000000000D+00 0.000000000000D+00 0.846543330007D-06 0.000000000000D+00  6 2 1 25 23 2 1 4 0.22346258D-01 0.56768859D-01 0.25392507D+05 0.25392507D+05 0.25392507D+05 0.12225730D+01  1  2 12  6  6  2       21 0.122959067234D-04 0.100000000000D+01
0.249676729828D-07 0.000000000000D+00 0.000000000000D+00 0.846543330007D-06 0.000000000000D+00  6 2 3 25 23 2 3 4 0.22346258D-01 0.56768859D-01 0.25392507D+05 0.25392507D+05 0.25392507D+05 0.12225730D+01  1  2 12  6  6  2       21 0.251861543659D-05 0.100000000000D+01
-.699285225917D-05 0.000000000000D+00 -.422793651676D-06 0.847601541928D-06 0.000000000000D+00  6 2 1 25 23 2 1 4 0.22346258D-01 0.56775070D-01 0.24978960D+05 0.24978960D+05 0.24978960D+05 0.12233368D+01  1  2  5  6  6  2       21 -.345142190849D-02 0.100000000000D+01
-.699285225917D-05 0.000000000000D+00 -.422793651676D-06 0.847601541928D-06 0.000000000000D+00  6 2 3 25 23 2 3 4 0.22346258D-01 0.56775070D-01 0.24978960D+05 0.24978960D+05 0.24978960D+05 0.12233368D+01  1  2  5  6  6  2       21 -.706639857636D-03 0.100000000000D+01
0.424962281825D-05 0.000000000000D+00 0.000000000000D+00 0.847601541928D-06 0.113301457433D-07  6 2 1 25 23 2 1 4 0.22375822D-01 0.56732955D-01 0.25392507D+05 0.25392507D+05 0.25392507D+05 0.12225730D+01  1  2 11  6  6  2       21 0.209138905966D-02 0.100000000000D+01
0.424962281825D-05 0.000000000000D+00 0.000000000000D+00 0.847601541928D-06 0.113301457433D-07  6 2 3 25 23 2 3 4 0.22375822D-01 0.56732955D-01 0.25392507D+05 0.25392507D+05 0.25392507D+05 0.12225730D+01  1  2 11  6  6  2       21 0.428599755709D-03 0.100000000000D+01
0.249676729828D-07 0.000000000000D+00 0.000000000000D+00 0.846543330007D-06 0.000000000000D+00  6 2 -2 25 23 2 -2 4 0.22346258D-01 0.56768859D-01 0.25392507D+05 0.25392507D+05 0.25392507D+05 0.12225730D+01  1  2 12  7  6  2       21 0.401358475026D-05 0.100000000000D+01
-.699285225917D-05 0.000000000000D+00 -.422793651676D-06 0.847601541928D-06 0.000000000000D+00  6 2 -2 25 23 2 -2 4 0.22346258D-01 0.56775070D-01 0.24978960D+05 0.24978960D+05 0.24978960D+05 0.12233368D+01  1  2  5  7  6  2       21 -.112646984663D-02 0.100000000000D+01
0.133280028803D-04 0.000000000000D+00 0.000000000000D+00 0.847601541928D-06 0.120647818472D-06  6 2 -2 25 23 2 -2 4 0.22375822D-01 0.56732955D-01 0.25392507D+05 0.25392507D+05 0.25392507D+05 0.12225730D+01  1  2 11  7  6  2       21 0.214207667895D-02 0.100000000000D+01
0.249676729828D-07 0.000000000000D+00 0.000000000000D+00 0.846543330007D-06 0.000000000000D+00  6 2 2 25 23 2 2 4 0.22346258D-01 0.56768859D-01 0.25392507D+05 0.25392507D+05 0.25392507D+05 0.12225730D+01  1  2 12  8  6  2       21 0.180615144289D-04 0.100000000000D+01
-.699285225917D-05 0.000000000000D+00 -.422793651676D-06 0.847601541928D-06 0.000000000000D+00  6 2 2 25 23 2 2 4 0.22346258D-01 0.56775070D-01 0.24978960D+05 0.24978960D+05 0.24978960D+05 0.12233368D+01  1  2  5  8  6  2       21 -.506961233231D-02 0.100000000000D+01
0.422738215878D-05 0.000000000000D+00 0.000000000000D+00 0.847601541928D-06 0.608385935535D-08  6 2 2 25 23 2 2 4 0.22375822D-01 0.56732955D-01 0.25392507D+05 0.25392507D+05 0.25392507D+05 0.12225730D+01  1  2 11  8  6  2       21 0.305560957512D-02 0.100000000000D+01
0.249676729828D-07 0.000000000000D+00 0.000000000000D+00 0.846543330007D-06 0.000000000000D+00  6 2 -4 25 23 2 -4 4 0.22346258D-01 0.56768859D-01 0.25392507D+05 0.25392507D+05 0.25392507D+05 0.12225730D+01  1  2 12  9  6  2       21 0.206248427589D-05 0.100000000000D+01
-.699285225917D-05 0.000000000000D+00 -.422793651676D-06 0.847601541928D-06 0.000000000000D+00  6 2 -4 25 23 2 -4 4 0.22346258D-01 0.56775070D-01 0.24978960D+05 0.24978960D+05 0.24978960D+05 0.12233368D+01  1  2  5  9  6  2       21 -.578555622012D-03 0.100000000000D+01
0.424147534718D-05 0.000000000000D+00 0.000000000000D+00 0.847601541928D-06 0.113084233367D-07  6 2 -4 25 23 2 -4 4 0.22375822D-01 0.56732955D-01 0.25392507D+05 0.25392507D+05 0.25392507D+05 0.12225730D+01  1  2 11  9  6  2       21 0.350315186497D-03 0.100000000000D+01
0.249676729828D-07 0.000000000000D+00 0.000000000000D+00 0.846543330007D-06 0.000000000000D+00  6 2 4 25 23 2 4 4 0.22346258D-01 0.56768859D-01 0.25392507D+05 0.25392507D+05 0.25392507D+05 0.12225730D+01  1  2 12 10  6  2       21 0.206248427589D-05 0.100000000000D+01
-.699285225917D-05 0.000000000000D+00 -.422793651676D-06 0.847601541928D-06 0.000000000000D+00  6 2 4 25 23 2 4 4 0.22346258D-01 0.56775070D-01 0.24978960D+05 0.24978960D+05 0.24978960D+05 0.12233368D+01  1  2  5 10  6  2       21 -.578555622012D-03 0.100000000000D+01
0.424077660368D-05 0.000000000000D+00 0.000000000000D+00 0.847601541928D-06 0.113065603794D-07  6 2 4 25 23 2 4 4 0.22375822D-01 0.56732955D-01 0.25392507D+05 0.25392507D+05 0.25392507D+05 0.12225730D+01  1  2 11 10  6  2       21 0.350257475337D-03 0.100000000000D+01
  </mgrwgt>
  </event>
  <event>
  5     66 0.44822969E-03 0.36132930E+02 0.75467711E-02 0.11761486E+00
        2 -1    0    0  502    0 0.00000000E+00 0.00000000E+00 0.89527974E+03 0.89527980E+03 0.32000000E+00 0.0000E+00 0.9000E+01
       21 -1    0    0  501  502 0.00000000E+00 0.00000000E+00 -.38305607E+02 0.38312949E+02 0.75000000E+00 0.0000E+00 0.9000E+01
       25  1    1    2    0    0 0.49618783E+02 0.89518844E+02 0.19487675E+03 0.25313552E+03 0.12500000E+03 0.0000E+00 0.9000E+01
       23  1    1    2    0    0 -.16184770E+02 -.75819433E+02 0.54111498E+03 0.55419420E+03 0.91188000E+02 0.0000E+00 0.9000E+01
        2  1    1    2  501    0 -.33434013E+02 -.13699411E+02 0.12098241E+03 0.12626303E+03 0.32000000E+00 0.0000E+00 0.9000E+01
#aMCatNLO 1  0  0  2  5 0.24825186D+02 0.00000000D+00  -5  6  0 0.00000000D+00 0.00000000D+00 0.00000000D+00 0.00000000D+00 0.00000000D+00
  <mgrwgt>
 0.1650066766D+00   32    2    0
 0.185196350131918D+03 0.000000000000000D+00 0.000000000000000D+00 0.185196350131918D+03
 0.185196350131918D+03 0.000000000000000D+00 0.000000000000000D+00 -.185196350131918D+03
 0.187156228649608D+03 0.496193711842564D+02 0.895190851280704D+02 -.944812432361924D+02
 0.144900395529726D+03 -.161843143293079D+02 -.758192458233627D+02 0.816724140278566D+02
 0.383360760845026D+02 -.334350568549486D+02 -.136998393047077D+02 0.128088292083358D+02
 0.000000000000000D+00 -.000000000000000D+00 -.000000000000000D+00 -.000000000000000D+00
 0.189664729705826D+03 0.000000000000000D+00 0.000000000000000D+00 0.189664729705826D+03
 0.223627452524038D+03 0.000000000000000D+00 0.000000000000000D+00 -.223627452524038D+03
 0.191672384931010D+03 0.621871332356605D+02 0.912105162885013D+02 -.944812432361924D+02
 0.143472638150233D+03 -.661744546194341D+01 -.745316896105834D+02 0.816724140278566D+02
 0.360786861409776D+02 -.309663229968536D+02 -.133675849735616D+02 0.128088292083358D+02
 0.420684730076426D+02 -.246033647768635D+02 -.331124170435639D+01 -.339627228182117D+02
0.201494081688D-05 0.000000000000D+00 0.000000000000D+00 0.832424313806D-07 0.000000000000D+00  6 2 21 25 23 2 21 2 0.13773591D+00 0.58937395D-02 0.25182576D+05 0.25182576D+05 0.25182576D+05 0.12229590D+01  1  2  2  2  6  2       21 0.237926870036D-01 0.100000000000D+01
-.327223767089D-07 0.106331348195D-06 -.406758497909D-08 0.832424313806D-07 0.000000000000D+00  6 2 21 25 23 2 21 4 0.13773591D+00 0.58937395D-02 0.25182576D+05 0.25182576D+05 0.25182576D+05 0.12229590D+01  1  2  3  2  6  2       21 -.577896172369D-03 0.100000000000D+01
0.185748074050D-06 0.000000000000D+00 0.000000000000D+00 0.832424313806D-07 0.000000000000D+00  6 2 21 25 23 2 21 4 0.13773591D+00 0.58937395D-02 0.25182576D+05 0.25182576D+05 0.25182576D+05 0.12229590D+01  1  2 15  2  6  2       21 0.328041883917D-02 0.100000000000D+01
0.808228126935D-05 0.000000000000D+00 0.000000000000D+00 0.822608211769D-07 0.000000000000D+00  6 2 21 25 23 2 21 4 0.13773591D+00 0.71778869D-02 0.29460182D+05 0.29460182D+05 0.29460182D+05 0.12157269D+01  1  2 12  2  6  2       21 0.993778396128D-01 0.100000000000D+01
0.597280891061D-05 0.000000000000D+00 0.000000000000D+00 0.822608211769D-07 0.000000000000D+00  6 2 21 25 23 2 21 4 0.13773591D+00 0.76259714D-02 0.29460182D+05 0.29460182D+05 0.29460182D+05 0.12157269D+01  1  2 12  2  6  2       21 0.661437638909D-01 0.100000000000D+01
-.727528886914D-05 0.000000000000D+00 0.000000000000D+00 0.832424313806D-07 0.000000000000D+00  6 2 21 25 23 2 21 4 0.13773591D+00 0.58937395D-02 0.25182576D+05 0.25182576D+05 0.25182576D+05 0.12229590D+01  1  2  4  2  6  2       21 -.128485825701D+00 0.100000000000D+01
-.229004598812D-04 0.000000000000D+00 -.350344834867D-05 0.832424313806D-07 0.000000000000D+00  6 2 21 25 23 2 21 4 0.13773591D+00 0.72825098D-02 0.25182576D+05 0.25182576D+05 0.25182576D+05 0.12229590D+01  1  2  5  2  6  2       21 -.281484672768D+00 0.100000000000D+01
0.217855672534D-04 0.000000000000D+00 0.320860912607D-05 0.832424313806D-07 0.000000000000D+00  6 2 21 25 23 2 21 4 0.13773591D+00 0.58937395D-02 0.25182576D+05 0.25182576D+05 0.25182576D+05 0.12229590D+01  1  2  6  2  6  2       21 0.384745767113D+00 0.100000000000D+01
0.455637041039D-06 0.000000000000D+00 0.000000000000D+00 0.822608211769D-07 0.000000000000D+00  6 2 -1 25 23 2 -1 4 0.13773591D+00 0.71778869D-02 0.29460182D+05 0.29460182D+05 0.29460182D+05 0.12157269D+01  1  2 12  5  6  2       21 0.347968730802D-03 0.100000000000D+01
0.455637041039D-06 0.000000000000D+00 0.000000000000D+00 0.822608211769D-07 0.000000000000D+00  6 2 -3 25 23 2 -3 4 0.13773591D+00 0.71778869D-02 0.29460182D+05 0.29460182D+05 0.29460182D+05 0.12157269D+01  1  2 12  5  6  2       21 0.240249490853D-03 0.100000000000D+01
0.466444509958D-06 0.000000000000D+00 0.000000000000D+00 0.822608211769D-07 0.000000000000D+00  6 2 -1 25 23 2 -1 4 0.13773591D+00 0.76259714D-02 0.29460182D+05 0.29460182D+05 0.29460182D+05 0.12157269D+01  1  2 12  5  6  2       21 0.325056804286D-03 0.100000000000D+01
0.466444509958D-06 0.000000000000D+00 0.000000000000D+00 0.822608211769D-07 0.000000000000D+00  6 2 -3 25 23 2 -3 4 0.13773591D+00 0.76259714D-02 0.29460182D+05 0.29460182D+05 0.29460182D+05 0.12157269D+01  1  2 12  5  6  2       21 0.222879316153D-03 0.100000000000D+01
-.121457337716D-05 0.000000000000D+00 -.215152900790D-06 0.832424313806D-07 0.000000000000D+00  6 2 -1 25 23 2 -1 4 0.13773591D+00 0.72825098D-02 0.25182576D+05 0.25182576D+05 0.25182576D+05 0.12229590D+01  1  2  5  5  6  2       21 -.927463259780D-03 0.100000000000D+01
-.121457337716D-05 0.000000000000D+00 -.215152900790D-06 0.832424313806D-07 0.000000000000D+00  6 2 -3 25 23 2 -3 4 0.13773591D+00 0.72825098D-02 0.25182576D+05 0.25182576D+05 0.25182576D+05 0.12229590D+01  1  2  5  5  6  2       21 -.637145447194D-03 0.100000000000D+01
0.455637041039D-06 0.000000000000D+00 0.000000000000D+00 0.822608211769D-07 0.000000000000D+00  6 2 1 25 23 2 1 4 0.13773591D+00 0.71778869D-02 0.29460182D+05 0.29460182D+05 0.29460182D+05 0.12157269D+01  1  2 12  6  6  2       21 0.411112756252D-03 0.100000000000D+01
0.455637041039D-06 0.000000000000D+00 0.000000000000D+00 0.822608211769D-07 0.000000000000D+00  6 2 3 25 23 2 3 4 0.13773591D+00 0.71778869D-02 0.29460182D+05 0.29460182D+05 0.29460182D+05 0.12157269D+01  1  2 12  6  6  2       21 0.240222598117D-03 0.100000000000D+01
0.466444509958D-06 0.000000000000D+00 0.000000000000D+00 0.822608211769D-07 0.000000000000D+00  6 2 1 25 23 2 1 4 0.13773591D+00 0.76259714D-02 0.29460182D+05 0.29460182D+05 0.29460182D+05 0.12157269D+01  1  2 12  6  6  2       21 0.387715159168D-03 0.100000000000D+01
0.466444509958D-06 0.000000000000D+00 0.000000000000D+00 0.822608211769D-07 0.000000000000D+00  6 2 3 25 23 2 3 4 0.13773591D+00 0.76259714D-02 0.29460182D+05 0.29460182D+05 0.29460182D+05 0.12157269D+01  1  2 12  6  6  2       21 0.222853841275D-03 0.100000000000D+01
-.121457337716D-05 0.000000000000D+00 -.215152900790D-06 0.832424313806D-07 0.000000000000D+00  6 2 1 25 23 2 1 4 0.13773591D+00 0.72825098D-02 0.25182576D+05 0.25182576D+05 0.25182576D+05 0.12229590D+01  1  2  5  6  6  2       21 -.109847250842D-02 0.100000000000D+01
-.121457337716D-05 0.000000000000D+00 -.215152900790D-06 0.832424313806D-07 0.000000000000D+00  6 2 3 25 23 2 3 4 0.13773591D+00 0.72825098D-02 0.25182576D+05 0.25182576D+05 0.25182576D+05 0.12229590D+01  1  2  5  6  6  2       21 -.637072790696D-03 0.100000000000D+01
0.455637041039D-06 0.000000000000D+00 0.000000000000D+00 0.822608211769D-07 0.000000000000D+00  6 2 -2 25 23 2 -2 4 0.13773591D+00 0.71778869D-02 0.29460182D+05 0.29460182D+05 0.29460182D+05 0.12157269D+01  1  2 12  7  6  2       21 0.336949967318D-03 0.100000000000D+01
0.466444509958D-06 0.000000000000D+00 0.000000000000D+00 0.822608211769D-07 0.000000000000D+00  6 2 -2 25 23 2 -2 4 0.13773591D+00 0.76259714D-02 0.29460182D+05 0.29460182D+05 0.29460182D+05 0.12157269D+01  1  2 12  7  6  2       21 0.314136292613D-03 0.100000000000D+01
-.121457337716D-05 0.000000000000D+00 -.215152900790D-06 0.832424313806D-07 0.000000000000D+00  6 2 -2 25 23 2 -2 4 0.13773591D+00 0.72825098D-02 0.25182576D+05 0.25182576D+05 0.25182576D+05 0.12229590D+01  1  2  5  7  6  2       21 -.897614979896D-03 0.100000000000D+01
0.455637041039D-06 0.000000000000D+00 0.000000000000D+00 0.822608211769D-07 0.000000000000D+00  6 2 2 25 23 2 2 4 0.13773591D+00 0.71778869D-02 0.29460182D+05 0.29460182D+05 0.29460182D+05 0.12157269D+01  1  2 12  8  6  2       21 0.453601501903D-03 0.100000000000D+01
0.466444509958D-06 0.000000000000D+00 0.000000000000D+00 0.822608211769D-07 0.000000000000D+00  6 2 2 25 23 2 2 4 0.13773591D+00 0.76259714D-02 0.29460182D+05 0.29460182D+05 0.29460182D+05 0.12157269D+01  1  2 12  8  6  2       21 0.429910668533D-03 0.100000000000D+01
-.121457337716D-05 0.000000000000D+00 -.215152900790D-06 0.832424313806D-07 0.000000000000D+00  6 2 2 25 23 2 2 4 0.13773591D+00 0.72825098D-02 0.25182576D+05 0.25182576D+05 0.25182576D+05 0.12229590D+01  1  2  5  8  6  2       21 -.121345993724D-02 0.100000000000D+01
0.455637041039D-06 0.000000000000D+00 0.000000000000D+00 0.822608211769D-07 0.000000000000D+00  6 2 -4 25 23 2 -4 4 0.13773591D+00 0.71778869D-02 0.29460182D+05 0.29460182D+05 0.29460182D+05 0.12157269D+01  1  2 12  9  6  2       21 0.212815104214D-03 0.100000000000D+01
0.466444509958D-06 0.000000000000D+00 0.000000000000D+00 0.822608211769D-07 0.000000000000D+00  6 2 -4 25 23 2 -4 4 0.13773591D+00 0.76259714D-02 0.29460182D+05 0.29460182D+05 0.29460182D+05 0.12157269D+01  1  2 12  9  6  2       21 0.197079393301D-03 0.100000000000D+01
-.121457337716D-05 0.000000000000D+00 -.215152900790D-06 0.832424313806D-07 0.000000000000D+00  6 2 -4 25 23 2 -4 4 0.13773591D+00 0.72825098D-02 0.25182576D+05 0.25182576D+05 0.25182576D+05 0.12229590D+01  1  2  5  9  6  2       21 -.563311194281D-03 0.100000000000D+01
0.455637041039D-06 0.000000000000D+00 0.000000000000D+00 0.822608211769D-07 0.000000000000D+00  6 2 4 25 23 2 4 4 0.13773591D+00 0.71778869D-02 0.29460182D+05 0.29460182D+05 0.29460182D+05 0.12157269D+01  1  2 12 10  6  2       21 0.212815104214D-03 0.100000000000D+01
0.466444509958D-06 0.000000000000D+00 0.000000000000D+00 0.822608211769D-07 0.000000000000D+00  6 2 4 25 23 2 4 4 0.13773591D+00 0.76259714D-02 0.29460182D+05 0.29460182D+05 0.29460182D+05 0.12157269D+01  1  2 12 10  6  2       21 0.197079393301D-03 0.100000000000D+01
-.121457337716D-05 0.000000000000D+00 -.215152900790D-06 0.832424313806D-07 0.000000000000D+00  6 2 4 25 23 2 4 4 0.13773591D+00 0.72825098D-02 0.25182576D+05 0.25182576D+05 0.25182576D+05 0.12229590D+01  1  2  5 10  6  2       21 -.563311194281D-03 0.100000000000D+01
  </mgrwgt>
  </event>
  <event>
  5     66 0.44822969E-03 0.12427473E+03 0.75467711E-02 0.10587799E+00
        4 -1    0    0  502    0 0.00000000E+00 0.00000000E+00 0.44646473E+03 0.44646742E+03 0.15500000E+01 0.0000E+00 0.9000E+01
       21 -1    0    0  501  502 0.00000000E+00 0.00000000E+00 -.15498920E+03 0.15499101E+03 0.75000000E+00 0.0000E+00 0.9000E+01
       25  1    1    2    0    0 0.56809167E+02 -.19100476E+03 0.19616430E+03 0.30629322E+03 0.12500000E+03 0.0000E+00 0.9000E+01
       23  1    1    2    0    0 -.98167695E+02 0.73820889E+02 0.70478333E+02 0.16843060E+03 0.91188000E+02 0.0000E+00 0.9000E+01
        4  1    1    2  501    0 0.41358528E+02 0.11718387E+03 0.24832897E+02 0.12673462E+03 0.15500000E+01 0.0000E+00 0.9000E+01
#aMCatNLO 1  0  0  2  2 0.17693027D+03 0.00000000D+00  -5  6  0 0.00000000D+00 0.00000000D+00 0.00000000D+00 0.00000000D+00 0.00000000D+00
  <mgrwgt>
 0.4938810236D-02    3    2    0
 0.263056201193235D+03 0.000000000000000D+00 0.000000000000000D+00 0.263056201193235D+03
 0.263056201193235D+03 0.000000000000000D+00 0.000000000000000D+00 -.263056201193235D+03
 0.241482811709400D+03 0.568078401438252D+02 -.191008520310157D+03 0.545670488316483D+02
 0.153505099388746D+03 -.981685381043448D+02 0.738185002792239D+02 -.127409315723329D+02
 0.131124491288325D+03 0.413606979605196D+02 0.117190020030933D+03 -.418261172593154D+02
 0.000000000000000D+00 -.000000000000000D+00 0.000000000000000D+00 0.000000000000000D+00
 0.872196248448717D+03 0.000000000000000D+00 0.000000000000000D+00 0.872196248448717D+03
 0.290693668978174D+03 0.000000000000000D+00 0.000000000000000D+00 -.290693668978174D+03
 0.314126036939410D+03 0.120230905894576D+03 -.256158414917086D+03 0.545670488316483D+02
 0.121136283167883D+03 -.668180682438907D+02 0.416144467048805D+02 -.127409315723329D+02
 0.119803963777764D+03 0.700043236750736D+02 0.877665102340829D+02 -.418261172593154D+02
 0.607823633541834D+03 -.123417161325759D+03 0.126777457978123D+03 0.581502579470543D+03
0.247559521455D-04 0.000000000000D+00 0.000000000000D+00 0.446450238921D-07 0.000000000000D+00  6 4 21 25 23 4 21 2 0.68687228D-01 0.23844839D-01 0.65660741D+05 0.65660741D+05 0.65660741D+05 0.11807371D+01  1  2  2  2  6  2       21 0.479112923367D-02 0.100000000000D+01
-.132679975591D-05 0.130640748624D-05 -.499751348758D-07 0.446450238921D-07 0.000000000000D+00  6 4 21 25 23 4 21 4 0.68687228D-01 0.23844839D-01 0.65660741D+05 0.65660741D+05 0.65660741D+05 0.11807371D+01  1  2  3  2  6  2       21 -.357989296207D-03 0.100000000000D+01
0.187414326538D-05 0.000000000000D+00 0.000000000000D+00 0.446450238921D-07 0.000000000000D+00  6 4 21 25 23 4 21 4 0.68687228D-01 0.23844839D-01 0.65660741D+05 0.65660741D+05 0.65660741D+05 0.11807371D+01  1  2 15  2  6  2       21 0.505670298456D-03 0.100000000000D+01
  </mgrwgt>
  </event>
  <event>
  5     66 0.44822969E-03 0.36214876E+02 0.75467711E-02 0.12297307E+00
        2 -1    0    0  502    0 0.00000000E+00 0.00000000E+00 0.44369590E+03 0.44369602E+03 0.32000000E+00 0.0000E+00 0.9000E+01
       21 -1    0    0  501  502 0.00000000E+00 0.00000000E+00 -.75036574E+02 0.75040322E+02 0.75000000E+00 0.0000E+00 0.9000E+01
       25  1    1    2    0    0 -.20061529E+01 0.84299719E+01 0.31758033E+03 0.34140497E+03 0.12500000E+03 0.0000E+00 0.9000E+01
       23  1    1    2    0    0 -.17518792E+02 0.22070602E+02 0.84929354E+02 0.12775862E+03 0.91188000E+02 0.0000E+00 0.9000E+01
        2  1    1    2  501    0 0.19524945E+02 -.30500574E+02 -.33850351E+02 0.49572746E+02 0.32000000E+00 0.0000E+00 0.9000E+01
#aMCatNLO 1  0  0  2  2 0.17693027D+03 0.00000000D+00  -5  6  0 0.00000000D+00 0.00000000D+00 0.00000000D+00 0.00000000D+00 0.00000000D+00
  <mgrwgt>
 0.1334284131D-01    1    2    0
 0.182467592217152D+03 0.000000000000000D+00 0.000000000000000D+00 0.182467592217152D+03
 0.182467592217152D+03 0.000000000000000D+00 0.000000000000000D+00 -.182467592217152D+03
 0.164468285284530D+03 -.200619402521084D+01 0.843003615980617D+01 0.106535095345670D+03
 0.958061726784503D+02 -.175188156919782D+02 0.220706396443593D+02 -.833962479565892D+01
 0.104660726471324D+03 0.195250097171891D+02 -.305006758041654D+02 -.981954705500110D+02
 0.000000000000000D+00 -.000000000000000D+00 0.000000000000000D+00 0.000000000000000D+00
 0.483042533862585D+03 0.000000000000000D+00 0.000000000000000D+00 0.483042533862585D+03
 0.199133909024774D+03 0.000000000000000D+00 0.000000000000000D+00 -.199133909024774D+03
 0.168639379014714D+03 0.103937423615153D+01 -.382548469524388D+02 0.106535095345670D+03
 0.930242184999850D+02 -.157923593302986D+02 -.439385122453115D+01 -.833962479565892D+01
 0.117958336232414D+03 0.215603923409154D+02 -.617006331595301D+02 -.981954705500110D+02
 0.302554509140246D+03 -.680740724676836D+01 0.104349331336500D+03 0.283908624837811D+03
0.100143953193D-05 0.000000000000D+00 0.000000000000D+00 0.122695451064D-05 0.000000000000D+00  6 2 21 25 23 2 21 4 0.68261205D-01 0.11544385D-01 0.16506775D+05 0.16506775D+05 0.16506775D+05 0.12431111D+01  1  2 14  2  6  2       21 0.133428413132D-01 0.100000000000D+01
  </mgrwgt>
  </event>
  <event>
  5     66 0.44822969E-03 0.66866892E+02 0.75467711E-02 0.11711472E+00
        2 -1    0    0  502    0 0.00000000E+00 0.00000000E+00 0.42898963E+02 0.42900157E+02 0.32000000E+00 0.0000E+00 0.9000E+01
       21 -1    0    0  501  502 0.00000000E+00 0.00000000E+00 -.71504426E+03 0.71504466E+03 0.75000000E+00 0.0000E+00 0.9000E+01
       25  1    1    2    0    0 0.23727454E+02 0.67670737E+02 -.33139282E+03 0.36137034E+03 0.12500000E+03 0.0000E+00 0.9000E+01
       23  1    1    2    0    0 -.12952758E+02 0.31502663E+02 -.12142452E+03 0.15562569E+03 0.91188000E+02 0.0000E+00 0.9000E+01
        2  1    1    2  501    0 -.10774697E+02 -.99173400E+02 -.21932796E+03 0.24094878E+03 0.32000000E+00 0.0000E+00 0.9000E+01
#aMCatNLO 1  0  0  2  5 0.11840972D+02 0.00000000D+00  -5  6  0 0.00000000D+00 0.00000000D+00 0.00000000D+00 0.00000000D+00 0.00000000D+00
  <mgrwgt>
 0.3560968355D-01   32    2    0
 0.175143538188411D+03 0.000000000000000D+00 0.000000000000000D+00 0.175143538188411D+03
 0.175143538188411D+03 0.000000000000000D+00 0.000000000000000D+00 -.175143538188411D+03
 0.146036451243021D+03 0.237274772009663D+02 0.676709462464998D+02 -.236494175707617D+02
 0.103745723190166D+03 -.129527416760918D+02 0.315028123077209D+02 0.358848580327062D+02
 0.100504901943635D+03 -.107747355248745D+02 -.991737585542207D+02 -.122354404619445D+02
 0.000000000000000D+00 -.000000000000000D+00 0.000000000000000D+00 -.000000000000000D+00
 0.177444856216119D+03 0.000000000000000D+00 0.000000000000000D+00 0.177444856216119D+03
 0.191167112992517D+03 0.000000000000000D+00 0.000000000000000D+00 -.191167112992517D+03
 0.144280441444885D+03 0.255108114517487D+02 0.631011040408004D+02 -.236494175707617D+02
 0.102653758168350D+03 -.116848882589431D+02 0.282539036671872D+02 0.358848580327062D+02
 0.103552953509028D+03 -.952126605087763D+01 -.102385807951755D+03 -.122354404619445D+02
 0.181248160863731D+02 -.430465714192789D+01 0.110308002437670D+02 -.137222567763983D+02
0.323545759127D-05 0.000000000000D+00 0.000000000000D+00 0.151726741759D-06 0.000000000000D+00  6 2 21 25 23 2 21 2 0.65999626D-02 0.11000693D+00 0.29105742D+05 0.29105742D+05 0.29105742D+05 0.12162802D+01  1  2  2  2  6  2       21 0.412010705899D-02 0.100000000000D+01
-.253783866466D-06 0.170739787902D-06 -.653145670013D-08 0.151726741759D-06 0.000000000000D+00  6 2 21 25 23 2 21 4 0.65999626D-02 0.11000693D+00 0.29105742D+05 0.29105742D+05 0.29105742D+05 0.12162802D+01  1  2  3  2  6  2       21 -.478083837101D-03 0.100000000000D+01
0.279553621880D-06 0.000000000000D+00 0.000000000000D+00 0.151726741759D-06 0.000000000000D+00  6 2 21 25 23 2 21 4 0.65999626D-02 0.11000693D+00 0.29105742D+05 0.29105742D+05 0.29105742D+05 0.12162802D+01  1  2 15  2  6  2       21 0.526629490223D-03 0.100000000000D+01
0.202190769001D-04 0.000000000000D+00 0.000000000000D+00 0.150944124922D-06 0.000000000000D+00  6 2 21 25 23 2 21 4 0.65999626D-02 0.12075260D+00 0.31183119D+05 0.31183119D+05 0.31183119D+05 0.12131393D+01  1  2 12  2  6  2       21 0.299941991931D-01 0.100000000000D+01
0.166489332352D-04 0.000000000000D+00 0.000000000000D+00 0.150944124922D-06 0.000000000000D+00  6 2 21 25 23 2 21 4 0.65999626D-02 0.12292588D+00 0.31183119D+05 0.31183119D+05 0.31183119D+05 0.12131393D+01  1  2 12  2  6  2       21 0.236286764062D-01 0.100000000000D+01
-.263460166580D-04 0.000000000000D+00 0.000000000000D+00 0.151726741759D-06 0.000000000000D+00  6 2 21 25 23 2 21 4 0.65999626D-02 0.11000693D+00 0.29105742D+05 0.29105742D+05 0.29105742D+05 0.12162802D+01  1  2  4  2  6  2       21 -.496312271996D-01 0.100000000000D+01
-.773406071955D-04 0.000000000000D+00 -.989614833539D-05 0.151726741759D-06 0.000000000000D+00  6 2 21 25 23 2 21 4 0.65999626D-02 0.12095220D+00 0.29105742D+05 0.29105742D+05 0.29105742D+05 0.12162802D+01  1  2  5  2  6  2       21 -.115645475197D+00 0.100000000000D+01
0.769515685585D-04 0.000000000000D+00 0.972032337228D-05 0.151726741759D-06 0.000000000000D+00  6 2 21 25 23 2 21 4 0.65999626D-02 0.11000693D+00 0.29105742D+05 0.29105742D+05 0.29105742D+05 0.12162802D+01  1  2  6  2  6  2       21 0.144963120310D+00 0.100000000000D+01
0.478213279858D-06 0.000000000000D+00 0.000000000000D+00 0.150944124922D-06 0.000000000000D+00  6 2 -1 25 23 2 -1 4 0.65999626D-02 0.12075260D+00 0.31183119D+05 0.31183119D+05 0.31183119D+05 0.12131393D+01  1  2 12  5  6  2       21 0.832835000158D-04 0.100000000000D+01
0.478213279858D-06 0.000000000000D+00 0.000000000000D+00 0.150944124922D-06 0.000000000000D+00  6 2 -3 25 23 2 -3 4 0.65999626D-02 0.12075260D+00 0.31183119D+05 0.31183119D+05 0.31183119D+05 0.12131393D+01  1  2 12  5  6  2       21 0.389139224531D-04 0.100000000000D+01
0.479949328740D-06 0.000000000000D+00 0.000000000000D+00 0.150944124922D-06 0.000000000000D+00  6 2 -1 25 23 2 -1 4 0.65999626D-02 0.12292588D+00 0.31183119D+05 0.31183119D+05 0.31183119D+05 0.12131393D+01  1  2 12  5  6  2       21 0.801078554052D-04 0.100000000000D+01
0.479949328740D-06 0.000000000000D+00 0.000000000000D+00 0.150944124922D-06 0.000000000000D+00  6 2 -3 25 23 2 -3 4 0.65999626D-02 0.12292588D+00 0.31183119D+05 0.31183119D+05 0.31183119D+05 0.12131393D+01  1  2 12  5  6  2       21 0.374272092960D-04 0.100000000000D+01
-.163941275118D-05 0.000000000000D+00 -.238237566260D-06 0.151726741759D-06 0.000000000000D+00  6 2 -1 25 23 2 -1 4 0.65999626D-02 0.12095220D+00 0.29105742D+05 0.29105742D+05 0.29105742D+05 0.12162802D+01  1  2  5  5  6  2       21 -.287195014047D-03 0.100000000000D+01
-.163941275118D-05 0.000000000000D+00 -.238237566260D-06 0.151726741759D-06 0.000000000000D+00  6 2 -3 25 23 2 -3 4 0.65999626D-02 0.12095220D+00 0.29105742D+05 0.29105742D+05 0.29105742D+05 0.12162802D+01  1  2  5  5  6  2       21 -.133969181551D-03 0.100000000000D+01
0.478213279858D-06 0.000000000000D+00 0.000000000000D+00 0.150944124922D-06 0.000000000000D+00  6 2 1 25 23 2 1 4 0.65999626D-02 0.12075260D+00 0.31183119D+05 0.31183119D+05 0.31183119D+05 0.12131393D+01  1  2 12  6  6  2       21 0.359459010328D-03 0.100000000000D+01
0.478213279858D-06 0.000000000000D+00 0.000000000000D+00 0.150944124922D-06 0.000000000000D+00  6 2 3 25 23 2 3 4 0.65999626D-02 0.12075260D+00 0.31183119D+05 0.31183119D+05 0.31183119D+05 0.12131393D+01  1  2 12  6  6  2       21 0.390202314536D-04 0.100000000000D+01
0.479949328740D-06 0.000000000000D+00 0.000000000000D+00 0.150944124922D-06 0.000000000000D+00  6 2 1 25 23 2 1 4 0.65999626D-02 0.12292588D+00 0.31183119D+05 0.31183119D+05 0.31183119D+05 0.12131393D+01  1  2 12  6  6  2       21 0.351142517981D-03 0.100000000000D+01
0.479949328740D-06 0.000000000000D+00 0.000000000000D+00 0.150944124922D-06 0.000000000000D+00  6 2 3 25 23 2 3 4 0.65999626D-02 0.12292588D+00 0.31183119D+05 0.31183119D+05 0.31183119D+05 0.12131393D+01  1  2 12  6  6  2       21 0.375326029934D-04 0.100000000000D+01
-.163941275118D-05 0.000000000000D+00 -.238237566260D-06 0.151726741759D-06 0.000000000000D+00  6 2 1 25 23 2 1 4 0.65999626D-02 0.12095220D+00 0.29105742D+05 0.29105742D+05 0.29105742D+05 0.12162802D+01  1  2  5  6  6  2       21 -.124111702548D-02 0.100000000000D+01
-.163941275118D-05 0.000000000000D+00 -.238237566260D-06 0.151726741759D-06 0.000000000000D+00  6 2 3 25 23 2 3 4 0.65999626D-02 0.12095220D+00 0.29105742D+05 0.29105742D+05 0.29105742D+05 0.12162802D+01  1  2  5  6  6  2       21 -.134336106314D-03 0.100000000000D+01
0.478213279858D-06 0.000000000000D+00 0.000000000000D+00 0.150944124922D-06 0.000000000000D+00  6 2 -2 25 23 2 -2 4 0.65999626D-02 0.12075260D+00 0.31183119D+05 0.31183119D+05 0.31183119D+05 0.12131393D+01  1  2 12  7  6  2       21 0.610477553986D-04 0.100000000000D+01
0.479949328740D-06 0.000000000000D+00 0.000000000000D+00 0.150944124922D-06 0.000000000000D+00  6 2 -2 25 23 2 -2 4 0.65999626D-02 0.12292588D+00 0.31183119D+05 0.31183119D+05 0.31183119D+05 0.12131393D+01  1  2 12  7  6  2       21 0.586707466619D-04 0.100000000000D+01
-.163941275118D-05 0.000000000000D+00 -.238237566260D-06 0.151726741759D-06 0.000000000000D+00  6 2 -2 25 23 2 -2 4 0.65999626D-02 0.12095220D+00 0.29105742D+05 0.29105742D+05 0.29105742D+05 0.12162802D+01  1  2  5  7  6  2       21 -.210396272828D-03 0.100000000000D+01
0.478213279858D-06 0.000000000000D+00 0.000000000000D+00 0.150944124922D-06 0.000000000000D+00  6 2 2 25 23 2 2 4 0.65999626D-02 0.12075260D+00 0.31183119D+05 0.31183119D+05 0.31183119D+05 0.12131393D+01  1  2 12  8  6  2       21 0.622663414299D-03 0.100000000000D+01
0.479949328740D-06 0.000000000000D+00 0.000000000000D+00 0.150944124922D-06 0.000000000000D+00  6 2 2 25 23 2 2 4 0.65999626D-02 0.12292588D+00 0.31183119D+05 0.31183119D+05 0.31183119D+05 0.12131393D+01  1  2 12  8  6  2       21 0.611115402135D-03 0.100000000000D+01
-.163941275118D-05 0.000000000000D+00 -.238237566260D-06 0.151726741759D-06 0.000000000000D+00  6 2 2 25 23 2 2 4 0.65999626D-02 0.12095220D+00 0.29105742D+05 0.29105742D+05 0.29105742D+05 0.12162802D+01  1  2  5  8  6  2       21 -.215002084698D-02 0.100000000000D+01
0.478213279858D-06 0.000000000000D+00 0.000000000000D+00 0.150944124922D-06 0.000000000000D+00  6 2 -4 25 23 2 -4 4 0.65999626D-02 0.12075260D+00 0.31183119D+05 0.31183119D+05 0.31183119D+05 0.12131393D+01  1  2 12  9  6  2       21 0.309668803452D-04 0.100000000000D+01
0.479949328740D-06 0.000000000000D+00 0.000000000000D+00 0.150944124922D-06 0.000000000000D+00  6 2 -4 25 23 2 -4 4 0.65999626D-02 0.12292588D+00 0.31183119D+05 0.31183119D+05 0.31183119D+05 0.12131393D+01  1  2 12  9  6  2       21 0.297587614964D-04 0.100000000000D+01
-.163941275118D-05 0.000000000000D+00 -.238237566260D-06 0.151726741759D-06 0.000000000000D+00  6 2 -4 25 23 2 -4 4 0.65999626D-02 0.12095220D+00 0.29105742D+05 0.29105742D+05 0.29105742D+05 0.12162802D+01  1  2  5  9  6  2       21 -.106531842032D-03 0.100000000000D+01
0.478213279858D-06 0.000000000000D+00 0.000000000000D+00 0.150944124922D-06 0.000000000000D+00  6 2 4 25 23 2 4 4 0.65999626D-02 0.12075260D+00 0.31183119D+05 0.31183119D+05 0.31183119D+05 0.12131393D+01  1  2 12 10  6  2       21 0.309668803452D-04 0.100000000000D+01
0.479949328740D-06 0.000000000000D+00 0.000000000000D+00 0.150944124922D-06 0.000000000000D+00  6 2 4 25 23 2 4 4 0.65999626D-02 0.12292588D+00 0.31183119D+05 0.31183119D+05 0.31183119D+05 0.12131393D+01  1  2 12 10  6  2       21 0.297587614964D-04 0.100000000000D+01
-.163941275118D-05 0.000000000000D+00 -.238237566260D-06 0.151726741759D-06 0.000000000000D+00  6 2 4 25 23 2 4 4 0.65999626D-02 0.12095220D+00 0.29105742D+05 0.29105742D+05 0.29105742D+05 0.12162802D+01  1  2  5 10  6  2       21 -.106531842032D-03 0.100000000000D+01
  </mgrwgt>
  </event>
  <event>
  5     66 0.44822969E-03 0.27855136E+02 0.75467711E-02 0.12192078E+00
        2 -1    0    0  502    0 0.00000000E+00 0.00000000E+00 0.18461171E+03 0.18461199E+03 0.32000000E+00 0.0000E+00 0.9000E+01
       21 -1    0    0  501  502 0.00000000E+00 0.00000000E+00 -.15870160E+03 0.15870337E+03 0.75000000E+00 0.0000E+00 0.9000E+01
       25  1    1    2    0    0 0.63624822E+02 0.92623948E+01 0.11039376E+03 0.17873358E+03 0.12500000E+03 0.0000E+00 0.9000E+01
       23  1    1    2    0    0 -.45581257E+02 0.11958347E+02 -.36204340E+02 0.10884236E+03 0.91188000E+02 0.0000E+00 0.9000E+01
        2  1    1    2  501    0 -.18043565E+02 -.21220742E+02 -.48279305E+02 0.55739428E+02 0.32000000E+00 0.0000E+00 0.9000E+01
#aMCatNLO 1  0  0  5  2 0.11832020D+01 0.00000000D+00  -5  6  0 0.00000000D+00 0.00000000D+00 0.00000000D+00 0.00000000D+00 0.00000000D+00
  <mgrwgt>
 0.1360290082D+00    8    2    0
 0.171168121927829D+03 0.000000000000000D+00 0.000000000000000D+00 0.171168121927829D+03
 0.171168121927829D+03 -.000000000000000D+00 -.000000000000000D+00 -.171168121927829D+03
 0.170889768270898D+03 0.636249520798421D+02 0.926254776597223D+01 0.971822184424811D+02
 0.111893701995726D+03 -.455811720427889D+02 0.119584472438738D+02 -.445454991781377D+02
 0.595527735890342D+02 -.180437800370532D+02 -.212209950098460D+02 -.526367192643435D+02
 0.000000000000000D+00 -.000000000000000D+00 0.000000000000000D+00 0.000000000000000D+00
 0.171168121927829D+03 0.000000000000000D+00 0.000000000000000D+00 0.171168121927829D+03
 0.171168121927829D+03 -.000000000000000D+00 -.000000000000000D+00 -.171168121927829D+03
 0.170804361786086D+03 0.635841702807133D+02 0.921458495806683D+01 0.970632511248000D+02
 0.111932278682617D+03 -.456078860696945D+02 0.119270293131246D+02 -.446234284552494D+02
 0.284953601947888D+01 0.326190655218085D+00 -.871865630277687D+00 -.269319615057967D+01
 0.567500673674758D+02 -.183024748662369D+02 -.202697486409138D+02 -.497466265189710D+02
0.340624435896D-05 0.000000000000D+00 0.000000000000D+00 0.673430989193D-06 0.000000000000D+00  6 2 21 25 23 2 21 2 0.28401960D-01 0.24415788D-01 0.18369211D+05 0.18369211D+05 0.18369211D+05 0.12379136D+01  1  2  2  3  6  5        2 0.189615623536D-01 0.100000000000D+01
0.261585086979D-06 0.179752453242D-06 -.687622597824D-08 0.673430989193D-06 0.000000000000D+00  6 2 21 25 23 2 21 4 0.28401960D-01 0.24415788D-01 0.18369211D+05 0.18369211D+05 0.18369211D+05 0.12379136D+01  1  2  3  3  6  5        2 0.223147472829D-02 0.100000000000D+01
0.298030904003D-06 0.000000000000D+00 0.000000000000D+00 0.673430989193D-06 0.000000000000D+00  6 2 21 25 23 2 21 4 0.28401960D-01 0.24415788D-01 0.18369211D+05 0.18369211D+05 0.18369211D+05 0.12379136D+01  1  2 15  3  6  5        2 0.254237899497D-02 0.100000000000D+01
0.128099620185D-09 0.000000000000D+00 0.000000000000D+00 0.673286683679D-06 0.000000000000D+00  6 2 21 25 23 2 21 4 0.28401960D-01 0.24415788D-01 0.18419729D+05 0.18419729D+05 0.18419729D+05 0.12377810D+01  1  2 12  3  6  5        2 0.109230551619D-05 0.100000000000D+01
-.560071823598D-05 0.000000000000D+00 0.000000000000D+00 0.673430989193D-06 0.000000000000D+00  6 2 21 25 23 2 21 4 0.28401960D-01 0.24415788D-01 0.18369211D+05 0.18369211D+05 0.18369211D+05 0.12379136D+01  1  2  4  3  6  5        2 -.477774224373D-01 0.100000000000D+01
-.350999035642D-05 0.000000000000D+00 0.000000000000D+00 0.673430989193D-06 0.000000000000D+00  6 2 21 25 23 2 21 4 0.28401960D-01 0.24415788D-01 0.18369211D+05 0.18369211D+05 0.18369211D+05 0.12379136D+01  1  2  5  3  6  5        2 -.299422832830D-01 0.100000000000D+01
0.942499737337D-05 0.000000000000D+00 -.000000000000D+00 0.673430989193D-06 0.000000000000D+00  6 2 21 25 23 2 21 4 0.28401960D-01 0.24415788D-01 0.18369211D+05 0.18369211D+05 0.18369211D+05 0.12379136D+01  1  2  6  3  6  5        2 0.804007739731D-01 0.100000000000D+01
0.128546295352D-04 0.000000000000D+00 0.000000000000D+00 0.673430989193D-06 0.476249587521D-06  6 2 21 25 23 2 21 4 0.28401960D-01 0.24415788D-01 0.18419729D+05 0.18419729D+05 0.18419729D+05 0.12377810D+01  1  2 11  3  6  5        2 0.109611431553D+00 0.100000000000D+01
  </mgrwgt>
  </event>
  <event>
  5     66 -.44822969E-03 0.22519476E+02 0.75467711E-02 0.12011494E+00
        2 -1    0    0  502    0 0.00000000E+00 0.00000000E+00 0.27110320E+04 0.27110321E+04 0.32000000E+00 0.0000E+00 0.9000E+01
       21 -1    0    0  501  502 0.00000000E+00 0.00000000E+00 -.67267813E+01 0.67684627E+01 0.75000000E+00 0.0000E+00 0.9000E+01
       25  1    1    2    0    0 0.27883759E+02 -.11132710E+02 0.18917447E+04 0.18961077E+04 0.12500000E+03 0.0000E+00 0.9000E+01
       23  1    1    2    0    0 -.27864449E+02 -.11385792E+02 0.72276110E+03 0.72911242E+03 0.91188000E+02 0.0000E+00 0.9000E+01
        2  1    1    2  501    0 -.19309821E-01 0.22518502E+02 0.89799458E+02 0.92580389E+02 0.32000000E+00 0.0000E+00 0.9000E+01
#aMCatNLO 1  0  0  2  2 0.47707003D+02 0.00000000D+00  -5  6  0 0.00000000D+00 0.00000000D+00 0.00000000D+00 0.00000000D+00 0.00000000D+00
  <mgrwgt>
 -.1193859732D+01   12    2    0
 0.135252303957224D+03 0.000000000000000D+00 0.000000000000000D+00 0.135252303957224D+03
 0.135252303957224D+03 0.000000000000000D+00 0.000000000000000D+00 -.135252303957224D+03
 0.138213746096999D+03 0.278837598014958D+02 -.111332706102543D+02 0.507600811171248D+02
 0.998705965984023D+02 -.278644491522773D+02 -.113861973496109D+02 -.274374143147029D+02
 0.324202652190472D+02 -.193106492184883D-01 0.225194679598652D+02 -.233226668024219D+02
 0.000000000000000D+00 0.000000000000000D+00 0.000000000000000D+00 -.000000000000000D+00
 0.138067074039335D+03 0.000000000000000D+00 0.000000000000000D+00 0.138067074039335D+03
 0.919521114915956D+03 0.000000000000000D+00 0.000000000000000D+00 -.919521114915956D+03
 0.135978914359175D+03 0.447336034765980D+01 -.163911062007008D+02 0.507600811171248D+02
 0.106646746711648D+03 -.454967719613191D+02 -.153463115112866D+02 -.274374143147029D+02
 0.320536084150642D+02 -.552405003064312D+01 0.212831364443410D+02 -.233226668024219D+02
 0.782908919469405D+03 0.465474616443024D+02 0.104542812676463D+02 -.781454040876621D+03
0.479293836588D-06 0.000000000000D+00 0.000000000000D+00 0.907192520560D-06 0.000000000000D+00  6 2 21 25 23 2 21 2 0.41708506D+00 0.10380971D-02 0.15264906D+05 0.15264906D+05 0.15264906D+05 0.12469567D+01  1  2  2  2  6  2       21 0.107223088536D-01 0.100000000000D+01
0.325331721501D-07 0.252930306435D-07 -.967556165395D-09 0.907192520560D-06 0.000000000000D+00  6 2 21 25 23 2 21 4 0.41708506D+00 0.10380971D-02 0.15264906D+05 0.15264906D+05 0.15264906D+05 0.12469567D+01  1  2  3  2  6  2       21 0.113165916572D-02 0.100000000000D+01
0.314681435479D-07 0.000000000000D+00 0.000000000000D+00 0.907192520560D-06 0.000000000000D+00  6 2 21 25 23 2 21 4 0.41708506D+00 0.10380971D-02 0.15264906D+05 0.15264906D+05 0.15264906D+05 0.12469567D+01  1  2 15  2  6  2       21 0.109461238240D-02 0.100000000000D+01
-.697154412066D-03 0.000000000000D+00 -.634621282429D-05 0.907192520560D-06 0.000000000000D+00  6 2 21 25 23 2 21 4 0.41708506D+00 0.72158727D-02 0.15264906D+05 0.15264906D+05 0.15264906D+05 0.12469567D+01  1  2  5  2  6  2       21 -.101672516742D+01 0.100000000000D+01
-.302014259745D-03 0.000000000000D+00 -.272146177801D-05 0.907192520560D-06 0.000000000000D+00  6 2 -1 25 23 2 -1 4 0.41708506D+00 0.72158727D-02 0.15264906D+05 0.15264906D+05 0.15264906D+05 0.12469567D+01  1  2  5  5  6  2       21 -.271004056063D-01 0.100000000000D+01
-.302014259745D-03 0.000000000000D+00 -.272146177801D-05 0.907192520560D-06 0.000000000000D+00  6 2 -3 25 23 2 -3 4 0.41708506D+00 0.72158727D-02 0.15264906D+05 0.15264906D+05 0.15264906D+05 0.12469567D+01  1  2  5  5  6  2       21 -.184228198425D-01 0.100000000000D+01
-.302014259745D-03 0.000000000000D+00 -.272146177801D-05 0.907192520560D-06 0.000000000000D+00  6 2 1 25 23 2 1 4 0.41708506D+00 0.72158727D-02 0.15264906D+05 0.15264906D+05 0.15264906D+05 0.12469567D+01  1  2  5  6  6  2       21 -.320779748622D-01 0.100000000000D+01
-.302014259745D-03 0.000000000000D+00 -.272146177801D-05 0.907192520560D-06 0.000000000000D+00  6 2 3 25 23 2 3 4 0.41708506D+00 0.72158727D-02 0.15264906D+05 0.15264906D+05 0.15264906D+05 0.12469567D+01  1  2  5  6  6  2       21 -.184206311123D-01 0.100000000000D+01
-.302014259745D-03 0.000000000000D+00 -.272146177801D-05 0.907192520560D-06 0.000000000000D+00  6 2 -2 25 23 2 -2 4 0.41708506D+00 0.72158727D-02 0.15264906D+05 0.15264906D+05 0.15264906D+05 0.12469567D+01  1  2  5  7  6  2       21 -.262299846637D-01 0.100000000000D+01
-.302014259745D-03 0.000000000000D+00 -.272146177801D-05 0.907192520560D-06 0.000000000000D+00  6 2 2 25 23 2 2 4 0.41708506D+00 0.72158727D-02 0.15264906D+05 0.15264906D+05 0.15264906D+05 0.12469567D+01  1  2  5  8  6  2       21 -.354150198165D-01 0.100000000000D+01
-.302014259745D-03 0.000000000000D+00 -.272146177801D-05 0.907192520560D-06 0.000000000000D+00  6 2 -4 25 23 2 -4 4 0.41708506D+00 0.72158727D-02 0.15264906D+05 0.15264906D+05 0.15264906D+05 0.12469567D+01  1  2  5  9  6  2       21 -.162081547462D-01 0.100000000000D+01
-.302014259745D-03 0.000000000000D+00 -.272146177801D-05 0.907192520560D-06 0.000000000000D+00  6 2 4 25 23 2 4 4 0.41708506D+00 0.72158727D-02 0.15264906D+05 0.15264906D+05 0.15264906D+05 0.12469567D+01  1  2  5 10  6  2       21 -.162081547462D-01 0.100000000000D+01
  </mgrwgt>
  </event>
  <event>
  6     66 0.44822969E-03 0.21569997E+02 0.75467711E-02 0.11379972E+00
        2 -1    0    0  502    0 0.00000000E+00 0.00000000E+00 0.25757623E+04 0.25757623E+04 0.32000000E+00 0.0000E+00 0.9000E+01
       21 -1    0    0  501  503 0.00000000E+00 0.00000000E+00 -.38968458E+03 0.38968531E+03 0.75000000E+00 0.0000E+00 0.9000E+01
       25  1    1    2    0    0 -.86444579E+02 -.11998250E+03 0.11805586E+04 0.11963328E+04 0.12500000E+03 0.0000E+00 0.9000E+01
       23  1    1    2    0    0 0.88748893E+02 0.13235197E+03 0.12974422E+04 0.13103682E+04 0.91188000E+02 0.0000E+00 0.9000E+01
        2  1    1    2  501    0 -.15715214E+02 -.27509784E+02 0.80118012E+02 0.86155409E+02 0.32000000E+00 0.0000E+00 0.9000E+01
       21  1    1    2  502  503 0.13410900E+02 0.15140312E+02 -.37204109E+03 0.37259122E+03 0.75000000E+00 0.0000E+00 0.9000E+01
#aMCatNLO 2  0  0  2  5 0.20225758D+02 0.00000000D+00  -5  6  0 0.00000000D+00 0.00000000D+00 0.00000000D+00 0.00000000D+00 0.00000000D+00
  <mgrwgt>
 0.1491251312D+01    3    2    0
 0.211260158778767D+03 0.000000000000000D+00 0.000000000000000D+00 0.211260158778767D+03
 0.211260158778767D+03 0.000000000000000D+00 0.000000000000000D+00 -.211260158778767D+03
 0.186816845585492D+03 -.804099722560902D+02 -.113169572989663D+03 0.155496161556516D+01
 0.193551898872631D+03 0.947656637291823D+02 0.139144769412541D+03 0.283776027229161D+02
 0.421515730994111D+02 -.143556914730921D+02 -.259751964228776D+02 -.299325643384812D+02
 0.000000000000000D+00 0.000000000000000D+00 0.000000000000000D+00 -.000000000000000D+00
 0.211524626164379D+03 0.000000000000000D+00 0.000000000000000D+00 0.211524626164379D+03
 0.474524259548311D+04 0.000000000000000D+00 0.000000000000000D+00 -.474524259548311D+04
 0.193638241454079D+03 -.864443866943248D+02 -.119982159744040D+03 0.155496161556516D+01
 0.185779624533606D+03 0.887490701818813D+02 0.132352301655089D+03 0.283776027229161D+02
 0.435862711352343D+02 -.157155830944094D+02 -.275104538602975D+02 -.299325643384812D+02
 0.453376308452457D+04 0.134108996068529D+02 0.151403119492484D+02 -.453371796931873D+04
-.512080834114D-01 0.000000000000D+00 0.000000000000D+00 0.288497976586D-06 0.000000000000D+00  6 2 21 25 23 2 21 4 0.39577567D+00 0.59886152D-01 0.46040316D+05 0.46040316D+05 0.46040316D+05 0.11958468D+01  1  2 13  2  6  2       21 -.127701429166D+01 0.100000000000D+01
-.512114224313D-01 0.000000000000D+00 0.000000000000D+00 0.288497976586D-06 0.000000000000D+00  6 2 21 25 23 2 21 4 0.39577567D+00 0.59993425D-01 0.46040316D+05 0.46040316D+05 0.46040316D+05 0.11958468D+01  1  2 13  2  6  2       21 -.127218657015D+01 0.100000000000D+01
0.163064598046D+00 0.000000000000D+00 0.000000000000D+00 0.290635397470D-06 0.625332771061D-05  6 2 21 25 23 2 21 4 0.39627112D+00 0.59951523D-01 0.46040316D+05 0.46040316D+05 0.46040316D+05 0.11958468D+01  1  2  1  2  6  2       21 0.404045217382D+01 0.100000000000D+01
  </mgrwgt>
  </event>
  <event>
  5     66 -.44822969E-03 0.59431070E+02 0.75467711E-02 0.11356553E+00
        2 -1    0    0  502    0 0.00000000E+00 0.00000000E+00 0.16320400E+03 0.16320432E+03 0.32000000E+00 0.0000E+00 0.9000E+01
       21 -1    0    0  501  502 0.00000000E+00 0.00000000E+00 -.21260788E+03 0.21260921E+03 0.75000000E+00 0.0000E+00 0.9000E+01
       25  1    1    2    0    0 0.10324624E+03 -.95054739E+02 -.66948349E+01 0.18805587E+03 0.12500000E+03 0.0000E+00 0.9000E+01
       23  1    1    2    0    0 -.57190449E+02 0.57493635E+02 -.17819362E+02 0.12332496E+03 0.91188000E+02 0.0000E+00 0.9000E+01
        2  1    1    2  501    0 -.46055796E+02 0.37561104E+02 -.24889683E+02 0.64432690E+02 0.32000000E+00 0.0000E+00 0.9000E+01
#aMCatNLO 1  0  0  1  2 0.74805056D+03 0.00000000D+00  -5  6  0 0.00000000D+00 0.00000000D+00 0.00000000D+00 0.00000000D+00 0.00000000D+00
  <mgrwgt>
 -.1103702444D+00    5    2    0
 0.186276046813414D+03 0.000000000000000D+00 0.000000000000000D+00 0.186276046813414D+03
 0.186276046813414D+03 0.000000000000000D+00 0.000000000000000D+00 -.186276046813414D+03
 0.188814683300479D+03 0.103246558407810D+03 -.950549947266440D+02 0.181846304422368D+02
 0.122041398820522D+03 -.571902458640470D+02 0.574934693995169D+02 -.162124535048040D+01
 0.616960115058257D+02 -.460563125437626D+02 0.375615253271271D+02 -.165633850917564D+02
 0.000000000000000D+00 0.000000000000000D+00 0.000000000000000D+00 0.000000000000000D+00
 0.589260269604148D+03 0.000000000000000D+00 0.000000000000000D+00 0.589260269604148D+03
 0.191056049381794D+03 0.000000000000000D+00 0.000000000000000D+00 -.191056049381794D+03
 0.188786578356345D+03 0.801353200011169D+02 -.115165193836915D+03 0.181846304422368D+02
 0.124541284234661D+03 -.722824390152171D+02 0.443610269081269D+02 -.162124535048040D+01
 0.641613714571819D+02 -.537594647264056D+02 0.308586424506816D+02 -.165633850917564D+02
 0.402827084937754D+03 0.459065837405058D+02 0.399455244781065D+02 0.398204220222354D+03
0.226692604126D-05 0.000000000000D+00 0.000000000000D+00 0.118971933777D-06 0.000000000000D+00  6 2 21 25 23 2 21 2 0.25108434D-01 0.32709031D-01 0.34113844D+05 0.34113844D+05 0.34113844D+05 0.12090843D+01  1  2  2  1  6  1        2 0.784029016383D-02 0.100000000000D+01
-.456744542047D-07 0.119628973818D-06 -.457627054695D-08 0.118971933777D-06 0.000000000000D+00  6 2 21 25 23 2 21 4 0.25108434D-01 0.32709031D-01 0.34113844D+05 0.34113844D+05 0.34113844D+05 0.12090843D+01  1  2  3  1  6  1        2 -.230930498677D-03 0.100000000000D+01
0.167166675933D-06 0.000000000000D+00 0.000000000000D+00 0.118971933777D-06 0.000000000000D+00  6 2 21 25 23 2 21 4 0.25108434D-01 0.32709031D-01 0.34113844D+05 0.34113844D+05 0.34113844D+05 0.12090843D+01  1  2 15  1  6  1        2 0.845196390575D-03 0.100000000000D+01
-.665649174618D-04 0.000000000000D+00 -.246145067975D-05 0.118971933777D-06 0.000000000000D+00  6 2 21 25 23 2 21 4 0.80117050D-01 0.32709031D-01 0.34113844D+05 0.34113844D+05 0.34113844D+05 0.12090843D+01  1  2  5  1  6  1        2 -.955554224925D-01 0.100000000000D+01
-.878263271697D-05 0.000000000000D+00 -.328731518714D-06 0.118971933777D-06 0.000000000000D+00  6 21 21 25 23 2 -2 4 0.80117050D-01 0.32709031D-01 0.34113844D+05 0.34113844D+05 0.34113844D+05 0.12090843D+01  1  2  5  4  6  1        2 -.232693779509D-01 0.100000000000D+01
  </mgrwgt>
  </event>
  <event>
  6     66 -.44822969E-03 0.29262684E+02 0.75467711E-02 0.12235497E+00
        4 -1    0    0  502    0 0.00000000E+00 0.00000000E+00 0.18971620E+02 0.19034833E+02 0.15500000E+01 0.0000E+00 0.9000E+01
       21 -1    0    0  503  502 0.00000000E+00 0.00000000E+00 -.94459462E+03 0.94459491E+03 0.75000000E+00 0.0000E+00 0.9000E+01
       25  1    1    2    0    0 -.17004229E+02 -.31788277E+02 -.47828566E+03 0.49566300E+03 0.12500000E+03 0.0000E+00 0.9000E+01
       23  1    1    2    0    0 0.31806071E+02 -.12962788E+01 -.28373140E+03 0.29971998E+03 0.91188000E+02 0.0000E+00 0.9000E+01
        4  1    1    2  501    0 -.88569709E+01 0.31125208E+02 -.12504138E+03 0.12917033E+03 0.15500000E+01 0.0000E+00 0.9000E+01
       21  1    1    2  503  501 -.59448714E+01 0.19593482E+01 -.38564556E+02 0.39076438E+02 0.75000000E+00 0.0000E+00 0.9000E+01
#aMCatNLO 2  0  0  2  1 0.62594362D+01 0.00000000D+00  -5  6  0 0.00000000D+00 0.00000000D+00 0.00000000D+00 0.00000000D+00 0.00000000D+00
  <mgrwgt>
 -.3303809751D-01    3    2    0
 0.130275633012809D+03 0.000000000000000D+00 0.000000000000000D+00 0.130275633012809D+03
 0.130275633012809D+03 0.000000000000000D+00 0.000000000000000D+00 -.130275633012809D+03
 0.130642810705615D+03 -.199771173950408D+02 -.308240039087123D+02 -.966123970739186D+01
 0.968313555495601D+02 0.295929279749275D+02 -.578382713450445D+00 0.136008882383782D+02
 0.330770997704416D+02 -.961581057988666D+01 0.314023866221628D+02 -.393964853098629D+01
 0.000000000000000D+00 -.000000000000000D+00 0.000000000000000D+00 -.000000000000000D+00
 0.132073250805654D+03 0.000000000000000D+00 0.000000000000000D+00 0.132073250805654D+03
 0.135878546595225D+03 0.000000000000000D+00 0.000000000000000D+00 -.135878546595225D+03
 0.130456493775558D+03 -.169988591767639D+02 -.318055970265792D+02 -.966123970739186D+01
 0.975388512076532D+02 0.318100333280542D+02 -.130911027188021D+01 0.136008882383782D+02
 0.326310979753108D+02 -.886630272373469D+01 0.311553590981989D+02 -.393964853098629D+01
 0.732535444235655D+01 -.594487142755561D+01 0.195934820026045D+01 -.380529578957035D+01
-.232350843650D-04 0.000000000000D+00 0.000000000000D+00 0.391577946040D-06 0.000000000000D+00  6 4 21 25 23 4 21 4 0.28833886D-02 0.14623930D+00 0.17600803D+05 0.17600803D+05 0.17600803D+05 0.12399830D+01  1  2 13  2  6  2       21 -.420048018556D-01 0.100000000000D+01
-.455597834405D-05 0.000000000000D+00 0.000000000000D+00 0.393066485639D-06 0.000000000000D+00  6 4 21 25 23 4 21 4 0.28833886D-02 0.13931455D+00 0.16770010D+05 0.16770010D+05 0.16770010D+05 0.12423376D+01  1  2  8  2  6  2       21 -.938579125441D-02 0.100000000000D+01
0.102021306058D-04 0.000000000000D+00 0.000000000000D+00 0.393066485639D-06 0.208386215467D-06  6 4 21 25 23 4 21 4 0.29231753D-02 0.14530621D+00 0.17600803D+05 0.17600803D+05 0.17600803D+05 0.12399830D+01  1  2  1  2  6  2       21 0.183524956034D-01 0.100000000000D+01
  </mgrwgt>
  </event>
  <event>
  5     66 0.44822969E-03 0.31633716E+02 0.75467711E-02 0.12222098E+00
        2 -1    0    0  502    0 0.00000000E+00 0.00000000E+00 0.80331649E+03 0.80331656E+03 0.32000000E+00 0.0000E+00 0.9000E+01
       21 -1    0    0  501  502 0.00000000E+00 0.00000000E+00 -.26496754E+02 0.26507366E+02 0.75000000E+00 0.0000E+00 0.9000E+01
       25  1    1    2    0    0 -.68245865E+01 0.89100159E+01 0.47037039E+03 0.48682570E+03 0.12500000E+03 0.0000E+00 0.9000E+01
       23  1    1    2    0    0 -.17915264E+01 0.21527388E+02 0.29471785E+03 0.30925799E+03 0.91188000E+02 0.0000E+00 0.9000E+01
        2  1    1    2  501    0 0.86161129E+01 -.30437404E+02 0.11731500E+02 0.33740234E+02 0.32000000E+00 0.0000E+00 0.9000E+01
#aMCatNLO 1  0  0  2  1 0.17564085D+02 0.00000000D+00  -5  6  0 0.00000000D+00 0.00000000D+00 0.00000000D+00 0.00000000D+00 0.00000000D+00
  <mgrwgt>
 0.7351381428D-01   23    2    0
 0.145909933928766D+03 0.000000000000000D+00 0.000000000000000D+00 0.145909933928766D+03
 0.145909933928766D+03 0.000000000000000D+00 0.000000000000000D+00 -.145909933928766D+03
 0.132227615198317D+03 -.682463426992402D+01 0.891018451569930D+01 0.416314208262484D+02
 0.948771870023689D+02 -.179156064329734D+01 0.215275085813584D+02 0.148251797366308D+02
 0.647150656568452D+02 0.861619491322136D+01 -.304376930970577D+02 -.564566005628792D+02
 0.000000000000000D+00 -.000000000000000D+00 -.000000000000000D+00 -.000000000000000D+00
 0.147324359741131D+03 0.000000000000000D+00 0.000000000000000D+00 0.147324359741131D+03
 0.213216558507680D+03 0.000000000000000D+00 0.000000000000000D+00 -.213216558507680D+03
 0.132914636561186D+03 -.529850064343534D+01 0.167347334341338D+02 0.416314208262484D+02
 0.962999761841572D+02 -.691163043821889D+00 0.271692916450299D+02 0.148251797366308D+02
 0.631333517710082D+02 0.935207826502674D+01 -.266647893456931D+02 -.564566005628792D+02
 0.681929537324599D+02 -.336241457776951D+01 -.172392357334705D+02 -.658921987665494D+02
0.229755286666D-06 0.000000000000D+00 0.000000000000D+00 0.118208913900D-05 0.000000000000D+00  6 2 21 25 23 2 21 2 0.12358797D+00 0.40772449D-02 0.15731222D+05 0.15731222D+05 0.15731222D+05 0.12454729D+01  1  2  2  2  6  2       21 0.598015244521D-02 0.100000000000D+01
0.154140835526D-07 0.121245195797D-07 -.463809728347D-09 0.118208913900D-05 0.000000000000D+00  6 2 21 25 23 2 21 4 0.12358797D+00 0.40772449D-02 0.15731222D+05 0.15731222D+05 0.15731222D+05 0.12454729D+01  1  2  3  2  6  2       21 0.622347554835D-03 0.100000000000D+01
0.230299149135D-07 0.000000000000D+00 0.000000000000D+00 0.118208913900D-05 0.000000000000D+00  6 2 21 25 23 2 21 4 0.12358797D+00 0.40772449D-02 0.15731222D+05 0.15731222D+05 0.15731222D+05 0.12454729D+01  1  2 15  2  6  2       21 0.929838688468D-03 0.100000000000D+01
0.284183095066D-05 0.000000000000D+00 0.000000000000D+00 0.117040808502D-05 0.000000000000D+00  6 2 21 25 23 2 21 4 0.12358797D+00 0.59706649D-02 0.17848934D+05 0.17848934D+05 0.17848934D+05 0.12393039D+01  1  2 12  2  6  2       21 0.593756822640D-01 0.100000000000D+01
-.157451895068D-05 0.000000000000D+00 0.000000000000D+00 0.118208913900D-05 0.000000000000D+00  6 2 21 25 23 2 21 4 0.12358797D+00 0.40772449D-02 0.15731222D+05 0.15731222D+05 0.15731222D+05 0.12454729D+01  1  2  4  2  6  2       21 -.635716042185D-01 0.100000000000D+01
-.570412398216D-05 0.000000000000D+00 -.288809581612D-06 0.118208913900D-05 0.000000000000D+00  6 2 21 25 23 2 21 4 0.12358797D+00 0.60060020D-02 0.15731222D+05 0.15731222D+05 0.15731222D+05 0.12454729D+01  1  2  5  2  6  2       21 -.120251278569D+00 0.100000000000D+01
0.476888641704D-05 0.000000000000D+00 0.217655758364D-06 0.118208913900D-05 0.000000000000D+00  6 2 21 25 23 2 21 4 0.12358797D+00 0.40772449D-02 0.15731222D+05 0.15731222D+05 0.15731222D+05 0.12454729D+01  1  2  6  2  6  2       21 0.192545005404D+00 0.100000000000D+01
0.317205855624D-06 0.000000000000D+00 0.000000000000D+00 0.117040808502D-05 0.000000000000D+00  6 2 -1 25 23 2 -1 4 0.12358797D+00 0.59706649D-02 0.17848934D+05 0.17848934D+05 0.17848934D+05 0.12393039D+01  1  2 12  5  6  2       21 0.392708146364D-03 0.100000000000D+01
0.317205855624D-06 0.000000000000D+00 0.000000000000D+00 0.117040808502D-05 0.000000000000D+00  6 2 -3 25 23 2 -3 4 0.12358797D+00 0.59706649D-02 0.17848934D+05 0.17848934D+05 0.17848934D+05 0.12393039D+01  1  2 12  5  6  2       21 0.273666052795D-03 0.100000000000D+01
-.557188574022D-06 0.000000000000D+00 -.371803678455D-07 0.118208913900D-05 0.000000000000D+00  6 2 -1 25 23 2 -1 4 0.12358797D+00 0.60060020D-02 0.15731222D+05 0.15731222D+05 0.15731222D+05 0.12454729D+01  1  2  5  5  6  2       21 -.695569236791D-03 0.100000000000D+01
-.557188574022D-06 0.000000000000D+00 -.371803678455D-07 0.118208913900D-05 0.000000000000D+00  6 2 -3 25 23 2 -3 4 0.12358797D+00 0.60060020D-02 0.15731222D+05 0.15731222D+05 0.15731222D+05 0.12454729D+01  1  2  5  5  6  2       21 -.482968441576D-03 0.100000000000D+01
0.317205855624D-06 0.000000000000D+00 0.000000000000D+00 0.117040808502D-05 0.000000000000D+00  6 2 1 25 23 2 1 4 0.12358797D+00 0.59706649D-02 0.17848934D+05 0.17848934D+05 0.17848934D+05 0.12393039D+01  1  2 12  6  6  2       21 0.452352810450D-03 0.100000000000D+01
0.317205855624D-06 0.000000000000D+00 0.000000000000D+00 0.117040808502D-05 0.000000000000D+00  6 2 3 25 23 2 3 4 0.12358797D+00 0.59706649D-02 0.17848934D+05 0.17848934D+05 0.17848934D+05 0.12393039D+01  1  2 12  6  6  2       21 0.273636381029D-03 0.100000000000D+01
-.557188574022D-06 0.000000000000D+00 -.371803678455D-07 0.118208913900D-05 0.000000000000D+00  6 2 1 25 23 2 1 4 0.12358797D+00 0.60060020D-02 0.15731222D+05 0.15731222D+05 0.15731222D+05 0.12454729D+01  1  2  5  6  6  2       21 -.802004387122D-03 0.100000000000D+01
-.557188574022D-06 0.000000000000D+00 -.371803678455D-07 0.118208913900D-05 0.000000000000D+00  6 2 3 25 23 2 3 4 0.12358797D+00 0.60060020D-02 0.15731222D+05 0.15731222D+05 0.15731222D+05 0.12454729D+01  1  2  5  6  6  2       21 -.482915352697D-03 0.100000000000D+01
0.317205855624D-06 0.000000000000D+00 0.000000000000D+00 0.117040808502D-05 0.000000000000D+00  6 2 -2 25 23 2 -2 4 0.12358797D+00 0.59706649D-02 0.17848934D+05 0.17848934D+05 0.17848934D+05 0.12393039D+01  1  2 12  7  6  2       21 0.382239464749D-03 0.100000000000D+01
-.557188574022D-06 0.000000000000D+00 -.371803678455D-07 0.118208913900D-05 0.000000000000D+00  6 2 -2 25 23 2 -2 4 0.12358797D+00 0.60060020D-02 0.15731222D+05 0.15731222D+05 0.15731222D+05 0.12454729D+01  1  2  5  7  6  2       21 -.676883697913D-03 0.100000000000D+01
0.317205855624D-06 0.000000000000D+00 0.000000000000D+00 0.117040808502D-05 0.000000000000D+00  6 2 2 25 23 2 2 4 0.12358797D+00 0.59706649D-02 0.17848934D+05 0.17848934D+05 0.17848934D+05 0.12393039D+01  1  2 12  8  6  2       21 0.492349897867D-03 0.100000000000D+01
-.557188574022D-06 0.000000000000D+00 -.371803678455D-07 0.118208913900D-05 0.000000000000D+00  6 2 2 25 23 2 2 4 0.12358797D+00 0.60060020D-02 0.15731222D+05 0.15731222D+05 0.15731222D+05 0.12454729D+01  1  2  5  8  6  2       21 -.873331891745D-03 0.100000000000D+01
0.317205855624D-06 0.000000000000D+00 0.000000000000D+00 0.117040808502D-05 0.000000000000D+00  6 2 -4 25 23 2 -4 4 0.12358797D+00 0.59706649D-02 0.17848934D+05 0.17848934D+05 0.17848934D+05 0.12393039D+01  1  2 12  9  6  2       21 0.242477104877D-03 0.100000000000D+01
-.557188574022D-06 0.000000000000D+00 -.371803678455D-07 0.118208913900D-05 0.000000000000D+00  6 2 -4 25 23 2 -4 4 0.12358797D+00 0.60060020D-02 0.15731222D+05 0.15731222D+05 0.15731222D+05 0.12454729D+01  1  2  5  9  6  2       21 -.427281623725D-03 0.100000000000D+01
0.317205855624D-06 0.000000000000D+00 0.000000000000D+00 0.117040808502D-05 0.000000000000D+00  6 2 4 25 23 2 4 4 0.12358797D+00 0.59706649D-02 0.17848934D+05 0.17848934D+05 0.17848934D+05 0.12393039D+01  1  2 12 10  6  2       21 0.242477104877D-03 0.100000000000D+01
-.557188574022D-06 0.000000000000D+00 -.371803678455D-07 0.118208913900D-05 0.000000000000D+00  6 2 4 25 23 2 4 4 0.12358797D+00 0.60060020D-02 0.15731222D+05 0.15731222D+05 0.15731222D+05 0.12454729D+01  1  2  5 10  6  2       21 -.427281623725D-03 0.100000000000D+01
  </mgrwgt>
  </event>
  <event>
  5     66 0.44822969E-03 0.43659061E+02 0.75467711E-02 0.12039179E+00
        2 -1    0    0  502    0 0.00000000E+00 0.00000000E+00 0.12531751E+04 0.12531752E+04 0.32000000E+00 0.0000E+00 0.9000E+01
       21 -1    0    0  501  502 0.00000000E+00 0.00000000E+00 -.18688145E+02 0.18703189E+02 0.75000000E+00 0.0000E+00 0.9000E+01
       25  1    1    2    0    0 0.17705525E+02 -.47425752E+02 0.67249309E+03 0.68588238E+03 0.12500000E+03 0.0000E+00 0.9000E+01
       23  1    1    2    0    0 -.42097024E+02 0.75313698E+01 0.48931832E+03 0.49957637E+03 0.91188000E+02 0.0000E+00 0.9000E+01
        2  1    1    2  501    0 0.24391499E+02 0.39894382E+02 0.72675585E+02 0.86419616E+02 0.32000000E+00 0.0000E+00 0.9000E+01
#aMCatNLO 1  0  0  2  1 0.12562871D+02 0.00000000D+00  -5  6  0 0.00000000D+00 0.00000000D+00 0.00000000D+00 0.00000000D+00 0.00000000D+00
  <mgrwgt>
 0.1078272891D+00   23    2    0
 0.153065711253304D+03 0.000000000000000D+00 0.000000000000000D+00 0.153065711253304D+03
 0.153065711253304D+03 0.000000000000000D+00 0.000000000000000D+00 -.153065711253304D+03
 0.137767714810734D+03 0.177053959730133D+02 -.474259630106979D+02 0.281467623381171D+02
 0.102385102038984D+03 -.420971202137173D+02 0.753121290293350D+01 0.184003010153528D+02
 0.659786056568905D+02 0.243917242407040D+02 0.398947501077644D+02 -.465470633534699D+02
 0.000000000000000D+00 0.000000000000000D+00 0.000000000000000D+00 -.000000000000000D+00
 0.156810423529536D+03 0.000000000000000D+00 0.000000000000000D+00 0.156810423529536D+03
 0.164106532178729D+03 0.000000000000000D+00 0.000000000000000D+00 -.164106532178729D+03
 0.139684552751538D+03 0.167729490589469D+02 -.530396288367934D+02 0.281467623381171D+02
 0.102449467697829D+03 -.427855174076683D+02 0.338681417720878D+01 0.184003010153528D+02
 0.642550680790808D+02 0.239540417944599D+02 0.372597443459376D+02 -.465470633534699D+02
 0.145278671798178D+02 0.205852655426149D+01 0.123930703136470D+02 -.729610864919302D+01
0.443727106269D-06 0.000000000000D+00 0.000000000000D+00 0.462501081514D-06 0.000000000000D+00  6 2 21 25 23 2 21 2 0.19279734D+00 0.28762596D-02 0.19929030D+05 0.19929030D+05 0.19929030D+05 0.12339960D+01  1  2  2  2  6  2       21 0.109121244630D-01 0.100000000000D+01
0.370710840860D-08 0.234161227195D-07 -.895757184112D-09 0.462501081514D-06 0.000000000000D+00  6 2 21 25 23 2 21 4 0.19279734D+00 0.28762596D-02 0.19929030D+05 0.19929030D+05 0.19929030D+05 0.12339960D+01  1  2  3  2  6  2       21 0.138821320834D-03 0.100000000000D+01
0.439910129307D-07 0.000000000000D+00 0.000000000000D+00 0.462501081514D-06 0.000000000000D+00  6 2 21 25 23 2 21 4 0.19279734D+00 0.28762596D-02 0.19929030D+05 0.19929030D+05 0.19929030D+05 0.12339960D+01  1  2 15  2  6  2       21 0.164734608400D-02 0.100000000000D+01
0.164095788186D-05 0.000000000000D+00 0.000000000000D+00 0.459506805734D-06 0.000000000000D+00  6 2 21 25 23 2 21 4 0.19279734D+00 0.31171373D-02 0.21676848D+05 0.21676848D+05 0.21676848D+05 0.12299951D+01  1  2 12  2  6  2       21 0.531677155455D-01 0.100000000000D+01
-.105387300402D-06 0.000000000000D+00 0.000000000000D+00 0.462501081514D-06 0.000000000000D+00  6 2 21 25 23 2 21 4 0.19279734D+00 0.28762596D-02 0.19929030D+05 0.19929030D+05 0.19929030D+05 0.12339960D+01  1  2  4  2  6  2       21 -.394647326930D-02 0.100000000000D+01
-.879872644236D-05 0.000000000000D+00 -.152044967072D-05 0.462501081514D-06 0.000000000000D+00  6 2 21 25 23 2 21 4 0.19279734D+00 0.31624642D-02 0.19929030D+05 0.19929030D+05 0.19929030D+05 0.12339960D+01  1  2  5  2  6  2       21 -.281911828682D+00 0.100000000000D+01
0.879879331951D-05 0.000000000000D+00 0.149343089639D-05 0.462501081514D-06 0.000000000000D+00  6 2 21 25 23 2 21 4 0.19279734D+00 0.28762596D-02 0.19929030D+05 0.19929030D+05 0.19929030D+05 0.12339960D+01  1  2  6  2  6  2       21 0.329491338188D+00 0.100000000000D+01
0.333146522540D-07 0.000000000000D+00 0.000000000000D+00 0.459506805734D-06 0.000000000000D+00  6 2 -1 25 23 2 -1 4 0.19279734D+00 0.31171373D-02 0.21676848D+05 0.21676848D+05 0.21676848D+05 0.12299951D+01  1  2 12  5  6  2       21 0.564154534316D-04 0.100000000000D+01
0.333146522540D-07 0.000000000000D+00 0.000000000000D+00 0.459506805734D-06 0.000000000000D+00  6 2 -3 25 23 2 -3 4 0.19279734D+00 0.31171373D-02 0.21676848D+05 0.21676848D+05 0.21676848D+05 0.12299951D+01  1  2 12  5  6  2       21 0.420934937776D-04 0.100000000000D+01
-.175491266599D-06 0.000000000000D+00 -.366067488682D-07 0.462501081514D-06 0.000000000000D+00  6 2 -1 25 23 2 -1 4 0.19279734D+00 0.31624642D-02 0.19929030D+05 0.19929030D+05 0.19929030D+05 0.12339960D+01  1  2  5  5  6  2       21 -.294309862873D-03 0.100000000000D+01
-.175491266599D-06 0.000000000000D+00 -.366067488682D-07 0.462501081514D-06 0.000000000000D+00  6 2 -3 25 23 2 -3 4 0.19279734D+00 0.31624642D-02 0.19929030D+05 0.19929030D+05 0.19929030D+05 0.12339960D+01  1  2  5  5  6  2       21 -.218916938169D-03 0.100000000000D+01
0.333146522540D-07 0.000000000000D+00 0.000000000000D+00 0.459506805734D-06 0.000000000000D+00  6 2 1 25 23 2 1 4 0.19279734D+00 0.31171373D-02 0.21676848D+05 0.21676848D+05 0.21676848D+05 0.12299951D+01  1  2 12  6  6  2       21 0.608824972158D-04 0.100000000000D+01
0.333146522540D-07 0.000000000000D+00 0.000000000000D+00 0.459506805734D-06 0.000000000000D+00  6 2 3 25 23 2 3 4 0.19279734D+00 0.31171373D-02 0.21676848D+05 0.21676848D+05 0.21676848D+05 0.12299951D+01  1  2 12  6  6  2       21 0.420903248294D-04 0.100000000000D+01
-.175491266599D-06 0.000000000000D+00 -.366067488682D-07 0.462501081514D-06 0.000000000000D+00  6 2 1 25 23 2 1 4 0.19279734D+00 0.31624642D-02 0.19929030D+05 0.19929030D+05 0.19929030D+05 0.12339960D+01  1  2  5  6  6  2       21 -.317988715097D-03 0.100000000000D+01
-.175491266599D-06 0.000000000000D+00 -.366067488682D-07 0.462501081514D-06 0.000000000000D+00  6 2 3 25 23 2 3 4 0.19279734D+00 0.31624642D-02 0.19929030D+05 0.19929030D+05 0.19929030D+05 0.12339960D+01  1  2  5  6  6  2       21 -.218900197647D-03 0.100000000000D+01
0.333146522540D-07 0.000000000000D+00 0.000000000000D+00 0.459506805734D-06 0.000000000000D+00  6 2 -2 25 23 2 -2 4 0.19279734D+00 0.31171373D-02 0.21676848D+05 0.21676848D+05 0.21676848D+05 0.12299951D+01  1  2 12  7  6  2       21 0.556163001389D-04 0.100000000000D+01
-.175491266599D-06 0.000000000000D+00 -.366067488682D-07 0.462501081514D-06 0.000000000000D+00  6 2 -2 25 23 2 -2 4 0.19279734D+00 0.31624642D-02 0.19929030D+05 0.19929030D+05 0.19929030D+05 0.12339960D+01  1  2  5  7  6  2       21 -.290074211143D-03 0.100000000000D+01
0.333146522540D-07 0.000000000000D+00 0.000000000000D+00 0.459506805734D-06 0.000000000000D+00  6 2 2 25 23 2 2 4 0.19279734D+00 0.31171373D-02 0.21676848D+05 0.21676848D+05 0.21676848D+05 0.12299951D+01  1  2 12  8  6  2       21 0.639164768742D-04 0.100000000000D+01
-.175491266599D-06 0.000000000000D+00 -.366067488682D-07 0.462501081514D-06 0.000000000000D+00  6 2 2 25 23 2 2 4 0.19279734D+00 0.31624642D-02 0.19929030D+05 0.19929030D+05 0.19929030D+05 0.12339960D+01  1  2  5  8  6  2       21 -.334060891332D-03 0.100000000000D+01
0.333146522540D-07 0.000000000000D+00 0.000000000000D+00 0.459506805734D-06 0.000000000000D+00  6 2 -4 25 23 2 -4 4 0.19279734D+00 0.31171373D-02 0.21676848D+05 0.21676848D+05 0.21676848D+05 0.12299951D+01  1  2 12  9  6  2       21 0.379649202093D-04 0.100000000000D+01
-.175491266599D-06 0.000000000000D+00 -.366067488682D-07 0.462501081514D-06 0.000000000000D+00  6 2 -4 25 23 2 -4 4 0.19279734D+00 0.31624642D-02 0.19929030D+05 0.19929030D+05 0.19929030D+05 0.12339960D+01  1  2  5  9  6  2       21 -.197224038615D-03 0.100000000000D+01
0.333146522540D-07 0.000000000000D+00 0.000000000000D+00 0.459506805734D-06 0.000000000000D+00  6 2 4 25 23 2 4 4 0.19279734D+00 0.31171373D-02 0.21676848D+05 0.21676848D+05 0.21676848D+05 0.12299951D+01  1  2 12 10  6  2       21 0.379649202093D-04 0.100000000000D+01
-.175491266599D-06 0.000000000000D+00 -.366067488682D-07 0.462501081514D-06 0.000000000000D+00  6 2 4 25 23 2 4 4 0.19279734D+00 0.31624642D-02 0.19929030D+05 0.19929030D+05 0.19929030D+05 0.12339960D+01  1  2  5 10  6  2       21 -.197224038615D-03 0.100000000000D+01
  </mgrwgt>
  </event>
  <event>
  5     66 -.44822969E-03 0.22390644E+02 0.75467711E-02 0.11271984E+00
        2 -1    0    0  502    0 0.00000000E+00 0.00000000E+00 0.18563390E+04 0.18563390E+04 0.32000000E+00 0.0000E+00 0.9000E+01
       21 -1    0    0  501  502 0.00000000E+00 0.00000000E+00 -.13862064E+02 0.13882338E+02 0.75000000E+00 0.0000E+00 0.9000E+01
       25  1    1    2    0    0 -.87434556E+02 0.46271123E+02 0.82880130E+03 0.84399195E+03 0.12500000E+03 0.0000E+00 0.9000E+01
       23  1    1    2    0    0 0.78245950E+02 -.66687294E+02 0.85226244E+03 0.86327060E+03 0.91188000E+02 0.0000E+00 0.9000E+01
        2  1    1    2  501    0 0.91886068E+01 0.20416171E+02 0.16141320E+03 0.16295881E+03 0.32000000E+00 0.0000E+00 0.9000E+01
#aMCatNLO 1  0  0  2  1 0.11825027D+03 0.00000000D+00  -5  6  0 0.00000000D+00 0.00000000D+00 0.00000000D+00 0.00000000D+00 0.00000000D+00
  <mgrwgt>
 -.5613188999D-01   12    2    0
 0.160473281403670D+03 0.000000000000000D+00 0.000000000000000D+00 0.160473281403670D+03
 0.160473281403670D+03 0.000000000000000D+00 0.000000000000000D+00 -.160473281403670D+03
 0.160165270884915D+03 -.874350017176595D+02 0.462701329849562D+02 -.155598607264177D+02
 0.137821393223131D+03 0.782455662475461D+02 -.666881454836648D+02 0.104789169533562D+02
 0.229598986992934D+02 0.918943547011338D+01 0.204180124987087D+02 0.508094377306156D+01
 0.000000000000000D+00 -.000000000000000D+00 0.000000000000000D+00 -.000000000000000D+00
 0.185736311727504D+03 0.000000000000000D+00 0.000000000000000D+00 0.185736311727504D+03
 0.408545372791907D+03 0.000000000000000D+00 0.000000000000000D+00 -.408545372791907D+03
 0.146548737325102D+03 -.745772789762316D+02 -.690308671953978D+01 -.155598607264177D+02
 0.177536636275364D+03 0.914656540134698D+02 -.121359928771171D+03 0.104789169533562D+02
 0.179523751898513D+02 0.109045142089618D+02 0.133252900605851D+02 0.508094377306156D+01
 0.252243935729094D+03 -.277928892462000D+02 0.114937725430126D+03 -.222809061064403D+03
0.319661788742D-05 0.000000000000D+00 0.000000000000D+00 0.238632869840D-06 0.000000000000D+00  6 2 21 25 23 2 21 2 0.28559218D+00 0.21341869D-02 0.25475473D+05 0.25475473D+05 0.25475473D+05 0.12224214D+01  1  2  2  2  6  2       21 0.607146844388D-01 0.100000000000D+01
0.188555205153D-06 0.168690160420D-06 -.645305052826D-08 0.238632869840D-06 0.000000000000D+00  6 2 21 25 23 2 21 4 0.28559218D+00 0.21341869D-02 0.25475473D+05 0.25475473D+05 0.25475473D+05 0.12224214D+01  1  2  3  2  6  2       21 0.535159714536D-02 0.100000000000D+01
0.326761297161D-06 0.000000000000D+00 0.000000000000D+00 0.238632869840D-06 0.000000000000D+00  6 2 21 25 23 2 21 4 0.28559218D+00 0.21341869D-02 0.25475473D+05 0.25475473D+05 0.25475473D+05 0.12224214D+01  1  2 15  2  6  2       21 0.927417953634D-02 0.100000000000D+01
-.252374402471D-04 0.000000000000D+00 -.798402418360D-05 0.238632869840D-06 0.000000000000D+00  6 2 21 25 23 2 21 4 0.28559218D+00 0.64144794D-02 0.25475473D+05 0.25475473D+05 0.25475473D+05 0.12224214D+01  1  2  5  2  6  2       21 -.114635101506D+00 0.100000000000D+01
-.871075552776D-05 0.000000000000D+00 -.282701769206D-05 0.238632869840D-06 0.000000000000D+00  6 2 -1 25 23 2 -1 4 0.28559218D+00 0.64144794D-02 0.25475473D+05 0.25475473D+05 0.25475473D+05 0.12224214D+01  1  2  5  5  6  2       21 -.239281964060D-02 0.100000000000D+01
-.871075552776D-05 0.000000000000D+00 -.282701769206D-05 0.238632869840D-06 0.000000000000D+00  6 2 -3 25 23 2 -3 4 0.28559218D+00 0.64144794D-02 0.25475473D+05 0.25475473D+05 0.25475473D+05 0.12224214D+01  1  2  5  5  6  2       21 -.166777671703D-02 0.100000000000D+01
-.871075552776D-05 0.000000000000D+00 -.282701769206D-05 0.238632869840D-06 0.000000000000D+00  6 2 1 25 23 2 1 4 0.28559218D+00 0.64144794D-02 0.25475473D+05 0.25475473D+05 0.25475473D+05 0.12224214D+01  1  2  5  6  6  2       21 -.278152627182D-02 0.100000000000D+01
-.871075552776D-05 0.000000000000D+00 -.282701769206D-05 0.238632869840D-06 0.000000000000D+00  6 2 3 25 23 2 3 4 0.28559218D+00 0.64144794D-02 0.25475473D+05 0.25475473D+05 0.25475473D+05 0.12224214D+01  1  2  5  6  6  2       21 -.166759580124D-02 0.100000000000D+01
-.871075552776D-05 0.000000000000D+00 -.282701769206D-05 0.238632869840D-06 0.000000000000D+00  6 2 -2 25 23 2 -2 4 0.28559218D+00 0.64144794D-02 0.25475473D+05 0.25475473D+05 0.25475473D+05 0.12224214D+01  1  2  5  7  6  2       21 -.232479182705D-02 0.100000000000D+01
-.871075552776D-05 0.000000000000D+00 -.282701769206D-05 0.238632869840D-06 0.000000000000D+00  6 2 2 25 23 2 2 4 0.28559218D+00 0.64144794D-02 0.25475473D+05 0.25475473D+05 0.25475473D+05 0.12224214D+01  1  2  5  8  6  2       21 -.304266839117D-02 0.100000000000D+01
-.871075552776D-05 0.000000000000D+00 -.282701769206D-05 0.238632869840D-06 0.000000000000D+00  6 2 -4 25 23 2 -4 4 0.28559218D+00 0.64144794D-02 0.25475473D+05 0.25475473D+05 0.25475473D+05 0.12224214D+01  1  2  5  9  6  2       21 -.148003547552D-02 0.100000000000D+01
-.871075552776D-05 0.000000000000D+00 -.282701769206D-05 0.238632869840D-06 0.000000000000D+00  6 2 4 25 23 2 4 4 0.28559218D+00 0.64144794D-02 0.25475473D+05 0.25475473D+05 0.25475473D+05 0.12224214D+01  1  2  5 10  6  2       21 -.148003547552D-02 0.100000000000D+01
  </mgrwgt>
  </event>
  <event>
  5     66 0.44822969E-03 0.98145767E+02 0.75467711E-02 0.11582040E+00
        2 -1    0    0  502    0 0.00000000E+00 0.00000000E+00 0.12151364E+03 0.12151406E+03 0.32000000E+00 0.0000E+00 0.9000E+01
       21 -1    0    0  501  502 0.00000000E+00 0.00000000E+00 -.32587678E+03 0.32587764E+03 0.75000000E+00 0.0000E+00 0.9000E+01
       25  1    1    2    0    0 -.25263433E+02 0.33357435E+02 0.13705972E+02 0.13252854E+03 0.12500000E+03 0.0000E+00 0.9000E+01
       23  1    1    2    0    0 -.61831448E+02 0.31359175E+02 -.82242629E+02 0.14101641E+03 0.91188000E+02 0.0000E+00 0.9000E+01
        2  1    1    2  501    0 0.87094882E+02 -.64716609E+02 -.13582648E+03 0.17384675E+03 0.32000000E+00 0.0000E+00 0.9000E+01
#aMCatNLO 1  0  0  2  1 0.25356171D+02 0.00000000D+00  -5  6  0 0.00000000D+00 0.00000000D+00 0.00000000D+00 0.00000000D+00 0.00000000D+00
  <mgrwgt>
 0.3955473785D-01   32    2    0
 0.198994371157915D+03 0.000000000000000D+00 0.000000000000000D+00 0.198994371157915D+03
 0.198994371157915D+03 0.000000000000000D+00 0.000000000000000D+00 -.198994371157915D+03
 0.156017463572309D+03 -.252635441310469D+02 0.333575169022772D+02 0.834594413088762D+02
 0.116290294650977D+03 -.618315307331855D+02 0.313592361136021D+02 -.200409930785265D+02
 0.125680984092543D+03 0.870950748642324D+02 -.647167530158793D+02 -.634184482303497D+02
 0.000000000000000D+00 0.000000000000000D+00 -.000000000000000D+00 -.000000000000000D+00
 0.203205108650556D+03 0.000000000000000D+00 0.000000000000000D+00 0.203205108650556D+03
 0.241615316739719D+03 0.000000000000000D+00 0.000000000000000D+00 -.241615316739719D+03
 0.158996881821754D+03 -.309397004333244D+02 0.416204880142854D+02 0.834594413088762D+02
 0.120403381877197D+03 -.660964485801933D+02 0.375678200722175D+02 -.200409930785265D+02
 0.119395391264271D+03 0.826791114871338D+02 -.582882870129237D+02 -.634184482303497D+02
 0.460247704270519D+02 0.143570375263838D+02 -.209000210735791D+02 -.384102080891628D+02
0.237487435658D-05 0.000000000000D+00 0.000000000000D+00 0.169892234110D-06 0.000000000000D+00  6 2 21 25 23 2 21 2 0.18694504D-01 0.50134988D-01 0.31484159D+05 0.31484159D+05 0.31484159D+05 0.12127036D+01  1  2  2  2  6  2       21 0.486741443842D-02 0.100000000000D+01
-.138344740820D-06 0.125325562922D-06 -.479418709429D-08 0.169892234110D-06 0.000000000000D+00  6 2 21 25 23 2 21 4 0.18694504D-01 0.50134988D-01 0.31484159D+05 0.31484159D+05 0.31484159D+05 0.12127036D+01  1  2  3  2  6  2       21 -.416993857606D-03 0.100000000000D+01
0.168378953896D-06 0.000000000000D+00 0.000000000000D+00 0.169892234110D-06 0.000000000000D+00  6 2 21 25 23 2 21 4 0.18694504D-01 0.50134988D-01 0.31484159D+05 0.31484159D+05 0.31484159D+05 0.12127036D+01  1  2 15  2  6  2       21 0.507521927533D-03 0.100000000000D+01
0.106649846359D-04 0.000000000000D+00 0.000000000000D+00 0.168135386898D-06 0.000000000000D+00  6 2 21 25 23 2 21 4 0.18694504D-01 0.61326666D-01 0.36208609D+05 0.36208609D+05 0.36208609D+05 0.12064170D+01  1  2 12  2  6  2       21 0.205059324302D-01 0.100000000000D+01
0.841568339555D-05 0.000000000000D+00 0.000000000000D+00 0.168135386898D-06 0.000000000000D+00  6 2 21 25 23 2 21 4 0.18694504D-01 0.64268339D-01 0.36208609D+05 0.36208609D+05 0.36208609D+05 0.12064170D+01  1  2 12  2  6  2       21 0.146217413561D-01 0.100000000000D+01
-.908400595796D-05 0.000000000000D+00 0.000000000000D+00 0.169892234110D-06 0.000000000000D+00  6 2 21 25 23 2 21 4 0.18694504D-01 0.50134988D-01 0.31484159D+05 0.31484159D+05 0.31484159D+05 0.12127036D+01  1  2  4  2  6  2       21 -.273806916294D-01 0.100000000000D+01
-.291714872740D-04 0.000000000000D+00 -.400032911886D-05 0.169892234110D-06 0.000000000000D+00  6 2 21 25 23 2 21 4 0.18694504D-01 0.61703369D-01 0.31484159D+05 0.31484159D+05 0.31484159D+05 0.12127036D+01  1  2  5  2  6  2       21 -.566687684831D-01 0.100000000000D+01
0.278914108917D-04 0.000000000000D+00 0.367544454337D-05 0.169892234110D-06 0.000000000000D+00  6 2 21 25 23 2 21 4 0.18694504D-01 0.50134988D-01 0.31484159D+05 0.31484159D+05 0.31484159D+05 0.12127036D+01  1  2  6  2  6  2       21 0.840693108600D-01 0.100000000000D+01
0.617384276302D-06 0.000000000000D+00 0.000000000000D+00 0.168135386898D-06 0.000000000000D+00  6 2 -1 25 23 2 -1 4 0.18694504D-01 0.61326666D-01 0.36208609D+05 0.36208609D+05 0.36208609D+05 0.12064170D+01  1  2 12  5  6  2       21 0.124154603215D-03 0.100000000000D+01
0.617384276302D-06 0.000000000000D+00 0.000000000000D+00 0.168135386898D-06 0.000000000000D+00  6 2 -3 25 23 2 -3 4 0.18694504D-01 0.61326666D-01 0.36208609D+05 0.36208609D+05 0.36208609D+05 0.12064170D+01  1  2 12  5  6  2       21 0.622872101696D-04 0.100000000000D+01
0.628208387655D-06 0.000000000000D+00 0.000000000000D+00 0.168135386898D-06 0.000000000000D+00  6 2 -1 25 23 2 -1 4 0.18694504D-01 0.64268339D-01 0.36208609D+05 0.36208609D+05 0.36208609D+05 0.12064170D+01  1  2 12  5  6  2       21 0.115377611685D-03 0.100000000000D+01
0.628208387655D-06 0.000000000000D+00 0.000000000000D+00 0.168135386898D-06 0.000000000000D+00  6 2 -3 25 23 2 -3 4 0.18694504D-01 0.64268339D-01 0.36208609D+05 0.36208609D+05 0.36208609D+05 0.12064170D+01  1  2 12  5  6  2       21 0.574656695290D-04 0.100000000000D+01
-.146138743672D-05 0.000000000000D+00 -.240104535269D-06 0.169892234110D-06 0.000000000000D+00  6 2 -1 25 23 2 -1 4 0.18694504D-01 0.61703369D-01 0.31484159D+05 0.31484159D+05 0.31484159D+05 0.12127036D+01  1  2  5  5  6  2       21 -.296248627409D-03 0.100000000000D+01
-.146138743672D-05 0.000000000000D+00 -.240104535269D-06 0.169892234110D-06 0.000000000000D+00  6 2 -3 25 23 2 -3 4 0.18694504D-01 0.61703369D-01 0.31484159D+05 0.31484159D+05 0.31484159D+05 0.12127036D+01  1  2  5  5  6  2       21 -.147997094544D-03 0.100000000000D+01
0.617384276302D-06 0.000000000000D+00 0.000000000000D+00 0.168135386898D-06 0.000000000000D+00  6 2 1 25 23 2 1 4 0.18694504D-01 0.61326666D-01 0.36208609D+05 0.36208609D+05 0.36208609D+05 0.12064170D+01  1  2 12  6  6  2       21 0.321146646323D-03 0.100000000000D+01
0.617384276302D-06 0.000000000000D+00 0.000000000000D+00 0.168135386898D-06 0.000000000000D+00  6 2 3 25 23 2 3 4 0.18694504D-01 0.61326666D-01 0.36208609D+05 0.36208609D+05 0.36208609D+05 0.12064170D+01  1  2 12  6  6  2       21 0.623319874162D-04 0.100000000000D+01
0.628208387655D-06 0.000000000000D+00 0.000000000000D+00 0.168135386898D-06 0.000000000000D+00  6 2 1 25 23 2 1 4 0.18694504D-01 0.64268339D-01 0.36208609D+05 0.36208609D+05 0.36208609D+05 0.12064170D+01  1  2 12  6  6  2       21 0.307784949696D-03 0.100000000000D+01
0.628208387655D-06 0.000000000000D+00 0.000000000000D+00 0.168135386898D-06 0.000000000000D+00  6 2 3 25 23 2 3 4 0.18694504D-01 0.64268339D-01 0.36208609D+05 0.36208609D+05 0.36208609D+05 0.12064170D+01  1  2 12  6  6  2       21 0.575117576818D-04 0.100000000000D+01
-.146138743672D-05 0.000000000000D+00 -.240104535269D-06 0.169892234110D-06 0.000000000000D+00  6 2 1 25 23 2 1 4 0.18694504D-01 0.61703369D-01 0.31484159D+05 0.31484159D+05 0.31484159D+05 0.12127036D+01  1  2  5  6  6  2       21 -.769141800764D-03 0.100000000000D+01
-.146138743672D-05 0.000000000000D+00 -.240104535269D-06 0.169892234110D-06 0.000000000000D+00  6 2 3 25 23 2 3 4 0.18694504D-01 0.61703369D-01 0.31484159D+05 0.31484159D+05 0.31484159D+05 0.12127036D+01  1  2  5  6  6  2       21 -.148104686814D-03 0.100000000000D+01
0.617384276302D-06 0.000000000000D+00 0.000000000000D+00 0.168135386898D-06 0.000000000000D+00  6 2 -2 25 23 2 -2 4 0.18694504D-01 0.61326666D-01 0.36208609D+05 0.36208609D+05 0.36208609D+05 0.12064170D+01  1  2 12  7  6  2       21 0.986854637528D-04 0.100000000000D+01
0.628208387655D-06 0.000000000000D+00 0.000000000000D+00 0.168135386898D-06 0.000000000000D+00  6 2 -2 25 23 2 -2 4 0.18694504D-01 0.64268339D-01 0.36208609D+05 0.36208609D+05 0.36208609D+05 0.12064170D+01  1  2 12  7  6  2       21 0.910645150709D-04 0.100000000000D+01
-.146138743672D-05 0.000000000000D+00 -.240104535269D-06 0.169892234110D-06 0.000000000000D+00  6 2 -2 25 23 2 -2 4 0.18694504D-01 0.61703369D-01 0.31484159D+05 0.31484159D+05 0.31484159D+05 0.12127036D+01  1  2  5  7  6  2       21 -.235132405398D-03 0.100000000000D+01
0.617384276302D-06 0.000000000000D+00 0.000000000000D+00 0.168135386898D-06 0.000000000000D+00  6 2 2 25 23 2 2 4 0.18694504D-01 0.61326666D-01 0.36208609D+05 0.36208609D+05 0.36208609D+05 0.12064170D+01  1  2 12  8  6  2       21 0.479360985202D-03 0.100000000000D+01
0.628208387655D-06 0.000000000000D+00 0.000000000000D+00 0.168135386898D-06 0.000000000000D+00  6 2 2 25 23 2 2 4 0.18694504D-01 0.64268339D-01 0.36208609D+05 0.36208609D+05 0.36208609D+05 0.12064170D+01  1  2 12  8  6  2       21 0.463625942350D-03 0.100000000000D+01
-.146138743672D-05 0.000000000000D+00 -.240104535269D-06 0.169892234110D-06 0.000000000000D+00  6 2 2 25 23 2 2 4 0.18694504D-01 0.61703369D-01 0.31484159D+05 0.31484159D+05 0.31484159D+05 0.12127036D+01  1  2  5  8  6  2       21 -.114882339907D-02 0.100000000000D+01
0.617384276302D-06 0.000000000000D+00 0.000000000000D+00 0.168135386898D-06 0.000000000000D+00  6 2 -4 25 23 2 -4 4 0.18694504D-01 0.61326666D-01 0.36208609D+05 0.36208609D+05 0.36208609D+05 0.12064170D+01  1  2 12  9  6  2       21 0.510643790554D-04 0.100000000000D+01
0.628208387655D-06 0.000000000000D+00 0.000000000000D+00 0.168135386898D-06 0.000000000000D+00  6 2 -4 25 23 2 -4 4 0.18694504D-01 0.64268339D-01 0.36208609D+05 0.36208609D+05 0.36208609D+05 0.12064170D+01  1  2 12  9  6  2       21 0.470214074040D-04 0.100000000000D+01
-.146138743672D-05 0.000000000000D+00 -.240104535269D-06 0.169892234110D-06 0.000000000000D+00  6 2 -4 25 23 2 -4 4 0.18694504D-01 0.61703369D-01 0.31484159D+05 0.31484159D+05 0.31484159D+05 0.12127036D+01  1  2  5  9  6  2       21 -.121125048750D-03 0.100000000000D+01
0.617384276302D-06 0.000000000000D+00 0.000000000000D+00 0.168135386898D-06 0.000000000000D+00  6 2 4 25 23 2 4 4 0.18694504D-01 0.61326666D-01 0.36208609D+05 0.36208609D+05 0.36208609D+05 0.12064170D+01  1  2 12 10  6  2       21 0.510643790554D-04 0.100000000000D+01
0.628208387655D-06 0.000000000000D+00 0.000000000000D+00 0.168135386898D-06 0.000000000000D+00  6 2 4 25 23 2 4 4 0.18694504D-01 0.64268339D-01 0.36208609D+05 0.36208609D+05 0.36208609D+05 0.12064170D+01  1  2 12 10  6  2       21 0.470214074040D-04 0.100000000000D+01
-.146138743672D-05 0.000000000000D+00 -.240104535269D-06 0.169892234110D-06 0.000000000000D+00  6 2 4 25 23 2 4 4 0.18694504D-01 0.61703369D-01 0.31484159D+05 0.31484159D+05 0.31484159D+05 0.12127036D+01  1  2  5 10  6  2       21 -.121125048750D-03 0.100000000000D+01
  </mgrwgt>
  </event>
  <event>
  5     66 0.44822969E-03 0.27586625E+02 0.75467711E-02 0.12153777E+00
        2 -1    0    0  502    0 0.00000000E+00 0.00000000E+00 0.28533360E+04 0.28533360E+04 0.32000000E+00 0.0000E+00 0.9000E+01
       21 -1    0    0  501  502 0.00000000E+00 0.00000000E+00 -.93828050E+01 0.94127323E+01 0.75000000E+00 0.0000E+00 0.9000E+01
       25  1    1    2    0    0 -.68595474E+02 0.26246703E+02 0.20535707E+04 0.20586821E+04 0.12500000E+03 0.0000E+00 0.9000E+01
       23  1    1    2    0    0 0.41011949E+02 -.25855372E+02 0.73471571E+03 0.74193861E+03 0.91188000E+02 0.0000E+00 0.9000E+01
        2  1    1    2  501    0 0.27583525E+02 -.39133099E+00 0.55666796E+02 0.62128082E+02 0.32000000E+00 0.0000E+00 0.9000E+01
#aMCatNLO 1  0  0  2  1 0.11816100D+01 0.00000000D+00  -5  6  0 0.00000000D+00 0.00000000D+00 0.00000000D+00 0.00000000D+00 0.00000000D+00
  <mgrwgt>
 0.1516687557D+00   32    2    0
 0.163753345253891D+03 0.000000000000000D+00 0.000000000000000D+00 0.163753345253891D+03
 0.163753345253891D+03 0.000000000000000D+00 0.000000000000000D+00 -.163753345253891D+03
 0.162532988726857D+03 -.685956706846859D+02 0.262467053236262D+02 0.734691557557146D+02
 0.105300796870675D+03 0.410118213335739D+02 -.258553697323551D+02 -.205557010219911D+02
 0.596729049102493D+02 0.275838493511120D+02 -.391335591271124D+00 -.529134547337236D+02
 0.000000000000000D+00 0.000000000000000D+00 0.000000000000000D+00 -.000000000000000D+00
 0.163899659955158D+03 0.000000000000000D+00 0.000000000000000D+00 0.163899659955158D+03
 0.166157530848945D+03 0.000000000000000D+00 0.000000000000000D+00 -.166157530848945D+03
 0.162569307196774D+03 -.688762737394239D+02 0.257317257632217D+02 0.734691557557146D+02
 0.105312598410392D+03 0.408300362067827D+02 -.261889927029620D+02 -.205557010219911D+02
 0.596269164566424D+02 0.274808790100071D+02 -.580312938814343D+00 -.529134547337236D+02
 0.254836874029393D+01 0.565358522634181D+00 0.103757987855457D+01 -.225787089378707D+01
0.126481686889D-05 0.000000000000D+00 0.000000000000D+00 0.850191046799D-06 0.000000000000D+00  6 2 21 25 23 2 21 2 0.43897707D+00 0.14458119D-02 0.19022174D+05 0.19022174D+05 0.19022174D+05 0.12362299D+01  1  2  2  2  6  2       21 0.136552172361D-01 0.100000000000D+01
0.113537969243D-06 0.667462199202D-07 -.255330084840D-08 0.850191046799D-06 0.000000000000D+00  6 2 21 25 23 2 21 4 0.43897707D+00 0.14458119D-02 0.19022174D+05 0.19022174D+05 0.19022174D+05 0.12362299D+01  1  2  3  2  6  2       21 0.187331409328D-02 0.100000000000D+01
0.119861324698D-06 0.000000000000D+00 0.000000000000D+00 0.850191046799D-06 0.000000000000D+00  6 2 21 25 23 2 21 4 0.43897707D+00 0.14458119D-02 0.19022174D+05 0.19022174D+05 0.19022174D+05 0.12362299D+01  1  2 15  2  6  2       21 0.197764598303D-02 0.100000000000D+01
0.125648328171D-09 0.000000000000D+00 0.000000000000D+00 0.849648185888D-06 0.000000000000D+00  6 2 21 25 23 2 21 4 0.43897707D+00 0.14676798D-02 0.19179000D+05 0.19179000D+05 0.19179000D+05 0.12358352D+01  1  2 12  2  6  2       21 0.202104922237D-05 0.100000000000D+01
-.372190624474D-04 0.000000000000D+00 0.000000000000D+00 0.850191046799D-06 0.000000000000D+00  6 2 21 25 23 2 21 4 0.43897707D+00 0.14458119D-02 0.19022174D+05 0.19022174D+05 0.19022174D+05 0.12362299D+01  1  2  4  2  6  2       21 -.614094075191D+00 0.100000000000D+01
-.395460867458D-03 0.000000000000D+00 -.248163114315D-04 0.850191046799D-06 0.000000000000D+00  6 2 21 25 23 2 21 4 0.43897707D+00 0.14686557D-02 0.19022174D+05 0.19022174D+05 0.19022174D+05 0.12362299D+01  1  2  5  2  6  2       21 -.636347532431D+01 0.100000000000D+01
0.395634424990D-03 0.000000000000D+00 0.248041184917D-04 0.850191046799D-06 0.000000000000D+00  6 2 21 25 23 2 21 4 0.43897707D+00 0.14458119D-02 0.19022174D+05 0.19022174D+05 0.19022174D+05 0.12362299D+01  1  2  6  2  6  2       21 0.652775057596D+01 0.100000000000D+01
0.365165127533D-04 0.000000000000D+00 0.000000000000D+00 0.850191046799D-06 0.998218256921D-05  6 2 21 25 23 2 21 4 0.43936930D+00 0.14670390D-02 0.19179000D+05 0.19179000D+05 0.19179000D+05 0.12358352D+01  1  2 11  2  6  2       21 0.585835493381D+00 0.100000000000D+01
0.134649379572D-10 0.000000000000D+00 0.000000000000D+00 0.849648185888D-06 0.000000000000D+00  6 2 -1 25 23 2 -1 4 0.43897707D+00 0.14676798D-02 0.19179000D+05 0.19179000D+05 0.19179000D+05 0.12358352D+01  1  2 12  5  6  2       21 0.990332530489D-08 0.100000000000D+01
0.134649379572D-10 0.000000000000D+00 0.000000000000D+00 0.849648185888D-06 0.000000000000D+00  6 2 -3 25 23 2 -3 4 0.43897707D+00 0.14676798D-02 0.19179000D+05 0.19179000D+05 0.19179000D+05 0.12358352D+01  1  2 12  5  6  2       21 0.783849103604D-08 0.100000000000D+01
-.133360531834D-05 0.000000000000D+00 -.884869518695D-07 0.850191046799D-06 0.000000000000D+00  6 2 -1 25 23 2 -1 4 0.43897707D+00 0.14686557D-02 0.19022174D+05 0.19022174D+05 0.19022174D+05 0.12362299D+01  1  2  5  5  6  2       21 -.981225802074D-03 0.100000000000D+01
-.133360531834D-05 0.000000000000D+00 -.884869518695D-07 0.850191046799D-06 0.000000000000D+00  6 2 -3 25 23 2 -3 4 0.43897707D+00 0.14686557D-02 0.19022174D+05 0.19022174D+05 0.19022174D+05 0.12362299D+01  1  2  5  5  6  2       21 -.776477597943D-03 0.100000000000D+01
0.713533919769D-06 0.000000000000D+00 0.000000000000D+00 0.850191046799D-06 0.349149697258D-07  6 2 -1 25 23 2 -1 4 0.43936930D+00 0.14670390D-02 0.19179000D+05 0.19179000D+05 0.19179000D+05 0.12358352D+01  1  2 11  5  6  2       21 0.523391332317D-03 0.100000000000D+01
0.713533919769D-06 0.000000000000D+00 0.000000000000D+00 0.850191046799D-06 0.349149697258D-07  6 2 -3 25 23 2 -3 4 0.43936930D+00 0.14670390D-02 0.19179000D+05 0.19179000D+05 0.19179000D+05 0.12358352D+01  1  2 11  5  6  2       21 0.414278123338D-03 0.100000000000D+01
0.134649379572D-10 0.000000000000D+00 0.000000000000D+00 0.849648185888D-06 0.000000000000D+00  6 2 1 25 23 2 1 4 0.43897707D+00 0.14676798D-02 0.19179000D+05 0.19179000D+05 0.19179000D+05 0.12358352D+01  1  2 12  6  6  2       21 0.102752201941D-07 0.100000000000D+01
0.134649379572D-10 0.000000000000D+00 0.000000000000D+00 0.849648185888D-06 0.000000000000D+00  6 2 3 25 23 2 3 4 0.43897707D+00 0.14676798D-02 0.19179000D+05 0.19179000D+05 0.19179000D+05 0.12358352D+01  1  2 12  6  6  2       21 0.783812781424D-08 0.100000000000D+01
-.133360531834D-05 0.000000000000D+00 -.884869518695D-07 0.850191046799D-06 0.000000000000D+00  6 2 1 25 23 2 1 4 0.43897707D+00 0.14686557D-02 0.19022174D+05 0.19022174D+05 0.19022174D+05 0.12362299D+01  1  2  5  6  6  2       21 -.101810584886D-02 0.100000000000D+01
-.133360531834D-05 0.000000000000D+00 -.884869518695D-07 0.850191046799D-06 0.000000000000D+00  6 2 3 25 23 2 3 4 0.43897707D+00 0.14686557D-02 0.19022174D+05 0.19022174D+05 0.19022174D+05 0.12362299D+01  1  2  5  6  6  2       21 -.776441576702D-03 0.100000000000D+01
0.713005111543D-06 0.000000000000D+00 0.000000000000D+00 0.850191046799D-06 0.348890938386D-07  6 2 1 25 23 2 1 4 0.43936930D+00 0.14670390D-02 0.19179000D+05 0.19179000D+05 0.19179000D+05 0.12358352D+01  1  2 11  6  6  2       21 0.542635066319D-03 0.100000000000D+01
0.713005111543D-06 0.000000000000D+00 0.000000000000D+00 0.850191046799D-06 0.348890938386D-07  6 2 3 25 23 2 3 4 0.43936930D+00 0.14670390D-02 0.19179000D+05 0.19179000D+05 0.19179000D+05 0.12358352D+01  1  2 11  6  6  2       21 0.413951920200D-03 0.100000000000D+01
0.134649379572D-10 0.000000000000D+00 0.000000000000D+00 0.849648185888D-06 0.000000000000D+00  6 2 -2 25 23 2 -2 4 0.43897707D+00 0.14676798D-02 0.19179000D+05 0.19179000D+05 0.19179000D+05 0.12358352D+01  1  2 12  7  6  2       21 0.983739477696D-08 0.100000000000D+01
-.133360531834D-05 0.000000000000D+00 -.884869518695D-07 0.850191046799D-06 0.000000000000D+00  6 2 -2 25 23 2 -2 4 0.43897707D+00 0.14686557D-02 0.19022174D+05 0.19022174D+05 0.19022174D+05 0.12362299D+01  1  2  5  7  6  2       21 -.974687373932D-03 0.100000000000D+01
0.266585621598D-05 0.000000000000D+00 0.000000000000D+00 0.850191046799D-06 0.725605688039D-06  6 2 -2 25 23 2 -2 4 0.43936930D+00 0.14670390D-02 0.19179000D+05 0.19179000D+05 0.19179000D+05 0.12358352D+01  1  2 11  7  6  2       21 0.194244623553D-02 0.100000000000D+01
0.134649379572D-10 0.000000000000D+00 0.000000000000D+00 0.849648185888D-06 0.000000000000D+00  6 2 2 25 23 2 2 4 0.43897707D+00 0.14676798D-02 0.19179000D+05 0.19179000D+05 0.19179000D+05 0.12358352D+01  1  2 12  8  6  2       21 0.105330210448D-07 0.100000000000D+01
-.133360531834D-05 0.000000000000D+00 -.884869518695D-07 0.850191046799D-06 0.000000000000D+00  6 2 2 25 23 2 2 4 0.43897707D+00 0.14686557D-02 0.19022174D+05 0.19022174D+05 0.19022174D+05 0.12362299D+01  1  2  5  8  6  2       21 -.104367079469D-02 0.100000000000D+01
0.697279549790D-06 0.000000000000D+00 0.000000000000D+00 0.850191046799D-06 0.174720608022D-07  6 2 2 25 23 2 2 4 0.43936930D+00 0.14670390D-02 0.19179000D+05 0.19179000D+05 0.19179000D+05 0.12358352D+01  1  2 11  8  6  2       21 0.543975874114D-03 0.100000000000D+01
0.134649379572D-10 0.000000000000D+00 0.000000000000D+00 0.849648185888D-06 0.000000000000D+00  6 2 -4 25 23 2 -4 4 0.43897707D+00 0.14676798D-02 0.19179000D+05 0.19179000D+05 0.19179000D+05 0.12358352D+01  1  2 12  9  6  2       21 0.715860862662D-08 0.100000000000D+01
-.133360531834D-05 0.000000000000D+00 -.884869518695D-07 0.850191046799D-06 0.000000000000D+00  6 2 -4 25 23 2 -4 4 0.43897707D+00 0.14686557D-02 0.19022174D+05 0.19022174D+05 0.19022174D+05 0.12362299D+01  1  2  5  9  6  2       21 -.709065976233D-03 0.100000000000D+01
0.708839551003D-06 0.000000000000D+00 0.000000000000D+00 0.850191046799D-06 0.346852627156D-07  6 2 -4 25 23 2 -4 4 0.43936930D+00 0.14670390D-02 0.19179000D+05 0.19179000D+05 0.19179000D+05 0.12358352D+01  1  2 11  9  6  2       21 0.375858491630D-03 0.100000000000D+01
0.134649379572D-10 0.000000000000D+00 0.000000000000D+00 0.849648185888D-06 0.000000000000D+00  6 2 4 25 23 2 4 4 0.43897707D+00 0.14676798D-02 0.19179000D+05 0.19179000D+05 0.19179000D+05 0.12358352D+01  1  2 12 10  6  2       21 0.715860862662D-08 0.100000000000D+01
-.133360531834D-05 0.000000000000D+00 -.884869518695D-07 0.850191046799D-06 0.000000000000D+00  6 2 4 25 23 2 4 4 0.43897707D+00 0.14686557D-02 0.19022174D+05 0.19022174D+05 0.19022174D+05 0.12362299D+01  1  2  5 10  6  2       21 -.709065976233D-03 0.100000000000D+01
0.709145668585D-06 0.000000000000D+00 0.000000000000D+00 0.850191046799D-06 0.347002418019D-07  6 2 4 25 23 2 4 4 0.43936930D+00 0.14670390D-02 0.19179000D+05 0.19179000D+05 0.19179000D+05 0.12358352D+01  1  2 11 10  6  2       21 0.376020808889D-03 0.100000000000D+01
  </mgrwgt>
  </event>
  <event>
  6     66 -.44822969E-03 0.61797384E+02 0.75467711E-02 0.11860920E+00
        2 -1    0    0  502    0 0.00000000E+00 0.00000000E+00 0.10152634E+04 0.10152635E+04 0.32000000E+00 0.0000E+00 0.9000E+01
       21 -1    0    0  501  503 0.00000000E+00 0.00000000E+00 -.29839709E+02 0.29849133E+02 0.75000000E+00 0.0000E+00 0.9000E+01
       25  1    1    2    0    0 -.23082390E+02 0.84466451E+02 0.63914625E+03 0.65711514E+03 0.12500000E+03 0.0000E+00 0.9000E+01
       23  1    1    2    0    0 0.33083693E+02 -.15080171E+02 0.16155036E+03 0.18903891E+03 0.91188000E+02 0.0000E+00 0.9000E+01
        2  1    1    2  501    0 0.38272086E+01 -.49500201E+02 0.12583744E+03 0.13527780E+03 0.32000000E+00 0.0000E+00 0.9000E+01
       21  1    1    2  502  503 -.13828511E+02 -.19886079E+02 0.58889674E+02 0.63680767E+02 0.75000000E+00 0.0000E+00 0.9000E+01
#aMCatNLO 2  0  0  2  1 0.24221558D+02 0.00000000D+00  -5  6  0 0.00000000D+00 0.00000000D+00 0.00000000D+00 0.00000000D+00 0.00000000D+00
  <mgrwgt>
 -.3243468124D-01    2    2    0
 0.161366390113073D+03 0.000000000000000D+00 0.000000000000000D+00 0.161366390113073D+03
 0.161366390113073D+03 0.000000000000000D+00 0.000000000000000D+00 -.161366390113073D+03
 0.159148788647755D+03 -.299724410625283D+02 0.745587137045302D+02 0.569735720797549D+02
 0.110584571224759D+03 0.283482020279166D+02 -.218896962755949D+02 -.512924622894079D+02
 0.529994203536324D+02 0.162423903461169D+01 -.526690174289353D+02 -.568110979034697D+01
 0.000000000000000D+00 -.000000000000000D+00 -.000000000000000D+00 -.000000000000000D+00
 0.172210093485705D+03 0.000000000000000D+00 0.000000000000000D+00 0.172210093485705D+03
 0.175936937131267D+03 0.000000000000000D+00 0.000000000000000D+00 -.175936937131267D+03
 0.162906257621816D+03 -.230823940595111D+02 0.844669399309570D+02 0.569735720797549D+02
 0.110761453906539D+03 0.330836798126962D+02 -.150798464790308D+02 -.512924622894079D+02
 0.499727236593297D+02 0.382722551306889D+01 -.495010145992370D+02 -.568110979034697D+01
 0.245065954292870D+02 -.138285112662540D+02 -.198860788526892D+02 -.372684364556207D+01
-.148277095370D-05 0.000000000000D+00 0.000000000000D+00 0.154634106467D-06 0.000000000000D+00  6 2 21 25 23 2 21 4 0.14635500D+00 0.47217485D-02 0.26350727D+05 0.26350727D+05 0.26350727D+05 0.12208551D+01  1  2 13  2  6  2       21 -.349154981940D-01 0.100000000000D+01
0.109897636696D-06 0.000000000000D+00 0.000000000000D+00 0.156567965184D-06 0.638010839658D-08  6 2 21 25 23 2 21 4 0.15618995D+00 0.45913017D-02 0.26350727D+05 0.26350727D+05 0.26350727D+05 0.12208551D+01  1  2  1  2  6  2       21 0.248081695799D-02 0.100000000000D+01
  </mgrwgt>
  </event>
  <event>
  5     66 0.44822969E-03 0.36327059E+02 0.75467711E-02 0.12046552E+00
        2 -1    0    0  502    0 0.00000000E+00 0.00000000E+00 0.95376951E+03 0.95376956E+03 0.32000000E+00 0.0000E+00 0.9000E+01
       21 -1    0    0  501  502 0.00000000E+00 0.00000000E+00 -.20943835E+02 0.20957259E+02 0.75000000E+00 0.0000E+00 0.9000E+01
       25  1    1    2    0    0 -.52031517E+02 0.18438605E+00 0.47927100E+03 0.49802912E+03 0.12500000E+03 0.0000E+00 0.9000E+01
       23  1    1    2    0    0 0.44780572E+02 0.35410510E+02 0.29417929E+03 0.31323460E+03 0.91188000E+02 0.0000E+00 0.9000E+01
        2  1    1    2  501    0 0.72509449E+01 -.35594896E+02 0.15937538E+03 0.16346311E+03 0.32000000E+00 0.0000E+00 0.9000E+01
#aMCatNLO 1  0  0  1  2 0.13679863D+02 0.00000000D+00  -5  6  0 0.00000000D+00 0.00000000D+00 0.00000000D+00 0.00000000D+00 0.00000000D+00
  <mgrwgt>
 0.3090879998D+00    9    2    0
 0.141358267905715D+03 0.000000000000000D+00 0.000000000000000D+00 0.141358267905715D+03
 0.141358267905715D+03 0.000000000000000D+00 0.000000000000000D+00 -.141358267905715D+03
 0.135705037879712D+03 -.520316427126191D+02 0.185001109755412D+00 0.913954250222009D+01
 0.109297480588222D+03 0.447804715778053D+02 0.354110057366808D+02 -.192732445872215D+02
 0.377140173434952D+02 0.725117113481377D+01 -.355960068464363D+02 0.101337020850014D+02
 0.000000000000000D+00 -.000000000000000D+00 -.000000000000000D+00 0.000000000000000D+00
 0.157541573141980D+03 0.000000000000000D+00 0.000000000000000D+00 0.157541573141980D+03
 0.144444423849254D+03 0.000000000000000D+00 0.000000000000000D+00 -.144444423849254D+03
 0.135249583368082D+03 -.504107171121708D+02 0.653285269438694D+01 0.913954250222009D+01
 0.111621617389532D+03 0.461020708178958D+02 0.405866386146710D+02 -.192732445872215D+02
 0.361761067063995D+02 0.769320232491199D+01 -.338649290044024D+02 0.101337020850014D+02
 0.189386895272209D+02 -.338455603063702D+01 -.132545623046556D+02 0.130971492927258D+02
0.555827968351D-06 0.000000000000D+00 0.000000000000D+00 0.222540061525D-06 0.000000000000D+00  6 2 21 25 23 2 21 2 0.14673481D+00 0.32231652D-02 0.19503343D+05 0.19503343D+05 0.19503343D+05 0.12350302D+01  1  2  2  1  6  1        2 0.168700956519D-01 0.100000000000D+01
-.163921804377D-07 0.293318477369D-07 -.112205652696D-08 0.222540061525D-06 0.000000000000D+00  6 2 21 25 23 2 21 4 0.14673481D+00 0.32231652D-02 0.19503343D+05 0.19503343D+05 0.19503343D+05 0.12350302D+01  1  2  3  1  6  1        2 -.758872824181D-03 0.100000000000D+01
0.586765654216D-07 0.000000000000D+00 0.000000000000D+00 0.222540061525D-06 0.000000000000D+00  6 2 21 25 23 2 21 4 0.14673481D+00 0.32231652D-02 0.19503343D+05 0.19503343D+05 0.19503343D+05 0.12350302D+01  1  2 15  1  6  1        2 0.271642025196D-02 0.100000000000D+01
0.599981628864D-05 0.000000000000D+00 0.000000000000D+00 0.220864394430D-06 0.000000000000D+00  6 2 21 25 23 2 21 4 0.16501489D+00 0.32231652D-02 0.21505223D+05 0.21505223D+05 0.21505223D+05 0.12303716D+01  1  2 12  1  6  1        2 0.232715128011D+00 0.100000000000D+01
-.677308281443D-06 0.000000000000D+00 0.000000000000D+00 0.222540061525D-06 0.000000000000D+00  6 2 21 25 23 2 21 4 0.14673481D+00 0.32231652D-02 0.19503343D+05 0.19503343D+05 0.19503343D+05 0.12350302D+01  1  2  4  1  6  1        2 -.313558559421D-01 0.100000000000D+01
-.120624956372D-04 0.000000000000D+00 -.184660416517D-05 0.222540061525D-06 0.000000000000D+00  6 2 21 25 23 2 21 4 0.16540980D+00 0.32231652D-02 0.19503343D+05 0.19503343D+05 0.19503343D+05 0.12350302D+01  1  2  5  1  6  1        2 -.472939071047D+00 0.100000000000D+01
0.122091726553D-04 0.000000000000D+00 0.183343187797D-05 0.222540061525D-06 0.000000000000D+00  6 2 21 25 23 2 21 4 0.14673481D+00 0.32231652D-02 0.19503343D+05 0.19503343D+05 0.19503343D+05 0.12350302D+01  1  2  6  1  6  1        2 0.565221287616D+00 0.100000000000D+01
0.111765122933D-06 0.000000000000D+00 0.000000000000D+00 0.220864394430D-06 0.000000000000D+00  6 21 21 25 23 2 -2 4 0.16501489D+00 0.32231652D-02 0.21505223D+05 0.21505223D+05 0.21505223D+05 0.12303716D+01  1  2 12  4  6  1        2 0.340587929343D-02 0.100000000000D+01
-.220034414120D-06 0.000000000000D+00 -.349876966679D-07 0.222540061525D-06 0.000000000000D+00  6 21 21 25 23 2 -2 4 0.16540980D+00 0.32231652D-02 0.19503343D+05 0.19503343D+05 0.19503343D+05 0.12350302D+01  1  2  5  4  6  1        2 -.678701124654D-02 0.100000000000D+01
  </mgrwgt>
  </event>
  <event>
  5     66 0.44822969E-03 0.62769314E+02 0.75467711E-02 0.11941425E+00
        2 -1    0    0  502    0 0.00000000E+00 0.00000000E+00 0.17992980E+04 0.17992980E+04 0.32000000E+00 0.0000E+00 0.9000E+01
       21 -1    0    0  501  502 0.00000000E+00 0.00000000E+00 -.30799346E+02 0.30808476E+02 0.75000000E+00 0.0000E+00 0.9000E+01
       25  1    1    2    0    0 -.25655143E+02 -.66282602E+02 0.91725322E+03 0.92845573E+03 0.12500000E+03 0.0000E+00 0.9000E+01
       23  1    1    2    0    0 0.22698961E+02 0.33078268E+01 0.82972214E+03 0.83503309E+03 0.91188000E+02 0.0000E+00 0.9000E+01
        2  1    1    2  501    0 0.29561822E+01 0.62974775E+02 0.21523295E+02 0.66617685E+02 0.32000000E+00 0.0000E+00 0.9000E+01
#aMCatNLO 1  0  0  1  2 0.11035105D+02 0.00000000D+00  -5  6  0 0.00000000D+00 0.00000000D+00 0.00000000D+00 0.00000000D+00 0.00000000D+00
  <mgrwgt>
 0.9613891213D-01    9    2    0
 0.235426384271493D+03 0.000000000000000D+00 0.000000000000000D+00 0.235426384271493D+03
 0.235426384271493D+03 0.000000000000000D+00 0.000000000000000D+00 -.235426384271493D+03
 0.163558155993650D+03 -.256551450612889D+02 -.662826374228928D+02 0.779403355150118D+02
 0.129206057206899D+03 0.226989598871129D+02 0.330779893175641D+01 0.886158538932107D+02
 0.178088555342438D+03 0.295618517417601D+01 0.629748384911364D+02 -.166556189408223D+03
 0.000000000000000D+00 -.000000000000000D+00 0.000000000000000D+00 0.000000000000000D+00
 0.247519967791171D+03 0.000000000000000D+00 0.000000000000000D+00 0.247519967791171D+03
 0.238021877133322D+03 0.000000000000000D+00 0.000000000000000D+00 -.238021877133322D+03
 0.164235400631691D+03 -.228678208212660D+02 -.689248408873450D+02 0.779403355150118D+02
 0.129574288513693D+03 0.248994446614154D+02 0.122188140172827D+01 0.886158538932107D+02
 0.177172373340144D+03 0.597707249192711D+01 0.601112323049340D+02 -.166556189408223D+03
 0.145597824389668D+02 -.800869633207654D+01 0.759172718068263D+01 0.949809065784872D+01
0.194519463308D-05 0.000000000000D+00 0.000000000000D+00 0.127282679595D-05 0.000000000000D+00  6 2 21 25 23 2 21 2 0.27681578D+00 0.47390655D-02 0.22630179D+05 0.22630179D+05 0.22630179D+05 0.12279621D+01  1  2  2  1  6  1        2 0.106927585522D-01 0.100000000000D+01
0.108258182568D-06 0.102650740958D-06 -.392678752877D-08 0.127282679595D-05 0.000000000000D+00  6 2 21 25 23 2 21 4 0.27681578D+00 0.47390655D-02 0.22630179D+05 0.22630179D+05 0.22630179D+05 0.12279621D+01  1  2  3  1  6  1        2 0.897340743581D-03 0.100000000000D+01
0.185652648182D-06 0.000000000000D+00 0.000000000000D+00 0.127282679595D-05 0.000000000000D+00  6 2 21 25 23 2 21 4 0.27681578D+00 0.47390655D-02 0.22630179D+05 0.22630179D+05 0.22630179D+05 0.12279621D+01  1  2 15  1  6  1        2 0.153885536793D-02 0.100000000000D+01
0.238922680988D-04 0.000000000000D+00 0.000000000000D+00 0.126667553433D-05 0.000000000000D+00  6 2 21 25 23 2 21 4 0.29251160D+00 0.47390655D-02 0.24108836D+05 0.24108836D+05 0.24108836D+05 0.12249913D+01  1  2 12  1  6  1        2 0.173636407516D+00 0.100000000000D+01
-.204441327662D-04 0.000000000000D+00 0.000000000000D+00 0.127282679595D-05 0.000000000000D+00  6 2 21 25 23 2 21 4 0.27681578D+00 0.47390655D-02 0.22630179D+05 0.22630179D+05 0.22630179D+05 0.12279621D+01  1  2  4  1  6  1        2 -.169459276547D+00 0.100000000000D+01
-.811481625048D-04 0.000000000000D+00 -.115750368667D-04 0.127282679595D-05 0.000000000000D+00  6 2 21 25 23 2 21 4 0.29234583D+00 0.47390655D-02 0.22630179D+05 0.22630179D+05 0.22630179D+05 0.12279621D+01  1  2  5  1  6  1        2 -.597039180669D+00 0.100000000000D+01
0.816755029139D-04 0.000000000000D+00 0.115578140815D-04 0.127282679595D-05 0.000000000000D+00  6 2 21 25 23 2 21 4 0.27681578D+00 0.47390655D-02 0.22630179D+05 0.22630179D+05 0.22630179D+05 0.12279621D+01  1  2  6  1  6  1        2 0.676999694421D+00 0.100000000000D+01
0.335824828379D-06 0.000000000000D+00 0.000000000000D+00 0.126667553433D-05 0.000000000000D+00  6 21 21 25 23 2 -2 4 0.29251160D+00 0.47390655D-02 0.24108836D+05 0.24108836D+05 0.24108836D+05 0.12249913D+01  1  2 12  4  6  1        2 0.876028744230D-03 0.100000000000D+01
-.754530064418D-06 0.000000000000D+00 -.109348171749D-06 0.127282679595D-05 0.000000000000D+00  6 21 21 25 23 2 -2 4 0.29234583D+00 0.47390655D-02 0.22630179D+05 0.22630179D+05 0.22630179D+05 0.12279621D+01  1  2  5  4  6  1        2 -.200371599665D-02 0.100000000000D+01
  </mgrwgt>
  </event>
  <event>
  5     66 0.44822969E-03 0.15049815E+03 0.75467711E-02 0.97033716E-01
        2 -1    0    0  502    0 0.00000000E+00 0.00000000E+00 0.74486551E+03 0.74486557E+03 0.32000000E+00 0.0000E+00 0.9000E+01
       21 -1    0    0  501  502 0.00000000E+00 0.00000000E+00 -.16716043E+03 0.16716211E+03 0.75000000E+00 0.0000E+00 0.9000E+01
       25  1    1    2    0    0 -.83857528E+02 -.10044903E+03 0.25783444E+03 0.31500109E+03 0.12500000E+03 0.0000E+00 0.9000E+01
       23  1    1    2    0    0 0.57538219E+02 -.47729821E+02 0.40658190E+03 0.42333542E+03 0.91188000E+02 0.0000E+00 0.9000E+01
        2  1    1    2  501    0 0.26319309E+02 0.14817885E+03 -.86711265E+02 0.17369117E+03 0.32000000E+00 0.0000E+00 0.9000E+01
#aMCatNLO 1  0  0  2  5 0.10017880D+02 0.00000000D+00  -5  6  0 0.00000000D+00 0.00000000D+00 0.00000000D+00 0.00000000D+00 0.00000000D+00
  <mgrwgt>
 0.3689344821D-01   12    2    0
 0.352863766689477D+03 0.000000000000000D+00 0.000000000000000D+00 0.352863766689477D+03
 0.352863766689477D+03 0.000000000000000D+00 0.000000000000000D+00 -.352863766689477D+03
 0.196021088237485D+03 -.838575324859139D+02 -.100449055542648D+03 0.753469874631489D+02
 0.214260062734880D+03 0.575382145275984D+02 -.477298470677564D+02 0.178894769926399D+03
 0.295446382406589D+03 0.263193179583154D+02 0.148178902610404D+03 -.254241757389548D+03
 0.000000000000000D+00 -.000000000000000D+00 0.000000000000000D+00 -.000000000000000D+00
 0.576328858651671D+03 0.000000000000000D+00 0.000000000000000D+00 0.576328858651671D+03
 0.158818932425964D+04 0.000000000000000D+00 0.000000000000000D+00 -.158818932425964D+04
 0.300796499204563D+03 0.243929701940328D+02 -.261880408620159D+03 0.753469874631489D+02
 0.357927933219866D+03 0.182211011455822D+03 -.233651369848909D+03 0.178894769926399D+03
 0.302073390042484D+03 0.156511600525938D+03 -.459736954360002D+02 -.254241757389548D+03
 0.120372036044440D+04 -.363115582175792D+03 0.541505473905069D+03 -.101186046560797D+04
0.280164736115D-04 0.000000000000D+00 0.000000000000D+00 0.304542235052D-06 0.000000000000D+00  6 2 21 25 23 2 21 2 0.11459483D+00 0.25717124D-01 0.50484500D+05 0.50484500D+05 0.50484500D+05 0.11918672D+01  1  2  2  2  6  2       21 0.277329317634D-01 0.100000000000D+01
-.367503494175D-06 0.147846993115D-05 -.565571883178D-07 0.304542235052D-06 0.000000000000D+00  6 2 21 25 23 2 21 4 0.11459483D+00 0.25717124D-01 0.50484500D+05 0.50484500D+05 0.50484500D+05 0.11918672D+01  1  2  3  2  6  2       21 -.516772662950D-03 0.100000000000D+01
0.338130972094D-05 0.000000000000D+00 0.000000000000D+00 0.304542235052D-06 0.000000000000D+00  6 2 21 25 23 2 21 4 0.11459483D+00 0.25717124D-01 0.50484500D+05 0.50484500D+05 0.50484500D+05 0.11918672D+01  1  2 15  2  6  2       21 0.475469881633D-02 0.100000000000D+01
0.107702483154D-03 0.000000000000D+00 -.307834295354D-03 0.304542235052D-06 0.000000000000D+00  6 2 21 25 23 2 21 4 0.11459483D+00 0.16530737D+00 0.50484500D+05 0.50484500D+05 0.50484500D+05 0.11918672D+01  1  2  5  2  6  2       21 0.238762230124D-02 0.100000000000D+01
0.467575029757D-04 0.000000000000D+00 -.131150262331D-03 0.304542235052D-06 0.000000000000D+00  6 2 -1 25 23 2 -1 4 0.11459483D+00 0.16530737D+00 0.50484500D+05 0.50484500D+05 0.50484500D+05 0.11918672D+01  1  2  5  5  6  2       21 0.125744665948D-03 0.100000000000D+01
0.467575029757D-04 0.000000000000D+00 -.131150262331D-03 0.304542235052D-06 0.000000000000D+00  6 2 -3 25 23 2 -3 4 0.11459483D+00 0.16530737D+00 0.50484500D+05 0.50484500D+05 0.50484500D+05 0.11918672D+01  1  2  5  5  6  2       21 0.606327662491D-04 0.100000000000D+01
0.467575029757D-04 0.000000000000D+00 -.131150262331D-03 0.304542235052D-06 0.000000000000D+00  6 2 1 25 23 2 1 4 0.11459483D+00 0.16530737D+00 0.50484500D+05 0.50484500D+05 0.50484500D+05 0.11918672D+01  1  2  5  6  6  2       21 0.722905419692D-03 0.100000000000D+01
0.467575029757D-04 0.000000000000D+00 -.131150262331D-03 0.304542235052D-06 0.000000000000D+00  6 2 3 25 23 2 3 4 0.11459483D+00 0.16530737D+00 0.50484500D+05 0.50484500D+05 0.50484500D+05 0.11918672D+01  1  2  5  6  6  2       21 0.609121574423D-04 0.100000000000D+01
0.467575029757D-04 0.000000000000D+00 -.131150262331D-03 0.304542235052D-06 0.000000000000D+00  6 2 -2 25 23 2 -2 4 0.11459483D+00 0.16530737D+00 0.50484500D+05 0.50484500D+05 0.50484500D+05 0.11918672D+01  1  2  5  7  6  2       21 0.928472631149D-04 0.100000000000D+01
0.467575029757D-04 0.000000000000D+00 -.131150262331D-03 0.304542235052D-06 0.000000000000D+00  6 2 2 25 23 2 2 4 0.11459483D+00 0.16530737D+00 0.50484500D+05 0.50484500D+05 0.50484500D+05 0.11918672D+01  1  2  5  8  6  2       21 0.137672846132D-02 0.100000000000D+01
0.467575029757D-04 0.000000000000D+00 -.131150262331D-03 0.304542235052D-06 0.000000000000D+00  6 2 -4 25 23 2 -4 4 0.11459483D+00 0.16530737D+00 0.50484500D+05 0.50484500D+05 0.50484500D+05 0.11918672D+01  1  2  5  9  6  2       21 0.475986269362D-04 0.100000000000D+01
0.467575029757D-04 0.000000000000D+00 -.131150262331D-03 0.304542235052D-06 0.000000000000D+00  6 2 4 25 23 2 4 4 0.11459483D+00 0.16530737D+00 0.50484500D+05 0.50484500D+05 0.50484500D+05 0.11918672D+01  1  2  5 10  6  2       21 0.475986269362D-04 0.100000000000D+01
  </mgrwgt>
  </event>
  <event>
  6     66 0.44822969E-03 0.57247059E+02 0.75467711E-02 0.11758539E+00
        2 -1    0    0  502    0 0.00000000E+00 0.00000000E+00 0.10835190E+04 0.10835190E+04 0.32000000E+00 0.0000E+00 0.9000E+01
       21 -1    0    0  501  502 0.00000000E+00 0.00000000E+00 -.35577407E+02 0.35585311E+02 0.75000000E+00 0.0000E+00 0.9000E+01
       25  1    1    2    0    0 0.38678492E+02 0.90696399E+02 0.43420151E+03 0.46246926E+03 0.12500000E+03 0.0000E+00 0.9000E+01
       23  1    1    2    0    0 -.51696673E+02 -.40019888E+02 0.54044833E+03 0.55197263E+03 0.91188000E+02 0.0000E+00 0.9000E+01
        2  1    1    2  503    0 0.14045821E+02 -.60673533E+02 0.52104620E+02 0.81200718E+02 0.32000000E+00 0.0000E+00 0.9000E+01
       21  1    1    2  501  503 -.10276401E+01 0.99970223E+01 0.21187095E+02 0.23461713E+02 0.75000000E+00 0.0000E+00 0.9000E+01
#aMCatNLO 2  0  0  5  2 0.95057521D+01 0.00000000D+00  -5  6  0 0.00000000D+00 0.00000000D+00 0.00000000D+00 0.00000000D+00 0.00000000D+00
  <mgrwgt>
 0.1705022749D-01    2    2    0
 0.196349800403872D+03 0.000000000000000D+00 0.000000000000000D+00 0.196349800403872D+03
 0.196349800403872D+03 -.000000000000000D+00 -.000000000000000D+00 -.196349800403872D+03
 0.161270855914809D+03 0.377563345957348D+02 0.942861270876043D+02 0.823859236825673D+01
 0.132370173798948D+03 -.524537911562752D+02 -.370726186767279D+02 0.712799572484959D+02
 0.990585710939863D+02 0.146974565605405D+02 -.572135084108763D+02 -.795185496167527D+02
 0.000000000000000D+00 0.000000000000000D+00 0.000000000000000D+00 0.000000000000000D+00
 0.196349800403872D+03 0.000000000000000D+00 0.000000000000000D+00 0.196349800403872D+03
 0.196349800403872D+03 -.000000000000000D+00 -.000000000000000D+00 -.196349800403872D+03
 0.159226269199871D+03 0.386851470370865D+02 0.906704934433397D+02 0.321338151642944D+01
 0.130767737148153D+03 -.516912078245479D+02 -.400411641311103D+02 0.671541059319034D+02
 0.923237136005811D+02 0.140428473399508D+02 -.607121317289127D+02 -.681212418597909D+02
 0.103818808591382D+02 -.103678655248940D+01 0.100828024166833D+02 -.224624558854194D+01
-.127822539026D-05 0.000000000000D+00 0.000000000000D+00 0.296045858062D-06 0.000000000000D+00  6 2 21 25 23 2 21 4 0.16669584D+00 0.54740589D-02 0.27501380D+05 0.27501380D+05 0.27501380D+05 0.12188823D+01  1  2  8  3  6  5        2 -.194122316989D-01 0.100000000000D+01
0.242825000673D-05 0.000000000000D+00 0.000000000000D+00 0.296045858062D-06 0.226020407194D-07  6 2 21 25 23 2 21 4 0.16669584D+00 0.54740589D-02 0.29558613D+05 0.29558613D+05 0.29558613D+05 0.12155746D+01  1  2  1  3  6  5        2 0.364624591908D-01 0.100000000000D+01
  </mgrwgt>
  </event>
  <event>
  6     66 -.44822969E-03 0.24271371E+02 0.75467711E-02 0.12237582E+00
        2 -1    0    0  502    0 0.00000000E+00 0.00000000E+00 0.18872365E+04 0.18872365E+04 0.32000000E+00 0.0000E+00 0.9000E+01
       21 -1    0    0  501  502 0.00000000E+00 0.00000000E+00 -.25252823E+02 0.25263958E+02 0.75000000E+00 0.0000E+00 0.9000E+01
       25  1    1    2    0    0 -.38820636E+02 -.31567601E+02 0.11805409E+04 0.11881942E+04 0.12500000E+03 0.0000E+00 0.9000E+01
       23  1    1    2    0    0 0.37549050E+02 0.62175145E+01 0.67687714E+03 0.68405154E+03 0.91188000E+02 0.0000E+00 0.9000E+01
        2  1    1    2  503    0 -.34531788E+01 0.26466622E+02 -.70796353E+01 0.27615759E+02 0.32000000E+00 0.0000E+00 0.9000E+01
       21  1    1    2  501  503 0.47247644E+01 -.11165346E+01 0.11645215E+02 0.12638970E+02 0.75000000E+00 0.0000E+00 0.9000E+01
#aMCatNLO 2  0  0  5  2 0.49845543D+01 0.00000000D+00  -5  6  0 0.00000000D+00 0.00000000D+00 0.00000000D+00 0.00000000D+00 0.00000000D+00
  <mgrwgt>
 -.7420074152D-01    2    2    0
 0.218331681304868D+03 0.000000000000000D+00 0.000000000000000D+00 0.218331681304868D+03
 0.218331681304868D+03 -.000000000000000D+00 -.000000000000000D+00 -.218331681304868D+03
 0.170862455569603D+03 -.388306012087995D+02 -.317662741810648D+02 0.105128811263570D+03
 0.110055125995529D+03 0.375426260989214D+02 0.608944803107903D+01 0.484804008045006D+02
 0.155745781044604D+03 0.128797510987806D+01 0.256768261499858D+02 -.153609212068071D+03
 0.000000000000000D+00 0.000000000000000D+00 0.000000000000000D+00 -.000000000000000D+00
 0.218331681304868D+03 0.000000000000000D+00 0.000000000000000D+00 0.218331681304868D+03
 0.218331681304868D+03 -.000000000000000D+00 -.000000000000000D+00 -.218331681304868D+03
 0.170092124415753D+03 -.388206048088251D+02 -.315669878576728D+02 0.103936599463974D+03
 0.109728166768396D+03 0.375490698947556D+02 0.621791031587894D+01 0.477118871948624D+02
 0.151204837663292D+03 -.347575757559714D+01 0.264849140685333D+02 -.148826648718704D+03
 0.563823376229561D+01 0.474729248966663D+01 -.113583652673939D+01 -.282183794013220D+01
-.210479646605D-04 0.000000000000D+00 0.000000000000D+00 0.583092118000D-05 0.000000000000D+00  6 2 21 25 23 2 21 4 0.29034493D+00 0.38859084D-02 0.16796517D+05 0.16796517D+05 0.16796517D+05 0.12422605D+01  1  2  8  3  6  5        2 -.230689111882D+00 0.100000000000D+01
0.143882660311D-04 0.000000000000D+00 0.000000000000D+00 0.583092118000D-05 0.185596668754D-05  6 2 21 25 23 2 21 4 0.29034493D+00 0.38859084D-02 0.17562563D+05 0.17562563D+05 0.17562563D+05 0.12400886D+01  1  2  1  3  6  5        2 0.156488370357D+00 0.100000000000D+01
  </mgrwgt>
  </event>
  <event>
  5     66 0.44822969E-03 0.69247741E+02 0.75467711E-02 0.11217922E+00
        2 -1    0    0  502    0 0.00000000E+00 0.00000000E+00 0.15504532E+04 0.15504532E+04 0.32000000E+00 0.0000E+00 0.9000E+01
       21 -1    0    0  501  502 0.00000000E+00 0.00000000E+00 -.11814178E+03 0.11814416E+03 0.75000000E+00 0.0000E+00 0.9000E+01
       25  1    1    2    0    0 -.17482150E+03 -.47618160E+02 0.10924101E+04 0.11143675E+04 0.12500000E+03 0.0000E+00 0.9000E+01
       23  1    1    2    0    0 0.13195193E+03 -.67642527E+01 0.41923702E+03 0.44892315E+03 0.91188000E+02 0.0000E+00 0.9000E+01
        2  1    1    2  501    0 0.42869571E+02 0.54382413E+02 -.79335732E+02 0.10530673E+03 0.32000000E+00 0.0000E+00 0.9000E+01
#aMCatNLO 1  0  0  5  1 0.54460632D+02 0.00000000D+00  -5  6  0 0.00000000D+00 0.00000000D+00 0.00000000D+00 0.00000000D+00 0.00000000D+00
  <mgrwgt>
 0.1485189972D-01    6    2    0
 0.427989849681687D+03 0.000000000000000D+00 0.000000000000000D+00 0.427989849681687D+03
 0.427989849681687D+03 -.000000000000000D+00 -.000000000000000D+00 -.427989849681687D+03
 0.344353084840793D+03 -.174821504653545D+03 -.476181702297106D+02 0.264809362398717D+03
 0.173595279942486D+03 0.131951922106488D+03 -.676425764547039D+01 0.660530464491928D+02
 0.338031334580095D+03 0.428695825470567D+02 0.543824278751810D+02 -.330862408847910D+03
 0.000000000000000D+00 0.000000000000000D+00 0.000000000000000D+00 -.000000000000000D+00
 0.427989849681687D+03 0.000000000000000D+00 0.000000000000000D+00 0.427989849681687D+03
 0.427989849681687D+03 -.000000000000000D+00 -.000000000000000D+00 -.427989849681687D+03
 0.338075171657762D+03 -.173869196615229D+03 -.464101150042647D+02 0.257459560679130D+03
 0.172558719794019D+03 0.132434969567236D+03 -.615148532221362D+01 0.623249428159126D+02
 0.135219552711211D+03 0.387059317270108D+02 0.680555108365619D+02 -.110248019162879D+03
 0.210126255200382D+03 0.272829532098242D+01 -.154939105100836D+02 -.209536484332164D+03
0.419020368566D-04 0.000000000000D+00 0.000000000000D+00 0.715096159516D-06 0.000000000000D+00  6 2 21 25 23 2 21 2 0.23853145D+00 0.18175844D-01 0.50604842D+05 0.50604842D+05 0.50604842D+05 0.11917649D+01  1  2  2  3  6  5        2 0.266980748876D-01 0.100000000000D+01
0.623325011680D-05 0.221123123507D-05 -.845881399016D-07 0.715096159516D-06 0.000000000000D+00  6 2 21 25 23 2 21 4 0.23853145D+00 0.18175844D-01 0.50604842D+05 0.50604842D+05 0.50604842D+05 0.11917649D+01  1  2  3  3  6  5        2 0.564079829709D-02 0.100000000000D+01
0.385759401161D-05 0.000000000000D+00 0.000000000000D+00 0.715096159516D-06 0.000000000000D+00  6 2 21 25 23 2 21 4 0.23853145D+00 0.18175844D-01 0.50604842D+05 0.50604842D+05 0.50604842D+05 0.11917649D+01  1  2 15  3  6  5        2 0.349094121426D-02 0.100000000000D+01
-.486405177936D-04 0.000000000000D+00 0.000000000000D+00 0.715096159516D-06 0.000000000000D+00  6 2 21 25 23 2 21 4 0.23853145D+00 0.18175844D-01 0.50604842D+05 0.50604842D+05 0.50604842D+05 0.11917649D+01  1  2  4  3  6  5        2 -.440173817508D-01 0.100000000000D+01
-.339676408510D-04 0.000000000000D+00 0.000000000000D+00 0.715096159516D-06 0.000000000000D+00  6 2 21 25 23 2 21 4 0.23853145D+00 0.18175844D-01 0.50604842D+05 0.50604842D+05 0.50604842D+05 0.11917649D+01  1  2  5  3  6  5        2 -.307391179687D-01 0.100000000000D+01
0.594269381483D-04 0.000000000000D+00 -.000000000000D+00 0.715096159516D-06 0.000000000000D+00  6 2 21 25 23 2 21 4 0.23853145D+00 0.18175844D-01 0.50604842D+05 0.50604842D+05 0.50604842D+05 0.11917649D+01  1  2  6  3  6  5        2 0.537785850442D-01 0.100000000000D+01
  </mgrwgt>
  </event>
  <event>
  5     66 0.44822969E-03 0.59879355E+02 0.75467711E-02 0.11693287E+00
        2 -1    0    0  502    0 0.00000000E+00 0.00000000E+00 0.14199604E+04 0.14199605E+04 0.32000000E+00 0.0000E+00 0.9000E+01
       21 -1    0    0  501  502 0.00000000E+00 0.00000000E+00 -.30208748E+02 0.30218057E+02 0.75000000E+00 0.0000E+00 0.9000E+01
       25  1    1    2    0    0 -.38557171E+02 0.31476354E+02 0.91402383E+03 0.92387336E+03 0.12500000E+03 0.0000E+00 0.9000E+01
       23  1    1    2    0    0 0.98055986E+02 -.52798270E+02 0.41255231E+03 0.43694083E+03 0.91188000E+02 0.0000E+00 0.9000E+01
        2  1    1    2  501    0 -.59498815E+02 0.21321916E+02 0.63175555E+02 0.89364345E+02 0.32000000E+00 0.0000E+00 0.9000E+01
#aMCatNLO 1  0  0  1  2 0.16796220D+02 0.00000000D+00  -5  6  0 0.00000000D+00 0.00000000D+00 0.00000000D+00 0.00000000D+00 0.00000000D+00
  <mgrwgt>
 0.9401219869D-01    9    2    0
 0.207127988093600D+03 0.000000000000000D+00 0.000000000000000D+00 0.207127988093600D+03
 0.207127988093600D+03 0.000000000000000D+00 0.000000000000000D+00 -.207127988093600D+03
 0.167807281433199D+03 -.385570501240027D+02 0.314763101239631D+02 0.100283994180109D+03
 0.145554871337292D+03 0.980560911091920D+02 -.527983072954440D+02 -.216404937359900D+02
 0.100893823416709D+03 -.594990409851893D+02 0.213219971714810D+02 -.786435004441187D+02
 0.000000000000000D+00 -.000000000000000D+00 0.000000000000000D+00 0.000000000000000D+00
 0.222211370313087D+03 0.000000000000000D+00 0.000000000000000D+00 0.222211370313087D+03
 0.212027420972796D+03 0.000000000000000D+00 0.000000000000000D+00 -.212027420972796D+03
 0.166004269442196D+03 -.323454878564670D+02 0.287976978185465D+02 0.100283994180109D+03
 0.150172906309989D+03 0.103558990874880D+03 -.551713230349598D+02 -.216404937359900D+02
 0.984191662441439D+02 -.557902267073119D+02 0.197226450060605D+02 -.786435004441187D+02
 0.196424492895539D+02 -.154232763111008D+02 0.665098021035279D+01 0.101839493402916D+02
0.884774749917D-06 0.000000000000D+00 0.000000000000D+00 0.208297928579D-06 0.000000000000D+00  6 2 21 25 23 2 21 2 0.21845617D+00 0.46482186D-02 0.29187414D+05 0.29187414D+05 0.29187414D+05 0.12161520D+01  1  2  2  1  6  1        2 0.773270693172D-02 0.100000000000D+01
0.310687857071D-08 0.466908463117D-07 -.178610530518D-08 0.208297928579D-06 0.000000000000D+00  6 2 21 25 23 2 21 4 0.21845617D+00 0.46482186D-02 0.29187414D+05 0.29187414D+05 0.29187414D+05 0.12161520D+01  1  2  3  1  6  1        2 0.401604758694D-04 0.100000000000D+01
0.798716888062D-07 0.000000000000D+00 0.000000000000D+00 0.208297928579D-06 0.000000000000D+00  6 2 21 25 23 2 21 4 0.21845617D+00 0.46482186D-02 0.29187414D+05 0.29187414D+05 0.29187414D+05 0.12161520D+01  1  2 15  1  6  1        2 0.103244621827D-02 0.100000000000D+01
0.858207551982D-05 0.000000000000D+00 0.000000000000D+00 0.206945357130D-06 0.000000000000D+00  6 2 21 25 23 2 21 4 0.23681776D+00 0.46482186D-02 0.31838166D+05 0.31838166D+05 0.31838166D+05 0.12121971D+01  1  2 12  1  6  1        2 0.945896128181D-01 0.100000000000D+01
-.402317517778D-05 0.000000000000D+00 0.000000000000D+00 0.208297928579D-06 0.000000000000D+00  6 2 21 25 23 2 21 4 0.21845617D+00 0.46482186D-02 0.29187414D+05 0.29187414D+05 0.29187414D+05 0.12161520D+01  1  2  4  1  6  1        2 -.520048099623D-01 0.100000000000D+01
-.228159932603D-04 0.000000000000D+00 -.384999637267D-05 0.208297928579D-06 0.000000000000D+00  6 2 21 25 23 2 21 4 0.23710547D+00 0.46482186D-02 0.29187414D+05 0.29187414D+05 0.29187414D+05 0.12161520D+01  1  2  5  1  6  1        2 -.254540386801D+00 0.100000000000D+01
0.230668238630D-04 0.000000000000D+00 0.383711406436D-05 0.208297928579D-06 0.000000000000D+00  6 2 21 25 23 2 21 4 0.21845617D+00 0.46482186D-02 0.29187414D+05 0.29187414D+05 0.29187414D+05 0.12161520D+01  1  2  6  1  6  1        2 0.298168918434D+00 0.100000000000D+01
0.117145288678D-06 0.000000000000D+00 0.000000000000D+00 0.206945357130D-06 0.000000000000D+00  6 21 21 25 23 2 -2 4 0.23681776D+00 0.46482186D-02 0.31838166D+05 0.31838166D+05 0.31838166D+05 0.12121971D+01  1  2 12  4  6  1        2 0.620011017354D-03 0.100000000000D+01
-.302504483487D-06 0.000000000000D+00 -.525173939466D-07 0.208297928579D-06 0.000000000000D+00  6 21 21 25 23 2 -2 4 0.23710547D+00 0.46482186D-02 0.29187414D+05 0.29187414D+05 0.29187414D+05 0.12161520D+01  1  2  5  4  6  1        2 -.162646044629D-02 0.100000000000D+01
  </mgrwgt>
  </event>
  <event>
  5     66 -.44822969E-03 0.77166188E+02 0.75467711E-02 0.10846837E+00
        2 -1    0    0  502    0 0.00000000E+00 0.00000000E+00 0.23058700E+04 0.23058700E+04 0.32000000E+00 0.0000E+00 0.9000E+01
       21 -1    0    0  501  502 0.00000000E+00 0.00000000E+00 -.35803097E+02 0.35810951E+02 0.75000000E+00 0.0000E+00 0.9000E+01
       25  1    1    2    0    0 -.66844829E+02 0.63732988E+02 0.16259527E+04 0.16333638E+04 0.12500000E+03 0.0000E+00 0.9000E+01
       23  1    1    2    0    0 0.33399993E+02 -.13327470E+03 0.59361818E+03 0.61609699E+03 0.91188000E+02 0.0000E+00 0.9000E+01
        2  1    1    2  501    0 0.33444836E+02 0.69541714E+02 0.50495972E+02 0.92220131E+02 0.32000000E+00 0.0000E+00 0.9000E+01
#aMCatNLO 1  0  0  2  2 0.82996792D+02 0.00000000D+00  -5  6  0 0.00000000D+00 0.00000000D+00 0.00000000D+00 0.00000000D+00 0.00000000D+00
  <mgrwgt>
 -.8575204356D-01   12    2    0
 0.287343884020906D+03 0.000000000000000D+00 0.000000000000000D+00 0.287343884020906D+03
 0.287343884020906D+03 0.000000000000000D+00 0.000000000000000D+00 -.287343884020906D+03
 0.232814365776331D+03 -.668448513423839D+02 0.637329418308213D+02 0.173341878628446D+03
 0.165567511596015D+03 0.333999774150780D+02 -.133274734920765D+03 -.148201245800638D+02
 0.176305890669466D+03 0.334448739273059D+02 0.695417930899436D+02 -.158521754048382D+03
 0.000000000000000D+00 0.000000000000000D+00 -.000000000000000D+00 -.000000000000000D+00
 0.303757825827419D+03 0.000000000000000D+00 0.000000000000000D+00 0.303757825827419D+03
 0.132393007740184D+04 0.000000000000000D+00 0.000000000000000D+00 -.132393007740184D+04
 0.266367795477022D+03 -.112015022469194D+03 0.112836298778699D+03 0.173341878628446D+03
 0.138739295935264D+03 0.586375589480491D+01 -.103340801075133D+03 -.148201245800638D+02
 0.190486976199405D+03 0.254391873699078D+00 0.105622331349916D+03 -.158521754048382D+03
 0.103209383561757D+04 0.105896874700690D+03 -.115117829053482D+03 -.102017225157442D+04
0.232766467328D-05 0.000000000000D+00 0.000000000000D+00 0.212185270299D-06 0.000000000000D+00  6 2 21 25 23 2 21 2 0.35474983D+00 0.55087746D-02 0.39499230D+05 0.39499230D+05 0.39499230D+05 0.12025563D+01  1  2  2  2  6  2       21 0.510365006711D-02 0.100000000000D+01
0.716663790491D-07 0.122834239489D-06 -.469888434544D-08 0.212185270299D-06 0.000000000000D+00  6 2 21 25 23 2 21 4 0.35474983D+00 0.55087746D-02 0.39499230D+05 0.39499230D+05 0.39499230D+05 0.12025563D+01  1  2  3  2  6  2       21 0.227241031070D-03 0.100000000000D+01
0.220908921071D-06 0.000000000000D+00 0.000000000000D+00 0.212185270299D-06 0.000000000000D+00  6 2 21 25 23 2 21 4 0.35474983D+00 0.55087746D-02 0.39499230D+05 0.39499230D+05 0.39499230D+05 0.12025563D+01  1  2 15  2  6  2       21 0.700461941329D-03 0.100000000000D+01
-.384764320728D-03 0.000000000000D+00 -.145678985785D-04 0.212185270299D-06 0.000000000000D+00  6 2 21 25 23 2 21 4 0.35474983D+00 0.26638501D-01 0.39499230D+05 0.39499230D+05 0.39499230D+05 0.12025563D+01  1  2  5  2  6  2       21 -.715784870822D-01 0.100000000000D+01
-.162202737922D-03 0.000000000000D+00 -.598626499092D-05 0.212185270299D-06 0.000000000000D+00  6 2 -1 25 23 2 -1 4 0.35474983D+00 0.26638501D-01 0.39499230D+05 0.39499230D+05 0.39499230D+05 0.12025563D+01  1  2  5  5  6  2       21 -.257078917423D-02 0.100000000000D+01
-.162202737922D-03 0.000000000000D+00 -.598626499092D-05 0.212185270299D-06 0.000000000000D+00  6 2 -3 25 23 2 -3 4 0.35474983D+00 0.26638501D-01 0.39499230D+05 0.39499230D+05 0.39499230D+05 0.12025563D+01  1  2  5  5  6  2       21 -.148802924724D-02 0.100000000000D+01
-.162202737922D-03 0.000000000000D+00 -.598626499092D-05 0.212185270299D-06 0.000000000000D+00  6 2 1 25 23 2 1 4 0.35474983D+00 0.26638501D-01 0.39499230D+05 0.39499230D+05 0.39499230D+05 0.12025563D+01  1  2  5  6  6  2       21 -.429736196861D-02 0.100000000000D+01
-.162202737922D-03 0.000000000000D+00 -.598626499092D-05 0.212185270299D-06 0.000000000000D+00  6 2 3 25 23 2 3 4 0.35474983D+00 0.26638501D-01 0.39499230D+05 0.39499230D+05 0.39499230D+05 0.12025563D+01  1  2  5  6  6  2       21 -.148800932236D-02 0.100000000000D+01
-.162202737922D-03 0.000000000000D+00 -.598626499092D-05 0.212185270299D-06 0.000000000000D+00  6 2 -2 25 23 2 -2 4 0.35474983D+00 0.26638501D-01 0.39499230D+05 0.39499230D+05 0.39499230D+05 0.12025563D+01  1  2  5  7  6  2       21 -.228852632020D-02 0.100000000000D+01
-.162202737922D-03 0.000000000000D+00 -.598626499092D-05 0.212185270299D-06 0.000000000000D+00  6 2 2 25 23 2 2 4 0.35474983D+00 0.26638501D-01 0.39499230D+05 0.39499230D+05 0.39499230D+05 0.12025563D+01  1  2  5  8  6  2       21 -.554571692681D-02 0.100000000000D+01
-.162202737922D-03 0.000000000000D+00 -.598626499092D-05 0.212185270299D-06 0.000000000000D+00  6 2 -4 25 23 2 -4 4 0.35474983D+00 0.26638501D-01 0.39499230D+05 0.39499230D+05 0.39499230D+05 0.12025563D+01  1  2  5  9  6  2       21 -.126323827921D-02 0.100000000000D+01
-.162202737922D-03 0.000000000000D+00 -.598626499092D-05 0.212185270299D-06 0.000000000000D+00  6 2 4 25 23 2 4 4 0.35474983D+00 0.26638501D-01 0.39499230D+05 0.39499230D+05 0.39499230D+05 0.12025563D+01  1  2  5 10  6  2       21 -.126323827921D-02 0.100000000000D+01
  </mgrwgt>
  </event>
  <event>
  6     66 0.44822969E-03 0.15909873E+02 0.75467711E-02 0.12242238E+00
        2 -1    0    0  502    0 0.00000000E+00 0.00000000E+00 0.41244935E+02 0.41246176E+02 0.32000000E+00 0.0000E+00 0.9000E+01
       21 -1    0    0  501  502 -.00000000E+00 -.00000000E+00 -.77640768E+03 0.77640804E+03 0.75000000E+00 0.0000E+00 0.9000E+01
       25  1    1    2    0    0 0.53031350E+02 -.21823854E+02 -.26577107E+03 0.29924550E+03 0.12500000E+03 0.0000E+00 0.9000E+01
       23  1    1    2    0    0 -.30206642E+02 0.74399996E+01 -.75281717E+02 0.12227176E+03 0.91188000E+02 0.0000E+00 0.9000E+01
        2  1    1    2  503    0 -.13290871E+02 0.16025335E+02 -.36186835E+03 0.36246692E+03 0.32000000E+00 0.0000E+00 0.9000E+01
       21  1    1    2  501  503 -.95338368E+01 -.16414811E+01 -.32241601E+02 0.33670044E+02 0.75000000E+00 0.0000E+00 0.9000E+01
#aMCatNLO 2  0  0  5  2 0.85824864D+01 0.00000000D+00  -5  6  0 0.00000000D+00 0.00000000D+00 0.00000000D+00 0.00000000D+00 0.00000000D+00
  <mgrwgt>
 0.2917225720D-01    2    2    0
 0.178951221643529D+03 0.000000000000000D+00 0.000000000000000D+00 0.178951221643529D+03
 0.178951221643529D+03 -.000000000000000D+00 -.000000000000000D+00 -.178951221643529D+03
 0.138059440536070D+03 0.534889642846038D+02 -.221122365993571D+02 0.924060676941648D+01
 0.125596329175075D+03 -.297913238627270D+02 0.717827135730615D+01 0.807473590966337D+02
 0.942466735759134D+02 -.236976404218769D+02 0.149339652420510D+02 -.899879658660502D+02
 0.000000000000000D+00 -.000000000000000D+00 0.000000000000000D+00 0.000000000000000D+00
 0.178951221643529D+03 0.000000000000000D+00 0.000000000000000D+00 0.178951221643529D+03
 0.178951221643529D+03 -.000000000000000D+00 -.000000000000000D+00 -.178951221643529D+03
 0.137729301701563D+03 0.530285286411393D+02 -.218220756477481D+02 0.749217670507354D+01
 0.124698107919170D+03 -.302091961778332D+02 0.744160941621479D+01 0.791605564040992D+02
 0.847385784283258D+02 -.132149942691920D+02 0.160408353600833D+02 -.821503633678479D+02
 0.107364552379992D+02 -.960433819411414D+01 -.166036912854996D+01 -.450236974132494D+01
-.944502575747D-05 0.000000000000D+00 0.000000000000D+00 0.166530809991D-05 0.000000000000D+00  6 2 21 25 23 2 21 4 0.63454980D-02 0.11944746D+00 0.17155743D+05 0.17155743D+05 0.17155743D+05 0.12412285D+01  1  2  8  3  6  5        2 -.167964258992D-01 0.100000000000D+01
0.259338358323D-04 0.000000000000D+00 0.000000000000D+00 0.166530809991D-05 0.213881058288D-06  6 2 21 25 23 2 21 4 0.63454980D-02 0.11944746D+00 0.17477493D+05 0.17477493D+05 0.17477493D+05 0.12403245D+01  1  2  1  3  6  5        2 0.459686831009D-01 0.100000000000D+01
  </mgrwgt>
  </event>
  <event>
  5     66 0.44822969E-03 0.22967812E+02 0.75467711E-02 0.11393582E+00
        2 -1    0    0  502    0 0.00000000E+00 0.00000000E+00 0.18898570E+04 0.18898571E+04 0.32000000E+00 0.0000E+00 0.9000E+01
       21 -1    0    0  501  502 0.00000000E+00 0.00000000E+00 -.86768610E+02 0.86771851E+02 0.75000000E+00 0.0000E+00 0.9000E+01
       25  1    1    2    0    0 -.47939668E+02 0.13357773E+02 0.71455050E+03 0.72710664E+03 0.12500000E+03 0.0000E+00 0.9000E+01
       23  1    1    2    0    0 0.67299833E+02 -.10004193E+01 0.11645823E+04 0.11700844E+04 0.91188000E+02 0.0000E+00 0.9000E+01
        2  1    1    2  501    0 -.19360165E+02 -.12357353E+02 -.76044408E+02 0.79437866E+02 0.32000000E+00 0.0000E+00 0.9000E+01
#aMCatNLO 1  0  0  5  2 0.85824864D+01 0.00000000D+00  -5  6  0 0.00000000D+00 0.00000000D+00 0.00000000D+00 0.00000000D+00 0.00000000D+00
  <mgrwgt>
 0.3846785976D+00    4    2    0
 0.404948760128936D+03 0.000000000000000D+00 0.000000000000000D+00 0.404948760128936D+03
 0.404948760128936D+03 -.000000000000000D+00 -.000000000000000D+00 -.404948760128936D+03
 0.183754457677297D+03 -.479396658989515D+02 0.133577736965146D+02 0.125156138609527D+03
 0.262968811933780D+03 0.672998351180336D+02 -.100041772753054D+01 0.237291120911255D+03
 0.363174250646795D+03 -.193601692190822D+02 -.123573559689841D+02 -.362447259520782D+03
 0.000000000000000D+00 0.000000000000000D+00 -.000000000000000D+00 0.000000000000000D+00
 0.404948760128936D+03 0.000000000000000D+00 0.000000000000000D+00 0.404948760128936D+03
 0.404948760128936D+03 -.000000000000000D+00 -.000000000000000D+00 -.404948760128936D+03
 0.177061866722961D+03 -.484866352609950D+02 0.130086499345055D+02 0.114916168903110D+03
 0.249712642630951D+03 0.665226500818495D+02 -.149648529993731D+01 0.222741217792235D+03
 0.144851894631638D+03 0.133083563232701D+02 0.801064941638493D+02 -.119949608682668D+03
 0.238271116272323D+03 -.313443711441247D+02 -.916186587984175D+02 -.217707778012678D+03
0.354926568408D-03 0.000000000000D+00 0.000000000000D+00 0.284556056306D-04 0.000000000000D+00  6 2 21 25 23 2 21 2 0.29074749D+00 0.13349268D-01 0.18339691D+05 0.18339691D+05 0.18339691D+05 0.12379913D+01  1  2  2  3  6  5        2 0.298923386056D+00 0.100000000000D+01
0.149049732775D-03 0.187299895923D-04 -.716494482739D-06 0.284556056306D-04 0.000000000000D+00  6 2 21 25 23 2 21 4 0.29074749D+00 0.13349268D-01 0.18339691D+05 0.18339691D+05 0.18339691D+05 0.12379913D+01  1  2  3  3  6  5        2 0.192392337505D+00 0.100000000000D+01
0.429173921596D-04 0.000000000000D+00 0.000000000000D+00 0.284556056306D-04 0.000000000000D+00  6 2 21 25 23 2 21 4 0.29074749D+00 0.13349268D-01 0.18339691D+05 0.18339691D+05 0.18339691D+05 0.12379913D+01  1  2 15  3  6  5        2 0.553974652855D-01 0.100000000000D+01
-.125531051982D-03 0.000000000000D+00 0.000000000000D+00 0.284556056306D-04 0.000000000000D+00  6 2 21 25 23 2 21 4 0.29074749D+00 0.13349268D-01 0.18339691D+05 0.18339691D+05 0.18339691D+05 0.12379913D+01  1  2  5  3  6  5        2 -.162034591212D+00 0.100000000000D+01
  </mgrwgt>
  </event>
  <event>
  5     66 0.44822969E-03 0.27080312E+02 0.75467711E-02 0.11803482E+00
        2 -1    0    0  502    0 0.00000000E+00 0.00000000E+00 0.91068407E+03 0.91068413E+03 0.32000000E+00 0.0000E+00 0.9000E+01
       21 -1    0    0  501  502 0.00000000E+00 0.00000000E+00 -.33289141E+02 0.33297589E+02 0.75000000E+00 0.0000E+00 0.9000E+01
       25  1    1    2    0    0 0.95524182E+02 -.19962878E+02 0.44282282E+03 0.47036203E+03 0.12500000E+03 0.0000E+00 0.9000E+01
       23  1    1    2    0    0 -.10834470E+03 0.43815260E+02 0.41361717E+03 0.43937770E+03 0.91188000E+02 0.0000E+00 0.9000E+01
        2  1    1    2  501    0 0.12820517E+02 -.23852382E+02 0.20954942E+02 0.34241988E+02 0.32000000E+00 0.0000E+00 0.9000E+01
#aMCatNLO 1  0  0  2  1 0.13579034D+01 0.00000000D+00  -5  6  0 0.00000000D+00 0.00000000D+00 0.00000000D+00 0.00000000D+00 0.00000000D+00
  <mgrwgt>
 0.9063139696D-01   15    2    0
 0.174126115659678D+03 0.000000000000000D+00 0.000000000000000D+00 0.174126115659678D+03
 0.174126115659678D+03 0.000000000000000D+00 0.000000000000000D+00 -.174126115659678D+03
 0.159317329808536D+03 0.955239949096880D+02 -.199625291168588D+02 0.152864451418299D+02
 0.148912185207645D+03 -.108344874355739D+03 0.438155861921597D+02 0.141834469291749D+02
 0.400227163031745D+02 0.128208794460506D+02 -.238530570753009D+02 -.294698920710048D+02
 0.000000000000000D+00 -.000000000000000D+00 -.000000000000000D+00 0.000000000000000D+00
 0.177371587431639D+03 0.000000000000000D+00 0.000000000000000D+00 0.177371587431639D+03
 0.174269533774866D+03 0.000000000000000D+00 0.000000000000000D+00 -.174269533774866D+03
 0.159555478756622D+03 0.960024184056690D+02 -.195655579129161D+02 0.152864451418299D+02
 0.148697297925513D+03 -.107898353468623D+03 0.441860862525310D+02 0.141834469291749D+02
 0.400021019922445D+02 0.129409453541674D+02 -.237534325616681D+02 -.294698920710048D+02
 0.338624253212524D+01 -.104501029121375D+01 -.867095777946869D+00 0.310205365677289D+01
0.507280497991D-05 0.000000000000D+00 0.000000000000D+00 0.478597586006D-06 0.000000000000D+00  6 2 21 25 23 2 21 2 0.14010590D+00 0.51220604D-02 0.27871929D+05 0.27871929D+05 0.27871929D+05 0.12182665D+01  1  2  2  2  6  2       21 0.737463309364D-01 0.100000000000D+01
0.453568122854D-06 0.267699273412D-06 -.102405317145D-07 0.478597586006D-06 0.000000000000D+00  6 2 21 25 23 2 21 4 0.14010590D+00 0.51220604D-02 0.27871929D+05 0.27871929D+05 0.27871929D+05 0.12182665D+01  1  2  3  2  6  2       21 0.978631897957D-02 0.100000000000D+01
0.393028569679D-06 0.000000000000D+00 0.000000000000D+00 0.478597586006D-06 0.000000000000D+00  6 2 21 25 23 2 21 4 0.14010590D+00 0.51220604D-02 0.27871929D+05 0.27871929D+05 0.27871929D+05 0.12182665D+01  1  2 15  2  6  2       21 0.848009980675D-02 0.100000000000D+01
-.327944402221D-05 0.000000000000D+00 0.000000000000D+00 0.478597586006D-06 0.000000000000D+00  6 2 21 25 23 2 21 4 0.14010590D+00 0.51220604D-02 0.27871929D+05 0.27871929D+05 0.27871929D+05 0.12182665D+01  1  2  4  2  6  2       21 -.707582470193D-01 0.100000000000D+01
0.981713187752D-10 0.000000000000D+00 0.000000000000D+00 0.478597586006D-06 0.000000000000D+00  6 2 21 25 23 2 21 4 0.14010590D+00 0.52351303D-02 0.27871929D+05 0.27871929D+05 0.27871929D+05 0.12182665D+01  1  2  5  2  6  2       21 0.204130703106D-05 0.100000000000D+01
-.980583825859D-10 0.000000000000D+00 0.000000000000D+00 0.478597586006D-06 0.000000000000D+00  6 2 21 25 23 2 21 4 0.14010590D+00 0.51220604D-02 0.27871929D+05 0.27871929D+05 0.27871929D+05 0.12182665D+01  1  2  6  2  6  2       21 -.211573645116D-05 0.100000000000D+01
0.326355629233D-05 0.000000000000D+00 0.000000000000D+00 0.478597586006D-06 0.205965344214D-05  6 2 21 25 23 2 21 4 0.14271728D+00 0.51262792D-02 0.28097901D+05 0.28097901D+05 0.28097901D+05 0.12178954D+01  1  2 11  2  6  2       21 0.685260953738D-01 0.100000000000D+01
0.713512530076D-07 0.000000000000D+00 0.000000000000D+00 0.478306099789D-06 0.387646947443D-09  6 2 -1 25 23 2 -1 4 0.14271728D+00 0.51262792D-02 0.28097901D+05 0.28097901D+05 0.28097901D+05 0.12178954D+01  1  2 11  5  6  2       21 0.866467545483D-04 0.100000000000D+01
0.713512530076D-07 0.000000000000D+00 0.000000000000D+00 0.478306099789D-06 0.387646947443D-09  6 2 -3 25 23 2 -3 4 0.14271728D+00 0.51262792D-02 0.28097901D+05 0.28097901D+05 0.28097901D+05 0.12178954D+01  1  2 11  5  6  2       21 0.619745090132D-04 0.100000000000D+01
0.717769597716D-07 0.000000000000D+00 0.000000000000D+00 0.478306099789D-06 0.389959785979D-09  6 2 1 25 23 2 1 4 0.14271728D+00 0.51262792D-02 0.28097901D+05 0.28097901D+05 0.28097901D+05 0.12178954D+01  1  2 11  6  6  2       21 0.984693750658D-04 0.100000000000D+01
0.717769597716D-07 0.000000000000D+00 0.000000000000D+00 0.478306099789D-06 0.389959785979D-09  6 2 3 25 23 2 3 4 0.14271728D+00 0.51262792D-02 0.28097901D+05 0.28097901D+05 0.28097901D+05 0.12178954D+01  1  2 11  6  6  2       21 0.623382123059D-04 0.100000000000D+01
0.353021600424D-06 0.000000000000D+00 0.000000000000D+00 0.478306099789D-06 0.236906756790D-07  6 2 -2 25 23 2 -2 4 0.14271728D+00 0.51262792D-02 0.28097901D+05 0.28097901D+05 0.28097901D+05 0.12178954D+01  1  2 11  7  6  2       21 0.418907967413D-03 0.100000000000D+01
0.800957698155D-08 0.000000000000D+00 0.000000000000D+00 0.478306099789D-06 0.228104201523D-08  6 2 2 25 23 2 2 4 0.14271728D+00 0.51262792D-02 0.28097901D+05 0.28097901D+05 0.28097901D+05 0.12178954D+01  1  2 11  8  6  2       21 0.118368600128D-04 0.100000000000D+01
0.714338119059D-07 0.000000000000D+00 0.000000000000D+00 0.478306099789D-06 0.388095484835D-09  6 2 -4 25 23 2 -4 4 0.14271728D+00 0.51262792D-02 0.28097901D+05 0.28097901D+05 0.28097901D+05 0.12178954D+01  1  2 11  9  6  2       21 0.554454576949D-04 0.100000000000D+01
0.711873779079D-07 0.000000000000D+00 0.000000000000D+00 0.478306099789D-06 0.386756624155D-09  6 2 4 25 23 2 4 4 0.14271728D+00 0.51262792D-02 0.28097901D+05 0.28097901D+05 0.28097901D+05 0.12178954D+01  1  2 11 10  6  2       21 0.552541806869D-04 0.100000000000D+01
  </mgrwgt>
  </event>
  <event>
  6     66 -.44822969E-03 0.52933571E+02 0.75467711E-02 0.11659744E+00
        2 -1    0    0  502    0 0.00000000E+00 0.00000000E+00 0.21602597E+03 0.21602621E+03 0.32000000E+00 0.0000E+00 0.9000E+01
       21 -1    0    0  501  503 0.00000000E+00 0.00000000E+00 -.19440048E+03 0.19440192E+03 0.75000000E+00 0.0000E+00 0.9000E+01
       25  1    1    2    0    0 0.97488719E+02 0.19309112E+02 -.71274072E+02 0.17487677E+03 0.12500000E+03 0.0000E+00 0.9000E+01
       23  1    1    2    0    0 -.28413043E+02 -.62164159E+02 0.89618769E+02 0.14497744E+03 0.91188000E+02 0.0000E+00 0.9000E+01
        2  1    1    2  501    0 -.44727606E+02 0.47629920E+02 0.59379811E+01 0.65608917E+02 0.32000000E+00 0.0000E+00 0.9000E+01
       21  1    1    2  502  503 -.24348071E+02 -.47748726E+01 -.26571839E+01 0.24964997E+02 0.75000000E+00 0.0000E+00 0.9000E+01
#aMCatNLO 2  0  0  2  1 0.24811851D+02 0.00000000D+00  -5  6  0 0.00000000D+00 0.00000000D+00 0.00000000D+00 0.00000000D+00 0.00000000D+00
  <mgrwgt>
 -.2825667352D-01    2    2    0
 0.191948267324198D+03 0.000000000000000D+00 0.000000000000000D+00 0.191948267324198D+03
 0.191948267324198D+03 0.000000000000000D+00 0.000000000000000D+00 -.191948267324198D+03
 0.173675578247431D+03 0.862937338070972D+02 0.171133915664281D+02 -.824544105206231D+02
 0.142475667981517D+03 -.373489216638064D+02 -.639167980240566D+02 0.806459273843532D+02
 0.677452884194479D+02 -.489448121432908D+02 0.468034064576285D+02 0.180848313626993D+01
 0.000000000000000D+00 -.000000000000000D+00 -.000000000000000D+00 -.000000000000000D+00
 0.202815273337138D+03 0.000000000000000D+00 0.000000000000000D+00 0.202815273337138D+03
 0.207053457478915D+03 0.000000000000000D+00 0.000000000000000D+00 -.207053457478915D+03
 0.179723850452145D+03 0.974889730460912D+02 0.193088772708335D+02 -.824544105206231D+02
 0.139609143841819D+03 -.284128377384035D+02 -.621643527129056D+02 0.806459273843532D+02
 0.653645196919435D+02 -.447280646733043D+02 0.476303480344728D+02 0.180848313626993D+01
 0.251712168301453D+02 -.243480706343835D+02 -.477487259240068D+01 -.423818414177652D+01
-.770399951306D-05 0.000000000000D+00 0.000000000000D+00 0.722331116329D-07 0.000000000000D+00  6 2 21 25 23 2 21 4 0.31453283D-01 0.30639055D-01 0.33088498D+05 0.33088498D+05 0.33088498D+05 0.12104572D+01  1  2 13  2  6  2       21 -.347225483978D-01 0.100000000000D+01
0.145295931771D-05 0.000000000000D+00 0.000000000000D+00 0.730325551989D-07 0.204971871454D-08  6 2 21 25 23 2 21 4 0.33233987D-01 0.29907078D-01 0.33088498D+05 0.33088498D+05 0.33088498D+05 0.12104572D+01  1  2  1  2  6  2       21 0.646587487298D-02 0.100000000000D+01
  </mgrwgt>
  </event>
  <event>
  6     66 0.44822969E-03 0.12630098E+03 0.75467711E-02 0.11277529E+00
        2 -1    0    0  502    0 0.00000000E+00 0.00000000E+00 0.28939479E+04 0.28939479E+04 0.32000000E+00 0.0000E+00 0.9000E+01
       21 -1    0    0  501  502 0.00000000E+00 0.00000000E+00 -.48103596E+02 0.48109443E+02 0.75000000E+00 0.0000E+00 0.9000E+01
       25  1    1    2    0    0 -.22774070E+02 -.12914230E+03 0.24180163E+04 0.24247936E+04 0.12500000E+03 0.0000E+00 0.9000E+01
       23  1    1    2    0    0 -.88109009E+02 0.54237177E+02 0.14313669E+03 0.19876677E+03 0.91188000E+02 0.0000E+00 0.9000E+01
        2  1    1    2  503    0 0.11139974E+03 0.67301050E+02 0.28162924E+03 0.31024904E+03 0.32000000E+00 0.0000E+00 0.9000E+01
       21  1    1    2  501  503 -.51666181E+00 0.76040685E+01 0.30620490E+01 0.82478750E+01 0.75000000E+00 0.0000E+00 0.9000E+01
#aMCatNLO 2  0  0  5  2 0.15351722D+02 0.00000000D+00  -5  6  0 0.00000000D+00 0.00000000D+00 0.00000000D+00 0.00000000D+00 0.00000000D+00
  <mgrwgt>
 0.7419120317D-01    3    2    0
 0.373119185022145D+03 0.000000000000000D+00 0.000000000000000D+00 0.373119185022145D+03
 0.373119185022145D+03 -.000000000000000D+00 -.000000000000000D+00 -.373119185022145D+03
 0.340882534111250D+03 -.251072865785526D+02 -.130718459158513D+03 0.287851021637920D+03
 0.237036375657163D+03 -.897397272967601D+02 0.531355733570912D+02 -.192339242562198D+03
 0.168319460275876D+03 0.114847013875313D+03 0.775828858014223D+02 -.955117790757215D+02
 0.000000000000000D+00 0.000000000000000D+00 0.000000000000000D+00 -.000000000000000D+00
 0.373119185022145D+03 0.000000000000000D+00 0.000000000000000D+00 0.373119185022145D+03
 0.373119185022145D+03 -.000000000000000D+00 -.000000000000000D+00 -.373119185022145D+03
 0.338467163536736D+03 -.227650830476937D+02 -.129136224645602D+03 0.285903143163407D+03
 0.237780191846098D+03 -.881026955224519D+02 0.542414414586105D+02 -.193700669489131D+03
 0.149076527855929D+03 0.111395343110839D+03 0.672612441283325D+02 -.727379799630629D+02
 0.209144868055263D+02 -.527564540693486D+00 0.763353905865920D+01 -.194644937112133D+02
-.362056585861D-04 0.000000000000D+00 0.000000000000D+00 0.152038977819D-07 0.000000000000D+00  6 2 21 25 23 2 21 4 0.44522320D+00 0.74010044D-02 0.52178206D+05 0.52178206D+05 0.52178206D+05 0.11904520D+01  1  2 13  3  6  5        2 -.309672334765D-01 0.100000000000D+01
-.648840590219D-04 0.000000000000D+00 0.000000000000D+00 0.151901685026D-07 0.000000000000D+00  6 2 21 25 23 2 21 4 0.44522320D+00 0.74010044D-02 0.52838107D+05 0.52838107D+05 0.52838107D+05 0.11899144D+01  1  2  8  3  6  5        2 -.553532516719D-01 0.100000000000D+01
0.187663886440D-03 0.000000000000D+00 0.000000000000D+00 0.151901685026D-07 0.470913185696D-08  6 2 21 25 23 2 21 4 0.44522320D+00 0.74010044D-02 0.52178206D+05 0.52178206D+05 0.52178206D+05 0.11904520D+01  1  2  1  3  6  5        2 0.160511688322D+00 0.100000000000D+01
  </mgrwgt>
  </event>
  <event>
  5     66 0.44822969E-03 0.11104106E+03 0.75467711E-02 0.10464413E+00
        2 -1    0    0  502    0 0.00000000E+00 0.00000000E+00 0.97434409E+03 0.97434414E+03 0.32000000E+00 0.0000E+00 0.9000E+01
       21 -1    0    0  501  502 0.00000000E+00 0.00000000E+00 -.13926066E+03 0.13926268E+03 0.75000000E+00 0.0000E+00 0.9000E+01
       25  1    1    2    0    0 0.10270277E+03 0.78591360E+02 0.65159603E+03 0.67596364E+03 0.12500000E+03 0.0000E+00 0.9000E+01
       23  1    1    2    0    0 -.33391937E+02 0.81618478E+01 0.27626161E+03 0.29294602E+03 0.91188000E+02 0.0000E+00 0.9000E+01
        2  1    1    2  501    0 -.69310831E+02 -.86753208E+02 -.92774218E+02 0.14469716E+03 0.32000000E+00 0.0000E+00 0.9000E+01
#aMCatNLO 1  0  0  2  1 0.41764410D+01 0.00000000D+00  -5  6  0 0.00000000D+00 0.00000000D+00 0.00000000D+00 0.00000000D+00 0.00000000D+00
  <mgrwgt>
 0.1107137466D+00    3    2    0
 0.368359816801883D+03 0.000000000000000D+00 0.000000000000000D+00 0.368359816801883D+03
 0.368359816801883D+03 0.000000000000000D+00 0.000000000000000D+00 -.368359816801883D+03
 0.283175181653783D+03 0.102702781117645D+03 0.785913760187329D+02 0.218720638877167D+03
 0.129662890637610D+03 -.333919307043968D+02 0.816185522403956D+01 0.855311460675897D+02
 0.323881561312373D+03 -.693108504132483D+02 -.867532312427725D+02 -.304251784944757D+03
 0.000000000000000D+00 -.000000000000000D+00 0.000000000000000D+00 0.000000000000000D+00
 0.835551041199164D+03 0.000000000000000D+00 0.000000000000000D+00 0.835551041199164D+03
 0.443097565000097D+03 0.000000000000000D+00 0.000000000000000D+00 -.443097565000097D+03
 0.307080426489888D+03 0.175495921792565D+03 -.598764532624423D+01 0.218720638877167D+03
 0.128308032922353D+03 -.157772433404630D+01 -.288033645030227D+02 0.855311460675897D+02
 0.355946367013278D+03 0.145287765866250D+02 -.184167266903695D+03 -.304251784944757D+03
 0.487313779773742D+03 -.188446974045144D+03 0.218958276732962D+03 0.392453476199067D+03
0.934827286642D-04 0.000000000000D+00 0.000000000000D+00 0.942020652114D-06 0.000000000000D+00  6 2 21 25 23 2 21 2 0.14989925D+00 0.21424876D-01 0.37704438D+05 0.37704438D+05 0.37704438D+05 0.12046155D+01  1  2  2  2  6  2       21 0.952276454043D-01 0.100000000000D+01
0.349099210045D-05 0.493321912415D-05 -.188714695605D-06 0.942020652114D-06 0.000000000000D+00  6 2 21 25 23 2 21 4 0.14989925D+00 0.21424876D-01 0.37704438D+05 0.37704438D+05 0.37704438D+05 0.12046155D+01  1  2  3  2  6  2       21 0.516032980341D-02 0.100000000000D+01
0.698544233505D-05 0.000000000000D+00 0.000000000000D+00 0.942020652114D-06 0.000000000000D+00  6 2 21 25 23 2 21 4 0.14989925D+00 0.21424876D-01 0.37704438D+05 0.37704438D+05 0.37704438D+05 0.12046155D+01  1  2 15  2  6  2       21 0.103257713665D-01 0.100000000000D+01
  </mgrwgt>
  </event>
  <event>
  5     66 0.44822969E-03 0.22578844E+02 0.75467711E-02 0.10025661E+00
        4 -1    0    0  502    0 0.00000000E+00 0.00000000E+00 0.60888019E+03 0.60888216E+03 0.15500000E+01 0.0000E+00 0.9000E+01
       21 -1    0    0  501  502 0.00000000E+00 0.00000000E+00 -.68366132E+02 0.68370246E+02 0.75000000E+00 0.0000E+00 0.9000E+01
       25  1    1    2    0    0 -.18448757E+02 0.25431959E+02 0.30693499E+03 0.33289822E+03 0.12500000E+03 0.0000E+00 0.9000E+01
       23  1    1    2    0    0 0.40163456E+02 -.19248551E+02 0.27721061E+03 0.29520262E+03 0.91188000E+02 0.0000E+00 0.9000E+01
        4  1    1    2  501    0 -.21714699E+02 -.61834078E+01 -.43631542E+02 0.49151568E+02 0.15500000E+01 0.0000E+00 0.9000E+01
#aMCatNLO 1  0  0  2  1 0.41764410D+01 0.00000000D+00  -5  6  0 0.00000000D+00 0.00000000D+00 0.00000000D+00 0.00000000D+00 0.00000000D+00
  <mgrwgt>
 0.2493124985D-01   12    2    0
 0.204031478964250D+03 0.000000000000000D+00 0.000000000000000D+00 0.204031478964250D+03
 0.204031478964250D+03 0.000000000000000D+00 0.000000000000000D+00 -.204031478964250D+03
 0.145943204630407D+03 -.184482764117778D+02 0.254320957063984D+02 0.684637757007893D+02
 0.122753322627204D+03 0.401638598766780D+02 -.192484361055028D+02 0.690614866573064D+02
 0.139366430670890D+03 -.217155834649002D+02 -.618365960089556D+01 -.137525262358096D+03
 0.000000000000000D+00 -.000000000000000D+00 -.000000000000000D+00 -.000000000000000D+00
 0.558156538402259D+03 0.000000000000000D+00 0.000000000000000D+00 0.558156538402259D+03
 0.613144385788524D+03 0.000000000000000D+00 0.000000000000000D+00 -.613144385788524D+03
 0.215789591726354D+03 0.154393569604930D+03 0.491475836523649D+02 0.684637757007893D+02
 0.243896546309252D+03 0.215355163587662D+03 0.478941900392703D+01 0.690614866573064D+02
 0.195754977723844D+03 0.138410906170665D+03 0.157871647237595D+02 -.137525262358096D+03
 0.515859808431333D+03 -.508159639363257D+03 -.697241673800514D+02 -.549878473862653D+02
0.136881507484D-04 0.000000000000D+00 0.000000000000D+00 0.651167065971D-05 0.000000000000D+00  6 4 21 25 23 4 21 2 0.93674343D-01 0.10518335D-01 0.15995969D+05 0.15995969D+05 0.15995969D+05 0.12446522D+01  1  2  2  2  6  2       21 0.643512690991D-02 0.100000000000D+01
0.348077984328D-05 0.722343560261D-06 -.276324326300D-07 0.651167065971D-05 0.000000000000D+00  6 4 21 25 23 4 21 4 0.93674343D-01 0.10518335D-01 0.15995969D+05 0.15995969D+05 0.15995969D+05 0.12446522D+01  1  2  3  2  6  2       21 0.253504062880D-02 0.100000000000D+01
0.144508784380D-05 0.000000000000D+00 0.000000000000D+00 0.651167065971D-05 0.000000000000D+00  6 4 21 25 23 4 21 4 0.93674343D-01 0.10518335D-01 0.15995969D+05 0.15995969D+05 0.15995969D+05 0.12446522D+01  1  2 15  2  6  2       21 0.105245277242D-02 0.100000000000D+01
0.769237715891D-03 0.000000000000D+00 -.243861338541D-03 0.651167065971D-05 0.000000000000D+00  6 4 21 25 23 4 21 4 0.93674343D-01 0.84791748D-01 0.15995969D+05 0.15995969D+05 0.15995969D+05 0.12446522D+01  1  2  5  2  6  2       21 0.951778975670D-02 0.100000000000D+01
0.336083154229D-03 0.000000000000D+00 -.105592271955D-03 0.651167065971D-05 0.000000000000D+00  6 4 -1 25 23 4 -1 4 0.93674343D-01 0.84791748D-01 0.15995969D+05 0.15995969D+05 0.15995969D+05 0.12446522D+01  1  2  5  5  6  2       21 0.455498820288D-03 0.100000000000D+01
0.336083154229D-03 0.000000000000D+00 -.105592271955D-03 0.651167065971D-05 0.000000000000D+00  6 4 -3 25 23 4 -3 4 0.93674343D-01 0.84791748D-01 0.15995969D+05 0.15995969D+05 0.15995969D+05 0.12446522D+01  1  2  5  5  6  2       21 0.214139456444D-03 0.100000000000D+01
0.336083154229D-03 0.000000000000D+00 -.105592271955D-03 0.651167065971D-05 0.000000000000D+00  6 4 1 25 23 4 1 4 0.93674343D-01 0.84791748D-01 0.15995969D+05 0.15995969D+05 0.15995969D+05 0.12446522D+01  1  2  5  6  6  2       21 0.147552342787D-02 0.100000000000D+01
0.336083154229D-03 0.000000000000D+00 -.105592271955D-03 0.651167065971D-05 0.000000000000D+00  6 4 3 25 23 4 3 4 0.93674343D-01 0.84791748D-01 0.15995969D+05 0.15995969D+05 0.15995969D+05 0.12446522D+01  1  2  5  6  6  2       21 0.214445690274D-03 0.100000000000D+01
0.336083154229D-03 0.000000000000D+00 -.105592271955D-03 0.651167065971D-05 0.000000000000D+00  6 4 -4 25 23 4 -4 4 0.93674343D-01 0.84791748D-01 0.15995969D+05 0.15995969D+05 0.15995969D+05 0.12446522D+01  1  2  5  7  6  2       21 0.171735248107D-03 0.100000000000D+01
0.336083154229D-03 0.000000000000D+00 -.105592271955D-03 0.651167065971D-05 0.000000000000D+00  6 4 4 25 23 4 4 4 0.93674343D-01 0.84791748D-01 0.15995969D+05 0.15995969D+05 0.15995969D+05 0.12446522D+01  1  2  5  8  6  2       21 0.171735248107D-03 0.100000000000D+01
0.336083154229D-03 0.000000000000D+00 -.105592271955D-03 0.651167065971D-05 0.000000000000D+00  6 4 -2 25 23 4 -2 4 0.93674343D-01 0.84791748D-01 0.15995969D+05 0.15995969D+05 0.15995969D+05 0.12446522D+01  1  2  5  9  6  2       21 0.343951552706D-03 0.100000000000D+01
0.336083154229D-03 0.000000000000D+00 -.105592271955D-03 0.651167065971D-05 0.000000000000D+00  6 4 2 25 23 4 2 4 0.93674343D-01 0.84791748D-01 0.15995969D+05 0.15995969D+05 0.15995969D+05 0.12446522D+01  1  2  5 10  6  2       21 0.234381033751D-02 0.100000000000D+01
  </mgrwgt>
  </event>
  <event>
  6     66 0.44822969E-03 0.21256389E+02 0.75467711E-02 0.12223596E+00
        2 -1    0    0  502    0 0.00000000E+00 0.00000000E+00 0.13560111E+03 0.13560149E+03 0.32000000E+00 0.0000E+00 0.9000E+01
       21 -1    0    0  501  502 -.00000000E+00 -.00000000E+00 -.13614314E+03 0.13614521E+03 0.75000000E+00 0.0000E+00 0.9000E+01
       25  1    1    2    0    0 0.48586349E+01 0.42058670E+02 -.10252051E+02 0.13237312E+03 0.12500000E+03 0.0000E+00 0.9000E+01
       23  1    1    2    0    0 -.21674103E+02 -.38622830E+02 0.13248241E+02 0.10223628E+03 0.91188000E+02 0.0000E+00 0.9000E+01
        2  1    1    2  503    0 -.76944116E+01 -.33443999E+01 -.86868500E+01 0.12081090E+02 0.32000000E+00 0.0000E+00 0.9000E+01
       21  1    1    2  501  503 0.24509879E+02 -.91440612E-01 0.51486307E+01 0.25056206E+02 0.75000000E+00 0.0000E+00 0.9000E+01
#aMCatNLO 2  0  0  5  2 0.10078870D+02 0.00000000D+00  -5  6  0 0.00000000D+00 0.00000000D+00 0.00000000D+00 0.00000000D+00 0.00000000D+00
  <mgrwgt>
 0.5217571064D+00    2    2    0
 0.135873077245386D+03 0.000000000000000D+00 0.000000000000000D+00 0.135873077245386D+03
 0.135873077245386D+03 -.000000000000000D+00 -.000000000000000D+00 -.135873077245386D+03
 0.132845640096199D+03 -.468078998068671D+01 0.440078244865817D+02 -.802282255092480D+01
 0.103742805154159D+03 -.290843086599433D+02 -.371087303804331D+02 0.149787648549275D+02
 0.351577092404152D+02 0.337650986406300D+02 -.689909410614857D+01 -.695594230400271D+01
 0.000000000000000D+00 0.000000000000000D+00 0.000000000000000D+00 0.000000000000000D+00
 0.135873077245386D+03 0.000000000000000D+00 0.000000000000000D+00 0.135873077245386D+03
 0.135873077245386D+03 -.000000000000000D+00 -.000000000000000D+00 -.135873077245386D+03
 0.132360198945403D+03 0.436431205205313D+01 0.421596732109773D+02 -.988620250260801D+01
 0.102325506495099D+03 -.220561492826168D+02 -.385447674390911D+02 0.135308949211731D+02
 0.113536652490279D+02 -.766149740651541D+01 -.295366929810621D+01 -.784111023735579D+01
 0.257067838012427D+02 0.253533346370791D+02 -.661236473780034D+00 0.419641781879066D+01
-.675941140630D-05 0.000000000000D+00 0.000000000000D+00 0.362273261004D-06 0.000000000000D+00  6 2 21 25 23 2 21 4 0.20861897D-01 0.20945286D-01 0.17820982D+05 0.17820982D+05 0.17820982D+05 0.12393799D+01  1  2 13  3  6  5        2 -.108584055673D+00 0.100000000000D+01
0.392390504676D-04 0.000000000000D+00 0.000000000000D+00 0.361697300894D-06 0.376806788756D-07  6 2 21 25 23 2 21 4 0.20861897D-01 0.20945286D-01 0.17820982D+05 0.17820982D+05 0.17820982D+05 0.12393799D+01  1  2  1  3  6  5        2 0.630341162036D+00 0.100000000000D+01
  </mgrwgt>
  </event>
  <event>
  5     66 0.44822969E-03 0.24764789E+02 0.75467711E-02 0.12059044E+00
        2 -1    0    0  502    0 0.00000000E+00 0.00000000E+00 0.98264509E+03 0.98264514E+03 0.32000000E+00 0.0000E+00 0.9000E+01
       21 -1    0    0  501  502 0.00000000E+00 0.00000000E+00 -.90433352E+02 0.90436462E+02 0.75000000E+00 0.0000E+00 0.9000E+01
       25  1    1    2    0    0 -.49159963E+02 0.24821023E+02 0.77472481E+03 0.78667421E+03 0.12500000E+03 0.0000E+00 0.9000E+01
       23  1    1    2    0    0 0.25159823E+02 -.18714684E+02 0.18820917E+03 0.21147388E+03 0.91188000E+02 0.0000E+00 0.9000E+01
        2  1    1    2  501    0 0.24000141E+02 -.61063392E+01 -.70722242E+02 0.74933518E+02 0.32000000E+00 0.0000E+00 0.9000E+01
#aMCatNLO 1  0  0  2  2 0.41100073D+02 0.00000000D+00  -5  6  0 0.00000000D+00 0.00000000D+00 0.00000000D+00 0.00000000D+00 0.00000000D+00
  <mgrwgt>
 0.4036135820D+00    4    2    0
 0.298103313441072D+03 0.000000000000000D+00 0.000000000000000D+00 0.298103313441072D+03
 0.298103313441072D+03 0.000000000000000D+00 0.000000000000000D+00 -.298103313441072D+03
 0.256533717605880D+03 -.491599724567421D+02 0.248210253811027D+02 0.217144564923408D+03
 0.989695417314433D+02 0.251598190925630D+02 -.187146829859072D+02 0.222814494703191D+02
 0.240703367544820D+03 0.240001533641791D+02 -.610634239519546D+01 -.239426014393728D+03
 0.000000000000000D+00 0.000000000000000D+00 -.000000000000000D+00 0.000000000000000D+00
 0.362736041110213D+03 0.000000000000000D+00 0.000000000000000D+00 0.362736041110213D+03
 0.305417008020456D+03 0.000000000000000D+00 0.000000000000000D+00 -.305417008020456D+03
 0.260892364132943D+03 -.636134588554117D+02 0.352333852979073D+02 0.217144564923408D+03
 0.970430557070973D+02 0.196845144818537D+02 -.147702476650220D+02 0.222814494703191D+02
 0.239686164380454D+03 0.105812249205026D+02 0.356071708093682D+01 -.239426014393728D+03
 0.705314649101741D+02 0.333477194530555D+02 -.240238547138221D+02 0.573190330897564D+02
0.116719151037D-03 0.000000000000D+00 0.000000000000D+00 0.895247117620D-05 0.000000000000D+00  6 2 21 25 23 2 21 2 0.15117641D+00 0.13913067D-01 0.16613543D+05 0.16613543D+05 0.16613543D+05 0.12427957D+01  1  2  2  2  6  2       21 0.281917048849D+00 0.100000000000D+01
0.359881798507D-04 0.615943882124D-05 -.235622337665D-06 0.895247117620D-05 0.000000000000D+00  6 2 21 25 23 2 21 4 0.15117641D+00 0.13913067D-01 0.16613543D+05 0.16613543D+05 0.16613543D+05 0.12427957D+01  1  2  3  2  6  2       21 0.134257510277D+00 0.100000000000D+01
0.109295525658D-04 0.000000000000D+00 0.000000000000D+00 0.895247117620D-05 0.000000000000D+00  6 2 21 25 23 2 21 4 0.15117641D+00 0.13913067D-01 0.16613543D+05 0.16613543D+05 0.16613543D+05 0.12427957D+01  1  2 15  2  6  2       21 0.407737907838D-01 0.100000000000D+01
-.142965649907D-04 0.000000000000D+00 0.000000000000D+00 0.895247117620D-05 0.000000000000D+00  6 2 21 25 23 2 21 4 0.15117641D+00 0.13913067D-01 0.16613543D+05 0.16613543D+05 0.16613543D+05 0.12427957D+01  1  2  4  2  6  2       21 -.533347679468D-01 0.100000000000D+01
  </mgrwgt>
  </event>
  <event>
  6     66 0.44822969E-03 0.29049781E+02 0.75467711E-02 0.11747957E+00
        2 -1    0    0  502    0 0.00000000E+00 0.00000000E+00 0.11985009E+04 0.11985009E+04 0.32000000E+00 0.0000E+00 0.9000E+01
        1 -1    0    0  501    0 0.00000000E+00 0.00000000E+00 -.13454633E+04 0.13454633E+04 0.32000000E+00 0.0000E+00 0.9000E+01
       25  1    1    2    0    0 0.51735132E+02 0.57161757E+02 0.25347299E+03 0.29294632E+03 0.12500000E+03 0.0000E+00 0.9000E+01
       23  1    1    2    0    0 -.69357784E+02 -.56639738E+02 0.91350641E+03 0.92240326E+03 0.91188000E+02 0.0000E+00 0.9000E+01
        2  1    1    2  501    0 -.21989227E+02 -.17551387E+02 -.21390772E+02 0.35344657E+02 0.32000000E+00 0.0000E+00 0.9000E+01
        1  1    1    2  502    0 0.39611879E+02 0.17029368E+02 -.12925510E+04 0.12932700E+04 0.32000000E+00 0.0000E+00 0.9000E+01
#aMCatNLO 2  0  0  2  1 0.13757023D+02 0.00000000D+00  -5  6  0 0.00000000D+00 0.00000000D+00 0.00000000D+00 0.00000000D+00 0.00000000D+00
  <mgrwgt>
 0.4219518333D+00    1    2    0
 0.250001836380670D+03 0.000000000000000D+00 0.000000000000000D+00 0.250001836380670D+03
 0.250001836380670D+03 0.000000000000000D+00 0.000000000000000D+00 -.250001836380670D+03
 0.158065330067068D+03 0.639731352358667D+02 0.624229504647135D+02 -.370197486834351D+02
 0.206858515900631D+03 -.527379478338518D+02 -.494947684557304D+02 0.171009271708873D+03
 0.135079826793641D+03 -.112351874020149D+02 -.129281820089831D+02 -.133989523025438D+03
 0.000000000000000D+00 0.000000000000000D+00 0.000000000000000D+00 -.000000000000000D+00
 0.251004944733569D+03 0.000000000000000D+00 0.000000000000000D+00 0.251004944733569D+03
 0.642433170727935D+04 0.000000000000000D+00 0.000000000000000D+00 -.642433170727935D+04
 0.151457765345557D+03 0.517351430488855D+02 0.571617692570529D+02 -.370197486834351D+02
 0.213490006115500D+03 -.693577800999535D+02 -.566397271921729D+02 0.171009271708873D+03
 0.136911544600364D+03 -.219892420343800D+02 -.175514101720263D+02 -.133989523025438D+03
 0.617347733595150D+04 0.396118790854480D+02 0.170293681071463D+02 -.617332676254578D+04
0.723999083280D-01 0.000000000000D+00 0.000000000000D+00 0.264498316266D-05 0.643806064110D-05  6 2 1 25 23 2 1 4 0.18438476D+00 0.20699436D+00 0.29915154D+05 0.29915154D+05 0.29915154D+05 0.12150275D+01  1  2  1  6  6  2       21 0.421951833271D+00 0.100000000000D+01
  </mgrwgt>
  </event>
  <event>
  5     66 0.44822969E-03 0.75530802E+02 0.75467711E-02 0.11700558E+00
        2 -1    0    0  502    0 0.00000000E+00 0.00000000E+00 0.89114349E+03 0.89114354E+03 0.32000000E+00 0.0000E+00 0.9000E+01
       21 -1    0    0  501  502 0.00000000E+00 0.00000000E+00 -.47645109E+02 0.47651011E+02 0.75000000E+00 0.0000E+00 0.9000E+01
       25  1    1    2    0    0 0.55924453E+02 -.42812996E+02 0.25672518E+03 0.29409746E+03 0.12500000E+03 0.0000E+00 0.9000E+01
       23  1    1    2    0    0 -.37924291E+02 -.30541437E+02 0.75838867E+02 0.12821005E+03 0.91188000E+02 0.0000E+00 0.9000E+01
        2  1    1    2  501    0 -.18000161E+02 0.73354433E+02 0.51093433E+03 0.51648705E+03 0.32000000E+00 0.0000E+00 0.9000E+01
#aMCatNLO 1  0  0  2  2 0.28856439D+02 0.00000000D+00  -5  6  0 0.00000000D+00 0.00000000D+00 0.00000000D+00 0.00000000D+00 0.00000000D+00
  <mgrwgt>
 0.3930953768D-01    4    2    0
 0.206061703747550D+03 0.000000000000000D+00 0.000000000000000D+00 0.206061703747550D+03
 0.206061703747550D+03 0.000000000000000D+00 0.000000000000000D+00 -.206061703747550D+03
 0.144495159982243D+03 0.559244717076072D+02 -.428130728917153D+02 -.171273323108937D+02
 0.136835145946617D+03 -.379242735000702D+02 -.305415101859916D+02 -.896525039097232D+02
 0.130793101566239D+03 -.180001982075370D+02 0.733545830777069D+02 0.106779836220617D+03
 0.000000000000000D+00 0.000000000000000D+00 -.000000000000000D+00 0.000000000000000D+00
 0.268459061503112D+03 0.000000000000000D+00 0.000000000000000D+00 0.268459061503112D+03
 0.209929660463162D+03 0.000000000000000D+00 0.000000000000000D+00 -.209929660463162D+03
 0.141580397773549D+03 0.552132950949413D+02 -.328352792951041D+02 -.171273323108937D+02
 0.135225879292798D+03 -.386006103387921D+02 -.210525179182963D+02 -.896525039097232D+02
 0.136326143676285D+03 -.186642499059754D+02 0.826712150738864D+02 0.106779836220617D+03
 0.652563012236412D+02 0.205156514982611D+01 -.287834178604860D+02 0.585294010399498D+02
0.551918799377D-05 0.000000000000D+00 0.000000000000D+00 0.817557628830D-07 0.000000000000D+00  6 2 21 25 23 2 21 2 0.13709946D+00 0.73304752D-02 0.25982505D+05 0.25982505D+05 0.25982505D+05 0.12215069D+01  1  2  2  2  6  2       21 0.450090601512D-01 0.100000000000D+01
-.707194588998D-06 0.291255552226D-06 -.111416504109D-07 0.817557628830D-07 0.000000000000D+00  6 2 21 25 23 2 21 4 0.13709946D+00 0.73304752D-02 0.25982505D+05 0.25982505D+05 0.25982505D+05 0.12215069D+01  1  2  3  2  6  2       21 -.860509176769D-02 0.100000000000D+01
0.676625846756D-06 0.000000000000D+00 0.000000000000D+00 0.817557628830D-07 0.000000000000D+00  6 2 21 25 23 2 21 4 0.13709946D+00 0.73304752D-02 0.25982505D+05 0.25982505D+05 0.25982505D+05 0.12215069D+01  1  2 15  2  6  2       21 0.823313355943D-02 0.100000000000D+01
-.437836657388D-06 0.000000000000D+00 0.000000000000D+00 0.817557628830D-07 0.000000000000D+00  6 2 21 25 23 2 21 4 0.13709946D+00 0.73304752D-02 0.25982505D+05 0.25982505D+05 0.25982505D+05 0.12215069D+01  1  2  4  2  6  2       21 -.532756425840D-02 0.100000000000D+01
  </mgrwgt>
  </event>
  <event>
  5     66 -.44822969E-03 0.25656936E+02 0.75467711E-02 0.12154354E+00
        2 -1    0    0  502    0 0.00000000E+00 0.00000000E+00 0.11364775E+03 0.11364820E+03 0.32000000E+00 0.0000E+00 0.9000E+01
       21 -1    0    0  501  502 0.00000000E+00 0.00000000E+00 -.27681685E+03 0.27681787E+03 0.75000000E+00 0.0000E+00 0.9000E+01
       25  1    1    2    0    0 -.52742585E+02 0.16493775E+02 -.34495840E+02 0.14095669E+03 0.12500000E+03 0.0000E+00 0.9000E+01
       23  1    1    2    0    0 0.41363196E+02 -.40585258E+02 0.98084524E+01 0.10848748E+03 0.91188000E+02 0.0000E+00 0.9000E+01
        2  1    1    2  501    0 0.11379388E+02 0.24091484E+02 -.13848171E+03 0.14102190E+03 0.32000000E+00 0.0000E+00 0.9000E+01
#aMCatNLO 1  0  0  1  2 0.47693875D+01 0.00000000D+00  -5  6  0 0.00000000D+00 0.00000000D+00 0.00000000D+00 0.00000000D+00 0.00000000D+00
  <mgrwgt>
 -.5287473775D-01   11    2    0
 0.177369388907425D+03 0.000000000000000D+00 0.000000000000000D+00 0.177369388907425D+03
 0.177369388907425D+03 0.000000000000000D+00 0.000000000000000D+00 -.177369388907425D+03
 0.139286055277302D+03 -.527426118788237D+02 0.164937168231742D+02 0.268659522866482D+02
 0.123925426023625D+03 0.413631720274055D+02 -.405853099031033D+02 0.606974504492345D+02
 0.915272965139216D+02 0.113794398514182D+02 0.240915930799291D+02 -.875634027358828D+02
 0.000000000000000D+00 -.000000000000000D+00 -.000000000000000D+00 0.000000000000000D+00
 0.225571486299406D+03 0.000000000000000D+00 0.000000000000000D+00 0.225571486299406D+03
 0.177503435808380D+03 0.000000000000000D+00 0.000000000000000D+00 -.177503435808380D+03
 0.139485267876936D+03 -.526504843218368D+02 0.183653767483313D+02 0.268659522866482D+02
 0.123418965402621D+03 0.414449137010421D+02 -.389246491869767D+02 0.606974504492345D+02
 0.918666047872234D+02 0.114400473482797D+02 0.253228926687812D+02 -.875634027358828D+02
 0.483040840410058D+02 -.234476727485028D+00 -.476362023013578D+01 0.480680504910263D+02
0.534177085935D-06 0.000000000000D+00 0.000000000000D+00 0.182347870025D-05 0.000000000000D+00  6 2 21 25 23 2 21 2 0.17484383D-01 0.42587321D-01 0.18408733D+05 0.18408733D+05 0.18408733D+05 0.12378098D+01  1  2  2  1  6  1        2 0.172840735358D-02 0.100000000000D+01
0.815195687079D-07 0.281892992821D-07 -.107834963326D-08 0.182347870025D-05 0.000000000000D+00  6 2 21 25 23 2 21 4 0.17484383D-01 0.42587321D-01 0.18408733D+05 0.18408733D+05 0.18408733D+05 0.12378098D+01  1  2  3  1  6  1        2 0.404138812160D-03 0.100000000000D+01
0.437149782813D-07 0.000000000000D+00 0.000000000000D+00 0.182347870025D-05 0.000000000000D+00  6 2 21 25 23 2 21 4 0.17484383D-01 0.42587321D-01 0.18408733D+05 0.18408733D+05 0.18408733D+05 0.12378098D+01  1  2 15  1  6  1        2 0.216719981181D-03 0.100000000000D+01
0.546467138834D-04 0.000000000000D+00 0.000000000000D+00 0.181775193975D-05 0.000000000000D+00  6 2 21 25 23 2 21 4 0.22241343D-01 0.42587321D-01 0.19167284D+05 0.19167284D+05 0.19167284D+05 0.12358646D+01  1  2 12  1  6  1        2 0.204922586314D+00 0.100000000000D+01
-.173292132273D-03 0.000000000000D+00 0.000000000000D+00 0.182347870025D-05 0.000000000000D+00  6 2 21 25 23 2 21 4 0.17484383D-01 0.42587321D-01 0.18408733D+05 0.18408733D+05 0.18408733D+05 0.12378098D+01  1  2  4  1  6  1        2 -.859107544403D+00 0.100000000000D+01
-.179296913299D-03 0.000000000000D+00 -.110179253071D-05 0.182347870025D-05 0.000000000000D+00  6 2 21 25 23 2 21 4 0.22243597D-01 0.42587321D-01 0.18408733D+05 0.18408733D+05 0.18408733D+05 0.12378098D+01  1  2  5  1  6  1        2 -.676721794367D+00 0.100000000000D+01
0.174511634625D-03 0.000000000000D+00 0.107061661608D-05 0.182347870025D-05 0.000000000000D+00  6 2 21 25 23 2 21 4 0.17484383D-01 0.42587321D-01 0.18408733D+05 0.18408733D+05 0.18408733D+05 0.12378098D+01  1  2  6  1  6  1        2 0.865153310343D+00 0.100000000000D+01
0.112502037071D-03 0.000000000000D+00 0.000000000000D+00 0.182347870025D-05 0.622628630120D-06  6 2 21 25 23 2 21 4 0.22235958D-01 0.42619506D-01 0.19167284D+05 0.19167284D+05 0.19167284D+05 0.12358646D+01  1  2 11  1  6  1        2 0.421347867186D+00 0.100000000000D+01
0.179796284998D-05 0.000000000000D+00 0.000000000000D+00 0.181775193975D-05 0.000000000000D+00  6 21 21 25 23 2 -2 4 0.22241343D-01 0.42587321D-01 0.19167284D+05 0.19167284D+05 0.19167284D+05 0.12358646D+01  1  2 12  4  6  1        2 0.429464659498D-01 0.100000000000D+01
-.588364074323D-05 0.000000000000D+00 -.362620350123D-07 0.182347870025D-05 0.000000000000D+00  6 21 21 25 23 2 -2 4 0.22243597D-01 0.42587321D-01 0.18408733D+05 0.18408733D+05 0.18408733D+05 0.12378098D+01  1  2  5  4  6  1        2 -.141550771432D+00 0.100000000000D+01
0.367912073766D-05 0.000000000000D+00 0.000000000000D+00 0.182347870025D-05 0.203531408219D-07  6 21 21 25 23 2 -2 4 0.22235958D-01 0.42619506D-01 0.19167284D+05 0.19167284D+05 0.19167284D+05 0.12358646D+01  1  2 11  4  6  1        2 0.877858765104D-01 0.100000000000D+01
  </mgrwgt>
  </event>
  <event>
  5     66 0.44822969E-03 0.39398675E+02 0.75467711E-02 0.12040829E+00
        2 -1    0    0  502    0 0.00000000E+00 0.00000000E+00 0.17874008E+04 0.17874008E+04 0.32000000E+00 0.0000E+00 0.9000E+01
       21 -1    0    0  501  502 0.00000000E+00 0.00000000E+00 -.28035941E+02 0.28045971E+02 0.75000000E+00 0.0000E+00 0.9000E+01
       25  1    1    2    0    0 -.43877783E+01 0.84971443E+02 0.90380690E+03 0.91636855E+03 0.12500000E+03 0.0000E+00 0.9000E+01
       23  1    1    2    0    0 -.42660187E+01 -.46534965E+02 0.85349584E+03 0.85962439E+03 0.91188000E+02 0.0000E+00 0.9000E+01
        2  1    1    2  501    0 0.86537969E+01 -.38436477E+02 0.20621026E+01 0.39453842E+02 0.32000000E+00 0.0000E+00 0.9000E+01
#aMCatNLO 1  0  0  1  2 0.14656131D+01 0.00000000D+00  -5  6  0 0.00000000D+00 0.00000000D+00 0.00000000D+00 0.00000000D+00 0.00000000D+00
  <mgrwgt>
 0.2311478533D+00   10    2    0
 0.223876291104112D+03 0.000000000000000D+00 0.000000000000000D+00 0.223876291104112D+03
 0.223876291104112D+03 0.000000000000000D+00 0.000000000000000D+00 -.223876291104112D+03
 0.164135898613929D+03 -.438778531020409D+01 0.849714740968161D+02 0.638450400868212D+02
 0.131750872880643D+03 -.426602431545561D+01 -.465349402840093D+02 0.828211418063956D+02
 0.151865810713651D+03 0.865380962565970D+01 -.384365338128068D+02 -.146666181893217D+03
 0.000000000000000D+00 -.000000000000000D+00 -.000000000000000D+00 0.000000000000000D+00
 0.224810247777054D+03 0.000000000000000D+00 0.000000000000000D+00 0.224810247777054D+03
 0.224453208674592D+03 0.000000000000000D+00 0.000000000000000D+00 -.224453208674592D+03
 0.164399446468351D+03 -.423544661106959D+01 0.854871326423868D+02 0.638450400868212D+02
 0.131601542553542D+03 -.414391031773301D+01 -.461215907752028D+02 0.828211418063956D+02
 0.151753991850219D+03 0.879459522588931D+01 -.379599819040393D+02 -.146666181893217D+03
 0.150847557953370D+01 -.415238297086710D+00 -.140555996314471D+01 0.357039102461786D+00
0.426334764535D-05 0.000000000000D+00 0.000000000000D+00 0.179664908139D-05 0.000000000000D+00  6 2 21 25 23 2 21 2 0.27498551D+00 0.43139955D-02 0.21472926D+05 0.21472926D+05 0.21472926D+05 0.12304429D+01  1  2  2  1  6  1        2 0.279616994037D-01 0.100000000000D+01
0.572272632971D-06 0.224983036305D-06 -.860647057106D-08 0.179664908139D-05 0.000000000000D+00  6 2 21 25 23 2 21 4 0.27498551D+00 0.43139955D-02 0.21472926D+05 0.21472926D+05 0.21472926D+05 0.12304429D+01  1  2  3  1  6  1        2 0.568249048418D-02 0.100000000000D+01
0.343235781642D-06 0.000000000000D+00 0.000000000000D+00 0.179664908139D-05 0.000000000000D+00  6 2 21 25 23 2 21 4 0.27498551D+00 0.43139955D-02 0.21472926D+05 0.21472926D+05 0.21472926D+05 0.12304429D+01  1  2 15  1  6  1        2 0.340822529444D-02 0.100000000000D+01
-.193429053349D-03 0.000000000000D+00 0.000000000000D+00 0.179664908139D-05 0.000000000000D+00  6 2 21 25 23 2 21 4 0.27498551D+00 0.43139955D-02 0.21472926D+05 0.21472926D+05 0.21472926D+05 0.12304429D+01  1  2  4  1  6  1        2 -.192069075418D+01 0.100000000000D+01
-.250813141384D-02 0.000000000000D+00 -.246431579235D-03 0.179664908139D-05 0.000000000000D+00  6 2 21 25 23 2 21 4 0.27649921D+00 0.43139955D-02 0.21472926D+05 0.21472926D+05 0.21472926D+05 0.12304429D+01  1  2  5  1  6  1        2 -.246174647188D+02 0.100000000000D+01
0.250945011954D-02 0.000000000000D+00 0.246427866122D-03 0.179664908139D-05 0.000000000000D+00  6 2 21 25 23 2 21 4 0.27498551D+00 0.43139955D-02 0.21472926D+05 0.21472926D+05 0.21472926D+05 0.12304429D+01  1  2  6  1  6  1        2 0.249180645784D+02 0.100000000000D+01
0.186260609226D-03 0.000000000000D+00 0.000000000000D+00 0.179664908139D-05 0.668363028225D-05  6 2 21 25 23 2 21 4 0.27613268D+00 0.43251124D-02 0.21638291D+05 0.21638291D+05 0.21638291D+05 0.12300794D+01  1  2 11  1  6  1        2 0.182304697161D+01 0.100000000000D+01
0.659988595946D-10 0.000000000000D+00 0.000000000000D+00 0.179558762054D-05 0.000000000000D+00  6 21 21 25 23 2 -2 4 0.27648580D+00 0.43139955D-02 0.21638291D+05 0.21638291D+05 0.21638291D+05 0.12300794D+01  1  2 12  4  6  1        2 0.255179882802D-06 0.100000000000D+01
-.255771318662D-05 0.000000000000D+00 -.251574888153D-06 0.179664908139D-05 0.000000000000D+00  6 21 21 25 23 2 -2 4 0.27649921D+00 0.43139955D-02 0.21472926D+05 0.21472926D+05 0.21472926D+05 0.12304429D+01  1  2  5  4  6  1        2 -.990563717205D-02 0.100000000000D+01
0.270124188408D-06 0.000000000000D+00 0.000000000000D+00 0.179664908139D-05 0.556702593954D-08  6 21 21 25 23 2 -2 4 0.27613268D+00 0.43251124D-02 0.21638291D+05 0.21638291D+05 0.21638291D+05 0.12300794D+01  1  2 11  4  6  1        2 0.104474308458D-02 0.100000000000D+01
  </mgrwgt>
  </event>
  <event>
  5     66 -.44822969E-03 0.75666456E+02 0.75467711E-02 0.11564263E+00
        2 -1    0    0  502    0 0.00000000E+00 0.00000000E+00 0.10404783E+04 0.10404783E+04 0.32000000E+00 0.0000E+00 0.9000E+01
       21 -1    0    0  501  502 0.00000000E+00 0.00000000E+00 -.38063570E+02 0.38070959E+02 0.75000000E+00 0.0000E+00 0.9000E+01
       25  1    1    2    0    0 -.53557152E+02 -.22562099E+01 0.70846704E+03 0.72140419E+03 0.12500000E+03 0.0000E+00 0.9000E+01
       23  1    1    2    0    0 -.17902004E+02 0.27135487E+02 0.25347716E+03 0.27133510E+03 0.91188000E+02 0.0000E+00 0.9000E+01
        2  1    1    2  501    0 0.71459156E+02 -.24879277E+02 0.40470498E+02 0.85809982E+02 0.32000000E+00 0.0000E+00 0.9000E+01
#aMCatNLO 1  0  0  1  2 0.75827376D+02 0.00000000D+00  -5  6  0 0.00000000D+00 0.00000000D+00 0.00000000D+00 0.00000000D+00 0.00000000D+00
  <mgrwgt>
 -.1082674657D-01    7    2    0
 0.199018413021044D+03 0.000000000000000D+00 0.000000000000000D+00 0.199018413021044D+03
 0.199018413021044D+03 0.000000000000000D+00 0.000000000000000D+00 -.199018413021044D+03
 0.170567730163849D+03 -.535572441883057D+02 -.225617791789461D+01 0.102931442375032D+03
 0.968730861821737D+02 -.179020562827650D+02 0.271355054579362D+02 0.351058497260634D+01
 0.130596009696065D+03 0.714593004710707D+02 -.248793275400416D+02 -.106442027347638D+03
 0.000000000000000D+00 0.000000000000000D+00 0.000000000000000D+00 0.000000000000000D+00
 0.355923199170703D+03 0.000000000000000D+00 0.000000000000000D+00 0.355923199170703D+03
 0.211972702981427D+03 0.000000000000000D+00 0.000000000000000D+00 -.211972702981427D+03
 0.183840689604372D+03 -.869137544253512D+02 -.484939341529163D+01 0.102931442375032D+03
 0.101614728068355D+03 -.365834996082552D+02 0.256831650302016D+02 0.351058497260634D+01
 0.119739727660808D+03 0.478979906373373D+02 -.267110405509534D+02 -.106442027347638D+03
 0.162700756818595D+03 0.755992633962691D+02 0.587726893604347D+01 0.143950496189275D+03
0.146702108267D-05 0.000000000000D+00 0.000000000000D+00 0.438517203886D-06 0.000000000000D+00  6 2 21 25 23 2 21 2 0.16007415D+00 0.58565060D-02 0.23790747D+05 0.23790747D+05 0.23790747D+05 0.12256129D+01  1  2  2  1  6  1        2 0.143342100062D-01 0.100000000000D+01
-.101330356771D-07 0.774168294400D-07 -.296149289841D-08 0.438517203886D-06 0.000000000000D+00  6 2 21 25 23 2 21 4 0.16007415D+00 0.58565060D-02 0.23790747D+05 0.23790747D+05 0.23790747D+05 0.12256129D+01  1  2  3  1  6  1        2 -.148724876838D-03 0.100000000000D+01
0.112510107870D-06 0.000000000000D+00 0.000000000000D+00 0.438517203886D-06 0.000000000000D+00  6 2 21 25 23 2 21 4 0.16007415D+00 0.58565060D-02 0.23790747D+05 0.23790747D+05 0.23790747D+05 0.12256129D+01  1  2 15  1  6  1        2 0.165133652629D-02 0.100000000000D+01
-.616053517626D-05 0.000000000000D+00 0.000000000000D+00 0.438517203886D-06 0.000000000000D+00  6 2 21 25 23 2 21 4 0.16007415D+00 0.58565060D-02 0.23790747D+05 0.23790747D+05 0.23790747D+05 0.12256129D+01  1  2  4  1  6  1        2 -.904195805222D-01 0.100000000000D+01
-.704975926426D-05 0.000000000000D+00 -.141127130434D-05 0.438517203886D-06 0.000000000000D+00  6 2 21 25 23 2 21 4 0.29220818D+00 0.58565060D-02 0.23790747D+05 0.23790747D+05 0.23790747D+05 0.12256129D+01  1  2  5  1  6  1        2 -.359804455575D-01 0.100000000000D+01
0.684379617985D-05 0.000000000000D+00 0.118930845402D-05 0.438517203886D-06 0.000000000000D+00  6 2 21 25 23 2 21 4 0.16007415D+00 0.58565060D-02 0.23790747D+05 0.23790747D+05 0.23790747D+05 0.12256129D+01  1  2  6  1  6  1        2 0.100447958181D+00 0.100000000000D+01
-.387367537610D-06 0.000000000000D+00 -.928777775042D-07 0.438517203886D-06 0.000000000000D+00  6 21 21 25 23 2 -2 4 0.29220818D+00 0.58565060D-02 0.23790747D+05 0.23790747D+05 0.23790747D+05 0.12256129D+01  1  2  5  4  6  1        2 -.711500327149D-03 0.100000000000D+01
  </mgrwgt>
  </event>
  <event>
  5     66 -.44822969E-03 0.10009843E+03 0.75467711E-02 0.11088326E+00
        2 -1    0    0  502    0 0.00000000E+00 0.00000000E+00 0.60891733E+03 0.60891741E+03 0.32000000E+00 0.0000E+00 0.9000E+01
       21 -1    0    0  501  502 0.00000000E+00 0.00000000E+00 -.26769503E+03 0.26769608E+03 0.75000000E+00 0.0000E+00 0.9000E+01
       25  1    1    2    0    0 0.91671401E+02 0.53437429E+02 0.39876472E+03 0.43115833E+03 0.12500000E+03 0.0000E+00 0.9000E+01
       23  1    1    2    0    0 0.32305358E+02 -.76625341E+01 0.16221075E+03 0.18902362E+03 0.91188000E+02 0.0000E+00 0.9000E+01
        2  1    1    2  501    0 -.12397676E+03 -.45774895E+02 -.21975317E+03 0.25643154E+03 0.32000000E+00 0.0000E+00 0.9000E+01
#aMCatNLO 1  0  0  2  1 0.10328779D+03 0.00000000D+00  -5  6  0 0.00000000D+00 0.00000000D+00 0.00000000D+00 0.00000000D+00 0.00000000D+00
  <mgrwgt>
 -.1062588903D+00   30    2    0
 0.403738328812899D+03 0.000000000000000D+00 0.000000000000000D+00 0.403738328812899D+03
 0.403738328812899D+03 0.000000000000000D+00 0.000000000000000D+00 -.403738328812899D+03
 0.299565107606025D+03 0.916714177362356D+02 0.534374357437253D+02 0.250709085049531D+03
 0.136661218138291D+03 0.323053659915048D+02 -.766253122564963D+01 0.962220668163626D+02
 0.371250331881481D+03 -.123976783727740D+03 -.457749045180757D+02 -.346931151865894D+03
 0.000000000000000D+00 0.000000000000000D+00 -.000000000000000D+00 -.000000000000000D+00
 0.408011130237373D+03 0.000000000000000D+00 0.000000000000000D+00 0.408011130237373D+03
 0.311967179105492D+04 0.000000000000000D+00 0.000000000000000D+00 -.311967179105492D+04
 0.301789592688406D+03 0.718558417415603D+02 0.862186229087019D+02 0.250709085049531D+03
 0.134798206748005D+03 0.233603542360939D+02 0.713532802536754D+01 0.962220668163626D+02
 0.377468046072856D+03 -.148648222912801D+03 -.496059431219910D+01 -.346931151865894D+03
 0.271362707578303D+04 0.534320269351465D+02 -.883933566218704D+02 -.271166066081755D+04
0.582254568702D-05 0.000000000000D+00 0.000000000000D+00 0.131930553207D-05 0.000000000000D+00  6 2 21 25 23 2 21 2 0.93679676D-01 0.41183938D-01 0.38644837D+05 0.38644837D+05 0.38644837D+05 0.12035233D+01  1  2  2  2  6  2       21 0.298137686736D-02 0.100000000000D+01
0.146267713139D-06 0.307264177510D-06 -.117540421923D-07 0.131930553207D-05 0.000000000000D+00  6 2 21 25 23 2 21 4 0.93679676D-01 0.41183938D-01 0.38644837D+05 0.38644837D+05 0.38644837D+05 0.12035233D+01  1  2  3  2  6  2       21 0.108482937076D-03 0.100000000000D+01
0.596589921233D-06 0.000000000000D+00 0.000000000000D+00 0.131930553207D-05 0.000000000000D+00  6 2 21 25 23 2 21 4 0.93679676D-01 0.41183938D-01 0.38644837D+05 0.38644837D+05 0.38644837D+05 0.12035233D+01  1  2 15  2  6  2       21 0.442475140254D-03 0.100000000000D+01
0.523467747314D-02 0.000000000000D+00 0.000000000000D+00 0.126914794570D-05 0.000000000000D+00  6 2 21 25 23 2 21 4 0.93679676D-01 0.31604193D+00 0.66155762D+05 0.66155762D+05 0.66155762D+05 0.11804237D+01  1  2 12  2  6  2       21 0.161113552424D-01 0.100000000000D+01
0.525738231705D-02 0.000000000000D+00 0.000000000000D+00 0.126914794570D-05 0.000000000000D+00  6 2 21 25 23 2 21 4 0.93679676D-01 0.32803506D+00 0.66155762D+05 0.66155762D+05 0.66155762D+05 0.11804237D+01  1  2 12  2  6  2       21 0.137550443239D-01 0.100000000000D+01
-.188509525995D-01 0.000000000000D+00 -.922642089664D-04 0.131930553207D-05 0.000000000000D+00  6 2 21 25 23 2 21 4 0.93679676D-01 0.31852263D+00 0.38644837D+05 0.38644837D+05 0.38644837D+05 0.12035233D+01  1  2  5  2  6  2       21 -.654476470345D-01 0.100000000000D+01
0.226881659909D-02 0.000000000000D+00 0.000000000000D+00 0.126914794570D-05 0.000000000000D+00  6 2 -1 25 23 2 -1 4 0.93679676D-01 0.31604193D+00 0.66155762D+05 0.66155762D+05 0.66155762D+05 0.11804237D+01  1  2 12  5  6  2       21 0.779372241396D-03 0.100000000000D+01
0.226881659909D-02 0.000000000000D+00 0.000000000000D+00 0.126914794570D-05 0.000000000000D+00  6 2 -3 25 23 2 -3 4 0.93679676D-01 0.31604193D+00 0.66155762D+05 0.66155762D+05 0.66155762D+05 0.11804237D+01  1  2 12  5  6  2       21 0.481519831685D-03 0.100000000000D+01
0.228302672224D-02 0.000000000000D+00 0.000000000000D+00 0.126914794570D-05 0.000000000000D+00  6 2 -1 25 23 2 -1 4 0.93679676D-01 0.32803506D+00 0.66155762D+05 0.66155762D+05 0.66155762D+05 0.11804237D+01  1  2 12  5  6  2       21 0.659110114577D-03 0.100000000000D+01
0.228302672224D-02 0.000000000000D+00 0.000000000000D+00 0.126914794570D-05 0.000000000000D+00  6 2 -3 25 23 2 -3 4 0.93679676D-01 0.32803506D+00 0.66155762D+05 0.66155762D+05 0.66155762D+05 0.11804237D+01  1  2 12  5  6  2       21 0.418238230038D-03 0.100000000000D+01
-.817399271203D-02 0.000000000000D+00 -.398548474267D-04 0.131930553207D-05 0.000000000000D+00  6 2 -1 25 23 2 -1 4 0.93679676D-01 0.31852263D+00 0.38644837D+05 0.38644837D+05 0.38644837D+05 0.12035233D+01  1  2  5  5  6  2       21 -.304607950805D-02 0.100000000000D+01
-.817399271203D-02 0.000000000000D+00 -.398548474267D-04 0.131930553207D-05 0.000000000000D+00  6 2 -3 25 23 2 -3 4 0.93679676D-01 0.31852263D+00 0.38644837D+05 0.38644837D+05 0.38644837D+05 0.12035233D+01  1  2  5  5  6  2       21 -.187663253365D-02 0.100000000000D+01
0.226881659909D-02 0.000000000000D+00 0.000000000000D+00 0.126914794570D-05 0.000000000000D+00  6 2 1 25 23 2 1 4 0.93679676D-01 0.31604193D+00 0.66155762D+05 0.66155762D+05 0.66155762D+05 0.11804237D+01  1  2 12  6  6  2       21 0.940648251055D-02 0.100000000000D+01
0.226881659909D-02 0.000000000000D+00 0.000000000000D+00 0.126914794570D-05 0.000000000000D+00  6 2 3 25 23 2 3 4 0.93679676D-01 0.31604193D+00 0.66155762D+05 0.66155762D+05 0.66155762D+05 0.11804237D+01  1  2 12  6  6  2       21 0.490941105231D-03 0.100000000000D+01
0.228302672224D-02 0.000000000000D+00 0.000000000000D+00 0.126914794570D-05 0.000000000000D+00  6 2 1 25 23 2 1 4 0.93679676D-01 0.32803506D+00 0.66155762D+05 0.66155762D+05 0.66155762D+05 0.11804237D+01  1  2 12  6  6  2       21 0.842299683709D-02 0.100000000000D+01
0.228302672224D-02 0.000000000000D+00 0.000000000000D+00 0.126914794570D-05 0.000000000000D+00  6 2 3 25 23 2 3 4 0.93679676D-01 0.32803506D+00 0.66155762D+05 0.66155762D+05 0.66155762D+05 0.11804237D+01  1  2 12  6  6  2       21 0.427489016943D-03 0.100000000000D+01
-.817399271203D-02 0.000000000000D+00 -.398548474267D-04 0.131930553207D-05 0.000000000000D+00  6 2 1 25 23 2 1 4 0.93679676D-01 0.31852263D+00 0.38644837D+05 0.38644837D+05 0.38644837D+05 0.12035233D+01  1  2  5  6  6  2       21 -.371052221343D-01 0.100000000000D+01
-.817399271203D-02 0.000000000000D+00 -.398548474267D-04 0.131930553207D-05 0.000000000000D+00  6 2 3 25 23 2 3 4 0.93679676D-01 0.31852263D+00 0.38644837D+05 0.38644837D+05 0.38644837D+05 0.12035233D+01  1  2  5  6  6  2       21 -.191360726073D-02 0.100000000000D+01
0.226881659909D-02 0.000000000000D+00 0.000000000000D+00 0.126914794570D-05 0.000000000000D+00  6 2 -2 25 23 2 -2 4 0.93679676D-01 0.31604193D+00 0.66155762D+05 0.66155762D+05 0.66155762D+05 0.11804237D+01  1  2 12  7  6  2       21 0.656338387838D-03 0.100000000000D+01
0.228302672224D-02 0.000000000000D+00 0.000000000000D+00 0.126914794570D-05 0.000000000000D+00  6 2 -2 25 23 2 -2 4 0.93679676D-01 0.32803506D+00 0.66155762D+05 0.66155762D+05 0.66155762D+05 0.11804237D+01  1  2 12  7  6  2       21 0.560867339878D-03 0.100000000000D+01
-.817399271203D-02 0.000000000000D+00 -.398548474267D-04 0.131930553207D-05 0.000000000000D+00  6 2 -2 25 23 2 -2 4 0.93679676D-01 0.31852263D+00 0.38644837D+05 0.38644837D+05 0.38644837D+05 0.12035233D+01  1  2  5  7  6  2       21 -.256471057780D-02 0.100000000000D+01
0.226881659909D-02 0.000000000000D+00 0.000000000000D+00 0.126914794570D-05 0.000000000000D+00  6 2 2 25 23 2 2 4 0.93679676D-01 0.31604193D+00 0.66155762D+05 0.66155762D+05 0.66155762D+05 0.11804237D+01  1  2 12  8  6  2       21 0.239162984618D-01 0.100000000000D+01
0.228302672224D-02 0.000000000000D+00 0.000000000000D+00 0.126914794570D-05 0.000000000000D+00  6 2 2 25 23 2 2 4 0.93679676D-01 0.32803506D+00 0.66155762D+05 0.66155762D+05 0.66155762D+05 0.11804237D+01  1  2 12  8  6  2       21 0.218915788541D-01 0.100000000000D+01
-.817399271203D-02 0.000000000000D+00 -.398548474267D-04 0.131930553207D-05 0.000000000000D+00  6 2 2 25 23 2 2 4 0.93679676D-01 0.31852263D+00 0.38644837D+05 0.38644837D+05 0.38644837D+05 0.12035233D+01  1  2  5  8  6  2       21 -.944635974438D-01 0.100000000000D+01
0.226881659909D-02 0.000000000000D+00 0.000000000000D+00 0.126914794570D-05 0.000000000000D+00  6 2 -4 25 23 2 -4 4 0.93679676D-01 0.31604193D+00 0.66155762D+05 0.66155762D+05 0.66155762D+05 0.11804237D+01  1  2 12  9  6  2       21 0.333350446824D-03 0.100000000000D+01
0.228302672224D-02 0.000000000000D+00 0.000000000000D+00 0.126914794570D-05 0.000000000000D+00  6 2 -4 25 23 2 -4 4 0.93679676D-01 0.32803506D+00 0.66155762D+05 0.66155762D+05 0.66155762D+05 0.11804237D+01  1  2 12  9  6  2       21 0.283969822457D-03 0.100000000000D+01
-.817399271203D-02 0.000000000000D+00 -.398548474267D-04 0.131930553207D-05 0.000000000000D+00  6 2 -4 25 23 2 -4 4 0.93679676D-01 0.31852263D+00 0.38644837D+05 0.38644837D+05 0.38644837D+05 0.12035233D+01  1  2  5  9  6  2       21 -.129300090087D-02 0.100000000000D+01
0.226881659909D-02 0.000000000000D+00 0.000000000000D+00 0.126914794570D-05 0.000000000000D+00  6 2 4 25 23 2 4 4 0.93679676D-01 0.31604193D+00 0.66155762D+05 0.66155762D+05 0.66155762D+05 0.11804237D+01  1  2 12 10  6  2       21 0.333350446824D-03 0.100000000000D+01
0.228302672224D-02 0.000000000000D+00 0.000000000000D+00 0.126914794570D-05 0.000000000000D+00  6 2 4 25 23 2 4 4 0.93679676D-01 0.32803506D+00 0.66155762D+05 0.66155762D+05 0.66155762D+05 0.11804237D+01  1  2 12 10  6  2       21 0.283969822457D-03 0.100000000000D+01
-.817399271203D-02 0.000000000000D+00 -.398548474267D-04 0.131930553207D-05 0.000000000000D+00  6 2 4 25 23 2 4 4 0.93679676D-01 0.31852263D+00 0.38644837D+05 0.38644837D+05 0.38644837D+05 0.12035233D+01  1  2  5 10  6  2       21 -.129300090087D-02 0.100000000000D+01
  </mgrwgt>
  </event>
  <event>
  5     66 0.44822969E-03 0.20909929E+02 0.75467711E-02 0.12229644E+00
        2 -1    0    0  502    0 0.00000000E+00 0.00000000E+00 0.10769284E+04 0.10769285E+04 0.32000000E+00 0.0000E+00 0.9000E+01
       21 -1    0    0  501  502 0.00000000E+00 0.00000000E+00 -.21251458E+03 0.21251590E+03 0.75000000E+00 0.0000E+00 0.9000E+01
       25  1    1    2    0    0 0.44081735E+02 0.50704736E+02 0.77415421E+03 0.78705395E+03 0.12500000E+03 0.0000E+00 0.9000E+01
       23  1    1    2    0    0 -.37544214E+02 -.30843068E+02 0.28674615E+03 0.30479414E+03 0.91188000E+02 0.0000E+00 0.9000E+01
        2  1    1    2  501    0 -.65375208E+01 -.19861668E+02 -.19648654E+03 0.19759627E+03 0.32000000E+00 0.0000E+00 0.9000E+01
#aMCatNLO 1  0  0  5  2 0.11826351D+00 0.00000000D+00  -5  6  0 0.00000000D+00 0.00000000D+00 0.00000000D+00 0.00000000D+00 0.00000000D+00
  <mgrwgt>
 0.3956261230D+01    7    2    0
 0.478397191801520D+03 0.000000000000000D+00 0.000000000000000D+00 0.478397191801520D+03
 0.478397191801520D+03 -.000000000000000D+00 -.000000000000000D+00 -.478397191801520D+03
 0.361282122197557D+03 0.440817357379337D+02 0.507047379022106D+02 0.332243287288350D+03
 0.151702147057693D+03 -.375442140689191D+02 -.308430672309119D+02 0.111073972071096D+03
 0.443810114347790D+03 -.653752166901448D+01 -.198616706712983D+02 -.443317259359446D+03
 0.000000000000000D+00 -.000000000000000D+00 0.000000000000000D+00 0.000000000000000D+00
 0.478397191801520D+03 0.000000000000000D+00 0.000000000000000D+00 0.478397191801520D+03
 0.478397191801520D+03 -.000000000000000D+00 -.000000000000000D+00 -.478397191801520D+03
 0.361282087017243D+03 0.440817351787095D+02 0.507047362032293D+02 0.332243249366679D+03
 0.151702135602067D+03 -.375442143037371D+02 -.308430679443132D+02 0.111073956147809D+03
 0.357450510979914D+03 -.518949425065154D+01 -.159063134531330D+02 -.357058715257806D+03
 0.863596500038166D+02 -.134802662432082D+01 -.395535480578276D+01 -.862584902566825D+02
0.520855914103D-06 0.000000000000D+00 0.000000000000D+00 0.548481023961D-04 0.000000000000D+00  6 2 21 25 23 2 21 2 0.16568140D+00 0.32694656D-01 0.17708657D+05 0.17708657D+05 0.17708657D+05 0.12396865D+01  1  2  2  3  6  5        2 0.223630912669D-03 0.100000000000D+01
0.255136900148D-06 0.274863217313D-07 -.105145802533D-08 0.548481023961D-04 0.000000000000D+00  6 2 21 25 23 2 21 4 0.16568140D+00 0.32694656D-01 0.17708657D+05 0.17708657D+05 0.17708657D+05 0.12396865D+01  1  2  3  3  6  5        2 0.168349281512D-03 0.100000000000D+01
0.432828656421D-07 0.000000000000D+00 0.000000000000D+00 0.548481023961D-04 0.000000000000D+00  6 2 21 25 23 2 21 4 0.16568140D+00 0.32694656D-01 0.17708657D+05 0.17708657D+05 0.17708657D+05 0.12396865D+01  1  2 15  3  6  5        2 0.285597235382D-04 0.100000000000D+01
-.334342894569D+00 0.000000000000D+00 0.000000000000D+00 0.548481023961D-04 0.000000000000D+00  6 2 21 25 23 2 21 4 0.16568140D+00 0.32694656D-01 0.17708657D+05 0.17708657D+05 0.17708657D+05 0.12396865D+01  1  2  4  3  6  5        2 -.220612487048D+03 0.100000000000D+01
-.296550535887D+00 0.000000000000D+00 0.000000000000D+00 0.548481023961D-04 0.000000000000D+00  6 2 21 25 23 2 21 4 0.16568140D+00 0.32694656D-01 0.17708657D+05 0.17708657D+05 0.17708657D+05 0.12396865D+01  1  2  5  3  6  5        2 -.195675614228D+03 0.100000000000D+01
0.359740762727D+00 0.000000000000D+00 -.000000000000D+00 0.548481023961D-04 0.000000000000D+00  6 2 21 25 23 2 21 4 0.16568140D+00 0.32694656D-01 0.17708657D+05 0.17708657D+05 0.17708657D+05 0.12396865D+01  1  2  6  3  6  5        2 0.237370991419D+03 0.100000000000D+01
0.277147945203D+00 0.000000000000D+00 0.000000000000D+00 0.548481023961D-04 0.199451186506D-01  6 2 21 25 23 2 21 4 0.16568140D+00 0.32694656D-01 0.17708695D+05 0.17708695D+05 0.17708695D+05 0.12396864D+01  1  2 11  3  6  5        2 0.182872950546D+03 0.100000000000D+01
  </mgrwgt>
  </event>
  <event>
  6     66 0.44822969E-03 0.30195808E+03 0.75467711E-02 0.10520110E+00
        2 -1    0    0  502    0 0.00000000E+00 0.00000000E+00 0.90405917E+03 0.90405923E+03 0.32000000E+00 0.0000E+00 0.9000E+01
       21 -1    0    0  501  502 0.00000000E+00 0.00000000E+00 -.17362275E+03 0.17362437E+03 0.75000000E+00 0.0000E+00 0.9000E+01
       25  1    1    2    0    0 -.38449714E+01 -.35885383E+02 0.22761090E+03 0.26217221E+03 0.12500000E+03 0.0000E+00 0.9000E+01
       23  1    1    2    0    0 0.26342086E+03 -.13369263E+03 0.34476885E+03 0.46308215E+03 0.91188000E+02 0.0000E+00 0.9000E+01
        2  1    1    2  503    0 -.25247245E+02 -.74109498E+00 0.10973355E+02 0.27540688E+02 0.32000000E+00 0.0000E+00 0.9000E+01
       21  1    1    2  501  503 -.23432864E+03 0.17031910E+03 0.14708331E+03 0.32488856E+03 0.75000000E+00 0.0000E+00 0.9000E+01
#aMCatNLO 2  0  0  5  2 0.14420262D+02 0.00000000D+00  -5  6  0 0.00000000D+00 0.00000000D+00 0.00000000D+00 0.00000000D+00 0.00000000D+00
  <mgrwgt>
 0.6161371355D-03    2    2    0
 0.396189534185303D+03 0.000000000000000D+00 0.000000000000000D+00 0.396189534185303D+03
 0.396189534185303D+03 -.000000000000000D+00 -.000000000000000D+00 -.396189534185303D+03
 0.146979828895600D+03 -.316132009116732D+01 -.363320051058203D+02 0.681766936896458D+02
 0.313723628101239D+03 0.264877215344689D+03 -.134644047630711D+03 0.426415843264146D+02
 0.331675611373767D+03 -.261715895253521D+03 0.170976052736532D+03 -.110818278016060D+03
 0.000000000000000D+00 0.000000000000000D+00 0.000000000000000D+00 0.000000000000000D+00
 0.396189534185303D+03 0.000000000000000D+00 0.000000000000000D+00 0.396189534185303D+03
 0.396189534185303D+03 -.000000000000000D+00 -.000000000000000D+00 -.396189534185303D+03
 0.146757784145372D+03 -.382813181239846D+01 -.358963845031660D+02 0.678943458152984D+02
 0.312044877878412D+03 0.263456662592712D+03 -.133716016484564D+03 0.420400801279303D+02
 0.268174776249665D+02 -.247656210378320D+02 -.699887288363277D+00 -.102640770924441D+02
 0.306758928721857D+03 -.234862909742481D+03 0.170312288276093D+03 -.996703488507845D+02
-.445351700189D-05 0.000000000000D+00 0.000000000000D+00 0.369013719650D-07 0.000000000000D+00  6 2 21 25 23 2 21 4 0.13908616D+00 0.26711322D-01 0.14220411D+06 0.14220411D+06 0.14220411D+06 0.11497808D+01  1  2 13  3  6  5        2 -.377780054024D-02 0.100000000000D+01
0.517985953351D-05 0.000000000000D+00 0.000000000000D+00 0.369050446435D-07 0.607515101822D-10  6 2 21 25 23 2 21 4 0.13908616D+00 0.26711322D-01 0.14220411D+06 0.14220411D+06 0.14220411D+06 0.11497808D+01  1  2  1  3  6  5        2 0.439393767572D-02 0.100000000000D+01
  </mgrwgt>
  </event>
  <event>
  5     66 0.44822969E-03 0.69754310E+02 0.75467711E-02 0.11450841E+00
        2 -1    0    0  502    0 0.00000000E+00 0.00000000E+00 0.24090660E+04 0.24090661E+04 0.32000000E+00 0.0000E+00 0.9000E+01
       21 -1    0    0  501  502 0.00000000E+00 0.00000000E+00 -.15464502E+02 0.15482678E+02 0.75000000E+00 0.0000E+00 0.9000E+01
       25  1    1    2    0    0 0.56150661E+02 0.51403311E+02 0.85573315E+03 0.86815864E+03 0.12500000E+03 0.0000E+00 0.9000E+01
       23  1    1    2    0    0 -.23484398E+02 -.11303546E+03 0.13058997E+04 0.13141605E+04 0.91188000E+02 0.0000E+00 0.9000E+01
        2  1    1    2  501    0 -.32666263E+02 0.61632153E+02 0.23196873E+03 0.24222964E+03 0.32000000E+00 0.0000E+00 0.9000E+01
#aMCatNLO 1  0  0  1  2 0.44584217D+02 0.00000000D+00  -5  6  0 0.00000000D+00 0.00000000D+00 0.00000000D+00 0.00000000D+00 0.00000000D+00
  <mgrwgt>
 0.5518666617D-01    9    2    0
 0.193072695583583D+03 0.000000000000000D+00 0.000000000000000D+00 0.193072695583583D+03
 0.193072695583583D+03 0.000000000000000D+00 0.000000000000000D+00 -.193072695583583D+03
 0.146599534156745D+03 0.561507532107186D+02 0.514031368074178D+02 -.844001511855792D+01
 0.156528366305260D+03 -.234842999450323D+02 -.113035649432413D+03 0.534537905828746D+02
 0.830174907051606D+02 -.326664532656863D+02 0.616325126249956D+02 -.450137754643166D+02
 0.000000000000000D+00 0.000000000000000D+00 0.000000000000000D+00 0.000000000000000D+00
 0.270677596356570D+03 0.000000000000000D+00 0.000000000000000D+00 0.270677596356570D+03
 0.200866406824897D+03 0.000000000000000D+00 0.000000000000000D+00 -.200866406824897D+03
 0.139822134402877D+03 0.401841106940126D+02 0.473205310780207D+02 -.844001511855792D+01
 0.163428305044999D+03 -.413203589903393D+02 -.117596257385654D+03 0.534537905828746D+02
 0.854602698378738D+02 -.420582852040087D+02 0.592310592924738D+02 -.450137754643166D+02
 0.828332938957181D+02 0.431945335003353D+02 0.110446670151592D+02 0.698111895316724D+02
0.231326464244D-05 0.000000000000D+00 0.000000000000D+00 0.144445082920D-06 0.000000000000D+00  6 2 21 25 23 2 21 2 0.37062694D+00 0.23805539D-02 0.32983842D+05 0.32983842D+05 0.32983842D+05 0.12106000D+01  1  2  2  1  6  1        2 0.184855038673D-01 0.100000000000D+01
-.485513301209D-07 0.122074328984D-06 -.466981483199D-08 0.144445082920D-06 0.000000000000D+00  6 2 21 25 23 2 21 4 0.37062694D+00 0.23805539D-02 0.32983842D+05 0.32983842D+05 0.32983842D+05 0.12106000D+01  1  2  3  1  6  1        2 -.568602100820D-03 0.100000000000D+01
0.168724620515D-06 0.000000000000D+00 0.000000000000D+00 0.144445082920D-06 0.000000000000D+00  6 2 21 25 23 2 21 4 0.37062694D+00 0.23805539D-02 0.32983842D+05 0.32983842D+05 0.32983842D+05 0.12106000D+01  1  2 15  1  6  1        2 0.197599475536D-02 0.100000000000D+01
0.111485676345D-04 0.000000000000D+00 0.000000000000D+00 0.141823652928D-06 0.000000000000D+00  6 2 21 25 23 2 21 4 0.52478747D+00 0.23805539D-02 0.42278591D+05 0.42278591D+05 0.42278591D+05 0.11995646D+01  1  2 12  1  6  1        2 0.326878782943D-01 0.100000000000D+01
-.101501784101D-04 0.000000000000D+00 0.000000000000D+00 0.144445082920D-06 0.000000000000D+00  6 2 21 25 23 2 21 4 0.37062694D+00 0.23805539D-02 0.32983842D+05 0.32983842D+05 0.32983842D+05 0.12106000D+01  1  2  4  1  6  1        2 -.118872392442D+00 0.100000000000D+01
-.140074063486D-04 0.000000000000D+00 -.230143543334D-05 0.144445082920D-06 0.000000000000D+00  6 2 21 25 23 2 21 4 0.52411151D+00 0.23805539D-02 0.32983842D+05 0.32983842D+05 0.32983842D+05 0.12106000D+01  1  2  5  1  6  1        2 -.434223247820D-01 0.100000000000D+01
0.140825233579D-04 0.000000000000D+00 0.216986124052D-05 0.144445082920D-06 0.000000000000D+00  6 2 21 25 23 2 21 4 0.37062694D+00 0.23805539D-02 0.32983842D+05 0.32983842D+05 0.32983842D+05 0.12106000D+01  1  2  6  1  6  1        2 0.164925499389D+00 0.100000000000D+01
0.479415188135D-06 0.000000000000D+00 0.000000000000D+00 0.141823652928D-06 0.000000000000D+00  6 21 21 25 23 2 -2 4 0.52478747D+00 0.23805539D-02 0.42278591D+05 0.42278591D+05 0.42278591D+05 0.11995646D+01  1  2 12  4  6  1        2 0.113471826549D-03 0.100000000000D+01
-.536601889443D-06 0.000000000000D+00 -.987025939412D-07 0.144445082920D-06 0.000000000000D+00  6 21 21 25 23 2 -2 4 0.52411151D+00 0.23805539D-02 0.32983842D+05 0.32983842D+05 0.32983842D+05 0.12106000D+01  1  2  5  4  6  1        2 -.138362639887D-03 0.100000000000D+01
  </mgrwgt>
  </event>
  <event>
  5     66 0.44822969E-03 0.92303062E+02 0.75467711E-02 0.11790084E+00
        4 -1    0    0  502    0 0.00000000E+00 0.00000000E+00 0.11156941E+04 0.11156952E+04 0.15500000E+01 0.0000E+00 0.9000E+01
       21 -1    0    0  501  502 0.00000000E+00 0.00000000E+00 -.61879332E+02 0.61883877E+02 0.75000000E+00 0.0000E+00 0.9000E+01
       25  1    1    2    0    0 -.85427919E+02 0.11519629E+02 0.55182531E+03 0.57233452E+03 0.12500000E+03 0.0000E+00 0.9000E+01
       23  1    1    2    0    0 -.60847112E+01 0.52293195E+00 0.50468240E+03 0.51289070E+03 0.91188000E+02 0.0000E+00 0.9000E+01
        4  1    1    2  501    0 0.91512630E+02 -.12042561E+02 -.26928937E+01 0.92353879E+02 0.15500000E+01 0.0000E+00 0.9000E+01
#aMCatNLO 1  0  0  2  5 0.24800074D+01 0.00000000D+00  -5  6  0 0.00000000D+00 0.00000000D+00 0.00000000D+00 0.00000000D+00 0.00000000D+00
  <mgrwgt>
 0.1302720013D-02   13    2    0
 0.262757909137015D+03 0.000000000000000D+00 0.000000000000000D+00 0.262757909137015D+03
 0.262757909137015D+03 0.000000000000000D+00 0.000000000000000D+00 -.262757909137015D+03
 0.175918868709074D+03 -.854287349168902D+02 0.115197363123384D+02 0.888351016978894D+02
 0.137252043526148D+03 -.608534795692511D+01 0.523015739020781D+00 0.102399058115216D+03
 0.212344906038809D+03 0.915140828738154D+02 -.120427520513592D+02 -.191234159813106D+03
 0.000000000000000D+00 0.000000000000000D+00 -.000000000000000D+00 0.000000000000000D+00
 0.264644768542590D+03 0.000000000000000D+00 0.000000000000000D+00 0.264644768542590D+03
 0.263577004545497D+03 0.000000000000000D+00 0.000000000000000D+00 -.263577004545497D+03
 0.176123359645445D+03 -.857423134325196D+02 0.122889465115661D+02 0.888351016978894D+02
 0.137266698454830D+03 -.632987310956145D+01 0.112283757629840D+01 0.102399058115216D+03
 0.212131611950241D+03 0.911359841523845D+02 -.111152733551358D+02 -.191234159813106D+03
 0.270010303757065D+01 0.936202389696498D+00 -.229651073272867D+01 0.106776399709245D+01
0.116494469527D-04 0.000000000000D+00 0.000000000000D+00 0.863923032263D-06 0.000000000000D+00  6 4 21 25 23 4 21 2 0.17164569D+00 0.95203297D-02 0.28146212D+05 0.28146212D+05 0.28146212D+05 0.12178165D+01  1  2  2  2  6  2       21 0.142978403562D-02 0.100000000000D+01
0.170838222603D-06 0.614758205222D-06 -.235168770431D-07 0.863923032263D-06 0.000000000000D+00  6 4 21 25 23 4 21 4 0.17164569D+00 0.95203297D-02 0.28146212D+05 0.28146212D+05 0.28146212D+05 0.12178165D+01  1  2  3  2  6  2       21 0.310966724002D-04 0.100000000000D+01
0.102498451845D-05 0.000000000000D+00 0.000000000000D+00 0.863923032263D-06 0.000000000000D+00  6 4 21 25 23 4 21 4 0.17164569D+00 0.95203297D-02 0.28146212D+05 0.28146212D+05 0.28146212D+05 0.12178165D+01  1  2 15  2  6  2       21 0.186571876596D-03 0.100000000000D+01
-.549191710843D-04 0.000000000000D+00 0.000000000000D+00 0.863923032263D-06 0.000000000000D+00  6 4 21 25 23 4 21 4 0.17164569D+00 0.95203297D-02 0.28146212D+05 0.28146212D+05 0.28146212D+05 0.12178165D+01  1  2  4  2  6  2       21 -.999661226672D-02 0.100000000000D+01
0.542301400530D-04 0.000000000000D+00 0.000000000000D+00 0.863923032263D-06 0.112066164531D-05  6 4 21 25 23 4 21 4 0.17287827D+00 0.95500075D-02 0.28524473D+05 0.28524473D+05 0.28524473D+05 0.12172040D+01  1  2 11  2  6  2       21 0.961138658124D-02 0.100000000000D+01
0.508243823951D-06 0.000000000000D+00 0.000000000000D+00 0.863054179102D-06 0.164698427640D-08  6 4 -1 25 23 4 -1 4 0.17287827D+00 0.95500075D-02 0.28524473D+05 0.28524473D+05 0.28524473D+05 0.12172040D+01  1  2 11  5  6  2       21 0.595364362983D-05 0.100000000000D+01
0.508243823951D-06 0.000000000000D+00 0.000000000000D+00 0.863054179102D-06 0.164698427640D-08  6 4 -3 25 23 4 -3 4 0.17287827D+00 0.95500075D-02 0.28524473D+05 0.28524473D+05 0.28524473D+05 0.12172040D+01  1  2 11  5  6  2       21 0.397091259012D-05 0.100000000000D+01
0.511262989066D-06 0.000000000000D+00 0.000000000000D+00 0.863054179102D-06 0.165676800074D-08  6 4 1 25 23 4 1 4 0.17287827D+00 0.95500075D-02 0.28524473D+05 0.28524473D+05 0.28524473D+05 0.12172040D+01  1  2 11  6  6  2       21 0.743379867929D-05 0.100000000000D+01
0.511262989066D-06 0.000000000000D+00 0.000000000000D+00 0.863054179102D-06 0.165676800074D-08  6 4 3 25 23 4 3 4 0.17287827D+00 0.95500075D-02 0.28524473D+05 0.28524473D+05 0.28524473D+05 0.12172040D+01  1  2 11  6  6  2       21 0.399401607834D-05 0.100000000000D+01
0.649038199855D-06 0.000000000000D+00 0.000000000000D+00 0.863054179102D-06 0.592859074625D-08  6 4 -4 25 23 4 -4 4 0.17287827D+00 0.95500075D-02 0.28524473D+05 0.28524473D+05 0.28524473D+05 0.12172040D+01  1  2 11  7  6  2       21 0.445186258122D-05 0.100000000000D+01
0.128425433288D-06 0.000000000000D+00 0.000000000000D+00 0.863054179102D-06 0.948674986912D-09  6 4 4 25 23 4 4 4 0.17287827D+00 0.95500075D-02 0.28524473D+05 0.28524473D+05 0.28524473D+05 0.12172040D+01  1  2 11  8  6  2       21 0.880891727267D-06 0.100000000000D+01
0.499953266854D-06 0.000000000000D+00 0.000000000000D+00 0.863054179102D-06 0.162011839719D-08  6 4 -2 25 23 4 -2 4 0.17287827D+00 0.95500075D-02 0.28524473D+05 0.28524473D+05 0.28524473D+05 0.12172040D+01  1  2 11  9  6  2       21 0.561124655568D-05 0.100000000000D+01
0.498205526408D-06 0.000000000000D+00 0.000000000000D+00 0.863054179102D-06 0.161445477493D-08  6 4 2 25 23 4 2 4 0.17287827D+00 0.95500075D-02 0.28524473D+05 0.28524473D+05 0.28524473D+05 0.12172040D+01  1  2 11 10  6  2       21 0.819674180383D-05 0.100000000000D+01
  </mgrwgt>
  </event>
  <event>
  5     66 0.44822969E-03 0.10919019E+03 0.75467711E-02 0.11702754E+00
        2 -1    0    0  502    0 0.00000000E+00 0.00000000E+00 0.32717973E+03 0.32717988E+03 0.32000000E+00 0.0000E+00 0.9000E+01
       21 -1    0    0  501  502 0.00000000E+00 0.00000000E+00 -.31838858E+03 0.31838946E+03 0.75000000E+00 0.0000E+00 0.9000E+01
       25  1    1    2    0    0 0.18919635E+02 -.45351667E+02 0.92330603E+02 0.16298671E+03 0.12500000E+03 0.0000E+00 0.9000E+01
       23  1    1    2    0    0 -.96261335E+01 -.63442262E+02 0.17183639E+03 0.20484281E+03 0.91188000E+02 0.0000E+00 0.9000E+01
        2  1    1    2  501    0 -.92935010E+01 0.10879393E+03 -.25537584E+03 0.27773983E+03 0.32000000E+00 0.0000E+00 0.9000E+01
#aMCatNLO 1  0  0  5  2 0.56124267D+01 0.00000000D+00  -5  6  0 0.00000000D+00 0.00000000D+00 0.00000000D+00 0.00000000D+00 0.00000000D+00
  <mgrwgt>
 0.1138511933D-01    5    2    0
 0.322754742853982D+03 0.000000000000000D+00 0.000000000000000D+00 0.322754742853982D+03
 0.322754742853982D+03 -.000000000000000D+00 -.000000000000000D+00 -.322754742853982D+03
 0.161744405654172D+03 0.189196360420327D+02 -.453516847160619D+02 0.901195030272209D+02
 0.202521631980989D+03 -.962613162404098D+01 -.634422838584869D+02 0.169062634207027D+03
 0.281243448072803D+03 -.929350441799167D+01 0.108793968574549D+03 -.259182137234248D+03
 0.000000000000000D+00 0.000000000000000D+00 0.000000000000000D+00 -.000000000000000D+00
 0.322754742853982D+03 0.000000000000000D+00 0.000000000000000D+00 0.322754742853982D+03
 0.322754742853982D+03 -.000000000000000D+00 -.000000000000000D+00 -.322754742853982D+03
 0.161441624035553D+03 0.189036246968637D+02 -.451642486634387D+02 0.896729702152447D+02
 0.201982732881201D+03 -.964617165799408D+01 -.632076861517376D+02 0.168503747204170D+03
 0.933760010480016D+01 -.342106932226047D+01 0.711274785102917D+01 -.498957697777222D+01
 0.272747528686409D+03 -.583638371660918D+01 0.101259186964147D+03 -.253187140441642D+03
0.176405585836D-04 0.000000000000D+00 0.000000000000D+00 0.102175531224D-05 0.000000000000D+00  6 2 21 25 23 2 21 2 0.50335422D-01 0.48982939D-01 0.31507115D+05 0.31507115D+05 0.31507115D+05 0.12126705D+01  1  2  2  3  6  5        2 0.128100006965D-01 0.100000000000D+01
0.336915037613D-06 0.930917851983D-06 -.356112053102D-07 0.102175531224D-05 0.000000000000D+00  6 2 21 25 23 2 21 4 0.50335422D-01 0.48982939D-01 0.31507115D+05 0.31507115D+05 0.31507115D+05 0.12126705D+01  1  2  3  3  6  5        2 0.359784848223D-03 0.100000000000D+01
0.137132116029D-05 0.000000000000D+00 0.000000000000D+00 0.102175531224D-05 0.000000000000D+00  6 2 21 25 23 2 21 4 0.50335422D-01 0.48982939D-01 0.31507115D+05 0.31507115D+05 0.31507115D+05 0.12126705D+01  1  2 15  3  6  5        2 0.146440651334D-02 0.100000000000D+01
-.828980738548D-05 0.000000000000D+00 0.000000000000D+00 0.102175531224D-05 0.000000000000D+00  6 2 21 25 23 2 21 4 0.50335422D-01 0.48982939D-01 0.31507115D+05 0.31507115D+05 0.31507115D+05 0.12126705D+01  1  2  5  3  6  5        2 -.885251995017D-02 0.100000000000D+01
0.524690851821D-05 0.000000000000D+00 0.000000000000D+00 0.102175531224D-05 0.789177132652D-08  6 2 21 25 23 2 21 4 0.50335422D-01 0.48982939D-01 0.31495182D+05 0.31495182D+05 0.31495182D+05 0.12126877D+01  1  2 11  3  6  5        2 0.560344722689D-02 0.100000000000D+01
  </mgrwgt>
  </event>
  <event>
  5     66 -.44822969E-03 0.57372926E+02 0.75467711E-02 0.11982338E+00
        2 -1    0    0  502    0 0.00000000E+00 0.00000000E+00 0.24550901E+04 0.24550902E+04 0.32000000E+00 0.0000E+00 0.9000E+01
       21 -1    0    0  501  502 0.00000000E+00 0.00000000E+00 -.98564912E+01 0.98849845E+01 0.75000000E+00 0.0000E+00 0.9000E+01
       25  1    1    2    0    0 -.18876091E+02 0.75629266E+01 0.83678571E+03 0.84631486E+03 0.12500000E+03 0.0000E+00 0.9000E+01
       23  1    1    2    0    0 -.31672962E+02 -.43755068E+02 0.12799828E+04 0.12843632E+04 0.91188000E+02 0.0000E+00 0.9000E+01
        2  1    1    2  501    0 0.50549053E+02 0.36192141E+02 0.32846515E+03 0.33429707E+03 0.32000000E+00 0.0000E+00 0.9000E+01
#aMCatNLO 1  0  0  2  5 0.87722092D+01 0.00000000D+00  -5  6  0 0.00000000D+00 0.00000000D+00 0.00000000D+00 0.00000000D+00 0.00000000D+00
  <mgrwgt>
 -.5401120453D-02   39    2    0
 0.155671826288321D+03 0.000000000000000D+00 0.000000000000000D+00 0.155671826288321D+03
 0.155671826288321D+03 0.000000000000000D+00 0.000000000000000D+00 -.155671826288321D+03
 0.128502708088431D+03 -.188763291594081D+02 0.756275620968615D+01 -.217815266232455D+02
 0.115841360452453D+03 -.316731767998524D+02 -.437552214748710D+02 0.467574583629762D+02
 0.669995840357581D+02 0.505495059592605D+02 0.361924652651848D+02 -.249759317397307D+02
 0.000000000000000D+00 -.000000000000000D+00 -.000000000000000D+00 -.000000000000000D+00
 0.155830498213198D+03 0.000000000000000D+00 0.000000000000000D+00 0.155830498213198D+03
 0.354279134842094D+03 0.000000000000000D+00 0.000000000000000D+00 -.354279134842094D+03
 0.128573829336117D+03 -.176485849288559D+02 0.109691448218498D+02 -.217815266232455D+02
 0.114424956702083D+03 -.305734726214422D+02 -.407040812643401D+02 0.467574583629762D+02
 0.684684219543797D+02 0.511964730626961D+02 0.379874819459769D+02 -.249759317397307D+02
 0.198642425062712D+03 -.297441551239800D+01 -.825254550348660D+01 -.198448636628896D+03
0.138952194948D-06 0.000000000000D+00 0.000000000000D+00 0.226177688766D-06 0.000000000000D+00  6 2 21 25 23 2 21 2 0.37770837D+00 0.15185767D-02 0.21726644D+05 0.21726644D+05 0.21726644D+05 0.12298864D+01  1  2  2  2  6  2       21 0.226127325886D-02 0.100000000000D+01
-.566897881286D-08 0.733270878219D-08 -.280504447698D-09 0.226177688766D-06 0.000000000000D+00  6 2 21 25 23 2 21 4 0.37770837D+00 0.15185767D-02 0.21726644D+05 0.21726644D+05 0.21726644D+05 0.12298864D+01  1  2  3  2  6  2       21 -.139547632960D-03 0.100000000000D+01
0.133616861720D-07 0.000000000000D+00 0.000000000000D+00 0.226177688766D-06 0.000000000000D+00  6 2 21 25 23 2 21 4 0.37770837D+00 0.15185767D-02 0.21726644D+05 0.21726644D+05 0.21726644D+05 0.12298864D+01  1  2 15  2  6  2       21 0.328911385843D-03 0.100000000000D+01
0.470593063735D-04 0.000000000000D+00 0.000000000000D+00 0.225149606119D-06 0.000000000000D+00  6 2 21 25 23 2 21 4 0.37770837D+00 0.34556927D-02 0.23054445D+05 0.23054445D+05 0.23054445D+05 0.12270880D+01  1  2 12  2  6  2       21 0.300576475284D+00 0.100000000000D+01
0.469909938099D-04 0.000000000000D+00 0.000000000000D+00 0.225149606119D-06 0.000000000000D+00  6 2 21 25 23 2 21 4 0.37770837D+00 0.34625677D-02 0.23054445D+05 0.23054445D+05 0.23054445D+05 0.12270880D+01  1  2 12  2  6  2       21 0.299153588895D+00 0.100000000000D+01
-.941376141057D-04 0.000000000000D+00 -.222545521127D-06 0.226177688766D-06 0.000000000000D+00  6 2 21 25 23 2 21 4 0.37770837D+00 0.34574911D-02 0.21726644D+05 0.21726644D+05 0.21726644D+05 0.12298864D+01  1  2  5  2  6  2       21 -.607290189523D+00 0.100000000000D+01
0.486727588563D-07 0.000000000000D+00 0.000000000000D+00 0.226177688766D-06 0.155567584030D-06  6 2 21 25 23 2 21 4 0.37809335D+00 0.34559884D-02 0.23054445D+05 0.23054445D+05 0.23054445D+05 0.12270880D+01  1  2 11  2  6  2       21 0.309883866605D-03 0.100000000000D+01
0.130831204987D-04 0.000000000000D+00 0.000000000000D+00 0.225149606119D-06 0.000000000000D+00  6 2 -1 25 23 2 -1 4 0.37770837D+00 0.34556927D-02 0.23054445D+05 0.23054445D+05 0.23054445D+05 0.12270880D+01  1  2 12  5  6  2       21 0.445733136010D-02 0.100000000000D+01
0.130831204987D-04 0.000000000000D+00 0.000000000000D+00 0.225149606119D-06 0.000000000000D+00  6 2 -3 25 23 2 -3 4 0.37770837D+00 0.34556927D-02 0.23054445D+05 0.23054445D+05 0.23054445D+05 0.12270880D+01  1  2 12  5  6  2       21 0.329899101169D-02 0.100000000000D+01
0.130918251623D-04 0.000000000000D+00 0.000000000000D+00 0.225149606119D-06 0.000000000000D+00  6 2 -1 25 23 2 -1 4 0.37770837D+00 0.34625677D-02 0.23054445D+05 0.23054445D+05 0.23054445D+05 0.12270880D+01  1  2 12  5  6  2       21 0.444731925072D-02 0.100000000000D+01
0.130918251623D-04 0.000000000000D+00 0.000000000000D+00 0.225149606119D-06 0.000000000000D+00  6 2 -3 25 23 2 -3 4 0.37770837D+00 0.34625677D-02 0.23054445D+05 0.23054445D+05 0.23054445D+05 0.12270880D+01  1  2 12  5  6  2       21 0.329097716986D-02 0.100000000000D+01
-.261755807956D-04 0.000000000000D+00 -.641751859351D-07 0.226177688766D-06 0.000000000000D+00  6 2 -1 25 23 2 -1 4 0.37770837D+00 0.34574911D-02 0.21726644D+05 0.21726644D+05 0.21726644D+05 0.12298864D+01  1  2  5  5  6  2       21 -.900021813965D-02 0.100000000000D+01
-.261755807956D-04 0.000000000000D+00 -.641751859351D-07 0.226177688766D-06 0.000000000000D+00  6 2 -3 25 23 2 -3 4 0.37770837D+00 0.34574911D-02 0.21726644D+05 0.21726644D+05 0.21726644D+05 0.12298864D+01  1  2  5  5  6  2       21 -.665257457874D-02 0.100000000000D+01
0.140187687208D-07 0.000000000000D+00 0.000000000000D+00 0.226177688766D-06 0.447769449651D-07  6 2 -1 25 23 2 -1 4 0.37809335D+00 0.34559884D-02 0.23054445D+05 0.23054445D+05 0.23054445D+05 0.12270880D+01  1  2 11  5  6  2       21 0.476084525297D-05 0.100000000000D+01
0.140187687208D-07 0.000000000000D+00 0.000000000000D+00 0.226177688766D-06 0.447769449651D-07  6 2 -3 25 23 2 -3 4 0.37809335D+00 0.34559884D-02 0.23054445D+05 0.23054445D+05 0.23054445D+05 0.12270880D+01  1  2 11  5  6  2       21 0.352360200254D-05 0.100000000000D+01
0.130831204987D-04 0.000000000000D+00 0.000000000000D+00 0.225149606119D-06 0.000000000000D+00  6 2 1 25 23 2 1 4 0.37770837D+00 0.34556927D-02 0.23054445D+05 0.23054445D+05 0.23054445D+05 0.12270880D+01  1  2 12  6  6  2       21 0.484815133780D-02 0.100000000000D+01
0.130831204987D-04 0.000000000000D+00 0.000000000000D+00 0.225149606119D-06 0.000000000000D+00  6 2 3 25 23 2 3 4 0.37770837D+00 0.34556927D-02 0.23054445D+05 0.23054445D+05 0.23054445D+05 0.12270880D+01  1  2 12  6  6  2       21 0.329872817263D-02 0.100000000000D+01
0.130918251623D-04 0.000000000000D+00 0.000000000000D+00 0.225149606119D-06 0.000000000000D+00  6 2 1 25 23 2 1 4 0.37770837D+00 0.34625677D-02 0.23054445D+05 0.23054445D+05 0.23054445D+05 0.12270880D+01  1  2 12  6  6  2       21 0.483803697293D-02 0.100000000000D+01
0.130918251623D-04 0.000000000000D+00 0.000000000000D+00 0.225149606119D-06 0.000000000000D+00  6 2 3 25 23 2 3 4 0.37770837D+00 0.34625677D-02 0.23054445D+05 0.23054445D+05 0.23054445D+05 0.12270880D+01  1  2 12  6  6  2       21 0.329071466251D-02 0.100000000000D+01
-.261755807956D-04 0.000000000000D+00 -.641751859351D-07 0.226177688766D-06 0.000000000000D+00  6 2 1 25 23 2 1 4 0.37770837D+00 0.34574911D-02 0.21726644D+05 0.21726644D+05 0.21726644D+05 0.12298864D+01  1  2  5  6  6  2       21 -.979058048157D-02 0.100000000000D+01
-.261755807956D-04 0.000000000000D+00 -.641751859351D-07 0.226177688766D-06 0.000000000000D+00  6 2 3 25 23 2 3 4 0.37770837D+00 0.34574911D-02 0.21726644D+05 0.21726644D+05 0.21726644D+05 0.12298864D+01  1  2  5  6  6  2       21 -.665204181756D-02 0.100000000000D+01
0.141370929043D-07 0.000000000000D+00 0.000000000000D+00 0.226177688766D-06 0.451548808281D-07  6 2 1 25 23 2 1 4 0.37809335D+00 0.34559884D-02 0.23054445D+05 0.23054445D+05 0.23054445D+05 0.12270880D+01  1  2 11  6  6  2       21 0.522202022017D-05 0.100000000000D+01
0.141370929043D-07 0.000000000000D+00 0.000000000000D+00 0.226177688766D-06 0.451548808281D-07  6 2 3 25 23 2 3 4 0.37809335D+00 0.34559884D-02 0.23054445D+05 0.23054445D+05 0.23054445D+05 0.12270880D+01  1  2 11  6  6  2       21 0.355305953696D-05 0.100000000000D+01
0.130831204987D-04 0.000000000000D+00 0.000000000000D+00 0.225149606119D-06 0.000000000000D+00  6 2 -2 25 23 2 -2 4 0.37770837D+00 0.34556927D-02 0.23054445D+05 0.23054445D+05 0.23054445D+05 0.12270880D+01  1  2 12  7  6  2       21 0.438761510295D-02 0.100000000000D+01
0.130918251623D-04 0.000000000000D+00 0.000000000000D+00 0.225149606119D-06 0.000000000000D+00  6 2 -2 25 23 2 -2 4 0.37770837D+00 0.34625677D-02 0.23054445D+05 0.23054445D+05 0.23054445D+05 0.12270880D+01  1  2 12  7  6  2       21 0.437762516283D-02 0.100000000000D+01
-.261755807956D-04 0.000000000000D+00 -.641751859351D-07 0.226177688766D-06 0.000000000000D+00  6 2 -2 25 23 2 -2 4 0.37770837D+00 0.34574911D-02 0.21726644D+05 0.21726644D+05 0.21726644D+05 0.12298864D+01  1  2  5  7  6  2       21 -.885920776090D-02 0.100000000000D+01
0.144672236841D-07 0.000000000000D+00 0.000000000000D+00 0.226177688766D-06 0.462395636022D-07  6 2 -2 25 23 2 -2 4 0.37809335D+00 0.34559884D-02 0.23054445D+05 0.23054445D+05 0.23054445D+05 0.12270880D+01  1  2 11  7  6  2       21 0.483629093743D-05 0.100000000000D+01
0.130831204987D-04 0.000000000000D+00 0.000000000000D+00 0.225149606119D-06 0.000000000000D+00  6 2 2 25 23 2 2 4 0.37770837D+00 0.34556927D-02 0.23054445D+05 0.23054445D+05 0.23054445D+05 0.12270880D+01  1  2 12  8  6  2       21 0.511287771913D-02 0.100000000000D+01
0.130918251623D-04 0.000000000000D+00 0.000000000000D+00 0.225149606119D-06 0.000000000000D+00  6 2 2 25 23 2 2 4 0.37770837D+00 0.34625677D-02 0.23054445D+05 0.23054445D+05 0.23054445D+05 0.12270880D+01  1  2 12  8  6  2       21 0.510268020545D-02 0.100000000000D+01
-.261755807956D-04 0.000000000000D+00 -.641751859351D-07 0.226177688766D-06 0.000000000000D+00  6 2 2 25 23 2 2 4 0.37770837D+00 0.34574911D-02 0.21726644D+05 0.21726644D+05 0.21726644D+05 0.12298864D+01  1  2  5  8  6  2       21 -.103258406587D-01 0.100000000000D+01
0.142726725948D-07 0.000000000000D+00 0.000000000000D+00 0.226177688766D-06 0.228015853176D-07  6 2 2 25 23 2 2 4 0.37809335D+00 0.34559884D-02 0.23054445D+05 0.23054445D+05 0.23054445D+05 0.12270880D+01  1  2 11  8  6  2       21 0.555999878378D-05 0.100000000000D+01
0.130831204987D-04 0.000000000000D+00 0.000000000000D+00 0.225149606119D-06 0.000000000000D+00  6 2 -4 25 23 2 -4 4 0.37770837D+00 0.34556927D-02 0.23054445D+05 0.23054445D+05 0.23054445D+05 0.12270880D+01  1  2 12  9  6  2       21 0.297051442627D-02 0.100000000000D+01
0.130918251623D-04 0.000000000000D+00 0.000000000000D+00 0.225149606119D-06 0.000000000000D+00  6 2 -4 25 23 2 -4 4 0.37770837D+00 0.34625677D-02 0.23054445D+05 0.23054445D+05 0.23054445D+05 0.12270880D+01  1  2 12  9  6  2       21 0.296316776628D-02 0.100000000000D+01
-.261755807956D-04 0.000000000000D+00 -.641751859351D-07 0.226177688766D-06 0.000000000000D+00  6 2 -4 25 23 2 -4 4 0.37770837D+00 0.34574911D-02 0.21726644D+05 0.21726644D+05 0.21726644D+05 0.12298864D+01  1  2  5  9  6  2       21 -.598670351958D-02 0.100000000000D+01
0.143637414532D-07 0.000000000000D+00 0.000000000000D+00 0.226177688766D-06 0.458788124232D-07  6 2 -4 25 23 2 -4 4 0.37809335D+00 0.34559884D-02 0.23054445D+05 0.23054445D+05 0.23054445D+05 0.12270880D+01  1  2 11  9  6  2       21 0.325083004763D-05 0.100000000000D+01
0.130831204987D-04 0.000000000000D+00 0.000000000000D+00 0.225149606119D-06 0.000000000000D+00  6 2 4 25 23 2 4 4 0.37770837D+00 0.34556927D-02 0.23054445D+05 0.23054445D+05 0.23054445D+05 0.12270880D+01  1  2 12 10  6  2       21 0.297051442627D-02 0.100000000000D+01
0.130918251623D-04 0.000000000000D+00 0.000000000000D+00 0.225149606119D-06 0.000000000000D+00  6 2 4 25 23 2 4 4 0.37770837D+00 0.34625677D-02 0.23054445D+05 0.23054445D+05 0.23054445D+05 0.12270880D+01  1  2 12 10  6  2       21 0.296316776628D-02 0.100000000000D+01
-.261755807956D-04 0.000000000000D+00 -.641751859351D-07 0.226177688766D-06 0.000000000000D+00  6 2 4 25 23 2 4 4 0.37770837D+00 0.34574911D-02 0.21726644D+05 0.21726644D+05 0.21726644D+05 0.12298864D+01  1  2  5 10  6  2       21 -.598670351958D-02 0.100000000000D+01
0.142952457090D-07 0.000000000000D+00 0.000000000000D+00 0.226177688766D-06 0.456600321416D-07  6 2 4 25 23 2 4 4 0.37809335D+00 0.34559884D-02 0.23054445D+05 0.23054445D+05 0.23054445D+05 0.12270880D+01  1  2 11 10  6  2       21 0.323532795689D-05 0.100000000000D+01
  </mgrwgt>
  </event>
  <event>
  6     66 0.44822969E-03 0.36371815E+02 0.75467711E-02 0.11222375E+00
        4 -1    0    0  503    0 0.00000000E+00 0.00000000E+00 0.31591307E+03 0.31591687E+03 0.15500000E+01 0.0000E+00 0.9000E+01
       21 -1    0    0  501  502 0.00000000E+00 0.00000000E+00 -.21360774E+03 0.21360906E+03 0.75000000E+00 0.0000E+00 0.9000E+01
       25  1    1    2    0    0 -.16459117E+03 -.46503102E+02 0.63587970E+02 0.22118142E+03 0.12500000E+03 0.0000E+00 0.9000E+01
       23  1    1    2    0    0 0.16970278E+03 0.20295954E+02 0.99031810E+02 0.21756266E+03 0.91188000E+02 0.0000E+00 0.9000E+01
        4  1    1    2  501    0 -.24490522E+01 0.46566724E+02 -.47418350E+02 0.66523380E+02 0.15500000E+01 0.0000E+00 0.9000E+01
       21  1    1    2  503  502 -.26625559E+01 -.20359577E+02 -.12896105E+02 0.24258474E+02 0.75000000E+00 0.0000E+00 0.9000E+01
#aMCatNLO 2  0  0  1  2 0.20532939D+02 0.00000000D+00  -5  6  0 0.00000000D+00 0.00000000D+00 0.00000000D+00 0.00000000D+00 0.00000000D+00
  <mgrwgt>
 0.3681061580D-02    1    2    0
 0.245765250802116D+03 0.000000000000000D+00 0.000000000000000D+00 0.245765250802116D+03
 0.245765250802116D+03 0.000000000000000D+00 0.000000000000000D+00 -.245765250802116D+03
 0.215278448804732D+03 -.165748409610669D+03 -.553577928690682D+02 0.135199852060128D+02
 0.198673954291667D+03 0.168623003840325D+03 0.120340523498386D+02 0.507696063584740D+02
 0.775780985078343D+02 -.287459422965685D+01 0.433237405192296D+02 -.642895915644867D+02
 0.000000000000000D+00 -.000000000000000D+00 -.000000000000000D+00 -.000000000000000D+00
 0.250479130479841D+03 0.000000000000000D+00 0.000000000000000D+00 0.250479130479841D+03
 0.269404294114583D+03 0.000000000000000D+00 0.000000000000000D+00 -.269404294114583D+03
 0.212275399679838D+03 -.164590912969049D+03 -.465068454883688D+02 0.135199852060128D+02
 0.200259092487610D+03 0.169703016717100D+03 0.202925101276847D+02 0.507696063584740D+02
 0.794246886390832D+02 -.244954788873036D+01 0.465739121937120D+02 -.642895915644867D+02
 0.279242437878939D+02 -.266255585932039D+01 -.203595768330279D+02 -.189251636347421D+02
0.119877608132D-04 0.000000000000D+00 0.000000000000D+00 0.215381904679D-06 0.458429932062D-08  6 4 21 25 23 4 21 4 0.48601439D-01 0.32862471D-01 0.55868960D+05 0.55868960D+05 0.55868960D+05 0.11875375D+01  1  2  1  1  6  1        4 0.368106157956D-02 0.100000000000D+01
  </mgrwgt>
  </event>
  <event>
  5     66 0.44822969E-03 0.21490497E+02 0.75467711E-02 0.12279272E+00
        2 -1    0    0  502    0 0.00000000E+00 0.00000000E+00 0.14034763E+04 0.14034763E+04 0.32000000E+00 0.0000E+00 0.9000E+01
       21 -1    0    0  501  502 0.00000000E+00 0.00000000E+00 -.16966447E+02 0.16983016E+02 0.75000000E+00 0.0000E+00 0.9000E+01
       25  1    1    2    0    0 -.30740393E+02 0.13037016E+02 0.88917243E+03 0.89853634E+03 0.12500000E+03 0.0000E+00 0.9000E+01
       23  1    1    2    0    0 0.43180969E+02 -.30559498E+02 0.22212214E+03 0.24586984E+03 0.91188000E+02 0.0000E+00 0.9000E+01
        2  1    1    2  501    0 -.12440577E+02 0.17522482E+02 0.27521525E+03 0.27605315E+03 0.32000000E+00 0.0000E+00 0.9000E+01
#aMCatNLO 1  0  0  2  2 0.30877891D+01 0.00000000D+00  -5  6  0 0.00000000D+00 0.00000000D+00 0.00000000D+00 0.00000000D+00 0.00000000D+00
  <mgrwgt>
 0.1453474505D+00   12    2    0
 0.154349600351001D+03 0.000000000000000D+00 0.000000000000000D+00 0.154349600351001D+03
 0.154349600351001D+03 0.000000000000000D+00 0.000000000000000D+00 -.154349600351001D+03
 0.140874719760344D+03 -.307401432033601D+02 0.130366642583620D+02 0.557294863461620D+02
 0.133702036642539D+03 0.431812063733187D+02 -.305598318385748D+02 -.822341981933664D+02
 0.341224442991187D+02 -.124410631699586D+02 0.175231675802129D+02 0.265047118472044D+02
 0.000000000000000D+00 0.000000000000000D+00 0.000000000000000D+00 0.000000000000000D+00
 0.509491097504111D+03 0.000000000000000D+00 0.000000000000000D+00 0.509491097504111D+03
 0.154364033489850D+03 0.000000000000000D+00 0.000000000000000D+00 -.154364033489850D+03
 0.140917975420671D+03 -.314277921440391D+02 0.118065248572542D+02 0.557294863461620D+02
 0.133764791351782D+03 0.425285163494736D+02 -.317274330192718D+02 -.822341981933664D+02
 0.340318764750686D+02 -.126073777951583D+02 0.172256463286907D+02 0.265047118472044D+02
 0.355140487746439D+03 0.150665358972385D+01 0.269526183332698D+01 0.355127064014261D+03
0.533118401484D-05 0.000000000000D+00 0.000000000000D+00 0.119760710544D-06 0.000000000000D+00  6 2 21 25 23 2 21 2 0.21592070D+00 0.26114999D-02 0.16421805D+05 0.16421805D+05 0.16421805D+05 0.12433637D+01  1  2  2  2  6  2       21 0.129338395618D+00 0.100000000000D+01
-.227751705002D-06 0.281334309687D-06 -.107621245438D-07 0.119760710544D-06 0.000000000000D+00  6 2 21 25 23 2 21 4 0.21592070D+00 0.26114999D-02 0.16421805D+05 0.16421805D+05 0.16421805D+05 0.12433637D+01  1  2  3  2  6  2       21 -.854204383090D-02 0.100000000000D+01
0.653864684542D-06 0.000000000000D+00 0.000000000000D+00 0.119760710544D-06 0.000000000000D+00  6 2 21 25 23 2 21 4 0.21592070D+00 0.26114999D-02 0.16421805D+05 0.16421805D+05 0.16421805D+05 0.12433637D+01  1  2 15  2  6  2       21 0.245238155069D-01 0.100000000000D+01
0.568562792338D-08 0.000000000000D+00 0.000000000000D+00 0.119536484138D-06 0.186049439608D-06  6 2 21 25 23 2 21 4 0.71273055D+00 0.26117441D-02 0.16817622D+05 0.16817622D+05 0.16817622D+05 0.12421992D+01  1  2 11  2  6  2       21 0.198248405096D-05 0.100000000000D+01
0.256241233506D-06 0.000000000000D+00 0.000000000000D+00 0.119536484138D-06 0.635517773001D-09  6 2 -1 25 23 2 -1 4 0.71273055D+00 0.26117441D-02 0.16817622D+05 0.16817622D+05 0.16817622D+05 0.12421992D+01  1  2 11  5  6  2       21 0.450342722208D-05 0.100000000000D+01
0.256241233506D-06 0.000000000000D+00 0.000000000000D+00 0.119536484138D-06 0.635517773001D-09  6 2 -3 25 23 2 -3 4 0.71273055D+00 0.26117441D-02 0.16817622D+05 0.16817622D+05 0.16817622D+05 0.12421992D+01  1  2 11  5  6  2       21 0.339443678574D-05 0.100000000000D+01
0.261514116998D-06 0.000000000000D+00 0.000000000000D+00 0.119536484138D-06 0.648595337171D-09  6 2 1 25 23 2 1 4 0.71273055D+00 0.26117441D-02 0.16817622D+05 0.16817622D+05 0.16817622D+05 0.12421992D+01  1  2 11  6  6  2       21 0.490272701398D-05 0.100000000000D+01
0.261514116998D-06 0.000000000000D+00 0.000000000000D+00 0.119536484138D-06 0.648595337171D-09  6 2 3 25 23 2 3 4 0.71273055D+00 0.26117441D-02 0.16817622D+05 0.16817622D+05 0.16817622D+05 0.12421992D+01  1  2 11  6  6  2       21 0.346404822780D-05 0.100000000000D+01
0.130145805886D-06 0.000000000000D+00 0.000000000000D+00 0.119536484138D-06 0.882299271596D-09  6 2 -2 25 23 2 -2 4 0.71273055D+00 0.26117441D-02 0.16817622D+05 0.16817622D+05 0.16817622D+05 0.12421992D+01  1  2 11  7  6  2       21 0.225990988316D-05 0.100000000000D+01
0.116678234374D-06 0.000000000000D+00 0.000000000000D+00 0.119536484138D-06 0.190890988741D-05  6 2 2 25 23 2 2 4 0.71273055D+00 0.26117441D-02 0.16817622D+05 0.16817622D+05 0.16817622D+05 0.12421992D+01  1  2 11  8  6  2       21 0.228076705632D-05 0.100000000000D+01
0.189439434958D-06 0.000000000000D+00 0.000000000000D+00 0.119536484138D-06 0.469839011372D-09  6 2 -4 25 23 2 -4 4 0.71273055D+00 0.26117441D-02 0.16817622D+05 0.16817622D+05 0.16817622D+05 0.12421992D+01  1  2 11  9  6  2       21 0.226596984204D-05 0.100000000000D+01
0.186387057430D-06 0.000000000000D+00 0.000000000000D+00 0.119536484138D-06 0.462268644409D-09  6 2 4 25 23 2 4 4 0.71273055D+00 0.26117441D-02 0.16817622D+05 0.16817622D+05 0.16817622D+05 0.12421992D+01  1  2 11 10  6  2       21 0.222945898871D-05 0.100000000000D+01
  </mgrwgt>
  </event>
  <event>
  6     66 0.44822969E-03 0.57781712E+02 0.75467711E-02 0.12034219E+00
        2 -1    0    0  502    0 0.00000000E+00 0.00000000E+00 0.27776552E+04 0.27776552E+04 0.32000000E+00 0.0000E+00 0.9000E+01
       21 -1    0    0  501  503 0.00000000E+00 0.00000000E+00 -.29349272E+02 0.29358854E+02 0.75000000E+00 0.0000E+00 0.9000E+01
       25  1    1    2    0    0 -.35906713E+02 0.18361943E+02 0.47150454E+03 0.48945682E+03 0.12500000E+03 0.0000E+00 0.9000E+01
       23  1    1    2    0    0 -.17020726E+01 0.35766052E+02 0.18207986E+04 0.18234322E+04 0.91188000E+02 0.0000E+00 0.9000E+01
        2  1    1    2  501    0 0.26581563E+01 -.47436848E+01 0.42698728E+03 0.42702202E+03 0.32000000E+00 0.0000E+00 0.9000E+01
       21  1    1    2  502  503 0.34950629E+02 -.49384311E+02 0.29015506E+02 0.67103045E+02 0.75000000E+00 0.0000E+00 0.9000E+01
#aMCatNLO 2  0  0  2  1 0.27298406D+02 0.00000000D+00  -5  6  0 0.00000000D+00 0.00000000D+00 0.00000000D+00 0.00000000D+00 0.00000000D+00
  <mgrwgt>
 0.8478994877D-01    1    2    0
 0.165008847377960D+03 0.000000000000000D+00 0.000000000000000D+00 0.165008847377960D+03
 0.165008847377960D+03 0.000000000000000D+00 0.000000000000000D+00 -.165008847377960D+03
 0.171956903230463D+03 -.176559775089060D+02 -.742582716682317D+01 -.116521672309078D+03
 0.130101548380601D+03 0.121361876032486D+02 0.162129835378111D+02 0.905594482221010D+02
 0.279592431448563D+02 0.551978990565741D+01 -.878715637098798D+01 0.259622240869769D+02
 0.000000000000000D+00 0.000000000000000D+00 -.000000000000000D+00 -.000000000000000D+00
 0.170712019188176D+03 0.000000000000000D+00 0.000000000000000D+00 0.170712019188176D+03
 0.477618450281587D+03 0.000000000000000D+00 0.000000000000000D+00 -.477618450281587D+03
 0.175581280329028D+03 -.359069686334513D+02 0.183623388442978D+02 -.116521672309078D+03
 0.133410586353361D+03 -.170216990608188D+01 0.357662153780215D+02 0.905594482221010D+02
 0.265256969177058D+02 0.265850960742225D+01 -.474424325839523D+01 0.259622240869769D+02
 0.312812905869669D+03 0.349506289321110D+02 -.493843109639240D+02 -.306906431093411D+03
0.307453864274D-04 0.000000000000D+00 0.000000000000D+00 0.876278629219D-07 0.134697623871D-08  6 2 21 25 23 2 21 4 0.42733120D+00 0.45159994D-02 0.21793185D+05 0.21793185D+05 0.21793185D+05 0.12297417D+01  1  2  1  2  6  2       21 0.847899487673D-01 0.100000000000D+01
  </mgrwgt>
  </event>
  <event>
  6     66 0.44822969E-03 0.31824349E+02 0.75467711E-02 0.12005856E+00
        2 -1    0    0  503    0 0.00000000E+00 0.00000000E+00 0.85279965E+03 0.85279971E+03 0.32000000E+00 0.0000E+00 0.9000E+01
       21 -1    0    0  501  502 0.00000000E+00 0.00000000E+00 -.38552100E+02 0.38559395E+02 0.75000000E+00 0.0000E+00 0.9000E+01
       25  1    1    2    0    0 -.47334300E+02 -.24351170E+02 0.34038314E+03 0.36649583E+03 0.12500000E+03 0.0000E+00 0.9000E+01
       23  1    1    2    0    0 0.19683838E+02 0.68949670E+01 0.98100575E+02 0.13555061E+03 0.91188000E+02 0.0000E+00 0.9000E+01
        2  1    1    2  501    0 0.10120720E+02 -.23648865E+02 0.25546213E+02 0.36254782E+02 0.32000000E+00 0.0000E+00 0.9000E+01
       21  1    1    2  503  502 0.17529741E+02 0.41105068E+02 0.35021763E+03 0.35305788E+03 0.75000000E+00 0.0000E+00 0.9000E+01
#aMCatNLO 2  0  0  1  2 0.25125724D+02 0.00000000D+00  -5  6  0 0.00000000D+00 0.00000000D+00 0.00000000D+00 0.00000000D+00 0.00000000D+00
  <mgrwgt>
 0.6645422919D-01    1    2    0
 0.134580385025539D+03 0.000000000000000D+00 0.000000000000000D+00 0.134580385025539D+03
 0.134580385025539D+03 0.000000000000000D+00 0.000000000000000D+00 -.134580385025539D+03
 0.139346287041486D+03 -.381650763888522D+02 -.284854973971475D+01 0.482462477386755D+02
 0.104301625232678D+03 0.263101519201175D+02 0.224342955185257D+02 -.369872406743978D+02
 0.255128577769146D+02 0.118549244687348D+02 -.195857457788109D+02 -.112590070642777D+02
 0.000000000000000D+00 0.000000000000000D+00 0.000000000000000D+00 0.000000000000000D+00
 0.232139825071044D+03 0.000000000000000D+00 0.000000000000000D+00 0.232139825071044D+03
 0.141638209330243D+03 0.000000000000000D+00 0.000000000000000D+00 -.141638209330243D+03
 0.144174289663164D+03 -.473347973009976D+02 -.243504074604467D+02 0.482462477386755D+02
 0.100589740633279D+03 0.196834842399925D+02 0.689558207394350D+01 -.369872406743978D+02
 0.280810514248459D+02 0.101215716529251D+02 -.236502430500426D+02 -.112590070642777D+02
 0.100932952679998D+03 0.175297414080800D+02 0.411050684365458D+02 0.905016157408002D+02
0.351133220024D-05 0.000000000000D+00 0.000000000000D+00 0.590217420222D-06 0.230724106832D-08  6 2 21 25 23 2 21 4 0.13119926D+00 0.59316016D-02 0.22472537D+05 0.22472537D+05 0.22472537D+05 0.12282916D+01  1  2  1  1  6  1        2 0.664542291879D-01 0.100000000000D+01
  </mgrwgt>
  </event>
  <event>
  5     66 -.44822969E-03 0.28219198E+02 0.75467711E-02 0.11953358E+00
        4 -1    0    0  502    0 0.00000000E+00 0.00000000E+00 0.91477804E+03 0.91477935E+03 0.15500000E+01 0.0000E+00 0.9000E+01
       21 -1    0    0  501  502 0.00000000E+00 0.00000000E+00 -.37384339E+02 0.37391862E+02 0.75000000E+00 0.0000E+00 0.9000E+01
       25  1    1    2    0    0 -.49211486E+02 -.52692312E+02 0.45391169E+03 0.47629726E+03 0.12500000E+03 0.0000E+00 0.9000E+01
       23  1    1    2    0    0 0.77177100E+02 0.48944895E+02 0.42818757E+03 0.44722673E+03 0.91188000E+02 0.0000E+00 0.9000E+01
        4  1    1    2  501    0 -.27965614E+02 0.37474175E+01 -.47055610E+01 0.28647225E+02 0.15500000E+01 0.0000E+00 0.9000E+01
#aMCatNLO 1  0  0  5  2 0.77033143D+01 0.00000000D+00  -5  6  0 0.00000000D+00 0.00000000D+00 0.00000000D+00 0.00000000D+00 0.00000000D+00
  <mgrwgt>
 -.3218777739D-02    7    2    0
 0.184939393649637D+03 0.000000000000000D+00 0.000000000000000D+00 0.184939393649637D+03
 0.184939393649637D+03 -.000000000000000D+00 -.000000000000000D+00 -.184939393649637D+03
 0.149393794999414D+03 -.492096035894937D+02 -.526925646587935D+02 0.386705899692604D+02
 0.135580173842458D+03 0.771788083836746D+02 0.489446659646052D+02 0.414075283642994D+02
 0.849048184574016D+02 -.279692047941809D+02 0.374789869418821D+01 -.800781183335597D+02
 0.000000000000000D+00 0.000000000000000D+00 0.000000000000000D+00 -.000000000000000D+00
 0.184939393649637D+03 0.000000000000000D+00 0.000000000000000D+00 0.184939393649637D+03
 0.184939393649637D+03 -.000000000000000D+00 -.000000000000000D+00 -.184939393649637D+03
 0.149215991517962D+03 -.496073972116584D+02 -.526392599542787D+02 0.375316743303479D+02
 0.135080584887663D+03 0.768182471145723D+02 0.489929815001948D+02 0.403752119939860D+02
 0.727543667862556D+02 -.308191399040298D+02 0.521651373439898D+01 -.656975379029053D+02
 0.128278441073915D+02 0.360829000111599D+01 -.157023528031507D+01 -.122093484214285D+02
0.913807888667D-06 0.000000000000D+00 0.000000000000D+00 0.117142324338D-05 0.000000000000D+00  6 4 21 25 23 4 21 2 0.14073576D+00 0.57521165D-02 0.22744194D+05 0.22744194D+05 0.22744194D+05 0.12277254D+01  1  2  2  3  6  5        4 0.453413480538D-03 0.100000000000D+01
0.130006737330D-06 0.482229671362D-07 -.184471484750D-08 0.117142324338D-05 0.000000000000D+00  6 4 21 25 23 4 21 4 0.14073576D+00 0.57521165D-02 0.22744194D+05 0.22744194D+05 0.22744194D+05 0.12277254D+01  1  2  3  3  6  5        4 0.972317047317D-04 0.100000000000D+01
0.829514078254D-07 0.000000000000D+00 0.000000000000D+00 0.117142324338D-05 0.000000000000D+00  6 4 21 25 23 4 21 4 0.14073576D+00 0.57521165D-02 0.22744194D+05 0.22744194D+05 0.22744194D+05 0.12277254D+01  1  2 15  3  6  5        4 0.620391447274D-04 0.100000000000D+01
-.584695592174D-05 0.000000000000D+00 0.000000000000D+00 0.117142324338D-05 0.000000000000D+00  6 4 21 25 23 4 21 4 0.14073576D+00 0.57521165D-02 0.22744194D+05 0.22744194D+05 0.22744194D+05 0.12277254D+01  1  2  4  3  6  5        4 -.437292330718D-02 0.100000000000D+01
-.376538214654D-05 0.000000000000D+00 0.000000000000D+00 0.117142324338D-05 0.000000000000D+00  6 4 21 25 23 4 21 4 0.14073576D+00 0.57521165D-02 0.22744194D+05 0.22744194D+05 0.22744194D+05 0.12277254D+01  1  2  5  3  6  5        4 -.281611963036D-02 0.100000000000D+01
0.443311818877D-05 0.000000000000D+00 -.000000000000D+00 0.117142324338D-05 0.000000000000D+00  6 4 21 25 23 4 21 4 0.14073576D+00 0.57521165D-02 0.22744194D+05 0.22744194D+05 0.22744194D+05 0.12277254D+01  1  2  6  3  6  5        4 0.331551770026D-02 0.100000000000D+01
0.565578566677D-07 0.000000000000D+00 0.000000000000D+00 0.117142324338D-05 0.670784684322D-06  6 4 21 25 23 4 21 4 0.14073576D+00 0.57521165D-02 0.23795662D+05 0.23795662D+05 0.23795662D+05 0.12256032D+01  1  2 11  3  6  5        4 0.420631680170D-04 0.100000000000D+01
  </mgrwgt>
  </event>
  <event>
  5     66 -.44822969E-03 0.76666670E+02 0.75467711E-02 0.11922366E+00
        2 -1    0    0  502    0 0.00000000E+00 0.00000000E+00 0.21674027E+04 0.21674028E+04 0.32000000E+00 0.0000E+00 0.9000E+01
       21 -1    0    0  501  502 0.00000000E+00 0.00000000E+00 -.14439679E+02 0.14459143E+02 0.75000000E+00 0.0000E+00 0.9000E+01
       25  1    1    2    0    0 0.12363672E+02 -.43632847E+02 0.90316734E+03 0.91290357E+03 0.12500000E+03 0.0000E+00 0.9000E+01
       23  1    1    2    0    0 0.37511031E+02 -.21433590E+02 0.10199487E+04 0.10249278E+04 0.91188000E+02 0.0000E+00 0.9000E+01
        2  1    1    2  501    0 -.49874703E+02 0.65066437E+02 0.22984703E+03 0.24403050E+03 0.32000000E+00 0.0000E+00 0.9000E+01
#aMCatNLO 1  0  0  5  2 0.10827897D+02 0.00000000D+00  -5  6  0 0.00000000D+00 0.00000000D+00 0.00000000D+00 0.00000000D+00 0.00000000D+00
  <mgrwgt>
 -.2104036978D+00    7    2    0
 0.176968525711380D+03 0.000000000000000D+00 0.000000000000000D+00 0.176968525711380D+03
 0.176968525711380D+03 -.000000000000000D+00 -.000000000000000D+00 -.176968525711380D+03
 0.133762838712434D+03 0.123637579191702D+02 -.436329583961488D+02 0.145189342627062D+02
 0.113972717660123D+03 0.375111037654432D+02 -.214336849867027D+02 0.529909734674030D+02
 0.106201495050203D+03 -.498748616846134D+02 0.650666433828515D+02 -.675099077301092D+02
 0.000000000000000D+00 0.000000000000000D+00 0.000000000000000D+00 -.000000000000000D+00
 0.176968525711380D+03 0.000000000000000D+00 0.000000000000000D+00 0.176968525711380D+03
 0.176968525711380D+03 -.000000000000000D+00 -.000000000000000D+00 -.176968525711380D+03
 0.133434665143247D+03 0.118644452619976D+02 -.429815561164545D+02 0.138430717083926D+02
 0.113463542025125D+03 0.370860930466972D+02 -.208792168651587D+02 0.524156849665889D+02
 0.773340041921278D+02 -.401303406089091D+02 0.523896427172429D+02 -.403166132377289D+02
 0.297048400622600D+02 -.882019769978573D+01 0.114711302643703D+02 -.259421434372526D+02
0.833648264122D-06 0.000000000000D+00 0.000000000000D+00 0.303966769876D-06 0.000000000000D+00  6 2 21 25 23 2 21 2 0.33344807D+00 0.22229881D-02 0.24941866D+05 0.24941866D+05 0.24941866D+05 0.12234061D+01  1  2  2  3  6  5        2 0.102577039412D-01 0.100000000000D+01
-.290583591656D-07 0.439928275324D-07 -.168289566055D-08 0.303966769876D-06 0.000000000000D+00  6 2 21 25 23 2 21 4 0.33344807D+00 0.22229881D-02 0.24941866D+05 0.24941866D+05 0.24941866D+05 0.12234061D+01  1  2  3  3  6  5        2 -.535155077051D-03 0.100000000000D+01
0.916225895456D-07 0.000000000000D+00 0.000000000000D+00 0.303966769876D-06 0.000000000000D+00  6 2 21 25 23 2 21 4 0.33344807D+00 0.22229881D-02 0.24941866D+05 0.24941866D+05 0.24941866D+05 0.12234061D+01  1  2 15  3  6  5        2 0.168737311314D-02 0.100000000000D+01
0.332602496562D-05 0.000000000000D+00 0.000000000000D+00 0.304268614717D-06 0.000000000000D+00  6 2 21 25 23 2 21 4 0.33344807D+00 0.22229881D-02 0.24619008D+05 0.24619008D+05 0.24619008D+05 0.12240133D+01  1  2 12  3  6  5        2 0.613866984873D-01 0.100000000000D+01
-.164572214956D-04 0.000000000000D+00 0.000000000000D+00 0.303966769876D-06 0.000000000000D+00  6 2 21 25 23 2 21 4 0.33344807D+00 0.22229881D-02 0.24941866D+05 0.24941866D+05 0.24941866D+05 0.12234061D+01  1  2  4  3  6  5        2 -.303085442208D+00 0.100000000000D+01
-.340822536379D-05 0.000000000000D+00 0.000000000000D+00 0.303966769876D-06 0.000000000000D+00  6 2 21 25 23 2 21 4 0.33344807D+00 0.22229881D-02 0.24941866D+05 0.24941866D+05 0.24941866D+05 0.12234061D+01  1  2  5  3  6  5        2 -.627677941750D-01 0.100000000000D+01
0.448796673037D-05 0.000000000000D+00 -.000000000000D+00 0.303966769876D-06 0.000000000000D+00  6 2 21 25 23 2 21 4 0.33344807D+00 0.22229881D-02 0.24941866D+05 0.24941866D+05 0.24941866D+05 0.12234061D+01  1  2  6  3  6  5        2 0.826529181400D-01 0.100000000000D+01
  </mgrwgt>
  </event>
  <event>
  5     66 0.44822969E-03 0.23826145E+02 0.75467711E-02 0.12268708E+00
        2 -1    0    0  502    0 0.00000000E+00 0.00000000E+00 0.83291622E+03 0.83291628E+03 0.32000000E+00 0.0000E+00 0.9000E+01
       21 -1    0    0  501  502 0.00000000E+00 0.00000000E+00 -.25925956E+02 0.25936802E+02 0.75000000E+00 0.0000E+00 0.9000E+01
       25  1    1    2    0    0 0.23095707E+02 0.17283244E+02 0.19357367E+03 0.23222379E+03 0.12500000E+03 0.0000E+00 0.9000E+01
       23  1    1    2    0    0 -.39548262E+02 -.52324727E-01 0.54948281E+03 0.55840011E+03 0.91188000E+02 0.0000E+00 0.9000E+01
        2  1    1    2  501    0 0.16452554E+02 -.17230920E+02 0.63933781E+02 0.68229187E+02 0.32000000E+00 0.0000E+00 0.9000E+01
#aMCatNLO 1  0  0  2  5 0.93194832D+01 0.00000000D+00  -5  6  0 0.00000000D+00 0.00000000D+00 0.00000000D+00 0.00000000D+00 0.00000000D+00
  <mgrwgt>
 0.9337224114D-01   41    2    0
 0.146965414620216D+03 0.000000000000000D+00 0.000000000000000D+00 0.146965414620216D+03
 0.146965414620216D+03 0.000000000000000D+00 0.000000000000000D+00 -.146965414620216D+03
 0.147089160676235D+03 0.230949649694073D+02 0.172840218310998D+02 -.719590603804917D+02
 0.123010016679477D+03 -.395488825023968D+02 -.516745686693811D-01 0.724713466277243D+02
 0.238316518847207D+02 0.164539175329894D+02 -.172323472624304D+02 -.512286247232538D+00
 0.000000000000000D+00 -.000000000000000D+00 0.000000000000000D+00 -.000000000000000D+00
 0.147649596348122D+03 0.000000000000000D+00 0.000000000000000D+00 0.147649596348122D+03
 0.182615504557123D+03 0.000000000000000D+00 0.000000000000000D+00 -.182615504557123D+03
 0.147714468829152D+03 0.275838062293661D+02 0.159872312967607D+02 -.719590603804917D+02
 0.121867598098752D+03 -.358202420419620D+02 -.112884913890357D+01 0.724713466277243D+02
 0.244964687463371D+02 0.171897879232859D+02 -.174449343648413D+02 -.512286247232538D+00
 0.361865652310042D+02 -.895335211069005D+01 0.258655220698416D+01 -.349659082090008D+02
0.379559177619D-06 0.000000000000D+00 0.000000000000D+00 0.273476926345D-06 0.000000000000D+00  6 2 21 25 23 2 21 2 0.12814180D+00 0.39894476D-02 0.15813873D+05 0.15813873D+05 0.15813873D+05 0.12452150D+01  1  2  2  2  6  2       21 0.978657102484D-02 0.100000000000D+01
0.112305823922D-07 0.200298880930D-07 -.766220623766D-09 0.273476926345D-06 0.000000000000D+00  6 2 21 25 23 2 21 4 0.12814180D+00 0.39894476D-02 0.15813873D+05 0.15813873D+05 0.15813873D+05 0.12452150D+01  1  2  3  2  6  2       21 0.448995541512D-03 0.100000000000D+01
0.297735212820D-07 0.000000000000D+00 0.000000000000D+00 0.273476926345D-06 0.000000000000D+00  6 2 21 25 23 2 21 4 0.12814180D+00 0.39894476D-02 0.15813873D+05 0.15813873D+05 0.15813873D+05 0.12452150D+01  1  2 15  2  6  2       21 0.119033704966D-02 0.100000000000D+01
0.775522301938D-05 0.000000000000D+00 0.000000000000D+00 0.271919706859D-06 0.000000000000D+00  6 2 21 25 23 2 21 4 0.12814180D+00 0.49649688D-02 0.17002856D+05 0.17002856D+05 0.17002856D+05 0.12416647D+01  1  2 12  2  6  2       21 0.212936033816D+00 0.100000000000D+01
0.691379026025D-05 0.000000000000D+00 0.000000000000D+00 0.271919706859D-06 0.000000000000D+00  6 2 21 25 23 2 21 4 0.12814180D+00 0.50812090D-02 0.17002856D+05 0.17002856D+05 0.17002856D+05 0.12416647D+01  1  2 12  2  6  2       21 0.182592254876D+00 0.100000000000D+01
-.115916019497D-04 0.000000000000D+00 0.000000000000D+00 0.273476926345D-06 0.000000000000D+00  6 2 21 25 23 2 21 4 0.12814180D+00 0.39894476D-02 0.15813873D+05 0.15813873D+05 0.15813873D+05 0.12452150D+01  1  2  4  2  6  2       21 -.463429002398D+00 0.100000000000D+01
-.166937644764D-04 0.000000000000D+00 -.640893427590D-06 0.273476926345D-06 0.000000000000D+00  6 2 21 25 23 2 21 4 0.12814180D+00 0.49762273D-02 0.15813873D+05 0.15813873D+05 0.15813873D+05 0.12452150D+01  1  2  5  2  6  2       21 -.461525384655D+00 0.100000000000D+01
0.153136757106D-04 0.000000000000D+00 0.582364012819D-06 0.273476926345D-06 0.000000000000D+00  6 2 21 25 23 2 21 4 0.12814180D+00 0.39894476D-02 0.15813873D+05 0.15813873D+05 0.15813873D+05 0.12452150D+01  1  2  6  2  6  2       21 0.612236469855D+00 0.100000000000D+01
0.451793335126D-09 0.000000000000D+00 0.000000000000D+00 0.273476926345D-06 0.572590296715D-07  6 2 21 25 23 2 21 4 0.12873835D+00 0.49571867D-02 0.17002856D+05 0.17002856D+05 0.17002856D+05 0.12416647D+01  1  2 11  2  6  2       21 0.123649292266D-04 0.100000000000D+01
0.493748407591D-06 0.000000000000D+00 0.000000000000D+00 0.271919706859D-06 0.000000000000D+00  6 2 -1 25 23 2 -1 4 0.12814180D+00 0.49649688D-02 0.17002856D+05 0.17002856D+05 0.17002856D+05 0.12416647D+01  1  2 12  5  6  2       21 0.772948622696D-03 0.100000000000D+01
0.493748407591D-06 0.000000000000D+00 0.000000000000D+00 0.271919706859D-06 0.000000000000D+00  6 2 -3 25 23 2 -3 4 0.12814180D+00 0.49649688D-02 0.17002856D+05 0.17002856D+05 0.17002856D+05 0.12416647D+01  1  2 12  5  6  2       21 0.548575303143D-03 0.100000000000D+01
0.497431668281D-06 0.000000000000D+00 0.000000000000D+00 0.271919706859D-06 0.000000000000D+00  6 2 -1 25 23 2 -1 4 0.12814180D+00 0.50812090D-02 0.17002856D+05 0.17002856D+05 0.17002856D+05 0.12416647D+01  1  2 12  5  6  2       21 0.752529509027D-03 0.100000000000D+01
0.497431668281D-06 0.000000000000D+00 0.000000000000D+00 0.271919706859D-06 0.000000000000D+00  6 2 -3 25 23 2 -3 4 0.12814180D+00 0.50812090D-02 0.17002856D+05 0.17002856D+05 0.17002856D+05 0.12416647D+01  1  2 12  5  6  2       21 0.532813967082D-03 0.100000000000D+01
-.104868080830D-05 0.000000000000D+00 -.414979978372D-07 0.273476926345D-06 0.000000000000D+00  6 2 -1 25 23 2 -1 4 0.12814180D+00 0.49762273D-02 0.15813873D+05 0.15813873D+05 0.15813873D+05 0.12452150D+01  1  2  5  5  6  2       21 -.165202317296D-02 0.100000000000D+01
-.104868080830D-05 0.000000000000D+00 -.414979978372D-07 0.273476926345D-06 0.000000000000D+00  6 2 -3 25 23 2 -3 4 0.12814180D+00 0.49762273D-02 0.15813873D+05 0.15813873D+05 0.15813873D+05 0.12452150D+01  1  2  5  5  6  2       21 -.117020647134D-02 0.100000000000D+01
0.294229242028D-10 0.000000000000D+00 0.000000000000D+00 0.273476926345D-06 0.340931333554D-08  6 2 -1 25 23 2 -1 4 0.12873835D+00 0.49571867D-02 0.17002856D+05 0.17002856D+05 0.17002856D+05 0.12416647D+01  1  2 11  5  6  2       21 0.458976130142D-07 0.100000000000D+01
0.294229242028D-10 0.000000000000D+00 0.000000000000D+00 0.273476926345D-06 0.340931333554D-08  6 2 -3 25 23 2 -3 4 0.12873835D+00 0.49571867D-02 0.17002856D+05 0.17002856D+05 0.17002856D+05 0.12416647D+01  1  2 11  5  6  2       21 0.325795845043D-07 0.100000000000D+01
0.493748407591D-06 0.000000000000D+00 0.000000000000D+00 0.271919706859D-06 0.000000000000D+00  6 2 1 25 23 2 1 4 0.12814180D+00 0.49649688D-02 0.17002856D+05 0.17002856D+05 0.17002856D+05 0.12416647D+01  1  2 12  6  6  2       21 0.870718695179D-03 0.100000000000D+01
0.493748407591D-06 0.000000000000D+00 0.000000000000D+00 0.271919706859D-06 0.000000000000D+00  6 2 3 25 23 2 3 4 0.12814180D+00 0.49649688D-02 0.17002856D+05 0.17002856D+05 0.17002856D+05 0.12416647D+01  1  2 12  6  6  2       21 0.548520600195D-03 0.100000000000D+01
0.497431668281D-06 0.000000000000D+00 0.000000000000D+00 0.271919706859D-06 0.000000000000D+00  6 2 1 25 23 2 1 4 0.12814180D+00 0.50812090D-02 0.17002856D+05 0.17002856D+05 0.17002856D+05 0.12416647D+01  1  2 12  6  6  2       21 0.849936146150D-03 0.100000000000D+01
0.497431668281D-06 0.000000000000D+00 0.000000000000D+00 0.271919706859D-06 0.000000000000D+00  6 2 3 25 23 2 3 4 0.12814180D+00 0.50812090D-02 0.17002856D+05 0.17002856D+05 0.17002856D+05 0.12416647D+01  1  2 12  6  6  2       21 0.532760214655D-03 0.100000000000D+01
-.104868080830D-05 0.000000000000D+00 -.414979978372D-07 0.273476926345D-06 0.000000000000D+00  6 2 1 25 23 2 1 4 0.12814180D+00 0.49762273D-02 0.15813873D+05 0.15813873D+05 0.15813873D+05 0.12452150D+01  1  2  5  6  6  2       21 -.186167993841D-02 0.100000000000D+01
-.104868080830D-05 0.000000000000D+00 -.414979978372D-07 0.273476926345D-06 0.000000000000D+00  6 2 3 25 23 2 3 4 0.12814180D+00 0.49762273D-02 0.15813873D+05 0.15813873D+05 0.15813873D+05 0.12452150D+01  1  2  5  6  6  2       21 -.117008891155D-02 0.100000000000D+01
0.326542510311D-10 0.000000000000D+00 0.000000000000D+00 0.273476926345D-06 0.378373586307D-08  6 2 1 25 23 2 1 4 0.12873835D+00 0.49571867D-02 0.17002856D+05 0.17002856D+05 0.17002856D+05 0.12416647D+01  1  2 11  6  6  2       21 0.573713532891D-07 0.100000000000D+01
0.326542510311D-10 0.000000000000D+00 0.000000000000D+00 0.273476926345D-06 0.378373586307D-08  6 2 3 25 23 2 3 4 0.12873835D+00 0.49571867D-02 0.17002856D+05 0.17002856D+05 0.17002856D+05 0.12416647D+01  1  2 11  6  6  2       21 0.361539839243D-07 0.100000000000D+01
0.493748407591D-06 0.000000000000D+00 0.000000000000D+00 0.271919706859D-06 0.000000000000D+00  6 2 -2 25 23 2 -2 4 0.12814180D+00 0.49649688D-02 0.17002856D+05 0.17002856D+05 0.17002856D+05 0.12416647D+01  1  2 12  7  6  2       21 0.755690272611D-03 0.100000000000D+01
0.497431668281D-06 0.000000000000D+00 0.000000000000D+00 0.271919706859D-06 0.000000000000D+00  6 2 -2 25 23 2 -2 4 0.12814180D+00 0.50812090D-02 0.17002856D+05 0.17002856D+05 0.17002856D+05 0.12416647D+01  1  2 12  7  6  2       21 0.735347942178D-03 0.100000000000D+01
-.104868080830D-05 0.000000000000D+00 -.414979978372D-07 0.273476926345D-06 0.000000000000D+00  6 2 -2 25 23 2 -2 4 0.12814180D+00 0.49762273D-02 0.15813873D+05 0.15813873D+05 0.15813873D+05 0.12452150D+01  1  2  5  7  6  2       21 -.161500917482D-02 0.100000000000D+01
0.628428155347D-10 0.000000000000D+00 0.000000000000D+00 0.273476926345D-06 0.796638910275D-08  6 2 -2 25 23 2 -2 4 0.12873835D+00 0.49571867D-02 0.17002856D+05 0.17002856D+05 0.17002856D+05 0.12416647D+01  1  2 11  7  6  2       21 0.958446981853D-07 0.100000000000D+01
0.493748407591D-06 0.000000000000D+00 0.000000000000D+00 0.271919706859D-06 0.000000000000D+00  6 2 2 25 23 2 2 4 0.12814180D+00 0.49649688D-02 0.17002856D+05 0.17002856D+05 0.17002856D+05 0.12416647D+01  1  2 12  8  6  2       21 0.936370732526D-03 0.100000000000D+01
0.497431668281D-06 0.000000000000D+00 0.000000000000D+00 0.271919706859D-06 0.000000000000D+00  6 2 2 25 23 2 2 4 0.12814180D+00 0.50812090D-02 0.17002856D+05 0.17002856D+05 0.17002856D+05 0.12416647D+01  1  2 12  8  6  2       21 0.915323857945D-03 0.100000000000D+01
-.104868080830D-05 0.000000000000D+00 -.414979978372D-07 0.273476926345D-06 0.000000000000D+00  6 2 2 25 23 2 2 4 0.12814180D+00 0.49762273D-02 0.15813873D+05 0.15813873D+05 0.15813873D+05 0.12452150D+01  1  2  5  8  6  2       21 -.200241468838D-02 0.100000000000D+01
0.393878105330D-10 0.000000000000D+00 0.000000000000D+00 0.273476926345D-06 0.231475365912D-08  6 2 2 25 23 2 2 4 0.12873835D+00 0.49571867D-02 0.17002856D+05 0.17002856D+05 0.17002856D+05 0.12416647D+01  1  2 11  8  6  2       21 0.744124544848D-07 0.100000000000D+01
0.493748407591D-06 0.000000000000D+00 0.000000000000D+00 0.271919706859D-06 0.000000000000D+00  6 2 -4 25 23 2 -4 4 0.12814180D+00 0.49649688D-02 0.17002856D+05 0.17002856D+05 0.17002856D+05 0.12416647D+01  1  2 12  9  6  2       21 0.488205039033D-03 0.100000000000D+01
0.497431668281D-06 0.000000000000D+00 0.000000000000D+00 0.271919706859D-06 0.000000000000D+00  6 2 -4 25 23 2 -4 4 0.12814180D+00 0.50812090D-02 0.17002856D+05 0.17002856D+05 0.17002856D+05 0.12416647D+01  1  2 12  9  6  2       21 0.473893984592D-03 0.100000000000D+01
-.104868080830D-05 0.000000000000D+00 -.414979978372D-07 0.273476926345D-06 0.000000000000D+00  6 2 -4 25 23 2 -4 4 0.12814180D+00 0.49762273D-02 0.15813873D+05 0.15813873D+05 0.15813873D+05 0.12452150D+01  1  2  5  9  6  2       21 -.104056634128D-02 0.100000000000D+01
0.415127579510D-10 0.000000000000D+00 0.000000000000D+00 0.273476926345D-06 0.481019487737D-08  6 2 -4 25 23 2 -4 4 0.12873835D+00 0.49571867D-02 0.17002856D+05 0.17002856D+05 0.17002856D+05 0.12416647D+01  1  2 11  9  6  2       21 0.409095659431D-07 0.100000000000D+01
0.493748407591D-06 0.000000000000D+00 0.000000000000D+00 0.271919706859D-06 0.000000000000D+00  6 2 4 25 23 2 4 4 0.12814180D+00 0.49649688D-02 0.17002856D+05 0.17002856D+05 0.17002856D+05 0.12416647D+01  1  2 12 10  6  2       21 0.488205039033D-03 0.100000000000D+01
0.497431668281D-06 0.000000000000D+00 0.000000000000D+00 0.271919706859D-06 0.000000000000D+00  6 2 4 25 23 2 4 4 0.12814180D+00 0.50812090D-02 0.17002856D+05 0.17002856D+05 0.17002856D+05 0.12416647D+01  1  2 12 10  6  2       21 0.473893984592D-03 0.100000000000D+01
-.104868080830D-05 0.000000000000D+00 -.414979978372D-07 0.273476926345D-06 0.000000000000D+00  6 2 4 25 23 2 4 4 0.12814180D+00 0.49762273D-02 0.15813873D+05 0.15813873D+05 0.15813873D+05 0.12452150D+01  1  2  5 10  6  2       21 -.104056634128D-02 0.100000000000D+01
0.396422009000D-10 0.000000000000D+00 0.000000000000D+00 0.273476926345D-06 0.459344840259D-08  6 2 4 25 23 2 4 4 0.12873835D+00 0.49571867D-02 0.17002856D+05 0.17002856D+05 0.17002856D+05 0.12416647D+01  1  2 11 10  6  2       21 0.390661886104D-07 0.100000000000D+01
  </mgrwgt>
  </event>
  <event>
  5     66 0.44822969E-03 0.68001155E+02 0.75467711E-02 0.11744800E+00
        2 -1    0    0  502    0 0.00000000E+00 0.00000000E+00 0.19811019E+04 0.19811019E+04 0.32000000E+00 0.0000E+00 0.9000E+01
       21 -1    0    0  501  502 0.00000000E+00 0.00000000E+00 -.15910339E+02 0.15928006E+02 0.75000000E+00 0.0000E+00 0.9000E+01
       25  1    1    2    0    0 0.22211970E+02 0.29713658E+02 0.12281460E+04 0.12350481E+04 0.12500000E+03 0.0000E+00 0.9000E+01
       23  1    1    2    0    0 0.46952346E+02 -.45970676E+02 0.32577697E+03 0.34462112E+03 0.91188000E+02 0.0000E+00 0.9000E+01
        2  1    1    2  501    0 -.69164316E+02 0.16257018E+02 0.41126863E+03 0.41736073E+03 0.32000000E+00 0.0000E+00 0.9000E+01
#aMCatNLO 1  0  0  2  1 0.31516767D+02 0.00000000D+00  -5  6  0 0.00000000D+00 0.00000000D+00 0.00000000D+00 0.00000000D+00 0.00000000D+00
  <mgrwgt>
 0.4837776527D-01   23    2    0
 0.177588482731280D+03 0.000000000000000D+00 0.000000000000000D+00 0.177588482731280D+03
 0.177588482731280D+03 0.000000000000000D+00 0.000000000000000D+00 -.177588482731280D+03
 0.148900210407672D+03 0.222122638501684D+02 0.297135890631705D+02 0.719026468155696D+02
 0.135156758945549D+03 0.469526119232486D+02 -.459707387096650D+02 -.750615851200722D+02
 0.711199961093389D+02 -.691648757734170D+02 0.162571496464945D+02 0.315893830450261D+01
 0.000000000000000D+00 0.000000000000000D+00 0.000000000000000D+00 -.000000000000000D+00
 0.188222978340879D+03 0.000000000000000D+00 0.000000000000000D+00 0.188222978340879D+03
 0.203277123524289D+03 0.000000000000000D+00 0.000000000000000D+00 -.203277123524289D+03
 0.146201320835792D+03 0.136793367775658D+02 0.198169457881779D+02 0.719026468155696D+02
 0.136056644480239D+03 0.391104154331352D+02 -.550662601520368D+02 -.750615851200722D+02
 0.743145846504841D+02 -.733701493490199D+02 0.113797972330277D+02 0.315893830450261D+01
 0.349275518986536D+02 0.205803971383190D+02 0.238695171308312D+02 -.150541451834095D+02
0.105234281350D-05 0.000000000000D+00 0.000000000000D+00 0.886520341497D-07 0.000000000000D+00  6 2 21 25 23 2 21 2 0.30478627D+00 0.24491054D-02 0.24623238D+05 0.24623238D+05 0.24623238D+05 0.12240053D+01  1  2  2  2  6  2       21 0.138176022986D-01 0.100000000000D+01
-.734138787645D-07 0.555336559693D-07 -.212437694705D-08 0.886520341497D-07 0.000000000000D+00  6 2 21 25 23 2 21 4 0.30478627D+00 0.24491054D-02 0.24623238D+05 0.24623238D+05 0.24623238D+05 0.12240053D+01  1  2  3  2  6  2       21 -.144417636361D-02 0.100000000000D+01
0.969572994002D-07 0.000000000000D+00 0.000000000000D+00 0.886520341497D-07 0.000000000000D+00  6 2 21 25 23 2 21 4 0.30478627D+00 0.24491054D-02 0.24623238D+05 0.24623238D+05 0.24623238D+05 0.12240053D+01  1  2 15  2  6  2       21 0.190731565242D-02 0.100000000000D+01
0.171614293898D-05 0.000000000000D+00 0.000000000000D+00 0.873328404225D-07 0.000000000000D+00  6 2 21 25 23 2 21 4 0.30478627D+00 0.28687451D-02 0.30022495D+05 0.30022495D+05 0.30022495D+05 0.12148642D+01  1  2 12  2  6  2       21 0.251990117489D-01 0.100000000000D+01
-.131930966732D-05 0.000000000000D+00 0.000000000000D+00 0.886520341497D-07 0.000000000000D+00  6 2 21 25 23 2 21 4 0.30478627D+00 0.24491054D-02 0.24623238D+05 0.24623238D+05 0.24623238D+05 0.12240053D+01  1  2  4  2  6  2       21 -.259530741310D-01 0.100000000000D+01
-.746695788319D-05 0.000000000000D+00 -.189723375429D-05 0.886520341497D-07 0.000000000000D+00  6 2 21 25 23 2 21 4 0.30478627D+00 0.29984029D-02 0.24623238D+05 0.24623238D+05 0.24623238D+05 0.12240053D+01  1  2  5  2  6  2       21 -.105397836708D+00 0.100000000000D+01
0.720850685520D-05 0.000000000000D+00 0.175043401714D-05 0.886520341497D-07 0.000000000000D+00  6 2 21 25 23 2 21 4 0.30478627D+00 0.24491054D-02 0.24623238D+05 0.24623238D+05 0.24623238D+05 0.12240053D+01  1  2  6  2  6  2       21 0.141803639753D+00 0.100000000000D+01
0.744024578395D-07 0.000000000000D+00 0.000000000000D+00 0.873328404225D-07 0.000000000000D+00  6 2 -1 25 23 2 -1 4 0.30478627D+00 0.28687451D-02 0.30022495D+05 0.30022495D+05 0.30022495D+05 0.12148642D+01  1  2 12  5  6  2       21 0.565217737056D-04 0.100000000000D+01
0.744024578395D-07 0.000000000000D+00 0.000000000000D+00 0.873328404225D-07 0.000000000000D+00  6 2 -3 25 23 2 -3 4 0.30478627D+00 0.28687451D-02 0.30022495D+05 0.30022495D+05 0.30022495D+05 0.12148642D+01  1  2 12  5  6  2       21 0.427672187991D-04 0.100000000000D+01
-.377836236121D-06 0.000000000000D+00 -.110395658719D-06 0.886520341497D-07 0.000000000000D+00  6 2 -1 25 23 2 -1 4 0.30478627D+00 0.29984029D-02 0.24623238D+05 0.24623238D+05 0.24623238D+05 0.12240053D+01  1  2  5  5  6  2       21 -.277239069918D-03 0.100000000000D+01
-.377836236121D-06 0.000000000000D+00 -.110395658719D-06 0.886520341497D-07 0.000000000000D+00  6 2 -3 25 23 2 -3 4 0.30478627D+00 0.29984029D-02 0.24623238D+05 0.24623238D+05 0.24623238D+05 0.12240053D+01  1  2  5  5  6  2       21 -.208131034121D-03 0.100000000000D+01
0.744024578395D-07 0.000000000000D+00 0.000000000000D+00 0.873328404225D-07 0.000000000000D+00  6 2 1 25 23 2 1 4 0.30478627D+00 0.28687451D-02 0.30022495D+05 0.30022495D+05 0.30022495D+05 0.12148642D+01  1  2 12  6  6  2       21 0.606158557820D-04 0.100000000000D+01
0.744024578395D-07 0.000000000000D+00 0.000000000000D+00 0.873328404225D-07 0.000000000000D+00  6 2 3 25 23 2 3 4 0.30478627D+00 0.28687451D-02 0.30022495D+05 0.30022495D+05 0.30022495D+05 0.12148642D+01  1  2 12  6  6  2       21 0.427642378049D-04 0.100000000000D+01
-.377836236121D-06 0.000000000000D+00 -.110395658719D-06 0.886520341497D-07 0.000000000000D+00  6 2 1 25 23 2 1 4 0.30478627D+00 0.29984029D-02 0.24623238D+05 0.24623238D+05 0.24623238D+05 0.12240053D+01  1  2  5  6  6  2       21 -.298305405950D-03 0.100000000000D+01
-.377836236121D-06 0.000000000000D+00 -.110395658719D-06 0.886520341497D-07 0.000000000000D+00  6 2 3 25 23 2 3 4 0.30478627D+00 0.29984029D-02 0.24623238D+05 0.24623238D+05 0.24623238D+05 0.12240053D+01  1  2  5  6  6  2       21 -.208115890310D-03 0.100000000000D+01
0.744024578395D-07 0.000000000000D+00 0.000000000000D+00 0.873328404225D-07 0.000000000000D+00  6 2 -2 25 23 2 -2 4 0.30478627D+00 0.28687451D-02 0.30022495D+05 0.30022495D+05 0.30022495D+05 0.12148642D+01  1  2 12  7  6  2       21 0.557887009044D-04 0.100000000000D+01
-.377836236121D-06 0.000000000000D+00 -.110395658719D-06 0.886520341497D-07 0.000000000000D+00  6 2 -2 25 23 2 -2 4 0.30478627D+00 0.29984029D-02 0.24623238D+05 0.24623238D+05 0.24623238D+05 0.12240053D+01  1  2  5  7  6  2       21 -.273468257988D-03 0.100000000000D+01
0.744024578395D-07 0.000000000000D+00 0.000000000000D+00 0.873328404225D-07 0.000000000000D+00  6 2 2 25 23 2 2 4 0.30478627D+00 0.28687451D-02 0.30022495D+05 0.30022495D+05 0.30022495D+05 0.12148642D+01  1  2 12  8  6  2       21 0.634054656759D-04 0.100000000000D+01
-.377836236121D-06 0.000000000000D+00 -.110395658719D-06 0.886520341497D-07 0.000000000000D+00  6 2 2 25 23 2 2 4 0.30478627D+00 0.29984029D-02 0.24623238D+05 0.24623238D+05 0.24623238D+05 0.12240053D+01  1  2  5  8  6  2       21 -.312634346730D-03 0.100000000000D+01
0.744024578395D-07 0.000000000000D+00 0.000000000000D+00 0.873328404225D-07 0.000000000000D+00  6 2 -4 25 23 2 -4 4 0.30478627D+00 0.28687451D-02 0.30022495D+05 0.30022495D+05 0.30022495D+05 0.12148642D+01  1  2 12  9  6  2       21 0.387555815653D-04 0.100000000000D+01
-.377836236121D-06 0.000000000000D+00 -.110395658719D-06 0.886520341497D-07 0.000000000000D+00  6 2 -4 25 23 2 -4 4 0.30478627D+00 0.29984029D-02 0.24623238D+05 0.24623238D+05 0.24623238D+05 0.12240053D+01  1  2  5  9  6  2       21 -.188098693477D-03 0.100000000000D+01
0.744024578395D-07 0.000000000000D+00 0.000000000000D+00 0.873328404225D-07 0.000000000000D+00  6 2 4 25 23 2 4 4 0.30478627D+00 0.28687451D-02 0.30022495D+05 0.30022495D+05 0.30022495D+05 0.12148642D+01  1  2 12 10  6  2       21 0.387555815653D-04 0.100000000000D+01
-.377836236121D-06 0.000000000000D+00 -.110395658719D-06 0.886520341497D-07 0.000000000000D+00  6 2 4 25 23 2 4 4 0.30478627D+00 0.29984029D-02 0.24623238D+05 0.24623238D+05 0.24623238D+05 0.12240053D+01  1  2  5 10  6  2       21 -.188098693477D-03 0.100000000000D+01
  </mgrwgt>
  </event>
  <event>
  5     66 0.44822969E-03 0.20571267E+03 0.75467711E-02 0.10932406E+00
        2 -1    0    0  502    0 0.00000000E+00 0.00000000E+00 0.11503247E+04 0.11503248E+04 0.32000000E+00 0.0000E+00 0.9000E+01
       21 -1    0    0  501  502 0.00000000E+00 0.00000000E+00 -.78158240E+02 0.78161838E+02 0.75000000E+00 0.0000E+00 0.9000E+01
       25  1    1    2    0    0 -.22326289E+02 -.74876471E+02 0.91147695E+02 0.17331431E+03 0.12500000E+03 0.0000E+00 0.9000E+01
       23  1    1    2    0    0 0.11383771E+03 -.10936062E+03 0.43272582E+03 0.46955900E+03 0.91188000E+02 0.0000E+00 0.9000E+01
        2  1    1    2  501    0 -.91511421E+02 0.18423709E+03 0.54829298E+03 0.58561330E+03 0.32000000E+00 0.0000E+00 0.9000E+01
#aMCatNLO 1  0  0  1  2 0.33553123D+02 0.00000000D+00  -5  6  0 0.00000000D+00 0.00000000D+00 0.00000000D+00 0.00000000D+00 0.00000000D+00
  <mgrwgt>
 0.8719875320D-01    3    2    0
 0.299849285056653D+03 0.000000000000000D+00 0.000000000000000D+00 0.299849285056653D+03
 0.299849285056653D+03 0.000000000000000D+00 0.000000000000000D+00 -.299849285056653D+03
 0.192077884348458D+03 -.223262574963291D+02 -.748765333293620D+02 -.123142018168308D+03
 0.188249326482165D+03 0.113837740579809D+03 -.109360679928474D+03 0.469443083052089D+02
 0.219371359282684D+03 -.915114830834799D+02 0.184237213257837D+03 0.761977098630994D+02
 0.000000000000000D+00 -.000000000000000D+00 -.000000000000000D+00 -.000000000000000D+00
 0.300372243632202D+03 0.000000000000000D+00 0.000000000000000D+00 0.300372243632202D+03
 0.551229914754711D+04 0.000000000000000D+00 0.000000000000000D+00 -.551229914754711D+04
 0.188248363020171D+03 -.161158175577719D+02 -.662477921568312D+02 -.123142018168308D+03
 0.187298247022102D+03 0.119970148388778D+03 -.100840356042967D+03 0.469443083052089D+02
 0.225089874902875D+03 -.842537673222770D+02 0.194321032025395D+03 0.761977098630994D+02
 0.521203490623416D+04 -.196005635087290D+02 -.272328838255965D+02 -.521192690391491D+04
0.387854965893D-04 0.000000000000D+00 0.000000000000D+00 0.406554690132D-07 0.000000000000D+00  6 2 21 25 23 2 21 2 0.17697332D+00 0.12024625D-01 0.71670136D+05 0.71670136D+05 0.71670136D+05 0.11770993D+01  1  2  2  1  6  1        2 0.840415979225D-01 0.100000000000D+01
-.458126603450D-05 0.204676688676D-05 -.782967430170D-07 0.406554690132D-07 0.000000000000D+00  6 2 21 25 23 2 21 4 0.17697332D+00 0.12024625D-01 0.71670136D+05 0.71670136D+05 0.71670136D+05 0.11770993D+01  1  2  3  1  6  1        2 -.137542417314D-01 0.100000000000D+01
0.563285204752D-05 0.000000000000D+00 0.000000000000D+00 0.406554690132D-07 0.000000000000D+00  6 2 21 25 23 2 21 4 0.17697332D+00 0.12024625D-01 0.71670136D+05 0.71670136D+05 0.71670136D+05 0.11770993D+01  1  2 15  1  6  1        2 0.169113970058D-01 0.100000000000D+01
  </mgrwgt>
  </event>
  <event>
  5     66 0.44822969E-03 0.75964070E+02 0.75467711E-02 0.10576965E+00
        2 -1    0    0  502    0 0.00000000E+00 0.00000000E+00 0.14533644E+04 0.14533644E+04 0.32000000E+00 0.0000E+00 0.9000E+01
       21 -1    0    0  501  502 0.00000000E+00 0.00000000E+00 -.49722520E+02 0.49728176E+02 0.75000000E+00 0.0000E+00 0.9000E+01
       25  1    1    2    0    0 -.77511568E+02 -.39203612E+01 0.44216263E+03 0.46600022E+03 0.12500000E+03 0.0000E+00 0.9000E+01
       23  1    1    2    0    0 0.33861663E+02 -.58250498E+02 0.95405203E+03 0.96076546E+03 0.91188000E+02 0.0000E+00 0.9000E+01
        2  1    1    2  501    0 0.43649905E+02 0.62170859E+02 0.74271814E+01 0.76326898E+02 0.32000000E+00 0.0000E+00 0.9000E+01
#aMCatNLO 1  0  0  2  2 0.26891892D+02 0.00000000D+00  -5  6  0 0.00000000D+00 0.00000000D+00 0.00000000D+00 0.00000000D+00 0.00000000D+00
  <mgrwgt>
 0.5387040478D-01   12    2    0
 0.268829342209514D+03 0.000000000000000D+00 0.000000000000000D+00 0.268829342209514D+03
 0.268829342209514D+03 0.000000000000000D+00 0.000000000000000D+00 -.268829342209514D+03
 0.148427824069534D+03 -.775115841930401D+02 -.392038458452735D+01 0.195551491585002D+02
 0.195239313766262D+03 0.338616414286077D+02 -.582505287838934D+02 0.158944655248543D+03
 0.193991546583232D+03 0.436499427644324D+02 0.621709133684207D+02 -.178499804407043D+03
 0.000000000000000D+00 -.000000000000000D+00 0.000000000000000D+00 -.000000000000000D+00
 0.424283728231111D+03 0.000000000000000D+00 0.000000000000000D+00 0.424283728231111D+03
 0.459964484096912D+03 0.000000000000000D+00 0.000000000000000D+00 -.459964484096912D+03
 0.142018112912614D+03 -.308258417644090D+02 -.566701686618663D+02 0.195551491585002D+02
 0.253690170941528D+03 0.106021736038484D+03 -.139783545325084D+03 0.158944655248543D+03
 0.209155051284008D+03 0.108450980866631D+03 -.110471739974144D+02 -.178499804407043D+03
 0.279384877189874D+03 -.183646875140706D+03 0.207500887984364D+03 -.356807558658011D+02
0.108640017705D-04 0.000000000000D+00 0.000000000000D+00 0.477909899431D-06 0.000000000000D+00  6 2 21 25 23 2 21 2 0.22359495D+00 0.76500562D-02 0.28304345D+05 0.28304345D+05 0.28304345D+05 0.12175594D+01  1  2  2  2  6  2       21 0.390570424987D-01 0.100000000000D+01
0.361178818470D-06 0.573309124208D-06 -.219312895170D-07 0.477909899431D-06 0.000000000000D+00  6 2 21 25 23 2 21 4 0.22359495D+00 0.76500562D-02 0.28304345D+05 0.28304345D+05 0.28304345D+05 0.12175594D+01  1  2  3  2  6  2       21 0.192491734499D-02 0.100000000000D+01
0.114793483562D-05 0.000000000000D+00 0.000000000000D+00 0.477909899431D-06 0.000000000000D+00  6 2 21 25 23 2 21 4 0.22359495D+00 0.76500562D-02 0.28304345D+05 0.28304345D+05 0.28304345D+05 0.12175594D+01  1  2 15  2  6  2       21 0.611796584685D-02 0.100000000000D+01
0.720385088554D-05 0.000000000000D+00 -.250065403964D-04 0.477909899431D-06 0.000000000000D+00  6 2 21 25 23 2 21 4 0.22359495D+00 0.22022442D-01 0.28304345D+05 0.28304345D+05 0.28304345D+05 0.12175594D+01  1  2  5  2  6  2       21 0.573839489500D-02 0.100000000000D+01
0.211327573480D-05 0.000000000000D+00 -.864788134527D-05 0.477909899431D-06 0.000000000000D+00  6 2 -1 25 23 2 -1 4 0.22359495D+00 0.22022442D-01 0.28304345D+05 0.28304345D+05 0.28304345D+05 0.12175594D+01  1  2  5  5  6  2       21 0.135705193705D-03 0.100000000000D+01
0.211327573480D-05 0.000000000000D+00 -.864788134527D-05 0.477909899431D-06 0.000000000000D+00  6 2 -3 25 23 2 -3 4 0.22359495D+00 0.22022442D-01 0.28304345D+05 0.28304345D+05 0.28304345D+05 0.12175594D+01  1  2  5  5  6  2       21 0.804140830047D-04 0.100000000000D+01
0.211327573480D-05 0.000000000000D+00 -.864788134527D-05 0.477909899431D-06 0.000000000000D+00  6 2 1 25 23 2 1 4 0.22359495D+00 0.22022442D-01 0.28304345D+05 0.28304345D+05 0.28304345D+05 0.12175594D+01  1  2  5  6  6  2       21 0.210990258048D-03 0.100000000000D+01
0.211327573480D-05 0.000000000000D+00 -.864788134527D-05 0.477909899431D-06 0.000000000000D+00  6 2 3 25 23 2 3 4 0.22359495D+00 0.22022442D-01 0.28304345D+05 0.28304345D+05 0.28304345D+05 0.12175594D+01  1  2  5  6  6  2       21 0.804084532435D-04 0.100000000000D+01
0.211327573480D-05 0.000000000000D+00 -.864788134527D-05 0.477909899431D-06 0.000000000000D+00  6 2 -2 25 23 2 -2 4 0.22359495D+00 0.22022442D-01 0.28304345D+05 0.28304345D+05 0.28304345D+05 0.12175594D+01  1  2  5  7  6  2       21 0.123082208751D-03 0.100000000000D+01
0.211327573480D-05 0.000000000000D+00 -.864788134527D-05 0.477909899431D-06 0.000000000000D+00  6 2 2 25 23 2 2 4 0.22359495D+00 0.22022442D-01 0.28304345D+05 0.28304345D+05 0.28304345D+05 0.12175594D+01  1  2  5  8  6  2       21 0.264390436891D-03 0.100000000000D+01
0.211327573480D-05 0.000000000000D+00 -.864788134527D-05 0.477909899431D-06 0.000000000000D+00  6 2 -4 25 23 2 -4 4 0.22359495D+00 0.22022442D-01 0.28304345D+05 0.28304345D+05 0.28304345D+05 0.12175594D+01  1  2  5  9  6  2       21 0.685467810890D-04 0.100000000000D+01
0.211327573480D-05 0.000000000000D+00 -.864788134527D-05 0.477909899431D-06 0.000000000000D+00  6 2 4 25 23 2 4 4 0.22359495D+00 0.22022442D-01 0.28304345D+05 0.28304345D+05 0.28304345D+05 0.12175594D+01  1  2  5 10  6  2       21 0.685467810890D-04 0.100000000000D+01
  </mgrwgt>
  </event>
  <event>
  6     66 -.44822969E-03 0.57646825E+02 0.75467711E-02 0.11971028E+00
        2 -1    0    0  502    0 0.00000000E+00 0.00000000E+00 0.15096998E+03 0.15097032E+03 0.32000000E+00 0.0000E+00 0.9000E+01
       21 -1    0    0  501  503 0.00000000E+00 0.00000000E+00 -.29453211E+03 0.29453307E+03 0.75000000E+00 0.0000E+00 0.9000E+01
       25  1    1    2    0    0 -.12341171E+02 0.40138221E+01 0.34381511E+02 0.13029007E+03 0.12500000E+03 0.0000E+00 0.9000E+01
       23  1    1    2    0    0 0.33873546E+02 -.63714007E+02 0.86191974E+01 0.11660375E+03 0.91188000E+02 0.0000E+00 0.9000E+01
        2  1    1    2  501    0 -.18912412E+02 0.47702059E+02 -.17226992E+03 0.17975037E+03 0.32000000E+00 0.0000E+00 0.9000E+01
       21  1    1    2  502  503 -.26199629E+01 0.11998126E+02 -.14292921E+02 0.18859197E+02 0.75000000E+00 0.0000E+00 0.9000E+01
#aMCatNLO 2  0  0  2  1 0.12280848D+02 0.00000000D+00  -5  6  0 0.00000000D+00 0.00000000D+00 0.00000000D+00 0.00000000D+00 0.00000000D+00
  <mgrwgt>
 -.3692958018D-01    3    2    0
 0.203201818045481D+03 0.000000000000000D+00 0.000000000000000D+00 0.203201818045481D+03
 0.203201818045481D+03 0.000000000000000D+00 0.000000000000000D+00 -.203201818045481D+03
 0.147913270337885D+03 -.132936306107805D+02 0.837565048791786D+01 0.775013768015551D+02
 0.123053373189747D+03 0.330738747796912D+02 -.600518761821881D+02 0.461169413928492D+02
 0.135436992563331D+03 -.197802441689107D+02 0.516762256942702D+02 -.123618318194404D+03
 0.000000000000000D+00 -.000000000000000D+00 0.000000000000000D+00 -.000000000000000D+00
 0.206407070758044D+03 0.000000000000000D+00 0.000000000000000D+00 0.206407070758044D+03
 0.215408579308392D+03 0.000000000000000D+00 0.000000000000000D+00 -.215408579308392D+03
 0.147647816595346D+03 -.123411509715216D+02 0.401376779776373D+01 0.775013768015551D+02
 0.125095653322383D+03 0.338735635943021D+02 -.637140529408166D+02 0.461169413928492D+02
 0.133845677330268D+03 -.189124497547669D+02 0.477021591865478D+02 -.123618318194404D+03
 0.152265028184383D+02 -.261996286801364D+01 0.119981259565050D+02 -.900150855034744D+01
-.135652530637D-04 0.000000000000D+00 0.000000000000D+00 0.921109498665D-06 0.000000000000D+00  6 2 21 25 23 2 21 4 0.22864561D-01 0.45634450D-01 0.23340501D+05 0.23340501D+05 0.23340501D+05 0.12265088D+01  1  2 13  2  6  2       21 -.415047424730D-01 0.100000000000D+01
-.277838673016D-06 0.000000000000D+00 0.000000000000D+00 0.925898995950D-06 0.000000000000D+00  6 2 21 25 23 2 21 4 0.22864561D-01 0.42743059D-01 0.21815444D+05 0.21815444D+05 0.21815444D+05 0.12296934D+01  1  2  8  2  6  2       21 -.981926510370D-03 0.100000000000D+01
0.182157060884D-05 0.000000000000D+00 0.000000000000D+00 0.925898995950D-06 0.612792495575D-07  6 2 21 25 23 2 21 4 0.23225221D-01 0.45310724D-01 0.23340501D+05 0.23340501D+05 0.23340501D+05 0.12265088D+01  1  2  1  2  6  2       21 0.555708880562D-02 0.100000000000D+01
  </mgrwgt>
  </event>
  <event>
  5     66 0.44822969E-03 0.49824142E+02 0.75467711E-02 0.11556725E+00
        2 -1    0    0  502    0 0.00000000E+00 0.00000000E+00 0.30939492E+03 0.30939508E+03 0.32000000E+00 0.0000E+00 0.9000E+01
       21 -1    0    0  501  502 0.00000000E+00 0.00000000E+00 -.10313980E+03 0.10314252E+03 0.75000000E+00 0.0000E+00 0.9000E+01
       25  1    1    2    0    0 0.22877125E+01 -.57283466E+02 0.65555690E+02 0.15234559E+03 0.12500000E+03 0.0000E+00 0.9000E+01
       23  1    1    2    0    0 0.45196611E+02 0.42195186E+02 0.16985938E+03 0.20246142E+03 0.91188000E+02 0.0000E+00 0.9000E+01
        2  1    1    2  501    0 -.47484324E+02 0.15088280E+02 -.29159949E+02 0.57730600E+02 0.32000000E+00 0.0000E+00 0.9000E+01
#aMCatNLO 1  0  0  2  1 0.81760146D+02 0.00000000D+00  -5  6  0 0.00000000D+00 0.00000000D+00 0.00000000D+00 0.00000000D+00 0.00000000D+00
  <mgrwgt>
 0.6838670529D-01    4    2    0
 0.178637974729160D+03 0.000000000000000D+00 0.000000000000000D+00 0.178637974729160D+03
 0.178637974729160D+03 0.000000000000000D+00 0.000000000000000D+00 -.178637974729160D+03
 0.138064396142797D+03 0.228784723749208D+01 -.572835090212716D+02 -.122532783981685D+02
 0.135717599923716D+03 0.451967437354420D+02 0.421951438630103D+02 0.792517493507016D+02
 0.834939533918073D+02 -.474845909729340D+02 0.150883651582613D+02 -.669984709525331D+02
 0.000000000000000D+00 0.000000000000000D+00 0.000000000000000D+00 0.000000000000000D+00
 0.233022908101056D+03 0.000000000000000D+00 0.000000000000000D+00 0.233022908101056D+03
 0.216835900910584D+03 0.000000000000000D+00 0.000000000000000D+00 -.216835900910584D+03
 0.154729078459082D+03 0.161834192221527D+01 -.903511253871052D+02 -.122532783981685D+02
 0.129362506338034D+03 0.445906081637469D+02 0.122574300119868D+02 0.792517493507016D+02
 0.824201143173485D+02 -.478639722086720D+02 -.364969841423230D+01 -.669984709525331D+02
 0.833471098971757D+02 0.165502212270981D+01 0.817433937893507D+02 0.161870071904713D+02
0.996170666166D-05 0.000000000000D+00 0.000000000000D+00 0.370194097659D-06 0.000000000000D+00  6 2 21 25 23 2 21 2 0.47599441D-01 0.15867884D-01 0.22129278D+05 0.22129278D+05 0.22129278D+05 0.12290181D+01  1  2  2  2  6  2       21 0.698585089925D-01 0.100000000000D+01
0.167562431417D-06 0.525693703155D-06 -.201098156550D-07 0.370194097659D-06 0.000000000000D+00  6 2 21 25 23 2 21 4 0.47599441D-01 0.15867884D-01 0.22129278D+05 0.22129278D+05 0.22129278D+05 0.12290181D+01  1  2  3  2  6  2       21 0.177491986793D-02 0.100000000000D+01
0.898931858038D-06 0.000000000000D+00 0.000000000000D+00 0.370194097659D-06 0.000000000000D+00  6 2 21 25 23 2 21 4 0.47599441D-01 0.15867884D-01 0.22129278D+05 0.22129278D+05 0.22129278D+05 0.12290181D+01  1  2 15  2  6  2       21 0.952201517521D-02 0.100000000000D+01
-.120544084790D-05 0.000000000000D+00 0.000000000000D+00 0.370194097659D-06 0.000000000000D+00  6 2 21 25 23 2 21 4 0.47599441D-01 0.15867884D-01 0.22129278D+05 0.22129278D+05 0.22129278D+05 0.12290181D+01  1  2  4  2  6  2       21 -.127687387469D-01 0.100000000000D+01
  </mgrwgt>
  </event>
  <event>
  5     66 0.44822969E-03 0.38521684E+02 0.75467711E-02 0.12068969E+00
        2 -1    0    0  502    0 0.00000000E+00 0.00000000E+00 0.47453519E+03 0.47453530E+03 0.32000000E+00 0.0000E+00 0.9000E+01
       21 -1    0    0  501  502 0.00000000E+00 0.00000000E+00 -.41300738E+02 0.41307548E+02 0.75000000E+00 0.0000E+00 0.9000E+01
       25  1    1    2    0    0 0.51739096E+01 -.75172021E+01 0.28153867E+03 0.30817577E+03 0.12500000E+03 0.0000E+00 0.9000E+01
       23  1    1    2    0    0 0.31824799E+02 0.19259718E+02 0.13033553E+03 0.16335959E+03 0.91188000E+02 0.0000E+00 0.9000E+01
        2  1    1    2  501    0 -.36998708E+02 -.11742516E+02 0.21360252E+02 0.44307492E+02 0.32000000E+00 0.0000E+00 0.9000E+01
#aMCatNLO 1  0  0  2  1 0.25186138D+02 0.00000000D+00  -5  6  0 0.00000000D+00 0.00000000D+00 0.00000000D+00 0.00000000D+00 0.00000000D+00
  <mgrwgt>
 0.8219379629D-01   23    2    0
 0.140001564371906D+03 0.000000000000000D+00 0.000000000000000D+00 0.140001564371906D+03
 0.140001564371906D+03 0.000000000000000D+00 0.000000000000000D+00 -.140001564371906D+03
 0.132134380054570D+03 0.517428842836821D+01 -.751708181577438D+01 0.418475162063491D+02
 0.992919529970441D+02 0.318250834157178D+02 0.192598085414038D+02 -.126437504917760D+02
 0.485767956921968D+02 -.369993718440860D+02 -.117427267256294D+02 -.292037657145731D+02
 0.000000000000000D+00 0.000000000000000D+00 0.000000000000000D+00 -.000000000000000D+00
 0.148325497764674D+03 0.000000000000000D+00 0.000000000000000D+00 0.148325497764674D+03
 0.161006467949260D+03 0.000000000000000D+00 0.000000000000000D+00 -.161006467949260D+03
 0.132544068876829D+03 -.551520268631591D+01 -.127003197248608D+02 0.418475162063491D+02
 0.963611568658767D+02 0.239232984842893D+02 0.154283042381011D+02 -.126437504917760D+02
 0.522283611346254D+02 -.410705602334888D+02 -.137168092865848D+02 -.292037657145731D+02
 0.281983788366040D+02 0.226624644355155D+02 0.109888247733446D+02 -.126809701845861D+02
0.798788917292D-06 0.000000000000D+00 0.000000000000D+00 0.484954396392D-06 0.000000000000D+00  6 2 21 25 23 2 21 2 0.73005947D-01 0.63544919D-02 0.17244210D+05 0.17244210D+05 0.17244210D+05 0.12409781D+01  1  2  2  2  6  2       21 0.179664244625D-01 0.100000000000D+01
0.562845855053D-08 0.421532492606D-07 -.161252468272D-08 0.484954396392D-06 0.000000000000D+00  6 2 21 25 23 2 21 4 0.73005947D-01 0.63544919D-02 0.17244210D+05 0.17244210D+05 0.17244210D+05 0.12409781D+01  1  2  3  2  6  2       21 0.194960804966D-03 0.100000000000D+01
0.627693120212D-07 0.000000000000D+00 0.000000000000D+00 0.484954396392D-06 0.000000000000D+00  6 2 21 25 23 2 21 4 0.73005947D-01 0.63544919D-02 0.17244210D+05 0.17244210D+05 0.17244210D+05 0.12409781D+01  1  2 15  2  6  2       21 0.217422860788D-02 0.100000000000D+01
0.137238892894D-05 0.000000000000D+00 0.000000000000D+00 0.477587268818D-06 0.000000000000D+00  6 2 21 25 23 2 21 4 0.73005947D-01 0.74756481D-02 0.20993012D+05 0.20993012D+05 0.20993012D+05 0.12315159D+01  1  2 12  2  6  2       21 0.350105971736D-01 0.100000000000D+01
-.763410276073D-06 0.000000000000D+00 0.000000000000D+00 0.484954396392D-06 0.000000000000D+00  6 2 21 25 23 2 21 4 0.73005947D-01 0.63544919D-02 0.17244210D+05 0.17244210D+05 0.17244210D+05 0.12409781D+01  1  2  4  2  6  2       21 -.264433113625D-01 0.100000000000D+01
-.600947470943D-05 0.000000000000D+00 -.146562289660D-05 0.484954396392D-06 0.000000000000D+00  6 2 21 25 23 2 21 4 0.73005947D-01 0.77353503D-02 0.17244210D+05 0.17244210D+05 0.17244210D+05 0.12409781D+01  1  2  5  2  6  2       21 -.148669024920D+00 0.100000000000D+01
0.589248265429D-05 0.000000000000D+00 0.135820522771D-05 0.484954396392D-06 0.000000000000D+00  6 2 21 25 23 2 21 4 0.73005947D-01 0.63544919D-02 0.17244210D+05 0.17244210D+05 0.17244210D+05 0.12409781D+01  1  2  6  2  6  2       21 0.204106177778D+00 0.100000000000D+01
0.614318196146D-07 0.000000000000D+00 0.000000000000D+00 0.477587268818D-06 0.000000000000D+00  6 2 -1 25 23 2 -1 4 0.73005947D-01 0.74756481D-02 0.20993012D+05 0.20993012D+05 0.20993012D+05 0.12315159D+01  1  2 12  5  6  2       21 0.976372959004D-04 0.100000000000D+01
0.614318196146D-07 0.000000000000D+00 0.000000000000D+00 0.477587268818D-06 0.000000000000D+00  6 2 -3 25 23 2 -3 4 0.73005947D-01 0.74756481D-02 0.20993012D+05 0.20993012D+05 0.20993012D+05 0.12315159D+01  1  2 12  5  6  2       21 0.665997163611D-04 0.100000000000D+01
-.260301844835D-06 0.000000000000D+00 -.823842139235D-07 0.484954396392D-06 0.000000000000D+00  6 2 -1 25 23 2 -1 4 0.73005947D-01 0.77353503D-02 0.17244210D+05 0.17244210D+05 0.17244210D+05 0.12409781D+01  1  2  5  5  6  2       21 -.402941432189D-03 0.100000000000D+01
-.260301844835D-06 0.000000000000D+00 -.823842139235D-07 0.484954396392D-06 0.000000000000D+00  6 2 -3 25 23 2 -3 4 0.73005947D-01 0.77353503D-02 0.17244210D+05 0.17244210D+05 0.17244210D+05 0.12409781D+01  1  2  5  5  6  2       21 -.272526229783D-03 0.100000000000D+01
0.614318196146D-07 0.000000000000D+00 0.000000000000D+00 0.477587268818D-06 0.000000000000D+00  6 2 1 25 23 2 1 4 0.73005947D-01 0.74756481D-02 0.20993012D+05 0.20993012D+05 0.20993012D+05 0.12315159D+01  1  2 12  6  6  2       21 0.116149223471D-03 0.100000000000D+01
0.614318196146D-07 0.000000000000D+00 0.000000000000D+00 0.477587268818D-06 0.000000000000D+00  6 2 3 25 23 2 3 4 0.73005947D-01 0.74756481D-02 0.20993012D+05 0.20993012D+05 0.20993012D+05 0.12315159D+01  1  2 12  6  6  2       21 0.665919286154D-04 0.100000000000D+01
-.260301844835D-06 0.000000000000D+00 -.823842139235D-07 0.484954396392D-06 0.000000000000D+00  6 2 1 25 23 2 1 4 0.73005947D-01 0.77353503D-02 0.17244210D+05 0.17244210D+05 0.17244210D+05 0.12409781D+01  1  2  5  6  6  2       21 -.482130128724D-03 0.100000000000D+01
-.260301844835D-06 0.000000000000D+00 -.823842139235D-07 0.484954396392D-06 0.000000000000D+00  6 2 3 25 23 2 3 4 0.73005947D-01 0.77353503D-02 0.17244210D+05 0.17244210D+05 0.17244210D+05 0.12409781D+01  1  2  5  6  6  2       21 -.272493423481D-03 0.100000000000D+01
0.614318196146D-07 0.000000000000D+00 0.000000000000D+00 0.477587268818D-06 0.000000000000D+00  6 2 -2 25 23 2 -2 4 0.73005947D-01 0.74756481D-02 0.20993012D+05 0.20993012D+05 0.20993012D+05 0.12315159D+01  1  2 12  7  6  2       21 0.944058813563D-04 0.100000000000D+01
-.260301844835D-06 0.000000000000D+00 -.823842139235D-07 0.484954396392D-06 0.000000000000D+00  6 2 -2 25 23 2 -2 4 0.73005947D-01 0.77353503D-02 0.17244210D+05 0.17244210D+05 0.17244210D+05 0.12409781D+01  1  2  5  7  6  2       21 -.389117920234D-03 0.100000000000D+01
0.614318196146D-07 0.000000000000D+00 0.000000000000D+00 0.477587268818D-06 0.000000000000D+00  6 2 2 25 23 2 2 4 0.73005947D-01 0.74756481D-02 0.20993012D+05 0.20993012D+05 0.20993012D+05 0.12315159D+01  1  2 12  8  6  2       21 0.128587711262D-03 0.100000000000D+01
-.260301844835D-06 0.000000000000D+00 -.823842139235D-07 0.484954396392D-06 0.000000000000D+00  6 2 2 25 23 2 2 4 0.73005947D-01 0.77353503D-02 0.17244210D+05 0.17244210D+05 0.17244210D+05 0.12409781D+01  1  2  5  8  6  2       21 -.535301420047D-03 0.100000000000D+01
0.614318196146D-07 0.000000000000D+00 0.000000000000D+00 0.477587268818D-06 0.000000000000D+00  6 2 -4 25 23 2 -4 4 0.73005947D-01 0.74756481D-02 0.20993012D+05 0.20993012D+05 0.20993012D+05 0.12315159D+01  1  2 12  9  6  2       21 0.587292609574D-04 0.100000000000D+01
-.260301844835D-06 0.000000000000D+00 -.823842139235D-07 0.484954396392D-06 0.000000000000D+00  6 2 -4 25 23 2 -4 4 0.73005947D-01 0.77353503D-02 0.17244210D+05 0.17244210D+05 0.17244210D+05 0.12409781D+01  1  2  5  9  6  2       21 -.239587987514D-03 0.100000000000D+01
0.614318196146D-07 0.000000000000D+00 0.000000000000D+00 0.477587268818D-06 0.000000000000D+00  6 2 4 25 23 2 4 4 0.73005947D-01 0.74756481D-02 0.20993012D+05 0.20993012D+05 0.20993012D+05 0.12315159D+01  1  2 12 10  6  2       21 0.587292609574D-04 0.100000000000D+01
-.260301844835D-06 0.000000000000D+00 -.823842139235D-07 0.484954396392D-06 0.000000000000D+00  6 2 4 25 23 2 4 4 0.73005947D-01 0.77353503D-02 0.17244210D+05 0.17244210D+05 0.17244210D+05 0.12409781D+01  1  2  5 10  6  2       21 -.239587987514D-03 0.100000000000D+01
  </mgrwgt>
  </event>
  <event>
  5     66 -.44822969E-03 0.24661632E+02 0.75467711E-02 0.12361010E+00
        2 -1    0    0  502    0 0.00000000E+00 0.00000000E+00 0.16013034E+03 0.16013066E+03 0.32000000E+00 0.0000E+00 0.9000E+01
       21 -1    0    0  501  502 0.00000000E+00 0.00000000E+00 -.14012727E+03 0.14012928E+03 0.75000000E+00 0.0000E+00 0.9000E+01
       25  1    1    2    0    0 -.33300315E+01 0.12126094E+02 0.22485276E+02 0.12762727E+03 0.12500000E+03 0.0000E+00 0.9000E+01
       23  1    1    2    0    0 -.18437999E+02 -.23716515E+02 0.54601258E+02 0.11044900E+03 0.91188000E+02 0.0000E+00 0.9000E+01
        2  1    1    2  501    0 0.21768031E+02 0.11590420E+02 -.57083462E+02 0.62183672E+02 0.32000000E+00 0.0000E+00 0.9000E+01
#aMCatNLO 1  0  0  2  5 0.26972853D+01 0.00000000D+00  -5  6  0 0.00000000D+00 0.00000000D+00 0.00000000D+00 0.00000000D+00 0.00000000D+00
  <mgrwgt>
 -.1174685264D+00   41    2    0
 0.149796451295742D+03 0.000000000000000D+00 0.000000000000000D+00 0.149796451295742D+03
 0.149796451295742D+03 0.000000000000000D+00 0.000000000000000D+00 -.149796451295742D+03
 0.126410169097816D+03 -.333013900118959D+01 0.121260372345633D+02 0.140142872297186D+02
 0.107049461608605D+03 -.184380903455894D+02 -.237165630702122D+02 0.473486784106659D+02
 0.661332718850642D+02 0.217682293467790D+02 0.115905258356489D+02 -.613629656403845D+02
 0.000000000000000D+00 0.000000000000000D+00 0.000000000000000D+00 -.000000000000000D+00
 0.149840557048822D+03 0.000000000000000D+00 0.000000000000000D+00 0.149840557048822D+03
 0.197622800483169D+03 0.000000000000000D+00 0.000000000000000D+00 -.197622800483169D+03
 0.126432060727185D+03 -.446020846579395D+01 0.119905076459302D+02 0.140142872297186D+02
 0.107244046036128D+03 -.193958676505115D+02 -.238314296055925D+02 0.473486784106659D+02
 0.659289376388246D+02 0.211779819402662D+02 0.115197372773328D+02 -.613629656403845D+02
 0.478583131298537D+02 0.267809417603926D+01 0.321184682329477D+00 -.477822434343474D+02
0.150646583012D-06 0.000000000000D+00 0.000000000000D+00 0.182576457520D-05 0.000000000000D+00  6 2 21 25 23 2 21 2 0.24635616D-01 0.21558220D-01 0.15166090D+05 0.15166090D+05 0.15166090D+05 0.12472777D+01  1  2  2  2  6  2       21 0.125446780153D-02 0.100000000000D+01
0.178474131081D-07 0.794983859502D-08 -.304112047896D-09 0.182576457520D-05 0.000000000000D+00  6 2 21 25 23 2 21 4 0.24635616D-01 0.21558220D-01 0.15166090D+05 0.15166090D+05 0.15166090D+05 0.12472777D+01  1  2  3  2  6  2       21 0.231207452692D-03 0.100000000000D+01
0.119993818386D-07 0.000000000000D+00 0.000000000000D+00 0.182576457520D-05 0.000000000000D+00  6 2 21 25 23 2 21 4 0.24635616D-01 0.21558220D-01 0.15166090D+05 0.15166090D+05 0.15166090D+05 0.12472777D+01  1  2 15  2  6  2       21 0.155448102870D-03 0.100000000000D+01
0.394099500809D-06 0.000000000000D+00 0.000000000000D+00 0.182298153805D-05 0.000000000000D+00  6 2 21 25 23 2 21 4 0.24635616D-01 0.28443691D-01 0.15460968D+05 0.15460968D+05 0.15460968D+05 0.12463267D+01  1  2 12  2  6  2       21 0.301783463975D-02 0.100000000000D+01
0.380653610299D-06 0.000000000000D+00 0.000000000000D+00 0.182298153805D-05 0.000000000000D+00  6 2 21 25 23 2 21 4 0.24635616D-01 0.28665070D-01 0.15460968D+05 0.15460968D+05 0.15460968D+05 0.12463267D+01  1  2 12  2  6  2       21 0.287188657614D-02 0.100000000000D+01
-.103382648800D-03 0.000000000000D+00 0.000000000000D+00 0.182576457520D-05 0.000000000000D+00  6 2 21 25 23 2 21 4 0.24635616D-01 0.21558220D-01 0.15166090D+05 0.15166090D+05 0.15166090D+05 0.12472777D+01  1  2  4  2  6  2       21 -.133928871018D+01 0.100000000000D+01
-.972375540236D-04 0.000000000000D+00 -.215858150167D-06 0.182576457520D-05 0.000000000000D+00  6 2 21 25 23 2 21 4 0.24635616D-01 0.28444798D-01 0.15166090D+05 0.15166090D+05 0.15166090D+05 0.12472777D+01  1  2  5  2  6  2       21 -.746777274076D+00 0.100000000000D+01
0.890644727161D-04 0.000000000000D+00 0.185979363746D-06 0.182576457520D-05 0.000000000000D+00  6 2 21 25 23 2 21 4 0.24635616D-01 0.21558220D-01 0.15166090D+05 0.15166090D+05 0.15166090D+05 0.12472777D+01  1  2  6  2  6  2       21 0.115380137936D+01 0.100000000000D+01
0.105774773265D-03 0.000000000000D+00 0.000000000000D+00 0.182576457520D-05 0.577664946591D-05  6 2 21 25 23 2 21 4 0.24642870D-01 0.28441234D-01 0.15460968D+05 0.15460968D+05 0.15460968D+05 0.12463267D+01  1  2 11  2  6  2       21 0.809846406817D+00 0.100000000000D+01
0.247938509135D-07 0.000000000000D+00 0.000000000000D+00 0.182298153805D-05 0.000000000000D+00  6 2 -1 25 23 2 -1 4 0.24635616D-01 0.28443691D-01 0.15460968D+05 0.15460968D+05 0.15460968D+05 0.12463267D+01  1  2 12  5  6  2       21 0.161258628711D-04 0.100000000000D+01
0.247938509135D-07 0.000000000000D+00 0.000000000000D+00 0.182298153805D-05 0.000000000000D+00  6 2 -3 25 23 2 -3 4 0.24635616D-01 0.28443691D-01 0.15460968D+05 0.15460968D+05 0.15460968D+05 0.12463267D+01  1  2 12  5  6  2       21 0.903155870707D-05 0.100000000000D+01
0.246268535918D-07 0.000000000000D+00 0.000000000000D+00 0.182298153805D-05 0.000000000000D+00  6 2 -1 25 23 2 -1 4 0.24635616D-01 0.28665070D-01 0.15460968D+05 0.15460968D+05 0.15460968D+05 0.12463267D+01  1  2 12  5  6  2       21 0.158117523569D-04 0.100000000000D+01
0.246268535918D-07 0.000000000000D+00 0.000000000000D+00 0.182298153805D-05 0.000000000000D+00  6 2 -3 25 23 2 -3 4 0.24635616D-01 0.28665070D-01 0.15460968D+05 0.15460968D+05 0.15460968D+05 0.12463267D+01  1  2 12  5  6  2       21 0.884408708925D-05 0.100000000000D+01
-.611550212834D-05 0.000000000000D+00 -.184403996283D-07 0.182576457520D-05 0.000000000000D+00  6 2 -1 25 23 2 -1 4 0.24635616D-01 0.28444798D-01 0.15166090D+05 0.15166090D+05 0.15166090D+05 0.12472777D+01  1  2  5  5  6  2       21 -.398766787242D-02 0.100000000000D+01
-.611550212834D-05 0.000000000000D+00 -.184403996283D-07 0.182576457520D-05 0.000000000000D+00  6 2 -3 25 23 2 -3 4 0.24635616D-01 0.28444798D-01 0.15166090D+05 0.15166090D+05 0.15166090D+05 0.12472777D+01  1  2  5  5  6  2       21 -.223224404096D-02 0.100000000000D+01
0.548072963042D-05 0.000000000000D+00 0.000000000000D+00 0.182576457520D-05 0.290534950397D-06  6 2 -1 25 23 2 -1 4 0.24642870D-01 0.28441234D-01 0.15460968D+05 0.15460968D+05 0.15460968D+05 0.12463267D+01  1  2 11  5  6  2       21 0.356401028039D-02 0.100000000000D+01
0.548072963042D-05 0.000000000000D+00 0.000000000000D+00 0.182576457520D-05 0.290534950397D-06  6 2 -3 25 23 2 -3 4 0.24642870D-01 0.28441234D-01 0.15460968D+05 0.15460968D+05 0.15460968D+05 0.12463267D+01  1  2 11  5  6  2       21 0.199611246710D-02 0.100000000000D+01
0.247938509135D-07 0.000000000000D+00 0.000000000000D+00 0.182298153805D-05 0.000000000000D+00  6 2 1 25 23 2 1 4 0.24635616D-01 0.28443691D-01 0.15460968D+05 0.15460968D+05 0.15460968D+05 0.12463267D+01  1  2 12  6  6  2       21 0.276978473584D-04 0.100000000000D+01
0.247938509135D-07 0.000000000000D+00 0.000000000000D+00 0.182298153805D-05 0.000000000000D+00  6 2 3 25 23 2 3 4 0.24635616D-01 0.28443691D-01 0.15460968D+05 0.15460968D+05 0.15460968D+05 0.12463267D+01  1  2 12  6  6  2       21 0.903149513007D-05 0.100000000000D+01
0.246268535918D-07 0.000000000000D+00 0.000000000000D+00 0.182298153805D-05 0.000000000000D+00  6 2 1 25 23 2 1 4 0.24635616D-01 0.28665070D-01 0.15460968D+05 0.15460968D+05 0.15460968D+05 0.12463267D+01  1  2 12  6  6  2       21 0.272474664286D-04 0.100000000000D+01
0.246268535918D-07 0.000000000000D+00 0.000000000000D+00 0.182298153805D-05 0.000000000000D+00  6 2 3 25 23 2 3 4 0.24635616D-01 0.28665070D-01 0.15460968D+05 0.15460968D+05 0.15460968D+05 0.12463267D+01  1  2 12  6  6  2       21 0.884405175085D-05 0.100000000000D+01
-.611550212834D-05 0.000000000000D+00 -.184403996283D-07 0.182576457520D-05 0.000000000000D+00  6 2 1 25 23 2 1 4 0.24635616D-01 0.28444798D-01 0.15166090D+05 0.15166090D+05 0.15166090D+05 0.12472777D+01  1  2  5  6  6  2       21 -.684936049780D-02 0.100000000000D+01
-.611550212834D-05 0.000000000000D+00 -.184403996283D-07 0.182576457520D-05 0.000000000000D+00  6 2 3 25 23 2 3 4 0.24635616D-01 0.28444798D-01 0.15166090D+05 0.15166090D+05 0.15166090D+05 0.12472777D+01  1  2  5  6  6  2       21 -.223222749626D-02 0.100000000000D+01
0.547711670857D-05 0.000000000000D+00 0.000000000000D+00 0.182576457520D-05 0.290343428439D-06  6 2 1 25 23 2 1 4 0.24642870D-01 0.28441234D-01 0.15460968D+05 0.15460968D+05 0.15460968D+05 0.12463267D+01  1  2 11  6  6  2       21 0.611730025897D-02 0.100000000000D+01
0.547711670857D-05 0.000000000000D+00 0.000000000000D+00 0.182576457520D-05 0.290343428439D-06  6 2 3 25 23 2 3 4 0.24642870D-01 0.28441234D-01 0.15460968D+05 0.15460968D+05 0.15460968D+05 0.12463267D+01  1  2 11  6  6  2       21 0.199478251140D-02 0.100000000000D+01
0.247938509135D-07 0.000000000000D+00 0.000000000000D+00 0.182298153805D-05 0.000000000000D+00  6 2 -2 25 23 2 -2 4 0.24635616D-01 0.28443691D-01 0.15460968D+05 0.15460968D+05 0.15460968D+05 0.12463267D+01  1  2 12  7  6  2       21 0.142318326256D-04 0.100000000000D+01
0.246268535918D-07 0.000000000000D+00 0.000000000000D+00 0.182298153805D-05 0.000000000000D+00  6 2 -2 25 23 2 -2 4 0.24635616D-01 0.28665070D-01 0.15460968D+05 0.15460968D+05 0.15460968D+05 0.12463267D+01  1  2 12  7  6  2       21 0.139422051635D-04 0.100000000000D+01
-.611550212834D-05 0.000000000000D+00 -.184403996283D-07 0.182576457520D-05 0.000000000000D+00  6 2 -2 25 23 2 -2 4 0.24635616D-01 0.28444798D-01 0.15166090D+05 0.15166090D+05 0.15166090D+05 0.12472777D+01  1  2  5  7  6  2       21 -.351917767723D-02 0.100000000000D+01
0.585296691341D-05 0.000000000000D+00 0.000000000000D+00 0.182576457520D-05 0.318975662432D-06  6 2 -2 25 23 2 -2 4 0.24642870D-01 0.28441234D-01 0.15460968D+05 0.15460968D+05 0.15460968D+05 0.12463267D+01  1  2 11  7  6  2       21 0.335906802266D-02 0.100000000000D+01
0.247938509135D-07 0.000000000000D+00 0.000000000000D+00 0.182298153805D-05 0.000000000000D+00  6 2 2 25 23 2 2 4 0.24635616D-01 0.28443691D-01 0.15460968D+05 0.15460968D+05 0.15460968D+05 0.12463267D+01  1  2 12  8  6  2       21 0.360496824371D-04 0.100000000000D+01
0.246268535918D-07 0.000000000000D+00 0.000000000000D+00 0.182298153805D-05 0.000000000000D+00  6 2 2 25 23 2 2 4 0.24635616D-01 0.28665070D-01 0.15460968D+05 0.15460968D+05 0.15460968D+05 0.12463267D+01  1  2 12  8  6  2       21 0.355070045758D-04 0.100000000000D+01
-.611550212834D-05 0.000000000000D+00 -.184403996283D-07 0.182576457520D-05 0.000000000000D+00  6 2 2 25 23 2 2 4 0.24635616D-01 0.28444798D-01 0.15166090D+05 0.15166090D+05 0.15166090D+05 0.12472777D+01  1  2  5  8  6  2       21 -.891438130747D-02 0.100000000000D+01
0.572074056053D-05 0.000000000000D+00 0.000000000000D+00 0.182576457520D-05 0.151960203283D-06  6 2 2 25 23 2 2 4 0.24642870D-01 0.28441234D-01 0.15460968D+05 0.15460968D+05 0.15460968D+05 0.12463267D+01  1  2 11  8  6  2       21 0.831590564354D-02 0.100000000000D+01
0.247938509135D-07 0.000000000000D+00 0.000000000000D+00 0.182298153805D-05 0.000000000000D+00  6 2 -4 25 23 2 -4 4 0.24635616D-01 0.28443691D-01 0.15460968D+05 0.15460968D+05 0.15460968D+05 0.12463267D+01  1  2 12  9  6  2       21 0.757049668881D-05 0.100000000000D+01
0.246268535918D-07 0.000000000000D+00 0.000000000000D+00 0.182298153805D-05 0.000000000000D+00  6 2 -4 25 23 2 -4 4 0.24635616D-01 0.28665070D-01 0.15460968D+05 0.15460968D+05 0.15460968D+05 0.12463267D+01  1  2 12  9  6  2       21 0.741103080672D-05 0.100000000000D+01
-.611550212834D-05 0.000000000000D+00 -.184403996283D-07 0.182576457520D-05 0.000000000000D+00  6 2 -4 25 23 2 -4 4 0.24635616D-01 0.28444798D-01 0.15166090D+05 0.15166090D+05 0.15166090D+05 0.12472777D+01  1  2  5  9  6  2       21 -.187069341974D-02 0.100000000000D+01
0.539675114411D-05 0.000000000000D+00 0.000000000000D+00 0.182576457520D-05 0.286083228272D-06  6 2 -4 25 23 2 -4 4 0.24642870D-01 0.28441234D-01 0.15460968D+05 0.15460968D+05 0.15460968D+05 0.12463267D+01  1  2 11  9  6  2       21 0.164756364838D-02 0.100000000000D+01
0.247938509135D-07 0.000000000000D+00 0.000000000000D+00 0.182298153805D-05 0.000000000000D+00  6 2 4 25 23 2 4 4 0.24635616D-01 0.28443691D-01 0.15460968D+05 0.15460968D+05 0.15460968D+05 0.12463267D+01  1  2 12 10  6  2       21 0.757049668881D-05 0.100000000000D+01
0.246268535918D-07 0.000000000000D+00 0.000000000000D+00 0.182298153805D-05 0.000000000000D+00  6 2 4 25 23 2 4 4 0.24635616D-01 0.28665070D-01 0.15460968D+05 0.15460968D+05 0.15460968D+05 0.12463267D+01  1  2 12 10  6  2       21 0.741103080672D-05 0.100000000000D+01
-.611550212834D-05 0.000000000000D+00 -.184403996283D-07 0.182576457520D-05 0.000000000000D+00  6 2 4 25 23 2 4 4 0.24635616D-01 0.28444798D-01 0.15166090D+05 0.15166090D+05 0.15166090D+05 0.12472777D+01  1  2  5 10  6  2       21 -.187069341974D-02 0.100000000000D+01
0.539884259966D-05 0.000000000000D+00 0.000000000000D+00 0.182576457520D-05 0.286194096893D-06  6 2 4 25 23 2 4 4 0.24642870D-01 0.28441234D-01 0.15460968D+05 0.15460968D+05 0.15460968D+05 0.12463267D+01  1  2 11 10  6  2       21 0.164820214477D-02 0.100000000000D+01
  </mgrwgt>
  </event>
  <event>
  5     66 0.44822969E-03 0.21180252E+02 0.75467711E-02 0.11951361E+00
        2 -1    0    0  502    0 0.00000000E+00 0.00000000E+00 0.33738510E+03 0.33738525E+03 0.32000000E+00 0.0000E+00 0.9000E+01
       21 -1    0    0  501  502 0.00000000E+00 0.00000000E+00 -.10473585E+03 0.10473854E+03 0.75000000E+00 0.0000E+00 0.9000E+01
       25  1    1    2    0    0 0.62779947E+02 -.23726515E+02 0.14662187E+03 0.20402755E+03 0.12500000E+03 0.0000E+00 0.9000E+01
       23  1    1    2    0    0 -.83523716E+02 0.19449229E+02 0.13538347E+03 0.18438660E+03 0.91188000E+02 0.0000E+00 0.9000E+01
        2  1    1    2  501    0 0.20743769E+02 0.42772869E+01 -.49356089E+02 0.53709637E+02 0.32000000E+00 0.0000E+00 0.9000E+01
#aMCatNLO 1  0  0  2  1 0.21011715D+02 0.00000000D+00  -5  6  0 0.00000000D+00 0.00000000D+00 0.00000000D+00 0.00000000D+00 0.00000000D+00
  <mgrwgt>
 0.2046270157D+00   23    2    0
 0.187981230681729D+03 0.000000000000000D+00 0.000000000000000D+00 0.187981230681729D+03
 0.187981230681729D+03 0.000000000000000D+00 0.000000000000000D+00 -.187981230681729D+03
 0.149201024472623D+03 0.627798990055608D+02 -.237265252964799D+02 0.461701416706436D+02
 0.133058161194417D+03 -.835237587798304D+02 0.194492197126892D+02 0.451080091369129D+02
 0.937032756964169D+02 0.207438597742696D+02 0.427730558379064D+01 -.912781508075565D+02
 0.000000000000000D+00 0.000000000000000D+00 -.000000000000000D+00 -.000000000000000D+00
 0.192144888287872D+03 0.000000000000000D+00 0.000000000000000D+00 0.192144888287872D+03
 0.216792443173495D+03 0.000000000000000D+00 0.000000000000000D+00 -.216792443173495D+03
 0.146386066958533D+03 0.582072901661606D+02 -.168555625599766D+02 0.461701416706436D+02
 0.136756875896984D+03 -.876976847034345D+02 0.257211074890708D+02 0.451080091369129D+02
 0.934062099875601D+02 0.178493541853020D+02 0.862669140289474D+01 -.912781508075565D+02
 0.323881786182894D+02 0.116410403519719D+02 -.174922363319890D+02 -.246475548856236D+02
0.366692070053D-05 0.000000000000D+00 0.000000000000D+00 0.249269761449D-05 0.000000000000D+00  6 2 21 25 23 2 21 2 0.51905618D-01 0.16113426D-01 0.20770103D+05 0.20770103D+05 0.20770103D+05 0.12320237D+01  1  2  2  2  6  2       21 0.229147108225D-01 0.100000000000D+01
0.829107765049D-06 0.193508721719D-06 -.740245640768D-08 0.249269761449D-05 0.000000000000D+00  6 2 21 25 23 2 21 4 0.51905618D-01 0.16113426D-01 0.20770103D+05 0.20770103D+05 0.20770103D+05 0.12320237D+01  1  2  3  2  6  2       21 0.786433406943D-02 0.100000000000D+01
0.307599781537D-06 0.000000000000D+00 0.000000000000D+00 0.249269761449D-05 0.000000000000D+00  6 2 21 25 23 2 21 4 0.51905618D-01 0.16113426D-01 0.20770103D+05 0.20770103D+05 0.20770103D+05 0.12320237D+01  1  2 15  2  6  2       21 0.291767553468D-02 0.100000000000D+01
0.153407412069D-04 0.000000000000D+00 0.000000000000D+00 0.246637276636D-05 0.000000000000D+00  6 2 21 25 23 2 21 4 0.51905618D-01 0.18743489D-01 0.23847740D+05 0.23847740D+05 0.23847740D+05 0.12255008D+01  1  2 12  2  6  2       21 0.108005440163D+00 0.100000000000D+01
-.333880673260D-05 0.000000000000D+00 0.000000000000D+00 0.249269761449D-05 0.000000000000D+00  6 2 21 25 23 2 21 4 0.51905618D-01 0.16113426D-01 0.20770103D+05 0.20770103D+05 0.20770103D+05 0.12320237D+01  1  2  4  2  6  2       21 -.316695761942D-01 0.100000000000D+01
-.485918595004D-04 0.000000000000D+00 -.776467305954D-05 0.249269761449D-05 0.000000000000D+00  6 2 21 25 23 2 21 4 0.51905618D-01 0.18945690D-01 0.20770103D+05 0.20770103D+05 0.20770103D+05 0.12320237D+01  1  2  5  2  6  2       21 -.342648913552D+00 0.100000000000D+01
0.467524146967D-04 0.000000000000D+00 0.737215271717D-05 0.249269761449D-05 0.000000000000D+00  6 2 21 25 23 2 21 4 0.51905618D-01 0.16113426D-01 0.20770103D+05 0.20770103D+05 0.20770103D+05 0.12320237D+01  1  2  6  2  6  2       21 0.443460576811D+00 0.100000000000D+01
0.630773532940D-06 0.000000000000D+00 0.000000000000D+00 0.246637276636D-05 0.000000000000D+00  6 2 -1 25 23 2 -1 4 0.51905618D-01 0.18743489D-01 0.23847740D+05 0.23847740D+05 0.23847740D+05 0.12255008D+01  1  2 12  5  6  2       21 0.342831209599D-03 0.100000000000D+01
0.630773532940D-06 0.000000000000D+00 0.000000000000D+00 0.246637276636D-05 0.000000000000D+00  6 2 -3 25 23 2 -3 4 0.51905618D-01 0.18743489D-01 0.23847740D+05 0.23847740D+05 0.23847740D+05 0.12255008D+01  1  2 12  5  6  2       21 0.207496488653D-03 0.100000000000D+01
-.216414766853D-05 0.000000000000D+00 -.346137853395D-06 0.249269761449D-05 0.000000000000D+00  6 2 -1 25 23 2 -1 4 0.51905618D-01 0.18945690D-01 0.20770103D+05 0.20770103D+05 0.20770103D+05 0.12320237D+01  1  2  5  5  6  2       21 -.117828469241D-02 0.100000000000D+01
-.216414766853D-05 0.000000000000D+00 -.346137853395D-06 0.249269761449D-05 0.000000000000D+00  6 2 -3 25 23 2 -3 4 0.51905618D-01 0.18945690D-01 0.20770103D+05 0.20770103D+05 0.20770103D+05 0.12320237D+01  1  2  5  5  6  2       21 -.709662856190D-03 0.100000000000D+01
0.630773532940D-06 0.000000000000D+00 0.000000000000D+00 0.246637276636D-05 0.000000000000D+00  6 2 1 25 23 2 1 4 0.51905618D-01 0.18743489D-01 0.23847740D+05 0.23847740D+05 0.23847740D+05 0.12255008D+01  1  2 12  6  6  2       21 0.504733124766D-03 0.100000000000D+01
0.630773532940D-06 0.000000000000D+00 0.000000000000D+00 0.246637276636D-05 0.000000000000D+00  6 2 3 25 23 2 3 4 0.51905618D-01 0.18743489D-01 0.23847740D+05 0.23847740D+05 0.23847740D+05 0.12255008D+01  1  2 12  6  6  2       21 0.207475787201D-03 0.100000000000D+01
-.216414766853D-05 0.000000000000D+00 -.346137853395D-06 0.249269761449D-05 0.000000000000D+00  6 2 1 25 23 2 1 4 0.51905618D-01 0.18945690D-01 0.20770103D+05 0.20770103D+05 0.20770103D+05 0.12320237D+01  1  2  5  6  6  2       21 -.174092830077D-02 0.100000000000D+01
-.216414766853D-05 0.000000000000D+00 -.346137853395D-06 0.249269761449D-05 0.000000000000D+00  6 2 3 25 23 2 3 4 0.51905618D-01 0.18945690D-01 0.20770103D+05 0.20770103D+05 0.20770103D+05 0.12320237D+01  1  2  5  6  6  2       21 -.709591439027D-03 0.100000000000D+01
0.630773532940D-06 0.000000000000D+00 0.000000000000D+00 0.246637276636D-05 0.000000000000D+00  6 2 -2 25 23 2 -2 4 0.51905618D-01 0.18743489D-01 0.23847740D+05 0.23847740D+05 0.23847740D+05 0.12255008D+01  1  2 12  7  6  2       21 0.315300702408D-03 0.100000000000D+01
-.216414766853D-05 0.000000000000D+00 -.346137853395D-06 0.249269761449D-05 0.000000000000D+00  6 2 -2 25 23 2 -2 4 0.51905618D-01 0.18945690D-01 0.20770103D+05 0.20770103D+05 0.20770103D+05 0.12320237D+01  1  2  5  7  6  2       21 -.108256655405D-02 0.100000000000D+01
0.630773532940D-06 0.000000000000D+00 0.000000000000D+00 0.246637276636D-05 0.000000000000D+00  6 2 2 25 23 2 2 4 0.51905618D-01 0.18743489D-01 0.23847740D+05 0.23847740D+05 0.23847740D+05 0.12255008D+01  1  2 12  8  6  2       21 0.618025783266D-03 0.100000000000D+01
-.216414766853D-05 0.000000000000D+00 -.346137853395D-06 0.249269761449D-05 0.000000000000D+00  6 2 2 25 23 2 2 4 0.51905618D-01 0.18945690D-01 0.20770103D+05 0.20770103D+05 0.20770103D+05 0.12320237D+01  1  2  5  8  6  2       21 -.213451324751D-02 0.100000000000D+01
0.630773532940D-06 0.000000000000D+00 0.000000000000D+00 0.246637276636D-05 0.000000000000D+00  6 2 -4 25 23 2 -4 4 0.51905618D-01 0.18743489D-01 0.23847740D+05 0.23847740D+05 0.23847740D+05 0.12255008D+01  1  2 12  9  6  2       21 0.177644777647D-03 0.100000000000D+01
-.216414766853D-05 0.000000000000D+00 -.346137853395D-06 0.249269761449D-05 0.000000000000D+00  6 2 -4 25 23 2 -4 4 0.51905618D-01 0.18945690D-01 0.20770103D+05 0.20770103D+05 0.20770103D+05 0.12320237D+01  1  2  5  9  6  2       21 -.606418771314D-03 0.100000000000D+01
0.630773532940D-06 0.000000000000D+00 0.000000000000D+00 0.246637276636D-05 0.000000000000D+00  6 2 4 25 23 2 4 4 0.51905618D-01 0.18743489D-01 0.23847740D+05 0.23847740D+05 0.23847740D+05 0.12255008D+01  1  2 12 10  6  2       21 0.177644777647D-03 0.100000000000D+01
-.216414766853D-05 0.000000000000D+00 -.346137853395D-06 0.249269761449D-05 0.000000000000D+00  6 2 4 25 23 2 4 4 0.51905618D-01 0.18945690D-01 0.20770103D+05 0.20770103D+05 0.20770103D+05 0.12320237D+01  1  2  5 10  6  2       21 -.606418771314D-03 0.100000000000D+01
  </mgrwgt>
  </event>
  <event>
  5     66 0.44822969E-03 0.98731759E+02 0.75467711E-02 0.10989107E+00
        2 -1    0    0  502    0 0.00000000E+00 0.00000000E+00 0.36937965E+04 0.36937965E+04 0.32000000E+00 0.0000E+00 0.9000E+01
       21 -1    0    0  501  502 0.00000000E+00 0.00000000E+00 -.16607436E+02 0.16624362E+02 0.75000000E+00 0.0000E+00 0.9000E+01
       25  1    1    2    0    0 -.13971755E+02 0.11525437E+03 0.13270347E+04 0.13379555E+04 0.12500000E+03 0.0000E+00 0.9000E+01
       23  1    1    2    0    0 -.90800523E+02 -.95434921E+02 0.20007040E+04 0.20071085E+04 0.91188000E+02 0.0000E+00 0.9000E+01
        2  1    1    2  501    0 0.10477228E+03 -.19819449E+02 0.34945035E+03 0.36535694E+03 0.32000000E+00 0.0000E+00 0.9000E+01
#aMCatNLO 1  0  0  2  1 0.98224999D+02 0.00000000D+00  -5  6  0 0.00000000D+00 0.00000000D+00 0.00000000D+00 0.00000000D+00 0.00000000D+00
  <mgrwgt>
 0.5453286280D-01   23    2    0
 0.247741632863078D+03 0.000000000000000D+00 0.000000000000000D+00 0.247741632863078D+03
 0.247741632863078D+03 0.000000000000000D+00 0.000000000000000D+00 -.247741632863078D+03
 0.170783731301361D+03 -.139718455902921D+02 0.115254387137475D+03 0.795591940516197D+01
 0.182145894273038D+03 -.908006196848626D+02 -.954349027580249D+02 0.866562303411362D+02
 0.142553640151757D+03 0.104772465275155D+03 -.198194843794500D+02 -.946121497462981D+02
 0.000000000000000D+00 -.000000000000000D+00 -.000000000000000D+00 -.000000000000000D+00
 0.270008773327060D+03 0.000000000000000D+00 0.000000000000000D+00 0.270008773327060D+03
 0.390820112143862D+03 0.000000000000000D+00 0.000000000000000D+00 -.390820112143862D+03
 0.177256173115185D+03 0.190637633841816D+02 0.123967847361689D+03 0.795591940516197D+01
 0.163460305768792D+03 -.579960155608740D+02 -.867823722892717D+02 0.866562303411362D+02
 0.164409066910635D+03 0.133909066657858D+03 -.121344249814796D+02 -.946121497462981D+02
 0.155703339676310D+03 -.949768144811658D+02 -.250510500909373D+02 -.120811338816802D+03
0.243439148280D-04 0.000000000000D+00 0.000000000000D+00 0.104164326897D-06 0.000000000000D+00  6 2 21 25 23 2 21 2 0.56827769D+00 0.25562932D-02 0.47838595D+05 0.47838595D+05 0.47838595D+05 0.11941871D+01  1  2  2  2  6  2       21 0.281363322604D-01 0.100000000000D+01
-.687687504524D-06 0.128466367962D-05 -.491433502450D-07 0.104164326897D-06 0.000000000000D+00  6 2 21 25 23 2 21 4 0.56827769D+00 0.25562932D-02 0.47838595D+05 0.47838595D+05 0.47838595D+05 0.11941871D+01  1  2  3  2  6  2       21 -.113347762150D-02 0.100000000000D+01
0.169569054882D-05 0.000000000000D+00 0.000000000000D+00 0.104164326897D-06 0.000000000000D+00  6 2 21 25 23 2 21 4 0.56827769D+00 0.25562932D-02 0.47838595D+05 0.47838595D+05 0.47838595D+05 0.11941871D+01  1  2 15  2  6  2       21 0.279491379068D-02 0.100000000000D+01
0.294021735775D-04 0.000000000000D+00 0.000000000000D+00 0.100866404053D-06 0.000000000000D+00  6 2 21 25 23 2 21 4 0.56827769D+00 0.40928820D-02 0.75174756D+05 0.75174756D+05 0.75174756D+05 0.11751306D+01  1  2 12  2  6  2       21 0.201156902573D-01 0.100000000000D+01
-.267190098124D-04 0.000000000000D+00 0.000000000000D+00 0.104164326897D-06 0.000000000000D+00  6 2 21 25 23 2 21 4 0.56827769D+00 0.25562932D-02 0.47838595D+05 0.47838595D+05 0.47838595D+05 0.11941871D+01  1  2  4  2  6  2       21 -.440394794025D-01 0.100000000000D+01
-.884633672907D-04 0.000000000000D+00 -.310835867785D-04 0.104164326897D-06 0.000000000000D+00  6 2 21 25 23 2 21 4 0.56827769D+00 0.47003750D-02 0.47838595D+05 0.47838595D+05 0.47838595D+05 0.11941871D+01  1  2  5  2  6  2       21 -.527080654213D-01 0.100000000000D+01
0.628492905499D-04 0.000000000000D+00 0.162607674180D-04 0.104164326897D-06 0.000000000000D+00  6 2 21 25 23 2 21 4 0.56827769D+00 0.25562932D-02 0.47838595D+05 0.47838595D+05 0.47838595D+05 0.11941871D+01  1  2  6  2  6  2       21 0.103591040838D+00 0.100000000000D+01
0.477584657202D-05 0.000000000000D+00 0.000000000000D+00 0.100866404053D-06 0.000000000000D+00  6 2 -1 25 23 2 -1 4 0.56827769D+00 0.40928820D-02 0.75174756D+05 0.75174756D+05 0.75174756D+05 0.11751306D+01  1  2 12  5  6  2       21 0.184219768577D-03 0.100000000000D+01
0.477584657202D-05 0.000000000000D+00 0.000000000000D+00 0.100866404053D-06 0.000000000000D+00  6 2 -3 25 23 2 -3 4 0.56827769D+00 0.40928820D-02 0.75174756D+05 0.75174756D+05 0.75174756D+05 0.11751306D+01  1  2 12  5  6  2       21 0.137277826456D-03 0.100000000000D+01
-.146082477044D-04 0.000000000000D+00 -.673247198001D-05 0.104164326897D-06 0.000000000000D+00  6 2 -1 25 23 2 -1 4 0.56827769D+00 0.47003750D-02 0.47838595D+05 0.47838595D+05 0.47838595D+05 0.11941871D+01  1  2  5  5  6  2       21 -.499771177055D-03 0.100000000000D+01
-.146082477044D-04 0.000000000000D+00 -.673247198001D-05 0.104164326897D-06 0.000000000000D+00  6 2 -3 25 23 2 -3 4 0.56827769D+00 0.47003750D-02 0.47838595D+05 0.47838595D+05 0.47838595D+05 0.11941871D+01  1  2  5  5  6  2       21 -.364460785865D-03 0.100000000000D+01
0.477584657202D-05 0.000000000000D+00 0.000000000000D+00 0.100866404053D-06 0.000000000000D+00  6 2 1 25 23 2 1 4 0.56827769D+00 0.40928820D-02 0.75174756D+05 0.75174756D+05 0.75174756D+05 0.11751306D+01  1  2 12  6  6  2       21 0.203034791796D-03 0.100000000000D+01
0.477584657202D-05 0.000000000000D+00 0.000000000000D+00 0.100866404053D-06 0.000000000000D+00  6 2 3 25 23 2 3 4 0.56827769D+00 0.40928820D-02 0.75174756D+05 0.75174756D+05 0.75174756D+05 0.11751306D+01  1  2 12  6  6  2       21 0.137266820333D-03 0.100000000000D+01
-.146082477044D-04 0.000000000000D+00 -.673247198001D-05 0.104164326897D-06 0.000000000000D+00  6 2 1 25 23 2 1 4 0.56827769D+00 0.47003750D-02 0.47838595D+05 0.47838595D+05 0.47838595D+05 0.11941871D+01  1  2  5  6  6  2       21 -.558793158782D-03 0.100000000000D+01
-.146082477044D-04 0.000000000000D+00 -.673247198001D-05 0.104164326897D-06 0.000000000000D+00  6 2 3 25 23 2 3 4 0.56827769D+00 0.47003750D-02 0.47838595D+05 0.47838595D+05 0.47838595D+05 0.11941871D+01  1  2  5  6  6  2       21 -.364428270218D-03 0.100000000000D+01
0.477584657202D-05 0.000000000000D+00 0.000000000000D+00 0.100866404053D-06 0.000000000000D+00  6 2 -2 25 23 2 -2 4 0.56827769D+00 0.40928820D-02 0.75174756D+05 0.75174756D+05 0.75174756D+05 0.11751306D+01  1  2 12  7  6  2       21 0.180892294834D-03 0.100000000000D+01
-.146082477044D-04 0.000000000000D+00 -.673247198001D-05 0.104164326897D-06 0.000000000000D+00  6 2 -2 25 23 2 -2 4 0.56827769D+00 0.47003750D-02 0.47838595D+05 0.47838595D+05 0.47838595D+05 0.11941871D+01  1  2  5  7  6  2       21 -.489366382593D-03 0.100000000000D+01
0.477584657202D-05 0.000000000000D+00 0.000000000000D+00 0.100866404053D-06 0.000000000000D+00  6 2 2 25 23 2 2 4 0.56827769D+00 0.40928820D-02 0.75174756D+05 0.75174756D+05 0.75174756D+05 0.11751306D+01  1  2 12  8  6  2       21 0.215781602258D-03 0.100000000000D+01
-.146082477044D-04 0.000000000000D+00 -.673247198001D-05 0.104164326897D-06 0.000000000000D+00  6 2 2 25 23 2 2 4 0.56827769D+00 0.47003750D-02 0.47838595D+05 0.47838595D+05 0.47838595D+05 0.11941871D+01  1  2  5  8  6  2       21 -.598626850979D-03 0.100000000000D+01
0.477584657202D-05 0.000000000000D+00 0.000000000000D+00 0.100866404053D-06 0.000000000000D+00  6 2 -4 25 23 2 -4 4 0.56827769D+00 0.40928820D-02 0.75174756D+05 0.75174756D+05 0.75174756D+05 0.11751306D+01  1  2 12  9  6  2       21 0.124365955421D-03 0.100000000000D+01
-.146082477044D-04 0.000000000000D+00 -.673247198001D-05 0.104164326897D-06 0.000000000000D+00  6 2 -4 25 23 2 -4 4 0.56827769D+00 0.47003750D-02 0.47838595D+05 0.47838595D+05 0.47838595D+05 0.11941871D+01  1  2  5  9  6  2       21 -.327925146793D-03 0.100000000000D+01
0.477584657202D-05 0.000000000000D+00 0.000000000000D+00 0.100866404053D-06 0.000000000000D+00  6 2 4 25 23 2 4 4 0.56827769D+00 0.40928820D-02 0.75174756D+05 0.75174756D+05 0.75174756D+05 0.11751306D+01  1  2 12 10  6  2       21 0.124365955421D-03 0.100000000000D+01
-.146082477044D-04 0.000000000000D+00 -.673247198001D-05 0.104164326897D-06 0.000000000000D+00  6 2 4 25 23 2 4 4 0.56827769D+00 0.47003750D-02 0.47838595D+05 0.47838595D+05 0.47838595D+05 0.11941871D+01  1  2  5 10  6  2       21 -.327925146793D-03 0.100000000000D+01
  </mgrwgt>
  </event>
  <event>
  5     66 0.44822969E-03 0.28252969E+02 0.75467711E-02 0.11502023E+00
        2 -1    0    0  502    0 0.00000000E+00 0.00000000E+00 0.21429944E+03 0.21429968E+03 0.32000000E+00 0.0000E+00 0.9000E+01
       21 -1    0    0  501  502 0.00000000E+00 0.00000000E+00 -.14462623E+03 0.14462817E+03 0.75000000E+00 0.0000E+00 0.9000E+01
       25  1    1    2    0    0 -.52294658E+02 -.22796475E+02 0.98433864E+02 0.16902259E+03 0.12500000E+03 0.0000E+00 0.9000E+01
       23  1    1    2    0    0 0.58225228E+02 0.50419810E+02 0.31413606E+02 0.12342771E+03 0.91188000E+02 0.0000E+00 0.9000E+01
        2  1    1    2  501    0 -.59305706E+01 -.27623335E+02 -.60174257E+02 0.66477544E+02 0.32000000E+00 0.0000E+00 0.9000E+01
#aMCatNLO 1  0  0  1  2 0.11517245D+03 0.00000000D+00  -5  6  0 0.00000000D+00 0.00000000D+00 0.00000000D+00 0.00000000D+00 0.00000000D+00
  <mgrwgt>
 0.8686180794D-01    7    2    0
 0.176050307836612D+03 0.000000000000000D+00 0.000000000000000D+00 0.176050307836612D+03
 0.176050307836612D+03 0.000000000000000D+00 0.000000000000000D+00 -.176050307836612D+03
 0.152822066530168D+03 -.522946368936448D+02 -.227963785004106D+02 0.668967869032500D+02
 0.119604946406297D+03 0.582252444648834D+02 0.504198855601686D+02 0.759920442923886D+01
 0.796736027367584D+02 -.593060757123862D+01 -.276235070597580D+02 -.744959913324888D+02
 0.000000000000000D+00 -.000000000000000D+00 0.000000000000000D+00 0.000000000000000D+00
 0.230022932793187D+03 0.000000000000000D+00 0.000000000000000D+00 0.230022932793187D+03
 0.224566456737515D+03 0.000000000000000D+00 0.000000000000000D+00 -.224566456737515D+03
 0.159616003653750D+03 -.410029375414963D+02 -.607934835108433D+02 0.668967869032500D+02
 0.115331535433520D+03 0.667159899051722D+02 0.218481235914869D+02 0.759920442923886D+01
 0.886735562507742D+02 0.153559780571534D+00 -.480970193769089D+02 -.744959913324888D+02
 0.909682941926579D+02 -.258666121442474D+02 0.870423792962653D+02 0.545647605567243D+01
0.784926538271D-05 0.000000000000D+00 0.000000000000D+00 0.117786052082D-05 0.000000000000D+00  6 2 21 25 23 2 21 2 0.32969312D-01 0.22250357D-01 0.20308901D+05 0.20308901D+05 0.20308901D+05 0.12330939D+01  1  2  2  1  6  1        2 0.439445716331D-01 0.100000000000D+01
0.981723093465D-06 0.414217114218D-06 -.158454053341D-07 0.117786052082D-05 0.000000000000D+00  6 2 21 25 23 2 21 4 0.32969312D-01 0.22250357D-01 0.20308901D+05 0.20308901D+05 0.20308901D+05 0.12330939D+01  1  2  3  1  6  1        2 0.835713718030D-02 0.100000000000D+01
0.587699296677D-06 0.000000000000D+00 0.000000000000D+00 0.117786052082D-05 0.000000000000D+00  6 2 21 25 23 2 21 4 0.32969312D-01 0.22250357D-01 0.20308901D+05 0.20308901D+05 0.20308901D+05 0.12330939D+01  1  2 15  1  6  1        2 0.500292157309D-02 0.100000000000D+01
-.477259676245D-05 0.000000000000D+00 0.000000000000D+00 0.117786052082D-05 0.000000000000D+00  6 2 21 25 23 2 21 4 0.32969312D-01 0.22250357D-01 0.20308901D+05 0.20308901D+05 0.20308901D+05 0.12330939D+01  1  2  4  1  6  1        2 -.406277962855D-01 0.100000000000D+01
-.118384520730D-04 0.000000000000D+00 -.960150020754D-05 0.117786052082D-05 0.000000000000D+00  6 2 21 25 23 2 21 4 0.53806994D-01 0.22250357D-01 0.20308901D+05 0.20308901D+05 0.20308901D+05 0.12330939D+01  1  2  5  1  6  1        2 -.598018789450D-01 0.100000000000D+01
0.156706352414D-04 0.000000000000D+00 0.855456863818D-05 0.117786052082D-05 0.000000000000D+00  6 2 21 25 23 2 21 4 0.32969312D-01 0.22250357D-01 0.20308901D+05 0.20308901D+05 0.20308901D+05 0.12330939D+01  1  2  6  1  6  1        2 0.133399783795D+00 0.100000000000D+01
-.233711046572D-06 0.000000000000D+00 -.532651723457D-06 0.117786052082D-05 0.000000000000D+00  6 21 21 25 23 2 -2 4 0.53806994D-01 0.22250357D-01 0.20308901D+05 0.20308901D+05 0.20308901D+05 0.12330939D+01  1  2  5  4  6  1        2 -.341293101562D-02 0.100000000000D+01
  </mgrwgt>
  </event>
  <event>
  5     66 -.44822969E-03 0.26351315E+02 0.75467711E-02 0.11993868E+00
        2 -1    0    0  502    0 0.00000000E+00 0.00000000E+00 0.17341156E+03 0.17341185E+03 0.32000000E+00 0.0000E+00 0.9000E+01
       21 -1    0    0  501  502 0.00000000E+00 0.00000000E+00 -.12470872E+03 0.12471097E+03 0.75000000E+00 0.0000E+00 0.9000E+01
       25  1    1    2    0    0 0.58489798E+02 0.27260247E+02 0.77450465E+02 0.16058565E+03 0.12500000E+03 0.0000E+00 0.9000E+01
       23  1    1    2    0    0 -.32785533E+02 -.21459351E+02 -.97996656E+00 0.99255260E+02 0.91188000E+02 0.0000E+00 0.9000E+01
        2  1    1    2  501    0 -.25704265E+02 -.58008956E+01 -.27767655E+02 0.38281911E+02 0.32000000E+00 0.0000E+00 0.9000E+01
#aMCatNLO 1  0  0  1  5 0.14797523D+03 0.00000000D+00  -5  6  0 0.00000000D+00 0.00000000D+00 0.00000000D+00 0.00000000D+00 0.00000000D+00
  <mgrwgt>
 -.1714766654D+00    7    2    0
 0.147058875330045D+03 0.000000000000000D+00 0.000000000000000D+00 0.147058875330045D+03
 0.147058875330045D+03 0.000000000000000D+00 0.000000000000000D+00 -.147058875330045D+03
 0.149947714245936D+03 0.584901543085447D+02 0.272603271477362D+02 0.519142891730378D+02
 0.100768970386104D+03 -.327852938465334D+02 -.214592971537737D+02 -.174286293706086D+02
 0.434010660280506D+02 -.257048604620113D+02 -.580102999396251D+01 -.344856598024292D+02
 0.000000000000000D+00 0.000000000000000D+00 -.000000000000000D+00 0.000000000000000D+00
 0.259449516709195D+03 0.000000000000000D+00 0.000000000000000D+00 0.259449516709195D+03
 0.150425018540564D+03 0.000000000000000D+00 0.000000000000000D+00 -.150425018540564D+03
 0.150729685076445D+03 0.510523489098670D+02 0.423438568589072D+02 0.519142891730378D+02
 0.100868775066516D+03 -.377731722673412D+02 -.113441074811132D+02 -.174286293706086D+02
 0.443653334491395D+02 -.278759228741683D+02 -.139821456074358D+01 -.344856598024292D+02
 0.113910741657659D+03 0.145967462316425D+02 -.296015348170504D+02 0.109024498168631D+03
0.142495680571D-05 0.000000000000D+00 0.000000000000D+00 0.801814190357D-06 0.000000000000D+00  6 2 21 25 23 2 21 2 0.26678897D-01 0.19186152D-01 0.17725703D+05 0.17725703D+05 0.17725703D+05 0.12396398D+01  1  2  2  1  6  1        2 0.133481397147D-01 0.100000000000D+01
0.988559186662D-07 0.751970365593D-07 -.287657724248D-08 0.801814190357D-06 0.000000000000D+00  6 2 21 25 23 2 21 4 0.26678897D-01 0.19186152D-01 0.17725703D+05 0.17725703D+05 0.17725703D+05 0.12396398D+01  1  2  3  1  6  1        2 0.142302578860D-02 0.100000000000D+01
0.853658730700D-07 0.000000000000D+00 0.000000000000D+00 0.801814190357D-06 0.000000000000D+00  6 2 21 25 23 2 21 4 0.26678897D-01 0.19186152D-01 0.17725703D+05 0.17725703D+05 0.17725703D+05 0.12396398D+01  1  2 15  1  6  1        2 0.122883728647D-02 0.100000000000D+01
-.186773339851D-04 0.000000000000D+00 0.000000000000D+00 0.801814190357D-06 0.000000000000D+00  6 2 21 25 23 2 21 4 0.26678897D-01 0.19186152D-01 0.17725703D+05 0.17725703D+05 0.17725703D+05 0.12396398D+01  1  2  4  1  6  1        2 -.268859247699D+00 0.100000000000D+01
-.221831634850D-04 0.000000000000D+00 -.161346915103D-05 0.801814190357D-06 0.000000000000D+00  6 2 21 25 23 2 21 4 0.47645149D-01 0.19186152D-01 0.17725703D+05 0.17725703D+05 0.17725703D+05 0.12396398D+01  1  2  5  1  6  1        2 -.171559403953D+00 0.100000000000D+01
0.199134183817D-04 0.000000000000D+00 0.137560978107D-05 0.801814190357D-06 0.000000000000D+00  6 2 21 25 23 2 21 4 0.26678897D-01 0.19186152D-01 0.17725703D+05 0.17725703D+05 0.17725703D+05 0.12396398D+01  1  2  6  1  6  1        2 0.286652618059D+00 0.100000000000D+01
-.132871622718D-05 0.000000000000D+00 -.102805983579D-06 0.801814190357D-06 0.000000000000D+00  6 21 21 25 23 2 -2 4 0.47645149D-01 0.19186152D-01 0.17725703D+05 0.17725703D+05 0.17725703D+05 0.12396398D+01  1  2  5  4  6  1        2 -.337106346314D-01 0.100000000000D+01
  </mgrwgt>
  </event>
  <event>
  5     66 -.44822969E-03 0.20060364E+02 0.75467711E-02 0.12283885E+00
        2 -1    0    0  502    0 0.00000000E+00 0.00000000E+00 0.14333423E+03 0.14333459E+03 0.32000000E+00 0.0000E+00 0.9000E+01
       21 -1    0    0  501  502 0.00000000E+00 0.00000000E+00 -.12559227E+03 0.12559451E+03 0.75000000E+00 0.0000E+00 0.9000E+01
       25  1    1    2    0    0 -.57877978E+02 0.16882208E+02 -.20378212E+02 0.14026810E+03 0.12500000E+03 0.0000E+00 0.9000E+01
       23  1    1    2    0    0 0.40107243E+02 -.75783322E+01 0.20560447E+02 0.10200003E+03 0.91188000E+02 0.0000E+00 0.9000E+01
        2  1    1    2  501    0 0.17770736E+02 -.93038758E+01 0.17559724E+02 0.26660973E+02 0.32000000E+00 0.0000E+00 0.9000E+01
#aMCatNLO 1  0  0  5  2 0.73110606D+01 0.00000000D+00  -5  6  0 0.00000000D+00 0.00000000D+00 0.00000000D+00 0.00000000D+00 0.00000000D+00
  <mgrwgt>
 -.4996939519D+00    5    2    0
 0.134171611149172D+03 0.000000000000000D+00 0.000000000000000D+00 0.134171611149172D+03
 0.134171611149172D+03 -.000000000000000D+00 -.000000000000000D+00 -.134171611149172D+03
 0.141922177234359D+03 -.578787152562316D+02 0.168825937369158D+02 -.296974197522810D+02
 0.100863044262216D+03 0.401067193489913D+02 -.757805809822566D+01 0.138609686661142D+02
 0.255580008017679D+02 0.177719959072402D+02 -.930453563869009D+01 0.158364510861667D+02
 0.000000000000000D+00 0.000000000000000D+00 0.000000000000000D+00 -.000000000000000D+00
 0.134171611149172D+03 0.000000000000000D+00 0.000000000000000D+00 0.134171611149172D+03
 0.134171611149172D+03 -.000000000000000D+00 -.000000000000000D+00 -.134171611149172D+03
 0.140277156131770D+03 -.553147749405650D+02 0.155402417485904D+02 -.274127177070614D+02
 0.101922980620056D+03 0.419491449084269D+02 -.854266074437064D+01 0.155027359951298D+02
 0.185004900762903D+02 0.709089726106127D+01 -.112570131952571D+02 0.128556199001758D+02
 0.764259547022713D+01 0.627473277107677D+01 0.425943219103741D+01 -.945638188244183D+00
0.222467945536D-04 0.000000000000D+00 0.000000000000D+00 0.265719827627D-06 0.000000000000D+00  6 2 21 25 23 2 21 2 0.22051620D-01 0.19322088D-01 0.16737469D+05 0.16737469D+05 0.16737469D+05 0.12424325D+01  1  2  2  3  6  5        2 0.254879509088D+00 0.100000000000D+01
-.111294778085D-06 0.117399560230D-05 -.449098686181D-07 0.265719827627D-06 0.000000000000D+00  6 2 21 25 23 2 21 4 0.22051620D-01 0.19322088D-01 0.16737469D+05 0.16737469D+05 0.16737469D+05 0.12424325D+01  1  2  3  3  6  5        2 -.196828447566D-02 0.100000000000D+01
0.246789235899D-05 0.000000000000D+00 0.000000000000D+00 0.265719827627D-06 0.000000000000D+00  6 2 21 25 23 2 21 4 0.22051620D-01 0.19322088D-01 0.16737469D+05 0.16737469D+05 0.16737469D+05 0.12424325D+01  1  2 15  3  6  5        2 0.436454818579D-01 0.100000000000D+01
0.114344496482D-04 0.000000000000D+00 0.000000000000D+00 0.265647069325D-06 0.000000000000D+00  6 2 21 25 23 2 21 4 0.22051620D-01 0.19322088D-01 0.16795867D+05 0.16795867D+05 0.16795867D+05 0.12422624D+01  1  2 12  3  6  5        2 0.202121566793D+00 0.100000000000D+01
-.564520101733D-04 0.000000000000D+00 0.000000000000D+00 0.265719827627D-06 0.000000000000D+00  6 2 21 25 23 2 21 4 0.22051620D-01 0.19322088D-01 0.16737469D+05 0.16737469D+05 0.16737469D+05 0.12424325D+01  1  2  4  3  6  5        2 -.998372225144D+00 0.100000000000D+01
  </mgrwgt>
  </event>
  <event>
  5     66 0.44822969E-03 0.36183444E+02 0.75467711E-02 0.12085224E+00
        2 -1    0    0  502    0 0.00000000E+00 0.00000000E+00 0.22074439E+03 0.22074462E+03 0.32000000E+00 0.0000E+00 0.9000E+01
       21 -1    0    0  501  502 0.00000000E+00 0.00000000E+00 -.14009783E+03 0.14009984E+03 0.75000000E+00 0.0000E+00 0.9000E+01
       25  1    1    2    0    0 -.86561329E+01 0.12897791E+01 0.19352063E+02 0.12679154E+03 0.12500000E+03 0.0000E+00 0.9000E+01
       23  1    1    2    0    0 0.39043337E+02 0.18353264E+02 -.53150423E+02 0.11402387E+03 0.91188000E+02 0.0000E+00 0.9000E+01
        2  1    1    2  501    0 -.30387204E+02 -.19643043E+02 0.11444492E+03 0.12002905E+03 0.32000000E+00 0.0000E+00 0.9000E+01
#aMCatNLO 1  0  0  1  2 0.24546264D+02 0.00000000D+00  -5  6  0 0.00000000D+00 0.00000000D+00 0.00000000D+00 0.00000000D+00 0.00000000D+00
  <mgrwgt>
 0.7457861770D-01    9    2    0
 0.175858507797926D+03 0.000000000000000D+00 0.000000000000000D+00 0.175858507797926D+03
 0.175858507797926D+03 0.000000000000000D+00 0.000000000000000D+00 -.175858507797926D+03
 0.125644620568468D+03 -.865607368996856D+01 0.128981735872621D+01 -.921842921811028D+01
 0.129170120779006D+03 0.390433976022420D+02 0.183533034835162D+02 -.806748914655502D+02
 0.969022742483776D+02 -.303873239122735D+02 -.196431208422424D+02 0.898933206836605D+02
 0.000000000000000D+00 -.000000000000000D+00 0.000000000000000D+00 0.000000000000000D+00
 0.237824772678106D+03 0.000000000000000D+00 0.000000000000000D+00 0.237824772678106D+03
 0.178733989053577D+03 0.000000000000000D+00 0.000000000000000D+00 -.178733989053577D+03
 0.125423964056683D+03 -.185325411975982D+01 -.421387845226972D+01 -.921842921811028D+01
 0.130797051630289D+03 0.460873285293956D+02 0.126545409723814D+02 -.806748914655502D+02
 0.963514990581712D+02 -.251510234287650D+02 -.238794532539394D+02 0.898933206836605D+02
 0.639862469865390D+02 -.190830509808708D+02 0.154387907338277D+02 0.590907836245292D+02
0.138831486011D-05 0.000000000000D+00 0.000000000000D+00 0.102239673964D-06 0.000000000000D+00  6 2 21 25 23 2 21 2 0.33960848D-01 0.21553685D-01 0.17209240D+05 0.17209240D+05 0.17209240D+05 0.12410769D+01  1  2  2  1  6  1        2 0.808964536025D-02 0.100000000000D+01
-.180545924818D-06 0.732633879657D-07 -.280260771131D-08 0.102239673964D-06 0.000000000000D+00  6 2 21 25 23 2 21 4 0.33960848D-01 0.21553685D-01 0.17209240D+05 0.17209240D+05 0.17209240D+05 0.12410769D+01  1  2  3  1  6  1        2 -.162041620145D-02 0.100000000000D+01
0.140639993792D-06 0.000000000000D+00 0.000000000000D+00 0.102239673964D-06 0.000000000000D+00  6 2 21 25 23 2 21 4 0.33960848D-01 0.21553685D-01 0.17209240D+05 0.17209240D+05 0.17209240D+05 0.12410769D+01  1  2 15  1  6  1        2 0.126225681772D-02 0.100000000000D+01
0.229414372120D-04 0.000000000000D+00 0.000000000000D+00 0.100806063794D-06 0.000000000000D+00  6 2 21 25 23 2 21 4 0.46133426D-01 0.21553685D-01 0.20630435D+05 0.20630435D+05 0.20630435D+05 0.12323449D+01  1  2 12  1  6  1        2 0.144468298107D+00 0.100000000000D+01
-.151880041448D-04 0.000000000000D+00 0.000000000000D+00 0.102239673964D-06 0.000000000000D+00  6 2 21 25 23 2 21 4 0.33960848D-01 0.21553685D-01 0.17209240D+05 0.17209240D+05 0.17209240D+05 0.12410769D+01  1  2  4  1  6  1        2 -.136313727428D+00 0.100000000000D+01
-.251108016777D-04 0.000000000000D+00 -.229406128391D-05 0.102239673964D-06 0.000000000000D+00  6 2 21 25 23 2 21 4 0.46371886D-01 0.21553685D-01 0.17209240D+05 0.17209240D+05 0.17209240D+05 0.12410769D+01  1  2  5  1  6  1        2 -.161834495037D+00 0.100000000000D+01
0.247232385276D-04 0.000000000000D+00 0.218710118709D-05 0.102239673964D-06 0.000000000000D+00  6 2 21 25 23 2 21 4 0.33960848D-01 0.21553685D-01 0.17209240D+05 0.17209240D+05 0.17209240D+05 0.12410769D+01  1  2  6  1  6  1        2 0.221893328818D+00 0.100000000000D+01
0.900278000281D-06 0.000000000000D+00 0.000000000000D+00 0.100806063794D-06 0.000000000000D+00  6 21 21 25 23 2 -2 4 0.46133426D-01 0.21553685D-01 0.20630435D+05 0.20630435D+05 0.20630435D+05 0.12323449D+01  1  2 12  4  6  1        2 0.191241204413D-01 0.100000000000D+01
-.942843083790D-06 0.000000000000D+00 -.911149692898D-07 0.102239673964D-06 0.000000000000D+00  6 21 21 25 23 2 -2 4 0.46371886D-01 0.21553685D-01 0.17209240D+05 0.17209240D+05 0.17209240D+05 0.12410769D+01  1  2  5  4  6  1        2 -.204903931785D-01 0.100000000000D+01
  </mgrwgt>
  </event>
  <event>
  6     66 0.44822969E-03 0.27409308E+02 0.75467711E-02 0.11984865E+00
        2 -1    0    0  502    0 0.00000000E+00 0.00000000E+00 0.27304624E+04 0.27304624E+04 0.32000000E+00 0.0000E+00 0.9000E+01
       21 -1    0    0  501  502 0.00000000E+00 0.00000000E+00 -.18792816E+02 0.18807776E+02 0.75000000E+00 0.0000E+00 0.9000E+01
       25  1    1    2    0    0 0.69152990E+02 -.17960805E+02 0.79419542E+03 0.80714069E+03 0.12500000E+03 0.0000E+00 0.9000E+01
       23  1    1    2    0    0 -.63191314E+02 -.25827150E+02 0.18467033E+04 0.18502131E+04 0.91188000E+02 0.0000E+00 0.9000E+01
        2  1    1    2  503    0 -.89075802E+01 0.32242324E+02 0.18352008E+02 0.38155092E+02 0.32000000E+00 0.0000E+00 0.9000E+01
       21  1    1    2  501  503 0.29459042E+01 0.11545631E+02 0.52418808E+02 0.53761268E+02 0.75000000E+00 0.0000E+00 0.9000E+01
#aMCatNLO 2  0  0  5  2 0.10201381D+02 0.00000000D+00  -5  6  0 0.00000000D+00 0.00000000D+00 0.00000000D+00 0.00000000D+00 0.00000000D+00
  <mgrwgt>
 0.3735040732D-01    2    2    0
 0.226569346653750D+03 0.000000000000000D+00 0.000000000000000D+00 0.226569346653750D+03
 0.226569346653750D+03 -.000000000000000D+00 -.000000000000000D+00 -.226569346653750D+03
 0.144434186344341D+03 0.692372407723389D+02 -.185796226939962D+02 -.986084660330220D+01
 0.176179414718084D+03 -.630890284678899D+02 -.265784244749711D+02 0.134303003189849D+03
 0.132525092245076D+03 -.614821230444900D+01 0.451580471689674D+02 -.124442156586547D+03
 0.000000000000000D+00 0.000000000000000D+00 0.000000000000000D+00 0.000000000000000D+00
 0.226569346653750D+03 0.000000000000000D+00 0.000000000000000D+00 0.226569346653750D+03
 0.226569346653750D+03 -.000000000000000D+00 -.000000000000000D+00 -.226569346653750D+03
 0.144442122178758D+03 0.691526127335012D+02 -.179580376249695D+02 -.115737503124076D+02
 0.174523274131533D+03 -.631917689138760D+02 -.258238054611415D+02 0.132223497467850D+03
 0.121648743288023D+03 -.892504100126516D+01 0.321812628096332D+02 -.116974897780073D+03
 0.125245537091867D+02 0.296419718163994D+01 0.116005802764778D+02 -.367484937536953D+01
-.410099975712D-05 0.000000000000D+00 0.000000000000D+00 0.596195708922D-06 0.000000000000D+00  6 2 21 25 23 2 21 4 0.42007229D+00 0.28923547D-02 0.23058069D+05 0.23058069D+05 0.23058069D+05 0.12270806D+01  1  2  8  3  6  5        2 -.248965034334D-01 0.100000000000D+01
0.102478944727D-04 0.000000000000D+00 0.000000000000D+00 0.596195708922D-06 0.494095005749D-07  6 2 21 25 23 2 21 4 0.42007229D+00 0.28923547D-02 0.22991082D+05 0.22991082D+05 0.22991082D+05 0.12272174D+01  1  2  1  3  6  5        2 0.622469107530D-01 0.100000000000D+01
  </mgrwgt>
  </event>
  <event>
  5     66 -.44822969E-03 0.27898240E+02 0.75467711E-02 0.12374319E+00
        2 -1    0    0  502    0 0.00000000E+00 0.00000000E+00 0.14580841E+03 0.14580876E+03 0.32000000E+00 0.0000E+00 0.9000E+01
       21 -1    0    0  501  502 0.00000000E+00 0.00000000E+00 -.11000821E+03 0.11001077E+03 0.75000000E+00 0.0000E+00 0.9000E+01
       25  1    1    2    0    0 0.12384267E+02 -.17057560E+02 0.46343104E+02 0.13497042E+03 0.12500000E+03 0.0000E+00 0.9000E+01
       23  1    1    2    0    0 0.13226359E+02 0.59978001E+01 -.10659016E+02 0.92950396E+02 0.91188000E+02 0.0000E+00 0.9000E+01
        2  1    1    2  501    0 -.25610626E+02 0.11059760E+02 0.11611589E+00 0.27898716E+02 0.32000000E+00 0.0000E+00 0.9000E+01
#aMCatNLO 1  0  0  5  2 0.66352298D+01 0.00000000D+00  -5  6  0 0.00000000D+00 0.00000000D+00 0.00000000D+00 0.00000000D+00 0.00000000D+00
  <mgrwgt>
 -.2415610664D+01    7    2    0
 0.126651073094228D+03 0.000000000000000D+00 0.000000000000000D+00 0.126651073094228D+03
 0.126651073094228D+03 -.000000000000000D+00 -.000000000000000D+00 -.126651073094228D+03
 0.129762089612645D+03 0.123851138592480D+02 -.170579263531425D+02 0.277278921641063D+02
 0.953806891872043D+02 0.132269820687739D+02 0.599753121646259D+01 -.239019055827345D+02
 0.281593673886066D+02 -.256120959280219D+02 0.110603951366799D+02 -.382598658137178D+01
 0.000000000000000D+00 0.000000000000000D+00 0.000000000000000D+00 -.000000000000000D+00
 0.126651073094228D+03 0.000000000000000D+00 0.000000000000000D+00 0.126651073094228D+03
 0.126651073094228D+03 -.000000000000000D+00 -.000000000000000D+00 -.126651073094228D+03
 0.129490045150821D+03 0.108495859596331D+02 -.163948199302685D+02 0.274985119073808D+02
 0.953050671227462D+02 0.120975668794246D+02 0.648526085415709D+01 -.240706199031631D+02
 0.141054858415485D+02 -.113488510284161D+02 0.700142483639150D+01 0.459873476309554D+01
 0.144015480733397D+02 -.115983018106416D+02 0.290813423971988D+01 -.802662676731322D+01
0.171993897414D-04 0.000000000000D+00 0.000000000000D+00 0.467655649283D-06 0.000000000000D+00  6 2 21 25 23 2 21 2 0.22432287D-01 0.16924564D-01 0.15252315D+05 0.15252315D+05 0.15252315D+05 0.12469975D+01  1  2  2  3  6  5        2 0.247826877199D+00 0.100000000000D+01
0.219468186083D-06 0.907636732567D-06 -.347206125241D-07 0.467655649283D-06 0.000000000000D+00  6 2 21 25 23 2 21 4 0.22432287D-01 0.16924564D-01 0.15252315D+05 0.15252315D+05 0.15252315D+05 0.12469975D+01  1  2  3  3  6  5        2 0.491742908575D-02 0.100000000000D+01
0.131719732732D-05 0.000000000000D+00 0.000000000000D+00 0.467655649283D-06 0.000000000000D+00  6 2 21 25 23 2 21 4 0.22432287D-01 0.16924564D-01 0.15252315D+05 0.15252315D+05 0.15252315D+05 0.12469975D+01  1  2 15  3  6  5        2 0.295132728104D-01 0.100000000000D+01
0.966242892093D-05 0.000000000000D+00 0.000000000000D+00 0.468549926144D-06 0.000000000000D+00  6 2 21 25 23 2 21 4 0.22432287D-01 0.16924564D-01 0.14889366D+05 0.14889366D+05 0.14889366D+05 0.12481892D+01  1  2 12  3  6  5        2 0.217234023974D+00 0.100000000000D+01
-.142085600882D-03 0.000000000000D+00 0.000000000000D+00 0.467655649283D-06 0.000000000000D+00  6 2 21 25 23 2 21 4 0.22432287D-01 0.16924564D-01 0.15252315D+05 0.15252315D+05 0.15252315D+05 0.12469975D+01  1  2  4  3  6  5        2 -.318358609925D+01 0.100000000000D+01
-.933376490832D-05 0.000000000000D+00 0.000000000000D+00 0.467655649283D-06 0.000000000000D+00  6 2 21 25 23 2 21 4 0.22432287D-01 0.16924564D-01 0.15252315D+05 0.15252315D+05 0.15252315D+05 0.12469975D+01  1  2  5  3  6  5        2 -.209133395864D+00 0.100000000000D+01
0.213163799216D-04 0.000000000000D+00 -.000000000000D+00 0.467655649283D-06 0.000000000000D+00  6 2 21 25 23 2 21 4 0.22432287D-01 0.16924564D-01 0.15252315D+05 0.15252315D+05 0.15252315D+05 0.12469975D+01  1  2  6  3  6  5        2 0.477617227810D+00 0.100000000000D+01
  </mgrwgt>
  </event>
  <event>
  5     66 0.44822969E-03 0.12454013E+03 0.75467711E-02 0.10523764E+00
        2 -1    0    0  502    0 0.00000000E+00 0.00000000E+00 0.17445899E+04 0.17445899E+04 0.32000000E+00 0.0000E+00 0.9000E+01
       21 -1    0    0  501  502 0.00000000E+00 0.00000000E+00 -.20848600E+02 0.20862086E+02 0.75000000E+00 0.0000E+00 0.9000E+01
       25  1    1    2    0    0 -.66218395E+02 -.92939173E+00 0.54927096E+03 0.56719426E+03 0.12500000E+03 0.0000E+00 0.9000E+01
       23  1    1    2    0    0 -.56672612E+02 -.19269045E+02 0.65827108E+03 0.66724744E+03 0.91188000E+02 0.0000E+00 0.9000E+01
        2  1    1    2  501    0 0.12289101E+03 0.20198437E+02 0.51619925E+03 0.53101030E+03 0.32000000E+00 0.0000E+00 0.9000E+01
#aMCatNLO 1  0  0  1  2 0.28222974D+03 0.00000000D+00  -5  6  0 0.00000000D+00 0.00000000D+00 0.00000000D+00 0.00000000D+00 0.00000000D+00
  <mgrwgt>
 0.5084211177D-01    3    2    0
 0.190746394058642D+03 0.000000000000000D+00 0.000000000000000D+00 0.190746394058642D+03
 0.190746394058642D+03 0.000000000000000D+00 0.000000000000000D+00 -.190746394058642D+03
 0.142999385227245D+03 -.662185460488718D+02 -.929416544024596D+00 -.209299909085289D+02
 0.113512805804139D+03 -.566727321281580D+02 -.192690650490521D+02 0.314135369354282D+02
 0.124980597085900D+03 0.122891278177030D+03 0.201984815930767D+02 -.104835460268993D+02
 0.000000000000000D+00 0.000000000000000D+00 0.000000000000000D+00 -.000000000000000D+00
 0.354364686500300D+03 0.000000000000000D+00 0.000000000000000D+00 0.354364686500300D+03
 0.407335214778930D+03 0.000000000000000D+00 0.000000000000000D+00 -.407335214778930D+03
 0.225914575139997D+03 -.185123567645659D+03 -.265253735769608D+02 -.209299909085289D+02
 0.185187314783575D+03 -.152947061931479D+03 -.399934514200236D+02 0.314135369354282D+02
 0.634403864467367D+02 0.621611255584263D+02 0.712547293326886D+01 -.104835460268993D+02
 0.287157624908921D+03 0.275909504018711D+03 0.593933520637155D+02 -.529705282786303D+02
0.463533570379D-05 0.000000000000D+00 0.000000000000D+00 0.147636799777D-06 0.000000000000D+00  6 2 21 25 23 2 21 2 0.26839948D+00 0.32085165D-02 0.35171077D+05 0.35171077D+05 0.35171077D+05 0.12077160D+01  1  2  2  1  6  1        2 0.500670983954D-01 0.100000000000D+01
-.407363656158D-06 0.244613385462D-06 -.935740728654D-08 0.147636799777D-06 0.000000000000D+00  6 2 21 25 23 2 21 4 0.26839948D+00 0.32085165D-02 0.35171077D+05 0.35171077D+05 0.35171077D+05 0.12077160D+01  1  2  3  1  6  1        2 -.641775494883D-02 0.100000000000D+01
0.456557226992D-06 0.000000000000D+00 0.000000000000D+00 0.147636799777D-06 0.000000000000D+00  6 2 21 25 23 2 21 4 0.26839948D+00 0.32085165D-02 0.35171077D+05 0.35171077D+05 0.35171077D+05 0.12077160D+01  1  2 15  1  6  1        2 0.719276832545D-02 0.100000000000D+01
  </mgrwgt>
  </event>
  <event>
  5     66 0.44822969E-03 0.42526699E+02 0.75467711E-02 0.10091781E+00
        2 -1    0    0  502    0 0.00000000E+00 0.00000000E+00 0.15074055E+04 0.15074056E+04 0.32000000E+00 0.0000E+00 0.9000E+01
       21 -1    0    0  501  502 0.00000000E+00 0.00000000E+00 -.95516998E+02 0.95519942E+02 0.75000000E+00 0.0000E+00 0.9000E+01
       25  1    1    2    0    0 0.49582435E+02 -.31447877E+01 0.88404839E+03 0.89422305E+03 0.12500000E+03 0.0000E+00 0.9000E+01
       23  1    1    2    0    0 -.91541678E+01 -.10048940E+02 0.60960584E+03 0.61653817E+03 0.91188000E+02 0.0000E+00 0.9000E+01
        2  1    1    2  501    0 -.40428268E+02 0.13193727E+02 -.81765713E+02 0.92164274E+02 0.32000000E+00 0.0000E+00 0.9000E+01
#aMCatNLO 1  0  0  2  2 0.21147395D+03 0.00000000D+00  -5  6  0 0.00000000D+00 0.00000000D+00 0.00000000D+00 0.00000000D+00 0.00000000D+00
  <mgrwgt>
 0.3833621694D+00    3    2    0
 0.379453866334628D+03 0.000000000000000D+00 0.000000000000000D+00 0.379453866334628D+03
 0.379453866334628D+03 0.000000000000000D+00 0.000000000000000D+00 -.379453866334628D+03
 0.244028587503499D+03 0.495824410060018D+02 -.314478947937605D+01 0.203609045383475D+03
 0.168095902278661D+03 -.915416403031369D+01 -.100489408055622D+02 0.140556753976711D+03
 0.346783242887096D+03 -.404282769756881D+02 0.131937302849383D+02 -.344165799360186D+03
 0.000000000000000D+00 0.000000000000000D+00 -.000000000000000D+00 0.000000000000000D+00
 0.894302918872275D+03 0.000000000000000D+00 0.000000000000000D+00 0.894302918872275D+03
 0.569488063885017D+03 0.000000000000000D+00 0.000000000000000D+00 -.569488063885017D+03
 0.269903599730996D+03 -.238950634765284D+02 0.123269362484084D+03 0.203609045383475D+03
 0.195174522134962D+03 -.610913746219586D+02 0.793062772101973D+02 0.140556753976711D+03
 0.427508432043574D+03 -.151129691342532D+03 0.203649646240377D+03 -.344165799360186D+03
 0.571204428847760D+03 0.236116129441019D+03 -.406225285934658D+03 0.324814854987258D+03
0.233531262304D-03 0.000000000000D+00 0.000000000000D+00 0.139274607787D-04 0.000000000000D+00  6 2 21 25 23 2 21 2 0.23190877D+00 0.14695152D-01 0.18121694D+05 0.18121694D+05 0.18121694D+05 0.12385694D+01  1  2  2  2  6  2       21 0.260479943379D+00 0.100000000000D+01
0.521378125465D-04 0.123237832886D-04 -.471432335252D-06 0.139274607787D-04 0.000000000000D+00  6 2 21 25 23 2 21 4 0.23190877D+00 0.14695152D-01 0.18121694D+05 0.18121694D+05 0.18121694D+05 0.12385694D+01  1  2  3  2  6  2       21 0.892118998290D-01 0.100000000000D+01
0.196778362479D-04 0.000000000000D+00 0.000000000000D+00 0.139274607787D-04 0.000000000000D+00  6 2 21 25 23 2 21 4 0.23190877D+00 0.14695152D-01 0.18121694D+05 0.18121694D+05 0.18121694D+05 0.12385694D+01  1  2 15  2  6  2       21 0.336703262076D-01 0.100000000000D+01
  </mgrwgt>
  </event>
  <event>
  6     66 0.44822969E-03 0.29489418E+02 0.75467711E-02 0.12110896E+00
        4 -1    0    0  502    0 0.00000000E+00 0.00000000E+00 0.17115242E+03 0.17115943E+03 0.15500000E+01 0.0000E+00 0.9000E+01
       21 -1    0    0  501  502 0.00000000E+00 0.00000000E+00 -.12340007E+03 0.12340235E+03 0.75000000E+00 0.0000E+00 0.9000E+01
       25  1    1    2    0    0 0.21443093E+02 -.27707496E+02 0.21060103E+02 0.13151441E+03 0.12500000E+03 0.0000E+00 0.9000E+01
       23  1    1    2    0    0 -.45850385E+02 0.29104189E+02 -.18045387E+01 0.10614999E+03 0.91188000E+02 0.0000E+00 0.9000E+01
        4  1    1    2  503    0 -.94726610E+01 -.95453564E+01 0.34279818E+01 0.13964193E+02 0.15500000E+01 0.0000E+00 0.9000E+01
       21  1    1    2  501  503 0.33879954E+02 0.81486642E+01 0.25068801E+02 0.42933195E+02 0.75000000E+00 0.0000E+00 0.9000E+01
#aMCatNLO 2  0  0  5  2 0.10183736D+02 0.00000000D+00  -5  6  0 0.00000000D+00 0.00000000D+00 0.00000000D+00 0.00000000D+00 0.00000000D+00
  <mgrwgt>
 0.3239070399D-01    2    2    0
 0.145332684433281D+03 0.000000000000000D+00 0.000000000000000D+00 0.145332684433281D+03
 0.145332684433281D+03 -.000000000000000D+00 -.000000000000000D+00 -.145332684433281D+03
 0.128826492709438D+03 0.136251356930596D+02 -.272601186268510D+02 -.651972649813555D+01
 0.112004187490513D+03 -.524964408502252D+02 0.294845050485945D+02 -.245860596987021D+02
 0.498346886666115D+02 0.388713051571656D+02 -.222438642174351D+01 0.311057861968377D+02
 0.000000000000000D+00 0.000000000000000D+00 0.000000000000000D+00 -.000000000000000D+00
 0.145332684433281D+03 0.000000000000000D+00 0.000000000000000D+00 0.145332684433281D+03
 0.145332684433281D+03 -.000000000000000D+00 -.000000000000000D+00 -.145332684433281D+03
 0.129654857358279D+03 0.204853564532781D+02 -.276526905214013D+02 -.103000704138801D+01
 0.108338837281188D+03 -.466484297944482D+02 0.291498562290069D+02 -.199063356492459D+02
 0.118264889009286D+02 -.861493887188356D+01 -.808342506550834D+01 0.553992028651733D+00
 0.408451853261664D+02 0.347780122130537D+02 0.658625935790280D+01 0.203823506619821D+02
-.182395985536D-05 0.000000000000D+00 0.000000000000D+00 0.163888880203D-06 0.000000000000D+00  6 4 21 25 23 4 21 4 0.26331856D-01 0.18985341D-01 0.20072481D+05 0.20072481D+05 0.20072481D+05 0.12336531D+01  1  2 13  3  6  5        4 -.599939910931D-02 0.100000000000D+01
0.116715033653D-04 0.000000000000D+00 0.000000000000D+00 0.164479121858D-06 0.591427480693D-08  6 4 21 25 23 4 21 4 0.26331856D-01 0.18985341D-01 0.20072481D+05 0.20072481D+05 0.20072481D+05 0.12336531D+01  1  2  1  3  6  5        4 0.383901030981D-01 0.100000000000D+01
  </mgrwgt>
  </event>
  <event>
  5     66 0.44822969E-03 0.28340316E+02 0.75467711E-02 0.11967477E+00
        2 -1    0    0  502    0 0.00000000E+00 0.00000000E+00 0.18742295E+04 0.18742295E+04 0.32000000E+00 0.0000E+00 0.9000E+01
       21 -1    0    0  501  502 0.00000000E+00 0.00000000E+00 -.13921304E+02 0.13941493E+02 0.75000000E+00 0.0000E+00 0.9000E+01
       25  1    1    2    0    0 -.35896590E+02 0.46084674E+02 0.56323928E+03 0.57989297E+03 0.12500000E+03 0.0000E+00 0.9000E+01
       23  1    1    2    0    0 -.29800838E+02 -.24456575E+02 0.64545896E+03 0.65300745E+03 0.91188000E+02 0.0000E+00 0.9000E+01
        2  1    1    2  501    0 0.65697428E+02 -.21628099E+02 0.65160992E+03 0.65527056E+03 0.32000000E+00 0.0000E+00 0.9000E+01
#aMCatNLO 1  0  0  2  2 0.16063192D+02 0.00000000D+00  -5  6  0 0.00000000D+00 0.00000000D+00 0.00000000D+00 0.00000000D+00 0.00000000D+00
  <mgrwgt>
 0.7190086444D-04    1    2    0
 0.161588378681678D+03 0.000000000000000D+00 0.000000000000000D+00 0.161588378681678D+03
 0.161588378681678D+03 0.000000000000000D+00 0.000000000000000D+00 -.161588378681678D+03
 0.145859751198901D+03 -.358968421683795D+02 0.460847574578337D+02 -.473041105211425D+02
 0.997508762140361D+02 -.298010103020180D+02 -.244565182402445D+02 0.121969037879109D+02
 0.775661299504187D+02 0.656978524703975D+02 -.216282392175892D+02 0.351072067332316D+02
 0.000000000000000D+00 0.000000000000000D+00 -.000000000000000D+00 -.000000000000000D+00
 0.162385149548049D+03 0.000000000000000D+00 0.000000000000000D+00 0.162385149548049D+03
 0.583441564378058D+03 0.000000000000000D+00 0.000000000000000D+00 -.583441564378058D+03
 0.149898155942268D+03 -.463712059636885D+02 0.495629855857079D+02 -.473041105211425D+02
 0.101566810488631D+03 -.369307425527513D+02 -.220889438707331D+02 0.121969037879109D+02
 0.726131271865032D+02 0.603792045635114D+02 -.198620726881934D+02 0.351072067332316D+02
 0.421748620308706D+03 0.229227439529284D+02 -.761196902678146D+01 -.421056414830009D+03
0.257129134131D-08 0.000000000000D+00 0.000000000000D+00 0.130592215974D-06 0.000000000000D+00  6 2 21 25 23 2 21 4 0.28834455D+00 0.21432942D-02 0.23431162D+05 0.23431162D+05 0.23431162D+05 0.12263268D+01  1  2 14  2  6  2       21 0.719008644448D-04 0.100000000000D+01
  </mgrwgt>
  </event>
  <event>
  5     66 0.44822969E-03 0.44626107E+02 0.75467711E-02 0.11373920E+00
        2 -1    0    0  502    0 0.00000000E+00 0.00000000E+00 0.17447179E+04 0.17447179E+04 0.32000000E+00 0.0000E+00 0.9000E+01
       21 -1    0    0  501  502 0.00000000E+00 0.00000000E+00 -.28769718E+02 0.28779492E+02 0.75000000E+00 0.0000E+00 0.9000E+01
       25  1    1    2    0    0 0.91436322E+01 -.11027723E+03 0.33462060E+03 0.37395270E+03 0.12500000E+03 0.0000E+00 0.9000E+01
       23  1    1    2    0    0 0.10080795E+02 0.15054960E+03 0.97880046E+03 0.99455135E+03 0.91188000E+02 0.0000E+00 0.9000E+01
        2  1    1    2  501    0 -.19224427E+02 -.40272375E+02 0.40252711E+03 0.40499336E+03 0.32000000E+00 0.0000E+00 0.9000E+01
#aMCatNLO 1  0  0  2  2 0.39623320D+02 0.00000000D+00  -5  6  0 0.00000000D+00 0.00000000D+00 0.00000000D+00 0.00000000D+00 0.00000000D+00
  <mgrwgt>
 0.1018746784D+00    4    2    0
 0.224061898055965D+03 0.000000000000000D+00 0.000000000000000D+00 0.224061898055965D+03
 0.224061898055965D+03 0.000000000000000D+00 0.000000000000000D+00 -.224061898055965D+03
 0.198633807026228D+03 0.914374770802192D+01 -.110276987402837D+03 -.107637201844619D+03
 0.188036076043485D+03 0.100809042987983D+02 0.150549834004187D+03 0.653868289463687D+02
 0.614539130422176D+02 -.192246520068202D+02 -.402728466013499D+02 0.422503728982507D+02
 0.000000000000000D+00 0.000000000000000D+00 0.000000000000000D+00 0.000000000000000D+00
 0.357728558244286D+03 0.000000000000000D+00 0.000000000000000D+00 0.357728558244286D+03
 0.227891824495833D+03 0.000000000000000D+00 0.000000000000000D+00 -.227891824495833D+03
 0.202558030319533D+03 -.708830445426379D+01 -.117340293019718D+03 -.107637201844619D+03
 0.182640922019351D+03 -.491653036418539D+01 0.144023766724784D+03 0.653868289463687D+02
 0.646731895993610D+02 -.243277012679936D+02 -.424934158891578D+02 0.422503728982507D+02
 0.135748240801874D+03 0.363325360864428D+02 0.158099421840921D+02 0.129836733748453D+03
0.162575849524D-04 0.000000000000D+00 0.000000000000D+00 0.437151586225D-07 0.000000000000D+00  6 2 21 25 23 2 21 2 0.26841889D+00 0.44268645D-02 0.37610653D+05 0.37610653D+05 0.37610653D+05 0.12047261D+01  1  2  2  2  6  2       21 0.101882302649D+00 0.100000000000D+01
-.982498714552D-06 0.857936328406D-06 -.328193800010D-07 0.437151586225D-07 0.000000000000D+00  6 2 21 25 23 2 21 4 0.26841889D+00 0.44268645D-02 0.37610653D+05 0.37610653D+05 0.37610653D+05 0.12047261D+01  1  2  3  2  6  2       21 -.893616905074D-02 0.100000000000D+01
0.136913074335D-05 0.000000000000D+00 0.000000000000D+00 0.437151586225D-07 0.000000000000D+00  6 2 21 25 23 2 21 4 0.26841889D+00 0.44268645D-02 0.37610653D+05 0.37610653D+05 0.37610653D+05 0.12047261D+01  1  2 15  2  6  2       21 0.124527224249D-01 0.100000000000D+01
-.387470288467D-06 0.000000000000D+00 0.000000000000D+00 0.437151586225D-07 0.000000000000D+00  6 2 21 25 23 2 21 4 0.26841889D+00 0.44268645D-02 0.37610653D+05 0.37610653D+05 0.37610653D+05 0.12047261D+01  1  2  4  2  6  2       21 -.352417763871D-02 0.100000000000D+01
  </mgrwgt>
  </event>
  <event>
  5     66 0.44822969E-03 0.89471788E+02 0.75467711E-02 0.10385702E+00
        2 -1    0    0  502    0 0.00000000E+00 0.00000000E+00 0.14490857E+04 0.14490857E+04 0.32000000E+00 0.0000E+00 0.9000E+01
       21 -1    0    0  501  502 0.00000000E+00 0.00000000E+00 -.47655535E+02 0.47661437E+02 0.75000000E+00 0.0000E+00 0.9000E+01
       25  1    1    2    0    0 -.54050372E+02 -.93494857E+02 0.19343541E+03 0.25437176E+03 0.12500000E+03 0.0000E+00 0.9000E+01
       23  1    1    2    0    0 -.26498316E+02 0.54545532E+02 0.10837431E+04 0.10892620E+04 0.91188000E+02 0.0000E+00 0.9000E+01
        2  1    1    2  501    0 0.80548688E+02 0.38949325E+02 0.12425169E+03 0.15311344E+03 0.32000000E+00 0.0000E+00 0.9000E+01
#aMCatNLO 1  0  0  2  5 0.51756613D+02 0.00000000D+00  -5  6  0 0.00000000D+00 0.00000000D+00 0.00000000D+00 0.00000000D+00 0.00000000D+00
  <mgrwgt>
 0.3736543944D-01   12    2    0
 0.262795352733536D+03 0.000000000000000D+00 0.000000000000000D+00 0.262795352733536D+03
 0.262795352733536D+03 0.000000000000000D+00 0.000000000000000D+00 -.262795352733536D+03
 0.208610970265812D+03 -.540505209884896D+02 -.934949286995437D+02 -.127400064378256D+03
 0.212255674373402D+03 -.264984682739429D+02 0.545454582435783D+02 0.181823662167058D+03
 0.104724060827858D+03 0.805489892624325D+02 0.389494704559654D+02 -.544235977888025D+02
 0.000000000000000D+00 0.000000000000000D+00 -.000000000000000D+00 -.000000000000000D+00
 0.425210134398298D+03 0.000000000000000D+00 0.000000000000000D+00 0.425210134398298D+03
 0.548149872801822D+03 0.000000000000000D+00 0.000000000000000D+00 -.548149872801822D+03
 0.209150727740151D+03 -.108119485977727D+03 0.140864212120490D+02 -.127400064378256D+03
 0.288831389803197D+03 -.913518501393561D+02 0.183584628288760D+03 0.181823662167058D+03
 0.122837057824101D+03 0.510968058381666D+02 0.975506597196600D+02 -.544235977888025D+02
 0.352540831832670D+03 0.148374530278916D+03 -.295221709220469D+03 -.122939738403524D+03
0.843067445244D-05 0.000000000000D+00 0.000000000000D+00 0.380751849057D-07 0.000000000000D+00  6 2 21 25 23 2 21 2 0.22293672D+00 0.73320775D-02 0.33155442D+05 0.33155442D+05 0.33155442D+05 0.12103661D+01  1  2  2  2  6  2       21 0.322876203751D-01 0.100000000000D+01
-.436863355090D-06 0.444898913763D-06 -.170191027345D-07 0.380751849057D-07 0.000000000000D+00  6 2 21 25 23 2 21 4 0.22293672D+00 0.73320775D-02 0.33155442D+05 0.33155442D+05 0.33155442D+05 0.12103661D+01  1  2  3  2  6  2       21 -.245105395361D-02 0.100000000000D+01
0.676540322104D-06 0.000000000000D+00 0.000000000000D+00 0.380751849057D-07 0.000000000000D+00  6 2 21 25 23 2 21 4 0.22293672D+00 0.73320775D-02 0.33155442D+05 0.33155442D+05 0.33155442D+05 0.12103661D+01  1  2 15  2  6  2       21 0.379577918803D-02 0.100000000000D+01
0.562594216924D-05 0.000000000000D+00 -.291785150330D-04 0.380751849057D-07 0.000000000000D+00  6 2 21 25 23 2 21 4 0.22293672D+00 0.26331800D-01 0.33155442D+05 0.33155442D+05 0.33155442D+05 0.12103661D+01  1  2  5  2  6  2       21 0.311041849682D-02 0.100000000000D+01
0.169958188571D-05 0.000000000000D+00 -.111418383469D-04 0.380751849057D-07 0.000000000000D+00  6 2 -1 25 23 2 -1 4 0.22293672D+00 0.26331800D-01 0.33155442D+05 0.33155442D+05 0.33155442D+05 0.12103661D+01  1  2  5  5  6  2       21 0.794990528627D-04 0.100000000000D+01
0.169958188571D-05 0.000000000000D+00 -.111418383469D-04 0.380751849057D-07 0.000000000000D+00  6 2 -3 25 23 2 -3 4 0.22293672D+00 0.26331800D-01 0.33155442D+05 0.33155442D+05 0.33155442D+05 0.12103661D+01  1  2  5  5  6  2       21 0.459264524298D-04 0.100000000000D+01
0.169958188571D-05 0.000000000000D+00 -.111418383469D-04 0.380751849057D-07 0.000000000000D+00  6 2 1 25 23 2 1 4 0.22293672D+00 0.26331800D-01 0.33155442D+05 0.33155442D+05 0.33155442D+05 0.12103661D+01  1  2  5  6  6  2       21 0.132271904207D-03 0.100000000000D+01
0.169958188571D-05 0.000000000000D+00 -.111418383469D-04 0.380751849057D-07 0.000000000000D+00  6 2 3 25 23 2 3 4 0.22293672D+00 0.26331800D-01 0.33155442D+05 0.33155442D+05 0.33155442D+05 0.12103661D+01  1  2  5  6  6  2       21 0.459255232590D-04 0.100000000000D+01
0.169958188571D-05 0.000000000000D+00 -.111418383469D-04 0.380751849057D-07 0.000000000000D+00  6 2 -2 25 23 2 -2 4 0.22293672D+00 0.26331800D-01 0.33155442D+05 0.33155442D+05 0.33155442D+05 0.12103661D+01  1  2  5  7  6  2       21 0.708417324361D-04 0.100000000000D+01
0.169958188571D-05 0.000000000000D+00 -.111418383469D-04 0.380751849057D-07 0.000000000000D+00  6 2 2 25 23 2 2 4 0.22293672D+00 0.26331800D-01 0.33155442D+05 0.33155442D+05 0.33155442D+05 0.12103661D+01  1  2  5  8  6  2       21 0.170333076437D-03 0.100000000000D+01
0.169958188571D-05 0.000000000000D+00 -.111418383469D-04 0.380751849057D-07 0.000000000000D+00  6 2 -4 25 23 2 -4 4 0.22293672D+00 0.26331800D-01 0.33155442D+05 0.33155442D+05 0.33155442D+05 0.12103661D+01  1  2  5  9  6  2       21 0.389387968040D-04 0.100000000000D+01
0.169958188571D-05 0.000000000000D+00 -.111418383469D-04 0.380751849057D-07 0.000000000000D+00  6 2 4 25 23 2 4 4 0.22293672D+00 0.26331800D-01 0.33155442D+05 0.33155442D+05 0.33155442D+05 0.12103661D+01  1  2  5 10  6  2       21 0.389387968040D-04 0.100000000000D+01
  </mgrwgt>
  </event>
  <event>
  5     66 0.44822969E-03 0.71656575E+02 0.75467711E-02 0.11223458E+00
        2 -1    0    0  502    0 0.00000000E+00 0.00000000E+00 0.20725461E+04 0.20725461E+04 0.32000000E+00 0.0000E+00 0.9000E+01
       21 -1    0    0  501  502 0.00000000E+00 0.00000000E+00 -.79060429E+02 0.79063986E+02 0.75000000E+00 0.0000E+00 0.9000E+01
       25  1    1    2    0    0 0.14985247E+01 0.34835743E+01 0.68115721E+03 0.69254207E+03 0.12500000E+03 0.0000E+00 0.9000E+01
       23  1    1    2    0    0 0.50365639E+02 0.85274081E+02 0.13445990E+04 0.13513216E+04 0.91188000E+02 0.0000E+00 0.9000E+01
        2  1    1    2  501    0 -.51864164E+02 -.88757656E+02 -.32270502E+02 0.10774646E+03 0.32000000E+00 0.0000E+00 0.9000E+01
#aMCatNLO 1  0  0  2  1 0.88815524D+02 0.00000000D+00  -5  6  0 0.00000000D+00 0.00000000D+00 0.00000000D+00 0.00000000D+00 0.00000000D+00
  <mgrwgt>
 0.4799738303D-01   23    2    0
 0.404796538502749D+03 0.000000000000000D+00 0.000000000000000D+00 0.404796538502749D+03
 0.404796538502749D+03 0.000000000000000D+00 0.000000000000000D+00 -.404796538502749D+03
 0.163296118062538D+03 0.149852871770797D+01 0.348358113996424D+01 0.105005910540397D+03
 0.280484646862350D+03 0.503656461870883D+02 0.852740930632609D+02 0.246065065618614D+03
 0.365812312080610D+03 -.518641749047963D+02 -.887576742032252D+02 -.351070976159011D+03
 0.000000000000000D+00 0.000000000000000D+00 0.000000000000000D+00 -.000000000000000D+00
 0.424750086773040D+03 0.000000000000000D+00 0.000000000000000D+00 0.424750086773040D+03
 0.519753009039818D+03 0.000000000000000D+00 0.000000000000000D+00 -.519753009039818D+03
 0.163859835561653D+03 -.581893203653310D+01 -.128430717442695D+02 0.105005910540397D+03
 0.271370899221416D+03 0.380223546903456D+02 0.577338516483093D+02 0.246065065618614D+03
 0.379219477141335D+03 -.685282179029442D+02 -.125938337662338D+03 -.351070976159011D+03
 0.130052883888454D+03 0.363247952491317D+02 0.810475577582987D+02 -.950029222667787D+02
0.245593352477D-04 0.000000000000D+00 0.000000000000D+00 0.141062028977D-05 0.000000000000D+00  6 2 21 25 23 2 21 2 0.31885352D+00 0.12163418D-01 0.32848191D+05 0.32848191D+05 0.32848191D+05 0.12107859D+01  1  2  2  2  6  2       21 0.183268757085D-01 0.100000000000D+01
0.147899573264D-05 0.129603172748D-05 -.495782220070D-07 0.141062028977D-05 0.000000000000D+00  6 2 21 25 23 2 21 4 0.31885352D+00 0.12163418D-01 0.32848191D+05 0.32848191D+05 0.32848191D+05 0.12107859D+01  1  2  3  2  6  2       21 0.161798105199D-02 0.100000000000D+01
0.305637067191D-05 0.000000000000D+00 0.000000000000D+00 0.141062028977D-05 0.000000000000D+00  6 2 21 25 23 2 21 4 0.31885352D+00 0.12163418D-01 0.32848191D+05 0.32848191D+05 0.32848191D+05 0.12107859D+01  1  2 15  2  6  2       21 0.334358627674D-02 0.100000000000D+01
0.341554619800D-04 0.000000000000D+00 0.000000000000D+00 0.135710048731D-05 0.000000000000D+00  6 2 21 25 23 2 21 4 0.31885352D+00 0.15855530D-01 0.55793643D+05 0.55793643D+05 0.55793643D+05 0.11875948D+01  1  2 12  2  6  2       21 0.207888937765D-01 0.100000000000D+01
-.331065310168D-04 0.000000000000D+00 0.000000000000D+00 0.141062028977D-05 0.000000000000D+00  6 2 21 25 23 2 21 4 0.31885352D+00 0.12163418D-01 0.32848191D+05 0.32848191D+05 0.32848191D+05 0.12107859D+01  1  2  4  2  6  2       21 -.362176432968D-01 0.100000000000D+01
-.106712693622D-03 0.000000000000D+00 -.339322299757D-04 0.141062028977D-05 0.000000000000D+00  6 2 21 25 23 2 21 4 0.31885352D+00 0.16441800D-01 0.32848191D+05 0.32848191D+05 0.32848191D+05 0.12107859D+01  1  2  5  2  6  2       21 -.676604305460D-01 0.100000000000D+01
0.100133713729D-03 0.000000000000D+00 0.284801740828D-04 0.141062028977D-05 0.000000000000D+00  6 2 21 25 23 2 21 4 0.31885352D+00 0.12163418D-01 0.32848191D+05 0.32848191D+05 0.32848191D+05 0.12107859D+01  1  2  6  2  6  2       21 0.109543555740D+00 0.100000000000D+01
0.276186883742D-05 0.000000000000D+00 0.000000000000D+00 0.135710048731D-05 0.000000000000D+00  6 2 -1 25 23 2 -1 4 0.31885352D+00 0.15855530D-01 0.55793643D+05 0.55793643D+05 0.55793643D+05 0.11875948D+01  1  2 12  5  6  2       21 0.126905961948D-03 0.100000000000D+01
0.276186883742D-05 0.000000000000D+00 0.000000000000D+00 0.135710048731D-05 0.000000000000D+00  6 2 -3 25 23 2 -3 4 0.31885352D+00 0.15855530D-01 0.55793643D+05 0.55793643D+05 0.55793643D+05 0.11875948D+01  1  2 12  5  6  2       21 0.801955612379D-04 0.100000000000D+01
-.763092770185D-05 0.000000000000D+00 -.321293143955D-05 0.141062028977D-05 0.000000000000D+00  6 2 -1 25 23 2 -1 4 0.31885352D+00 0.16441800D-01 0.32848191D+05 0.32848191D+05 0.32848191D+05 0.12107859D+01  1  2  5  5  6  2       21 -.364123782774D-03 0.100000000000D+01
-.763092770185D-05 0.000000000000D+00 -.321293143955D-05 0.141062028977D-05 0.000000000000D+00  6 2 -3 25 23 2 -3 4 0.31885352D+00 0.16441800D-01 0.32848191D+05 0.32848191D+05 0.32848191D+05 0.12107859D+01  1  2  5  5  6  2       21 -.226362775027D-03 0.100000000000D+01
0.276186883742D-05 0.000000000000D+00 0.000000000000D+00 0.135710048731D-05 0.000000000000D+00  6 2 1 25 23 2 1 4 0.31885352D+00 0.15855530D-01 0.55793643D+05 0.55793643D+05 0.55793643D+05 0.11875948D+01  1  2 12  6  6  2       21 0.177502521353D-03 0.100000000000D+01
0.276186883742D-05 0.000000000000D+00 0.000000000000D+00 0.135710048731D-05 0.000000000000D+00  6 2 3 25 23 2 3 4 0.31885352D+00 0.15855530D-01 0.55793643D+05 0.55793643D+05 0.55793643D+05 0.11875948D+01  1  2 12  6  6  2       21 0.801872150559D-04 0.100000000000D+01
-.763092770185D-05 0.000000000000D+00 -.321293143955D-05 0.141062028977D-05 0.000000000000D+00  6 2 1 25 23 2 1 4 0.31885352D+00 0.16441800D-01 0.32848191D+05 0.32848191D+05 0.32848191D+05 0.12107859D+01  1  2  5  6  6  2       21 -.514894158970D-03 0.100000000000D+01
-.763092770185D-05 0.000000000000D+00 -.321293143955D-05 0.141062028977D-05 0.000000000000D+00  6 2 3 25 23 2 3 4 0.31885352D+00 0.16441800D-01 0.32848191D+05 0.32848191D+05 0.32848191D+05 0.12107859D+01  1  2  5  6  6  2       21 -.226338211097D-03 0.100000000000D+01
0.276186883742D-05 0.000000000000D+00 0.000000000000D+00 0.135710048731D-05 0.000000000000D+00  6 2 -2 25 23 2 -2 4 0.31885352D+00 0.15855530D-01 0.55793643D+05 0.55793643D+05 0.55793643D+05 0.11875948D+01  1  2 12  7  6  2       21 0.118274498768D-03 0.100000000000D+01
-.763092770185D-05 0.000000000000D+00 -.321293143955D-05 0.141062028977D-05 0.000000000000D+00  6 2 -2 25 23 2 -2 4 0.31885352D+00 0.16441800D-01 0.32848191D+05 0.32848191D+05 0.32848191D+05 0.12107859D+01  1  2  5  7  6  2       21 -.338355141589D-03 0.100000000000D+01
0.276186883742D-05 0.000000000000D+00 0.000000000000D+00 0.135710048731D-05 0.000000000000D+00  6 2 2 25 23 2 2 4 0.31885352D+00 0.15855530D-01 0.55793643D+05 0.55793643D+05 0.55793643D+05 0.11875948D+01  1  2 12  8  6  2       21 0.212734721688D-03 0.100000000000D+01
-.763092770185D-05 0.000000000000D+00 -.321293143955D-05 0.141062028977D-05 0.000000000000D+00  6 2 2 25 23 2 2 4 0.31885352D+00 0.16441800D-01 0.32848191D+05 0.32848191D+05 0.32848191D+05 0.12107859D+01  1  2  5  8  6  2       21 -.619719116172D-03 0.100000000000D+01
0.276186883742D-05 0.000000000000D+00 0.000000000000D+00 0.135710048731D-05 0.000000000000D+00  6 2 -4 25 23 2 -4 4 0.31885352D+00 0.15855530D-01 0.55793643D+05 0.55793643D+05 0.55793643D+05 0.11875948D+01  1  2 12  9  6  2       21 0.696449753099D-04 0.100000000000D+01
-.763092770185D-05 0.000000000000D+00 -.321293143955D-05 0.141062028977D-05 0.000000000000D+00  6 2 -4 25 23 2 -4 4 0.31885352D+00 0.16441800D-01 0.32848191D+05 0.32848191D+05 0.32848191D+05 0.12107859D+01  1  2  5  9  6  2       21 -.195366461350D-03 0.100000000000D+01
0.276186883742D-05 0.000000000000D+00 0.000000000000D+00 0.135710048731D-05 0.000000000000D+00  6 2 4 25 23 2 4 4 0.31885352D+00 0.15855530D-01 0.55793643D+05 0.55793643D+05 0.55793643D+05 0.11875948D+01  1  2 12 10  6  2       21 0.696449753099D-04 0.100000000000D+01
-.763092770185D-05 0.000000000000D+00 -.321293143955D-05 0.141062028977D-05 0.000000000000D+00  6 2 4 25 23 2 4 4 0.31885352D+00 0.16441800D-01 0.32848191D+05 0.32848191D+05 0.32848191D+05 0.12107859D+01  1  2  5 10  6  2       21 -.195366461350D-03 0.100000000000D+01
  </mgrwgt>
  </event>
  <event>
  5     66 0.44822969E-03 0.14733198E+03 0.75467711E-02 0.11025631E+00
        2 -1    0    0  502    0 0.00000000E+00 0.00000000E+00 0.14022244E+04 0.14022245E+04 0.32000000E+00 0.0000E+00 0.9000E+01
       21 -1    0    0  501  502 0.00000000E+00 0.00000000E+00 -.77374613E+02 0.77378248E+02 0.75000000E+00 0.0000E+00 0.9000E+01
       25  1    1    2    0    0 0.16325192E+03 0.21350360E+02 0.37784055E+03 0.43069189E+03 0.12500000E+03 0.0000E+00 0.9000E+01
       23  1    1    2    0    0 0.53779156E+02 0.20394663E+02 0.39408544E+02 0.11478861E+03 0.91188000E+02 0.0000E+00 0.9000E+01
        2  1    1    2  501    0 -.21703107E+03 -.41745023E+02 0.90760071E+03 0.93412220E+03 0.32000000E+00 0.0000E+00 0.9000E+01
#aMCatNLO 1  0  0  2  1 0.88815524D+02 0.00000000D+00  -5  6  0 0.00000000D+00 0.00000000D+00 0.00000000D+00 0.00000000D+00 0.00000000D+00
  <mgrwgt>
 0.3532890272D-02    1    2    0
 0.329392301564690D+03 0.000000000000000D+00 0.000000000000000D+00 0.329392301564690D+03
 0.329392301564690D+03 0.000000000000000D+00 0.000000000000000D+00 -.329392301564690D+03
 0.207459217648385D+03 0.163251963681946D+03 0.213503694707505D+02 -.175295483322094D+02
 0.178557841922708D+03 0.537791964775367D+02 0.203946705030569D+02 -.142335895013862D+03
 0.272767543558286D+03 -.217031160159482D+03 -.417450399738074D+02 0.159865443346072D+03
 0.000000000000000D+00 -.000000000000000D+00 0.000000000000000D+00 -.000000000000000D+00
 0.331705381739714D+03 0.000000000000000D+00 0.000000000000000D+00 0.331705381739714D+03
 0.338940041702641D+03 0.000000000000000D+00 0.000000000000000D+00 -.338940041702641D+03
 0.207793040069723D+03 0.164020680954713D+03 0.185169829032256D+02 -.175295483322094D+02
 0.178496484204123D+03 0.544401774179375D+02 0.179583852987722D+02 -.142335895013862D+03
 0.272560939853484D+03 -.216021645059349D+03 -.454659743482005D+02 0.159865443346072D+03
 0.117949593150253D+02 -.243921331330151D+01 0.899060614620262D+01 -.723465996292692D+01
0.159839635291D-05 0.000000000000D+00 0.000000000000D+00 0.548737892625D-07 0.000000000000D+00  6 2 21 25 23 2 21 4 0.21572712D+00 0.11904069D-01 0.71700397D+05 0.71700397D+05 0.71700397D+05 0.11770818D+01  1  2 14  2  6  2       21 0.353289027179D-02 0.100000000000D+01
  </mgrwgt>
  </event>
  <event>
  5     66 0.44822969E-03 0.47643560E+02 0.75467711E-02 0.11963030E+00
        2 -1    0    0  502    0 0.00000000E+00 0.00000000E+00 0.43711471E+03 0.43711482E+03 0.32000000E+00 0.0000E+00 0.9000E+01
       21 -1    0    0  501  502 0.00000000E+00 0.00000000E+00 -.12579175E+03 0.12579398E+03 0.75000000E+00 0.0000E+00 0.9000E+01
       25  1    1    2    0    0 0.30745410E+02 -.87408479E+02 0.94179153E+01 0.15588207E+03 0.12500000E+03 0.0000E+00 0.9000E+01
       23  1    1    2    0    0 -.22574226E+01 0.49220289E+02 0.23174708E+01 0.10367427E+03 0.91188000E+02 0.0000E+00 0.9000E+01
        2  1    1    2  501    0 -.28487987E+02 0.38188190E+02 0.29958757E+03 0.30335247E+03 0.32000000E+00 0.0000E+00 0.9000E+01
#aMCatNLO 1  0  0  5  2 0.53404487D-01 0.00000000D+00  -5  6  0 0.00000000D+00 0.00000000D+00 0.00000000D+00 0.00000000D+00 0.00000000D+00
  <mgrwgt>
 0.1989763873D-01    1    2    0
 0.234491120174488D+03 0.000000000000000D+00 0.000000000000000D+00 0.234491120174488D+03
 0.234491120174488D+03 -.000000000000000D+00 -.000000000000000D+00 -.234491120174488D+03
 0.180849943487547D+03 0.307454306292755D+02 -.874085062097453D+02 -.921746906534013D+02
 0.122899526332041D+03 -.225740858986573D+01 0.492202698538861D+02 -.660402253979270D+02
 0.165232770529389D+03 -.284880220394098D+02 0.381882363558592D+02 0.158214916051328D+03
 0.000000000000000D+00 0.000000000000000D+00 0.000000000000000D+00 -.000000000000000D+00
 0.234491120174488D+03 0.000000000000000D+00 0.000000000000000D+00 0.234491120174488D+03
 0.234491120174488D+03 -.000000000000000D+00 -.000000000000000D+00 -.234491120174488D+03
 0.169458633696281D+03 0.274436611225301D+02 -.829824792240271D+02 -.738375388284028D+02
 0.117991911473380D+03 -.452788683557713D+01 0.522638493543553D+02 -.534305916176437D+02
 0.477250296711311D+02 -.307310051062948D+02 -.348520997348611D+02 0.108910479908274D+02
 0.133806665508185D+03 0.781523081934184D+01 0.655707296045329D+02 0.116377082455219D+03
0.394997864549D-05 0.000000000000D+00 0.000000000000D+00 0.762794597533D-07 0.000000000000D+00  6 2 21 25 23 2 21 4 0.67248597D-01 0.19352758D-01 0.23545252D+05 0.23545252D+05 0.23545252D+05 0.12260990D+01  1  2 14  3  6  5        2 0.198976387342D-01 0.100000000000D+01
  </mgrwgt>
  </event>
  <event>
  5     66 -.44822969E-03 0.28829576E+02 0.75467711E-02 0.11754909E+00
        2 -1    0    0  502    0 0.00000000E+00 0.00000000E+00 0.21164182E+04 0.21164183E+04 0.32000000E+00 0.0000E+00 0.9000E+01
       21 -1    0    0  501  502 0.00000000E+00 0.00000000E+00 -.23149237E+02 0.23161383E+02 0.75000000E+00 0.0000E+00 0.9000E+01
       25  1    1    2    0    0 -.56425972E+02 0.48757007E+02 0.12953394E+04 0.13034916E+04 0.12500000E+03 0.0000E+00 0.9000E+01
       23  1    1    2    0    0 0.33058074E+02 -.31872594E+02 0.80064565E+03 0.80712911E+03 0.91188000E+02 0.0000E+00 0.9000E+01
        2  1    1    2  501    0 0.23367898E+02 -.16884413E+02 -.27160415E+01 0.28958959E+02 0.32000000E+00 0.0000E+00 0.9000E+01
#aMCatNLO 1  0  0  2  1 0.15684002D+02 0.00000000D+00  -5  6  0 0.00000000D+00 0.00000000D+00 0.00000000D+00 0.00000000D+00 0.00000000D+00
  <mgrwgt>
 -.7482789669D+00   12    2    0
 0.221374088193775D+03 0.000000000000000D+00 0.000000000000000D+00 0.221374088193775D+03
 0.221374088193775D+03 0.000000000000000D+00 0.000000000000000D+00 -.221374088193775D+03
 0.174885588804811D+03 -.564259921397101D+02 0.487570214691946D+02 0.969475602586643D+02
 0.115077420114280D+03 0.330580609992492D+02 -.318725841446086D+02 0.530929774930101D+02
 0.152785167468458D+03 0.233679311404610D+02 -.168844373245860D+02 -.150040537751674D+03
 0.000000000000000D+00 -.000000000000000D+00 -.000000000000000D+00 -.000000000000000D+00
 0.225010264688515D+03 0.000000000000000D+00 0.000000000000000D+00 0.225010264688515D+03
 0.908918679942381D+03 0.000000000000000D+00 0.000000000000000D+00 -.908918679942381D+03
 0.181368349713080D+03 -.503047291578627D+02 0.730758719543792D+02 0.969475602586643D+02
 0.112992121414933D+03 0.369768208806352D+02 -.163039448090045D+02 0.530929774930101D+02
 0.152797211684855D+03 0.286185400549842D+02 0.397543645099389D+01 -.150040537751674D+03
 0.686771261818029D+03 -.152906317777566D+02 -.607473635963686D+02 -.683908415253866D+03
0.196580217679D-05 0.000000000000D+00 0.000000000000D+00 0.372748466627D-05 0.000000000000D+00  6 2 21 25 23 2 21 2 0.32560374D+00 0.35623572D-02 0.19110561D+05 0.19110561D+05 0.19110561D+05 0.12360070D+01  1  2  2  2  6  2       21 0.121559723849D-01 0.100000000000D+01
0.412491280463D-06 0.103738230916D-06 -.396838822222D-08 0.372748466627D-05 0.000000000000D+00  6 2 21 25 23 2 21 4 0.32560374D+00 0.35623572D-02 0.19110561D+05 0.19110561D+05 0.19110561D+05 0.12360070D+01  1  2  3  2  6  2       21 0.389678582873D-02 0.100000000000D+01
0.197704924796D-06 0.000000000000D+00 0.000000000000D+00 0.372748466627D-05 0.000000000000D+00  6 2 21 25 23 2 21 4 0.32560374D+00 0.35623572D-02 0.19110561D+05 0.19110561D+05 0.19110561D+05 0.12360070D+01  1  2 15  2  6  2       21 0.186770917521D-02 0.100000000000D+01
-.769213726340D-03 0.000000000000D+00 -.903631155586D-05 0.372748466627D-05 0.000000000000D+00  6 2 21 25 23 2 21 4 0.32560374D+00 0.14760620D-01 0.19110561D+05 0.19110561D+05 0.19110561D+05 0.12360070D+01  1  2  5  2  6  2       21 -.629228735685D+00 0.100000000000D+01
-.317729715899D-03 0.000000000000D+00 -.359681593570D-05 0.372748466627D-05 0.000000000000D+00  6 2 -1 25 23 2 -1 4 0.32560374D+00 0.14760620D-01 0.19110561D+05 0.19110561D+05 0.19110561D+05 0.12360070D+01  1  2  5  5  6  2       21 -.188677778517D-01 0.100000000000D+01
-.317729715899D-03 0.000000000000D+00 -.359681593570D-05 0.372748466627D-05 0.000000000000D+00  6 2 -3 25 23 2 -3 4 0.32560374D+00 0.14760620D-01 0.19110561D+05 0.19110561D+05 0.19110561D+05 0.12360070D+01  1  2  5  5  6  2       21 -.117672409632D-01 0.100000000000D+01
-.317729715899D-03 0.000000000000D+00 -.359681593570D-05 0.372748466627D-05 0.000000000000D+00  6 2 1 25 23 2 1 4 0.32560374D+00 0.14760620D-01 0.19110561D+05 0.19110561D+05 0.19110561D+05 0.12360070D+01  1  2  5  6  6  2       21 -.258996003196D-01 0.100000000000D+01
-.317729715899D-03 0.000000000000D+00 -.359681593570D-05 0.372748466627D-05 0.000000000000D+00  6 2 3 25 23 2 3 4 0.32560374D+00 0.14760620D-01 0.19110561D+05 0.19110561D+05 0.19110561D+05 0.12360070D+01  1  2  5  6  6  2       21 -.117657876653D-01 0.100000000000D+01
-.317729715899D-03 0.000000000000D+00 -.359681593570D-05 0.372748466627D-05 0.000000000000D+00  6 2 -2 25 23 2 -2 4 0.32560374D+00 0.14760620D-01 0.19110561D+05 0.19110561D+05 0.19110561D+05 0.12360070D+01  1  2  5  7  6  2       21 -.176561135904D-01 0.100000000000D+01
-.317729715899D-03 0.000000000000D+00 -.359681593570D-05 0.372748466627D-05 0.000000000000D+00  6 2 2 25 23 2 2 4 0.32560374D+00 0.14760620D-01 0.19110561D+05 0.19110561D+05 0.19110561D+05 0.12360070D+01  1  2  5  8  6  2       21 -.307369176216D-01 0.100000000000D+01
-.317729715899D-03 0.000000000000D+00 -.359681593570D-05 0.372748466627D-05 0.000000000000D+00  6 2 -4 25 23 2 -4 4 0.32560374D+00 0.14760620D-01 0.19110561D+05 0.19110561D+05 0.19110561D+05 0.12360070D+01  1  2  5  9  6  2       21 -.101386302951D-01 0.100000000000D+01
-.317729715899D-03 0.000000000000D+00 -.359681593570D-05 0.372748466627D-05 0.000000000000D+00  6 2 4 25 23 2 4 4 0.32560374D+00 0.14760620D-01 0.19110561D+05 0.19110561D+05 0.19110561D+05 0.12360070D+01  1  2  5 10  6  2       21 -.101386302951D-01 0.100000000000D+01
  </mgrwgt>
  </event>
  <event>
  6     66 -.44822969E-03 0.34836984E+02 0.75467711E-02 0.11938518E+00
        2 -1    0    0  503    0 0.00000000E+00 0.00000000E+00 0.84674634E+03 0.84674640E+03 0.32000000E+00 0.0000E+00 0.9000E+01
       21 -1    0    0  501  502 0.00000000E+00 0.00000000E+00 -.29624522E+02 0.29634014E+02 0.75000000E+00 0.0000E+00 0.9000E+01
       25  1    1    2    0    0 0.50733588E+02 -.18893552E+02 0.42098461E+03 0.44247475E+03 0.12500000E+03 0.0000E+00 0.9000E+01
       23  1    1    2    0    0 -.85809715E+02 0.41505007E+02 0.29490133E+03 0.32306039E+03 0.91188000E+02 0.0000E+00 0.9000E+01
        2  1    1    2  501    0 0.33144216E+02 -.17593618E+02 0.72871834E+02 0.81966341E+02 0.32000000E+00 0.0000E+00 0.9000E+01
       21  1    1    2  503  502 0.19319107E+01 -.50178367E+01 0.28364052E+02 0.28878936E+02 0.75000000E+00 0.0000E+00 0.9000E+01
#aMCatNLO 2  0  0  1  2 0.53768917D+01 0.00000000D+00  -5  6  0 0.00000000D+00 0.00000000D+00 0.00000000D+00 0.00000000D+00 0.00000000D+00
  <mgrwgt>
 -.1432060480D+00    3    2    0
 0.154992767742804D+03 0.000000000000000D+00 0.000000000000000D+00 0.154992767742804D+03
 0.154992767742804D+03 0.000000000000000D+00 0.000000000000000D+00 -.154992767742804D+03
 0.139154493269817D+03 0.515982680803648D+02 -.211404489843203D+02 0.250932888443865D+02
 0.131665884290152D+03 -.849859784253051D+02 0.393645092547625D+02 -.157630144367408D+02
 0.391651579256398D+02 0.333877103449403D+02 -.182240602704421D+02 -.933027440764567D+01
 0.000000000000000D+00 0.000000000000000D+00 -.000000000000000D+00 0.000000000000000D+00
 0.160417943445789D+03 0.000000000000000D+00 0.000000000000000D+00 0.160417943445789D+03
 0.156354091813493D+03 0.000000000000000D+00 0.000000000000000D+00 -.156354091813493D+03
 0.138511644254532D+03 0.507330892707234D+02 -.188932819307530D+02 0.250932888443865D+02
 0.132852550893807D+03 -.858101903617016D+02 0.415052712429053D+02 -.157630144367408D+02
 0.386679695939607D+02 0.331451904135634D+02 -.175941525640233D+02 -.933027440764567D+01
 0.673987051698320D+01 0.193191067741483D+01 -.501783674812904D+01 0.406385163229611D+01
-.576217152385D-05 0.000000000000D+00 0.000000000000D+00 0.236129015540D-06 0.000000000000D+00  6 2 21 25 23 2 21 4 0.13079238D+00 0.45180675D-02 0.24185863D+05 0.24185863D+05 0.24185863D+05 0.12248422D+01  1  2 13  1  6  1        2 -.171560275428D+00 0.100000000000D+01
-.241138465566D-05 0.000000000000D+00 0.000000000000D+00 0.236762794242D-06 0.000000000000D+00  6 2 21 25 23 2 21 4 0.12584717D+00 0.45180675D-02 0.23352387D+05 0.23352387D+05 0.23352387D+05 0.12264849D+01  1  2  8  1  6  1        2 -.757799177499D-01 0.100000000000D+01
0.353050616748D-05 0.000000000000D+00 0.000000000000D+00 0.236762794242D-06 0.762486055896D-07  6 2 21 25 23 2 21 4 0.13025216D+00 0.45577503D-02 0.24185863D+05 0.24185863D+05 0.24185863D+05 0.12248422D+01  1  2  1  1  6  1        2 0.104134145219D+00 0.100000000000D+01
  </mgrwgt>
  </event>
  <event>
  5     66 0.44822969E-03 0.28194928E+02 0.75467711E-02 0.10493385E+00
        2 -1    0    0  502    0 0.00000000E+00 0.00000000E+00 0.59059136E+03 0.59059145E+03 0.32000000E+00 0.0000E+00 0.9000E+01
       21 -1    0    0  501  502 0.00000000E+00 0.00000000E+00 -.35365065E+03 0.35365145E+03 0.75000000E+00 0.0000E+00 0.9000E+01
       25  1    1    2    0    0 -.25254297E+02 -.66514251E+02 0.37748094E+03 0.40395394E+03 0.12500000E+03 0.0000E+00 0.9000E+01
       23  1    1    2    0    0 -.11461054E+01 0.56616147E+02 0.18480898E+03 0.21372017E+03 0.91188000E+02 0.0000E+00 0.9000E+01
        2  1    1    2  501    0 0.26400402E+02 0.98981037E+01 -.32534921E+03 0.32656878E+03 0.32000000E+00 0.0000E+00 0.9000E+01
#aMCatNLO 1  0  0  5  2 0.70962351D+02 0.00000000D+00  -5  6  0 0.00000000D+00 0.00000000D+00 0.00000000D+00 0.00000000D+00 0.00000000D+00
  <mgrwgt>
 0.1273495418D+01    3    2    0
 0.457015794517528D+03 0.000000000000000D+00 0.000000000000000D+00 0.457015794517528D+03
 0.457015794517528D+03 -.000000000000000D+00 -.000000000000000D+00 -.457015794517528D+03
 0.319452934269649D+03 -.252542994407882D+02 -.665142519264943D+02 0.285242444008430D+03
 0.172876957428370D+03 -.114610681252634D+01 0.566161466924435D+02 0.135515642781800D+03
 0.421701697337038D+03 0.264004062533147D+02 0.989810523405089D+01 -.420758086790230D+03
 0.000000000000000D+00 0.000000000000000D+00 -.000000000000000D+00 0.000000000000000D+00
 0.457015794517528D+03 0.000000000000000D+00 0.000000000000000D+00 0.457015794517528D+03
 0.457015794517528D+03 -.000000000000000D+00 -.000000000000000D+00 -.457015794517528D+03
 0.217175996098021D+03 -.176995774613677D+02 -.636818169840618D+02 0.164838601135976D+03
 0.127837468562544D+03 0.308738444186026D+01 0.582033776441676D+02 0.680441173989192D+02
 0.290641582167350D+03 0.239114487351019D+03 0.119457220400358D+03 -.114134848831633D+03
 0.278376542207142D+03 -.224502294331512D+03 -.113978781060464D+03 -.118747869703262D+03
0.232192605949D-02 0.000000000000D+00 0.000000000000D+00 0.296682198387D-04 0.000000000000D+00  6 2 21 25 23 2 21 2 0.90860277D-01 0.54407860D-01 0.19511171D+05 0.19511171D+05 0.19511171D+05 0.12350109D+01  1  2  2  3  6  5        2 0.749774106938D+00 0.100000000000D+01
0.890444803937D-03 0.122531404520D-03 -.468729973757D-05 0.296682198387D-04 0.000000000000D+00  6 2 21 25 23 2 21 4 0.90860277D-01 0.54407860D-01 0.19511171D+05 0.19511171D+05 0.19511171D+05 0.12350109D+01  1  2  3  3  6  5        2 0.438561645965D+00 0.100000000000D+01
0.172906093789D-03 0.000000000000D+00 0.000000000000D+00 0.296682198387D-04 0.000000000000D+00  6 2 21 25 23 2 21 4 0.90860277D-01 0.54407860D-01 0.19511171D+05 0.19511171D+05 0.19511171D+05 0.12350109D+01  1  2 15  3  6  5        2 0.851596648712D-01 0.100000000000D+01
  </mgrwgt>
  </event>
  <event>
  6     66 -.44822969E-03 0.43396034E+02 0.75467711E-02 0.11906615E+00
        2 -1    0    0  502    0 0.00000000E+00 0.00000000E+00 0.37941572E+03 0.37941585E+03 0.32000000E+00 0.0000E+00 0.9000E+01
       21 -1    0    0  501  503 0.00000000E+00 0.00000000E+00 -.83030540E+02 0.83033927E+02 0.75000000E+00 0.0000E+00 0.9000E+01
       25  1    1    2    0    0 0.65719865E+02 -.43192384E+02 0.15151153E+03 0.21157842E+03 0.12500000E+03 0.0000E+00 0.9000E+01
       23  1    1    2    0    0 -.29042160E+02 0.56050917E+02 0.15610795E+03 0.19149437E+03 0.91188000E+02 0.0000E+00 0.9000E+01
        2  1    1    2  501    0 -.46373136E+02 -.13322743E+02 -.11635849E+02 0.49633241E+02 0.32000000E+00 0.0000E+00 0.9000E+01
       21  1    1    2  502  503 0.96954302E+01 0.46420999E+00 0.40154687E+00 0.97437466E+01 0.75000000E+00 0.0000E+00 0.9000E+01
#aMCatNLO 2  0  0  2  1 0.97065368D+01 0.00000000D+00  -5  6  0 0.00000000D+00 0.00000000D+00 0.00000000D+00 0.00000000D+00 0.00000000D+00
  <mgrwgt>
 -.2661837080D-01    3    2    0
 0.171203259924933D+03 0.000000000000000D+00 0.000000000000000D+00 0.171203259924933D+03
 0.171203259924933D+03 0.000000000000000D+00 0.000000000000000D+00 -.171203259924933D+03
 0.150566810626420D+03 0.699562118109634D+02 -.429895054772615D+02 0.174182464700772D+02
 0.117491110546122D+03 -.257059701510437D+02 0.562106861783222D+02 0.408469285420207D+02
 0.743485986773240D+02 -.442502416599197D+02 -.132211807010607D+02 -.582651750120979D+02
 0.000000000000000D+00 0.000000000000000D+00 0.000000000000000D+00 -.000000000000000D+00
 0.173581758560050D+03 0.000000000000000D+00 0.000000000000000D+00 0.173581758560050D+03
 0.181469892088019D+03 0.000000000000000D+00 0.000000000000000D+00 -.181469892088019D+03
 0.148704730059652D+03 0.657200430120702D+02 -.431923300889567D+02 0.174182464700772D+02
 0.118189981893137D+03 -.290420203748354D+02 0.560509585745937D+02 0.408469285420207D+02
 0.756493606759050D+02 -.463734528207709D+02 -.133228384724317D+02 -.582651750120979D+02
 0.125075780193745D+02 0.969543018353613D+01 0.464209986794689D+00 -.788813352796950D+01
-.502813750302D-05 0.000000000000D+00 0.000000000000D+00 0.412785717875D-06 0.000000000000D+00  6 2 21 25 23 2 21 4 0.57568386D-01 0.12853841D-01 0.25050040D+05 0.25050040D+05 0.25050040D+05 0.12232045D+01  1  2 13  2  6  2       21 -.624348997096D-01 0.100000000000D+01
-.629994243192D-06 0.000000000000D+00 0.000000000000D+00 0.414946264987D-06 0.000000000000D+00  6 2 21 25 23 2 21 4 0.57568386D-01 0.12050728D-01 0.23393880D+05 0.23393880D+05 0.23393880D+05 0.12264015D+01  1  2  8  2  6  2       21 -.886545377633D-02 0.100000000000D+01
0.361113953419D-05 0.000000000000D+00 0.000000000000D+00 0.414946264987D-06 0.443285074341D-07  6 2 21 25 23 2 21 4 0.58368174D-01 0.12773380D-01 0.25050040D+05 0.25050040D+05 0.25050040D+05 0.12232045D+01  1  2  1  2  6  2       21 0.446819826816D-01 0.100000000000D+01
  </mgrwgt>
  </event>
  <event>
  5     66 0.44822969E-03 0.11049371E+03 0.75467711E-02 0.11135764E+00
        2 -1    0    0  502    0 0.00000000E+00 0.00000000E+00 0.16327482E+04 0.16327482E+04 0.32000000E+00 0.0000E+00 0.9000E+01
       21 -1    0    0  501  502 0.00000000E+00 0.00000000E+00 -.74483231E+02 0.74487007E+02 0.75000000E+00 0.0000E+00 0.9000E+01
       25  1    1    2    0    0 0.15860003E+03 0.10320194E+03 0.45404130E+03 0.50752646E+03 0.12500000E+03 0.0000E+00 0.9000E+01
       23  1    1    2    0    0 -.69111264E+01 -.74557145E+02 0.40358292E+02 0.12470194E+03 0.91188000E+02 0.0000E+00 0.9000E+01
        2  1    1    2  501    0 -.15168890E+03 -.28644792E+02 0.10638654E+04 0.10750068E+04 0.32000000E+00 0.0000E+00 0.9000E+01
#aMCatNLO 1  0  0  2  1 0.97065368D+01 0.00000000D+00  -5  6  0 0.00000000D+00 0.00000000D+00 0.00000000D+00 0.00000000D+00 0.00000000D+00
  <mgrwgt>
 0.4081523272D-01    1    2    0
 0.348734301681392D+03 0.000000000000000D+00 0.000000000000000D+00 0.348734301681392D+03
 0.348734301681392D+03 0.000000000000000D+00 0.000000000000000D+00 -.348734301681392D+03
 0.227896189701640D+03 0.158600069345677D+03 0.103201943735220D+03 -.225177728326921D+02
 0.215073001492997D+03 -.691108939425099D+01 -.745571377372990D+02 -.179818282393679D+03
 0.254499412168146D+03 -.151688979951426D+03 -.286448059979212D+02 0.202336055226371D+03
 0.000000000000000D+00 -.000000000000000D+00 -.000000000000000D+00 0.000000000000000D+00
 0.511398615385661D+03 0.000000000000000D+00 0.000000000000000D+00 0.511398615385661D+03
 0.386197785530994D+03 0.000000000000000D+00 0.000000000000000D+00 -.386197785530994D+03
 0.269366150887508D+03 0.203263670068115D+03 0.122922551149281D+03 -.225177728326921D+02
 0.212035305104366D+03 0.314513469175353D+02 -.576187240466267D+02 -.179818282393679D+03
 0.229645570553407D+03 -.108203567051613D+03 -.944441144476206D+01 0.202336055226371D+03
 0.186549374371374D+03 -.126511449934037D+03 -.558594156578923D+02 0.125200829854667D+03
0.223360621945D-04 0.000000000000D+00 0.000000000000D+00 0.257614066266D-07 0.000000000000D+00  6 2 21 25 23 2 21 4 0.25119233D+00 0.11459252D-01 0.62285564D+05 0.62285564D+05 0.62285564D+05 0.11829460D+01  1  2 14  2  6  2       21 0.408152327201D-01 0.100000000000D+01
  </mgrwgt>
  </event>
  <event>
  6     66 0.44822969E-03 0.54220039E+02 0.75467711E-02 0.12002154E+00
        2 -1    0    0  502    0 0.00000000E+00 0.00000000E+00 0.91133055E+03 0.91133061E+03 0.32000000E+00 0.0000E+00 0.9000E+01
       21 -1    0    0  501  502 0.00000000E+00 0.00000000E+00 -.28420740E+02 0.28430634E+02 0.75000000E+00 0.0000E+00 0.9000E+01
       25  1    1    2    0    0 -.47634957E+02 0.13607936E+02 0.46568846E+03 0.48471126E+03 0.12500000E+03 0.0000E+00 0.9000E+01
       23  1    1    2    0    0 -.22191943E+02 -.14085425E+01 0.21107193E+03 0.23100016E+03 0.91188000E+02 0.0000E+00 0.9000E+01
        2  1    1    2  503    0 0.60204327E+02 -.54785325E+01 0.20309064E+03 0.21189734E+03 0.32000000E+00 0.0000E+00 0.9000E+01
       21  1    1    2  501  503 0.96225724E+01 -.67208606E+01 0.30587862E+01 0.12152471E+02 0.75000000E+00 0.0000E+00 0.9000E+01
#aMCatNLO 2  0  0  5  2 0.22848862D+02 0.00000000D+00  -5  6  0 0.00000000D+00 0.00000000D+00 0.00000000D+00 0.00000000D+00 0.00000000D+00
  <mgrwgt>
 0.4138133342D-01    2    2    0
 0.160951434310816D+03 0.000000000000000D+00 0.000000000000000D+00 0.160951434310816D+03
 0.160951434310816D+03 -.000000000000000D+00 -.000000000000000D+00 -.160951434310816D+03
 0.140834215097451D+03 -.548096499118216D+02 0.148614195940143D+02 0.313738207158344D+02
 0.965589154300275D+02 -.271365750773893D+02 -.544670429670944D+00 -.164827920030393D+02
 0.845097380941533D+02 0.819462249892109D+02 -.143167491643434D+02 -.148910287127951D+02
 0.000000000000000D+00 0.000000000000000D+00 0.000000000000000D+00 -.000000000000000D+00
 0.160951434310816D+03 0.000000000000000D+00 0.000000000000000D+00 0.160951434310816D+03
 0.160951434310816D+03 -.000000000000000D+00 -.000000000000000D+00 -.160951434310816D+03
 0.137764595215271D+03 -.475953790022658D+02 0.136010209968937D+02 0.300628644726369D+02
 0.954505018224315D+02 -.221645224268762D+02 -.141333314889537D+01 -.173862988917345D+02
 0.613548824787114D+02 0.599445180074412D+02 -.539910091592954D+01 0.119132730234664D+02
 0.273328891052183D+02 0.981538342170082D+01 -.678858693206883D+01 -.245898386043688D+02
-.664363227133D-06 0.000000000000D+00 0.000000000000D+00 0.194912747372D-06 0.000000000000D+00  6 2 21 25 23 2 21 4 0.14020547D+00 0.43731870D-02 0.22562979D+05 0.22562979D+05 0.22562979D+05 0.12281023D+01  1  2 13  3  6  5        2 -.192782113623D-01 0.100000000000D+01
0.209044138836D-05 0.000000000000D+00 0.000000000000D+00 0.193446896302D-06 0.306598935462D-07  6 2 21 25 23 2 21 4 0.14020547D+00 0.43731870D-02 0.22562979D+05 0.22562979D+05 0.22562979D+05 0.12281023D+01  1  2  1  3  6  5        2 0.606595447782D-01 0.100000000000D+01
  </mgrwgt>
  </event>
  <event>
  5     66 0.44822969E-03 0.18887804E+03 0.75467711E-02 0.92787555E-01
        2 -1    0    0  502    0 0.00000000E+00 0.00000000E+00 0.18761680E+04 0.18761680E+04 0.32000000E+00 0.0000E+00 0.9000E+01
       21 -1    0    0  501  502 0.00000000E+00 0.00000000E+00 -.14863222E+03 0.14863411E+03 0.75000000E+00 0.0000E+00 0.9000E+01
       25  1    1    2    0    0 -.57036849E+02 0.18602295E+03 0.13184292E+04 0.13385583E+04 0.12500000E+03 0.0000E+00 0.9000E+01
       23  1    1    2    0    0 -.59234348E+02 -.37174330E+02 0.47307098E+03 0.48682855E+03 0.91188000E+02 0.0000E+00 0.9000E+01
        2  1    1    2  501    0 0.11627120E+03 -.14884862E+03 -.63964419E+02 0.19941528E+03 0.32000000E+00 0.0000E+00 0.9000E+01
#aMCatNLO 1  0  0  1  2 0.74924326D+01 0.00000000D+00  -5  6  0 0.00000000D+00 0.00000000D+00 0.00000000D+00 0.00000000D+00 0.00000000D+00
  <mgrwgt>
 0.5427365938D-01    3    2    0
 0.528072871544979D+03 0.000000000000000D+00 0.000000000000000D+00 0.528072871544979D+03
 0.528072871544979D+03 0.000000000000000D+00 0.000000000000000D+00 -.528072871544979D+03
 0.409680311399323D+03 -.570368591048408D+02 0.186022966294153D+03 0.338164472206684D+03
 0.159527667901690D+03 -.592343520037768D+02 -.371743254931210D+02 0.110648933790506D+03
 0.486937763788945D+03 0.116271211108618D+03 -.148848640801032D+03 -.448813405997191D+03
 0.000000000000000D+00 0.000000000000000D+00 -.000000000000000D+00 -.000000000000000D+00
 0.107499964412085D+04 0.000000000000000D+00 0.000000000000000D+00 0.107499964412085D+04
 0.142672885547383D+04 0.000000000000000D+00 0.000000000000000D+00 -.142672885547383D+04
 0.690894256572505D+03 -.442755060565240D+03 0.389002082058593D+03 0.338164472206684D+03
 0.251858533030688D+03 -.203412811280445D+03 0.386976869383746D+02 0.110648933790506D+03
 0.506320497003841D+03 -.231835860495534D+03 0.343381139801365D+02 -.448813405997191D+03
 0.105265521298765D+04 0.878003732341218D+03 -.462037882977104D+03 -.351729211352984D+03
0.176243325665D-03 0.000000000000D+00 0.000000000000D+00 0.448210849202D-06 0.000000000000D+00  6 2 21 25 23 2 21 2 0.28864137D+00 0.22866643D-01 0.71571844D+05 0.71571844D+05 0.71571844D+05 0.11771560D+01  1  2  2  1  6  1        2 0.470630179202D-01 0.100000000000D+01
0.241205493162D-05 0.930061581536D-05 -.355784496566D-06 0.448210849202D-06 0.000000000000D+00  6 2 21 25 23 2 21 4 0.28864137D+00 0.22866643D-01 0.71571844D+05 0.71571844D+05 0.71571844D+05 0.11771560D+01  1  2  3  1  6  1        2 0.892529035949D-03 0.100000000000D+01
0.170746649388D-04 0.000000000000D+00 0.000000000000D+00 0.448210849202D-06 0.000000000000D+00  6 2 21 25 23 2 21 4 0.28864137D+00 0.22866643D-01 0.71571844D+05 0.71571844D+05 0.71571844D+05 0.11771560D+01  1  2 15  1  6  1        2 0.631811242657D-02 0.100000000000D+01
  </mgrwgt>
  </event>
  <event>
  6     66 -.44822969E-03 0.59004349E+02 0.75467711E-02 0.12004994E+00
        2 -1    0    0  502    0 0.00000000E+00 0.00000000E+00 0.58581492E+03 0.58581501E+03 0.32000000E+00 0.0000E+00 0.9000E+01
       21 -1    0    0  503  502 0.00000000E+00 0.00000000E+00 -.39692401E+02 0.39699486E+02 0.75000000E+00 0.0000E+00 0.9000E+01
       25  1    1    2    0    0 -.39379653E+01 0.10493091E+02 0.24770202E+03 0.27768130E+03 0.12500000E+03 0.0000E+00 0.9000E+01
       23  1    1    2    0    0 -.21372851E+02 0.50957801E+02 0.21070035E+03 0.23614272E+03 0.91188000E+02 0.0000E+00 0.9000E+01
        2  1    1    2  501    0 0.21886143E+02 -.35860982E+02 0.64393693E+02 0.76887342E+02 0.32000000E+00 0.0000E+00 0.9000E+01
       21  1    1    2  503  501 0.34246725E+01 -.25589910E+02 0.23326455E+02 0.34803131E+02 0.75000000E+00 0.0000E+00 0.9000E+01
#aMCatNLO 2  0  0  2  1 0.25818053D+02 0.00000000D+00  -5  6  0 0.00000000D+00 0.00000000D+00 0.00000000D+00 0.00000000D+00 0.00000000D+00
  <mgrwgt>
 -.4244253740D-01    2    2    0
 0.136891944308722D+03 0.000000000000000D+00 0.000000000000000D+00 0.136891944308722D+03
 0.136891944308722D+03 0.000000000000000D+00 0.000000000000000D+00 -.136891944308722D+03
 0.125098136399829D+03 -.237390837068292D+01 -.119526667527369D+01 0.418086442412271D+01
 0.102130644747891D+03 -.200699221226966D+02 0.412209064274630D+02 0.366774479853291D+01
 0.465551074697239D+02 0.224438304933795D+02 -.400256397521893D+02 -.784860922265563D+01
 0.000000000000000D+00 0.000000000000000D+00 -.000000000000000D+00 -.000000000000000D+00
 0.144672773759595D+03 0.000000000000000D+00 0.000000000000000D+00 0.144672773759595D+03
 0.160729586503849D+03 0.000000000000000D+00 0.000000000000000D+00 -.160729586503849D+03
 0.125571108057806D+03 -.393820790399182D+01 0.104935251482583D+02 0.418086442412271D+01
 0.106687610998119D+03 -.213730508759532D+02 0.509581724636268D+02 0.366774479853291D+01
 0.427398073807639D+02 0.218865862493570D+02 -.358617876097149D+02 -.784860922265563D+01
 0.304038338267558D+02 0.342467253058800D+01 -.255899100021702D+02 -.160568127442542D+02
-.163759950000D-05 0.000000000000D+00 0.000000000000D+00 0.299838711574D-06 0.000000000000D+00  6 2 21 25 23 2 21 4 0.85276091D-01 0.62359170D-02 0.22493561D+05 0.22493561D+05 0.22493561D+05 0.12282475D+01  1  2 13  2  6  2       21 -.475362077376D-01 0.100000000000D+01
0.180235232499D-06 0.000000000000D+00 0.000000000000D+00 0.304242229768D-06 0.184076535137D-07  6 2 21 25 23 2 21 4 0.90123116D-01 0.61068847D-02 0.22493561D+05 0.22493561D+05 0.22493561D+05 0.12282475D+01  1  2  1  2  6  2       21 0.509367034040D-02 0.100000000000D+01
  </mgrwgt>
  </event>
</LesHouchesEvents>
