<event>
 5    0  0.6041737E-002  0.5648872E+03  0.7546771E-02  0.9981057E-01
         -1   -1    0    0    0  501 -0.00000000000E+00  0.00000000000E+00  0.14347210610E+03  0.14347210610E+03  0.00000000000E+00 0. -1.
          1   -1    0    0  503    0  0.00000000000E+00 -0.00000000000E+00 -0.55602709767E+03  0.55602709767E+03  0.00000000000E+00 0.  1.
         25    1    1    2    0    0 -0.14729755907E+03 -0.16094138975E+03 -0.25291914213E+02  0.25271205505E+03  0.12500000000E+03 0.  0.
         21    1    1    2  502  501  0.12286920994E+03  0.11928237713E+03 -0.26708495899E+03  0.31726881909E+03  0.00000000000E+00 0.  1.
         21    1    1    2  503  502  0.24428349133E+02  0.41659012626E+02 -0.12017811837E+03  0.12951832962E+03  0.00000000000E+00 0.  1.
<mgrwt>
<rscale>  4 0.56488717E+03</rscale>
<asrwt>0</asrwt>
<pdfrwt beam="1">  1        1 0.85542630E-01 0.56488717E+03</pdfrwt>
<pdfrwt beam="2">  1       -1 0.22072632E-01 0.56488717E+03</pdfrwt>
<totfact> 0.66711203E+02</totfact>
</mgrwt>
</event>
<event>
 5    0  0.6041737E-002  0.5330510E+03  0.7546771E-02  0.1005495E+00
          1   -1    0    0  503    0  0.00000000000E+00  0.00000000000E+00  0.19531489980E+03  0.19531489980E+03  0.00000000000E+00 0.  1.
         -1   -1    0    0    0  501 -0.00000000000E+00 -0.00000000000E+00 -0.41843543756E+03  0.41843543756E+03  0.00000000000E+00 0. -1.
         25    1    1    2    0    0  0.29791289025E+02  0.23930196560E+03 -0.58227970002E+00  0.27162159467E+03  0.12500000000E+03 0.  0.
         21    1    1    2  502  501 -0.31381734661E+02 -0.20562380339E+03 -0.22726499144E+03  0.30808332984E+03  0.00000000000E+00 0. -1.
         21    1    1    2  503  502  0.15904456370E+01 -0.33678162212E+02  0.47267333882E+01  0.34045412845E+02  0.00000000000E+00 0. -1.
<mgrwt>
<rscale>  4 0.53305105E+03</rscale>
<asrwt>0</asrwt>
<pdfrwt beam="1">  1        1 0.30048447E-01 0.53305105E+03</pdfrwt>
<pdfrwt beam="2">  1       -1 0.64374682E-01 0.53305105E+03</pdfrwt>
<totfact> 0.38105646E+02</totfact>
</mgrwt>
</event>
<event>
 5    0  0.6041737E-002  0.5414587E+03  0.7546771E-02  0.1003490E+00
          3   -1    0    0  503    0  0.00000000000E+00  0.00000000000E+00  0.91079224707E+03  0.91079224707E+03  0.00000000000E+00 0. -1.
         -3   -1    0    0    0  501 -0.00000000000E+00 -0.00000000000E+00 -0.80473217600E+02  0.80473217600E+02  0.00000000000E+00 0.  1.
         25    1    1    2    0    0  0.99088237719E+02  0.22473828019E+03  0.56025308874E+03  0.62436711707E+03  0.12500000000E+03 0.  0.
         21    1    1    2  502  501 -0.95939183140E+02 -0.19044656548E+03  0.24133350348E+03  0.32204981147E+03  0.00000000000E+00 0.  1.
         21    1    1    2  503  502 -0.31490545787E+01 -0.34291714716E+02  0.28732437249E+02  0.44848536132E+02  0.00000000000E+00 0.  1.
<mgrwt>
<rscale>  4 0.54145871E+03</rscale>
<asrwt>0</asrwt>
<pdfrwt beam="1">  1        3 0.14012188E+00 0.54145871E+03</pdfrwt>
<pdfrwt beam="2">  1       -3 0.12380496E-01 0.54145871E+03</pdfrwt>
<totfact> 0.54220791E+01</totfact>
</mgrwt>
</event>
<event>
 5    0  0.6041737E-002  0.8481197E+03  0.7546771E-02  0.9492864E-01
         -1   -1    0    0    0  501 -0.00000000000E+00  0.00000000000E+00  0.24039827709E+04  0.24039827709E+04  0.00000000000E+00 0.  1.
          1   -1    0    0  503    0  0.00000000000E+00 -0.00000000000E+00 -0.86440797322E+02  0.86440797322E+02  0.00000000000E+00 0. -1.
         25    1    1    2    0    0 -0.11911163840E+03  0.34411993848E+03  0.14029820008E+04  0.14548503734E+04  0.12500000000E+03 0.  0.
         21    1    1    2  502  501  0.17064088207E+03 -0.37709432949E+03  0.70765404633E+03  0.81981259642E+03  0.00000000000E+00 0. -1.
         21    1    1    2  503  502 -0.51529243675E+02  0.32974391006E+02  0.20690592647E+03  0.21576059841E+03  0.00000000000E+00 0. -1.
<mgrwt>
<rscale>  4 0.84811975E+03</rscale>
<asrwt>0</asrwt>
<pdfrwt beam="1">  1        1 0.13298586E-01 0.84811975E+03</pdfrwt>
<pdfrwt beam="2">  1       -1 0.36984345E+00 0.84811975E+03</pdfrwt>
<totfact> 0.54289032E+00</totfact>
</mgrwt>
</event>
<event>
 5    0  0.6041737E-002  0.5114940E+03  0.7546771E-02  0.1010822E+00
          2   -1    0    0  503    0  0.00000000000E+00  0.00000000000E+00  0.55167910187E+03  0.55167910187E+03  0.00000000000E+00 0.  1.
         -2   -1    0    0    0  501 -0.00000000000E+00 -0.00000000000E+00 -0.11855903229E+03  0.11855903229E+03  0.00000000000E+00 0. -1.
         25    1    1    2    0    0  0.13468012132E+03 -0.19027612415E+03  0.27157360306E+03  0.37910547396E+03  0.12500000000E+03 0.  0.
         21    1    1    2  502  501 -0.70380890564E+02  0.49911586448E+02  0.73863374486E+02  0.11358007884E+03  0.00000000000E+00 0. -1.
         21    1    1    2  503  502 -0.64299230757E+02  0.14036453770E+03  0.87683092038E+02  0.17755258137E+03  0.00000000000E+00 0. -1.
<mgrwt>
<rscale>  4 0.51149405E+03</rscale>
<asrwt>0</asrwt>
<pdfrwt beam="1">  1        2 0.84873706E-01 0.51149405E+03</pdfrwt>
<pdfrwt beam="2">  1       -2 0.18239851E-01 0.51149405E+03</pdfrwt>
<totfact> 0.13751230E+03</totfact>
</mgrwt>
</event>
<event>
 5    0  0.6041737E-002  0.5060353E+03  0.7546771E-02  0.1012216E+00
          2   -1    0    0  503    0  0.00000000000E+00  0.00000000000E+00  0.50741593244E+03  0.50741593244E+03  0.00000000000E+00 0. -1.
         -2   -1    0    0    0  501 -0.00000000000E+00 -0.00000000000E+00 -0.15070899665E+03  0.15070899665E+03  0.00000000000E+00 0.  1.
         25    1    1    2    0    0 -0.15581597809E+03 -0.17812694797E+03  0.10694719414E+03  0.28821958808E+03  0.12500000000E+03 0.  0.
         21    1    1    2  502  501  0.13523893274E+03  0.16389662964E+03  0.26571712788E+03  0.34023119520E+03  0.00000000000E+00 0. -1.
         21    1    1    2  503  502  0.20577045344E+02  0.14230318328E+02 -0.15957386218E+02  0.29674145813E+02  0.00000000000E+00 0. -1.
<mgrwt>
<rscale>  4 0.50603527E+03</rscale>
<asrwt>0</asrwt>
<pdfrwt beam="1">  1        2 0.78063989E-01 0.50603527E+03</pdfrwt>
<pdfrwt beam="2">  1       -2 0.23186000E-01 0.50603527E+03</pdfrwt>
<totfact> 0.99690796E+02</totfact>
</mgrwt>
</event>
<event>
 5    0  0.6041737E-002  0.5102540E+03  0.7546771E-02  0.1011137E+00
          2   -1    0    0  503    0  0.00000000000E+00  0.00000000000E+00  0.21016747313E+03  0.21016747313E+03  0.00000000000E+00 0.  1.
         -2   -1    0    0    0  501 -0.00000000000E+00 -0.00000000000E+00 -0.30970432577E+03  0.30970432577E+03  0.00000000000E+00 0. -1.
         25    1    1    2    0    0  0.18260376307E+03  0.11334939987E+03  0.44411469475E+02  0.25256602970E+03  0.12500000000E+03 0.  0.
         21    1    1    2  502  501 -0.16967205348E+03 -0.78069501917E+02 -0.11057111323E+03  0.21704705468E+03  0.00000000000E+00 0. -1.
         21    1    1    2  503  502 -0.12931709582E+02 -0.35279897953E+02 -0.33377208884E+02  0.50258714520E+02  0.00000000000E+00 0. -1.
<mgrwt>
<rscale>  4 0.51025396E+03</rscale>
<asrwt>0</asrwt>
<pdfrwt beam="1">  1        2 0.32333457E-01 0.51025396E+03</pdfrwt>
<pdfrwt beam="2">  1       -2 0.47646819E-01 0.51025396E+03</pdfrwt>
<totfact> 0.68645847E+02</totfact>
</mgrwt>
</event>
<event>
 5    0  0.6041737E-002  0.5908463E+03  0.7546771E-02  0.9924581E-01
          2   -1    0    0  503    0  0.00000000000E+00  0.00000000000E+00  0.11003132523E+04  0.11003132523E+04  0.00000000000E+00 0. -1.
         -2   -1    0    0    0  501 -0.00000000000E+00 -0.00000000000E+00 -0.79318181334E+02  0.79318181334E+02  0.00000000000E+00 0.  1.
         25    1    1    2    0    0 -0.16973638341E+03  0.11962856337E+03  0.90311672296E+03  0.93507553081E+03  0.12500000000E+03 0.  0.
         21    1    1    2  502  501  0.16207269004E+03 -0.93645713546E+02  0.10289981219E+03  0.21360114202E+03  0.00000000000E+00 0.  1.
         21    1    1    2  503  502  0.76636933662E+01 -0.25982849829E+02  0.14978535812E+02  0.30954760802E+02  0.00000000000E+00 0. -1.
<mgrwt>
<rscale>  4 0.59084633E+03</rscale>
<asrwt>0</asrwt>
<pdfrwt beam="1">  1        2 0.16927895E+00 0.59084633E+03</pdfrwt>
<pdfrwt beam="2">  1       -2 0.12202798E-01 0.59084633E+03</pdfrwt>
<totfact> 0.10885394E+03</totfact>
</mgrwt>
</event>
<event>
 5    0  0.6041737E-002  0.5267901E+03  0.7546771E-02  0.1007014E+00
          2   -1    0    0  503    0  0.00000000000E+00  0.00000000000E+00  0.10091817675E+04  0.10091817675E+04  0.00000000000E+00 0. -1.
         -2   -1    0    0    0  501 -0.00000000000E+00 -0.00000000000E+00 -0.68745741081E+02  0.68745741081E+02  0.00000000000E+00 0.  1.
         25    1    1    2    0    0 -0.11195515189E+03 -0.20914098869E+03  0.55742596954E+03  0.61856496886E+03  0.12500000000E+03 0.  0.
         21    1    1    2  502  501  0.17766101966E+02  0.10383672153E+03  0.21809459674E+03  0.24220436049E+03  0.00000000000E+00 0. -1.
         21    1    1    2  503  502  0.94189049927E+02  0.10530426716E+03  0.16491546011E+03  0.21715817920E+03  0.00000000000E+00 0.  1.
<mgrwt>
<rscale>  4 0.52679009E+03</rscale>
<asrwt>0</asrwt>
<pdfrwt beam="1">  1        2 0.15525872E+00 0.52679009E+03</pdfrwt>
<pdfrwt beam="2">  1       -2 0.10576269E-01 0.52679009E+03</pdfrwt>
<totfact> 0.15680219E+03</totfact>
</mgrwt>
</event>
<event>
 5    0  0.6041737E-002  0.6259078E+03  0.7546771E-02  0.9853067E-01
          2   -1    0    0  503    0  0.00000000000E+00  0.00000000000E+00  0.28993188080E+03  0.28993188080E+03  0.00000000000E+00 0. -1.
         -2   -1    0    0    0  501 -0.00000000000E+00 -0.00000000000E+00 -0.33780402676E+03  0.33780402676E+03  0.00000000000E+00 0.  1.
         25    1    1    2    0    0 -0.94495687965E+02  0.25939082338E+03 -0.14118781715E+03  0.33432324779E+03  0.12500000000E+03 0.  0.
         21    1    1    2  502  501  0.14488297754E+02 -0.20018597643E+02  0.16031181949E+02  0.29455964049E+02  0.00000000000E+00 0. -1.
         21    1    1    2  503  502  0.80007390211E+02 -0.23937222574E+03  0.77284489239E+02  0.26395669573E+03  0.00000000000E+00 0. -1.
<mgrwt>
<rscale>  4 0.62590784E+03</rscale>
<asrwt>0</asrwt>
<pdfrwt beam="1">  1        2 0.44604905E-01 0.62590784E+03</pdfrwt>
<pdfrwt beam="2">  1       -2 0.51969850E-01 0.62590784E+03</pdfrwt>
<totfact> 0.40245960E+02</totfact>
</mgrwt>
</event>
<event>
 5    0  0.6041737E-002  0.6365192E+03  0.7546771E-02  0.9832409E-01
         -1   -1    0    0    0  501 -0.00000000000E+00  0.00000000000E+00  0.64090186574E+02  0.64090186574E+02  0.00000000000E+00 0.  1.
          1   -1    0    0  503    0  0.00000000000E+00 -0.00000000000E+00 -0.15804163517E+04  0.15804163517E+04  0.00000000000E+00 0. -1.
         25    1    1    2    0    0 -0.20958837360E+03 -0.15566316465E+03 -0.11856153587E+04  0.12204372520E+04  0.12500000000E+03 0.  0.
         21    1    1    2  502  501  0.19719341585E+03  0.12907650766E+03 -0.30132968268E+03  0.38255138968E+03  0.00000000000E+00 0.  1.
         21    1    1    2  503  502  0.12394957755E+02  0.26586656984E+02 -0.29381123700E+02  0.41517896590E+02  0.00000000000E+00 0.  1.
<mgrwt>
<rscale>  4 0.63651922E+03</rscale>
<asrwt>0</asrwt>
<pdfrwt beam="1">  1        1 0.24314098E+00 0.63651922E+03</pdfrwt>
<pdfrwt beam="2">  1       -1 0.98600284E-02 0.63651922E+03</pdfrwt>
<totfact> 0.38140167E+02</totfact>
</mgrwt>
</event>
<event>
 5    0  0.6041737E-002  0.9283506E+03  0.7546771E-02  0.9390820E-01
         -2   -1    0    0    0  501 -0.00000000000E+00  0.00000000000E+00  0.52347873928E+03  0.52347873928E+03  0.00000000000E+00 0.  1.
          2   -1    0    0  503    0  0.00000000000E+00 -0.00000000000E+00 -0.41159021524E+03  0.41159021524E+03  0.00000000000E+00 0. -1.
         25    1    1    2    0    0 -0.15667806072E+03  0.14415016583E+03  0.45837856413E+03  0.52063729513E+03  0.12500000000E+03 0.  0.
         21    1    1    2  502  501  0.11900549442E+03 -0.13210150471E+03 -0.32223830566E+03  0.36803619507E+03  0.00000000000E+00 0. -1.
         21    1    1    2  503  502  0.37672566304E+02 -0.12048661120E+02 -0.24251734426E+02  0.46395464319E+02  0.00000000000E+00 0. -1.
<mgrwt>
<rscale>  4 0.92835064E+03</rscale>
<asrwt>0</asrwt>
<pdfrwt beam="1">  1        2 0.63321571E-01 0.92835064E+03</pdfrwt>
<pdfrwt beam="2">  1       -2 0.80535191E-01 0.92835064E+03</pdfrwt>
<totfact> 0.10511501E+02</totfact>
</mgrwt>
</event>
<event>
 5    0  0.6041737E-002  0.5170101E+03  0.7546771E-02  0.1009432E+00
          2   -1    0    0  503    0  0.00000000000E+00  0.00000000000E+00  0.11580443224E+04  0.11580443224E+04  0.00000000000E+00 0.  1.
         -2   -1    0    0    0  501 -0.00000000000E+00 -0.00000000000E+00 -0.57704918060E+02  0.57704918060E+02  0.00000000000E+00 0. -1.
         25    1    1    2    0    0 -0.62701682612E+02  0.21840329469E+03  0.43216460193E+03  0.50400668974E+03  0.12500000000E+03 0.  0.
         21    1    1    2  502  501 -0.14465336402E+02 -0.52883078218E+02  0.24117793767E+03  0.24733108081E+03  0.00000000000E+00 0.  1.
         21    1    1    2  503  502  0.77167019014E+02 -0.16552021648E+03  0.42699686473E+03  0.46441146990E+03  0.00000000000E+00 0.  1.
<mgrwt>
<rscale>  4 0.51701007E+03</rscale>
<asrwt>0</asrwt>
<pdfrwt beam="1">  1        2 0.17816065E+00 0.51701007E+03</pdfrwt>
<pdfrwt beam="2">  1       -2 0.88776805E-02 0.51701007E+03</pdfrwt>
<totfact> 0.16885841E+03</totfact>
</mgrwt>
</event>
<event>
 5    0  0.6041737E-002  0.4176725E+03  0.7546771E-02  0.1037827E+00
         -2   -1    0    0    0  501 -0.00000000000E+00  0.00000000000E+00  0.95765530958E+02  0.95765530958E+02  0.00000000000E+00 0. -1.
          2   -1    0    0  503    0  0.00000000000E+00 -0.00000000000E+00 -0.53395952889E+03  0.53395952889E+03  0.00000000000E+00 0.  1.
         25    1    1    2    0    0  0.19743133265E+03  0.33692011090E+02 -0.25723700859E+03  0.34915635653E+03  0.12500000000E+03 0.  0.
         21    1    1    2  502  501 -0.17465906081E+03 -0.48442929013E+02 -0.17665060175E+03  0.25309670087E+03  0.00000000000E+00 0.  1.
         21    1    1    2  503  502 -0.22772271838E+02  0.14750917923E+02 -0.43063876043E+01  0.27472002447E+02  0.00000000000E+00 0.  1.
<mgrwt>
<rscale>  4 0.41767246E+03</rscale>
<asrwt>0</asrwt>
<pdfrwt beam="1">  1        2 0.82147618E-01 0.41767246E+03</pdfrwt>
<pdfrwt beam="2">  1       -2 0.14733159E-01 0.41767246E+03</pdfrwt>
<totfact> 0.20473205E+03</totfact>
</mgrwt>
</event>
<event>
 5    0  0.6041737E-002  0.4894128E+03  0.7546771E-02  0.1016580E+00
          1   -1    0    0  503    0  0.00000000000E+00  0.00000000000E+00  0.25486530576E+03  0.25486530576E+03  0.00000000000E+00 0.  1.
         -1   -1    0    0    0  501 -0.00000000000E+00 -0.00000000000E+00 -0.23495243739E+03  0.23495243739E+03  0.00000000000E+00 0. -1.
         25    1    1    2    0    0  0.14913638282E+03  0.14778580807E+03 -0.75829139665E+02  0.25584636829E+03  0.12500000000E+03 0.  0.
         21    1    1    2  502  501 -0.11856011462E+03 -0.12083398547E+03  0.92931214201E+02  0.19311541470E+03  0.00000000000E+00 0.  1.
         21    1    1    2  503  502 -0.30576268197E+02 -0.26951822602E+02  0.28107938350E+01  0.40855960158E+02  0.00000000000E+00 0. -1.
<mgrwt>
<rscale>  4 0.48941281E+03</rscale>
<asrwt>0</asrwt>
<pdfrwt beam="1">  1        1 0.39210047E-01 0.48941281E+03</pdfrwt>
<pdfrwt beam="2">  1       -1 0.36146529E-01 0.48941281E+03</pdfrwt>
<totfact> 0.79837851E+02</totfact>
</mgrwt>
</event>
<event>
 5    0  0.6041737E-002  0.8390395E+03  0.7546771E-02  0.9505167E-01
         -1   -1    0    0    0  501 -0.00000000000E+00  0.00000000000E+00  0.42363372172E+03  0.42363372172E+03  0.00000000000E+00 0. -1.
          1   -1    0    0  503    0  0.00000000000E+00 -0.00000000000E+00 -0.41544573259E+03  0.41544573259E+03  0.00000000000E+00 0.  1.
         25    1    1    2    0    0  0.55523810671E+02  0.38610614522E+03 -0.84059712541E+02  0.41815294355E+03  0.12500000000E+03 0.  0.
         21    1    1    2  502  501 -0.93019933442E+02 -0.31995604837E+03  0.88690956118E+02  0.34480525896E+03  0.00000000000E+00 0.  1.
         21    1    1    2  503  502  0.37496122770E+02 -0.66150096849E+02  0.35567455499E+01  0.76121251795E+02  0.00000000000E+00 0.  1.
<mgrwt>
<rscale>  4 0.83903950E+03</rscale>
<asrwt>0</asrwt>
<pdfrwt beam="1">  1        1 0.63914728E-01 0.83903950E+03</pdfrwt>
<pdfrwt beam="2">  1       -1 0.65174419E-01 0.83903950E+03</pdfrwt>
<totfact> 0.13760052E+02</totfact>
</mgrwt>
</event>
<event>
 5    0  0.6041737E-002  0.7553968E+03  0.7546771E-02  0.9626922E-01
         -1   -1    0    0    0  501 -0.00000000000E+00  0.00000000000E+00  0.85832942089E+02  0.85832942089E+02  0.00000000000E+00 0.  1.
          1   -1    0    0  503    0  0.00000000000E+00 -0.00000000000E+00 -0.16620200212E+04  0.16620200212E+04  0.00000000000E+00 0. -1.
         25    1    1    2    0    0 -0.11922575117E+03  0.33859699264E+03 -0.68495621102E+03  0.78335988804E+03  0.12500000000E+03 0.  0.
         21    1    1    2  502  501  0.64015530503E+02 -0.92100021294E+02 -0.34282433645E+03  0.36070615150E+03  0.00000000000E+00 0. -1.
         21    1    1    2  503  502  0.55210220664E+02 -0.24649697135E+03 -0.54840653166E+03  0.60378692378E+03  0.00000000000E+00 0. -1.
<mgrwt>
<rscale>  4 0.75539677E+03</rscale>
<asrwt>0</asrwt>
<pdfrwt beam="1">  1        1 0.25569540E+00 0.75539677E+03</pdfrwt>
<pdfrwt beam="2">  1       -1 0.13205068E-01 0.75539677E+03</pdfrwt>
<totfact> 0.20902981E+02</totfact>
</mgrwt>
</event>
<event>
 5    0  0.6041737E-002  0.7535428E+03  0.7546771E-02  0.9629809E-01
          2   -1    0    0  503    0  0.00000000000E+00  0.00000000000E+00  0.12449713656E+04  0.12449713656E+04  0.00000000000E+00 0.  1.
         -2   -1    0    0    0  501 -0.00000000000E+00 -0.00000000000E+00 -0.11402406347E+03  0.11402406347E+03  0.00000000000E+00 0. -1.
         25    1    1    2    0    0  0.10969278075E+03  0.19821803166E+03  0.62424381369E+02  0.26616667262E+03  0.12500000000E+03 0.  0.
         21    1    1    2  502  501 -0.91615550668E+02 -0.16889340903E+03  0.83796264190E+03  0.85970912637E+03  0.00000000000E+00 0.  1.
         21    1    1    2  503  502 -0.18077230086E+02 -0.29324622632E+02  0.23056027887E+03  0.23311963009E+03  0.00000000000E+00 0.  1.
<mgrwt>
<rscale>  4 0.75354282E+03</rscale>
<asrwt>0</asrwt>
<pdfrwt beam="1">  1        2 0.19153405E+00 0.75354282E+03</pdfrwt>
<pdfrwt beam="2">  1       -2 0.17542164E-01 0.75354282E+03</pdfrwt>
<totfact> 0.48140386E+02</totfact>
</mgrwt>
</event>
<event>
 5    0  0.6041737E-002  0.4745105E+03  0.7546771E-02  0.1020655E+00
         -2   -1    0    0    0  501 -0.00000000000E+00  0.00000000000E+00  0.57409655304E+02  0.57409655304E+02  0.00000000000E+00 0. -1.
          2   -1    0    0  503    0  0.00000000000E+00 -0.00000000000E+00 -0.13961383491E+04  0.13961383491E+04  0.00000000000E+00 0.  1.
         25    1    1    2    0    0 -0.62933249212E+02 -0.19918072654E+03 -0.93530366052E+03  0.96646339458E+03  0.12500000000E+03 0.  0.
         21    1    1    2  502  501 -0.36878401753E+02  0.81315283488E+02 -0.26515590665E+03  0.27978535822E+03  0.00000000000E+00 0.  1.
         21    1    1    2  503  502  0.99811650965E+02  0.11786544305E+03 -0.13826912661E+03  0.20729925158E+03  0.00000000000E+00 0.  1.
<mgrwt>
<rscale>  4 0.47451051E+03</rscale>
<asrwt>0</asrwt>
<pdfrwt beam="1">  1        2 0.21479051E+00 0.47451051E+03</pdfrwt>
<pdfrwt beam="2">  1       -2 0.88322550E-02 0.47451051E+03</pdfrwt>
<totfact> 0.12455047E+03</totfact>
</mgrwt>
</event>
<event>
 5    0  0.6041737E-002  0.4599320E+03  0.7546771E-02  0.1024801E+00
         -2   -1    0    0    0  501 -0.00000000000E+00  0.00000000000E+00  0.96279208367E+02  0.96279208367E+02  0.00000000000E+00 0. -1.
          2   -1    0    0  503    0  0.00000000000E+00 -0.00000000000E+00 -0.54928120910E+03  0.54928120910E+03  0.00000000000E+00 0.  1.
         25    1    1    2    0    0 -0.20258258322E+03  0.47211764816E+00 -0.15850325262E+03  0.28598637557E+03  0.12500000000E+03 0.  0.
         21    1    1    2  502  501  0.27562791248E+02 -0.60980779105E+01 -0.65274807906E+02  0.71117470165E+02  0.00000000000E+00 0.  1.
         21    1    1    2  503  502  0.17501979197E+03  0.56259602623E+01 -0.22922394021E+03  0.28845657174E+03  0.00000000000E+00 0.  1.
<mgrwt>
<rscale>  4 0.45993199E+03</rscale>
<asrwt>0</asrwt>
<pdfrwt beam="1">  1        2 0.84504802E-01 0.45993199E+03</pdfrwt>
<pdfrwt beam="2">  1       -2 0.14812186E-01 0.45993199E+03</pdfrwt>
<totfact> 0.19657274E+03</totfact>
</mgrwt>
</event>
<event>
 5    0  0.6041737E-002  0.5944412E+03  0.7546771E-02  0.9917006E-01
          2   -1    0    0  503    0  0.00000000000E+00  0.00000000000E+00  0.17362306555E+04  0.17362306555E+04  0.00000000000E+00 0.  1.
         -2   -1    0    0    0  501 -0.00000000000E+00 -0.00000000000E+00 -0.50880382681E+02  0.50880382681E+02  0.00000000000E+00 0. -1.
         25    1    1    2    0    0  0.12079948931E+02 -0.21814263818E+03  0.14196842426E+04  0.14418254001E+04  0.12500000000E+03 0.  0.
         21    1    1    2  502  501  0.68856248981E+01  0.29088172062E+02  0.45853674601E+02  0.54736578799E+02  0.00000000000E+00 0.  1.
         21    1    1    2  503  502 -0.18965573829E+02  0.18905446612E+03  0.21981235561E+03  0.29054905925E+03  0.00000000000E+00 0. -1.
<mgrwt>
<rscale>  4 0.59444118E+03</rscale>
<asrwt>0</asrwt>
<pdfrwt beam="1">  1        2 0.26711236E+00 0.59444118E+03</pdfrwt>
<pdfrwt beam="2">  1       -2 0.78277525E-02 0.59444118E+03</pdfrwt>
<totfact> 0.97797486E+02</totfact>
</mgrwt>
</event>
<event>
 5    0  0.6041737E-002  0.4472634E+03  0.7546771E-02  0.1028541E+00
         -2   -1    0    0    0  501 -0.00000000000E+00  0.00000000000E+00  0.60607001193E+02  0.60607001193E+02  0.00000000000E+00 0. -1.
          2   -1    0    0  503    0  0.00000000000E+00 -0.00000000000E+00 -0.10905971055E+04  0.10905971055E+04  0.00000000000E+00 0.  1.
         25    1    1    2    0    0 -0.19268523159E+03 -0.10404880528E+03 -0.69804723260E+03  0.74219181570E+03  0.12500000000E+03 0.  0.
         21    1    1    2  502  501  0.20762135665E+02  0.37746201231E+02 -0.21852093011E+02  0.48304823296E+02  0.00000000000E+00 0. -1.
         21    1    1    2  503  502  0.17192309592E+03  0.66302604051E+02 -0.31009077867E+03  0.36070746767E+03  0.00000000000E+00 0. -1.
<mgrwt>
<rscale>  4 0.44726343E+03</rscale>
<asrwt>0</asrwt>
<pdfrwt beam="1">  1        2 0.16778416E+00 0.44726343E+03</pdfrwt>
<pdfrwt beam="2">  1       -2 0.93241546E-02 0.44726343E+03</pdfrwt>
<totfact> 0.17142851E+03</totfact>
</mgrwt>
</event>
<event>
 5    0  0.6041737E-002  0.9253926E+03  0.7546771E-02  0.9394385E-01
         -1   -1    0    0    0  501 -0.00000000000E+00  0.00000000000E+00  0.12618617068E+03  0.12618617068E+03  0.00000000000E+00 0. -1.
          1   -1    0    0  503    0  0.00000000000E+00 -0.00000000000E+00 -0.16966032171E+04  0.16966032171E+04  0.00000000000E+00 0.  1.
         25    1    1    2    0    0  0.81937577055E+02 -0.30393015061E+03 -0.15626313522E+03  0.37300197106E+03  0.12500000000E+03 0.  0.
         21    1    1    2  502  501 -0.16644402339E+02  0.12547717190E+02 -0.94007350704E+02  0.96290515225E+02  0.00000000000E+00 0. -1.
         21    1    1    2  503  502 -0.65293174716E+02  0.29138243342E+03 -0.13201465605E+04  0.13534969015E+04  0.00000000000E+00 0.  1.
<mgrwt>
<rscale>  4 0.92539259E+03</rscale>
<asrwt>0</asrwt>
<pdfrwt beam="1">  1        1 0.26101587E+00 0.92539259E+03</pdfrwt>
<pdfrwt beam="2">  1       -1 0.19413258E-01 0.92539259E+03</pdfrwt>
<totfact> 0.10397632E+02</totfact>
</mgrwt>
</event>
<event>
 5    0  0.6041737E-002  0.4813521E+03  0.7546771E-02  0.1018764E+00
         -2   -1    0    0    0  501 -0.00000000000E+00  0.00000000000E+00  0.86469086624E+02  0.86469086624E+02  0.00000000000E+00 0. -1.
          2   -1    0    0  503    0  0.00000000000E+00 -0.00000000000E+00 -0.83831372125E+03  0.83831372125E+03  0.00000000000E+00 0.  1.
         25    1    1    2    0    0 -0.19844724655E+03 -0.11483784056E+03 -0.40957969026E+03  0.48574639675E+03  0.12500000000E+03 0.  0.
         21    1    1    2  502  501  0.42905900790E+02 -0.37628784591E+02 -0.75795100192E+02  0.94877494515E+02  0.00000000000E+00 0.  1.
         21    1    1    2  503  502  0.15554134576E+03  0.15246662515E+03 -0.26646984418E+03  0.34415891661E+03  0.00000000000E+00 0.  1.
<mgrwt>
<rscale>  4 0.48135211E+03</rscale>
<asrwt>0</asrwt>
<pdfrwt beam="1">  1        2 0.12897134E+00 0.48135211E+03</pdfrwt>
<pdfrwt beam="2">  1       -2 0.13302936E-01 0.48135211E+03</pdfrwt>
<totfact> 0.13938652E+03</totfact>
</mgrwt>
</event>
<event>
 5    0  0.6041737E-002  0.5038520E+03  0.7546771E-02  0.1012778E+00
         -1   -1    0    0    0  501 -0.00000000000E+00  0.00000000000E+00  0.69993904259E+02  0.69993904259E+02  0.00000000000E+00 0.  1.
          1   -1    0    0  503    0  0.00000000000E+00 -0.00000000000E+00 -0.90674629653E+03  0.90674629653E+03  0.00000000000E+00 0. -1.
         25    1    1    2    0    0 -0.22720416942E+03 -0.39483631533E+02 -0.51672366742E+03  0.57949032798E+03  0.12500000000E+03 0.  0.
         21    1    1    2  502  501  0.17832056209E+03  0.15090689874E+02 -0.22333050185E+03  0.28618606682E+03  0.00000000000E+00 0.  1.
         21    1    1    2  503  502  0.48883607328E+02  0.24392941659E+02 -0.96698223000E+02  0.11106380598E+03  0.00000000000E+00 0.  1.
<mgrwt>
<rscale>  4 0.50385202E+03</rscale>
<asrwt>0</asrwt>
<pdfrwt beam="1">  1        1 0.13949943E+00 0.50385202E+03</pdfrwt>
<pdfrwt beam="2">  1       -1 0.10768293E-01 0.50385202E+03</pdfrwt>
<totfact> 0.10198375E+03</totfact>
</mgrwt>
</event>
<event>
 5    0  0.6041737E-002  0.4784390E+03  0.7546771E-02  0.1019565E+00
         -2   -1    0    0    0  501 -0.00000000000E+00  0.00000000000E+00  0.23125881304E+02  0.23125881304E+02  0.00000000000E+00 0.  1.
          2   -1    0    0  503    0  0.00000000000E+00 -0.00000000000E+00 -0.24745420313E+04  0.24745420313E+04  0.00000000000E+00 0. -1.
         25    1    1    2    0    0 -0.11178276128E+03 -0.18989062010E+03 -0.12874632640E+04  0.13121510925E+04  0.12500000000E+03 0.  0.
         21    1    1    2  502  501  0.96482083191E+02  0.13796757250E+03 -0.95130383682E+03  0.96608634883E+03  0.00000000000E+00 0. -1.
         21    1    1    2  503  502  0.15300678093E+02  0.51923047601E+02 -0.21264904915E+03  0.21943047128E+03  0.00000000000E+00 0.  1.
<mgrwt>
<rscale>  4 0.47843898E+03</rscale>
<asrwt>0</asrwt>
<pdfrwt beam="1">  1        2 0.38069852E+00 0.47843898E+03</pdfrwt>
<pdfrwt beam="2">  1       -2 0.35578303E-02 0.47843898E+03</pdfrwt>
<totfact> 0.13295231E+03</totfact>
</mgrwt>
</event>
<event>
 5    0  0.6041737E-002  0.7123882E+03  0.7546771E-02  0.9696278E-01
         -1   -1    0    0    0  501 -0.00000000000E+00  0.00000000000E+00  0.13424050051E+03  0.13424050051E+03  0.00000000000E+00 0.  1.
          1   -1    0    0  503    0  0.00000000000E+00 -0.00000000000E+00 -0.10481052657E+04  0.10481052657E+04  0.00000000000E+00 0. -1.
         25    1    1    2    0    0  0.16479187915E+03 -0.13480900844E+03 -0.11244488826E+02  0.24714625371E+03  0.12500000000E+03 0.  0.
         21    1    1    2  502  501 -0.15497304913E+03  0.98320694896E+02 -0.85465189717E+03  0.87413584204E+03  0.00000000000E+00 0. -1.
         21    1    1    2  503  502 -0.98188300226E+01  0.36488313545E+02 -0.47968379223E+02  0.61063670489E+02  0.00000000000E+00 0.  1.
<mgrwt>
<rscale>  4 0.71238823E+03</rscale>
<asrwt>0</asrwt>
<pdfrwt beam="1">  1        1 0.16124697E+00 0.71238823E+03</pdfrwt>
<pdfrwt beam="2">  1       -1 0.20652385E-01 0.71238823E+03</pdfrwt>
<totfact> 0.27282741E+02</totfact>
</mgrwt>
</event>
<event>
 5    0  0.6041737E-002  0.5413997E+03  0.7546771E-02  0.1003504E+00
         -2   -1    0    0    0  501 -0.00000000000E+00  0.00000000000E+00  0.15026717745E+03  0.15026717745E+03  0.00000000000E+00 0. -1.
          2   -1    0    0  503    0  0.00000000000E+00 -0.00000000000E+00 -0.48765406047E+03  0.48765406047E+03  0.00000000000E+00 0.  1.
         25    1    1    2    0    0  0.10816038184E+03  0.22395508017E+03 -0.14519848639E+03  0.31394608865E+03  0.12500000000E+03 0.  0.
         21    1    1    2  502  501 -0.79798255416E+02 -0.15642741175E+03 -0.87468422910E+02  0.19618364285E+03  0.00000000000E+00 0. -1.
         21    1    1    2  503  502 -0.28362126419E+02 -0.67527668416E+02 -0.10471997372E+03  0.12779150642E+03  0.00000000000E+00 0. -1.
<mgrwt>
<rscale>  4 0.54139966E+03</rscale>
<asrwt>0</asrwt>
<pdfrwt beam="1">  1        2 0.75023701E-01 0.54139966E+03</pdfrwt>
<pdfrwt beam="2">  1       -2 0.23118027E-01 0.54139966E+03</pdfrwt>
<totfact> 0.10487651E+03</totfact>
</mgrwt>
</event>
