<event>
 5    0  0.1531977E+001  0.2613357E+03  0.7546771E-02  0.1106343E+00
         21   -1    0    0  502  501  0.00000000000E+00  0.00000000000E+00  0.17140451209E+03  0.17140451209E+03  0.00000000000E+00 0.  1.
         21   -1    0    0  504  502 -0.00000000000E+00 -0.00000000000E+00 -0.40884198130E+03  0.40884198130E+03  0.00000000000E+00 0.  1.
         25    1    1    2    0    0  0.50994350982E+01 -0.22944577560E+03 -0.60208311293E+02  0.26818167150E+03  0.12500000000E+03 0.  0.
         21    1    1    2  503  501  0.37658287632E+02  0.13229846049E+03 -0.49962811316E+02  0.14634654690E+03  0.00000000000E+00 0.  1.
         21    1    1    2  504  503 -0.42757722730E+02  0.97147315111E+02 -0.12726634660E+03  0.16571827498E+03  0.00000000000E+00 0.  1.
<mgrwt>
<rscale>  4 0.26133574E+03</rscale>
<asrwt>0</asrwt>
<pdfrwt beam="1">  1       21 0.26369925E-01 0.26133574E+03</pdfrwt>
<pdfrwt beam="2">  1       21 0.62898766E-01 0.26133574E+03</pdfrwt>
<totfact> 0.30955686E+04</totfact>
</mgrwt>
</event>
<event>
 5    0  0.1531977E+001  0.2382703E+03  0.7546771E-02  0.1120950E+00
         21   -1    0    0  504  501  0.00000000000E+00  0.00000000000E+00  0.28420728044E+02  0.28420728044E+02  0.00000000000E+00 0. -1.
         21   -1    0    0  503  502 -0.00000000000E+00 -0.00000000000E+00 -0.26591724106E+04  0.26591724106E+04  0.00000000000E+00 0. -1.
         25    1    1    2    0    0  0.21501215351E+03  0.59349051608E+02 -0.17214858351E+04  0.17403709422E+04  0.12500000000E+03 0.  0.
         21    1    1    2  503  501 -0.22760634439E+02 -0.17264889917E+02 -0.40357963140E+03  0.40458947315E+03  0.00000000000E+00 0. -1.
         21    1    1    2  504  502 -0.19225151907E+03 -0.42084161691E+02 -0.50568621603E+03  0.54263272325E+03  0.00000000000E+00 0. -1.
<mgrwt>
<rscale>  4 0.23827029E+03</rscale>
<asrwt>0</asrwt>
<pdfrwt beam="1">  1       21 0.43724200E-02 0.23827029E+03</pdfrwt>
<pdfrwt beam="2">  1       21 0.40910342E+00 0.23827029E+03</pdfrwt>
<totfact> 0.24284424E+03</totfact>
</mgrwt>
</event>
<event>
 5    0  0.1531977E+001  0.3012761E+03  0.7546771E-02  0.1084604E+00
         21   -1    0    0  502  501  0.00000000000E+00  0.00000000000E+00  0.11186410520E+03  0.11186410520E+03  0.00000000000E+00 0. -1.
         21   -1    0    0  504  502 -0.00000000000E+00 -0.00000000000E+00 -0.11855962370E+04  0.11855962370E+04  0.00000000000E+00 0.  1.
         25    1    1    2    0    0  0.21347301885E+03 -0.14088273686E+03 -0.81565367474E+03  0.86390658780E+03  0.12500000000E+03 0.  0.
         21    1    1    2  503  501 -0.23828803801E+03  0.14527314219E+03 -0.13889034463E+03  0.31173065735E+03  0.00000000000E+00 0. -1.
         21    1    1    2  504  503  0.24815019151E+02 -0.43904053282E+01 -0.11918811242E+03  0.12182309706E+03  0.00000000000E+00 0.  1.
<mgrwt>
<rscale>  4 0.30127614E+03</rscale>
<asrwt>0</asrwt>
<pdfrwt beam="1">  1       21 0.17209863E-01 0.30127614E+03</pdfrwt>
<pdfrwt beam="2">  1       21 0.18239942E+00 0.30127614E+03</pdfrwt>
<totfact> 0.49430585E+03</totfact>
</mgrwt>
</event>
<event>
 5    0  0.1531977E+001  0.2587988E+03  0.7546771E-02  0.1107867E+00
         21   -1    0    0  503  501  0.00000000000E+00  0.00000000000E+00  0.58122652022E+02  0.58122652022E+02  0.00000000000E+00 0. -1.
         21   -1    0    0  504  502 -0.00000000000E+00 -0.00000000000E+00 -0.14824362386E+04  0.14824362386E+04  0.00000000000E+00 0. -1.
         25    1    1    2    0    0  0.66189201465E+02 -0.21334405719E+03 -0.50638011228E+03  0.56739978432E+03  0.12500000000E+03 0.  0.
         21    1    1    2  503  502 -0.33167936942E+02 -0.15230069431E+02 -0.44858998195E+03  0.45007225971E+03  0.00000000000E+00 0.  1.
         21    1    1    2  504  501 -0.33021264523E+02  0.22857412662E+03 -0.46934349237E+03  0.52308684661E+03  0.00000000000E+00 0. -1.
<mgrwt>
<rscale>  4 0.25879882E+03</rscale>
<asrwt>0</asrwt>
<pdfrwt beam="1">  1       21 0.89419472E-02 0.25879882E+03</pdfrwt>
<pdfrwt beam="2">  1       21 0.22806710E+00 0.25879882E+03</pdfrwt>
<totfact> 0.84132232E+03</totfact>
</mgrwt>
</event>
<event>
 5    0  0.1531977E+001  0.2401005E+03  0.7546771E-02  0.1119726E+00
         21   -1    0    0  502  501  0.00000000000E+00  0.00000000000E+00  0.11161845799E+04  0.11161845799E+04  0.00000000000E+00 0.  1.
         21   -1    0    0  504  502 -0.00000000000E+00 -0.00000000000E+00 -0.90099343491E+02  0.90099343491E+02  0.00000000000E+00 0.  1.
         25    1    1    2    0    0  0.46916776070E+02 -0.24690221325E+03  0.42386741593E+03  0.50838024457E+03  0.12500000000E+03 0.  0.
         21    1    1    2  503  501 -0.51272997481E+02  0.60005207596E+02  0.44986997159E+03  0.45674121398E+03  0.00000000000E+00 0.  1.
         21    1    1    2  504  503  0.43562214110E+01  0.18689700565E+03  0.15234784890E+03  0.24116246485E+03  0.00000000000E+00 0.  1.
<mgrwt>
<rscale>  4 0.24010047E+03</rscale>
<asrwt>0</asrwt>
<pdfrwt beam="1">  1       21 0.17172069E+00 0.24010047E+03</pdfrwt>
<pdfrwt beam="2">  1       21 0.13861438E-01 0.24010047E+03</pdfrwt>
<totfact> 0.90717430E+03</totfact>
</mgrwt>
</event>
<event>
 5    0  0.1531977E+001  0.2520605E+03  0.7546771E-02  0.1112009E+00
         21   -1    0    0  502  501  0.00000000000E+00  0.00000000000E+00  0.13080293215E+04  0.13080293215E+04  0.00000000000E+00 0.  1.
         21   -1    0    0  504  502 -0.00000000000E+00 -0.00000000000E+00 -0.14459701649E+03  0.14459701649E+03  0.00000000000E+00 0.  1.
         25    1    1    2    0    0  0.22680824142E+03 -0.42508932671E+02  0.46639179243E+02  0.26655055951E+03  0.12500000000E+03 0.  0.
         21    1    1    2  503  501 -0.52016165089E+02 -0.62008762168E+02  0.83216073477E+03  0.83608746941E+03  0.00000000000E+00 0.  1.
         21    1    1    2  504  503 -0.17479207633E+03  0.10451769484E+03  0.28463239095E+03  0.34998830903E+03  0.00000000000E+00 0.  1.
<mgrwt>
<rscale>  4 0.25206053E+03</rscale>
<asrwt>0</asrwt>
<pdfrwt beam="1">  1       21 0.20123527E+00 0.25206053E+03</pdfrwt>
<pdfrwt beam="2">  1       21 0.22245696E-01 0.25206053E+03</pdfrwt>
<totfact> 0.23616974E+03</totfact>
</mgrwt>
</event>
<event>
 5    0  0.1531977E+001  0.3213082E+03  0.7546771E-02  0.1075049E+00
         21   -1    0    0  503  501  0.00000000000E+00  0.00000000000E+00  0.36731976822E+03  0.36731976822E+03  0.00000000000E+00 0.  1.
         21   -1    0    0  504  502 -0.00000000000E+00 -0.00000000000E+00 -0.70580704654E+03  0.70580704654E+03  0.00000000000E+00 0.  1.
         25    1    1    2    0    0  0.11117359619E+03  0.29370683884E+03  0.23127203702E+03  0.40955467373E+03  0.12500000000E+03 0.  0.
         21    1    1    2  503  502 -0.10781937908E+03 -0.27351149415E+03 -0.57184597762E+03  0.64299407311E+03  0.00000000000E+00 0.  1.
         21    1    1    2  504  501 -0.33542171098E+01 -0.20195344687E+02  0.20866622852E+01  0.20578067911E+02  0.00000000000E+00 0.  1.
<mgrwt>
<rscale>  4 0.32130824E+03</rscale>
<asrwt>0</asrwt>
<pdfrwt beam="1">  1       21 0.56510735E-01 0.32130824E+03</pdfrwt>
<pdfrwt beam="2">  1       21 0.10858570E+00 0.32130824E+03</pdfrwt>
<totfact> 0.18090895E+03</totfact>
</mgrwt>
</event>
<event>
 5    0  0.1531977E+001  0.2474684E+03  0.7546771E-02  0.1114915E+00
         21   -1    0    0  503  501  0.00000000000E+00  0.00000000000E+00  0.50664115179E+03  0.50664115179E+03  0.00000000000E+00 0.  1.
         21   -1    0    0  504  502 -0.00000000000E+00 -0.00000000000E+00 -0.14182533416E+03  0.14182533416E+03  0.00000000000E+00 0.  1.
         25    1    1    2    0    0  0.73609234822E+01 -0.21267712113E+03  0.24127292593E+03  0.34514252973E+03  0.12500000000E+03 0.  0.
         21    1    1    2  503  502 -0.29402124649E+02 -0.16496919450E+01 -0.27424314126E+02  0.40240519662E+02  0.00000000000E+00 0.  1.
         21    1    1    2  504  501  0.22041201167E+02  0.21432681307E+03  0.15096720583E+03  0.26308343655E+03  0.00000000000E+00 0.  1.
<mgrwt>
<rscale>  4 0.24746837E+03</rscale>
<asrwt>0</asrwt>
<pdfrwt beam="1">  1       21 0.77944792E-01 0.24746837E+03</pdfrwt>
<pdfrwt beam="2">  1       21 0.21819282E-01 0.24746837E+03</pdfrwt>
<totfact> 0.27791420E+04</totfact>
</mgrwt>
</event>
<event>
 5    0  0.1691332E+001  0.2838556E+03  0.7546771E-02  0.1093602E+00
         21   -1    0    0  504  501  0.00000000000E+00  0.00000000000E+00  0.58512872504E+03  0.58512872504E+03  0.00000000000E+00 0.  1.
         21   -1    0    0  503  502 -0.00000000000E+00 -0.00000000000E+00 -0.71515160444E+03  0.71515160444E+03  0.00000000000E+00 0. -1.
         25    1    1    2    0    0  0.16165882841E+03  0.17572636024E+03 -0.63803958273E+03  0.69262748979E+03  0.12500000000E+03 0.  0.
         21    1    1    2  503  501 -0.88155992226E+00  0.22958072333E+02 -0.13660581504E+02  0.26729416757E+02  0.00000000000E+00 0.  1.
         21    1    1    2  504  502 -0.16077726848E+03 -0.19868443258E+03  0.52167728483E+03  0.58092342294E+03  0.00000000000E+00 0.  1.
<mgrwt>
<rscale>  4 0.28385561E+03</rscale>
<asrwt>0</asrwt>
<pdfrwt beam="1">  1       21 0.90019804E-01 0.28385561E+03</pdfrwt>
<pdfrwt beam="2">  1       21 0.11002332E+00 0.28385561E+03</pdfrwt>
<totfact> 0.63187557E+02</totfact>
</mgrwt>
</event>
<event>
 5    0  0.1531977E+001  0.5241656E+03  0.7546771E-02  0.1007657E+00
         21   -1    0    0  502  501  0.00000000000E+00  0.00000000000E+00  0.24282239006E+03  0.24282239006E+03  0.00000000000E+00 0. -1.
         21   -1    0    0  504  502 -0.00000000000E+00 -0.00000000000E+00 -0.22173162770E+04  0.22173162770E+04  0.00000000000E+00 0. -1.
         25    1    1    2    0    0  0.20831722992E+03 -0.65408040768E+03 -0.86117302352E+03  0.11083596999E+04  0.12500000000E+03 0.  0.
         21    1    1    2  503  501 -0.93999573509E+02  0.41454610129E+03 -0.37371809804E+03  0.56599435220E+03  0.00000000000E+00 0. -1.
         21    1    1    2  504  503 -0.11431765641E+03  0.23953430639E+03 -0.73960276543E+03  0.78578461498E+03  0.00000000000E+00 0. -1.
<mgrwt>
<rscale>  4 0.52416560E+03</rscale>
<asrwt>0</asrwt>
<pdfrwt beam="1">  1       21 0.37357293E-01 0.52416560E+03</pdfrwt>
<pdfrwt beam="2">  1       21 0.34112556E+00 0.52416560E+03</pdfrwt>
<totfact> 0.99443399E+01</totfact>
</mgrwt>
</event>
<event>
 5    0  0.1531977E+001  0.2482769E+03  0.7546771E-02  0.1114399E+00
         21   -1    0    0  504  501  0.00000000000E+00  0.00000000000E+00  0.37624045974E+02  0.37624045974E+02  0.00000000000E+00 0.  1.
         21   -1    0    0  503  502 -0.00000000000E+00 -0.00000000000E+00 -0.23167592443E+04  0.23167592443E+04  0.00000000000E+00 0.  1.
         25    1    1    2    0    0 -0.16052074598E+03  0.19578452465E+03 -0.14241128098E+04  0.14518335941E+04  0.12500000000E+03 0.  0.
         21    1    1    2  503  501  0.98907529478E+02 -0.15575517490E+03 -0.76194895592E+03  0.78396976047E+03  0.00000000000E+00 0.  1.
         21    1    1    2  504  502  0.61613216498E+02 -0.40029349746E+02 -0.93073432553E+02  0.11857993564E+03  0.00000000000E+00 0.  1.
<mgrwt>
<rscale>  4 0.24827692E+03</rscale>
<asrwt>0</asrwt>
<pdfrwt beam="1">  1       21 0.57883146E-02 0.24827692E+03</pdfrwt>
<pdfrwt beam="2">  1       21 0.35642451E+00 0.24827692E+03</pdfrwt>
<totfact> 0.31459770E+03</totfact>
</mgrwt>
</event>
<event>
 5    0  0.1531977E+001  0.3278336E+03  0.7546771E-02  0.1072099E+00
         21   -1    0    0  503  501  0.00000000000E+00  0.00000000000E+00  0.93012592268E+02  0.93012592268E+02  0.00000000000E+00 0.  1.
         21   -1    0    0  504  502 -0.00000000000E+00 -0.00000000000E+00 -0.13803173496E+04  0.13803173496E+04  0.00000000000E+00 0.  1.
         25    1    1    2    0    0  0.83292771131E+02  0.30210349276E+03 -0.42643745773E+03  0.54376291839E+03  0.12500000000E+03 0.  0.
         21    1    1    2  503  502 -0.20075816975E+01 -0.23843100851E+02 -0.27363669978E+03  0.27468084627E+03  0.00000000000E+00 0.  1.
         21    1    1    2  504  501 -0.81285189434E+02 -0.27826039191E+03 -0.58723059986E+03  0.65488617724E+03  0.00000000000E+00 0.  1.
<mgrwt>
<rscale>  4 0.32783365E+03</rscale>
<asrwt>0</asrwt>
<pdfrwt beam="1">  1       21 0.14309632E-01 0.32783365E+03</pdfrwt>
<pdfrwt beam="2">  1       21 0.21235649E+00 0.32783365E+03</pdfrwt>
<totfact> 0.43372612E+03</totfact>
</mgrwt>
</event>
<event>
 5    0  0.1531977E+001  0.2429780E+03  0.7546771E-02  0.1117825E+00
         21   -1    0    0  503  501  0.00000000000E+00  0.00000000000E+00  0.15778584280E+03  0.15778584280E+03  0.00000000000E+00 0.  1.
         21   -1    0    0  504  502 -0.00000000000E+00 -0.00000000000E+00 -0.10180456709E+04  0.10180456709E+04  0.00000000000E+00 0.  1.
         25    1    1    2    0    0 -0.21913721838E+03  0.28534767804E+02 -0.12988065407E+03  0.28518298994E+03  0.12500000000E+03 0.  0.
         21    1    1    2  503  502  0.15488877842E+03  0.20579499348E+03 -0.45946457775E+03  0.52673504841E+03  0.00000000000E+00 0.  1.
         21    1    1    2  504  501  0.64248439953E+02 -0.23432976128E+03 -0.27091459631E+03  0.36391347537E+03  0.00000000000E+00 0.  1.
<mgrwt>
<rscale>  4 0.24297798E+03</rscale>
<asrwt>0</asrwt>
<pdfrwt beam="1">  1       21 0.24274746E-01 0.24297798E+03</pdfrwt>
<pdfrwt beam="2">  1       21 0.15662241E+00 0.24297798E+03</pdfrwt>
<totfact> 0.41020877E+03</totfact>
</mgrwt>
</event>
<event>
 5    0  0.1531977E+001  0.2430647E+03  0.7546771E-02  0.1117768E+00
         21   -1    0    0  502  501  0.00000000000E+00  0.00000000000E+00  0.74384890781E+02  0.74384890781E+02  0.00000000000E+00 0. -1.
         21   -1    0    0  504  502 -0.00000000000E+00 -0.00000000000E+00 -0.16989702970E+04  0.16989702970E+04  0.00000000000E+00 0. -1.
         25    1    1    2    0    0 -0.35868339713E+02  0.21806590151E+03 -0.99955041670E+03  0.10312930285E+04  0.12500000000E+03 0.  0.
         21    1    1    2  503  501 -0.14603019625E+03 -0.81586503437E+02 -0.20663050207E+03  0.26585210202E+03  0.00000000000E+00 0. -1.
         21    1    1    2  504  503  0.18189853597E+03 -0.13647939807E+03 -0.41840448748E+03  0.47621005725E+03  0.00000000000E+00 0. -1.
<mgrwt>
<rscale>  4 0.24306473E+03</rscale>
<asrwt>0</asrwt>
<pdfrwt beam="1">  1       21 0.11443830E-01 0.24306473E+03</pdfrwt>
<pdfrwt beam="2">  1       21 0.26138003E+00 0.24306473E+03</pdfrwt>
<totfact> 0.34645820E+03</totfact>
</mgrwt>
</event>
<event>
 5    0  0.1531977E+001  0.2586704E+03  0.7546771E-02  0.1107945E+00
         21   -1    0    0  504  501  0.00000000000E+00  0.00000000000E+00  0.43087736517E+03  0.43087736517E+03  0.00000000000E+00 0.  1.
         21   -1    0    0  503  502 -0.00000000000E+00 -0.00000000000E+00 -0.48981623298E+03  0.48981623298E+03  0.00000000000E+00 0.  1.
         25    1    1    2    0    0  0.75054383676E+02  0.22581043440E+03 -0.38437305264E+03  0.46903214856E+03  0.12500000000E+03 0.  0.
         21    1    1    2  503  501 -0.10359734816E+03 -0.15837241888E+03  0.98788952900E+02  0.21347948572E+03  0.00000000000E+00 0.  1.
         21    1    1    2  504  502  0.28542964489E+02 -0.67438015517E+02  0.22664523192E+03  0.23818196387E+03  0.00000000000E+00 0.  1.
<mgrwt>
<rscale>  4 0.25867039E+03</rscale>
<asrwt>0</asrwt>
<pdfrwt beam="1">  1       21 0.66288825E-01 0.25867039E+03</pdfrwt>
<pdfrwt beam="2">  1       21 0.75356344E-01 0.25867039E+03</pdfrwt>
<totfact> 0.31278924E+03</totfact>
</mgrwt>
</event>
<event>
 5    0  0.1531977E+001  0.2879893E+03  0.7546771E-02  0.1091404E+00
         21   -1    0    0  503  501  0.00000000000E+00  0.00000000000E+00  0.75778397654E+02  0.75778397654E+02  0.00000000000E+00 0. -1.
         21   -1    0    0  504  502 -0.00000000000E+00 -0.00000000000E+00 -0.19480274302E+04  0.19480274302E+04  0.00000000000E+00 0. -1.
         25    1    1    2    0    0 -0.28558168966E+03 -0.11523164458E+03 -0.87916324575E+03  0.93988735818E+03  0.12500000000E+03 0.  0.
         21    1    1    2  503  502  0.55594569756E+02  0.40550421739E+02 -0.70258835070E+03  0.70595005732E+03  0.00000000000E+00 0. -1.
         21    1    1    2  504  501  0.22998711991E+03  0.74681222838E+02 -0.29049743613E+03  0.37796841239E+03  0.00000000000E+00 0. -1.
<mgrwt>
<rscale>  4 0.28798932E+03</rscale>
<asrwt>0</asrwt>
<pdfrwt beam="1">  1       21 0.11658217E-01 0.28798932E+03</pdfrwt>
<pdfrwt beam="2">  1       21 0.29969648E+00 0.28798932E+03</pdfrwt>
<totfact> 0.19192556E+03</totfact>
</mgrwt>
</event>
<event>
 5    0  0.1531977E+001  0.2976501E+03  0.7546771E-02  0.1086421E+00
         21   -1    0    0  504  501  0.00000000000E+00  0.00000000000E+00  0.45012998720E+03  0.45012998720E+03  0.00000000000E+00 0.  1.
         21   -1    0    0  503  502 -0.00000000000E+00 -0.00000000000E+00 -0.22451119335E+03  0.22451119335E+03  0.00000000000E+00 0.  1.
         25    1    1    2    0    0 -0.24536861844E+03 -0.21387494871E+02  0.31349686424E+01  0.27622094758E+03  0.12500000000E+03 0.  0.
         21    1    1    2  503  501 -0.32862772293E+02 -0.30930571891E+02  0.15496954723E+02  0.47716010793E+02  0.00000000000E+00 0. -1.
         21    1    1    2  504  502  0.27823139073E+03  0.52318066762E+02  0.20698687049E+03  0.35070422218E+03  0.00000000000E+00 0.  1.
<mgrwt>
<rscale>  4 0.29765012E+03</rscale>
<asrwt>0</asrwt>
<pdfrwt beam="1">  1       21 0.69250767E-01 0.29765012E+03</pdfrwt>
<pdfrwt beam="2">  1       21 0.34540184E-01 0.29765012E+03</pdfrwt>
<totfact> 0.14498619E+04</totfact>
</mgrwt>
</event>
<event>
 5    0  0.1531977E+001  0.3312730E+03  0.7546771E-02  0.1070575E+00
         21   -1    0    0  504  501  0.00000000000E+00  0.00000000000E+00  0.33544466970E+03  0.33544466970E+03  0.00000000000E+00 0.  1.
         21   -1    0    0  503  502 -0.00000000000E+00 -0.00000000000E+00 -0.42399285547E+03  0.42399285547E+03  0.00000000000E+00 0.  1.
         25    1    1    2    0    0 -0.22923122746E+03  0.21946363668E+03 -0.93027410785E+02  0.35353973274E+03  0.12500000000E+03 0.  0.
         21    1    1    2  503  501  0.21962769414E+03 -0.20112943213E+03 -0.88471085763E+02  0.31067105678E+03  0.00000000000E+00 0.  1.
         21    1    1    2  504  502  0.96035333233E+01 -0.18334204545E+02  0.92950310784E+02  0.95226735655E+02  0.00000000000E+00 0. -1.
<mgrwt>
<rscale>  4 0.33127301E+03</rscale>
<asrwt>0</asrwt>
<pdfrwt beam="1">  1       21 0.51606872E-01 0.33127301E+03</pdfrwt>
<pdfrwt beam="2">  1       21 0.65229670E-01 0.33127301E+03</pdfrwt>
<totfact> 0.71345334E+03</totfact>
</mgrwt>
</event>
<event>
 5    0  0.1531977E+001  0.2572352E+03  0.7546771E-02  0.1108816E+00
         21   -1    0    0  503  501  0.00000000000E+00  0.00000000000E+00  0.24717812447E+03  0.24717812447E+03  0.00000000000E+00 0. -1.
         21   -1    0    0  501  502 -0.00000000000E+00 -0.00000000000E+00 -0.29436281112E+03  0.29436281112E+03  0.00000000000E+00 0. -1.
         25    1    1    2    0    0 -0.11787468432E+03  0.19144322358E+03 -0.13730424858E+03  0.29158601773E+03  0.12500000000E+03 0.  0.
         21    1    1    2  503  504  0.17173240048E+02 -0.56697193382E+02  0.26235984995E+00  0.59241545758E+02  0.00000000000E+00 0. -1.
         21    1    1    2  504  502  0.10070144427E+03 -0.13474603020E+03  0.89857202073E+02  0.19071337210E+03  0.00000000000E+00 0. -1.
<mgrwt>
<rscale>  4 0.25723520E+03</rscale>
<asrwt>0</asrwt>
<pdfrwt beam="1">  1       21 0.38027404E-01 0.25723520E+03</pdfrwt>
<pdfrwt beam="2">  1       21 0.45286586E-01 0.25723520E+03</pdfrwt>
<totfact> 0.30217840E+04</totfact>
</mgrwt>
</event>
<event>
 5    0  0.1531977E+001  0.2545294E+03  0.7546771E-02  0.1110475E+00
         21   -1    0    0  503  501  0.00000000000E+00  0.00000000000E+00  0.55173438443E+02  0.55173438443E+02  0.00000000000E+00 0. -1.
         21   -1    0    0  504  502 -0.00000000000E+00 -0.00000000000E+00 -0.15527922721E+04  0.15527922721E+04  0.00000000000E+00 0. -1.
         25    1    1    2    0    0  0.17157353371E+03 -0.15576134891E+03 -0.89284042121E+03  0.93085342188E+03  0.12500000000E+03 0.  0.
         21    1    1    2  503  502 -0.12920326165E+03  0.17030877095E+03 -0.59363007244E+03  0.63094787677E+03  0.00000000000E+00 0. -1.
         21    1    1    2  504  501 -0.42370272051E+02 -0.14547422048E+02 -0.11148340018E+02  0.46164411911E+02  0.00000000000E+00 0. -1.
<mgrwt>
<rscale>  4 0.25452942E+03</rscale>
<asrwt>0</asrwt>
<pdfrwt beam="1">  1       21 0.84882212E-02 0.25452942E+03</pdfrwt>
<pdfrwt beam="2">  1       21 0.23889112E+00 0.25452942E+03</pdfrwt>
<totfact> 0.79459098E+03</totfact>
</mgrwt>
</event>
<event>
 5    0  0.1531977E+001  0.3751163E+03  0.7546771E-02  0.1052754E+00
         21   -1    0    0  504  501  0.00000000000E+00  0.00000000000E+00  0.24788907084E+03  0.24788907084E+03  0.00000000000E+00 0. -1.
         21   -1    0    0  503  502 -0.00000000000E+00 -0.00000000000E+00 -0.73191644678E+03  0.73191644678E+03  0.00000000000E+00 0. -1.
         25    1    1    2    0    0 -0.25106692580E+03  0.26472760214E+03 -0.45463983172E+03  0.59618594511E+03  0.12500000000E+03 0.  0.
         21    1    1    2  503  501  0.23181645046E+02  0.93769328978E+00 -0.24260020383E+02  0.33568087892E+02  0.00000000000E+00 0.  1.
         21    1    1    2  504  502  0.22788528075E+03 -0.26566529543E+03 -0.51275238401E+01  0.35005148462E+03  0.00000000000E+00 0. -1.
<mgrwt>
<rscale>  4 0.37511632E+03</rscale>
<asrwt>0</asrwt>
<pdfrwt beam="1">  1       21 0.38136781E-01 0.37511632E+03</pdfrwt>
<pdfrwt beam="2">  1       21 0.11260253E+00 0.37511632E+03</pdfrwt>
<totfact> 0.36698601E+03</totfact>
</mgrwt>
</event>
<event>
 5    0  0.1531977E+001  0.2329611E+03  0.7546771E-02  0.1124573E+00
         21   -1    0    0  502  501  0.00000000000E+00  0.00000000000E+00  0.85324791399E+03  0.85324791399E+03  0.00000000000E+00 0.  1.
         21   -1    0    0  504  502 -0.00000000000E+00 -0.00000000000E+00 -0.52088103265E+03  0.52088103265E+03  0.00000000000E+00 0. -1.
         25    1    1    2    0    0 -0.93873927182E+02 -0.29033709060E+03  0.48940264012E+03  0.59012531258E+03  0.12500000000E+03 0.  0.
         21    1    1    2  503  501  0.12081985728E+03  0.98704211830E+02  0.27187465681E+03  0.31345779359E+03  0.00000000000E+00 0.  1.
         21    1    1    2  504  503 -0.26945930098E+02  0.19163287878E+03 -0.42891041560E+03  0.47054584047E+03  0.00000000000E+00 0. -1.
<mgrwt>
<rscale>  4 0.23296107E+03</rscale>
<asrwt>0</asrwt>
<pdfrwt beam="1">  1       21 0.13126891E+00 0.23296107E+03</pdfrwt>
<pdfrwt beam="2">  1       21 0.80135543E-01 0.23296107E+03</pdfrwt>
<totfact> 0.55439982E+02</totfact>
</mgrwt>
</event>
<event>
 5    0  0.1531977E+001  0.4780887E+03  0.7546771E-02  0.1019662E+00
         21   -1    0    0  504  501  0.00000000000E+00  0.00000000000E+00  0.21346612261E+03  0.21346612261E+03  0.00000000000E+00 0. -1.
         21   -1    0    0  503  502 -0.00000000000E+00 -0.00000000000E+00 -0.23462576129E+04  0.23462576129E+04  0.00000000000E+00 0.  1.
         25    1    1    2    0    0 -0.23544180290E+03  0.27116646966E+03 -0.10816899231E+04  0.11465784694E+04  0.12500000000E+03 0.  0.
         21    1    1    2  503  501 -0.17901618504E+03  0.48980855540E+01 -0.86209717744E+03  0.88050118064E+03  0.00000000000E+00 0. -1.
         21    1    1    2  504  502  0.41445798794E+03 -0.27606455522E+03 -0.18900438973E+03  0.53264408544E+03  0.00000000000E+00 0. -1.
<mgrwt>
<rscale>  4 0.47808866E+03</rscale>
<asrwt>0</asrwt>
<pdfrwt beam="1">  1       21 0.32840945E-01 0.47808866E+03</pdfrwt>
<pdfrwt beam="2">  1       21 0.36096268E+00 0.47808866E+03</pdfrwt>
<totfact> 0.10017262E+02</totfact>
</mgrwt>
</event>
<event>
 5    0  0.1531977E+001  0.2330429E+03  0.7546771E-02  0.1124516E+00
         21   -1    0    0  502  501  0.00000000000E+00  0.00000000000E+00  0.17898176045E+03  0.17898176045E+03  0.00000000000E+00 0. -1.
         21   -1    0    0  504  502 -0.00000000000E+00 -0.00000000000E+00 -0.13508771228E+04  0.13508771228E+04  0.00000000000E+00 0.  1.
         25    1    1    2    0    0  0.23279243236E+03 -0.38523077386E+02 -0.10748951977E+04  0.11075653615E+04  0.12500000000E+03 0.  0.
         21    1    1    2  503  501 -0.19221475901E+03  0.30122970893E+02  0.10154797647E+03  0.21946730618E+03  0.00000000000E+00 0. -1.
         21    1    1    2  504  503 -0.40577673356E+02  0.84001064933E+01 -0.19854814116E+03  0.20282621556E+03  0.00000000000E+00 0.  1.
<mgrwt>
<rscale>  4 0.23304290E+03</rscale>
<asrwt>0</asrwt>
<pdfrwt beam="1">  1       21 0.27535656E-01 0.23304290E+03</pdfrwt>
<pdfrwt beam="2">  1       21 0.20782725E+00 0.23304290E+03</pdfrwt>
<totfact> 0.14461353E+03</totfact>
</mgrwt>
</event>
<event>
 5    0  0.1531977E+001  0.2543711E+03  0.7546771E-02  0.1110573E+00
         21   -1    0    0  504  501  0.00000000000E+00  0.00000000000E+00  0.76161172694E+03  0.76161172694E+03  0.00000000000E+00 0. -1.
         21   -1    0    0  503  502 -0.00000000000E+00 -0.00000000000E+00 -0.11402325758E+03  0.11402325758E+03  0.00000000000E+00 0. -1.
         25    1    1    2    0    0  0.15736602487E+03 -0.18981313091E+03  0.19492223216E+03  0.33824956325E+03  0.12500000000E+03 0.  0.
         21    1    1    2  503  501 -0.10885449132E+03  0.16622028962E+03  0.21122182544E+03  0.28998817994E+03  0.00000000000E+00 0. -1.
         21    1    1    2  504  502 -0.48511533544E+02  0.23592841290E+02  0.24144441176E+03  0.24739724133E+03  0.00000000000E+00 0. -1.
<mgrwt>
<rscale>  4 0.25437115E+03</rscale>
<asrwt>0</asrwt>
<pdfrwt beam="1">  1       21 0.11717103E+00 0.25437115E+03</pdfrwt>
<pdfrwt beam="2">  1       21 0.17542040E-01 0.25437115E+03</pdfrwt>
<totfact> 0.15896513E+04</totfact>
</mgrwt>
</event>
<event>
 5    0  0.1531977E+001  0.2896801E+03  0.7546771E-02  0.1090516E+00
         21   -1    0    0  503  501  0.00000000000E+00  0.00000000000E+00  0.47125105529E+03  0.47125105529E+03  0.00000000000E+00 0.  1.
         21   -1    0    0  504  502 -0.00000000000E+00 -0.00000000000E+00 -0.34767589327E+03  0.34767589327E+03  0.00000000000E+00 0. -1.
         25    1    1    2    0    0  0.20590938656E+03  0.19232384014E+03  0.17599976911E+03  0.35494795913E+03  0.12500000000E+03 0.  0.
         21    1    1    2  503  502 -0.18032233311E+03 -0.18233078917E+03 -0.19286967024E+03  0.32087282558E+03  0.00000000000E+00 0. -1.
         21    1    1    2  504  501 -0.25587053449E+02 -0.99930509725E+01  0.14044506315E+03  0.14310616386E+03  0.00000000000E+00 0.  1.
<mgrwt>
<rscale>  4 0.28968007E+03</rscale>
<asrwt>0</asrwt>
<pdfrwt beam="1">  1       21 0.72500162E-01 0.28968007E+03</pdfrwt>
<pdfrwt beam="2">  1       21 0.53488599E-01 0.28968007E+03</pdfrwt>
<totfact> 0.53303700E+03</totfact>
</mgrwt>
</event>
<event>
 5    0  0.1531977E+001  0.2108162E+03  0.7546771E-02  0.1140921E+00
         21   -1    0    0  502  501  0.00000000000E+00  0.00000000000E+00  0.29742828722E+03  0.29742828722E+03  0.00000000000E+00 0.  1.
         21   -1    0    0  504  502 -0.00000000000E+00 -0.00000000000E+00 -0.63470114420E+03  0.63470114420E+03  0.00000000000E+00 0. -1.
         25    1    1    2    0    0 -0.51731305630E+02  0.22435598094E+03  0.43400823656E+02  0.26555670893E+03  0.12500000000E+03 0.  0.
         21    1    1    2  503  501  0.33870675132E+02 -0.14437759874E+03  0.10006480928E+03  0.17889963585E+03  0.00000000000E+00 0.  1.
         21    1    1    2  504  503  0.17860630498E+02 -0.79978382197E+02 -0.48073848992E+03  0.48767308663E+03  0.00000000000E+00 0. -1.
<mgrwt>
<rscale>  4 0.21081622E+03</rscale>
<asrwt>0</asrwt>
<pdfrwt beam="1">  1       21 0.45758198E-01 0.21081622E+03</pdfrwt>
<pdfrwt beam="2">  1       21 0.97646330E-01 0.21081622E+03</pdfrwt>
<totfact> 0.39185441E+03</totfact>
</mgrwt>
</event>
<event>
 5    0  0.1531977E+001  0.1960865E+03  0.7546771E-02  0.1153083E+00
         21   -1    0    0  502  501  0.00000000000E+00  0.00000000000E+00  0.29801533246E+03  0.29801533246E+03  0.00000000000E+00 0.  1.
         21   -1    0    0  504  502 -0.00000000000E+00 -0.00000000000E+00 -0.28961597139E+03  0.28961597139E+03  0.00000000000E+00 0.  1.
         25    1    1    2    0    0 -0.11224588384E+03  0.17823801262E+03 -0.15918929340E+03  0.29212011009E+03  0.12500000000E+03 0.  0.
         21    1    1    2  503  501  0.64492087051E+02 -0.12912101257E+03  0.17473371318E+03  0.22663480690E+03  0.00000000000E+00 0.  1.
         21    1    1    2  504  503  0.47753796791E+02 -0.49117000053E+02 -0.71450587040E+01  0.68876386854E+02  0.00000000000E+00 0.  1.
<mgrwt>
<rscale>  4 0.19608649E+03</rscale>
<asrwt>0</asrwt>
<pdfrwt beam="1">  1       21 0.45848513E-01 0.19608649E+03</pdfrwt>
<pdfrwt beam="2">  1       21 0.44556303E-01 0.19608649E+03</pdfrwt>
<totfact> 0.22008477E+04</totfact>
</mgrwt>
</event>
<event>
 5    0  0.1531977E+001  0.2826186E+03  0.7546771E-02  0.1094267E+00
         21   -1    0    0  502  501  0.00000000000E+00  0.00000000000E+00  0.26865285742E+03  0.26865285742E+03  0.00000000000E+00 0. -1.
         21   -1    0    0  504  502 -0.00000000000E+00 -0.00000000000E+00 -0.31782168101E+03  0.31782168101E+03  0.00000000000E+00 0. -1.
         25    1    1    2    0    0  0.13941795656E+03  0.21587248942E+03  0.48447984653E+02  0.28984565810E+03  0.12500000000E+03 0.  0.
         21    1    1    2  503  501 -0.11291988824E+03 -0.22239689194E+03 -0.73020974073E+02  0.25989101823E+03  0.00000000000E+00 0. -1.
         21    1    1    2  504  503 -0.26498068321E+02  0.65244025116E+01 -0.24595834175E+02  0.36737862100E+02  0.00000000000E+00 0.  1.
<mgrwt>
<rscale>  4 0.28261856E+03</rscale>
<asrwt>0</asrwt>
<pdfrwt beam="1">  1       21 0.41331209E-01 0.28261856E+03</pdfrwt>
<pdfrwt beam="2">  1       21 0.48895643E-01 0.28261856E+03</pdfrwt>
<totfact> 0.21508009E+04</totfact>
</mgrwt>
</event>
<event>
 5    0  0.1531977E+001  0.2712207E+03  0.7546771E-02  0.1100583E+00
         21   -1    0    0  503  501  0.00000000000E+00  0.00000000000E+00  0.35967229674E+03  0.35967229674E+03  0.00000000000E+00 0. -1.
         21   -1    0    0  504  502 -0.00000000000E+00 -0.00000000000E+00 -0.58193688631E+03  0.58193688631E+03  0.00000000000E+00 0.  1.
         25    1    1    2    0    0  0.12756493963E+03 -0.23335021539E+03  0.19714020288E+03  0.35385646304E+03  0.12500000000E+03 0.  0.
         21    1    1    2  503  502 -0.92272641609E+02  0.21961629747E+03 -0.46859820830E+03  0.52567084694E+03  0.00000000000E+00 0.  1.
         21    1    1    2  504  501 -0.35292298023E+02  0.13733917928E+02  0.49193415850E+02  0.62081873074E+02  0.00000000000E+00 0. -1.
<mgrwt>
<rscale>  4 0.27122074E+03</rscale>
<asrwt>0</asrwt>
<pdfrwt beam="1">  1       21 0.55334199E-01 0.27122074E+03</pdfrwt>
<pdfrwt beam="2">  1       21 0.89528752E-01 0.27122074E+03</pdfrwt>
<totfact> 0.30926998E+03</totfact>
</mgrwt>
</event>
<event>
 5    0  0.1531977E+001  0.2884120E+03  0.7546771E-02  0.1091181E+00
         21   -1    0    0  504  501  0.00000000000E+00  0.00000000000E+00  0.17163335249E+03  0.17163335249E+03  0.00000000000E+00 0. -1.
         21   -1    0    0  503  502 -0.00000000000E+00 -0.00000000000E+00 -0.71823262079E+03  0.71823262079E+03  0.00000000000E+00 0.  1.
         25    1    1    2    0    0 -0.43592140973E+02 -0.24529925884E+03 -0.19117076299E+02  0.27939660654E+03  0.12500000000E+03 0.  0.
         21    1    1    2  503  501  0.62068916041E+02  0.25512332595E+03 -0.52784193075E+03  0.58954013064E+03  0.00000000000E+00 0.  1.
         21    1    1    2  504  502 -0.18476775068E+02 -0.98240671080E+01  0.35973875373E+00  0.20929236093E+02  0.00000000000E+00 0. -1.
<mgrwt>
<rscale>  4 0.28841199E+03</rscale>
<asrwt>0</asrwt>
<pdfrwt beam="1">  1       21 0.26405131E-01 0.28841199E+03</pdfrwt>
<pdfrwt beam="2">  1       21 0.11049733E+00 0.28841199E+03</pdfrwt>
<totfact> 0.83088468E+03</totfact>
</mgrwt>
</event>
<event>
 5    0  0.1531977E+001  0.2170545E+03  0.7546771E-02  0.1136098E+00
         21   -1    0    0  504  501  0.00000000000E+00  0.00000000000E+00  0.18283031162E+03  0.18283031162E+03  0.00000000000E+00 0. -1.
         21   -1    0    0  501  502 -0.00000000000E+00 -0.00000000000E+00 -0.67612761843E+03  0.67612761843E+03  0.00000000000E+00 0.  1.
         25    1    1    2    0    0 -0.27754703654E+02 -0.22447683922E+03  0.17591131138E+02  0.25902629753E+03  0.12500000000E+03 0.  0.
         21    1    1    2  503  502 -0.30010451714E+02  0.13076955083E+03 -0.82227019923E+02  0.15736132130E+03  0.00000000000E+00 0. -1.
         21    1    1    2  504  503  0.57765155368E+02  0.93707288386E+02 -0.42866141802E+03  0.44257031122E+03  0.00000000000E+00 0.  1.
<mgrwt>
<rscale>  4 0.21705451E+03</rscale>
<asrwt>0</asrwt>
<pdfrwt beam="1">  1       21 0.28127740E-01 0.21705451E+03</pdfrwt>
<pdfrwt beam="2">  1       21 0.10401963E+00 0.21705451E+03</pdfrwt>
<totfact> 0.88706151E+03</totfact>
</mgrwt>
</event>
<event>
 5    0  0.1531977E+001  0.2516230E+03  0.7546771E-02  0.1112283E+00
         21   -1    0    0  502  501  0.00000000000E+00  0.00000000000E+00  0.25672902086E+03  0.25672902086E+03  0.00000000000E+00 0. -1.
         21   -1    0    0  504  502 -0.00000000000E+00 -0.00000000000E+00 -0.55060605837E+03  0.55060605837E+03  0.00000000000E+00 0. -1.
         25    1    1    2    0    0  0.90748391866E+02 -0.20374553715E+03  0.11683556235E+03  0.28111041099E+03  0.12500000000E+03 0.  0.
         21    1    1    2  503  501 -0.64906633326E+02  0.19800028438E+03 -0.13287559396E+03  0.24712933281E+03  0.00000000000E+00 0. -1.
         21    1    1    2  504  503 -0.25841758540E+02  0.57452527717E+01 -0.27783700590E+03  0.27909533544E+03  0.00000000000E+00 0.  1.
<mgrwt>
<rscale>  4 0.25162304E+03</rscale>
<asrwt>0</asrwt>
<pdfrwt beam="1">  1       21 0.39496773E-01 0.25162304E+03</pdfrwt>
<pdfrwt beam="2">  1       21 0.84708624E-01 0.25162304E+03</pdfrwt>
<totfact> 0.71766360E+03</totfact>
</mgrwt>
</event>
