<event>
 5    0  0.2324070E+000  0.4940922E+03  0.7546771E-02  0.1015333E+00
         21   -1    0    0  503  501  0.00000000000E+00  0.00000000000E+00  0.80027367475E+03  0.80027367475E+03  0.00000000000E+00 0.  1.
         21   -1    0    0  504  502 -0.00000000000E+00 -0.00000000000E+00 -0.10685401874E+03  0.10685401874E+03  0.00000000000E+00 0. -1.
         25    1    1    2    0    0  0.46379767787E+02  0.26554860549E+03  0.44992263161E+03  0.53918690560E+03  0.12500000000E+03 0.  0.
         21    1    1    2  503  502 -0.28001903645E+02 -0.19058125136E+03  0.20632865829E+03  0.28227085434E+03  0.00000000000E+00 0. -1.
         21    1    1    2  504  501 -0.18377864141E+02 -0.74967354134E+02  0.37168366108E+02  0.85669933555E+02  0.00000000000E+00 0. -1.
<mgrwt>
<rscale>  4 0.49409219E+03</rscale>
<asrwt>0</asrwt>
<pdfrwt beam="1">  1       21 0.12311902E+00 0.49409219E+03</pdfrwt>
<pdfrwt beam="2">  1       21 0.16439080E-01 0.49409219E+03</pdfrwt>
<totfact> 0.14507112E+04</totfact>
</mgrwt>
</event>
<event>
 5    0  0.2324070E+000  0.7696306E+03  0.7546771E-02  0.9605047E-01
         21   -1    0    0  503  501  0.00000000000E+00  0.00000000000E+00  0.10196156701E+04  0.10196156701E+04  0.00000000000E+00 0.  1.
         21   -1    0    0  504  502 -0.00000000000E+00 -0.00000000000E+00 -0.48837971537E+03  0.48837971537E+03  0.00000000000E+00 0. -1.
         25    1    1    2    0    0 -0.12156559574E+03  0.25575815403E+03  0.10835169271E+03  0.32795657751E+03  0.12500000000E+03 0.  0.
         21    1    1    2  503  502  0.13812749820E+03 -0.30856356977E+03  0.76347778102E+03  0.83497844551E+03  0.00000000000E+00 0.  1.
         21    1    1    2  504  501 -0.16561902454E+02  0.52805415739E+02 -0.34059351901E+03  0.34506036245E+03  0.00000000000E+00 0. -1.
<mgrwt>
<rscale>  4 0.76963058E+03</rscale>
<asrwt>0</asrwt>
<pdfrwt beam="1">  1       21 0.15686395E+00 0.76963058E+03</pdfrwt>
<pdfrwt beam="2">  1       21 0.75135342E-01 0.76963058E+03</pdfrwt>
<totfact> 0.30933216E+02</totfact>
</mgrwt>
</event>
<event>
 5    0  0.2324070E+000  0.4892463E+03  0.7546771E-02  0.1016625E+00
         21   -1    0    0  503  501  0.00000000000E+00  0.00000000000E+00  0.59335252173E+03  0.59335252173E+03  0.00000000000E+00 0.  1.
         21   -1    0    0  504  502 -0.00000000000E+00 -0.00000000000E+00 -0.20943147335E+04  0.20943147335E+04  0.00000000000E+00 0.  1.
         25    1    1    2    0    0 -0.19282015830E+03  0.11815946997E+03  0.49462589957E+03  0.55805112159E+03  0.12500000000E+03 0.  0.
         21    1    1    2  503  502 -0.11377439781E+03 -0.51371019743E+02 -0.16631878192E+02  0.12593734410E+03  0.00000000000E+00 0. -1.
         21    1    1    2  504  501  0.30659455611E+03 -0.66788450231E+02 -0.19789562332E+04  0.20036787896E+04  0.00000000000E+00 0.  1.
<mgrwt>
<rscale>  4 0.48924629E+03</rscale>
<asrwt>0</asrwt>
<pdfrwt beam="1">  1       21 0.91285001E-01 0.48924629E+03</pdfrwt>
<pdfrwt beam="2">  1       21 0.32220227E+00 0.48924629E+03</pdfrwt>
<totfact> 0.18629808E+01</totfact>
</mgrwt>
</event>
<event>
 5    0  0.2324070E+000  0.4163394E+03  0.7546771E-02  0.1038264E+00
         21   -1    0    0  503  501  0.00000000000E+00  0.00000000000E+00  0.40151728695E+03  0.40151728695E+03  0.00000000000E+00 0.  1.
         21   -1    0    0  504  502 -0.00000000000E+00 -0.00000000000E+00 -0.25154971869E+03  0.25154971869E+03  0.00000000000E+00 0.  1.
         25    1    1    2    0    0  0.17030945694E+03  0.13303544939E+03  0.16199360260E+03  0.29760824787E+03  0.12500000000E+03 0.  0.
         21    1    1    2  503  502 -0.11140395150E+03  0.74965311887E+02 -0.32967236586E+02  0.13826596503E+03  0.00000000000E+00 0. -1.
         21    1    1    2  504  501 -0.58905505431E+02 -0.20800076128E+03  0.20941202250E+02  0.21719279273E+03  0.00000000000E+00 0.  1.
<mgrwt>
<rscale>  4 0.41633944E+03</rscale>
<asrwt>0</asrwt>
<pdfrwt beam="1">  1       21 0.61771890E-01 0.41633944E+03</pdfrwt>
<pdfrwt beam="2">  1       21 0.38699957E-01 0.41633944E+03</pdfrwt>
<totfact> 0.14214932E+04</totfact>
</mgrwt>
</event>
<event>
 5    0  0.2324070E+000  0.3818317E+03  0.7546771E-02  0.1050259E+00
         21   -1    0    0  503  501  0.00000000000E+00  0.00000000000E+00  0.51551898282E+02  0.51551898282E+02  0.00000000000E+00 0.  1.
         21   -1    0    0  504  502 -0.00000000000E+00 -0.00000000000E+00 -0.17250163057E+04  0.17250163057E+04  0.00000000000E+00 0.  1.
         25    1    1    2    0    0 -0.17902959348E+03  0.14155055151E+03 -0.51108513277E+03  0.57351649227E+03  0.12500000000E+03 0.  0.
         21    1    1    2  503  502  0.12072257034E+03  0.98716881722E+01 -0.26838860726E+03  0.29445514722E+03  0.00000000000E+00 0.  1.
         21    1    1    2  504  501  0.58307023141E+02 -0.15142223969E+03 -0.89399066743E+03  0.90859656453E+03  0.00000000000E+00 0.  1.
<mgrwt>
<rscale>  4 0.38183171E+03</rscale>
<asrwt>0</asrwt>
<pdfrwt beam="1">  1       21 0.79310627E-02 0.38183171E+03</pdfrwt>
<pdfrwt beam="2">  1       21 0.26538708E+00 0.38183171E+03</pdfrwt>
<totfact> 0.57353196E+03</totfact>
</mgrwt>
</event>
<event>
 5    0  0.2324070E+000  0.5369112E+03  0.7546771E-02  0.1004570E+00
         21   -1    0    0  503  501  0.00000000000E+00  0.00000000000E+00  0.19022958461E+03  0.19022958461E+03  0.00000000000E+00 0. -1.
         21   -1    0    0  504  502 -0.00000000000E+00 -0.00000000000E+00 -0.98101889858E+03  0.98101889858E+03  0.00000000000E+00 0.  1.
         25    1    1    2    0    0  0.26831861487E+02 -0.24341490568E+03 -0.31674196190E+02  0.27676527926E+03  0.12500000000E+03 0.  0.
         21    1    1    2  503  502 -0.56334929419E+02  0.23981066671E+03 -0.15804575824E+03  0.29267941820E+03  0.00000000000E+00 0.  1.
         21    1    1    2  504  501  0.29503067933E+02  0.36042389748E+01 -0.60106935953E+03  0.60180378573E+03  0.00000000000E+00 0.  1.
<mgrwt>
<rscale>  4 0.53691117E+03</rscale>
<asrwt>0</asrwt>
<pdfrwt beam="1">  1       21 0.29266090E-01 0.53691117E+03</pdfrwt>
<pdfrwt beam="2">  1       21 0.15092598E+00 0.53691117E+03</pdfrwt>
<totfact> 0.27499124E+03</totfact>
</mgrwt>
</event>
<event>
 5    0  0.2324070E+000  0.4596404E+03  0.7546771E-02  0.1024886E+00
         21   -1    0    0  503  501  0.00000000000E+00  0.00000000000E+00  0.37133929253E+03  0.37133929253E+03  0.00000000000E+00 0.  1.
         21   -1    0    0  504  502 -0.00000000000E+00 -0.00000000000E+00 -0.29193611257E+03  0.29193611257E+03  0.00000000000E+00 0.  1.
         25    1    1    2    0    0 -0.23113400830E+03 -0.15978899467E+02  0.16676105025E+03  0.31162879023E+03  0.12500000000E+03 0.  0.
         21    1    1    2  503  502  0.47162339729E+02 -0.34710805972E+02 -0.14162440046E+03  0.15325337564E+03  0.00000000000E+00 0.  1.
         21    1    1    2  504  501  0.18397166857E+03  0.50689705439E+02  0.54266530174E+02  0.19839323922E+03  0.00000000000E+00 0.  1.
<mgrwt>
<rscale>  4 0.45964038E+03</rscale>
<asrwt>0</asrwt>
<pdfrwt beam="1">  1       21 0.57129122E-01 0.45964038E+03</pdfrwt>
<pdfrwt beam="2">  1       21 0.44913248E-01 0.45964038E+03</pdfrwt>
<totfact> 0.12235182E+04</totfact>
</mgrwt>
</event>
<event>
 5    0  0.2324070E+000  0.4895651E+03  0.7546771E-02  0.1016539E+00
         21   -1    0    0  503  501  0.00000000000E+00  0.00000000000E+00  0.25269353657E+02  0.25269353657E+02  0.00000000000E+00 0.  1.
         21   -1    0    0  504  502 -0.00000000000E+00 -0.00000000000E+00 -0.32623879730E+04  0.32623879730E+04  0.00000000000E+00 0.  1.
         25    1    1    2    0    0 -0.43153824044E+01 -0.24526485754E+03 -0.15226626660E+04  0.15473525996E+04  0.12500000000E+03 0.  0.
         21    1    1    2  503  502  0.49717782431E+02  0.38403726727E+02 -0.76207819990E+03  0.76466325064E+03  0.00000000000E+00 0. -1.
         21    1    1    2  504  501 -0.45402400026E+02  0.20686113081E+03 -0.95237775339E+03  0.97564147643E+03  0.00000000000E+00 0.  1.
<mgrwt>
<rscale>  4 0.48956514E+03</rscale>
<asrwt>0</asrwt>
<pdfrwt beam="1">  1       21 0.38875919E-02 0.48956514E+03</pdfrwt>
<pdfrwt beam="2">  1       21 0.50190597E+00 0.48956514E+03</pdfrwt>
<totfact> 0.57008178E+02</totfact>
</mgrwt>
</event>
<event>
 5    0  0.2324070E+000  0.6803826E+03  0.7546771E-02  0.9751381E-01
         21   -1    0    0  503  501  0.00000000000E+00  0.00000000000E+00  0.22257057158E+03  0.22257057158E+03  0.00000000000E+00 0.  1.
         21   -1    0    0  504  502 -0.00000000000E+00 -0.00000000000E+00 -0.82700293155E+03  0.82700293155E+03  0.00000000000E+00 0.  1.
         25    1    1    2    0    0 -0.26176931425E+03  0.85000363103E+02 -0.28019085881E+03  0.41216520107E+03  0.12500000000E+03 0.  0.
         21    1    1    2  503  502 -0.33642348063E+02  0.76418346634E+02 -0.28678735846E+03  0.29869476101E+03  0.00000000000E+00 0.  1.
         21    1    1    2  504  501  0.29541166231E+03 -0.16141870974E+03 -0.37454142694E+02  0.33871354105E+03  0.00000000000E+00 0.  1.
<mgrwt>
<rscale>  4 0.68038264E+03</rscale>
<asrwt>0</asrwt>
<pdfrwt beam="1">  1       21 0.34241627E-01 0.68038264E+03</pdfrwt>
<pdfrwt beam="2">  1       21 0.12723122E+00 0.68038264E+03</pdfrwt>
<totfact> 0.30444034E+03</totfact>
</mgrwt>
</event>
<event>
 5    0  0.2324070E+000  0.5410121E+03  0.7546771E-02  0.1003596E+00
         21   -1    0    0  503  501  0.00000000000E+00  0.00000000000E+00  0.36795128246E+03  0.36795128246E+03  0.00000000000E+00 0. -1.
         21   -1    0    0  504  502 -0.00000000000E+00 -0.00000000000E+00 -0.11100821847E+04  0.11100821847E+04  0.00000000000E+00 0.  1.
         25    1    1    2    0    0  0.81749122987E+02  0.27331628493E+03  0.71418333354E+02  0.31954700602E+03  0.12500000000E+03 0.  0.
         21    1    1    2  503  502 -0.14186155997E+03 -0.17810855231E+03  0.92278021129E+02  0.24568799683E+03  0.00000000000E+00 0. -1.
         21    1    1    2  504  501  0.60112436980E+02 -0.95207732618E+02 -0.90582725668E+03  0.91279846427E+03  0.00000000000E+00 0.  1.
<mgrwt>
<rscale>  4 0.54101212E+03</rscale>
<asrwt>0</asrwt>
<pdfrwt beam="1">  1       21 0.56607891E-01 0.54101212E+03</pdfrwt>
<pdfrwt beam="2">  1       21 0.17078187E+00 0.54101212E+03</pdfrwt>
<totfact> 0.49347466E+02</totfact>
</mgrwt>
</event>
<event>
 5    0  0.2324070E+000  0.6092655E+03  0.7546771E-02  0.9886367E-01
         21   -1    0    0  503  501  0.00000000000E+00  0.00000000000E+00  0.82558697858E+03  0.82558697858E+03  0.00000000000E+00 0.  1.
         21   -1    0    0  504  502 -0.00000000000E+00 -0.00000000000E+00 -0.13673022270E+03  0.13673022270E+03  0.00000000000E+00 0.  1.
         25    1    1    2    0    0 -0.98579304864E+02  0.24403748257E+03  0.49169968325E+03  0.57154680540E+03  0.12500000000E+03 0.  0.
         21    1    1    2  503  502  0.93750728248E+02 -0.27403868429E+03  0.21002939481E+03  0.35776912418E+03  0.00000000000E+00 0.  1.
         21    1    1    2  504  501  0.48285766162E+01  0.30001201711E+02 -0.12872322181E+02  0.33001271712E+02  0.00000000000E+00 0.  1.
<mgrwt>
<rscale>  4 0.60926546E+03</rscale>
<asrwt>0</asrwt>
<pdfrwt beam="1">  1       21 0.12701338E+00 0.60926546E+03</pdfrwt>
<pdfrwt beam="2">  1       21 0.21035419E-01 0.60926546E+03</pdfrwt>
<totfact> 0.81469392E+03</totfact>
</mgrwt>
</event>
<event>
 5    0  0.2324070E+000  0.4415439E+03  0.7546771E-02  0.1030274E+00
         21   -1    0    0  503  501  0.00000000000E+00  0.00000000000E+00  0.74075833701E+02  0.74075833701E+02  0.00000000000E+00 0. -1.
         21   -1    0    0  504  502 -0.00000000000E+00 -0.00000000000E+00 -0.13188629722E+04  0.13188629722E+04  0.00000000000E+00 0. -1.
         25    1    1    2    0    0 -0.57113882056E+02 -0.19288383200E+03 -0.19949014437E+03  0.30965704557E+03  0.12500000000E+03 0.  0.
         21    1    1    2  503  502 -0.32715984215E+02  0.16062041919E+03 -0.42197686089E+03  0.45269606339E+03  0.00000000000E+00 0. -1.
         21    1    1    2  504  501  0.89829866270E+02  0.32263412809E+02 -0.62332013322E+03  0.63058569692E+03  0.00000000000E+00 0. -1.
<mgrwt>
<rscale>  4 0.44154391E+03</rscale>
<asrwt>0</asrwt>
<pdfrwt beam="1">  1       21 0.11396282E-01 0.44154391E+03</pdfrwt>
<pdfrwt beam="2">  1       21 0.20290199E+00 0.44154391E+03</pdfrwt>
<totfact> 0.71837870E+03</totfact>
</mgrwt>
</event>
<event>
 5    0  0.2324070E+000  0.3587837E+03  0.7546771E-02  0.1059067E+00
         21   -1    0    0  503  501  0.00000000000E+00  0.00000000000E+00  0.46699723182E+03  0.46699723182E+03  0.00000000000E+00 0.  1.
         21   -1    0    0  504  502 -0.00000000000E+00 -0.00000000000E+00 -0.26611147826E+03  0.26611147826E+03  0.00000000000E+00 0.  1.
         25    1    1    2    0    0  0.19397256343E+03 -0.65509763502E+02  0.22444568537E+03  0.32850837152E+03  0.12500000000E+03 0.  0.
         21    1    1    2  503  502 -0.84840475801E+02  0.28410065631E+02 -0.18542853430E+03  0.20588535522E+03  0.00000000000E+00 0.  1.
         21    1    1    2  504  501 -0.10913208763E+03  0.37099697871E+02  0.16186860250E+03  0.19871498334E+03  0.00000000000E+00 0.  1.
<mgrwt>
<rscale>  4 0.35878369E+03</rscale>
<asrwt>0</asrwt>
<pdfrwt beam="1">  1       21 0.71845728E-01 0.35878369E+03</pdfrwt>
<pdfrwt beam="2">  1       21 0.40940227E-01 0.35878369E+03</pdfrwt>
<totfact> 0.92280910E+03</totfact>
</mgrwt>
</event>
<event>
 5    0  0.2324070E+000  0.4067002E+03  0.7546771E-02  0.1041484E+00
         21   -1    0    0  503  501  0.00000000000E+00  0.00000000000E+00  0.14255377522E+03  0.14255377522E+03  0.00000000000E+00 0. -1.
         21   -1    0    0  504  502 -0.00000000000E+00 -0.00000000000E+00 -0.70937376942E+03  0.70937376942E+03  0.00000000000E+00 0. -1.
         25    1    1    2    0    0 -0.22680171255E+03 -0.10048163920E+02 -0.30284401173E+02  0.26092552073E+03  0.12500000000E+03 0.  0.
         21    1    1    2  503  502  0.10907872957E+03 -0.10179235271E+02 -0.14551491701E+03  0.18214383643E+03  0.00000000000E+00 0.  1.
         21    1    1    2  504  501  0.11772298298E+03  0.20227399191E+02 -0.39102067602E+03  0.40885818748E+03  0.00000000000E+00 0. -1.
<mgrwt>
<rscale>  4 0.40670020E+03</rscale>
<asrwt>0</asrwt>
<pdfrwt beam="1">  1       21 0.21931350E-01 0.40670020E+03</pdfrwt>
<pdfrwt beam="2">  1       21 0.10913443E+00 0.40670020E+03</pdfrwt>
<totfact> 0.11676826E+04</totfact>
</mgrwt>
</event>
<event>
 5    0  0.2324070E+000  0.5117774E+03  0.7546771E-02  0.1010750E+00
         21   -1    0    0  503  501  0.00000000000E+00  0.00000000000E+00  0.14758986661E+03  0.14758986661E+03  0.00000000000E+00 0. -1.
         21   -1    0    0  504  502 -0.00000000000E+00 -0.00000000000E+00 -0.63658188365E+03  0.63658188365E+03  0.00000000000E+00 0. -1.
         25    1    1    2    0    0 -0.75981662553E+02  0.19953097584E+03 -0.31296036395E+03  0.39894236772E+03  0.12500000000E+03 0.  0.
         21    1    1    2  503  502  0.69113422299E+02 -0.18006233688E+03  0.14656650920E+02  0.19342680197E+03  0.00000000000E+00 0. -1.
         21    1    1    2  504  501  0.68682402539E+01 -0.19468638956E+02 -0.19068830401E+03  0.19180258057E+03  0.00000000000E+00 0.  1.
<mgrwt>
<rscale>  4 0.51177742E+03</rscale>
<asrwt>0</asrwt>
<pdfrwt beam="1">  1       21 0.22706134E-01 0.51177742E+03</pdfrwt>
<pdfrwt beam="2">  1       21 0.97935673E-01 0.51177742E+03</pdfrwt>
<totfact> 0.13820803E+04</totfact>
</mgrwt>
</event>
<event>
 5    0  0.2324070E+000  0.1059630E+04  0.7546771E-02  0.9245458E-01
         21   -1    0    0  503  501  0.00000000000E+00  0.00000000000E+00  0.85090013466E+03  0.85090013466E+03  0.00000000000E+00 0. -1.
         21   -1    0    0  504  502 -0.00000000000E+00 -0.00000000000E+00 -0.36640109292E+03  0.36640109292E+03  0.00000000000E+00 0.  1.
         25    1    1    2    0    0  0.42570013402E+03  0.21215172199E+03  0.58259970128E+02  0.49522538441E+03  0.12500000000E+03 0.  0.
         21    1    1    2  503  502 -0.47555408046E+03 -0.20069376433E+03  0.42853010345E+03  0.67087086689E+03  0.00000000000E+00 0. -1.
         21    1    1    2  504  501  0.49853946437E+02 -0.11457957661E+02 -0.22910318380E+01  0.51204976281E+02  0.00000000000E+00 0.  1.
<mgrwt>
<rscale>  4 0.10596301E+04</rscale>
<asrwt>0</asrwt>
<pdfrwt beam="1">  1       21 0.13090771E+00 0.10596301E+04</pdfrwt>
<pdfrwt beam="2">  1       21 0.56369399E-01 0.10596301E+04</pdfrwt>
<totfact> 0.91245928E+02</totfact>
</mgrwt>
</event>
<event>
 5    0  0.2324070E+000  0.4584962E+03  0.7546771E-02  0.1025218E+00
         21   -1    0    0  503  501  0.00000000000E+00  0.00000000000E+00  0.98528398202E+03  0.98528398202E+03  0.00000000000E+00 0. -1.
         21   -1    0    0  504  502 -0.00000000000E+00 -0.00000000000E+00 -0.76686183008E+02  0.76686183008E+02  0.00000000000E+00 0. -1.
         25    1    1    2    0    0 -0.11138068069E+03  0.19537084903E+03  0.44677732038E+03  0.51556803498E+03  0.12500000000E+03 0.  0.
         21    1    1    2  503  502  0.78885384649E+02 -0.18008968855E+03  0.47009398913E+03  0.50955231178E+03  0.00000000000E+00 0. -1.
         21    1    1    2  504  501  0.32495296044E+02 -0.15281160482E+02 -0.82735104918E+01  0.36849818270E+02  0.00000000000E+00 0. -1.
<mgrwt>
<rscale>  4 0.45849616E+03</rscale>
<asrwt>0</asrwt>
<pdfrwt beam="1">  1       21 0.15158214E+00 0.45849616E+03</pdfrwt>
<pdfrwt beam="2">  1       21 0.11797875E-01 0.45849616E+03</pdfrwt>
<totfact> 0.15603931E+04</totfact>
</mgrwt>
</event>
<event>
 5    0  0.2324070E+000  0.5356715E+03  0.7546771E-02  0.1004866E+00
         21   -1    0    0  503  501  0.00000000000E+00  0.00000000000E+00  0.30711502353E+03  0.30711502353E+03  0.00000000000E+00 0. -1.
         21   -1    0    0  504  502 -0.00000000000E+00 -0.00000000000E+00 -0.43183820315E+03  0.43183820315E+03  0.00000000000E+00 0. -1.
         25    1    1    2    0    0  0.21599063372E+03 -0.11966929812E+03  0.14501463056E+03  0.31245309703E+03  0.12500000000E+03 0.  0.
         21    1    1    2  503  502 -0.29091296173E+02  0.11977987949E+02 -0.19604612540E+03  0.19855442325E+03  0.00000000000E+00 0. -1.
         21    1    1    2  504  501 -0.18689933754E+03  0.10769131017E+03 -0.73691684777E+02  0.22794570640E+03  0.00000000000E+00 0. -1.
<mgrwt>
<rscale>  4 0.53567145E+03</rscale>
<asrwt>0</asrwt>
<pdfrwt beam="1">  1       21 0.47248465E-01 0.53567145E+03</pdfrwt>
<pdfrwt beam="2">  1       21 0.66436647E-01 0.53567145E+03</pdfrwt>
<totfact> 0.77236703E+03</totfact>
</mgrwt>
</event>
<event>
 5    0  0.2324070E+000  0.5668386E+03  0.7546771E-02  0.9976699E-01
         21   -1    0    0  503  501  0.00000000000E+00  0.00000000000E+00  0.13157982191E+03  0.13157982191E+03  0.00000000000E+00 0. -1.
         21   -1    0    0  504  502 -0.00000000000E+00 -0.00000000000E+00 -0.12543291832E+04  0.12543291832E+04  0.00000000000E+00 0.  1.
         25    1    1    2    0    0  0.19112741338E+03  0.85701282692E+02 -0.78560034232E+01  0.24405145930E+03  0.12500000000E+03 0.  0.
         21    1    1    2  503  502 -0.43092876811E+02 -0.50384107250E+02 -0.63399665948E+03  0.63745377756E+03  0.00000000000E+00 0.  1.
         21    1    1    2  504  501 -0.14803453657E+03 -0.35317175442E+02 -0.48089669836E+03  0.50440376822E+03  0.00000000000E+00 0.  1.
<mgrwt>
<rscale>  4 0.56683862E+03</rscale>
<asrwt>0</asrwt>
<pdfrwt beam="1">  1       21 0.20243049E-01 0.56683862E+03</pdfrwt>
<pdfrwt beam="2">  1       21 0.19297373E+00 0.56683862E+03</pdfrwt>
<totfact> 0.27527954E+03</totfact>
</mgrwt>
</event>
<event>
 5    0  0.2324070E+000  0.5016154E+03  0.7546771E-02  0.1013358E+00
         21   -1    0    0  503  501  0.00000000000E+00  0.00000000000E+00  0.78759763570E+03  0.78759763570E+03  0.00000000000E+00 0.  1.
         21   -1    0    0  504  502 -0.00000000000E+00 -0.00000000000E+00 -0.18928237636E+03  0.18928237636E+03  0.00000000000E+00 0.  1.
         25    1    1    2    0    0 -0.15009537595E+03 -0.13479497120E+03  0.53350910287E+03  0.58391375132E+03  0.12500000000E+03 0.  0.
         21    1    1    2  503  502  0.19947438473E+03  0.95260012581E+02  0.16405102199E+03  0.27527665715E+03  0.00000000000E+00 0. -1.
         21    1    1    2  504  501 -0.49379008777E+02  0.39534958619E+02 -0.99244865516E+02  0.11768960359E+03  0.00000000000E+00 0.  1.
<mgrwt>
<rscale>  4 0.50161542E+03</rscale>
<asrwt>0</asrwt>
<pdfrwt beam="1">  1       21 0.12116887E+00 0.50161542E+03</pdfrwt>
<pdfrwt beam="2">  1       21 0.29120366E-01 0.50161542E+03</pdfrwt>
<totfact> 0.50161302E+03</totfact>
</mgrwt>
</event>
<event>
 5    0  0.2324070E+000  0.5477286E+03  0.7546771E-02  0.1002021E+00
         21   -1    0    0  503  501  0.00000000000E+00  0.00000000000E+00  0.50053621305E+03  0.50053621305E+03  0.00000000000E+00 0.  1.
         21   -1    0    0  504  502 -0.00000000000E+00 -0.00000000000E+00 -0.21401807037E+03  0.21401807037E+03  0.00000000000E+00 0.  1.
         25    1    1    2    0    0  0.68062065121E+02  0.22565995382E+03  0.32377533032E+02  0.26875297973E+03  0.12500000000E+03 0.  0.
         21    1    1    2  503  502 -0.19590242443E+02 -0.18753968124E+02 -0.60396079574E+02  0.66205553749E+02  0.00000000000E+00 0.  1.
         21    1    1    2  504  501 -0.48471822678E+02 -0.20690598570E+03  0.31453668922E+03  0.37959574994E+03  0.00000000000E+00 0.  1.
<mgrwt>
<rscale>  4 0.54772858E+03</rscale>
<asrwt>0</asrwt>
<pdfrwt beam="1">  1       21 0.77005571E-01 0.54772858E+03</pdfrwt>
<pdfrwt beam="2">  1       21 0.32925857E-01 0.54772858E+03</pdfrwt>
<totfact> 0.11610890E+04</totfact>
</mgrwt>
</event>
<event>
 5    0  0.2324070E+000  0.4306435E+03  0.7546771E-02  0.1033657E+00
         21   -1    0    0  503  501  0.00000000000E+00  0.00000000000E+00  0.62854382393E+03  0.62854382393E+03  0.00000000000E+00 0.  1.
         21   -1    0    0  504  502 -0.00000000000E+00 -0.00000000000E+00 -0.17627456007E+03  0.17627456007E+03  0.00000000000E+00 0.  1.
         25    1    1    2    0    0 -0.20896845916E+03 -0.15813004336E+02  0.22982945864E+03  0.33520806686E+03  0.12500000000E+03 0.  0.
         21    1    1    2  503  502  0.59927169688E+02 -0.29057684847E+02 -0.95025928116E+02  0.11604112086E+03  0.00000000000E+00 0. -1.
         21    1    1    2  504  501  0.14904128948E+03  0.44870689183E+02  0.31746573334E+03  0.35356919628E+03  0.00000000000E+00 0.  1.
<mgrwt>
<rscale>  4 0.43064352E+03</rscale>
<asrwt>0</asrwt>
<pdfrwt beam="1">  1       21 0.96699049E-01 0.43064352E+03</pdfrwt>
<pdfrwt beam="2">  1       21 0.27119163E-01 0.43064352E+03</pdfrwt>
<totfact> 0.10317377E+04</totfact>
</mgrwt>
</event>
<event>
 5    0  0.2324070E+000  0.4386749E+03  0.7546771E-02  0.1031154E+00
         21   -1    0    0  503  501  0.00000000000E+00  0.00000000000E+00  0.68817410193E+02  0.68817410193E+02  0.00000000000E+00 0. -1.
         21   -1    0    0  504  502 -0.00000000000E+00 -0.00000000000E+00 -0.81332217814E+03  0.81332217814E+03  0.00000000000E+00 0. -1.
         25    1    1    2    0    0 -0.20261101571E+03 -0.28840095826E+02 -0.44482837081E+03  0.50535161451E+03  0.12500000000E+03 0.  0.
         21    1    1    2  503  502  0.18315448998E+03  0.54139924102E+02 -0.22223444118E+03  0.29302703874E+03  0.00000000000E+00 0. -1.
         21    1    1    2  504  501  0.19456525721E+02 -0.25299828276E+02 -0.77441955958E+02  0.83760935086E+02  0.00000000000E+00 0. -1.
<mgrwt>
<rscale>  4 0.43867491E+03</rscale>
<asrwt>0</asrwt>
<pdfrwt beam="1">  1       21 0.10587294E-01 0.43867491E+03</pdfrwt>
<pdfrwt beam="2">  1       21 0.12512649E+00 0.43867491E+03</pdfrwt>
<totfact> 0.31705168E+04</totfact>
</mgrwt>
</event>
<event>
 5    0  0.2324070E+000  0.1079790E+04  0.7546771E-02  0.9225117E-01
         21   -1    0    0  503  501  0.00000000000E+00  0.00000000000E+00  0.23278401063E+03  0.23278401063E+03  0.00000000000E+00 0.  1.
         21   -1    0    0  504  502 -0.00000000000E+00 -0.00000000000E+00 -0.14500624287E+04  0.14500624287E+04  0.00000000000E+00 0.  1.
         25    1    1    2    0    0  0.50240747303E+03 -0.12636382088E+03 -0.66664530269E+03  0.85347644595E+03  0.12500000000E+03 0.  0.
         21    1    1    2  503  502 -0.50178745422E+03  0.15334989522E+03 -0.35879464396E+03  0.63564175139E+03  0.00000000000E+00 0.  1.
         21    1    1    2  504  501 -0.62001881204E+00 -0.26986074342E+02 -0.19183847139E+03  0.19372824197E+03  0.00000000000E+00 0.  1.
<mgrwt>
<rscale>  4 0.10797898E+04</rscale>
<asrwt>0</asrwt>
<pdfrwt beam="1">  1       21 0.35812926E-01 0.10797898E+04</pdfrwt>
<pdfrwt beam="2">  1       21 0.22308652E+00 0.10797898E+04</pdfrwt>
<totfact> 0.49105890E+02</totfact>
</mgrwt>
</event>
<event>
 5    0  0.2324070E+000  0.5266168E+03  0.7546771E-02  0.1007056E+00
         21   -1    0    0  503  501  0.00000000000E+00  0.00000000000E+00  0.62792448210E+03  0.62792448210E+03  0.00000000000E+00 0. -1.
         21   -1    0    0  504  502 -0.00000000000E+00 -0.00000000000E+00 -0.23307221759E+03  0.23307221759E+03  0.00000000000E+00 0. -1.
         25    1    1    2    0    0  0.10678131743E+03  0.22141088197E+03  0.15733340795E+03  0.31749618842E+03  0.12500000000E+03 0.  0.
         21    1    1    2  503  502 -0.98524416535E+02 -0.19472185066E+03  0.35830214124E+03  0.41952840690E+03  0.00000000000E+00 0. -1.
         21    1    1    2  504  501 -0.82569008917E+01 -0.26689031311E+02 -0.12078328468E+03  0.12397210437E+03  0.00000000000E+00 0. -1.
<mgrwt>
<rscale>  4 0.52661678E+03</rscale>
<asrwt>0</asrwt>
<pdfrwt beam="1">  1       21 0.96603766E-01 0.52661678E+03</pdfrwt>
<pdfrwt beam="2">  1       21 0.35857264E-01 0.52661678E+03</pdfrwt>
<totfact> 0.57535465E+03</totfact>
</mgrwt>
</event>
<event>
 5    0  0.2324070E+000  0.5185531E+03  0.7546771E-02  0.1009047E+00
         21   -1    0    0  503  501  0.00000000000E+00  0.00000000000E+00  0.96750761263E+03  0.96750761263E+03  0.00000000000E+00 0. -1.
         21   -1    0    0  504  502 -0.00000000000E+00 -0.00000000000E+00 -0.77115075834E+02  0.77115075834E+02  0.00000000000E+00 0. -1.
         25    1    1    2    0    0 -0.25351385685E+02  0.23419959584E+03  0.47180482641E+03  0.54195658283E+03  0.12500000000E+03 0.  0.
         21    1    1    2  503  502  0.87797249510E+01 -0.25119692126E+03  0.40042532456E+03  0.47277628681E+03  0.00000000000E+00 0. -1.
         21    1    1    2  504  501  0.16571660734E+02  0.16997325413E+02  0.18162385837E+02  0.29889818835E+02  0.00000000000E+00 0. -1.
<mgrwt>
<rscale>  4 0.51855314E+03</rscale>
<asrwt>0</asrwt>
<pdfrwt beam="1">  1       21 0.14884732E+00 0.51855314E+03</pdfrwt>
<pdfrwt beam="2">  1       21 0.11863858E-01 0.51855314E+03</pdfrwt>
<totfact> 0.15962694E+04</totfact>
</mgrwt>
</event>
<event>
 5    0  0.2324070E+000  0.5089101E+03  0.7546771E-02  0.1011479E+00
         21   -1    0    0  503  501  0.00000000000E+00  0.00000000000E+00  0.94995696476E+02  0.94995696476E+02  0.00000000000E+00 0. -1.
         21   -1    0    0  504  502 -0.00000000000E+00 -0.00000000000E+00 -0.13607865759E+04  0.13607865759E+04  0.00000000000E+00 0.  1.
         25    1    1    2    0    0 -0.20697973129E+03 -0.68722846625E+02 -0.50130399077E+03  0.56079776210E+03  0.12500000000E+03 0.  0.
         21    1    1    2  503  502  0.12136246379E+02  0.27060598474E+02 -0.67654070481E+03  0.67719043831E+03  0.00000000000E+00 0.  1.
         21    1    1    2  504  501  0.19484348492E+03  0.41662248151E+02 -0.87946183852E+02  0.21779407198E+03  0.00000000000E+00 0. -1.
<mgrwt>
<rscale>  4 0.50891009E+03</rscale>
<asrwt>0</asrwt>
<pdfrwt beam="1">  1       21 0.14614722E-01 0.50891009E+03</pdfrwt>
<pdfrwt beam="2">  1       21 0.20935178E+00 0.50891009E+03</pdfrwt>
<totfact> 0.40265701E+03</totfact>
</mgrwt>
</event>
<event>
 5    0  0.2324070E+000  0.6162741E+03  0.7546771E-02  0.9872206E-01
         21   -1    0    0  503  501  0.00000000000E+00  0.00000000000E+00  0.24640240099E+03  0.24640240099E+03  0.00000000000E+00 0. -1.
         21   -1    0    0  504  502 -0.00000000000E+00 -0.00000000000E+00 -0.88263833129E+03  0.88263833129E+03  0.00000000000E+00 0. -1.
         25    1    1    2    0    0  0.16542886948E+03  0.14682235943E+03 -0.24534849756E+03  0.35319173453E+03  0.12500000000E+03 0.  0.
         21    1    1    2  503  502 -0.20490640930E+03 -0.15814455858E+03  0.10422760727E+03  0.27903356805E+03  0.00000000000E+00 0. -1.
         21    1    1    2  504  501  0.39477539820E+02  0.11322199154E+02 -0.49511504001E+03  0.49681542970E+03  0.00000000000E+00 0. -1.
<mgrwt>
<rscale>  4 0.61627407E+03</rscale>
<asrwt>0</asrwt>
<pdfrwt beam="1">  1       21 0.37908062E-01 0.61627407E+03</pdfrwt>
<pdfrwt beam="2">  1       21 0.13579051E+00 0.61627407E+03</pdfrwt>
<totfact> 0.21173864E+03</totfact>
</mgrwt>
</event>
<event>
 5    0  0.2324070E+000  0.6029251E+03  0.7546771E-02  0.9899356E-01
         21   -1    0    0  503  501  0.00000000000E+00  0.00000000000E+00  0.54629312740E+03  0.54629312740E+03  0.00000000000E+00 0. -1.
         21   -1    0    0  504  502 -0.00000000000E+00 -0.00000000000E+00 -0.20816104522E+03  0.20816104522E+03  0.00000000000E+00 0.  1.
         25    1    1    2    0    0 -0.59911611931E+02  0.22054420041E+03  0.40837692250E+03  0.48438193237E+03  0.12500000000E+03 0.  0.
         21    1    1    2  503  502  0.28460891043E+02 -0.21912410560E+03 -0.36565869754E+02  0.22396977208E+03  0.00000000000E+00 0.  1.
         21    1    1    2  504  501  0.31450720888E+02 -0.14200948049E+01 -0.33678970560E+02  0.46102468172E+02  0.00000000000E+00 0.  1.
<mgrwt>
<rscale>  4 0.60292510E+03</rscale>
<asrwt>0</asrwt>
<pdfrwt beam="1">  1       21 0.84045096E-01 0.60292510E+03</pdfrwt>
<pdfrwt beam="2">  1       21 0.32024776E-01 0.60292510E+03</pdfrwt>
<totfact> 0.98931824E+03</totfact>
</mgrwt>
</event>
<event>
 5    0  0.2324070E+000  0.5709767E+03  0.7546771E-02  0.9967520E-01
         21   -1    0    0  503  501  0.00000000000E+00  0.00000000000E+00  0.24114514515E+03  0.24114514515E+03  0.00000000000E+00 0.  1.
         21   -1    0    0  504  502 -0.00000000000E+00 -0.00000000000E+00 -0.59540763112E+03  0.59540763112E+03  0.00000000000E+00 0.  1.
         25    1    1    2    0    0 -0.28155117149E+03  0.48537893096E+02 -0.80993618550E+02  0.32219862737E+03  0.12500000000E+03 0.  0.
         21    1    1    2  503  502  0.26760736913E+02 -0.17369152827E+02 -0.25502938507E+03  0.25701714293E+03  0.00000000000E+00 0.  1.
         21    1    1    2  504  501  0.25479043458E+03 -0.31168740269E+02 -0.18239482357E+02  0.25733700597E+03  0.00000000000E+00 0.  1.
<mgrwt>
<rscale>  4 0.57097666E+03</rscale>
<asrwt>0</asrwt>
<pdfrwt beam="1">  1       21 0.37099253E-01 0.57097666E+03</pdfrwt>
<pdfrwt beam="2">  1       21 0.91601173E-01 0.57097666E+03</pdfrwt>
<totfact> 0.60280975E+03</totfact>
</mgrwt>
</event>
<event>
 5    0  0.2324070E+000  0.4961658E+03  0.7546771E-02  0.1014785E+00
         21   -1    0    0  503  501  0.00000000000E+00  0.00000000000E+00  0.13048473776E+03  0.13048473776E+03  0.00000000000E+00 0.  1.
         21   -1    0    0  504  502 -0.00000000000E+00 -0.00000000000E+00 -0.10515910332E+04  0.10515910332E+04  0.00000000000E+00 0.  1.
         25    1    1    2    0    0 -0.29483318305E+02 -0.23164940176E+03 -0.33391950435E+03  0.42621349905E+03  0.12500000000E+03 0.  0.
         21    1    1    2  503  502 -0.47996569268E+01  0.17972773776E+03 -0.15124994082E+02  0.18042688789E+03  0.00000000000E+00 0.  1.
         21    1    1    2  504  501  0.34282975232E+02  0.51921663997E+02 -0.57206179698E+03  0.57543538399E+03  0.00000000000E+00 0.  1.
<mgrwt>
<rscale>  4 0.49616580E+03</rscale>
<asrwt>0</asrwt>
<pdfrwt beam="1">  1       21 0.20074575E-01 0.49616580E+03</pdfrwt>
<pdfrwt beam="2">  1       21 0.16178324E+00 0.49616580E+03</pdfrwt>
<totfact> 0.47856621E+03</totfact>
</mgrwt>
</event>
