<event>
 5    0  0.2349231E+000  0.5551354E+03  0.7546771E-02  0.1000312E+00
         21   -1    0    0  503  501  0.00000000000E+00  0.00000000000E+00  0.18201280866E+03  0.18201280866E+03  0.00000000000E+00 0. -1.
         21   -1    0    0  504  502 -0.00000000000E+00 -0.00000000000E+00 -0.59985727530E+03  0.59985727530E+03  0.00000000000E+00 0. -1.
         25    1    1    2    0    0  0.14487727542E+03 -0.19080134455E+03 -0.11040925638E+03  0.29190714604E+03  0.12500000000E+03 0.  0.
         21    1    1    2  503  502 -0.17241600681E+02 -0.20005894887E+02  0.49567252309E+02  0.56164233510E+02  0.00000000000E+00 0. -1.
         21    1    1    2  504  501 -0.12763567474E+03  0.21080723944E+03 -0.35700246257E+03  0.43379870440E+03  0.00000000000E+00 0. -1.
<mgrwt>
<rscale>  4 0.55513536E+03</rscale>
<asrwt>0</asrwt>
<pdfrwt beam="1">  1       21 0.28001971E-01 0.55513536E+03</pdfrwt>
<pdfrwt beam="2">  1       21 0.92285734E-01 0.55513536E+03</pdfrwt>
<totfact> 0.10474227E+04</totfact>
</mgrwt>
</event>
<event>
 5    0  0.2349231E+000  0.4938025E+03  0.7546771E-02  0.1015409E+00
         21   -1    0    0  502  501  0.00000000000E+00  0.00000000000E+00  0.45310622212E+03  0.45310622212E+03  0.00000000000E+00 0.  1.
         21   -1    0    0  504  502 -0.00000000000E+00 -0.00000000000E+00 -0.10448093238E+04  0.10448093238E+04  0.00000000000E+00 0.  1.
         25    1    1    2    0    0  0.11527505468E+03  0.18239396432E+03 -0.81056637830E+03  0.84805586495E+03  0.12500000000E+03 0.  0.
         21    1    1    2  503  501 -0.12107296518E+02 -0.29352304761E+02  0.39408624521E+03  0.39536326724E+03  0.00000000000E+00 0.  1.
         21    1    1    2  504  503 -0.10316775817E+03 -0.15304165955E+03 -0.17522296860E+03  0.25449641375E+03  0.00000000000E+00 0. -1.
<mgrwt>
<rscale>  4 0.49380248E+03</rscale>
<asrwt>0</asrwt>
<pdfrwt beam="1">  1       21 0.69708650E-01 0.49380248E+03</pdfrwt>
<pdfrwt beam="2">  1       21 0.16073989E+00 0.49380248E+03</pdfrwt>
<totfact> 0.37657911E+02</totfact>
</mgrwt>
</event>
<event>
 5    0  0.3544312E+000  0.4041841E+03  0.7546771E-02  0.1042340E+00
         21   -1    0    0  502  501  0.00000000000E+00  0.00000000000E+00  0.69477021107E+02  0.69477021107E+02  0.00000000000E+00 0.  1.
         21   -1    0    0  503  502 -0.00000000000E+00 -0.00000000000E+00 -0.23974041324E+04  0.23974041324E+04  0.00000000000E+00 0.  1.
         25    1    1    2    0    0 -0.11121453646E+03 -0.18914417507E+03 -0.21669999755E+04  0.21816640635E+04  0.12500000000E+03 0.  0.
         21    1    1    2  503  504  0.49665067975E+02  0.21078121761E+02 -0.55926080727E+02  0.77708639799E+02  0.00000000000E+00 0. -1.
         21    1    1    2  504  501  0.61549468484E+02  0.16806605331E+03 -0.10500105505E+03  0.20750845021E+03  0.00000000000E+00 0.  1.
<mgrwt>
<rscale>  4 0.40418407E+03</rscale>
<asrwt>0</asrwt>
<pdfrwt beam="1">  1       21 0.10688772E-01 0.40418407E+03</pdfrwt>
<pdfrwt beam="2">  1       21 0.36883141E+00 0.40418407E+03</pdfrwt>
<totfact> 0.78926215E+02</totfact>
</mgrwt>
</event>
<event>
 5    0  0.2349231E+000  0.5589536E+03  0.7546771E-02  0.9994425E-01
         21   -1    0    0  503  501  0.00000000000E+00  0.00000000000E+00  0.48661850539E+03  0.48661850539E+03  0.00000000000E+00 0.  1.
         21   -1    0    0  504  502 -0.00000000000E+00 -0.00000000000E+00 -0.12370444557E+04  0.12370444557E+04  0.00000000000E+00 0.  1.
         25    1    1    2    0    0  0.41255966655E+02  0.25910787890E+03 -0.26387375694E+03  0.39254720391E+03  0.12500000000E+03 0.  0.
         21    1    1    2  503  502 -0.60941117659E+02  0.53157709318E+02 -0.84868962591E+03  0.85253366092E+03  0.00000000000E+00 0.  1.
         21    1    1    2  504  501  0.19685151004E+02 -0.31226558822E+03  0.36213743258E+03  0.47858209623E+03  0.00000000000E+00 0.  1.
<mgrwt>
<rscale>  4 0.55895356E+03</rscale>
<asrwt>0</asrwt>
<pdfrwt beam="1">  1       21 0.74864387E-01 0.55895356E+03</pdfrwt>
<pdfrwt beam="2">  1       21 0.19031453E+00 0.55895356E+03</pdfrwt>
<totfact> 0.19071314E+02</totfact>
</mgrwt>
</event>
<event>
 5    0  0.2349231E+000  0.4040640E+03  0.7546771E-02  0.1042381E+00
         21   -1    0    0  504  501  0.00000000000E+00  0.00000000000E+00  0.45054554722E+03  0.45054554722E+03  0.00000000000E+00 0.  1.
         21   -1    0    0  501  502 -0.00000000000E+00 -0.00000000000E+00 -0.21914527943E+03  0.21914527943E+03  0.00000000000E+00 0.  1.
         25    1    1    2    0    0 -0.24811638513E+02  0.21800413878E+03  0.12933333270E+03  0.28371382214E+03  0.12500000000E+03 0.  0.
         21    1    1    2  503  502  0.10978267604E+03 -0.31075331539E+02 -0.55762185061E+02  0.12699343869E+03  0.00000000000E+00 0.  1.
         21    1    1    2  504  503 -0.84971037522E+02 -0.18692880724E+03  0.15782912016E+03  0.25898356581E+03  0.00000000000E+00 0.  1.
<mgrwt>
<rscale>  4 0.40406403E+03</rscale>
<asrwt>0</asrwt>
<pdfrwt beam="1">  1       21 0.69314699E-01 0.40406403E+03</pdfrwt>
<pdfrwt beam="2">  1       21 0.33714659E-01 0.40406403E+03</pdfrwt>
<totfact> 0.14612708E+04</totfact>
</mgrwt>
</event>
