<event>
 4    0  0.1556320E-001  0.3009208E+03  0.7546771E-02  0.1084781E+00
          2   -1    0    0  502    0 -0.00000000000E+00  0.00000000000E+00  0.74186052490E+03  0.74186052490E+03  0.00000000000E+00 0. -1.
         21   -1    0    0  501  502  0.00000000000E+00 -0.00000000000E+00 -0.23293924141E+03  0.23293924141E+03  0.00000000000E+00 0. -1.
         25    1    1    2    0    0 -0.12313987614E+03 -0.24446857701E+03 -0.91833929797E+02  0.31462165358E+03  0.12500000000E+03 0.  0.
          2    1    1    2  501    0  0.12313987614E+03  0.24446857701E+03  0.60075521329E+03  0.66017811273E+03  0.00000000000E+00 0. -1.
<mgrwt>
<rscale>  3 0.30092078E+03</rscale>
<asrwt>0</asrwt>
<pdfrwt beam="1">  1       21 0.35836807E-01 0.30092078E+03</pdfrwt>
<pdfrwt beam="2">  1        2 0.11413239E+00 0.30092078E+03</pdfrwt>
<totfact> 0.35705030E+03</totfact>
</mgrwt>
</event>
<event>
 4    0  0.1002184E-001  0.5580723E+03  0.7546771E-02  0.9996426E-01
         21   -1    0    0  501  502  0.00000000000E+00  0.00000000000E+00  0.82762703952E+03  0.82762703952E+03  0.00000000000E+00 0.  1.
          2   -1    0    0  502    0 -0.00000000000E+00 -0.00000000000E+00 -0.22670020185E+04  0.22670020185E+04  0.00000000000E+00 0.  1.
         25    1    1    2    0    0  0.54328562226E+03 -0.25699708393E+02  0.69540868461E+03  0.89164902344E+03  0.12500000000E+03 0.  0.
          2    1    1    2  501    0 -0.54328562226E+03  0.25699708393E+02 -0.21347836636E+04  0.22029800345E+04  0.00000000000E+00 0.  1.
<mgrwt>
<rscale>  3 0.55807235E+03</rscale>
<asrwt>0</asrwt>
<pdfrwt beam="1">  1       21 0.12732724E+00 0.55807235E+03</pdfrwt>
<pdfrwt beam="2">  1        2 0.34876954E+00 0.55807235E+03</pdfrwt>
<totfact> 0.24952967E+01</totfact>
</mgrwt>
</event>
<event>
 4    0  0.1076630E-001  0.3244105E+03  0.7546771E-02  0.1073637E+00
          1   -1    0    0  502    0 -0.00000000000E+00  0.00000000000E+00  0.28149186218E+03  0.28149186218E+03  0.00000000000E+00 0. -1.
         21   -1    0    0  501  502  0.00000000000E+00 -0.00000000000E+00 -0.10050089177E+04  0.10050089177E+04  0.00000000000E+00 0.  1.
         25    1    1    2    0    0 -0.14004172308E+03  0.26458544708E+03 -0.88766603890E+03  0.94508895858E+03  0.12500000000E+03 0.  0.
          1    1    1    2  501    0  0.14004172308E+03 -0.26458544708E+03  0.16414898335E+03  0.34141182133E+03  0.00000000000E+00 0. -1.
<mgrwt>
<rscale>  3 0.32441045E+03</rscale>
<asrwt>0</asrwt>
<pdfrwt beam="1">  1       21 0.15461675E+00 0.32441045E+03</pdfrwt>
<pdfrwt beam="2">  1        1 0.43306441E-01 0.32441045E+03</pdfrwt>
<totfact> 0.26562793E+02</totfact>
</mgrwt>
</event>
<event>
 4    0  0.1769327E-001  0.3327250E+03  0.7546771E-02  0.1069937E+00
          1   -1    0    0  502    0 -0.00000000000E+00  0.00000000000E+00  0.96328282751E+03  0.96328282751E+03  0.00000000000E+00 0.  1.
         21   -1    0    0  501  502  0.00000000000E+00 -0.00000000000E+00 -0.32813143880E+03  0.32813143880E+03  0.00000000000E+00 0. -1.
         25    1    1    2    0    0  0.30812515687E+03  0.11823599299E+02 -0.20885538953E+03  0.39284409570E+03  0.12500000000E+03 0.  0.
          1    1    1    2  501    0 -0.30812515687E+03 -0.11823599299E+02  0.84400677824E+03  0.89857017061E+03  0.00000000000E+00 0.  1.
<mgrwt>
<rscale>  3 0.33272498E+03</rscale>
<asrwt>0</asrwt>
<pdfrwt beam="1">  1       21 0.50481760E-01 0.33272498E+03</pdfrwt>
<pdfrwt beam="2">  1        1 0.14819736E+00 0.33272498E+03</pdfrwt>
<totfact> 0.66911060E+02</totfact>
</mgrwt>
</event>
<event>
 4    0  0.1476887E-001  0.2664209E+03  0.7546771E-02  0.1103346E+00
          1   -1    0    0  502    0 -0.00000000000E+00  0.00000000000E+00  0.12580949964E+04  0.12580949964E+04  0.00000000000E+00 0.  1.
         21   -1    0    0  501  502  0.00000000000E+00 -0.00000000000E+00 -0.66242565645E+02  0.66242565645E+02  0.00000000000E+00 0.  1.
         25    1    1    2    0    0 -0.23512124639E+03  0.85484932923E+01  0.29660909012E+03  0.39869415544E+03  0.12500000000E+03 0.  0.
          1    1    1    2  501    0  0.23512124639E+03 -0.85484932923E+01  0.89524334064E+03  0.92564340661E+03  0.00000000000E+00 0.  1.
<mgrwt>
<rscale>  3 0.26642086E+03</rscale>
<asrwt>0</asrwt>
<pdfrwt beam="1">  1       21 0.10191165E-01 0.26642086E+03</pdfrwt>
<pdfrwt beam="2">  1        1 0.19355306E+00 0.26642086E+03</pdfrwt>
<totfact> 0.90551216E+03</totfact>
</mgrwt>
</event>
<event>
 4    0  0.1439860E-001  0.3240478E+03  0.7546771E-02  0.1073801E+00
          2   -1    0    0  502    0 -0.00000000000E+00  0.00000000000E+00  0.11739364410E+04  0.11739364410E+04  0.00000000000E+00 0.  1.
         21   -1    0    0  501  502  0.00000000000E+00 -0.00000000000E+00 -0.15067553393E+03  0.15067553393E+03  0.00000000000E+00 0. -1.
         25    1    1    2    0    0 -0.26826773527E+03 -0.13196350787E+03  0.78145026810E+02  0.33333705226E+03  0.12500000000E+03 0.  0.
          2    1    1    2  501    0  0.26826773527E+03  0.13196350787E+03  0.94511588022E+03  0.99127492264E+03  0.00000000000E+00 0.  1.
<mgrwt>
<rscale>  3 0.32404775E+03</rscale>
<asrwt>0</asrwt>
<pdfrwt beam="1">  1       21 0.23180852E-01 0.32404775E+03</pdfrwt>
<pdfrwt beam="2">  1        2 0.18060560E+00 0.32404775E+03</pdfrwt>
<totfact> 0.44185657E+03</totfact>
</mgrwt>
</event>
<event>
 4    0  0.1002184E-001  0.3591727E+03  0.7546771E-02  0.1058912E+00
         21   -1    0    0  501  502  0.00000000000E+00  0.00000000000E+00  0.77595340111E+02  0.77595340111E+02  0.00000000000E+00 0.  1.
         -4   -1    0    0    0  501 -0.00000000000E+00 -0.00000000000E+00 -0.30118365425E+04  0.30118365425E+04  0.00000000000E+00 0. -1.
         25    1    1    2    0    0  0.33092274733E+03  0.62210707791E+02 -0.41953017233E+03  0.55227764970E+03  0.12500000000E+03 0.  0.
         -4    1    1    2    0  502 -0.33092274733E+03 -0.62210707791E+02 -0.25147110300E+04  0.25371542329E+04  0.00000000000E+00 0. -1.
<mgrwt>
<rscale>  3 0.35917271E+03</rscale>
<asrwt>0</asrwt>
<pdfrwt beam="1">  1       21 0.11937743E-01 0.35917271E+03</pdfrwt>
<pdfrwt beam="2">  1       -4 0.46335953E+00 0.35917271E+03</pdfrwt>
<totfact> 0.72634067E+00</totfact>
</mgrwt>
</event>
<event>
 4    0  0.1295842E-001  0.3127446E+03  0.7546771E-02  0.1079038E+00
         21   -1    0    0  501  502  0.00000000000E+00  0.00000000000E+00  0.37217469029E+02  0.37217469029E+02  0.00000000000E+00 0.  1.
          1   -1    0    0  502    0 -0.00000000000E+00 -0.00000000000E+00 -0.25828116127E+04  0.25828116127E+04  0.00000000000E+00 0.  1.
         25    1    1    2    0    0 -0.28582585704E+03 -0.22085927489E+02 -0.98947420877E+03  0.10377227079E+04  0.12500000000E+03 0.  0.
          1    1    1    2  501    0  0.28582585704E+03  0.22085927489E+02 -0.15561199349E+04  0.15823063738E+04  0.00000000000E+00 0.  1.
<mgrwt>
<rscale>  3 0.31274464E+03</rscale>
<asrwt>0</asrwt>
<pdfrwt beam="1">  1       21 0.57257637E-02 0.31274464E+03</pdfrwt>
<pdfrwt beam="2">  1        1 0.39735569E+00 0.31274464E+03</pdfrwt>
<totfact> 0.32688276E+03</totfact>
</mgrwt>
</event>
<event>
 4    0  0.1025766E-001  0.3447043E+03  0.7546771E-02  0.1064810E+00
          1   -1    0    0  502    0 -0.00000000000E+00  0.00000000000E+00  0.11144677883E+04  0.11144677883E+04  0.00000000000E+00 0. -1.
         21   -1    0    0  501  502  0.00000000000E+00 -0.00000000000E+00 -0.12591185359E+03  0.12591185359E+03  0.00000000000E+00 0.  1.
         25    1    1    2    0    0  0.17990129381E+03 -0.26614202763E+03  0.22403948549E+03  0.41111402974E+03  0.12500000000E+03 0.  0.
          1    1    1    2  501    0 -0.17990129381E+03  0.26614202763E+03  0.76451644926E+03  0.82926561220E+03  0.00000000000E+00 0. -1.
<mgrwt>
<rscale>  3 0.34470430E+03</rscale>
<asrwt>0</asrwt>
<pdfrwt beam="1">  1       21 0.19371055E-01 0.34470430E+03</pdfrwt>
<pdfrwt beam="2">  1        1 0.17145658E+00 0.34470430E+03</pdfrwt>
<totfact> 0.34594610E+03</totfact>
</mgrwt>
</event>
<event>
 4    0  0.1002184E-001  0.2426370E+03  0.7546771E-02  0.1118049E+00
         -3   -1    0    0    0  501 -0.00000000000E+00  0.00000000000E+00  0.55797923314E+03  0.55797923314E+03  0.00000000000E+00 0.  1.
         21   -1    0    0  501  502  0.00000000000E+00 -0.00000000000E+00 -0.15465786466E+03  0.15465786466E+03  0.00000000000E+00 0. -1.
         25    1    1    2    0    0  0.75974188592E+02 -0.19358619419E+03 -0.17466738814E+02  0.24326483280E+03  0.12500000000E+03 0.  0.
         -3    1    1    2    0  502 -0.75974188592E+02  0.19358619419E+03  0.42078810729E+03  0.46937226500E+03  0.00000000000E+00 0.  1.
<mgrwt>
<rscale>  3 0.24263695E+03</rscale>
<asrwt>0</asrwt>
<pdfrwt beam="1">  1       21 0.23793518E-01 0.24263695E+03</pdfrwt>
<pdfrwt beam="2">  1       -3 0.85842958E-01 0.24263695E+03</pdfrwt>
<totfact> 0.10452679E+03</totfact>
</mgrwt>
</event>
<event>
 4    0  0.1400467E-001  0.2459015E+03  0.7546771E-02  0.1115923E+00
         21   -1    0    0  501  502  0.00000000000E+00  0.00000000000E+00  0.10783612432E+03  0.10783612432E+03  0.00000000000E+00 0.  1.
          1   -1    0    0  502    0 -0.00000000000E+00 -0.00000000000E+00 -0.65456411040E+03  0.65456411040E+03  0.00000000000E+00 0.  1.
         25    1    1    2    0    0  0.21173262233E+03 -0.34433929636E+01 -0.95208749082E+02  0.26368971579E+03  0.12500000000E+03 0.  0.
          1    1    1    2  501    0 -0.21173262233E+03  0.34433929636E+01 -0.45151923700E+03  0.49871051893E+03  0.00000000000E+00 0.  1.
<mgrwt>
<rscale>  3 0.24590153E+03</rscale>
<asrwt>0</asrwt>
<pdfrwt beam="1">  1       21 0.16590173E-01 0.24590153E+03</pdfrwt>
<pdfrwt beam="2">  1        1 0.10070217E+00 0.24590153E+03</pdfrwt>
<totfact> 0.11144108E+04</totfact>
</mgrwt>
</event>
<event>
 4    0  0.1422024E-001  0.3898240E+03  0.7546771E-02  0.1047361E+00
          1   -1    0    0  502    0 -0.00000000000E+00  0.00000000000E+00  0.88486104671E+03  0.88486104671E+03  0.00000000000E+00 0. -1.
         21   -1    0    0  501  502  0.00000000000E+00 -0.00000000000E+00 -0.23269247337E+03  0.23269247337E+03  0.00000000000E+00 0. -1.
         25    1    1    2    0    0  0.18140995390E+03  0.32160253036E+03  0.26081722004E+02  0.39069555299E+03  0.12500000000E+03 0.  0.
          1    1    1    2  501    0 -0.18140995390E+03 -0.32160253036E+03  0.62608685134E+03  0.72685796709E+03  0.00000000000E+00 0. -1.
<mgrwt>
<rscale>  3 0.38982401E+03</rscale>
<asrwt>0</asrwt>
<pdfrwt beam="1">  1       21 0.35798843E-01 0.38982401E+03</pdfrwt>
<pdfrwt beam="2">  1        1 0.13613247E+00 0.38982401E+03</pdfrwt>
<totfact> 0.15428841E+03</totfact>
</mgrwt>
</event>
<event>
 4    0  0.1209851E-001  0.3255332E+03  0.7546771E-02  0.1073131E+00
         21   -1    0    0  501  502  0.00000000000E+00  0.00000000000E+00  0.30205083671E+03  0.30205083671E+03  0.00000000000E+00 0. -1.
          1   -1    0    0  502    0 -0.00000000000E+00 -0.00000000000E+00 -0.29872998697E+04  0.29872998697E+04  0.00000000000E+00 0.  1.
         25    1    1    2    0    0 -0.74720726783E+02  0.29114198250E+03  0.20422093649E+03  0.38428899527E+03  0.12500000000E+03 0.  0.
          1    1    1    2  501    0  0.74720726783E+02 -0.29114198250E+03 -0.28894699695E+04  0.29050617111E+04  0.00000000000E+00 0.  1.
<mgrwt>
<rscale>  3 0.32553316E+03</rscale>
<asrwt>0</asrwt>
<pdfrwt beam="1">  1       21 0.46469360E-01 0.32553316E+03</pdfrwt>
<pdfrwt beam="2">  1        1 0.45958459E+00 0.32553316E+03</pdfrwt>
<totfact> 0.34033205E+01</totfact>
</mgrwt>
</event>
<event>
 4    0  0.1002184E-001  0.2854403E+03  0.7546771E-02  0.1092754E+00
         21   -1    0    0  501  502  0.00000000000E+00  0.00000000000E+00  0.75153375517E+03  0.75153375517E+03  0.00000000000E+00 0.  1.
         -1   -1    0    0    0  501 -0.00000000000E+00 -0.00000000000E+00 -0.12901101797E+03  0.12901101797E+03  0.00000000000E+00 0. -1.
         25    1    1    2    0    0 -0.20259675013E+03 -0.15749834609E+03  0.54032458545E+03  0.61108659765E+03  0.12500000000E+03 0.  0.
         -1    1    1    2    0  502  0.20259675013E+03  0.15749834609E+03  0.82198151741E+02  0.26945817549E+03  0.00000000000E+00 0. -1.
<mgrwt>
<rscale>  3 0.28544031E+03</rscale>
<asrwt>0</asrwt>
<pdfrwt beam="1">  1       21 0.11562058E+00 0.28544031E+03</pdfrwt>
<pdfrwt beam="2">  1       -1 0.19847849E-01 0.28544031E+03</pdfrwt>
<totfact> 0.10334329E+03</totfact>
</mgrwt>
</event>
<event>
 4    0  0.1366529E-001  0.2665839E+03  0.7546771E-02  0.1103251E+00
         21   -1    0    0  501  502  0.00000000000E+00  0.00000000000E+00  0.35221072122E+02  0.35221072122E+02  0.00000000000E+00 0.  1.
          2   -1    0    0  502    0 -0.00000000000E+00 -0.00000000000E+00 -0.25135330323E+04  0.25135330323E+04  0.00000000000E+00 0.  1.
         25    1    1    2    0    0  0.21975723657E+03  0.84550213928E+02 -0.61059048486E+03  0.66624899392E+03  0.12500000000E+03 0.  0.
          2    1    1    2  501    0 -0.21975723657E+03 -0.84550213928E+02 -0.18677214753E+04  0.18825051105E+04  0.00000000000E+00 0.  1.
<mgrwt>
<rscale>  3 0.26658391E+03</rscale>
<asrwt>0</asrwt>
<pdfrwt beam="1">  1       21 0.54186257E-02 0.26658391E+03</pdfrwt>
<pdfrwt beam="2">  1        2 0.38669745E+00 0.26658391E+03</pdfrwt>
<totfact> 0.11744776E+04</totfact>
</mgrwt>
</event>
<event>
 4    0  0.1268010E-001  0.2362200E+03  0.7546771E-02  0.1122337E+00
          2   -1    0    0  502    0 -0.00000000000E+00  0.00000000000E+00  0.40928312081E+03  0.40928312081E+03  0.00000000000E+00 0. -1.
         21   -1    0    0  501  502  0.00000000000E+00 -0.00000000000E+00 -0.17431802054E+03  0.17431802054E+03  0.00000000000E+00 0. -1.
         25    1    1    2    0    0  0.82363112935E+02 -0.18273261215E+03 -0.43811148050E+02  0.24024842686E+03  0.12500000000E+03 0.  0.
          2    1    1    2  501    0 -0.82363112935E+02  0.18273261215E+03  0.27877624832E+03  0.34335271449E+03  0.00000000000E+00 0. -1.
<mgrwt>
<rscale>  3 0.23622000E+03</rscale>
<asrwt>0</asrwt>
<pdfrwt beam="1">  1       21 0.26818157E-01 0.23622000E+03</pdfrwt>
<pdfrwt beam="2">  1        2 0.62966634E-01 0.23622000E+03</pdfrwt>
<totfact> 0.12746201E+04</totfact>
</mgrwt>
</event>
<event>
 4    0  0.1442801E-001  0.3614695E+03  0.7546771E-02  0.1058004E+00
         21   -1    0    0  501  502  0.00000000000E+00  0.00000000000E+00  0.17015798159E+03  0.17015798159E+03  0.00000000000E+00 0. -1.
          2   -1    0    0  502    0 -0.00000000000E+00 -0.00000000000E+00 -0.19578806820E+04  0.19578806820E+04  0.00000000000E+00 0. -1.
         25    1    1    2    0    0  0.27598052587E+03 -0.19715470100E+03 -0.58871484134E+02  0.36623227388E+03  0.12500000000E+03 0.  0.
          2    1    1    2  501    0 -0.27598052587E+03  0.19715470100E+03 -0.17288512163E+04  0.17618063897E+04  0.00000000000E+00 0. -1.
<mgrwt>
<rscale>  3 0.36146954E+03</rscale>
<asrwt>0</asrwt>
<pdfrwt beam="1">  1       21 0.26178150E-01 0.36146954E+03</pdfrwt>
<pdfrwt beam="2">  1        2 0.30121242E+00 0.36146954E+03</pdfrwt>
<totfact> 0.12953159E+03</totfact>
</mgrwt>
</event>
<event>
 4    0  0.1690073E-001  0.2382865E+03  0.7546771E-02  0.1120940E+00
         21   -1    0    0  501  502  0.00000000000E+00  0.00000000000E+00  0.80239476074E+02  0.80239476074E+02  0.00000000000E+00 0. -1.
          2   -1    0    0  502    0 -0.00000000000E+00 -0.00000000000E+00 -0.60974783535E+03  0.60974783535E+03  0.00000000000E+00 0. -1.
         25    1    1    2    0    0 -0.19511184410E+03  0.55559101390E+02 -0.31151017121E+03  0.39219769533E+03  0.12500000000E+03 0.  0.
          2    1    1    2  501    0  0.19511184410E+03 -0.55559101390E+02 -0.21799818807E+03  0.29778961610E+03  0.00000000000E+00 0. -1.
<mgrwt>
<rscale>  3 0.23828648E+03</rscale>
<asrwt>0</asrwt>
<pdfrwt beam="1">  1       21 0.12344535E-01 0.23828648E+03</pdfrwt>
<pdfrwt beam="2">  1        2 0.93807360E-01 0.23828648E+03</pdfrwt>
<totfact> 0.34551119E+04</totfact>
</mgrwt>
</event>
<event>
 4    0  0.1002184E-001  0.6624738E+03  0.7546771E-02  0.9783651E-01
          2   -1    0    0  502    0 -0.00000000000E+00  0.00000000000E+00  0.26330536270E+04  0.26330536270E+04  0.00000000000E+00 0. -1.
         21   -1    0    0  501  502  0.00000000000E+00 -0.00000000000E+00 -0.18048168310E+03  0.18048168310E+03  0.00000000000E+00 0. -1.
         25    1    1    2    0    0 -0.64405143196E+03 -0.91892661690E+02  0.80737993318E+03  0.10443820492E+04  0.12500000000E+03 0.  0.
          2    1    1    2  501    0  0.64405143196E+03  0.91892661690E+02  0.16451920107E+04  0.17691532608E+04  0.00000000000E+00 0. -1.
<mgrwt>
<rscale>  3 0.66247378E+03</rscale>
<asrwt>0</asrwt>
<pdfrwt beam="1">  1       21 0.27766415E-01 0.66247378E+03</pdfrwt>
<pdfrwt beam="2">  1        2 0.40508514E+00 0.66247378E+03</pdfrwt>
<totfact> 0.45070402E+02</totfact>
</mgrwt>
</event>
<event>
 4    0  0.1002184E-001  0.3984519E+03  0.7546771E-02  0.1044317E+00
         21   -1    0    0  501  502  0.00000000000E+00  0.00000000000E+00  0.58402778576E+03  0.58402778576E+03  0.00000000000E+00 0.  1.
         -2   -1    0    0    0  501 -0.00000000000E+00 -0.00000000000E+00 -0.29289027494E+03  0.29289027494E+03  0.00000000000E+00 0. -1.
         25    1    1    2    0    0 -0.27777385648E+03  0.25686684222E+03  0.29954313284E+03  0.49848769133E+03  0.12500000000E+03 0.  0.
         -2    1    1    2    0  502  0.27777385648E+03 -0.25686684222E+03 -0.84056220276E+01  0.37843036936E+03  0.00000000000E+00 0. -1.
<mgrwt>
<rscale>  3 0.39845187E+03</rscale>
<asrwt>0</asrwt>
<pdfrwt beam="1">  1       21 0.89850428E-01 0.39845187E+03</pdfrwt>
<pdfrwt beam="2">  1       -2 0.45060042E-01 0.39845187E+03</pdfrwt>
<totfact> 0.37528506E+02</totfact>
</mgrwt>
</event>
<event>
 4    0  0.1308837E-001  0.2435790E+03  0.7546771E-02  0.1117431E+00
          2   -1    0    0  502    0 -0.00000000000E+00  0.00000000000E+00  0.11397907714E+04  0.11397907714E+04  0.00000000000E+00 0.  1.
         21   -1    0    0  501  502  0.00000000000E+00 -0.00000000000E+00 -0.17159897337E+03  0.17159897337E+03  0.00000000000E+00 0.  1.
         25    1    1    2    0    0  0.70627802776E+02 -0.19676751590E+03 -0.69139629916E+02  0.25320156055E+03  0.12500000000E+03 0.  0.
          2    1    1    2  501    0 -0.70627802776E+02  0.19676751590E+03  0.10373314279E+04  0.10581881842E+04  0.00000000000E+00 0.  1.
<mgrwt>
<rscale>  3 0.24357903E+03</rscale>
<asrwt>0</asrwt>
<pdfrwt beam="1">  1       21 0.26399843E-01 0.24357903E+03</pdfrwt>
<pdfrwt beam="2">  1        2 0.17535242E+00 0.24357903E+03</pdfrwt>
<totfact> 0.36918696E+03</totfact>
</mgrwt>
</event>
<event>
 4    0  0.1396485E-001  0.4825696E+03  0.7546771E-02  0.1018431E+00
          1   -1    0    0  502    0 -0.00000000000E+00  0.00000000000E+00  0.93260145153E+03  0.93260145153E+03  0.00000000000E+00 0.  1.
         21   -1    0    0  501  502  0.00000000000E+00 -0.00000000000E+00 -0.25507384880E+03  0.25507384880E+03  0.00000000000E+00 0.  1.
         25    1    1    2    0    0 -0.44065689795E+03 -0.15188788557E+03  0.20611753765E+03  0.52474552958E+03  0.12500000000E+03 0.  0.
          1    1    1    2  501    0  0.44065689795E+03  0.15188788557E+03  0.47141006508E+03  0.66292977075E+03  0.00000000000E+00 0.  1.
<mgrwt>
<rscale>  3 0.48256961E+03</rscale>
<asrwt>0</asrwt>
<pdfrwt beam="1">  1       21 0.39242131E-01 0.48256961E+03</pdfrwt>
<pdfrwt beam="2">  1        1 0.14347714E+00 0.48256961E+03</pdfrwt>
<totfact> 0.11467826E+03</totfact>
</mgrwt>
</event>
<event>
 4    0  0.1354544E-001  0.2567437E+03  0.7546771E-02  0.1109116E+00
          2   -1    0    0  502    0 -0.00000000000E+00  0.00000000000E+00  0.12035225016E+04  0.12035225016E+04  0.00000000000E+00 0.  1.
         21   -1    0    0  501  502  0.00000000000E+00 -0.00000000000E+00 -0.10351946433E+03  0.10351946433E+03  0.00000000000E+00 0. -1.
         25    1    1    2    0    0  0.19272943946E+03 -0.11466333797E+03  0.89411965600E+02  0.27186727920E+03  0.12500000000E+03 0.  0.
          2    1    1    2  501    0 -0.19272943946E+03  0.11466333797E+03  0.10105910716E+04  0.10351746867E+04  0.00000000000E+00 0.  1.
<mgrwt>
<rscale>  3 0.25674368E+03</rscale>
<asrwt>0</asrwt>
<pdfrwt beam="1">  1       21 0.15926072E-01 0.25674368E+03</pdfrwt>
<pdfrwt beam="2">  1        2 0.18515730E+00 0.25674368E+03</pdfrwt>
<totfact> 0.87598785E+03</totfact>
</mgrwt>
</event>
<event>
 4    0  0.1119446E-001  0.3182433E+03  0.7546771E-02  0.1076461E+00
          2   -1    0    0  502    0 -0.00000000000E+00  0.00000000000E+00  0.24865426570E+03  0.24865426570E+03  0.00000000000E+00 0.  1.
         21   -1    0    0  501  502  0.00000000000E+00 -0.00000000000E+00 -0.37788869363E+03  0.37788869363E+03  0.00000000000E+00 0.  1.
         25    1    1    2    0    0  0.28616448947E+03 -0.61348848591E+02 -0.93553154648E+02  0.33170919342E+03  0.12500000000E+03 0.  0.
          2    1    1    2  501    0 -0.28616448947E+03  0.61348848591E+02 -0.35681273282E+02  0.29483376591E+03  0.00000000000E+00 0.  1.
<mgrwt>
<rscale>  3 0.31824330E+03</rscale>
<asrwt>0</asrwt>
<pdfrwt beam="1">  1       21 0.58136722E-01 0.31824330E+03</pdfrwt>
<pdfrwt beam="2">  1        2 0.38254503E-01 0.31824330E+03</pdfrwt>
<totfact> 0.44524365E+03</totfact>
</mgrwt>
</event>
<event>
 4    0  0.1497248E-001  0.2611708E+03  0.7546771E-02  0.1106442E+00
          1   -1    0    0  502    0 -0.00000000000E+00  0.00000000000E+00  0.46515624799E+03  0.46515624799E+03  0.00000000000E+00 0.  1.
         21   -1    0    0  501  502  0.00000000000E+00 -0.00000000000E+00 -0.13880021378E+03  0.13880021378E+03  0.00000000000E+00 0.  1.
         25    1    1    2    0    0 -0.55390804828E+02  0.22252427149E+03  0.25190531015E+03  0.36285875757E+03  0.12500000000E+03 0.  0.
          1    1    1    2  501    0  0.55390804828E+02 -0.22252427149E+03  0.74450724058E+02  0.24109770421E+03  0.00000000000E+00 0.  1.
<mgrwt>
<rscale>  3 0.26117081E+03</rscale>
<asrwt>0</asrwt>
<pdfrwt beam="1">  1       21 0.21353879E-01 0.26117081E+03</pdfrwt>
<pdfrwt beam="2">  1        1 0.71562499E-01 0.26117081E+03</pdfrwt>
<totfact> 0.11049600E+04</totfact>
</mgrwt>
</event>
<event>
 4    0  0.1342411E-001  0.3278179E+03  0.7546771E-02  0.1072106E+00
         21   -1    0    0  501  502  0.00000000000E+00  0.00000000000E+00  0.51905876563E+03  0.51905876563E+03  0.00000000000E+00 0.  1.
          2   -1    0    0  502    0 -0.00000000000E+00 -0.00000000000E+00 -0.37003946125E+03  0.37003946125E+03  0.00000000000E+00 0.  1.
         25    1    1    2    0    0  0.16400698942E+03 -0.25483580983E+03  0.38452654113E+03  0.50529718323E+03  0.12500000000E+03 0.  0.
          2    1    1    2  501    0 -0.16400698942E+03  0.25483580983E+03 -0.23550723675E+03  0.38380104365E+03  0.00000000000E+00 0.  1.
<mgrwt>
<rscale>  3 0.32781791E+03</rscale>
<asrwt>0</asrwt>
<pdfrwt beam="1">  1       21 0.79855195E-01 0.32781791E+03</pdfrwt>
<pdfrwt beam="2">  1        2 0.56929148E-01 0.32781791E+03</pdfrwt>
<totfact> 0.14214129E+03</totfact>
</mgrwt>
</event>
<event>
 4    0  0.1552617E-001  0.3097865E+03  0.7546771E-02  0.1080448E+00
          1   -1    0    0  502    0 -0.00000000000E+00  0.00000000000E+00  0.14706460055E+04  0.14706460055E+04  0.00000000000E+00 0.  1.
         21   -1    0    0  501  502  0.00000000000E+00 -0.00000000000E+00 -0.30440412144E+03  0.30440412144E+03  0.00000000000E+00 0.  1.
         25    1    1    2    0    0  0.27890390514E+03  0.50549823518E+02 -0.20718196383E+03  0.37268222267E+03  0.12500000000E+03 0.  0.
          1    1    1    2  501    0 -0.27890390514E+03 -0.50549823518E+02  0.13734238479E+04  0.14023679043E+04  0.00000000000E+00 0.  1.
<mgrwt>
<rscale>  3 0.30978650E+03</rscale>
<asrwt>0</asrwt>
<pdfrwt beam="1">  1       21 0.46831404E-01 0.30978650E+03</pdfrwt>
<pdfrwt beam="2">  1        1 0.22625323E+00 0.30978650E+03</pdfrwt>
<totfact> 0.34604584E+02</totfact>
</mgrwt>
</event>
<event>
 4    0  0.1237707E-001  0.2440397E+03  0.7546771E-02  0.1117131E+00
          2   -1    0    0  502    0 -0.00000000000E+00  0.00000000000E+00  0.19851850864E+04  0.19851850864E+04  0.00000000000E+00 0. -1.
         21   -1    0    0  501  502  0.00000000000E+00 -0.00000000000E+00 -0.11933669836E+03  0.11933669836E+03  0.00000000000E+00 0. -1.
         25    1    1    2    0    0  0.16245065706E+03 -0.13243930283E+03  0.17867616018E+02  0.24469294353E+03  0.12500000000E+03 0.  0.
          2    1    1    2  501    0 -0.16245065706E+03  0.13243930283E+03  0.18479807720E+04  0.18598288412E+04  0.00000000000E+00 0. -1.
<mgrwt>
<rscale>  3 0.24403972E+03</rscale>
<asrwt>0</asrwt>
<pdfrwt beam="1">  1       21 0.18359494E-01 0.24403972E+03</pdfrwt>
<pdfrwt beam="2">  1        2 0.30541307E+00 0.24403972E+03</pdfrwt>
<totfact> 0.25829368E+03</totfact>
</mgrwt>
</event>
<event>
 4    0  0.1444587E-001  0.3376954E+03  0.7546771E-02  0.1067782E+00
         21   -1    0    0  501  502  0.00000000000E+00  0.00000000000E+00  0.50158283196E+03  0.50158283196E+03  0.00000000000E+00 0.  1.
         -4   -1    0    0    0  501 -0.00000000000E+00 -0.00000000000E+00 -0.21524422560E+03  0.21524422560E+03  0.00000000000E+00 0.  1.
         25    1    1    2    0    0  0.73968623523E+02 -0.30486356661E+03  0.19562658145E+03  0.39026646139E+03  0.12500000000E+03 0.  0.
         -4    1    1    2    0  502 -0.73968623523E+02  0.30486356661E+03  0.90712024908E+02  0.32656059618E+03  0.00000000000E+00 0.  1.
<mgrwt>
<rscale>  3 0.33769535E+03</rscale>
<asrwt>0</asrwt>
<pdfrwt beam="1">  1       21 0.77166589E-01 0.33769535E+03</pdfrwt>
<pdfrwt beam="2">  1       -4 0.33114496E-01 0.33769535E+03</pdfrwt>
<totfact> 0.54462068E+02</totfact>
</mgrwt>
</event>
<event>
 4    0  0.1124812E-001  0.2444741E+03  0.7546771E-02  0.1116848E+00
          2   -1    0    0  502    0 -0.00000000000E+00  0.00000000000E+00  0.42605502911E+03  0.42605502911E+03  0.00000000000E+00 0. -1.
         21   -1    0    0  501  502  0.00000000000E+00 -0.00000000000E+00 -0.27883282854E+03  0.27883282854E+03  0.00000000000E+00 0.  1.
         25    1    1    2    0    0  0.15444312728E+03 -0.14244260032E+03 -0.18859307847E+03  0.30876353930E+03  0.12500000000E+03 0.  0.
          2    1    1    2  501    0 -0.15444312728E+03  0.14244260032E+03  0.33581527904E+03  0.39612431835E+03  0.00000000000E+00 0. -1.
<mgrwt>
<rscale>  3 0.24447408E+03</rscale>
<asrwt>0</asrwt>
<pdfrwt beam="1">  1       21 0.42897358E-01 0.24447408E+03</pdfrwt>
<pdfrwt beam="2">  1        2 0.65546928E-01 0.24447408E+03</pdfrwt>
<totfact> 0.47819333E+03</totfact>
</mgrwt>
</event>
<event>
 4    0  0.1182779E-001  0.2932538E+03  0.7546771E-02  0.1088662E+00
          1   -1    0    0  502    0 -0.00000000000E+00  0.00000000000E+00  0.20002613773E+03  0.20002613773E+03  0.00000000000E+00 0. -1.
         21   -1    0    0  501  502  0.00000000000E+00 -0.00000000000E+00 -0.40668402018E+03  0.40668402018E+03  0.00000000000E+00 0. -1.
         25    1    1    2    0    0 -0.23470423102E+03 -0.12363943406E+03 -0.16984863388E+03  0.33888987023E+03  0.12500000000E+03 0.  0.
          1    1    1    2  501    0  0.23470423102E+03  0.12363943406E+03 -0.36809248563E+02  0.26782028768E+03  0.00000000000E+00 0. -1.
<mgrwt>
<rscale>  3 0.29325379E+03</rscale>
<asrwt>0</asrwt>
<pdfrwt beam="1">  1       21 0.62566772E-01 0.29325379E+03</pdfrwt>
<pdfrwt beam="2">  1        1 0.30773252E-01 0.29325379E+03</pdfrwt>
<totfact> 0.36625810E+03</totfact>
</mgrwt>
</event>
<event>
 4    0  0.1406801E-001  0.2572849E+03  0.7546771E-02  0.1108786E+00
         21   -1    0    0  501  502  0.00000000000E+00  0.00000000000E+00  0.15046024452E+03  0.15046024452E+03  0.00000000000E+00 0.  1.
          1   -1    0    0  502    0 -0.00000000000E+00 -0.00000000000E+00 -0.78148853230E+03  0.78148853230E+03  0.00000000000E+00 0.  1.
         25    1    1    2    0    0 -0.19668548512E+03 -0.10901978793E+03  0.50026103903E+01  0.25733348078E+03  0.12500000000E+03 0.  0.
          1    1    1    2  501    0  0.19668548512E+03  0.10901978793E+03 -0.63603089817E+03  0.67461529604E+03  0.00000000000E+00 0.  1.
<mgrwt>
<rscale>  3 0.25728485E+03</rscale>
<asrwt>0</asrwt>
<pdfrwt beam="1">  1       21 0.23147730E-01 0.25728485E+03</pdfrwt>
<pdfrwt beam="2">  1        1 0.12022901E+00 0.25728485E+03</pdfrwt>
<totfact> 0.45811319E+03</totfact>
</mgrwt>
</event>
<event>
 4    0  0.1111871E-001  0.2763865E+03  0.7546771E-02  0.1097679E+00
          2   -1    0    0  502    0 -0.00000000000E+00  0.00000000000E+00  0.12739136993E+03  0.12739136993E+03  0.00000000000E+00 0.  1.
         21   -1    0    0  501  502  0.00000000000E+00 -0.00000000000E+00 -0.57276360711E+03  0.57276360711E+03  0.00000000000E+00 0.  1.
         25    1    1    2    0    0 -0.61481285680E+02 -0.23871438299E+03 -0.32248091656E+03  0.42471572455E+03  0.12500000000E+03 0.  0.
          2    1    1    2  501    0  0.61481285680E+02  0.23871438299E+03 -0.12289132062E+03  0.27543925250E+03  0.00000000000E+00 0.  1.
<mgrwt>
<rscale>  3 0.27638651E+03</rscale>
<asrwt>0</asrwt>
<pdfrwt beam="1">  1       21 0.88117476E-01 0.27638651E+03</pdfrwt>
<pdfrwt beam="2">  1        2 0.19598673E-01 0.27638651E+03</pdfrwt>
<totfact> 0.37412893E+03</totfact>
</mgrwt>
</event>
<event>
 4    0  0.1339216E-001  0.3308470E+03  0.7546771E-02  0.1070763E+00
          2   -1    0    0  502    0 -0.00000000000E+00  0.00000000000E+00  0.55675473766E+03  0.55675473766E+03  0.00000000000E+00 0. -1.
         21   -1    0    0  501  502  0.00000000000E+00 -0.00000000000E+00 -0.19181873660E+03  0.19181873660E+03  0.00000000000E+00 0. -1.
         25    1    1    2    0    0 -0.30357519848E+03 -0.40948789117E+02  0.10582710787E+03  0.34736016067E+03  0.12500000000E+03 0.  0.
          2    1    1    2  501    0  0.30357519848E+03  0.40948789117E+02  0.25910889320E+03  0.40121331358E+03  0.00000000000E+00 0. -1.
<mgrwt>
<rscale>  3 0.33084695E+03</rscale>
<asrwt>0</asrwt>
<pdfrwt beam="1">  1       21 0.29510575E-01 0.33084695E+03</pdfrwt>
<pdfrwt beam="2">  1        2 0.85654575E-01 0.33084695E+03</pdfrwt>
<totfact> 0.73631340E+03</totfact>
</mgrwt>
</event>
<event>
 4    0  0.1002184E-001  0.3162171E+03  0.7546771E-02  0.1077404E+00
         21   -1    0    0  501  502  0.00000000000E+00  0.00000000000E+00  0.15318024368E+03  0.15318024368E+03  0.00000000000E+00 0.  1.
          1   -1    0    0  502    0 -0.00000000000E+00 -0.00000000000E+00 -0.60753413480E+03  0.60753413480E+03  0.00000000000E+00 0. -1.
         25    1    1    2    0    0 -0.28877729621E+03  0.31239838767E+02 -0.27702639374E+03  0.42040085295E+03  0.12500000000E+03 0.  0.
          1    1    1    2  501    0  0.28877729621E+03 -0.31239838767E+02 -0.17732749738E+03  0.34031352553E+03  0.00000000000E+00 0. -1.
<mgrwt>
<rscale>  3 0.31621710E+03</rscale>
<asrwt>0</asrwt>
<pdfrwt beam="1">  1       21 0.23566191E-01 0.31621710E+03</pdfrwt>
<pdfrwt beam="2">  1        1 0.93466792E-01 0.31621710E+03</pdfrwt>
<totfact> 0.63075848E+03</totfact>
</mgrwt>
</event>
<event>
 4    0  0.1002184E-001  0.2466942E+03  0.7546771E-02  0.1115412E+00
         21   -1    0    0  501  502  0.00000000000E+00  0.00000000000E+00  0.20726710176E+02  0.20726710176E+02  0.00000000000E+00 0. -1.
          2   -1    0    0  502    0 -0.00000000000E+00 -0.00000000000E+00 -0.26394966053E+04  0.26394966053E+04  0.00000000000E+00 0.  1.
         25    1    1    2    0    0  0.84256330876E+02  0.19527908245E+03 -0.11523096830E+04  0.11784208310E+04  0.12500000000E+03 0.  0.
          2    1    1    2  501    0 -0.84256330876E+02 -0.19527908245E+03 -0.14664602121E+04  0.14818024845E+04  0.00000000000E+00 0.  1.
<mgrwt>
<rscale>  3 0.24669424E+03</rscale>
<asrwt>0</asrwt>
<pdfrwt beam="1">  1       21 0.31887263E-02 0.24669424E+03</pdfrwt>
<pdfrwt beam="2">  1        2 0.40607620E+00 0.24669424E+03</pdfrwt>
<totfact> 0.24684666E+04</totfact>
</mgrwt>
</event>
<event>
 4    0  0.1474583E-001  0.2426724E+03  0.7546771E-02  0.1118025E+00
         21   -1    0    0  501  502  0.00000000000E+00  0.00000000000E+00  0.22845609372E+03  0.22845609372E+03  0.00000000000E+00 0. -1.
          2   -1    0    0  502    0 -0.00000000000E+00 -0.00000000000E+00 -0.20095600531E+04  0.20095600531E+04  0.00000000000E+00 0.  1.
         25    1    1    2    0    0  0.11116934171E+03 -0.17580183615E+03  0.15683835450E+03  0.28894320821E+03  0.12500000000E+03 0.  0.
          2    1    1    2  501    0 -0.11116934171E+03  0.17580183615E+03 -0.19379423139E+04  0.19490729386E+04  0.00000000000E+00 0.  1.
<mgrwt>
<rscale>  3 0.24267243E+03</rscale>
<asrwt>0</asrwt>
<pdfrwt beam="1">  1       21 0.35147090E-01 0.24267243E+03</pdfrwt>
<pdfrwt beam="2">  1        2 0.30916310E+00 0.24267243E+03</pdfrwt>
<totfact> 0.71866373E+02</totfact>
</mgrwt>
</event>
<event>
 4    0  0.1002184E-001  0.2664222E+03  0.7546771E-02  0.1103345E+00
         21   -1    0    0  501  502  0.00000000000E+00  0.00000000000E+00  0.35268263784E+02  0.35268263784E+02  0.00000000000E+00 0.  1.
          1   -1    0    0  502    0 -0.00000000000E+00 -0.00000000000E+00 -0.21736842805E+04  0.21736842805E+04  0.00000000000E+00 0. -1.
         25    1    1    2    0    0  0.64381603756E+02 -0.22629806123E+03 -0.65690845783E+03  0.70887906259E+03  0.12500000000E+03 0.  0.
          1    1    1    2  501    0 -0.64381603756E+02  0.22629806123E+03 -0.14815075589E+04  0.15000734817E+04  0.00000000000E+00 0. -1.
<mgrwt>
<rscale>  3 0.26642223E+03</rscale>
<asrwt>0</asrwt>
<pdfrwt beam="1">  1       21 0.54258879E-02 0.26642223E+03</pdfrwt>
<pdfrwt beam="2">  1        1 0.33441290E+00 0.26642223E+03</pdfrwt>
<totfact> 0.67916654E+03</totfact>
</mgrwt>
</event>
<event>
 4    0  0.1002184E-001  0.5569992E+03  0.7546771E-02  0.9998868E-01
          2   -1    0    0  502    0 -0.00000000000E+00  0.00000000000E+00  0.34432921985E+04  0.34432921985E+04  0.00000000000E+00 0.  1.
         21   -1    0    0  501  502  0.00000000000E+00 -0.00000000000E+00 -0.21946321495E+03  0.21946321495E+03  0.00000000000E+00 0. -1.
         25    1    1    2    0    0 -0.13611485748E+02 -0.54262122114E+03  0.20189456758E+03  0.59246052915E+03  0.12500000000E+03 0.  0.
          2    1    1    2  501    0  0.13611485748E+02  0.54262122114E+03  0.30219344159E+04  0.30702948843E+04  0.00000000000E+00 0.  1.
<mgrwt>
<rscale>  3 0.55699916E+03</rscale>
<asrwt>0</asrwt>
<pdfrwt beam="1">  1       21 0.33763574E-01 0.55699916E+03</pdfrwt>
<pdfrwt beam="2">  1        2 0.52973722E+00 0.55699916E+03</pdfrwt>
<totfact> 0.99645745E+01</totfact>
</mgrwt>
</event>
<event>
 4    0  0.1002184E-001  0.3605301E+03  0.7546771E-02  0.1058374E+00
         21   -1    0    0  501  502  0.00000000000E+00  0.00000000000E+00  0.53879627813E+03  0.53879627813E+03  0.00000000000E+00 0. -1.
          2   -1    0    0  502    0 -0.00000000000E+00 -0.00000000000E+00 -0.29089314750E+03  0.29089314750E+03  0.00000000000E+00 0.  1.
         25    1    1    2    0    0 -0.31933627615E+03 -0.11127135599E+03  0.32212452100E+03  0.48347303850E+03  0.12500000000E+03 0.  0.
          2    1    1    2  501    0  0.31933627615E+03  0.11127135599E+03 -0.74221390377E+02  0.34621638713E+03  0.00000000000E+00 0.  1.
<mgrwt>
<rscale>  3 0.36053013E+03</rscale>
<asrwt>0</asrwt>
<pdfrwt beam="1">  1       21 0.82891735E-01 0.36053013E+03</pdfrwt>
<pdfrwt beam="2">  1        2 0.44752792E-01 0.36053013E+03</pdfrwt>
<totfact> 0.16817311E+03</totfact>
</mgrwt>
</event>
<event>
 4    0  0.1147788E-001  0.3222061E+03  0.7546771E-02  0.1074638E+00
          2   -1    0    0  502    0 -0.00000000000E+00  0.00000000000E+00  0.18828759482E+03  0.18828759482E+03  0.00000000000E+00 0. -1.
         21   -1    0    0  501  502  0.00000000000E+00 -0.00000000000E+00 -0.63117660651E+03  0.63117660651E+03  0.00000000000E+00 0. -1.
         25    1    1    2    0    0  0.13752437742E+02 -0.29665242690E+03 -0.48602243639E+02  0.32585114702E+03  0.12500000000E+03 0.  0.
          2    1    1    2  501    0 -0.13752437742E+02  0.29665242690E+03 -0.39428676805E+03  0.49361305431E+03  0.00000000000E+00 0. -1.
<mgrwt>
<rscale>  3 0.32220613E+03</rscale>
<asrwt>0</asrwt>
<pdfrwt beam="1">  1       21 0.97104091E-01 0.32220613E+03</pdfrwt>
<pdfrwt beam="2">  1        2 0.28967323E-01 0.32220613E+03</pdfrwt>
<totfact> 0.18885883E+03</totfact>
</mgrwt>
</event>
<event>
 4    0  0.1756853E-001  0.2841065E+03  0.7546771E-02  0.1093467E+00
         -1   -1    0    0    0  501 -0.00000000000E+00  0.00000000000E+00  0.39996865083E+03  0.39996865083E+03  0.00000000000E+00 0.  1.
         21   -1    0    0  501  502  0.00000000000E+00 -0.00000000000E+00 -0.29422545582E+03  0.29422545582E+03  0.00000000000E+00 0.  1.
         25    1    1    2    0    0 -0.47951396985E+02  0.25058369921E+03 -0.15978728168E+03  0.32595782268E+03  0.12500000000E+03 0.  0.
         -1    1    1    2    0  502  0.47951396985E+02 -0.25058369921E+03  0.26553047668E+03  0.36823628397E+03  0.00000000000E+00 0.  1.
<mgrwt>
<rscale>  3 0.28410654E+03</rscale>
<asrwt>0</asrwt>
<pdfrwt beam="1">  1       21 0.45265455E-01 0.28410654E+03</pdfrwt>
<pdfrwt beam="2">  1       -1 0.61533639E-01 0.28410654E+03</pdfrwt>
<totfact> 0.11673661E+03</totfact>
</mgrwt>
</event>
<event>
 4    0  0.1002184E-001  0.3061045E+03  0.7546771E-02  0.1082228E+00
         21   -1    0    0  501  502  0.00000000000E+00  0.00000000000E+00  0.18146632739E+03  0.18146632739E+03  0.00000000000E+00 0.  1.
          1   -1    0    0  502    0 -0.00000000000E+00 -0.00000000000E+00 -0.56588106019E+03  0.56588106019E+03  0.00000000000E+00 0. -1.
         25    1    1    2    0    0 -0.24621540325E+03  0.13210966911E+03 -0.47705588204E+02  0.30979963301E+03  0.12500000000E+03 0.  0.
          1    1    1    2  501    0  0.24621540325E+03 -0.13210966911E+03 -0.33670914460E+03  0.43754775456E+03  0.00000000000E+00 0. -1.
<mgrwt>
<rscale>  3 0.30610454E+03</rscale>
<asrwt>0</asrwt>
<pdfrwt beam="1">  1       21 0.27917897E-01 0.30610454E+03</pdfrwt>
<pdfrwt beam="2">  1        1 0.87058623E-01 0.30610454E+03</pdfrwt>
<totfact> 0.50261722E+03</totfact>
</mgrwt>
</event>
<event>
 4    0  0.1252412E-001  0.3672330E+03  0.7546771E-02  0.1055756E+00
         21   -1    0    0  501  502  0.00000000000E+00  0.00000000000E+00  0.16235828135E+04  0.16235828135E+04  0.00000000000E+00 0.  1.
          1   -1    0    0  502    0 -0.00000000000E+00 -0.00000000000E+00 -0.85034085930E+03  0.85034085930E+03  0.00000000000E+00 0.  1.
         25    1    1    2    0    0 -0.21187769691E+03  0.27265892762E+03  0.15663937987E+04  0.16088659304E+04  0.12500000000E+03 0.  0.
          1    1    1    2  501    0  0.21187769691E+03 -0.27265892762E+03 -0.79315184453E+03  0.86505774243E+03  0.00000000000E+00 0.  1.
<mgrwt>
<rscale>  3 0.36723296E+03</rscale>
<asrwt>0</asrwt>
<pdfrwt beam="1">  1       21 0.24978197E+00 0.36723296E+03</pdfrwt>
<pdfrwt beam="2">  1        1 0.13082167E+00 0.36723296E+03</pdfrwt>
<totfact> 0.13246059E+01</totfact>
</mgrwt>
</event>
<event>
 4    0  0.1562939E-001  0.2973114E+03  0.7546771E-02  0.1086592E+00
          2   -1    0    0  502    0 -0.00000000000E+00  0.00000000000E+00  0.20830850421E+04  0.20830850421E+04  0.00000000000E+00 0. -1.
         21   -1    0    0  501  502  0.00000000000E+00 -0.00000000000E+00 -0.24849100482E+03  0.24849100482E+03  0.00000000000E+00 0.  1.
         25    1    1    2    0    0 -0.25976141499E+03 -0.72753421837E+02 -0.14702647911E+03  0.33167881854E+03  0.12500000000E+03 0.  0.
          2    1    1    2  501    0  0.25976141499E+03  0.72753421837E+02  0.19816205164E+04  0.19998972284E+04  0.00000000000E+00 0. -1.
<mgrwt>
<rscale>  3 0.29731137E+03</rscale>
<asrwt>0</asrwt>
<pdfrwt beam="1">  1       21 0.38229387E-01 0.29731137E+03</pdfrwt>
<pdfrwt beam="2">  1        2 0.32047461E+00 0.29731137E+03</pdfrwt>
<totfact> 0.53844515E+02</totfact>
</mgrwt>
</event>
<event>
 4    0  0.1726829E-001  0.3236333E+03  0.7546771E-02  0.1073989E+00
         21   -1    0    0  501  502  0.00000000000E+00  0.00000000000E+00  0.66152285332E+03  0.66152285332E+03  0.00000000000E+00 0.  1.
         -1   -1    0    0    0  501 -0.00000000000E+00 -0.00000000000E+00 -0.26741412272E+03  0.26741412272E+03  0.00000000000E+00 0.  1.
         25    1    1    2    0    0  0.25024425511E+03 -0.16276155943E+03  0.51387081396E+03  0.60729047900E+03  0.12500000000E+03 0.  0.
         -1    1    1    2    0  502 -0.25024425511E+03  0.16276155943E+03 -0.11976208336E+03  0.32164649704E+03  0.00000000000E+00 0.  1.
<mgrwt>
<rscale>  3 0.32363330E+03</rscale>
<asrwt>0</asrwt>
<pdfrwt beam="1">  1       21 0.10177275E+00 0.32363330E+03</pdfrwt>
<pdfrwt beam="2">  1       -1 0.41140634E-01 0.32363330E+03</pdfrwt>
<totfact> 0.40230104E+02</totfact>
</mgrwt>
</event>
<event>
 4    0  0.1552778E-001  0.2403253E+03  0.7546771E-02  0.1119576E+00
         21   -1    0    0  501  502  0.00000000000E+00  0.00000000000E+00  0.32270571671E+03  0.32270571671E+03  0.00000000000E+00 0.  1.
          2   -1    0    0  502    0 -0.00000000000E+00 -0.00000000000E+00 -0.14957648735E+04  0.14957648735E+04  0.00000000000E+00 0. -1.
         25    1    1    2    0    0  0.20267295507E+03  0.32479734354E+02  0.26966753827E+03  0.36121578185E+03  0.12500000000E+03 0.  0.
          2    1    1    2  501    0 -0.20267295507E+03 -0.32479734354E+02 -0.14427266950E+04  0.14572548083E+04  0.00000000000E+00 0. -1.
<mgrwt>
<rscale>  3 0.24032532E+03</rscale>
<asrwt>0</asrwt>
<pdfrwt beam="1">  1       21 0.49647034E-01 0.24032532E+03</pdfrwt>
<pdfrwt beam="2">  1        2 0.23011767E+00 0.24032532E+03</pdfrwt>
<totfact> 0.66156127E+02</totfact>
</mgrwt>
</event>
<event>
 4    0  0.1292251E-001  0.3058102E+03  0.7546771E-02  0.1082372E+00
         21   -1    0    0  501  502  0.00000000000E+00  0.00000000000E+00  0.30759142329E+03  0.30759142329E+03  0.00000000000E+00 0. -1.
          2   -1    0    0  502    0 -0.00000000000E+00 -0.00000000000E+00 -0.37534346924E+03  0.37534346924E+03  0.00000000000E+00 0. -1.
         25    1    1    2    0    0  0.26923775114E+03 -0.73524942892E+02  0.13868500103E+03  0.33578775048E+03  0.12500000000E+03 0.  0.
          2    1    1    2  501    0 -0.26923775114E+03  0.73524942892E+02 -0.20643704698E+03  0.34714714205E+03  0.00000000000E+00 0. -1.
<mgrwt>
<rscale>  3 0.30581021E+03</rscale>
<asrwt>0</asrwt>
<pdfrwt beam="1">  1       21 0.47321758E-01 0.30581021E+03</pdfrwt>
<pdfrwt beam="2">  1        2 0.57745149E-01 0.30581021E+03</pdfrwt>
<totfact> 0.44157132E+03</totfact>
</mgrwt>
</event>
<event>
 4    0  0.1002184E-001  0.3935397E+03  0.7546771E-02  0.1046040E+00
          1   -1    0    0  502    0 -0.00000000000E+00  0.00000000000E+00  0.21393164084E+04  0.21393164084E+04  0.00000000000E+00 0. -1.
         21   -1    0    0  501  502  0.00000000000E+00 -0.00000000000E+00 -0.99542130810E+02  0.99542130810E+02  0.00000000000E+00 0.  1.
         25    1    1    2    0    0 -0.15497672055E+03  0.33945650542E+03  0.41557079067E+03  0.57233957145E+03  0.12500000000E+03 0.  0.
          1    1    1    2  501    0  0.15497672055E+03 -0.33945650542E+03  0.16242034869E+04  0.16665189677E+04  0.00000000000E+00 0. -1.
<mgrwt>
<rscale>  3 0.39353971E+03</rscale>
<asrwt>0</asrwt>
<pdfrwt beam="1">  1       21 0.15314176E-01 0.39353971E+03</pdfrwt>
<pdfrwt beam="2">  1        1 0.32912557E+00 0.39353971E+03</pdfrwt>
<totfact> 0.10839824E+03</totfact>
</mgrwt>
</event>
<event>
 4    0  0.1002184E-001  0.2758543E+03  0.7546771E-02  0.1097975E+00
         21   -1    0    0  501  502  0.00000000000E+00  0.00000000000E+00  0.38509915791E+03  0.38509915791E+03  0.00000000000E+00 0.  1.
          2   -1    0    0  502    0 -0.00000000000E+00 -0.00000000000E+00 -0.17686913477E+03  0.17686913477E+03  0.00000000000E+00 0. -1.
         25    1    1    2    0    0 -0.22274452718E+03 -0.10418958213E+03  0.11793042454E+03  0.30000529736E+03  0.12500000000E+03 0.  0.
          2    1    1    2  501    0  0.22274452718E+03  0.10418958213E+03  0.90299598604E+02  0.26196299532E+03  0.00000000000E+00 0. -1.
<mgrwt>
<rscale>  3 0.27585430E+03</rscale>
<asrwt>0</asrwt>
<pdfrwt beam="1">  1       21 0.59246024E-01 0.27585430E+03</pdfrwt>
<pdfrwt beam="2">  1        2 0.27210636E-01 0.27585430E+03</pdfrwt>
<totfact> 0.62753651E+03</totfact>
</mgrwt>
</event>
<event>
 4    0  0.1353737E-001  0.2414248E+03  0.7546771E-02  0.1118847E+00
          2   -1    0    0  502    0 -0.00000000000E+00  0.00000000000E+00  0.12225535500E+04  0.12225535500E+04  0.00000000000E+00 0. -1.
         21   -1    0    0  501  502  0.00000000000E+00 -0.00000000000E+00 -0.47794901950E+02  0.47794901950E+02  0.00000000000E+00 0. -1.
         25    1    1    2    0    0  0.17855687434E+02 -0.20577194386E+03  0.38841886095E+03  0.45733481170E+03  0.12500000000E+03 0.  0.
          2    1    1    2  501    0 -0.17855687434E+02  0.20577194386E+03  0.78633978710E+03  0.81301364025E+03  0.00000000000E+00 0. -1.
<mgrwt>
<rscale>  3 0.24142477E+03</rscale>
<asrwt>0</asrwt>
<pdfrwt beam="1">  1       21 0.73530628E-02 0.24142477E+03</pdfrwt>
<pdfrwt beam="2">  1        2 0.18808514E+00 0.24142477E+03</pdfrwt>
<totfact> 0.34150418E+04</totfact>
</mgrwt>
</event>
<event>
 4    0  0.1155865E-001  0.2474413E+03  0.7546771E-02  0.1114933E+00
         21   -1    0    0  501  502  0.00000000000E+00  0.00000000000E+00  0.34827796897E+03  0.34827796897E+03  0.00000000000E+00 0.  1.
          2   -1    0    0  502    0 -0.00000000000E+00 -0.00000000000E+00 -0.15517622341E+03  0.15517622341E+03  0.00000000000E+00 0.  1.
         25    1    1    2    0    0  0.19976676799E+03 -0.75468230711E+02  0.13623119839E+03  0.28246443113E+03  0.12500000000E+03 0.  0.
          2    1    1    2  501    0 -0.19976676799E+03  0.75468230711E+02  0.56870547167E+02  0.22098976124E+03  0.00000000000E+00 0.  1.
<mgrwt>
<rscale>  3 0.24744134E+03</rscale>
<asrwt>0</asrwt>
<pdfrwt beam="1">  1       21 0.53581226E-01 0.24744134E+03</pdfrwt>
<pdfrwt beam="2">  1        2 0.23873265E-01 0.24744134E+03</pdfrwt>
<totfact> 0.90615524E+03</totfact>
</mgrwt>
</event>
<event>
 4    0  0.1332452E-001  0.2521114E+03  0.7546771E-02  0.1111978E+00
         21   -1    0    0  501  502  0.00000000000E+00  0.00000000000E+00  0.29589262688E+03  0.29589262688E+03  0.00000000000E+00 0.  1.
          2   -1    0    0  502    0 -0.00000000000E+00 -0.00000000000E+00 -0.58188975541E+03  0.58188975541E+03  0.00000000000E+00 0. -1.
         25    1    1    2    0    0  0.20620239419E+03 -0.73591614051E+02  0.21480578153E+03  0.33121243456E+03  0.12500000000E+03 0.  0.
          2    1    1    2  501    0 -0.20620239419E+03  0.73591614051E+02 -0.50080291006E+03  0.54656994772E+03  0.00000000000E+00 0. -1.
<mgrwt>
<rscale>  3 0.25211139E+03</rscale>
<asrwt>0</asrwt>
<pdfrwt beam="1">  1       21 0.45521943E-01 0.25211139E+03</pdfrwt>
<pdfrwt beam="2">  1        2 0.89521501E-01 0.25211139E+03</pdfrwt>
<totfact> 0.29745413E+03</totfact>
</mgrwt>
</event>
<event>
 4    0  0.1002184E-001  0.2749651E+03  0.7546771E-02  0.1098471E+00
         21   -1    0    0  501  502  0.00000000000E+00  0.00000000000E+00  0.38541974490E+02  0.38541974490E+02  0.00000000000E+00 0. -1.
          2   -1    0    0  502    0 -0.00000000000E+00 -0.00000000000E+00 -0.42642965604E+04  0.42642965604E+04  0.00000000000E+00 0. -1.
         25    1    1    2    0    0  0.11053990773E+03 -0.21854456289E+03 -0.51324559896E+03  0.58226011543E+03  0.12500000000E+03 0.  0.
          2    1    1    2  501    0 -0.11053990773E+03  0.21854456289E+03 -0.37125089869E+04  0.37205784194E+04  0.00000000000E+00 0. -1.
<mgrwt>
<rscale>  3 0.27496508E+03</rscale>
<asrwt>0</asrwt>
<pdfrwt beam="1">  1       21 0.59295355E-02 0.27496508E+03</pdfrwt>
<pdfrwt beam="2">  1        2 0.65604552E+00 0.27496508E+03</pdfrwt>
<totfact> 0.69764163E+02</totfact>
</mgrwt>
</event>
<event>
 4    0  0.1002184E-001  0.2609604E+03  0.7546771E-02  0.1106568E+00
          2   -1    0    0  502    0 -0.00000000000E+00  0.00000000000E+00  0.13322490731E+04  0.13322490731E+04  0.00000000000E+00 0. -1.
         21   -1    0    0  501  502  0.00000000000E+00 -0.00000000000E+00 -0.50863049562E+02  0.50863049562E+02  0.00000000000E+00 0.  1.
         25    1    1    2    0    0  0.22292470617E+03  0.52724945845E+02  0.44451327650E+03  0.51545358426E+03  0.12500000000E+03 0.  0.
          2    1    1    2  501    0 -0.22292470617E+03 -0.52724945845E+02  0.83687274701E+03  0.86765853838E+03  0.00000000000E+00 0. -1.
<mgrwt>
<rscale>  3 0.26096043E+03</rscale>
<asrwt>0</asrwt>
<pdfrwt beam="1">  1       21 0.78250855E-02 0.26096043E+03</pdfrwt>
<pdfrwt beam="2">  1        2 0.20496137E+00 0.26096043E+03</pdfrwt>
<totfact> 0.26522789E+04</totfact>
</mgrwt>
</event>
<event>
 4    0  0.1494054E-001  0.2677253E+03  0.7546771E-02  0.1102589E+00
          2   -1    0    0  502    0 -0.00000000000E+00  0.00000000000E+00  0.12308125022E+04  0.12308125022E+04  0.00000000000E+00 0. -1.
         21   -1    0    0  501  502  0.00000000000E+00 -0.00000000000E+00 -0.10102203564E+03  0.10102203564E+03  0.00000000000E+00 0. -1.
         25    1    1    2    0    0  0.38570681583E+02 -0.23358963449E+03  0.11775873202E+03  0.29247894588E+03  0.12500000000E+03 0.  0.
          2    1    1    2  501    0 -0.38570681583E+02  0.23358963449E+03  0.10120317345E+04  0.10393555920E+04  0.00000000000E+00 0. -1.
<mgrwt>
<rscale>  3 0.26772526E+03</rscale>
<asrwt>0</asrwt>
<pdfrwt beam="1">  1       21 0.15541853E-01 0.26772526E+03</pdfrwt>
<pdfrwt beam="2">  1        2 0.18935576E+00 0.26772526E+03</pdfrwt>
<totfact> 0.88158497E+03</totfact>
</mgrwt>
</event>
<event>
 4    0  0.1208629E-001  0.4971118E+03  0.7546771E-02  0.1014536E+00
         21   -1    0    0  501  502  0.00000000000E+00  0.00000000000E+00  0.34443003068E+03  0.34443003068E+03  0.00000000000E+00 0.  1.
          2   -1    0    0  502    0 -0.00000000000E+00 -0.00000000000E+00 -0.15642150228E+04  0.15642150228E+04  0.00000000000E+00 0. -1.
         25    1    1    2    0    0  0.46816933822E+03 -0.11096203209E+03  0.97198442489E+02  0.50652506260E+03  0.12500000000E+03 0.  0.
          2    1    1    2  501    0 -0.46816933822E+03  0.11096203209E+03 -0.13169834347E+04  0.14021199909E+04  0.00000000000E+00 0. -1.
<mgrwt>
<rscale>  3 0.49711176E+03</rscale>
<asrwt>0</asrwt>
<pdfrwt beam="1">  1       21 0.52989235E-01 0.49711176E+03</pdfrwt>
<pdfrwt beam="2">  1        2 0.24064847E+00 0.49711176E+03</pdfrwt>
<totfact> 0.47833451E+02</totfact>
</mgrwt>
</event>
<event>
 4    0  0.1679295E-001  0.3017704E+03  0.7546771E-02  0.1084359E+00
          1   -1    0    0  502    0 -0.00000000000E+00  0.00000000000E+00  0.16122516831E+04  0.16122516831E+04  0.00000000000E+00 0. -1.
         21   -1    0    0  501  502  0.00000000000E+00 -0.00000000000E+00 -0.62475325127E+02  0.62475325127E+02  0.00000000000E+00 0. -1.
         25    1    1    2    0    0 -0.16762661877E+03 -0.21758151440E+03  0.45466968391E+03  0.54570131043E+03  0.12500000000E+03 0.  0.
          1    1    1    2  501    0  0.16762661877E+03  0.21758151440E+03  0.10951066741E+04  0.11290256978E+04  0.00000000000E+00 0. -1.
<mgrwt>
<rscale>  3 0.30177044E+03</rscale>
<asrwt>0</asrwt>
<pdfrwt beam="1">  1       21 0.96115897E-02 0.30177044E+03</pdfrwt>
<pdfrwt beam="2">  1        1 0.24803869E+00 0.30177044E+03</pdfrwt>
<totfact> 0.57549731E+03</totfact>
</mgrwt>
</event>
<event>
 4    0  0.1684515E-001  0.3124821E+03  0.7546771E-02  0.1079162E+00
         21   -1    0    0  501  502  0.00000000000E+00  0.00000000000E+00  0.46234786869E+02  0.46234786869E+02  0.00000000000E+00 0.  1.
         -2   -1    0    0    0  501 -0.00000000000E+00 -0.00000000000E+00 -0.19490159395E+04  0.19490159395E+04  0.00000000000E+00 0.  1.
         25    1    1    2    0    0 -0.16812023832E+03 -0.23185267878E+03 -0.92220477639E+03  0.97370772247E+03  0.12500000000E+03 0.  0.
         -2    1    1    2    0  502  0.16812023832E+03  0.23185267878E+03 -0.98057637627E+03  0.10215430039E+04  0.00000000000E+00 0.  1.
<mgrwt>
<rscale>  3 0.31248213E+03</rscale>
<asrwt>0</asrwt>
<pdfrwt beam="1">  1       21 0.71130426E-02 0.31248213E+03</pdfrwt>
<pdfrwt beam="2">  1       -2 0.29984867E+00 0.31248213E+03</pdfrwt>
<totfact> 0.43581407E+02</totfact>
</mgrwt>
</event>
<event>
 4    0  0.1649707E-001  0.2360467E+03  0.7546771E-02  0.1122455E+00
          1   -1    0    0  502    0 -0.00000000000E+00  0.00000000000E+00  0.10944915099E+04  0.10944915099E+04  0.00000000000E+00 0.  1.
         21   -1    0    0  501  502  0.00000000000E+00 -0.00000000000E+00 -0.50414887495E+02  0.50414887495E+02  0.00000000000E+00 0.  1.
         25    1    1    2    0    0  0.85658814939E+02  0.18098509972E+03  0.77074226504E+03  0.80607796026E+03  0.12500000000E+03 0.  0.
          1    1    1    2  501    0 -0.85658814939E+02 -0.18098509972E+03  0.27333435738E+03  0.33882843715E+03  0.00000000000E+00 0.  1.
<mgrwt>
<rscale>  3 0.23604669E+03</rscale>
<asrwt>0</asrwt>
<pdfrwt beam="1">  1       21 0.77561374E-02 0.23604669E+03</pdfrwt>
<pdfrwt beam="2">  1        1 0.16838329E+00 0.23604669E+03</pdfrwt>
<totfact> 0.19244154E+04</totfact>
</mgrwt>
</event>
<event>
 4    0  0.1540519E-001  0.3394764E+03  0.7546771E-02  0.1067019E+00
          1   -1    0    0  502    0 -0.00000000000E+00  0.00000000000E+00  0.12865490607E+04  0.12865490607E+04  0.00000000000E+00 0. -1.
         21   -1    0    0  501  502  0.00000000000E+00 -0.00000000000E+00 -0.10357574883E+03  0.10357574883E+03  0.00000000000E+00 0. -1.
         25    1    1    2    0    0 -0.17462793482E+03 -0.26291506397E+03  0.30217041661E+03  0.45447905029E+03  0.12500000000E+03 0.  0.
          1    1    1    2  501    0  0.17462793482E+03  0.26291506397E+03  0.88080289522E+03  0.93564575920E+03  0.00000000000E+00 0. -1.
<mgrwt>
<rscale>  3 0.33947643E+03</rscale>
<asrwt>0</asrwt>
<pdfrwt beam="1">  1       21 0.15934732E-01 0.33947643E+03</pdfrwt>
<pdfrwt beam="2">  1        1 0.19793061E+00 0.33947643E+03</pdfrwt>
<totfact> 0.37706685E+03</totfact>
</mgrwt>
</event>
<event>
 4    0  0.1410229E-001  0.4053513E+03  0.7546771E-02  0.1041942E+00
         21   -1    0    0  501  502  0.00000000000E+00  0.00000000000E+00  0.33456037328E+03  0.33456037328E+03  0.00000000000E+00 0. -1.
          2   -1    0    0  502    0 -0.00000000000E+00 -0.00000000000E+00 -0.16685921691E+04  0.16685921691E+04  0.00000000000E+00 0.  1.
         25    1    1    2    0    0  0.24573501520E+03 -0.29715149151E+03  0.17801181666E+03  0.44271651592E+03  0.12500000000E+03 0.  0.
          2    1    1    2  501    0 -0.24573501520E+03  0.29715149151E+03 -0.15120436125E+04  0.15604360265E+04  0.00000000000E+00 0.  1.
<mgrwt>
<rscale>  3 0.40535134E+03</rscale>
<asrwt>0</asrwt>
<pdfrwt beam="1">  1       21 0.51470827E-01 0.40535134E+03</pdfrwt>
<pdfrwt beam="2">  1        2 0.25670649E+00 0.40535134E+03</pdfrwt>
<totfact> 0.46014144E+02</totfact>
</mgrwt>
</event>
<event>
 4    0  0.1081290E-001  0.2580530E+03  0.7546771E-02  0.1108319E+00
         21   -1    0    0  501  502  0.00000000000E+00  0.00000000000E+00  0.65927551166E+02  0.65927551166E+02  0.00000000000E+00 0.  1.
          2   -1    0    0  502    0 -0.00000000000E+00 -0.00000000000E+00 -0.14519526339E+04  0.14519526339E+04  0.00000000000E+00 0. -1.
         25    1    1    2    0    0  0.31098719770E+02 -0.22360510242E+03 -0.24878442028E+03  0.35844812731E+03  0.12500000000E+03 0.  0.
          2    1    1    2  501    0 -0.31098719770E+02  0.22360510242E+03 -0.11372406625E+04  0.11594320578E+04  0.00000000000E+00 0. -1.
<mgrwt>
<rscale>  3 0.25805304E+03</rscale>
<asrwt>0</asrwt>
<pdfrwt beam="1">  1       21 0.10142701E-01 0.25805304E+03</pdfrwt>
<pdfrwt beam="2">  1        2 0.22337731E+00 0.25805304E+03</pdfrwt>
<totfact> 0.14451498E+04</totfact>
</mgrwt>
</event>
<event>
 4    0  0.1002184E-001  0.2414861E+03  0.7546771E-02  0.1118807E+00
          2   -1    0    0  502    0 -0.00000000000E+00  0.00000000000E+00  0.78961452803E+03  0.78961452803E+03  0.00000000000E+00 0. -1.
         21   -1    0    0  501  502  0.00000000000E+00 -0.00000000000E+00 -0.80483773775E+02  0.80483773775E+02  0.00000000000E+00 0.  1.
         25    1    1    2    0    0 -0.34992120796E+02  0.20363225606E+03  0.17742475853E+03  0.29965828733E+03  0.12500000000E+03 0.  0.
          2    1    1    2  501    0  0.34992120796E+02 -0.20363225606E+03  0.53170599572E+03  0.57044001448E+03  0.00000000000E+00 0. -1.
<mgrwt>
<rscale>  3 0.24148612E+03</rscale>
<asrwt>0</asrwt>
<pdfrwt beam="1">  1       21 0.12382120E-01 0.24148612E+03</pdfrwt>
<pdfrwt beam="2">  1        2 0.12147915E+00 0.24148612E+03</pdfrwt>
<totfact> 0.25103467E+04</totfact>
</mgrwt>
</event>
<event>
 4    0  0.1539621E-001  0.2829152E+03  0.7546771E-02  0.1094107E+00
          2   -1    0    0  502    0 -0.00000000000E+00  0.00000000000E+00  0.14621819706E+04  0.14621819706E+04  0.00000000000E+00 0.  1.
         21   -1    0    0  501  502  0.00000000000E+00 -0.00000000000E+00 -0.97033400365E+02  0.97033400365E+02  0.00000000000E+00 0.  1.
         25    1    1    2    0    0  0.22030291210E+03  0.12602635133E+03  0.15470788205E+03  0.32245238886E+03  0.12500000000E+03 0.  0.
          2    1    1    2  501    0 -0.22030291210E+03 -0.12602635133E+03  0.12104406882E+04  0.12367629821E+04  0.00000000000E+00 0.  1.
<mgrwt>
<rscale>  3 0.28291521E+03</rscale>
<asrwt>0</asrwt>
<pdfrwt beam="1">  1       21 0.14928216E-01 0.28291521E+03</pdfrwt>
<pdfrwt beam="2">  1        2 0.22495106E+00 0.28291521E+03</pdfrwt>
<totfact> 0.70487910E+03</totfact>
</mgrwt>
</event>
<event>
 4    0  0.1727051E-001  0.3093798E+03  0.7546771E-02  0.1080644E+00
         21   -1    0    0  501  502  0.00000000000E+00  0.00000000000E+00  0.48867567999E+03  0.48867567999E+03  0.00000000000E+00 0. -1.
          2   -1    0    0  502    0 -0.00000000000E+00 -0.00000000000E+00 -0.12787885187E+04  0.12787885187E+04  0.00000000000E+00 0. -1.
         25    1    1    2    0    0 -0.43166531658E+02 -0.27969182622E+03  0.42171527336E+03  0.52302929067E+03  0.12500000000E+03 0.  0.
          2    1    1    2  501    0  0.43166531658E+02  0.27969182622E+03 -0.12118281120E+04  0.12444349080E+04  0.00000000000E+00 0. -1.
<mgrwt>
<rscale>  3 0.30937981E+03</rscale>
<asrwt>0</asrwt>
<pdfrwt beam="1">  1       21 0.75180874E-01 0.30937981E+03</pdfrwt>
<pdfrwt beam="2">  1        2 0.19673670E+00 0.30937981E+03</pdfrwt>
<totfact> 0.34013177E+02</totfact>
</mgrwt>
</event>
<event>
 4    0  0.1002184E-001  0.2726856E+03  0.7546771E-02  0.1099752E+00
          2   -1    0    0  502    0 -0.00000000000E+00  0.00000000000E+00  0.58324988115E+02  0.58324988115E+02  0.00000000000E+00 0. -1.
         21   -1    0    0  501  502  0.00000000000E+00 -0.00000000000E+00 -0.20946393326E+04  0.20946393326E+04  0.00000000000E+00 0. -1.
         25    1    1    2    0    0 -0.11694315993E+03  0.21226572032E+03 -0.17778992159E+04  0.17986892618E+04  0.12500000000E+03 0.  0.
          2    1    1    2  501    0  0.11694315993E+03 -0.21226572032E+03 -0.25841512859E+03  0.35427505890E+03  0.00000000000E+00 0. -1.
<mgrwt>
<rscale>  3 0.27268560E+03</rscale>
<asrwt>0</asrwt>
<pdfrwt beam="1">  1       21 0.32225220E+00 0.27268560E+03</pdfrwt>
<pdfrwt beam="2">  1        2 0.89730753E-02 0.27268560E+03</pdfrwt>
<totfact> 0.20946660E+02</totfact>
</mgrwt>
</event>
<event>
 4    0  0.1002184E-001  0.2569031E+03  0.7546771E-02  0.1109018E+00
         21   -1    0    0  501  502  0.00000000000E+00  0.00000000000E+00  0.14806663927E+03  0.14806663927E+03  0.00000000000E+00 0.  1.
         -1   -1    0    0    0  501 -0.00000000000E+00 -0.00000000000E+00 -0.59295051442E+03  0.59295051442E+03  0.00000000000E+00 0. -1.
         25    1    1    2    0    0 -0.39572521692E+02 -0.22092586138E+03 -0.16541285344E+02  0.25743510798E+03  0.12500000000E+03 0.  0.
         -1    1    1    2    0  502  0.39572521692E+02  0.22092586138E+03 -0.42834258980E+03  0.48358204571E+03  0.00000000000E+00 0. -1.
<mgrwt>
<rscale>  3 0.25690313E+03</rscale>
<asrwt>0</asrwt>
<pdfrwt beam="1">  1       21 0.22779483E-01 0.25690313E+03</pdfrwt>
<pdfrwt beam="2">  1       -1 0.91223157E-01 0.25690313E+03</pdfrwt>
<totfact> 0.20513914E+03</totfact>
</mgrwt>
</event>
<event>
 4    0  0.1423992E-001  0.3163078E+03  0.7546771E-02  0.1077361E+00
          1   -1    0    0  502    0 -0.00000000000E+00  0.00000000000E+00  0.55733018481E+03  0.55733018481E+03  0.00000000000E+00 0.  1.
         21   -1    0    0  501  502  0.00000000000E+00 -0.00000000000E+00 -0.31610013617E+03  0.31610013617E+03  0.00000000000E+00 0.  1.
         25    1    1    2    0    0 -0.20386963263E+03  0.20703326663E+03 -0.17830458269E+03  0.36310208593E+03  0.12500000000E+03 0.  0.
          1    1    1    2  501    0  0.20386963263E+03 -0.20703326663E+03  0.41953463133E+03  0.51032823504E+03  0.00000000000E+00 0.  1.
<mgrwt>
<rscale>  3 0.31630776E+03</rscale>
<asrwt>0</asrwt>
<pdfrwt beam="1">  1       21 0.48630790E-01 0.31630776E+03</pdfrwt>
<pdfrwt beam="2">  1        1 0.85743105E-01 0.31630776E+03</pdfrwt>
<totfact> 0.16653787E+03</totfact>
</mgrwt>
</event>
<event>
 4    0  0.1002184E-001  0.2588860E+03  0.7546771E-02  0.1107814E+00
         21   -1    0    0  501  502  0.00000000000E+00  0.00000000000E+00  0.21317679301E+03  0.21317679301E+03  0.00000000000E+00 0.  1.
          1   -1    0    0  502    0 -0.00000000000E+00 -0.00000000000E+00 -0.35338055341E+03  0.35338055341E+03  0.00000000000E+00 0. -1.
         25    1    1    2    0    0  0.13249561033E+03  0.18396163081E+03  0.58136556243E+02  0.26533342710E+03  0.12500000000E+03 0.  0.
          1    1    1    2  501    0 -0.13249561033E+03 -0.18396163081E+03 -0.19834031663E+03  0.30122391932E+03  0.00000000000E+00 0. -1.
<mgrwt>
<rscale>  3 0.25888601E+03</rscale>
<asrwt>0</asrwt>
<pdfrwt beam="1">  1       21 0.32796430E-01 0.25888601E+03</pdfrwt>
<pdfrwt beam="2">  1        1 0.54366239E-01 0.25888601E+03</pdfrwt>
<totfact> 0.68688441E+03</totfact>
</mgrwt>
</event>
<event>
 4    0  0.1553175E-001  0.2640343E+03  0.7546771E-02  0.1104743E+00
         21   -1    0    0  501  502  0.00000000000E+00  0.00000000000E+00  0.24286116221E+02  0.24286116221E+02  0.00000000000E+00 0. -1.
          1   -1    0    0  502    0 -0.00000000000E+00 -0.00000000000E+00 -0.25748743015E+04  0.25748743015E+04  0.00000000000E+00 0. -1.
         25    1    1    2    0    0  0.50312430157E+02  0.22706332208E+03 -0.12011323377E+04  0.12298101421E+04  0.12500000000E+03 0.  0.
          1    1    1    2  501    0 -0.50312430157E+02 -0.22706332208E+03 -0.13494558476E+04  0.13693502757E+04  0.00000000000E+00 0. -1.
<mgrwt>
<rscale>  3 0.26403426E+03</rscale>
<asrwt>0</asrwt>
<pdfrwt beam="1">  1       21 0.37363266E-02 0.26403426E+03</pdfrwt>
<pdfrwt beam="2">  1        1 0.39613440E+00 0.26403426E+03</pdfrwt>
<totfact> 0.69640485E+03</totfact>
</mgrwt>
</event>
<event>
 4    0  0.1424338E-001  0.2887178E+03  0.7546771E-02  0.1091021E+00
         21   -1    0    0  501  502  0.00000000000E+00  0.00000000000E+00  0.21472038937E+03  0.21472038937E+03  0.00000000000E+00 0.  1.
          2   -1    0    0  502    0 -0.00000000000E+00 -0.00000000000E+00 -0.38403315295E+03  0.38403315295E+03  0.00000000000E+00 0.  1.
         25    1    1    2    0    0  0.23299544651E+03  0.11595721258E+03 -0.82390573953E+00  0.28871894996E+03  0.12500000000E+03 0.  0.
          2    1    1    2  501    0 -0.23299544651E+03 -0.11595721258E+03 -0.16848885784E+03  0.31003459236E+03  0.00000000000E+00 0.  1.
<mgrwt>
<rscale>  3 0.28871777E+03</rscale>
<asrwt>0</asrwt>
<pdfrwt beam="1">  1       21 0.33033906E-01 0.28871777E+03</pdfrwt>
<pdfrwt beam="2">  1        2 0.59082023E-01 0.28871777E+03</pdfrwt>
<totfact> 0.89926917E+03</totfact>
</mgrwt>
</event>
<event>
 4    0  0.1897318E-001  0.3049979E+03  0.7546771E-02  0.1082769E+00
         21   -1    0    0  501  502  0.00000000000E+00  0.00000000000E+00  0.13357568364E+04  0.13357568364E+04  0.00000000000E+00 0. -1.
          1   -1    0    0  502    0 -0.00000000000E+00 -0.00000000000E+00 -0.94556236243E+03  0.94556236243E+03  0.00000000000E+00 0.  1.
         25    1    1    2    0    0  0.15824067815E+03  0.22882002883E+03  0.12972166802E+04  0.13325895216E+04  0.12500000000E+03 0.  0.
          1    1    1    2  501    0 -0.15824067815E+03 -0.22882002883E+03 -0.90702220622E+03  0.94872967720E+03  0.00000000000E+00 0.  1.
<mgrwt>
<rscale>  3 0.30499790E+03</rscale>
<asrwt>0</asrwt>
<pdfrwt beam="1">  1       21 0.20550105E+00 0.30499790E+03</pdfrwt>
<pdfrwt beam="2">  1        1 0.14547113E+00 0.30499790E+03</pdfrwt>
<totfact> 0.21983022E+01</totfact>
</mgrwt>
</event>
<event>
 4    0  0.1002184E-001  0.2676179E+03  0.7546771E-02  0.1102651E+00
         21   -1    0    0  501  502  0.00000000000E+00  0.00000000000E+00  0.28305029847E+03  0.28305029847E+03  0.00000000000E+00 0.  1.
          2   -1    0    0  502    0 -0.00000000000E+00 -0.00000000000E+00 -0.24704556078E+03  0.24704556078E+03  0.00000000000E+00 0. -1.
         25    1    1    2    0    0 -0.10745400693E+03 -0.21082685451E+03  0.98802002782E+02  0.28527383676E+03  0.12500000000E+03 0.  0.
          2    1    1    2  501    0  0.10745400693E+03  0.21082685451E+03 -0.62797265100E+02  0.24482202248E+03  0.00000000000E+00 0. -1.
<mgrwt>
<rscale>  3 0.26761787E+03</rscale>
<asrwt>0</asrwt>
<pdfrwt beam="1">  1       21 0.43546200E-01 0.26761787E+03</pdfrwt>
<pdfrwt beam="2">  1        2 0.38007009E-01 0.26761787E+03</pdfrwt>
<totfact> 0.83312498E+03</totfact>
</mgrwt>
</event>
<event>
 4    0  0.1002184E-001  0.2770707E+03  0.7546771E-02  0.1097300E+00
         21   -1    0    0  501  502  0.00000000000E+00  0.00000000000E+00  0.64700402875E+02  0.64700402875E+02  0.00000000000E+00 0. -1.
         -1   -1    0    0    0  501 -0.00000000000E+00 -0.00000000000E+00 -0.10924149104E+04  0.10924149104E+04  0.00000000000E+00 0.  1.
         25    1    1    2    0    0  0.33054213193E+02  0.24505227419E+03 -0.44640791923E+03  0.52540292010E+03  0.12500000000E+03 0.  0.
         -1    1    1    2    0  502 -0.33054213193E+02 -0.24505227419E+03 -0.58130658827E+03  0.63171239315E+03  0.00000000000E+00 0.  1.
<mgrwt>
<rscale>  3 0.27707075E+03</rscale>
<asrwt>0</asrwt>
<pdfrwt beam="1">  1       21 0.99539088E-02 0.27707075E+03</pdfrwt>
<pdfrwt beam="2">  1       -1 0.16806382E+00 0.27707075E+03</pdfrwt>
<totfact> 0.21095333E+03</totfact>
</mgrwt>
</event>
<event>
 4    0  0.1389533E-001  0.2480256E+03  0.7546771E-02  0.1114559E+00
          2   -1    0    0  502    0 -0.00000000000E+00  0.00000000000E+00  0.72356773425E+03  0.72356773425E+03  0.00000000000E+00 0. -1.
         21   -1    0    0  501  502  0.00000000000E+00 -0.00000000000E+00 -0.11053570244E+03  0.11053570244E+03  0.00000000000E+00 0. -1.
         25    1    1    2    0    0  0.20564512431E+03  0.60014938889E+02  0.81576300445E+02  0.26109653931E+03  0.12500000000E+03 0.  0.
          2    1    1    2  501    0 -0.20564512431E+03 -0.60014938889E+02  0.53145573137E+03  0.57300689738E+03  0.00000000000E+00 0. -1.
<mgrwt>
<rscale>  3 0.24802562E+03</rscale>
<asrwt>0</asrwt>
<pdfrwt beam="1">  1       21 0.17005493E-01 0.24802562E+03</pdfrwt>
<pdfrwt beam="2">  1        2 0.11131811E+00 0.24802562E+03</pdfrwt>
<totfact> 0.15664157E+04</totfact>
</mgrwt>
</event>
<event>
 4    0  0.1476650E-001  0.2405763E+03  0.7546771E-02  0.1119409E+00
         21   -1    0    0  501  502  0.00000000000E+00  0.00000000000E+00  0.32254497052E+02  0.32254497052E+02  0.00000000000E+00 0.  1.
          1   -1    0    0  502    0 -0.00000000000E+00 -0.00000000000E+00 -0.18394526388E+04  0.18394526388E+04  0.00000000000E+00 0.  1.
         25    1    1    2    0    0 -0.20551916271E+03  0.37216303766E+01 -0.58814998858E+03  0.63545053768E+03  0.12500000000E+03 0.  0.
          1    1    1    2  501    0  0.20551916271E+03 -0.37216303766E+01 -0.12190481532E+04  0.12362565982E+04  0.00000000000E+00 0.  1.
<mgrwt>
<rscale>  3 0.24057634E+03</rscale>
<asrwt>0</asrwt>
<pdfrwt beam="1">  1       21 0.49622286E-02 0.24057634E+03</pdfrwt>
<pdfrwt beam="2">  1        1 0.28299281E+00 0.24057634E+03</pdfrwt>
<totfact> 0.13143406E+04</totfact>
</mgrwt>
</event>
<event>
 4    0  0.1633686E-001  0.3226428E+03  0.7546771E-02  0.1074439E+00
         21   -1    0    0  501  502  0.00000000000E+00  0.00000000000E+00  0.10674827462E+03  0.10674827462E+03  0.00000000000E+00 0. -1.
         -1   -1    0    0    0  501 -0.00000000000E+00 -0.00000000000E+00 -0.94713681814E+03  0.94713681814E+03  0.00000000000E+00 0. -1.
         25    1    1    2    0    0  0.29647492668E+03  0.23999709315E+02 -0.31959539879E+03  0.45413608877E+03  0.12500000000E+03 0.  0.
         -1    1    1    2    0  502 -0.29647492668E+03 -0.23999709315E+02 -0.52079314473E+03  0.59974900399E+03  0.00000000000E+00 0. -1.
<mgrwt>
<rscale>  3 0.32264279E+03</rscale>
<asrwt>0</asrwt>
<pdfrwt beam="1">  1       21 0.16422811E-01 0.32264279E+03</pdfrwt>
<pdfrwt beam="2">  1       -1 0.14571336E+00 0.32264279E+03</pdfrwt>
<totfact> 0.12342836E+03</totfact>
</mgrwt>
</event>
<event>
 4    0  0.1002184E-001  0.2394612E+03  0.7546771E-02  0.1120152E+00
         21   -1    0    0  501  502  0.00000000000E+00  0.00000000000E+00  0.20010677929E+03  0.20010677929E+03  0.00000000000E+00 0.  1.
          4   -1    0    0  502    0 -0.00000000000E+00 -0.00000000000E+00 -0.36702258826E+03  0.36702258826E+03  0.00000000000E+00 0. -1.
         25    1    1    2    0    0 -0.20319616960E+03  0.20688319220E+02  0.74614690716E+02  0.25081674977E+03  0.12500000000E+03 0.  0.
          4    1    1    2  501    0  0.20319616960E+03 -0.20688319220E+02 -0.24153049969E+03  0.31631261779E+03  0.00000000000E+00 0. -1.
<mgrwt>
<rscale>  3 0.23946125E+03</rscale>
<asrwt>0</asrwt>
<pdfrwt beam="1">  1       21 0.30785659E-01 0.23946125E+03</pdfrwt>
<pdfrwt beam="2">  1        4 0.56465013E-01 0.23946125E+03</pdfrwt>
<totfact> 0.12863957E+03</totfact>
</mgrwt>
</event>
<event>
 4    0  0.1623581E-001  0.2580185E+03  0.7546771E-02  0.1108340E+00
         21   -1    0    0  501  502  0.00000000000E+00  0.00000000000E+00  0.34563730169E+02  0.34563730169E+02  0.00000000000E+00 0. -1.
          2   -1    0    0  502    0 -0.00000000000E+00 -0.00000000000E+00 -0.17794445000E+04  0.17794445000E+04  0.00000000000E+00 0. -1.
         25    1    1    2    0    0  0.14221081018E+03 -0.17528445859E+03 -0.72782536599E+03  0.77220678534E+03  0.12500000000E+03 0.  0.
          2    1    1    2  501    0 -0.14221081018E+03  0.17528445859E+03 -0.10170554039E+04  0.10418014448E+04  0.00000000000E+00 0. -1.
<mgrwt>
<rscale>  3 0.25801852E+03</rscale>
<asrwt>0</asrwt>
<pdfrwt beam="1">  1       21 0.53174949E-02 0.25801852E+03</pdfrwt>
<pdfrwt beam="2">  1        2 0.27376080E+00 0.25801852E+03</pdfrwt>
<totfact> 0.29884341E+04</totfact>
</mgrwt>
</event>
<event>
 4    0  0.1002184E-001  0.2512120E+03  0.7546771E-02  0.1112541E+00
          2   -1    0    0  502    0 -0.00000000000E+00  0.00000000000E+00  0.58602747084E+03  0.58602747084E+03  0.00000000000E+00 0.  1.
         21   -1    0    0  501  502  0.00000000000E+00 -0.00000000000E+00 -0.10735931347E+03  0.10735931347E+03  0.00000000000E+00 0. -1.
         25    1    1    2    0    0  0.15264737364E+03  0.15550322042E+03  0.13162976498E+03  0.28360865161E+03  0.12500000000E+03 0.  0.
          2    1    1    2  501    0 -0.15264737364E+03 -0.15550322042E+03  0.34703839239E+03  0.40977813269E+03  0.00000000000E+00 0.  1.
<mgrwt>
<rscale>  3 0.25121201E+03</rscale>
<asrwt>0</asrwt>
<pdfrwt beam="1">  1       21 0.16516818E-01 0.25121201E+03</pdfrwt>
<pdfrwt beam="2">  1        2 0.90158070E-01 0.25121201E+03</pdfrwt>
<totfact> 0.21239932E+04</totfact>
</mgrwt>
</event>
<event>
 4    0  0.1002184E-001  0.2449239E+03  0.7546771E-02  0.1116555E+00
         21   -1    0    0  501  502  0.00000000000E+00  0.00000000000E+00  0.25247679190E+03  0.25247679190E+03  0.00000000000E+00 0.  1.
          2   -1    0    0  502    0 -0.00000000000E+00 -0.00000000000E+00 -0.21545101079E+03  0.21545101079E+03  0.00000000000E+00 0. -1.
         25    1    1    2    0    0  0.20070046569E+03 -0.63890829153E+02  0.70016394682E+02  0.25473517720E+03  0.12500000000E+03 0.  0.
          2    1    1    2  501    0 -0.20070046569E+03  0.63890829153E+02 -0.32990613568E+02  0.21319262549E+03  0.00000000000E+00 0. -1.
<mgrwt>
<rscale>  3 0.24492390E+03</rscale>
<asrwt>0</asrwt>
<pdfrwt beam="1">  1       21 0.38842584E-01 0.24492390E+03</pdfrwt>
<pdfrwt beam="2">  1        2 0.33146309E-01 0.24492390E+03</pdfrwt>
<totfact> 0.12263895E+04</totfact>
</mgrwt>
</event>
<event>
 4    0  0.1384147E-001  0.2508985E+03  0.7546771E-02  0.1112738E+00
         21   -1    0    0  501  502  0.00000000000E+00  0.00000000000E+00  0.13922688955E+03  0.13922688955E+03  0.00000000000E+00 0. -1.
          2   -1    0    0  502    0 -0.00000000000E+00 -0.00000000000E+00 -0.59589601621E+03  0.59589601621E+03  0.00000000000E+00 0. -1.
         25    1    1    2    0    0 -0.21716132969E+03  0.12885434554E+02 -0.25511403407E+02  0.25219220694E+03  0.12500000000E+03 0.  0.
          2    1    1    2  501    0  0.21716132969E+03 -0.12885434554E+02 -0.43115772326E+03  0.48293069882E+03  0.00000000000E+00 0. -1.
<mgrwt>
<rscale>  3 0.25089854E+03</rscale>
<asrwt>0</asrwt>
<pdfrwt beam="1">  1       21 0.21419522E-01 0.25089854E+03</pdfrwt>
<pdfrwt beam="2">  1        2 0.91676309E-01 0.25089854E+03</pdfrwt>
<totfact> 0.12818062E+04</totfact>
</mgrwt>
</event>
<event>
 4    0  0.1347546E-001  0.4211020E+03  0.7546771E-02  0.1036708E+00
          1   -1    0    0  502    0 -0.00000000000E+00  0.00000000000E+00  0.13569010175E+04  0.13569010175E+04  0.00000000000E+00 0.  1.
         21   -1    0    0  501  502  0.00000000000E+00 -0.00000000000E+00 -0.19135539321E+03  0.19135539321E+03  0.00000000000E+00 0.  1.
         25    1    1    2    0    0 -0.35952015953E+03  0.18013088152E+03  0.13528377382E+03  0.44229919630E+03  0.12500000000E+03 0.  0.
          1    1    1    2  501    0  0.35952015953E+03 -0.18013088152E+03  0.10302618505E+04  0.11059572144E+04  0.00000000000E+00 0.  1.
<mgrwt>
<rscale>  3 0.42110198E+03</rscale>
<asrwt>0</asrwt>
<pdfrwt beam="1">  1       21 0.29439292E-01 0.42110198E+03</pdfrwt>
<pdfrwt beam="2">  1        1 0.20875400E+00 0.42110198E+03</pdfrwt>
<totfact> 0.10197745E+03</totfact>
</mgrwt>
</event>
<event>
 4    0  0.1681295E-001  0.3222811E+03  0.7546771E-02  0.1074604E+00
         -2   -1    0    0    0  501 -0.00000000000E+00  0.00000000000E+00  0.68437990573E+03  0.68437990573E+03  0.00000000000E+00 0. -1.
         21   -1    0    0  501  502  0.00000000000E+00 -0.00000000000E+00 -0.14109238640E+03  0.14109238640E+03  0.00000000000E+00 0. -1.
         25    1    1    2    0    0  0.72247153048E+02 -0.28813270165E+03  0.31691573510E+03  0.45199633631E+03  0.12500000000E+03 0.  0.
         -2    1    1    2    0  502 -0.72247153048E+02  0.28813270165E+03  0.22637178423E+03  0.37347595582E+03  0.00000000000E+00 0. -1.
<mgrwt>
<rscale>  3 0.32228110E+03</rscale>
<asrwt>0</asrwt>
<pdfrwt beam="1">  1       21 0.21706521E-01 0.32228110E+03</pdfrwt>
<pdfrwt beam="2">  1       -2 0.10528921E+00 0.32228110E+03</pdfrwt>
<totfact> 0.12002166E+03</totfact>
</mgrwt>
</event>
<event>
 4    0  0.1002184E-001  0.2575859E+03  0.7546771E-02  0.1108602E+00
         21   -1    0    0  501  502  0.00000000000E+00  0.00000000000E+00  0.79999361064E+02  0.79999361064E+02  0.00000000000E+00 0. -1.
         -1   -1    0    0    0  501 -0.00000000000E+00 -0.00000000000E+00 -0.80465354407E+03  0.80465354407E+03  0.00000000000E+00 0.  1.
         25    1    1    2    0    0  0.22402399814E+03 -0.23210586407E+02 -0.24847672723E+03  0.35789826353E+03  0.12500000000E+03 0.  0.
         -1    1    1    2    0  502 -0.22402399814E+03  0.23210586407E+02 -0.47617745578E+03  0.52675464161E+03  0.00000000000E+00 0.  1.
<mgrwt>
<rscale>  3 0.25758588E+03</rscale>
<asrwt>0</asrwt>
<pdfrwt beam="1">  1       21 0.12307594E-01 0.25758588E+03</pdfrwt>
<pdfrwt beam="2">  1       -1 0.12379285E+00 0.25758588E+03</pdfrwt>
<totfact> 0.31949227E+03</totfact>
</mgrwt>
</event>
<event>
 4    0  0.1367055E-001  0.2519330E+03  0.7546771E-02  0.1112089E+00
          1   -1    0    0  502    0 -0.00000000000E+00  0.00000000000E+00  0.30113356736E+04  0.30113356736E+04  0.00000000000E+00 0.  1.
         21   -1    0    0  501  502  0.00000000000E+00 -0.00000000000E+00 -0.22611557305E+02  0.22611557305E+02  0.00000000000E+00 0.  1.
         25    1    1    2    0    0  0.16933201289E+03  0.13846262329E+03  0.92605019880E+03  0.95970787188E+03  0.12500000000E+03 0.  0.
          1    1    1    2  501    0 -0.16933201289E+03 -0.13846262329E+03  0.20626739175E+04  0.20742393591E+04  0.00000000000E+00 0.  1.
<mgrwt>
<rscale>  3 0.25193298E+03</rscale>
<asrwt>0</asrwt>
<pdfrwt beam="1">  1       21 0.34787035E-02 0.25193298E+03</pdfrwt>
<pdfrwt beam="2">  1        1 0.46328209E+00 0.25193298E+03</pdfrwt>
<totfact> 0.39700095E+03</totfact>
</mgrwt>
</event>
<event>
 4    0  0.1002184E-001  0.2453307E+03  0.7546771E-02  0.1116292E+00
         21   -1    0    0  501  502  0.00000000000E+00  0.00000000000E+00  0.23672566678E+03  0.23672566678E+03  0.00000000000E+00 0. -1.
         -1   -1    0    0    0  501 -0.00000000000E+00 -0.00000000000E+00 -0.30232707258E+03  0.30232707258E+03  0.00000000000E+00 0.  1.
         25    1    1    2    0    0 -0.13235153153E+02  0.21068219264E+03  0.10576169351E+03  0.26715667947E+03  0.12500000000E+03 0.  0.
         -1    1    1    2    0  502  0.13235153153E+02 -0.21068219264E+03 -0.17136309931E+03  0.27189605988E+03  0.00000000000E+00 0.  1.
<mgrwt>
<rscale>  3 0.24533071E+03</rscale>
<asrwt>0</asrwt>
<pdfrwt beam="1">  1       21 0.36419333E-01 0.24533071E+03</pdfrwt>
<pdfrwt beam="2">  1       -1 0.46511857E-01 0.24533071E+03</pdfrwt>
<totfact> 0.31109260E+03</totfact>
</mgrwt>
</event>
<event>
 4    0  0.1589639E-001  0.2738530E+03  0.7546771E-02  0.1099094E+00
         21   -1    0    0  501  502  0.00000000000E+00  0.00000000000E+00  0.43589132347E+02  0.43589132347E+02  0.00000000000E+00 0.  1.
          2   -1    0    0  502    0 -0.00000000000E+00 -0.00000000000E+00 -0.20202850900E+04  0.20202850900E+04  0.00000000000E+00 0.  1.
         25    1    1    2    0    0  0.23170107013E+03  0.75399490038E+02 -0.15367484540E+04  0.15609584491E+04  0.12500000000E+03 0.  0.
          2    1    1    2  501    0 -0.23170107013E+03 -0.75399490038E+02 -0.43994750371E+03  0.50291577328E+03  0.00000000000E+00 0.  1.
<mgrwt>
<rscale>  3 0.27385301E+03</rscale>
<asrwt>0</asrwt>
<pdfrwt beam="1">  1       21 0.67060235E-02 0.27385301E+03</pdfrwt>
<pdfrwt beam="2">  1        2 0.31081294E+00 0.27385301E+03</pdfrwt>
<totfact> 0.14910556E+04</totfact>
</mgrwt>
</event>
<event>
 4    0  0.1718408E-001  0.2457002E+03  0.7546771E-02  0.1116053E+00
         21   -1    0    0  501  502  0.00000000000E+00  0.00000000000E+00  0.75268905509E+02  0.75268905509E+02  0.00000000000E+00 0. -1.
         -1   -1    0    0    0  501 -0.00000000000E+00 -0.00000000000E+00 -0.11224218717E+04  0.11224218717E+04  0.00000000000E+00 0. -1.
         25    1    1    2    0    0 -0.17183113984E+03 -0.12335990729E+03 -0.17860746651E+03  0.30375851335E+03  0.12500000000E+03 0.  0.
         -1    1    1    2    0  502  0.17183113984E+03  0.12335990729E+03 -0.86854549972E+03  0.89393226390E+03  0.00000000000E+00 0. -1.
<mgrwt>
<rscale>  3 0.24570024E+03</rscale>
<asrwt>0</asrwt>
<pdfrwt beam="1">  1       21 0.11579833E-01 0.24570024E+03</pdfrwt>
<pdfrwt beam="2">  1       -1 0.17268027E+00 0.24570024E+03</pdfrwt>
<totfact> 0.15040416E+03</totfact>
</mgrwt>
</event>
<event>
 4    0  0.1002184E-001  0.2909307E+03  0.7546771E-02  0.1089864E+00
         -2   -1    0    0    0  501 -0.00000000000E+00  0.00000000000E+00  0.12406197738E+03  0.12406197738E+03  0.00000000000E+00 0.  1.
         21   -1    0    0  501  502  0.00000000000E+00 -0.00000000000E+00 -0.96516490489E+03  0.96516490489E+03  0.00000000000E+00 0. -1.
         25    1    1    2    0    0  0.19520230333E+03 -0.17581733125E+03 -0.76078511807E+03  0.81451499009E+03  0.12500000000E+03 0.  0.
         -2    1    1    2    0  502 -0.19520230333E+03  0.17581733125E+03 -0.80317809442E+02  0.27471189218E+03  0.00000000000E+00 0.  1.
<mgrwt>
<rscale>  3 0.29093070E+03</rscale>
<asrwt>0</asrwt>
<pdfrwt beam="1">  1       21 0.14848691E+00 0.29093070E+03</pdfrwt>
<pdfrwt beam="2">  1       -2 0.19086458E-01 0.29093070E+03</pdfrwt>
<totfact> 0.53149786E+02</totfact>
</mgrwt>
</event>
<event>
 4    0  0.1002184E-001  0.3860592E+03  0.7546771E-02  0.1048717E+00
         21   -1    0    0  501  502  0.00000000000E+00  0.00000000000E+00  0.12532537968E+03  0.12532537968E+03  0.00000000000E+00 0.  1.
          3   -1    0    0  502    0 -0.00000000000E+00 -0.00000000000E+00 -0.13899247174E+04  0.13899247174E+04  0.00000000000E+00 0. -1.
         25    1    1    2    0    0  0.40513572827E+02 -0.36300877916E+03 -0.31646449497E+03  0.49919084517E+03  0.12500000000E+03 0.  0.
          3    1    1    2  501    0 -0.40513572827E+02  0.36300877916E+03 -0.94813484276E+03  0.10160592519E+04  0.00000000000E+00 0. -1.
<mgrwt>
<rscale>  3 0.38605922E+03</rscale>
<asrwt>0</asrwt>
<pdfrwt beam="1">  1       21 0.19280829E-01 0.38605922E+03</pdfrwt>
<pdfrwt beam="2">  1        3 0.21383456E+00 0.38605922E+03</pdfrwt>
<totfact> 0.15555606E+02</totfact>
</mgrwt>
</event>
<event>
 4    0  0.1231553E-001  0.2947624E+03  0.7546771E-02  0.1087889E+00
         21   -1    0    0  501  502  0.00000000000E+00  0.00000000000E+00  0.10926864953E+03  0.10926864953E+03  0.00000000000E+00 0.  1.
          2   -1    0    0  502    0 -0.00000000000E+00 -0.00000000000E+00 -0.10468716755E+04  0.10468716755E+04  0.00000000000E+00 0. -1.
         25    1    1    2    0    0  0.11514111564E+03  0.24083691094E+03 -0.16299865653E+03  0.33682852642E+03  0.12500000000E+03 0.  0.
          2    1    1    2  501    0 -0.11514111564E+03 -0.24083691094E+03 -0.77460436943E+03  0.81931179859E+03  0.00000000000E+00 0. -1.
<mgrwt>
<rscale>  3 0.29476244E+03</rscale>
<asrwt>0</asrwt>
<pdfrwt beam="1">  1       21 0.16810562E-01 0.29476244E+03</pdfrwt>
<pdfrwt beam="2">  1        2 0.16105718E+00 0.29476244E+03</pdfrwt>
<totfact> 0.96966941E+03</totfact>
</mgrwt>
</event>
<event>
 4    0  0.1260805E-001  0.2392332E+03  0.7546771E-02  0.1120305E+00
          2   -1    0    0  502    0 -0.00000000000E+00  0.00000000000E+00  0.19359150619E+04  0.19359150619E+04  0.00000000000E+00 0.  1.
         21   -1    0    0  501  502  0.00000000000E+00 -0.00000000000E+00 -0.54569634159E+02  0.54569634159E+02  0.00000000000E+00 0.  1.
         25    1    1    2    0    0 -0.62453956840E+02  0.19418301117E+03  0.24847768876E+03  0.34492564469E+03  0.12500000000E+03 0.  0.
          2    1    1    2  501    0  0.62453956840E+02 -0.19418301117E+03  0.16328677390E+04  0.16455590514E+04  0.00000000000E+00 0.  1.
<mgrwt>
<rscale>  3 0.23923323E+03</rscale>
<asrwt>0</asrwt>
<pdfrwt beam="1">  1       21 0.83953298E-02 0.23923323E+03</pdfrwt>
<pdfrwt beam="2">  1        2 0.29783303E+00 0.23923323E+03</pdfrwt>
<totfact> 0.11276717E+04</totfact>
</mgrwt>
</event>
<event>
 4    0  0.1040943E-001  0.2956312E+03  0.7546771E-02  0.1087445E+00
          3   -1    0    0  502    0 -0.00000000000E+00  0.00000000000E+00  0.21356205075E+03  0.21356205075E+03  0.00000000000E+00 0. -1.
         21   -1    0    0  501  502  0.00000000000E+00 -0.00000000000E+00 -0.81674018711E+03  0.81674018711E+03  0.00000000000E+00 0.  1.
         25    1    1    2    0    0 -0.15691328041E+03  0.21714281026E+03 -0.68837968016E+03  0.74917578823E+03  0.12500000000E+03 0.  0.
          3    1    1    2  501    0  0.15691328041E+03 -0.21714281026E+03  0.85201543794E+02  0.28112644963E+03  0.00000000000E+00 0. -1.
<mgrwt>
<rscale>  3 0.29563115E+03</rscale>
<asrwt>0</asrwt>
<pdfrwt beam="1">  1       21 0.12565234E+00 0.29563115E+03</pdfrwt>
<pdfrwt beam="2">  1        3 0.32855700E-01 0.29563115E+03</pdfrwt>
<totfact> 0.20364668E+02</totfact>
</mgrwt>
</event>
<event>
 4    0  0.1002184E-001  0.2373707E+03  0.7546771E-02  0.1121557E+00
         21   -1    0    0  501  502  0.00000000000E+00  0.00000000000E+00  0.40698029225E+03  0.40698029225E+03  0.00000000000E+00 0.  1.
          1   -1    0    0  502    0 -0.00000000000E+00 -0.00000000000E+00 -0.14829056797E+03  0.14829056797E+03  0.00000000000E+00 0. -1.
         25    1    1    2    0    0 -0.20170326589E+03  0.59705963309E+01  0.26188703006E+03  0.35345391779E+03  0.12500000000E+03 0.  0.
          1    1    1    2  501    0  0.20170326589E+03 -0.59705963309E+01 -0.31973057710E+01  0.20181694244E+03  0.00000000000E+00 0. -1.
<mgrwt>
<rscale>  3 0.23737071E+03</rscale>
<asrwt>0</asrwt>
<pdfrwt beam="1">  1       21 0.62612352E-01 0.23737071E+03</pdfrwt>
<pdfrwt beam="2">  1        1 0.22813934E-01 0.23737071E+03</pdfrwt>
<totfact> 0.54253619E+03</totfact>
</mgrwt>
</event>
<event>
 4    0  0.1002184E-001  0.3698668E+03  0.7546771E-02  0.1054744E+00
         21   -1    0    0  501  502  0.00000000000E+00  0.00000000000E+00  0.68403922494E+02  0.68403922494E+02  0.00000000000E+00 0. -1.
         -4   -1    0    0    0  501 -0.00000000000E+00 -0.00000000000E+00 -0.18856058776E+04  0.18856058776E+04  0.00000000000E+00 0.  1.
         25    1    1    2    0    0 -0.33185265436E+03  0.10512039043E+03 -0.96492823612E+03  0.10333866564E+04  0.12500000000E+03 0.  0.
         -4    1    1    2    0  502  0.33185265436E+03 -0.10512039043E+03 -0.85227371895E+03  0.92062314369E+03  0.00000000000E+00 0.  1.
<mgrwt>
<rscale>  3 0.36986684E+03</rscale>
<asrwt>0</asrwt>
<pdfrwt beam="1">  1       21 0.10523680E-01 0.36986684E+03</pdfrwt>
<pdfrwt beam="2">  1       -4 0.29009322E+00 0.36986684E+03</pdfrwt>
<totfact> 0.12601616E+02</totfact>
</mgrwt>
</event>
<event>
 4    0  0.1005553E-001  0.2480332E+03  0.7546771E-02  0.1114554E+00
         21   -1    0    0  501  502  0.00000000000E+00  0.00000000000E+00  0.40940180145E+02  0.40940180145E+02  0.00000000000E+00 0. -1.
          2   -1    0    0  502    0 -0.00000000000E+00 -0.00000000000E+00 -0.32396635190E+04  0.32396635190E+04  0.00000000000E+00 0.  1.
         25    1    1    2    0    0 -0.19178164810E+03  0.95473808574E+02 -0.38021094026E+03  0.45396124037E+03  0.12500000000E+03 0.  0.
          2    1    1    2  501    0  0.19178164810E+03 -0.95473808574E+02 -0.28185123986E+04  0.28266424588E+04  0.00000000000E+00 0.  1.
<mgrwt>
<rscale>  3 0.24803316E+03</rscale>
<asrwt>0</asrwt>
<pdfrwt beam="1">  1       21 0.62984883E-02 0.24803316E+03</pdfrwt>
<pdfrwt beam="2">  1        2 0.49840984E+00 0.24803316E+03</pdfrwt>
<totfact> 0.34618346E+03</totfact>
</mgrwt>
</event>
<event>
 4    0  0.1002184E-001  0.2470670E+03  0.7546771E-02  0.1115173E+00
          4   -1    0    0  502    0 -0.00000000000E+00  0.00000000000E+00  0.11044224719E+03  0.11044224719E+03  0.00000000000E+00 0. -1.
         21   -1    0    0  501  502  0.00000000000E+00 -0.00000000000E+00 -0.88181982827E+03  0.88181982827E+03  0.00000000000E+00 0.  1.
         25    1    1    2    0    0 -0.18800113760E+03  0.10036272318E+03 -0.73583496696E+03  0.77620564450E+03  0.12500000000E+03 0.  0.
          4    1    1    2  501    0  0.18800113760E+03 -0.10036272318E+03 -0.35542614118E+02  0.21605643096E+03  0.00000000000E+00 0. -1.
<mgrwt>
<rscale>  3 0.24706700E+03</rscale>
<asrwt>0</asrwt>
<pdfrwt beam="1">  1       21 0.13566459E+00 0.24706700E+03</pdfrwt>
<pdfrwt beam="2">  1        4 0.16991115E-01 0.24706700E+03</pdfrwt>
<totfact> 0.48866385E+02</totfact>
</mgrwt>
</event>
<event>
 4    0  0.1002184E-001  0.2394176E+03  0.7546771E-02  0.1120181E+00
         21   -1    0    0  501  502  0.00000000000E+00  0.00000000000E+00  0.10498717436E+03  0.10498717436E+03  0.00000000000E+00 0. -1.
          1   -1    0    0  502    0 -0.00000000000E+00 -0.00000000000E+00 -0.71708790985E+03  0.71708790985E+03  0.00000000000E+00 0.  1.
         25    1    1    2    0    0  0.20191390714E+03  0.30439396204E+02 -0.80471927335E+02  0.25257971777E+03  0.12500000000E+03 0.  0.
          1    1    1    2  501    0 -0.20191390714E+03 -0.30439396204E+02 -0.53162880816E+03  0.56949536644E+03  0.00000000000E+00 0.  1.
<mgrwt>
<rscale>  3 0.23941759E+03</rscale>
<asrwt>0</asrwt>
<pdfrwt beam="1">  1       21 0.16151873E-01 0.23941759E+03</pdfrwt>
<pdfrwt beam="2">  1        1 0.11032122E+00 0.23941759E+03</pdfrwt>
<totfact> 0.10272402E+04</totfact>
</mgrwt>
</event>
<event>
 4    0  0.1002184E-001  0.4314810E+03  0.7546771E-02  0.1033393E+00
          2   -1    0    0  502    0 -0.00000000000E+00  0.00000000000E+00  0.38035739373E+04  0.38035739373E+04  0.00000000000E+00 0.  1.
         21   -1    0    0  501  502  0.00000000000E+00 -0.00000000000E+00 -0.47045121165E+02  0.47045121165E+02  0.00000000000E+00 0. -1.
         25    1    1    2    0    0  0.38384833479E+03 -0.15235244834E+03  0.18022008092E+04  0.18531334462E+04  0.12500000000E+03 0.  0.
          2    1    1    2  501    0 -0.38384833479E+03  0.15235244834E+03  0.19543280070E+04  0.19974856123E+04  0.00000000000E+00 0.  1.
<mgrwt>
<rscale>  3 0.43148095E+03</rscale>
<asrwt>0</asrwt>
<pdfrwt beam="1">  1       21 0.72377140E-02 0.43148095E+03</pdfrwt>
<pdfrwt beam="2">  1        2 0.58516498E+00 0.43148095E+03</pdfrwt>
<totfact> 0.10476630E+03</totfact>
</mgrwt>
</event>
<event>
 4    0  0.1381844E-001  0.2816818E+03  0.7546771E-02  0.1094774E+00
         21   -1    0    0  501  502  0.00000000000E+00  0.00000000000E+00  0.68371383130E+03  0.68371383130E+03  0.00000000000E+00 0.  1.
         -2   -1    0    0    0  501 -0.00000000000E+00 -0.00000000000E+00 -0.13587516663E+03  0.13587516663E+03  0.00000000000E+00 0.  1.
         25    1    1    2    0    0 -0.25153037580E+03 -0.21262227214E+02  0.48272468377E+03  0.55889867827E+03  0.12500000000E+03 0.  0.
         -2    1    1    2    0  502  0.25153037580E+03  0.21262227214E+02  0.65113980897E+02  0.26069031966E+03  0.00000000000E+00 0.  1.
<mgrwt>
<rscale>  3 0.28168176E+03</rscale>
<asrwt>0</asrwt>
<pdfrwt beam="1">  1       21 0.10518674E+00 0.28168176E+03</pdfrwt>
<pdfrwt beam="2">  1       -2 0.20903872E-01 0.28168176E+03</pdfrwt>
<totfact> 0.10930775E+03</totfact>
</mgrwt>
</event>
<event>
 4    0  0.1420557E-001  0.2899178E+03  0.7546771E-02  0.1090392E+00
         21   -1    0    0  501  502  0.00000000000E+00  0.00000000000E+00  0.89288573227E+02  0.89288573227E+02  0.00000000000E+00 0.  1.
          2   -1    0    0  502    0 -0.00000000000E+00 -0.00000000000E+00 -0.10870607327E+04  0.10870607327E+04  0.00000000000E+00 0.  1.
         25    1    1    2    0    0  0.26066822824E+03  0.21895093969E+02 -0.24551306372E+03  0.37990654748E+03  0.12500000000E+03 0.  0.
          2    1    1    2  501    0 -0.26066822824E+03 -0.21895093969E+02 -0.75225909577E+03  0.79644275847E+03  0.00000000000E+00 0.  1.
<mgrwt>
<rscale>  3 0.28991778E+03</rscale>
<asrwt>0</asrwt>
<pdfrwt beam="1">  1       21 0.13736703E-01 0.28991778E+03</pdfrwt>
<pdfrwt beam="2">  1        2 0.16724012E+00 0.28991778E+03</pdfrwt>
<totfact> 0.13316956E+04</totfact>
</mgrwt>
</event>
<event>
 4    0  0.1002184E-001  0.3440493E+03  0.7546771E-02  0.1065084E+00
         21   -1    0    0  501  502  0.00000000000E+00  0.00000000000E+00  0.20181365878E+03  0.20181365878E+03  0.00000000000E+00 0.  1.
          2   -1    0    0  502    0 -0.00000000000E+00 -0.00000000000E+00 -0.67411114951E+03  0.67411114951E+03  0.00000000000E+00 0. -1.
         25    1    1    2    0    0 -0.14861429621E+03 -0.28400481910E+03 -0.52947485551E+02  0.34809967328E+03  0.12500000000E+03 0.  0.
          2    1    1    2  501    0  0.14861429621E+03  0.28400481910E+03 -0.41935000518E+03  0.52782513502E+03  0.00000000000E+00 0. -1.
<mgrwt>
<rscale>  3 0.34404934E+03</rscale>
<asrwt>0</asrwt>
<pdfrwt beam="1">  1       21 0.31048256E-01 0.34404934E+03</pdfrwt>
<pdfrwt beam="2">  1        2 0.10370941E+00 0.34404934E+03</pdfrwt>
<totfact> 0.52965665E+03</totfact>
</mgrwt>
</event>
<event>
 4    0  0.1307356E-001  0.3120415E+03  0.7546771E-02  0.1079371E+00
          2   -1    0    0  502    0 -0.00000000000E+00  0.00000000000E+00  0.25183265685E+04  0.25183265685E+04  0.00000000000E+00 0. -1.
         21   -1    0    0  501  502  0.00000000000E+00 -0.00000000000E+00 -0.10925282753E+03  0.10925282753E+03  0.00000000000E+00 0.  1.
         25    1    1    2    0    0  0.27038426457E+03  0.92936951986E+02  0.14249219805E+03  0.34303637427E+03  0.12500000000E+03 0.  0.
          2    1    1    2  501    0 -0.27038426457E+03 -0.92936951986E+02  0.22665815430E+04  0.22845430218E+04  0.00000000000E+00 0. -1.
<mgrwt>
<rscale>  3 0.31204155E+03</rscale>
<asrwt>0</asrwt>
<pdfrwt beam="1">  1       21 0.16808129E-01 0.31204155E+03</pdfrwt>
<pdfrwt beam="2">  1        2 0.38743481E+00 0.31204155E+03</pdfrwt>
<totfact> 0.15287299E+03</totfact>
</mgrwt>
</event>
<event>
 4    0  0.1560170E-001  0.2622497E+03  0.7546771E-02  0.1105799E+00
         21   -1    0    0  501  502  0.00000000000E+00  0.00000000000E+00  0.11906211826E+03  0.11906211826E+03  0.00000000000E+00 0. -1.
          2   -1    0    0  502    0 -0.00000000000E+00 -0.00000000000E+00 -0.15986199898E+04  0.15986199898E+04  0.00000000000E+00 0. -1.
         25    1    1    2    0    0  0.21365114698E+03  0.86620444307E+02 -0.46674612671E+02  0.26637085697E+03  0.12500000000E+03 0.  0.
          2    1    1    2  501    0 -0.21365114698E+03 -0.86620444307E+02 -0.14328832589E+04  0.14513112511E+04  0.00000000000E+00 0. -1.
<mgrwt>
<rscale>  3 0.26224972E+03</rscale>
<asrwt>0</asrwt>
<pdfrwt beam="1">  1       21 0.18317251E-01 0.26224972E+03</pdfrwt>
<pdfrwt beam="2">  1        2 0.24594150E+00 0.26224972E+03</pdfrwt>
<totfact> 0.41086712E+03</totfact>
</mgrwt>
</event>
<event>
 4    0  0.1440983E-001  0.2604286E+03  0.7546771E-02  0.1106886E+00
         21   -1    0    0  501  502  0.00000000000E+00  0.00000000000E+00  0.28136592771E+03  0.28136592771E+03  0.00000000000E+00 0. -1.
          1   -1    0    0  502    0 -0.00000000000E+00 -0.00000000000E+00 -0.53371227709E+03  0.53371227709E+03  0.00000000000E+00 0. -1.
         25    1    1    2    0    0 -0.26129470320E+02  0.22696982698E+03  0.18650061542E+03  0.32032098141E+03  0.12500000000E+03 0.  0.
          1    1    1    2  501    0  0.26129470320E+02 -0.22696982698E+03 -0.43884696480E+03  0.49475722339E+03  0.00000000000E+00 0. -1.
<mgrwt>
<rscale>  3 0.26042859E+03</rscale>
<asrwt>0</asrwt>
<pdfrwt beam="1">  1       21 0.43287066E-01 0.26042859E+03</pdfrwt>
<pdfrwt beam="2">  1        1 0.82109580E-01 0.26042859E+03</pdfrwt>
<totfact> 0.22891962E+03</totfact>
</mgrwt>
</event>
<event>
 4    0  0.1856368E-001  0.3045442E+03  0.7546771E-02  0.1082991E+00
         -4   -1    0    0    0  501 -0.00000000000E+00  0.00000000000E+00  0.69995012776E+03  0.69995012776E+03  0.00000000000E+00 0.  1.
         21   -1    0    0  501  502  0.00000000000E+00 -0.00000000000E+00 -0.40660516964E+03  0.40660516964E+03  0.00000000000E+00 0.  1.
         25    1    1    2    0    0 -0.20044967839E+03 -0.19220321306E+03 -0.31480018655E+03  0.43800263256E+03  0.12500000000E+03 0.  0.
         -4    1    1    2    0  502  0.20044967839E+03  0.19220321306E+03  0.60814514467E+03  0.66855266484E+03  0.00000000000E+00 0.  1.
<mgrwt>
<rscale>  3 0.30454417E+03</rscale>
<asrwt>0</asrwt>
<pdfrwt beam="1">  1       21 0.62554641E-01 0.30454417E+03</pdfrwt>
<pdfrwt beam="2">  1       -4 0.10768464E+00 0.30454417E+03</pdfrwt>
<totfact> 0.69571531E+01</totfact>
</mgrwt>
</event>
<event>
 4    0  0.1262377E-001  0.5040087E+03  0.7546771E-02  0.1012738E+00
         21   -1    0    0  501  502  0.00000000000E+00  0.00000000000E+00  0.52180413828E+03  0.52180413828E+03  0.00000000000E+00 0. -1.
          2   -1    0    0  502    0 -0.00000000000E+00 -0.00000000000E+00 -0.14338756444E+04  0.14338756444E+04  0.00000000000E+00 0.  1.
         25    1    1    2    0    0 -0.34096797320E+03 -0.34948624065E+03  0.34255027658E+03  0.60939763959E+03  0.12500000000E+03 0.  0.
          2    1    1    2  501    0  0.34096797320E+03  0.34948624065E+03 -0.12546217827E+04  0.13462821430E+04  0.00000000000E+00 0.  1.
<mgrwt>
<rscale>  3 0.50400872E+03</rscale>
<asrwt>0</asrwt>
<pdfrwt beam="1">  1       21 0.80277562E-01 0.50400872E+03</pdfrwt>
<pdfrwt beam="2">  1        2 0.22059625E+00 0.50400872E+03</pdfrwt>
<totfact> 0.22286273E+02</totfact>
</mgrwt>
</event>
<event>
 4    0  0.1002184E-001  0.2655974E+03  0.7546771E-02  0.1103826E+00
         21   -1    0    0  501  502  0.00000000000E+00  0.00000000000E+00  0.14921609792E+03  0.14921609792E+03  0.00000000000E+00 0.  1.
          2   -1    0    0  502    0 -0.00000000000E+00 -0.00000000000E+00 -0.33650102984E+04  0.33650102984E+04  0.00000000000E+00 0.  1.
         25    1    1    2    0    0 -0.90973761930E+01 -0.23416705402E+03  0.23344802481E+02  0.26662136307E+03  0.12500000000E+03 0.  0.
          2    1    1    2  501    0  0.90973761930E+01  0.23416705402E+03 -0.32391390030E+04  0.32476050333E+04  0.00000000000E+00 0.  1.
<mgrwt>
<rscale>  3 0.26559739E+03</rscale>
<asrwt>0</asrwt>
<pdfrwt beam="1">  1       21 0.22956325E-01 0.26559739E+03</pdfrwt>
<pdfrwt beam="2">  1        2 0.51769385E+00 0.26559739E+03</pdfrwt>
<totfact> 0.27600493E+02</totfact>
</mgrwt>
</event>
<event>
 4    0  0.1002184E-001  0.2920175E+03  0.7546771E-02  0.1089300E+00
          1   -1    0    0  502    0 -0.00000000000E+00  0.00000000000E+00  0.21018769173E+03  0.21018769173E+03  0.00000000000E+00 0. -1.
         21   -1    0    0  501  502  0.00000000000E+00 -0.00000000000E+00 -0.37458580346E+03  0.37458580346E+03  0.00000000000E+00 0.  1.
         25    1    1    2    0    0 -0.26376506616E+03 -0.87882429841E+01 -0.12616636190E+03  0.31810720554E+03  0.12500000000E+03 0.  0.
          1    1    1    2  501    0  0.26376506616E+03  0.87882429841E+01 -0.38231749826E+02  0.26666628965E+03  0.00000000000E+00 0. -1.
<mgrwt>
<rscale>  3 0.29201754E+03</rscale>
<asrwt>0</asrwt>
<pdfrwt beam="1">  1       21 0.57628585E-01 0.29201754E+03</pdfrwt>
<pdfrwt beam="2">  1        1 0.32336568E-01 0.29201754E+03</pdfrwt>
<totfact> 0.41123636E+03</totfact>
</mgrwt>
</event>
<event>
 4    0  0.1002184E-001  0.2408821E+03  0.7546771E-02  0.1119207E+00
         21   -1    0    0  501  502  0.00000000000E+00  0.00000000000E+00  0.88479961220E+03  0.88479961220E+03  0.00000000000E+00 0.  1.
          3   -1    0    0  502    0 -0.00000000000E+00 -0.00000000000E+00 -0.17788521200E+03  0.17788521200E+03  0.00000000000E+00 0.  1.
         25    1    1    2    0    0 -0.16192863443E+03 -0.12719394482E+03  0.80089902953E+03  0.83633930778E+03  0.12500000000E+03 0.  0.
          3    1    1    2  501    0  0.16192863443E+03  0.12719394482E+03 -0.93984629329E+02  0.22634551641E+03  0.00000000000E+00 0.  1.
<mgrwt>
<rscale>  3 0.24088209E+03</rscale>
<asrwt>0</asrwt>
<pdfrwt beam="1">  1       21 0.13612301E+00 0.24088209E+03</pdfrwt>
<pdfrwt beam="2">  1        3 0.27366956E-01 0.24088209E+03</pdfrwt>
<totfact> 0.23748728E+02</totfact>
</mgrwt>
</event>
<event>
 4    0  0.1117503E-001  0.2996476E+03  0.7546771E-02  0.1085417E+00
          1   -1    0    0  502    0 -0.00000000000E+00  0.00000000000E+00  0.42236201962E+03  0.42236201962E+03  0.00000000000E+00 0.  1.
         21   -1    0    0  501  502  0.00000000000E+00 -0.00000000000E+00 -0.12589062638E+04  0.12589062638E+04  0.00000000000E+00 0.  1.
         25    1    1    2    0    0 -0.24295266592E+03  0.12303519402E+03 -0.11944910560E+04  0.12315021476E+04  0.12500000000E+03 0.  0.
          1    1    1    2  501    0  0.24295266592E+03 -0.12303519402E+03  0.35794681178E+03  0.44976613580E+03  0.00000000000E+00 0.  1.
<mgrwt>
<rscale>  3 0.29964755E+03</rscale>
<asrwt>0</asrwt>
<pdfrwt beam="1">  1       21 0.19367788E+00 0.29964755E+03</pdfrwt>
<pdfrwt beam="2">  1        1 0.64978774E-01 0.29964755E+03</pdfrwt>
<totfact> 0.84500595E+01</totfact>
</mgrwt>
</event>
<event>
 4    0  0.1456624E-001  0.2509850E+03  0.7546771E-02  0.1112684E+00
         21   -1    0    0  501  502  0.00000000000E+00  0.00000000000E+00  0.12742458625E+03  0.12742458625E+03  0.00000000000E+00 0. -1.
          2   -1    0    0  502    0 -0.00000000000E+00 -0.00000000000E+00 -0.10191002265E+04  0.10191002265E+04  0.00000000000E+00 0. -1.
         25    1    1    2    0    0  0.65102731220E+02 -0.20767783281E+03 -0.24183517591E+02  0.25214735846E+03  0.12500000000E+03 0.  0.
          2    1    1    2  501    0 -0.65102731220E+02  0.20767783281E+03 -0.86749212262E+03  0.89437745425E+03  0.00000000000E+00 0. -1.
<mgrwt>
<rscale>  3 0.25098496E+03</rscale>
<asrwt>0</asrwt>
<pdfrwt beam="1">  1       21 0.19603782E-01 0.25098496E+03</pdfrwt>
<pdfrwt beam="2">  1        2 0.15678465E+00 0.25098496E+03</pdfrwt>
<totfact> 0.76494496E+03</totfact>
</mgrwt>
</event>
<event>
 4    0  0.1528151E-001  0.3353791E+03  0.7546771E-02  0.1068781E+00
         21   -1    0    0  501  502  0.00000000000E+00  0.00000000000E+00  0.23223969886E+03  0.23223969886E+03  0.00000000000E+00 0.  1.
          2   -1    0    0  502    0 -0.00000000000E+00 -0.00000000000E+00 -0.10765645673E+04  0.10765645673E+04  0.00000000000E+00 0. -1.
         25    1    1    2    0    0  0.39529480331E+02 -0.30869335051E+03  0.70312024430E+02  0.34267031568E+03  0.12500000000E+03 0.  0.
          2    1    1    2  501    0 -0.39529480331E+02  0.30869335051E+03 -0.91463689286E+03  0.96613395047E+03  0.00000000000E+00 0. -1.
<mgrwt>
<rscale>  3 0.33537914E+03</rscale>
<asrwt>0</asrwt>
<pdfrwt beam="1">  1       21 0.35729185E-01 0.33537914E+03</pdfrwt>
<pdfrwt beam="2">  1        2 0.16562531E+00 0.33537914E+03</pdfrwt>
<totfact> 0.21480769E+03</totfact>
</mgrwt>
</event>
<event>
 4    0  0.1002184E-001  0.3163162E+03  0.7546771E-02  0.1077357E+00
          2   -1    0    0  502    0 -0.00000000000E+00  0.00000000000E+00  0.13994306467E+03  0.13994306467E+03  0.00000000000E+00 0.  1.
         21   -1    0    0  501  502  0.00000000000E+00 -0.00000000000E+00 -0.20948726071E+04  0.20948726071E+04  0.00000000000E+00 0.  1.
         25    1    1    2    0    0  0.42261556785E+02 -0.28748027921E+03 -0.19156651807E+04  0.19416047575E+04  0.12500000000E+03 0.  0.
          2    1    1    2  501    0 -0.42261556785E+02  0.28748027921E+03 -0.39264361764E+02  0.29321091423E+03  0.00000000000E+00 0.  1.
<mgrwt>
<rscale>  3 0.31631622E+03</rscale>
<asrwt>0</asrwt>
<pdfrwt beam="1">  1       21 0.32228808E+00 0.31631622E+03</pdfrwt>
<pdfrwt beam="2">  1        2 0.21529703E-01 0.31631622E+03</pdfrwt>
<totfact> 0.70547014E+01</totfact>
</mgrwt>
</event>
<event>
 4    0  0.1643681E-001  0.2826557E+03  0.7546771E-02  0.1094247E+00
         21   -1    0    0  501  502  0.00000000000E+00  0.00000000000E+00  0.10210223920E+03  0.10210223920E+03  0.00000000000E+00 0. -1.
          2   -1    0    0  502    0 -0.00000000000E+00 -0.00000000000E+00 -0.11595337163E+04  0.11595337163E+04  0.00000000000E+00 0. -1.
         25    1    1    2    0    0  0.12798189854E+03  0.21883759655E+03 -0.15108319309E+03  0.32050022036E+03  0.12500000000E+03 0.  0.
          2    1    1    2  501    0 -0.12798189854E+03 -0.21883759655E+03 -0.90634828396E+03  0.94113573509E+03  0.00000000000E+00 0. -1.
<mgrwt>
<rscale>  3 0.28265573E+03</rscale>
<asrwt>0</asrwt>
<pdfrwt beam="1">  1       21 0.15708037E-01 0.28265573E+03</pdfrwt>
<pdfrwt beam="2">  1        2 0.17838981E+00 0.28265573E+03</pdfrwt>
<totfact> 0.94584414E+03</totfact>
</mgrwt>
</event>
<event>
 4    0  0.1127553E-001  0.2376241E+03  0.7546771E-02  0.1121386E+00
         21   -1    0    0  501  502  0.00000000000E+00  0.00000000000E+00  0.49636285863E+03  0.49636285863E+03  0.00000000000E+00 0. -1.
          2   -1    0    0  502    0 -0.00000000000E+00 -0.00000000000E+00 -0.32038294028E+03  0.32038294028E+03  0.00000000000E+00 0.  1.
         25    1    1    2    0    0 -0.15562680077E+03 -0.12892060249E+03  0.43051530849E+03  0.49174043327E+03  0.12500000000E+03 0.  0.
          2    1    1    2  501    0  0.15562680077E+03  0.12892060249E+03 -0.25453539014E+03  0.32500536564E+03  0.00000000000E+00 0.  1.
<mgrwt>
<rscale>  3 0.23762412E+03</rscale>
<asrwt>0</asrwt>
<pdfrwt beam="1">  1       21 0.76363517E-01 0.23762412E+03</pdfrwt>
<pdfrwt beam="2">  1        2 0.49289683E-01 0.23762412E+03</pdfrwt>
<totfact> 0.18949428E+03</totfact>
</mgrwt>
</event>
<event>
 4    0  0.1994744E-001  0.2717489E+03  0.7546771E-02  0.1100283E+00
         21   -1    0    0  501  502  0.00000000000E+00  0.00000000000E+00  0.50429390662E+02  0.50429390662E+02  0.00000000000E+00 0.  1.
         -3   -1    0    0    0  501 -0.00000000000E+00 -0.00000000000E+00 -0.13281978169E+04  0.13281978169E+04  0.00000000000E+00 0.  1.
         25    1    1    2    0    0  0.23091584879E+03 -0.70002234227E+02 -0.58492014983E+03  0.64496435847E+03  0.12500000000E+03 0.  0.
         -3    1    1    2    0  502 -0.23091584879E+03  0.70002234227E+02 -0.69284827640E+03  0.73366284909E+03  0.00000000000E+00 0.  1.
<mgrwt>
<rscale>  3 0.27174886E+03</rscale>
<asrwt>0</asrwt>
<pdfrwt beam="1">  1       21 0.77583689E-02 0.27174886E+03</pdfrwt>
<pdfrwt beam="2">  1       -3 0.20433810E+00 0.27174886E+03</pdfrwt>
<totfact> 0.93622023E+02</totfact>
</mgrwt>
</event>
<event>
 4    0  0.1598045E-001  0.2859907E+03  0.7546771E-02  0.1092461E+00
         21   -1    0    0  501  502  0.00000000000E+00  0.00000000000E+00  0.10683292752E+03  0.10683292752E+03  0.00000000000E+00 0.  1.
          2   -1    0    0  502    0 -0.00000000000E+00 -0.00000000000E+00 -0.13287186627E+04  0.13287186627E+04  0.00000000000E+00 0.  1.
         25    1    1    2    0    0  0.20191387555E+03 -0.15936267729E+03 -0.13067050206E+03  0.31442877756E+03  0.12500000000E+03 0.  0.
          2    1    1    2  501    0 -0.20191387555E+03  0.15936267729E+03 -0.10912152331E+04  0.11211228126E+04  0.00000000000E+00 0.  1.
<mgrwt>
<rscale>  3 0.28599069E+03</rscale>
<asrwt>0</asrwt>
<pdfrwt beam="1">  1       21 0.16435835E-01 0.28599069E+03</pdfrwt>
<pdfrwt beam="2">  1        2 0.20441825E+00 0.28599069E+03</pdfrwt>
<totfact> 0.69755857E+03</totfact>
</mgrwt>
</event>
<event>
 4    0  0.1002184E-001  0.2368613E+03  0.7546771E-02  0.1121902E+00
         21   -1    0    0  501  502  0.00000000000E+00  0.00000000000E+00  0.12672190222E+04  0.12672190222E+04  0.00000000000E+00 0.  1.
          1   -1    0    0  502    0 -0.00000000000E+00 -0.00000000000E+00 -0.50853334730E+02  0.50853334730E+02  0.00000000000E+00 0. -1.
         25    1    1    2    0    0  0.12398086754E+03  0.15845197937E+03  0.97739484263E+03  0.10056858176E+04  0.12500000000E+03 0.  0.
          1    1    1    2  501    0 -0.12398086754E+03 -0.15845197937E+03  0.23897084484E+03  0.31238653935E+03  0.00000000000E+00 0. -1.
<mgrwt>
<rscale>  3 0.23686132E+03</rscale>
<asrwt>0</asrwt>
<pdfrwt beam="1">  1       21 0.19495675E+00 0.23686132E+03</pdfrwt>
<pdfrwt beam="2">  1        1 0.78235910E-02 0.23686132E+03</pdfrwt>
<totfact> 0.13424222E+03</totfact>
</mgrwt>
</event>
<event>
 4    0  0.1550527E-001  0.2798217E+03  0.7546771E-02  0.1095786E+00
         21   -1    0    0  501  502  0.00000000000E+00  0.00000000000E+00  0.15247400843E+03  0.15247400843E+03  0.00000000000E+00 0. -1.
          1   -1    0    0  502    0 -0.00000000000E+00 -0.00000000000E+00 -0.71856336699E+03  0.71856336699E+03  0.00000000000E+00 0. -1.
         25    1    1    2    0    0 -0.10944706420E+03 -0.22515883466E+03 -0.32583145406E+02  0.28171230369E+03  0.12500000000E+03 0.  0.
          1    1    1    2  501    0  0.10944706420E+03  0.22515883466E+03 -0.53350621316E+03  0.58932507173E+03  0.00000000000E+00 0. -1.
<mgrwt>
<rscale>  3 0.27982166E+03</rscale>
<asrwt>0</asrwt>
<pdfrwt beam="1">  1       21 0.23457540E-01 0.27982166E+03</pdfrwt>
<pdfrwt beam="2">  1        1 0.11054821E+00 0.27982166E+03</pdfrwt>
<totfact> 0.50363594E+03</totfact>
</mgrwt>
</event>
<event>
 4    0  0.1357576E-001  0.2529396E+03  0.7546771E-02  0.1111461E+00
         21   -1    0    0  501  502  0.00000000000E+00  0.00000000000E+00  0.54691895848E+02  0.54691895848E+02  0.00000000000E+00 0.  1.
          2   -1    0    0  502    0 -0.00000000000E+00 -0.00000000000E+00 -0.10757147050E+04  0.10757147050E+04  0.00000000000E+00 0.  1.
         25    1    1    2    0    0  0.21926977319E+03  0.16558875925E+02 -0.67046053099E+03  0.71658618004E+03  0.12500000000E+03 0.  0.
          2    1    1    2  501    0 -0.21926977319E+03 -0.16558875925E+02 -0.35056227816E+03  0.41382042080E+03  0.00000000000E+00 0.  1.
<mgrwt>
<rscale>  3 0.25293958E+03</rscale>
<asrwt>0</asrwt>
<pdfrwt beam="1">  1       21 0.84141379E-02 0.25293958E+03</pdfrwt>
<pdfrwt beam="2">  1        2 0.16549457E+00 0.25293958E+03</pdfrwt>
<totfact> 0.32734925E+04</totfact>
</mgrwt>
</event>
<event>
 4    0  0.1468450E-001  0.2974195E+03  0.7546771E-02  0.1086538E+00
          2   -1    0    0  502    0 -0.00000000000E+00  0.00000000000E+00  0.22641740362E+04  0.22641740362E+04  0.00000000000E+00 0.  1.
         21   -1    0    0  501  502  0.00000000000E+00 -0.00000000000E+00 -0.14170070964E+03  0.14170070964E+03  0.00000000000E+00 0.  1.
         25    1    1    2    0    0 -0.71083530703E+02  0.26034687437E+03  0.33226747641E+02  0.29926974469E+03  0.12500000000E+03 0.  0.
          2    1    1    2  501    0  0.71083530703E+02 -0.26034687437E+03  0.20892465789E+04  0.21066050012E+04  0.00000000000E+00 0.  1.
<mgrwt>
<rscale>  3 0.29741951E+03</rscale>
<asrwt>0</asrwt>
<pdfrwt beam="1">  1       21 0.21800111E-01 0.29741951E+03</pdfrwt>
<pdfrwt beam="2">  1        2 0.34833444E+00 0.29741951E+03</pdfrwt>
<totfact> 0.12974225E+03</totfact>
</mgrwt>
</event>
<event>
 4    0  0.1002184E-001  0.3541979E+03  0.7546771E-02  0.1060905E+00
         21   -1    0    0  501  502  0.00000000000E+00  0.00000000000E+00  0.48699355618E+02  0.48699355618E+02  0.00000000000E+00 0. -1.
          2   -1    0    0  502    0 -0.00000000000E+00 -0.00000000000E+00 -0.37498935757E+04  0.37498935757E+04  0.00000000000E+00 0. -1.
         25    1    1    2    0    0 -0.28770529365E+03 -0.16448946474E+03 -0.75655596591E+03  0.83536402218E+03  0.12500000000E+03 0.  0.
          2    1    1    2  501    0  0.28770529365E+03  0.16448946474E+03 -0.29446382542E+04  0.29632289092E+04  0.00000000000E+00 0. -1.
<mgrwt>
<rscale>  3 0.35419785E+03</rscale>
<asrwt>0</asrwt>
<pdfrwt beam="1">  1       21 0.74922101E-02 0.35419785E+03</pdfrwt>
<pdfrwt beam="2">  1        2 0.57690659E+00 0.35419785E+03</pdfrwt>
<totfact> 0.11124875E+03</totfact>
</mgrwt>
</event>
<event>
 4    0  0.1566680E-001  0.2777817E+03  0.7546771E-02  0.1096907E+00
         21   -1    0    0  501  502  0.00000000000E+00  0.00000000000E+00  0.12139127289E+03  0.12139127289E+03  0.00000000000E+00 0. -1.
          2   -1    0    0  502    0 -0.00000000000E+00 -0.00000000000E+00 -0.17759067392E+04  0.17759067392E+04  0.00000000000E+00 0. -1.
         25    1    1    2    0    0 -0.24215763038E+03  0.53827214501E+02 -0.60756111670E+02  0.28434836394E+03  0.12500000000E+03 0.  0.
          2    1    1    2  501    0  0.24215763038E+03 -0.53827214501E+02 -0.15937593546E+04  0.16129496481E+04  0.00000000000E+00 0. -1.
<mgrwt>
<rscale>  3 0.27778173E+03</rscale>
<asrwt>0</asrwt>
<pdfrwt beam="1">  1       21 0.18675581E-01 0.27778173E+03</pdfrwt>
<pdfrwt beam="2">  1        2 0.27321641E+00 0.27778173E+03</pdfrwt>
<totfact> 0.31757153E+03</totfact>
</mgrwt>
</event>
<event>
 4    0  0.1280553E-001  0.4988091E+03  0.7546771E-02  0.1014090E+00
         21   -1    0    0  501  502  0.00000000000E+00  0.00000000000E+00  0.25841400516E+03  0.25841400516E+03  0.00000000000E+00 0. -1.
          2   -1    0    0  502    0 -0.00000000000E+00 -0.00000000000E+00 -0.93300703896E+03  0.93300703896E+03  0.00000000000E+00 0. -1.
         25    1    1    2    0    0 -0.36361445517E+03 -0.31775787440E+03 -0.35845506317E+03  0.61424797196E+03  0.12500000000E+03 0.  0.
          2    1    1    2  501    0  0.36361445517E+03  0.31775787440E+03 -0.31613797063E+03  0.57717307215E+03  0.00000000000E+00 0. -1.
<mgrwt>
<rscale>  3 0.49880912E+03</rscale>
<asrwt>0</asrwt>
<pdfrwt beam="1">  1       21 0.39756001E-01 0.49880912E+03</pdfrwt>
<pdfrwt beam="2">  1        2 0.14353954E+00 0.49880912E+03</pdfrwt>
<totfact> 0.20430424E+03</totfact>
</mgrwt>
</event>
<event>
 4    0  0.1569182E-001  0.2496304E+03  0.7546771E-02  0.1113539E+00
          2   -1    0    0  502    0 -0.00000000000E+00  0.00000000000E+00  0.13488065324E+04  0.13488065324E+04  0.00000000000E+00 0. -1.
         21   -1    0    0  501  502  0.00000000000E+00 -0.00000000000E+00 -0.45456429756E+02  0.45456429756E+02  0.00000000000E+00 0. -1.
         25    1    1    2    0    0 -0.21541748289E+03  0.16901098322E+02  0.45666636443E+03  0.52044164655E+03  0.12500000000E+03 0.  0.
          2    1    1    2  501    0  0.21541748289E+03 -0.16901098322E+02  0.84668373823E+03  0.87382131563E+03  0.00000000000E+00 0. -1.
<mgrwt>
<rscale>  3 0.24963040E+03</rscale>
<asrwt>0</asrwt>
<pdfrwt beam="1">  1       21 0.69932979E-02 0.24963040E+03</pdfrwt>
<pdfrwt beam="2">  1        2 0.20750867E+00 0.24963040E+03</pdfrwt>
<totfact> 0.31662945E+04</totfact>
</mgrwt>
</event>
<event>
 4    0  0.1480759E-001  0.2365510E+03  0.7546771E-02  0.1122112E+00
         21   -1    0    0  501  502  0.00000000000E+00  0.00000000000E+00  0.26627814954E+03  0.26627814954E+03  0.00000000000E+00 0. -1.
         -2   -1    0    0    0  501 -0.00000000000E+00 -0.00000000000E+00 -0.21217248477E+03  0.21217248477E+03  0.00000000000E+00 0. -1.
         25    1    1    2    0    0 -0.20059523555E+03 -0.96400458629E+01  0.12238345600E+03  0.26633454397E+03  0.12500000000E+03 0.  0.
         -2    1    1    2    0  502  0.20059523555E+03  0.96400458629E+01 -0.68277791230E+02  0.21211609035E+03  0.00000000000E+00 0. -1.
<mgrwt>
<rscale>  3 0.23655101E+03</rscale>
<asrwt>0</asrwt>
<pdfrwt beam="1">  1       21 0.40965869E-01 0.23655101E+03</pdfrwt>
<pdfrwt beam="2">  1       -2 0.32641921E-01 0.23655101E+03</pdfrwt>
<totfact> 0.40023493E+03</totfact>
</mgrwt>
</event>
<event>
 4    0  0.1002184E-001  0.2750968E+03  0.7546771E-02  0.1098397E+00
         21   -1    0    0  501  502  0.00000000000E+00  0.00000000000E+00  0.30029745006E+03  0.30029745006E+03  0.00000000000E+00 0. -1.
          2   -1    0    0  502    0 -0.00000000000E+00 -0.00000000000E+00 -0.22569889943E+03  0.22569889943E+03  0.00000000000E+00 0.  1.
         25    1    1    2    0    0  0.19096301817E+03  0.15357859529E+03  0.27660304641E+02  0.27648390856E+03  0.12500000000E+03 0.  0.
          2    1    1    2  501    0 -0.19096301817E+03 -0.15357859529E+03  0.46938245988E+02  0.24951244093E+03  0.00000000000E+00 0.  1.
<mgrwt>
<rscale>  3 0.27509682E+03</rscale>
<asrwt>0</asrwt>
<pdfrwt beam="1">  1       21 0.46199608E-01 0.27509682E+03</pdfrwt>
<pdfrwt beam="2">  1        2 0.34722908E-01 0.27509682E+03</pdfrwt>
<totfact> 0.81237127E+03</totfact>
</mgrwt>
</event>
<event>
 4    0  0.1002184E-001  0.4550950E+03  0.7546771E-02  0.1026213E+00
          2   -1    0    0  502    0 -0.00000000000E+00  0.00000000000E+00  0.29609628676E+04  0.29609628676E+04  0.00000000000E+00 0. -1.
         21   -1    0    0  501  502  0.00000000000E+00 -0.00000000000E+00 -0.72426038775E+02  0.72426038775E+02  0.00000000000E+00 0. -1.
         25    1    1    2    0    0 -0.25165128111E+03 -0.35799177346E+03  0.10664802896E+04  0.11595221797E+04  0.12500000000E+03 0.  0.
          2    1    1    2  501    0  0.25165128111E+03  0.35799177346E+03  0.18220565392E+04  0.18738667267E+04  0.00000000000E+00 0. -1.
<mgrwt>
<rscale>  3 0.45509502E+03</rscale>
<asrwt>0</asrwt>
<pdfrwt beam="1">  1       21 0.11142470E-01 0.45509502E+03</pdfrwt>
<pdfrwt beam="2">  1        2 0.45553266E+00 0.45509502E+03</pdfrwt>
<totfact> 0.17204413E+03</totfact>
</mgrwt>
</event>
<event>
 4    0  0.1430968E-001  0.2561295E+03  0.7546771E-02  0.1109491E+00
         21   -1    0    0  501  502  0.00000000000E+00  0.00000000000E+00  0.51040200042E+03  0.51040200042E+03  0.00000000000E+00 0.  1.
          2   -1    0    0  502    0 -0.00000000000E+00 -0.00000000000E+00 -0.83923400078E+03  0.83923400078E+03  0.00000000000E+00 0.  1.
         25    1    1    2    0    0 -0.11436095133E+02  0.22326341094E+03  0.46176313003E+03  0.52804121353E+03  0.12500000000E+03 0.  0.
          2    1    1    2  501    0  0.11436095133E+02 -0.22326341094E+03 -0.79059513038E+03  0.82159478767E+03  0.00000000000E+00 0.  1.
<mgrwt>
<rscale>  3 0.25612953E+03</rscale>
<asrwt>0</asrwt>
<pdfrwt beam="1">  1       21 0.78523385E-01 0.25612953E+03</pdfrwt>
<pdfrwt beam="2">  1        2 0.12911292E+00 0.25612953E+03</pdfrwt>
<totfact> 0.58388498E+02</totfact>
</mgrwt>
</event>
<event>
 4    0  0.1002184E-001  0.2395086E+03  0.7546771E-02  0.1120121E+00
          2   -1    0    0  502    0 -0.00000000000E+00  0.00000000000E+00  0.18170458404E+04  0.18170458404E+04  0.00000000000E+00 0.  1.
         21   -1    0    0  501  502  0.00000000000E+00 -0.00000000000E+00 -0.38204967940E+02  0.38204967940E+02  0.00000000000E+00 0. -1.
         25    1    1    2    0    0  0.19709510355E+03 -0.53785613268E+02  0.44046924995E+03  0.50137563981E+03  0.12500000000E+03 0.  0.
          2    1    1    2  501    0 -0.19709510355E+03  0.53785613268E+02  0.13383716225E+04  0.13538751686E+04  0.00000000000E+00 0.  1.
<mgrwt>
<rscale>  3 0.23950861E+03</rscale>
<asrwt>0</asrwt>
<pdfrwt beam="1">  1       21 0.58776888E-02 0.23950861E+03</pdfrwt>
<pdfrwt beam="2">  1        2 0.27954545E+00 0.23950861E+03</pdfrwt>
<totfact> 0.24159803E+04</totfact>
</mgrwt>
</event>
<event>
 4    0  0.1002184E-001  0.2465397E+03  0.7546771E-02  0.1115511E+00
          1   -1    0    0  502    0 -0.00000000000E+00  0.00000000000E+00  0.30443574894E+03  0.30443574894E+03  0.00000000000E+00 0.  1.
         21   -1    0    0  501  502  0.00000000000E+00 -0.00000000000E+00 -0.24914362408E+03  0.24914362408E+03  0.00000000000E+00 0. -1.
         25    1    1    2    0    0  0.40131993920E+01  0.21246348920E+03 -0.12361489296E+03  0.27579427437E+03  0.12500000000E+03 0.  0.
          1    1    1    2  501    0 -0.40131993920E+01 -0.21246348920E+03  0.17890701782E+03  0.27778509866E+03  0.00000000000E+00 0.  1.
<mgrwt>
<rscale>  3 0.24653973E+03</rscale>
<asrwt>0</asrwt>
<pdfrwt beam="1">  1       21 0.38329788E-01 0.24653973E+03</pdfrwt>
<pdfrwt beam="2">  1        1 0.46836269E-01 0.24653973E+03</pdfrwt>
<totfact> 0.60894173E+03</totfact>
</mgrwt>
</event>
<event>
 4    0  0.1441000E-001  0.2675976E+03  0.7546771E-02  0.1102662E+00
          2   -1    0    0  502    0 -0.00000000000E+00  0.00000000000E+00  0.17797492244E+04  0.17797492244E+04  0.00000000000E+00 0. -1.
         21   -1    0    0  501  502  0.00000000000E+00 -0.00000000000E+00 -0.68510496512E+02  0.68510496512E+02  0.00000000000E+00 0. -1.
         25    1    1    2    0    0  0.38163863422E+02  0.23351017554E+03  0.24423352651E+03  0.36229614685E+03  0.12500000000E+03 0.  0.
          2    1    1    2  501    0 -0.38163863422E+02 -0.23351017554E+03  0.14670052014E+04  0.14859635740E+04  0.00000000000E+00 0. -1.
<mgrwt>
<rscale>  3 0.26759761E+03</rscale>
<asrwt>0</asrwt>
<pdfrwt beam="1">  1       21 0.10540078E-01 0.26759761E+03</pdfrwt>
<pdfrwt beam="2">  1        2 0.27380754E+00 0.26759761E+03</pdfrwt>
<totfact> 0.90177943E+03</totfact>
</mgrwt>
</event>
<event>
 4    0  0.1296454E-001  0.2602963E+03  0.7546771E-02  0.1106965E+00
         21   -1    0    0  501  502  0.00000000000E+00  0.00000000000E+00  0.14894357326E+03  0.14894357326E+03  0.00000000000E+00 0.  1.
          2   -1    0    0  502    0 -0.00000000000E+00 -0.00000000000E+00 -0.84102156510E+03  0.84102156510E+03  0.00000000000E+00 0. -1.
         25    1    1    2    0    0  0.21221011201E+03  0.84237931989E+02  0.94794002288E+00  0.26029802038E+03  0.12500000000E+03 0.  0.
          2    1    1    2  501    0 -0.21221011201E+03 -0.84237931989E+02 -0.69302593186E+03  0.72966711798E+03  0.00000000000E+00 0. -1.
<mgrwt>
<rscale>  3 0.26029629E+03</rscale>
<asrwt>0</asrwt>
<pdfrwt beam="1">  1       21 0.22914396E-01 0.26029629E+03</pdfrwt>
<pdfrwt beam="2">  1        2 0.12938793E+00 0.26029629E+03</pdfrwt>
<totfact> 0.73779252E+03</totfact>
</mgrwt>
</event>
<event>
 4    0  0.1415448E-001  0.3016141E+03  0.7546771E-02  0.1084437E+00
          2   -1    0    0  502    0 -0.00000000000E+00  0.00000000000E+00  0.21961398761E+04  0.21961398761E+04  0.00000000000E+00 0.  1.
         21   -1    0    0  501  502  0.00000000000E+00 -0.00000000000E+00 -0.42262327830E+02  0.42262327830E+02  0.00000000000E+00 0.  1.
         25    1    1    2    0    0  0.25145352343E+01  0.27448088524E+03  0.75822059473E+03  0.81600830236E+03  0.12500000000E+03 0.  0.
          2    1    1    2  501    0 -0.25145352343E+01 -0.27448088524E+03  0.13956569536E+04  0.14223939016E+04  0.00000000000E+00 0.  1.
<mgrwt>
<rscale>  3 0.30161412E+03</rscale>
<asrwt>0</asrwt>
<pdfrwt beam="1">  1       21 0.65018983E-02 0.30161412E+03</pdfrwt>
<pdfrwt beam="2">  1        2 0.33786758E+00 0.30161412E+03</pdfrwt>
<totfact> 0.12593315E+04</totfact>
</mgrwt>
</event>
<event>
 4    0  0.1002184E-001  0.2472712E+03  0.7546771E-02  0.1115042E+00
         21   -1    0    0  501  502  0.00000000000E+00  0.00000000000E+00  0.96210609568E+02  0.96210609568E+02  0.00000000000E+00 0.  1.
          1   -1    0    0  502    0 -0.00000000000E+00 -0.00000000000E+00 -0.58212397294E+03  0.58212397294E+03  0.00000000000E+00 0. -1.
         25    1    1    2    0    0  0.15765198088E+03  0.14374945894E+03 -0.18208268239E+03  0.30707842199E+03  0.12500000000E+03 0.  0.
          1    1    1    2  501    0 -0.15765198088E+03 -0.14374945894E+03 -0.30383068098E+03  0.37125616052E+03  0.00000000000E+00 0. -1.
<mgrwt>
<rscale>  3 0.24727122E+03</rscale>
<asrwt>0</asrwt>
<pdfrwt beam="1">  1       21 0.14801632E-01 0.24727122E+03</pdfrwt>
<pdfrwt beam="2">  1        1 0.89557536E-01 0.24727122E+03</pdfrwt>
<totfact> 0.16196067E+04</totfact>
</mgrwt>
</event>
<event>
 4    0  0.1002184E-001  0.2677220E+03  0.7546771E-02  0.1102590E+00
         21   -1    0    0  501  502  0.00000000000E+00  0.00000000000E+00  0.57852758789E+02  0.57852758789E+02  0.00000000000E+00 0. -1.
         -1   -1    0    0    0  501 -0.00000000000E+00 -0.00000000000E+00 -0.14509316339E+04  0.14509316339E+04  0.00000000000E+00 0.  1.
         25    1    1    2    0    0 -0.17321827368E+03  0.16138624255E+03 -0.35833517766E+03  0.44730212292E+03  0.12500000000E+03 0.  0.
         -1    1    1    2    0  502  0.17321827368E+03 -0.16138624255E+03 -0.10347436974E+04  0.10614822697E+04  0.00000000000E+00 0.  1.
<mgrwt>
<rscale>  3 0.26772204E+03</rscale>
<asrwt>0</asrwt>
<pdfrwt beam="1">  1       21 0.89004246E-02 0.26772204E+03</pdfrwt>
<pdfrwt beam="2">  1       -1 0.22322025E+00 0.26772204E+03</pdfrwt>
<totfact> 0.10907879E+03</totfact>
</mgrwt>
</event>
<event>
 4    0  0.1378022E-001  0.2519343E+03  0.7546771E-02  0.1112088E+00
         21   -1    0    0  501  502  0.00000000000E+00  0.00000000000E+00  0.60080285877E+03  0.60080285877E+03  0.00000000000E+00 0.  1.
          2   -1    0    0  502    0 -0.00000000000E+00 -0.00000000000E+00 -0.93288498591E+03  0.93288498591E+03  0.00000000000E+00 0.  1.
         25    1    1    2    0    0 -0.20295706672E+03  0.81573910044E+02  0.56059426575E+03  0.61460296495E+03  0.12500000000E+03 0.  0.
          2    1    1    2  501    0  0.20295706672E+03 -0.81573910044E+02 -0.89267639289E+03  0.91908487974E+03  0.00000000000E+00 0.  1.
<mgrwt>
<rscale>  3 0.25193426E+03</rscale>
<asrwt>0</asrwt>
<pdfrwt beam="1">  1       21 0.92431210E-01 0.25193426E+03</pdfrwt>
<pdfrwt beam="2">  1        2 0.14352077E+00 0.25193426E+03</pdfrwt>
<totfact> 0.34896342E+02</totfact>
</mgrwt>
</event>
<event>
 4    0  0.1389323E-001  0.2977276E+03  0.7546771E-02  0.1086382E+00
         21   -1    0    0  501  502  0.00000000000E+00  0.00000000000E+00  0.70540566052E+02  0.70540566052E+02  0.00000000000E+00 0. -1.
          2   -1    0    0  502    0 -0.00000000000E+00 -0.00000000000E+00 -0.11432372375E+04  0.11432372375E+04  0.00000000000E+00 0. -1.
         25    1    1    2    0    0  0.25814802347E+03 -0.79851827419E+02 -0.56690932707E+03  0.64033421078E+03  0.12500000000E+03 0.  0.
          2    1    1    2  501    0 -0.25814802347E+03  0.79851827419E+02 -0.50578734436E+03  0.57344359276E+03  0.00000000000E+00 0. -1.
<mgrwt>
<rscale>  3 0.29772759E+03</rscale>
<asrwt>0</asrwt>
<pdfrwt beam="1">  1       21 0.10852395E-01 0.29772759E+03</pdfrwt>
<pdfrwt beam="2">  1        2 0.17588265E+00 0.29772759E+03</pdfrwt>
<totfact> 0.18874317E+04</totfact>
</mgrwt>
</event>
<event>
 4    0  0.1002184E-001  0.2617176E+03  0.7546771E-02  0.1106116E+00
          1   -1    0    0  502    0 -0.00000000000E+00  0.00000000000E+00  0.69100323280E+02  0.69100323280E+02  0.00000000000E+00 0.  1.
         21   -1    0    0  501  502  0.00000000000E+00 -0.00000000000E+00 -0.14531797416E+04  0.14531797416E+04  0.00000000000E+00 0.  1.
         25    1    1    2    0    0 -0.67994712195E+01 -0.22983656584E+03 -0.23926942319E+03  0.35460673524E+03  0.12500000000E+03 0.  0.
          1    1    1    2  501    0  0.67994712195E+01  0.22983656584E+03 -0.11448099951E+04  0.11676733296E+04  0.00000000000E+00 0.  1.
<mgrwt>
<rscale>  3 0.26171756E+03</rscale>
<asrwt>0</asrwt>
<pdfrwt beam="1">  1       21 0.22356611E+00 0.26171756E+03</pdfrwt>
<pdfrwt beam="2">  1        1 0.10630819E-01 0.26171756E+03</pdfrwt>
<totfact> 0.57539836E+02</totfact>
</mgrwt>
</event>
<event>
 4    0  0.1002184E-001  0.2943596E+03  0.7546771E-02  0.1088095E+00
         21   -1    0    0  501  502  0.00000000000E+00  0.00000000000E+00  0.21900994340E+03  0.21900994340E+03  0.00000000000E+00 0.  1.
          1   -1    0    0  502    0 -0.00000000000E+00 -0.00000000000E+00 -0.36243997769E+03  0.36243997769E+03  0.00000000000E+00 0. -1.
         25    1    1    2    0    0 -0.26143048796E+03  0.51736537365E+02 -0.47266517250E+02  0.29813032886E+03  0.12500000000E+03 0.  0.
          1    1    1    2  501    0  0.26143048796E+03 -0.51736537365E+02 -0.96163517042E+02  0.28331959224E+03  0.00000000000E+00 0. -1.
<mgrwt>
<rscale>  3 0.29435959E+03</rscale>
<asrwt>0</asrwt>
<pdfrwt beam="1">  1       21 0.33693838E-01 0.29435959E+03</pdfrwt>
<pdfrwt beam="2">  1        1 0.55759995E-01 0.29435959E+03</pdfrwt>
<totfact> 0.62577500E+03</totfact>
</mgrwt>
</event>
<event>
 4    0  0.1453891E-001  0.2535740E+03  0.7546771E-02  0.1111067E+00
         21   -1    0    0  501  502  0.00000000000E+00  0.00000000000E+00  0.52509070645E+02  0.52509070645E+02  0.00000000000E+00 0.  1.
          1   -1    0    0  502    0 -0.00000000000E+00 -0.00000000000E+00 -0.23093634370E+04  0.23093634370E+04  0.00000000000E+00 0.  1.
         25    1    1    2    0    0 -0.20958314918E+03  0.68917827523E+02 -0.30082628782E+03  0.39344150622E+03  0.12500000000E+03 0.  0.
          1    1    1    2  501    0  0.20958314918E+03 -0.68917827523E+02 -0.19560280786E+04  0.19684310015E+04  0.00000000000E+00 0.  1.
<mgrwt>
<rscale>  3 0.25357398E+03</rscale>
<asrwt>0</asrwt>
<pdfrwt beam="1">  1       21 0.80783172E-02 0.25357398E+03</pdfrwt>
<pdfrwt beam="2">  1        1 0.35528674E+00 0.25357398E+03</pdfrwt>
<totfact> 0.27912934E+03</totfact>
</mgrwt>
</event>
<event>
 4    0  0.1455328E-001  0.3848275E+03  0.7546771E-02  0.1049164E+00
          1   -1    0    0  502    0 -0.00000000000E+00  0.00000000000E+00  0.92917095535E+03  0.92917095535E+03  0.00000000000E+00 0. -1.
         21   -1    0    0  501  502  0.00000000000E+00 -0.00000000000E+00 -0.16823386887E+03  0.16823386887E+03  0.00000000000E+00 0. -1.
         25    1    1    2    0    0  0.10536694822E+03  0.34837485378E+03  0.21368557426E+03  0.44017468938E+03  0.12500000000E+03 0.  0.
          1    1    1    2  501    0 -0.10536694822E+03 -0.34837485378E+03  0.54725151222E+03  0.65723013485E+03  0.00000000000E+00 0. -1.
<mgrwt>
<rscale>  3 0.38482754E+03</rscale>
<asrwt>0</asrwt>
<pdfrwt beam="1">  1       21 0.25882134E-01 0.38482754E+03</pdfrwt>
<pdfrwt beam="2">  1        1 0.14294937E+00 0.38482754E+03</pdfrwt>
<totfact> 0.27111859E+03</totfact>
</mgrwt>
</event>
<event>
 4    0  0.1346594E-001  0.2704089E+03  0.7546771E-02  0.1101046E+00
         21   -1    0    0  501  502  0.00000000000E+00  0.00000000000E+00  0.21047238025E+03  0.21047238025E+03  0.00000000000E+00 0.  1.
          2   -1    0    0  502    0 -0.00000000000E+00 -0.00000000000E+00 -0.31179301515E+03  0.31179301515E+03  0.00000000000E+00 0.  1.
         25    1    1    2    0    0  0.16769146003E+03 -0.17139289384E+03 -0.29815554775E+02  0.27204763762E+03  0.12500000000E+03 0.  0.
          2    1    1    2  501    0 -0.16769146003E+03  0.17139289384E+03 -0.71505080124E+02  0.25021775779E+03  0.00000000000E+00 0.  1.
<mgrwt>
<rscale>  3 0.27040886E+03</rscale>
<asrwt>0</asrwt>
<pdfrwt beam="1">  1       21 0.32380366E-01 0.27040886E+03</pdfrwt>
<pdfrwt beam="2">  1        2 0.47968156E-01 0.27040886E+03</pdfrwt>
<totfact> 0.11772083E+04</totfact>
</mgrwt>
</event>
<event>
 4    0  0.1002184E-001  0.2405306E+03  0.7546771E-02  0.1119440E+00
         -1   -1    0    0    0  501 -0.00000000000E+00  0.00000000000E+00  0.22098270394E+03  0.22098270394E+03  0.00000000000E+00 0.  1.
         21   -1    0    0  501  502  0.00000000000E+00 -0.00000000000E+00 -0.70680813580E+03  0.70680813580E+03  0.00000000000E+00 0. -1.
         25    1    1    2    0    0  0.76836820957E+02 -0.19059401888E+03 -0.63159195692E+03  0.67584271627E+03  0.12500000000E+03 0.  0.
         -1    1    1    2    0  502 -0.76836820957E+02  0.19059401888E+03  0.14576652507E+03  0.25194812347E+03  0.00000000000E+00 0.  1.
<mgrwt>
<rscale>  3 0.24053062E+03</rscale>
<asrwt>0</asrwt>
<pdfrwt beam="1">  1       21 0.10873971E+00 0.24053062E+03</pdfrwt>
<pdfrwt beam="2">  1       -1 0.33997339E-01 0.24053062E+03</pdfrwt>
<totfact> 0.49495434E+02</totfact>
</mgrwt>
</event>
<event>
 4    0  0.1351691E-001  0.2428337E+03  0.7546771E-02  0.1117919E+00
         21   -1    0    0  501  502  0.00000000000E+00  0.00000000000E+00  0.22929949126E+03  0.22929949126E+03  0.00000000000E+00 0. -1.
          2   -1    0    0  502    0 -0.00000000000E+00 -0.00000000000E+00 -0.10067309478E+04  0.10067309478E+04  0.00000000000E+00 0. -1.
         25    1    1    2    0    0 -0.18588815691E+03  0.93748713670E+02  0.15006156188E+03  0.28545875455E+03  0.12500000000E+03 0.  0.
          2    1    1    2  501    0  0.18588815691E+03 -0.93748713670E+02 -0.92749301846E+03  0.95057168456E+03  0.00000000000E+00 0. -1.
<mgrwt>
<rscale>  3 0.24283375E+03</rscale>
<asrwt>0</asrwt>
<pdfrwt beam="1">  1       21 0.35276845E-01 0.24283375E+03</pdfrwt>
<pdfrwt beam="2">  1        2 0.15488168E+00 0.24283375E+03</pdfrwt>
<totfact> 0.25065631E+03</totfact>
</mgrwt>
</event>
<event>
 4    0  0.1002184E-001  0.2382865E+03  0.7546771E-02  0.1120940E+00
         21   -1    0    0  501  502  0.00000000000E+00  0.00000000000E+00  0.16604498124E+03  0.16604498124E+03  0.00000000000E+00 0.  1.
         -3   -1    0    0    0  501 -0.00000000000E+00 -0.00000000000E+00 -0.61413677572E+03  0.61413677572E+03  0.00000000000E+00 0. -1.
         25    1    1    2    0    0  0.14632989656E+03 -0.14050987649E+03  0.49013162925E+02  0.24327505865E+03  0.12500000000E+03 0.  0.
         -3    1    1    2    0  502 -0.14632989656E+03  0.14050987649E+03 -0.49710495741E+03  0.53690669832E+03  0.00000000000E+00 0. -1.
<mgrwt>
<rscale>  3 0.23828652E+03</rscale>
<asrwt>0</asrwt>
<pdfrwt beam="1">  1       21 0.25545382E-01 0.23828652E+03</pdfrwt>
<pdfrwt beam="2">  1       -3 0.94482580E-01 0.23828652E+03</pdfrwt>
<totfact> 0.73566619E+02</totfact>
</mgrwt>
</event>
<event>
 4    0  0.1002184E-001  0.2636061E+03  0.7546771E-02  0.1104996E+00
         21   -1    0    0  501  502  0.00000000000E+00  0.00000000000E+00  0.15945963736E+03  0.15945963736E+03  0.00000000000E+00 0.  1.
          3   -1    0    0  502    0 -0.00000000000E+00 -0.00000000000E+00 -0.40846481964E+03  0.40846481964E+03  0.00000000000E+00 0. -1.
         25    1    1    2    0    0  0.37146132864E+02  0.22909238091E+03 -0.64360383205E+02  0.27134924563E+03  0.12500000000E+03 0.  0.
          3    1    1    2  501    0 -0.37146132864E+02 -0.22909238091E+03 -0.18464479907E+03  0.29657521138E+03  0.00000000000E+00 0. -1.
<mgrwt>
<rscale>  3 0.26360606E+03</rscale>
<asrwt>0</asrwt>
<pdfrwt beam="1">  1       21 0.24532253E-01 0.26360606E+03</pdfrwt>
<pdfrwt beam="2">  1        3 0.62840740E-01 0.26360606E+03</pdfrwt>
<totfact> 0.19355672E+03</totfact>
</mgrwt>
</event>
<event>
 4    0  0.1386393E-001  0.3991865E+03  0.7546771E-02  0.1044062E+00
          2   -1    0    0  502    0 -0.00000000000E+00  0.00000000000E+00  0.95943415296E+03  0.95943415296E+03  0.00000000000E+00 0. -1.
         21   -1    0    0  501  502  0.00000000000E+00 -0.00000000000E+00 -0.31429533747E+03  0.31429533747E+03  0.00000000000E+00 0.  1.
         25    1    1    2    0    0  0.24733010799E+02  0.37830296955E+03 -0.12251594420E+03  0.41756438447E+03  0.12500000000E+03 0.  0.
          2    1    1    2  501    0 -0.24733010799E+02 -0.37830296955E+03  0.76765475969E+03  0.85616510596E+03  0.00000000000E+00 0. -1.
<mgrwt>
<rscale>  3 0.39918650E+03</rscale>
<asrwt>0</asrwt>
<pdfrwt beam="1">  1       21 0.48353129E-01 0.39918650E+03</pdfrwt>
<pdfrwt beam="2">  1        2 0.14760525E+00 0.39918650E+03</pdfrwt>
<totfact> 0.13353054E+03</totfact>
</mgrwt>
</event>
<event>
 4    0  0.1002184E-001  0.3138138E+03  0.7546771E-02  0.1078532E+00
          2   -1    0    0  502    0 -0.00000000000E+00  0.00000000000E+00  0.73608561914E+02  0.73608561914E+02  0.00000000000E+00 0. -1.
         21   -1    0    0  501  502  0.00000000000E+00 -0.00000000000E+00 -0.13157481899E+04  0.13157481899E+04  0.00000000000E+00 0. -1.
         25    1    1    2    0    0 -0.17173769668E+03  0.23099845252E+03 -0.82387400446E+03  0.88161641134E+03  0.12500000000E+03 0.  0.
          2    1    1    2  501    0  0.17173769668E+03 -0.23099845252E+03 -0.41826562356E+03  0.50774034051E+03  0.00000000000E+00 0. -1.
<mgrwt>
<rscale>  3 0.31381383E+03</rscale>
<asrwt>0</asrwt>
<pdfrwt beam="1">  1       21 0.20242280E+00 0.31381383E+03</pdfrwt>
<pdfrwt beam="2">  1        2 0.11324394E-01 0.31381383E+03</pdfrwt>
<totfact> 0.80913281E+02</totfact>
</mgrwt>
</event>
<event>
 4    0  0.1002184E-001  0.2602815E+03  0.7546771E-02  0.1106974E+00
          1   -1    0    0  502    0 -0.00000000000E+00  0.00000000000E+00  0.53362551260E+03  0.53362551260E+03  0.00000000000E+00 0. -1.
         21   -1    0    0  501  502  0.00000000000E+00 -0.00000000000E+00 -0.12361019920E+03  0.12361019920E+03  0.00000000000E+00 0.  1.
         25    1    1    2    0    0  0.13760987562E+03 -0.18216745301E+03  0.31837505401E+03  0.41122880957E+03  0.12500000000E+03 0.  0.
          1    1    1    2  501    0 -0.13760987562E+03  0.18216745301E+03  0.91640259384E+02  0.24600690223E+03  0.00000000000E+00 0. -1.
<mgrwt>
<rscale>  3 0.26028150E+03</rscale>
<asrwt>0</asrwt>
<pdfrwt beam="1">  1       21 0.19016954E-01 0.26028150E+03</pdfrwt>
<pdfrwt beam="2">  1        1 0.82096232E-01 0.26028150E+03</pdfrwt>
<totfact> 0.11447204E+04</totfact>
</mgrwt>
</event>
<event>
 4    0  0.1002184E-001  0.2780310E+03  0.7546771E-02  0.1096769E+00
         -1   -1    0    0    0  501 -0.00000000000E+00  0.00000000000E+00  0.35089391809E+02  0.35089391809E+02  0.00000000000E+00 0. -1.
         21   -1    0    0  501  502  0.00000000000E+00 -0.00000000000E+00 -0.23644997551E+04  0.23644997551E+04  0.00000000000E+00 0. -1.
         25    1    1    2    0    0  0.19452843303E+03 -0.15438567091E+03 -0.17064392596E+04  0.17289407721E+04  0.12500000000E+03 0.  0.
         -1    1    1    2    0  502 -0.19452843303E+03  0.15438567091E+03 -0.62297110373E+03  0.67064837487E+03  0.00000000000E+00 0. -1.
<mgrwt>
<rscale>  3 0.27803102E+03</rscale>
<asrwt>0</asrwt>
<pdfrwt beam="1">  1       21 0.36376913E+00 0.27803102E+03</pdfrwt>
<pdfrwt beam="2">  1       -1 0.53983689E-02 0.27803102E+03</pdfrwt>
<totfact> 0.18545688E+02</totfact>
</mgrwt>
</event>
<event>
 4    0  0.1002184E-001  0.2578353E+03  0.7546771E-02  0.1108451E+00
          2   -1    0    0  502    0 -0.00000000000E+00  0.00000000000E+00  0.25325476116E+03  0.25325476116E+03  0.00000000000E+00 0. -1.
         21   -1    0    0  501  502  0.00000000000E+00 -0.00000000000E+00 -0.23641100607E+03  0.23641100607E+03  0.00000000000E+00 0.  1.
         25    1    1    2    0    0  0.10893878957E+03  0.19744972338E+03 -0.29267976793E+02  0.25949117056E+03  0.12500000000E+03 0.  0.
          2    1    1    2  501    0 -0.10893878957E+03 -0.19744972338E+03  0.46111731884E+02  0.23017459667E+03  0.00000000000E+00 0. -1.
<mgrwt>
<rscale>  3 0.25783532E+03</rscale>
<asrwt>0</asrwt>
<pdfrwt beam="1">  1       21 0.36370924E-01 0.25783532E+03</pdfrwt>
<pdfrwt beam="2">  1        2 0.38962271E-01 0.25783532E+03</pdfrwt>
<totfact> 0.11716217E+04</totfact>
</mgrwt>
</event>
<event>
 4    0  0.1002184E-001  0.5544194E+03  0.7546771E-02  0.1000476E+00
          2   -1    0    0  502    0 -0.00000000000E+00  0.00000000000E+00  0.25831879031E+04  0.25831879031E+04  0.00000000000E+00 0.  1.
         21   -1    0    0  501  502  0.00000000000E+00 -0.00000000000E+00 -0.19271479763E+03  0.19271479763E+03  0.00000000000E+00 0.  1.
         25    1    1    2    0    0  0.23533083371E+03  0.48618444841E+03  0.32866588190E+03  0.64451701382E+03  0.12500000000E+03 0.  0.
          2    1    1    2  501    0 -0.23533083371E+03 -0.48618444841E+03  0.20618072236E+04  0.21313856869E+04  0.00000000000E+00 0.  1.
<mgrwt>
<rscale>  3 0.55441944E+03</rscale>
<asrwt>0</asrwt>
<pdfrwt beam="1">  1       21 0.29648432E-01 0.55441944E+03</pdfrwt>
<pdfrwt beam="2">  1        2 0.39741350E+00 0.55441944E+03</pdfrwt>
<totfact> 0.43424248E+02</totfact>
</mgrwt>
</event>
<event>
 4    0  0.1002184E-001  0.3503428E+03  0.7546771E-02  0.1062474E+00
         21   -1    0    0  501  502  0.00000000000E+00  0.00000000000E+00  0.18297823931E+03  0.18297823931E+03  0.00000000000E+00 0. -1.
          2   -1    0    0  502    0 -0.00000000000E+00 -0.00000000000E+00 -0.63110880271E+03  0.63110880271E+03  0.00000000000E+00 0.  1.
         25    1    1    2    0    0 -0.16386700155E+03  0.28330665547E+03 -0.20032330832E+03  0.40357091457E+03  0.12500000000E+03 0.  0.
          2    1    1    2  501    0  0.16386700155E+03 -0.28330665547E+03 -0.24780725508E+03  0.41051612745E+03  0.00000000000E+00 0.  1.
<mgrwt>
<rscale>  3 0.35034277E+03</rscale>
<asrwt>0</asrwt>
<pdfrwt beam="1">  1       21 0.28150499E-01 0.35034277E+03</pdfrwt>
<pdfrwt beam="2">  1        2 0.97093660E-01 0.35034277E+03</pdfrwt>
<totfact> 0.69486425E+03</totfact>
</mgrwt>
</event>
<event>
 4    0  0.1002184E-001  0.2698731E+03  0.7546771E-02  0.1101352E+00
          1   -1    0    0  502    0 -0.00000000000E+00  0.00000000000E+00  0.99425111511E+03  0.99425111511E+03  0.00000000000E+00 0. -1.
         21   -1    0    0  501  502  0.00000000000E+00 -0.00000000000E+00 -0.80241151458E+02  0.80241151458E+02  0.00000000000E+00 0.  1.
         25    1    1    2    0    0  0.65631697039E+02 -0.22999775935E+03  0.24679815047E+03  0.36570591469E+03  0.12500000000E+03 0.  0.
          1    1    1    2  501    0 -0.65631697039E+02  0.22999775935E+03  0.66721181318E+03  0.70878635188E+03  0.00000000000E+00 0. -1.
<mgrwt>
<rscale>  3 0.26987310E+03</rscale>
<asrwt>0</asrwt>
<pdfrwt beam="1">  1       21 0.12344793E-01 0.26987310E+03</pdfrwt>
<pdfrwt beam="2">  1        1 0.15296170E+00 0.26987310E+03</pdfrwt>
<totfact> 0.99222050E+03</totfact>
</mgrwt>
</event>
<event>
 4    0  0.1002184E-001  0.2399285E+03  0.7546771E-02  0.1119840E+00
          1   -1    0    0  502    0 -0.00000000000E+00  0.00000000000E+00  0.97158221563E+03  0.97158221563E+03  0.00000000000E+00 0.  1.
         21   -1    0    0  501  502  0.00000000000E+00 -0.00000000000E+00 -0.61638919907E+02  0.61638919907E+02  0.00000000000E+00 0. -1.
         25    1    1    2    0    0  0.80656694384E+02  0.18824234447E+03  0.26947854437E+03  0.36081071004E+03  0.12500000000E+03 0.  0.
          1    1    1    2  501    0 -0.80656694384E+02 -0.18824234447E+03  0.64046475135E+03  0.67241042550E+03  0.00000000000E+00 0.  1.
<mgrwt>
<rscale>  3 0.23992849E+03</rscale>
<asrwt>0</asrwt>
<pdfrwt beam="1">  1       21 0.94829115E-02 0.23992849E+03</pdfrwt>
<pdfrwt beam="2">  1        1 0.14947418E+00 0.23992849E+03</pdfrwt>
<totfact> 0.16643742E+04</totfact>
</mgrwt>
</event>
<event>
 4    0  0.1207966E-001  0.2529235E+03  0.7546771E-02  0.1111471E+00
         21   -1    0    0  501  502  0.00000000000E+00  0.00000000000E+00  0.27743834161E+03  0.27743834161E+03  0.00000000000E+00 0. -1.
          1   -1    0    0  502    0 -0.00000000000E+00 -0.00000000000E+00 -0.31958180402E+03  0.31958180402E+03  0.00000000000E+00 0. -1.
         25    1    1    2    0    0  0.12325557751E+03 -0.18208064524E+03  0.15922406934E+03  0.29886887261E+03  0.12500000000E+03 0.  0.
          1    1    1    2  501    0 -0.12325557751E+03  0.18208064524E+03 -0.20136753175E+03  0.29815127302E+03  0.00000000000E+00 0. -1.
<mgrwt>
<rscale>  3 0.25292350E+03</rscale>
<asrwt>0</asrwt>
<pdfrwt beam="1">  1       21 0.42682822E-01 0.25292350E+03</pdfrwt>
<pdfrwt beam="2">  1        1 0.49166431E-01 0.25292350E+03</pdfrwt>
<totfact> 0.45936759E+03</totfact>
</mgrwt>
</event>
<event>
 4    0  0.1116140E-001  0.2471443E+03  0.7546771E-02  0.1115123E+00
         21   -1    0    0  501  502  0.00000000000E+00  0.00000000000E+00  0.14078186192E+04  0.14078186192E+04  0.00000000000E+00 0.  1.
          2   -1    0    0  502    0 -0.00000000000E+00 -0.00000000000E+00 -0.16214843967E+04  0.16214843967E+04  0.00000000000E+00 0.  1.
         25    1    1    2    0    0  0.72289025272E+02  0.20057323389E+03  0.13898616338E+04  0.14116641550E+04  0.12500000000E+03 0.  0.
          2    1    1    2  501    0 -0.72289025272E+02 -0.20057323389E+03 -0.16035274113E+04  0.16176388609E+04  0.00000000000E+00 0.  1.
<mgrwt>
<rscale>  3 0.24714434E+03</rscale>
<asrwt>0</asrwt>
<pdfrwt beam="1">  1       21 0.21658748E+00 0.24714434E+03</pdfrwt>
<pdfrwt beam="2">  1        2 0.24945914E+00 0.24714434E+03</pdfrwt>
<totfact> 0.14968019E+01</totfact>
</mgrwt>
</event>
<event>
 4    0  0.1527215E-001  0.2477616E+03  0.7546771E-02  0.1114728E+00
          2   -1    0    0  502    0 -0.00000000000E+00  0.00000000000E+00  0.21293950928E+04  0.21293950928E+04  0.00000000000E+00 0.  1.
         21   -1    0    0  501  502  0.00000000000E+00 -0.00000000000E+00 -0.38119948509E+02  0.38119948509E+02  0.00000000000E+00 0.  1.
         25    1    1    2    0    0 -0.21386754254E+03 -0.46365708417E+01  0.46186889865E+03  0.52412660978E+03  0.12500000000E+03 0.  0.
          2    1    1    2  501    0  0.21386754254E+03  0.46365708417E+01  0.16294062457E+04  0.16433884315E+04  0.00000000000E+00 0.  1.
<mgrwt>
<rscale>  3 0.24776163E+03</rscale>
<asrwt>0</asrwt>
<pdfrwt beam="1">  1       21 0.58646091E-02 0.24776163E+03</pdfrwt>
<pdfrwt beam="2">  1        2 0.32759915E+00 0.24776163E+03</pdfrwt>
<totfact> 0.16592930E+04</totfact>
</mgrwt>
</event>
<event>
 4    0  0.1758810E-001  0.3106738E+03  0.7546771E-02  0.1080023E+00
          3   -1    0    0  502    0 -0.00000000000E+00  0.00000000000E+00  0.10082444571E+04  0.10082444571E+04  0.00000000000E+00 0.  1.
         21   -1    0    0  501  502  0.00000000000E+00 -0.00000000000E+00 -0.10049741971E+04  0.10049741971E+04  0.00000000000E+00 0. -1.
         25    1    1    2    0    0 -0.76018495904E+02  0.27407009261E+03 -0.95990494339E+03  0.10089280092E+04  0.12500000000E+03 0.  0.
          3    1    1    2  501    0  0.76018495904E+02 -0.27407009261E+03  0.96317520339E+03  0.10042906451E+04  0.00000000000E+00 0.  1.
<mgrwt>
<rscale>  3 0.31067383E+03</rscale>
<asrwt>0</asrwt>
<pdfrwt beam="1">  1       21 0.15461141E+00 0.31067383E+03</pdfrwt>
<pdfrwt beam="2">  1        3 0.15511453E+00 0.31067383E+03</pdfrwt>
<totfact> 0.39882187E+00</totfact>
</mgrwt>
</event>
<event>
 4    0  0.1235576E-001  0.2400050E+03  0.7546771E-02  0.1119790E+00
         21   -1    0    0  501  502  0.00000000000E+00  0.00000000000E+00  0.68815401645E+03  0.68815401645E+03  0.00000000000E+00 0. -1.
          1   -1    0    0  502    0 -0.00000000000E+00 -0.00000000000E+00 -0.95302142716E+02  0.95302142716E+02  0.00000000000E+00 0. -1.
         25    1    1    2    0    0  0.18823467517E+03  0.80901792517E+02  0.12044225244E+03  0.26853068566E+03  0.12500000000E+03 0.  0.
          1    1    1    2  501    0 -0.18823467517E+03 -0.80901792517E+02  0.47240962130E+03  0.51492547350E+03  0.00000000000E+00 0. -1.
<mgrwt>
<rscale>  3 0.24000499E+03</rscale>
<asrwt>0</asrwt>
<pdfrwt beam="1">  1       21 0.10586985E+00 0.24000499E+03</pdfrwt>
<pdfrwt beam="2">  1        1 0.14661869E-01 0.24000499E+03</pdfrwt>
<totfact> 0.28961331E+03</totfact>
</mgrwt>
</event>
<event>
 4    0  0.1002184E-001  0.2383365E+03  0.7546771E-02  0.1120906E+00
         21   -1    0    0  501  502  0.00000000000E+00  0.00000000000E+00  0.37037495010E+03  0.37037495010E+03  0.00000000000E+00 0. -1.
          4   -1    0    0  502    0 -0.00000000000E+00 -0.00000000000E+00 -0.16579020708E+03  0.16579020708E+03  0.00000000000E+00 0.  1.
         25    1    1    2    0    0  0.18065771461E+03  0.92423479851E+02  0.23053211606E+03  0.33158613664E+03  0.12500000000E+03 0.  0.
          4    1    1    2  501    0 -0.18065771461E+03 -0.92423479851E+02 -0.25947373048E+02  0.20457902054E+03  0.00000000000E+00 0.  1.
<mgrwt>
<rscale>  3 0.23833655E+03</rscale>
<asrwt>0</asrwt>
<pdfrwt beam="1">  1       21 0.56980761E-01 0.23833655E+03</pdfrwt>
<pdfrwt beam="2">  1        4 0.25506186E-01 0.23833655E+03</pdfrwt>
<totfact> 0.17586992E+03</totfact>
</mgrwt>
</event>
<event>
 4    0  0.1002184E-001  0.5692968E+03  0.7546771E-02  0.9971236E-01
          2   -1    0    0  502    0 -0.00000000000E+00  0.00000000000E+00  0.35659879830E+03  0.35659879830E+03  0.00000000000E+00 0. -1.
         21   -1    0    0  501  502  0.00000000000E+00 -0.00000000000E+00 -0.20794285054E+04  0.20794285054E+04  0.00000000000E+00 0. -1.
         25    1    1    2    0    0 -0.46746476618E+02  0.55343348036E+03 -0.17883444428E+04  0.18767724147E+04  0.12500000000E+03 0.  0.
          2    1    1    2  501    0  0.46746476618E+02 -0.55343348036E+03  0.65514735759E+02  0.55925488900E+03  0.00000000000E+00 0. -1.
<mgrwt>
<rscale>  3 0.56929680E+03</rscale>
<asrwt>0</asrwt>
<pdfrwt beam="1">  1       21 0.31991207E+00 0.56929680E+03</pdfrwt>
<pdfrwt beam="2">  1        2 0.54861355E-01 0.56929680E+03</pdfrwt>
<totfact> 0.22406463E+01</totfact>
</mgrwt>
</event>
<event>
 4    0  0.1145963E-001  0.2396685E+03  0.7546771E-02  0.1120014E+00
         21   -1    0    0  501  502  0.00000000000E+00  0.00000000000E+00  0.80078604257E+02  0.80078604257E+02  0.00000000000E+00 0. -1.
          1   -1    0    0  502    0 -0.00000000000E+00 -0.00000000000E+00 -0.13223212371E+04  0.13223212371E+04  0.00000000000E+00 0.  1.
         25    1    1    2    0    0  0.81860422581E+02  0.18738963106E+03 -0.13226435302E+03  0.27374232718E+03  0.12500000000E+03 0.  0.
          1    1    1    2  501    0 -0.81860422581E+02 -0.18738963106E+03 -0.11099782798E+04  0.11286575141E+04  0.00000000000E+00 0.  1.
<mgrwt>
<rscale>  3 0.23966853E+03</rscale>
<asrwt>0</asrwt>
<pdfrwt beam="1">  1       21 0.12319786E-01 0.23966853E+03</pdfrwt>
<pdfrwt beam="2">  1        1 0.20343402E+00 0.23966853E+03</pdfrwt>
<totfact> 0.58707951E+03</totfact>
</mgrwt>
</event>
<event>
 4    0  0.1614243E-001  0.2372018E+03  0.7546771E-02  0.1121671E+00
         21   -1    0    0  501  502  0.00000000000E+00  0.00000000000E+00  0.58295550282E+02  0.58295550282E+02  0.00000000000E+00 0.  1.
          2   -1    0    0  502    0 -0.00000000000E+00 -0.00000000000E+00 -0.11260378855E+04  0.11260378855E+04  0.00000000000E+00 0.  1.
         25    1    1    2    0    0  0.14376764229E+03  0.14131715064E+03 -0.87072118629E+03  0.90245224599E+03  0.12500000000E+03 0.  0.
          2    1    1    2  501    0 -0.14376764229E+03 -0.14131715064E+03 -0.19702114892E+03  0.28188118978E+03  0.00000000000E+00 0.  1.
<mgrwt>
<rscale>  3 0.23720175E+03</rscale>
<asrwt>0</asrwt>
<pdfrwt beam="1">  1       21 0.89685467E-02 0.23720175E+03</pdfrwt>
<pdfrwt beam="2">  1        2 0.17323659E+00 0.23720175E+03</pdfrwt>
<totfact> 0.27408082E+04</totfact>
</mgrwt>
</event>
<event>
 4    0  0.1555918E-001  0.3435350E+03  0.7546771E-02  0.1065300E+00
          1   -1    0    0  502    0 -0.00000000000E+00  0.00000000000E+00  0.11091698437E+04  0.11091698437E+04  0.00000000000E+00 0. -1.
         21   -1    0    0  501  502  0.00000000000E+00 -0.00000000000E+00 -0.10447351228E+03  0.10447351228E+03  0.00000000000E+00 0. -1.
         25    1    1    2    0    0 -0.31300642374E+03  0.66469898506E+02  0.65512187894E+03  0.73973031908E+03  0.12500000000E+03 0.  0.
          1    1    1    2  501    0  0.31300642374E+03 -0.66469898506E+02  0.34957445246E+03  0.47391303687E+03  0.00000000000E+00 0. -1.
<mgrwt>
<rscale>  3 0.34353496E+03</rscale>
<asrwt>0</asrwt>
<pdfrwt beam="1">  1       21 0.16072849E-01 0.34353496E+03</pdfrwt>
<pdfrwt beam="2">  1        1 0.17064151E+00 0.34353496E+03</pdfrwt>
<totfact> 0.49498786E+03</totfact>
</mgrwt>
</event>
<event>
 4    0  0.1112217E-001  0.3838323E+03  0.7546771E-02  0.1049526E+00
         21   -1    0    0  501  502  0.00000000000E+00  0.00000000000E+00  0.15727113110E+03  0.15727113110E+03  0.00000000000E+00 0.  1.
          2   -1    0    0  502    0 -0.00000000000E+00 -0.00000000000E+00 -0.14807028378E+04  0.14807028378E+04  0.00000000000E+00 0. -1.
         25    1    1    2    0    0  0.22953756327E+03 -0.28109562429E+03 -0.15408190178E+03  0.41360424974E+03  0.12500000000E+03 0.  0.
          2    1    1    2  501    0 -0.22953756327E+03  0.28109562429E+03 -0.11693498050E+04  0.12243697192E+04  0.00000000000E+00 0. -1.
<mgrwt>
<rscale>  3 0.38383231E+03</rscale>
<asrwt>0</asrwt>
<pdfrwt beam="1">  1       21 0.24195557E-01 0.38383231E+03</pdfrwt>
<pdfrwt beam="2">  1        2 0.22780045E+00 0.38383231E+03</pdfrwt>
<totfact> 0.26978734E+03</totfact>
</mgrwt>
</event>
<event>
 4    0  0.1105223E-001  0.3989308E+03  0.7546771E-02  0.1044151E+00
          2   -1    0    0  502    0 -0.00000000000E+00  0.00000000000E+00  0.23610145259E+04  0.23610145259E+04  0.00000000000E+00 0.  1.
         21   -1    0    0  501  502  0.00000000000E+00 -0.00000000000E+00 -0.12330044147E+03  0.12330044147E+03  0.00000000000E+00 0. -1.
         25    1    1    2    0    0  0.59885846026E+02  0.37407818362E+03  0.27297507693E+03  0.48338514110E+03  0.12500000000E+03 0.  0.
          2    1    1    2  501    0 -0.59885846026E+02 -0.37407818362E+03  0.19647390075E+04  0.20009298263E+04  0.00000000000E+00 0.  1.
<mgrwt>
<rscale>  3 0.39893082E+03</rscale>
<asrwt>0</asrwt>
<pdfrwt beam="1">  1       21 0.18969300E-01 0.39893082E+03</pdfrwt>
<pdfrwt beam="2">  1        2 0.36323297E+00 0.39893082E+03</pdfrwt>
<totfact> 0.14390575E+03</totfact>
</mgrwt>
</event>
<event>
 4    0  0.1421710E-001  0.3337796E+03  0.7546771E-02  0.1069477E+00
          2   -1    0    0  502    0 -0.00000000000E+00  0.00000000000E+00  0.18424591525E+04  0.18424591525E+04  0.00000000000E+00 0. -1.
         21   -1    0    0  501  502  0.00000000000E+00 -0.00000000000E+00 -0.58248434817E+02  0.58248434817E+02  0.00000000000E+00 0. -1.
         25    1    1    2    0    0  0.17879910657E+03 -0.25261565445E+03  0.11049566375E+04  0.11542694486E+04  0.12500000000E+03 0.  0.
          2    1    1    2  501    0 -0.17879910657E+03  0.25261565445E+03  0.67925408023E+03  0.74643813869E+03  0.00000000000E+00 0. -1.
<mgrwt>
<rscale>  3 0.33377955E+03</rscale>
<asrwt>0</asrwt>
<pdfrwt beam="1">  1       21 0.89612991E-02 0.33377955E+03</pdfrwt>
<pdfrwt beam="2">  1        2 0.28345521E+00 0.33377955E+03</pdfrwt>
<totfact> 0.10955235E+04</totfact>
</mgrwt>
</event>
<event>
 4    0  0.1059986E-001  0.2387299E+03  0.7546771E-02  0.1120642E+00
          1   -1    0    0  502    0 -0.00000000000E+00  0.00000000000E+00  0.58411985263E+03  0.58411985263E+03  0.00000000000E+00 0.  1.
         21   -1    0    0  501  502  0.00000000000E+00 -0.00000000000E+00 -0.18728393398E+03  0.18728393398E+03  0.00000000000E+00 0. -1.
         25    1    1    2    0    0  0.74774909778E+02  0.18914457144E+03 -0.80988596329E+02  0.25209345246E+03  0.12500000000E+03 0.  0.
          1    1    1    2  501    0 -0.74774909778E+02 -0.18914457144E+03  0.47782451498E+03  0.51931033415E+03  0.00000000000E+00 0.  1.
<mgrwt>
<rscale>  3 0.23872988E+03</rscale>
<asrwt>0</asrwt>
<pdfrwt beam="1">  1       21 0.28812913E-01 0.23872988E+03</pdfrwt>
<pdfrwt beam="2">  1        1 0.89864592E-01 0.23872988E+03</pdfrwt>
<totfact> 0.46003619E+03</totfact>
</mgrwt>
</event>
<event>
 4    0  0.1002184E-001  0.2466978E+03  0.7546771E-02  0.1115410E+00
          2   -1    0    0  502    0 -0.00000000000E+00  0.00000000000E+00  0.22039475137E+03  0.22039475137E+03  0.00000000000E+00 0. -1.
         21   -1    0    0  501  502  0.00000000000E+00 -0.00000000000E+00 -0.25834439385E+03  0.25834439385E+03  0.00000000000E+00 0.  1.
         25    1    1    2    0    0 -0.15358918899E+03 -0.14712294637E+03 -0.84966125446E+02  0.26091960984E+03  0.12500000000E+03 0.  0.
          2    1    1    2  501    0  0.15358918899E+03  0.14712294637E+03  0.47016482959E+02  0.21781953538E+03  0.00000000000E+00 0. -1.
<mgrwt>
<rscale>  3 0.24669779E+03</rscale>
<asrwt>0</asrwt>
<pdfrwt beam="1">  1       21 0.39745291E-01 0.24669779E+03</pdfrwt>
<pdfrwt beam="2">  1        2 0.33906885E-01 0.24669779E+03</pdfrwt>
<totfact> 0.11415909E+04</totfact>
</mgrwt>
</event>
<event>
 4    0  0.1600567E-001  0.2711675E+03  0.7546771E-02  0.1100613E+00
          1   -1    0    0  502    0 -0.00000000000E+00  0.00000000000E+00  0.17480126379E+04  0.17480126379E+04  0.00000000000E+00 0. -1.
         21   -1    0    0  501  502  0.00000000000E+00 -0.00000000000E+00 -0.38450524189E+02  0.38450524189E+02  0.00000000000E+00 0. -1.
         25    1    1    2    0    0 -0.22209433523E+03  0.92633248530E+02  0.76158037196E+03  0.80841602868E+03  0.12500000000E+03 0.  0.
          1    1    1    2  501    0  0.22209433523E+03 -0.92633248530E+02  0.94798174175E+03  0.97804713341E+03  0.00000000000E+00 0. -1.
<mgrwt>
<rscale>  3 0.27116750E+03</rscale>
<asrwt>0</asrwt>
<pdfrwt beam="1">  1       21 0.59154666E-02 0.27116750E+03</pdfrwt>
<pdfrwt beam="2">  1        1 0.26892496E+00 0.27116750E+03</pdfrwt>
<totfact> 0.11058751E+04</totfact>
</mgrwt>
</event>
<event>
 4    0  0.1543460E-001  0.2670782E+03  0.7546771E-02  0.1102964E+00
         21   -1    0    0  501  502  0.00000000000E+00  0.00000000000E+00  0.59587076713E+02  0.59587076713E+02  0.00000000000E+00 0.  1.
          1   -1    0    0  502    0 -0.00000000000E+00 -0.00000000000E+00 -0.19175462706E+04  0.19175462706E+04  0.00000000000E+00 0.  1.
         25    1    1    2    0    0 -0.23380948215E+03 -0.32232075666E+02 -0.30108728536E+03  0.40247277430E+03  0.12500000000E+03 0.  0.
          1    1    1    2  501    0  0.23380948215E+03  0.32232075666E+02 -0.15568719086E+04  0.15746605731E+04  0.00000000000E+00 0.  1.
<mgrwt>
<rscale>  3 0.26707823E+03</rscale>
<asrwt>0</asrwt>
<pdfrwt beam="1">  1       21 0.91672434E-02 0.26707823E+03</pdfrwt>
<pdfrwt beam="2">  1        1 0.29500709E+00 0.26707823E+03</pdfrwt>
<totfact> 0.39990141E+03</totfact>
</mgrwt>
</event>
<event>
 4    0  0.1340257E-001  0.2868967E+03  0.7546771E-02  0.1091981E+00
          1   -1    0    0  502    0 -0.00000000000E+00  0.00000000000E+00  0.40136961085E+03  0.40136961085E+03  0.00000000000E+00 0. -1.
         21   -1    0    0  501  502  0.00000000000E+00 -0.00000000000E+00 -0.20752859070E+03  0.20752859070E+03  0.00000000000E+00 0. -1.
         25    1    1    2    0    0 -0.18329821312E+03 -0.18189686570E+03  0.14929661119E+01  0.28690056402E+03  0.12500000000E+03 0.  0.
          1    1    1    2  501    0  0.18329821312E+03  0.18189686570E+03  0.19234805404E+03  0.32199763754E+03  0.00000000000E+00 0. -1.
<mgrwt>
<rscale>  3 0.28689668E+03</rscale>
<asrwt>0</asrwt>
<pdfrwt beam="1">  1       21 0.31927475E-01 0.28689668E+03</pdfrwt>
<pdfrwt beam="2">  1        1 0.61749171E-01 0.28689668E+03</pdfrwt>
<totfact> 0.61178201E+03</totfact>
</mgrwt>
</event>
<event>
 4    0  0.1443479E-001  0.3358750E+03  0.7546771E-02  0.1068567E+00
         21   -1    0    0  501  502  0.00000000000E+00  0.00000000000E+00  0.47953990668E+02  0.47953990668E+02  0.00000000000E+00 0.  1.
          2   -1    0    0  502    0 -0.00000000000E+00 -0.00000000000E+00 -0.21874040255E+04  0.21874040255E+04  0.00000000000E+00 0.  1.
         25    1    1    2    0    0 -0.31028046468E+03 -0.30216831622E+02 -0.11315761766E+04  0.11803714106E+04  0.12500000000E+03 0.  0.
          2    1    1    2  501    0  0.31028046468E+03  0.30216831622E+02 -0.10078738583E+04  0.10549866055E+04  0.00000000000E+00 0.  1.
<mgrwt>
<rscale>  3 0.33587501E+03</rscale>
<asrwt>0</asrwt>
<pdfrwt beam="1">  1       21 0.73775368E-02 0.33587501E+03</pdfrwt>
<pdfrwt beam="2">  1        2 0.33652371E+00 0.33587501E+03</pdfrwt>
<totfact> 0.10115322E+04</totfact>
</mgrwt>
</event>
<event>
 4    0  0.1681870E-001  0.2625055E+03  0.7546771E-02  0.1105647E+00
          2   -1    0    0  502    0 -0.00000000000E+00  0.00000000000E+00  0.20046634520E+04  0.20046634520E+04  0.00000000000E+00 0.  1.
         21   -1    0    0  501  502  0.00000000000E+00 -0.00000000000E+00 -0.31242141945E+02  0.31242141945E+02  0.00000000000E+00 0.  1.
         25    1    1    2    0    0 -0.47268381358E+02 -0.22594208967E+03  0.87678587663E+03  0.91523909511E+03  0.12500000000E+03 0.  0.
          2    1    1    2  501    0  0.47268381358E+02  0.22594208967E+03  0.10966354334E+04  0.11206664988E+04  0.00000000000E+00 0.  1.
<mgrwt>
<rscale>  3 0.26250548E+03</rscale>
<asrwt>0</asrwt>
<pdfrwt beam="1">  1       21 0.48064849E-02 0.26250548E+03</pdfrwt>
<pdfrwt beam="2">  1        2 0.30840966E+00 0.26250548E+03</pdfrwt>
<totfact> 0.27021218E+04</totfact>
</mgrwt>
</event>
<event>
 4    0  0.1241265E-001  0.4133035E+03  0.7546771E-02  0.1039268E+00
          2   -1    0    0  502    0 -0.00000000000E+00  0.00000000000E+00  0.64284355838E+03  0.64284355838E+03  0.00000000000E+00 0. -1.
         21   -1    0    0  501  502  0.00000000000E+00 -0.00000000000E+00 -0.25850389085E+03  0.25850389085E+03  0.00000000000E+00 0. -1.
         25    1    1    2    0    0  0.50600301893E+02 -0.39068448373E+03  0.13354388745E+03  0.43434286716E+03  0.12500000000E+03 0.  0.
          2    1    1    2  501    0 -0.50600301893E+02  0.39068448373E+03  0.25079578008E+03  0.46700458208E+03  0.00000000000E+00 0. -1.
<mgrwt>
<rscale>  3 0.41330347E+03</rscale>
<asrwt>0</asrwt>
<pdfrwt beam="1">  1       21 0.39769830E-01 0.41330347E+03</pdfrwt>
<pdfrwt beam="2">  1        2 0.98899009E-01 0.41330347E+03</pdfrwt>
<totfact> 0.33582942E+03</totfact>
</mgrwt>
</event>
<event>
 4    0  0.1587776E-001  0.2596831E+03  0.7546771E-02  0.1107334E+00
          2   -1    0    0  502    0 -0.00000000000E+00  0.00000000000E+00  0.11144081844E+04  0.11144081844E+04  0.00000000000E+00 0.  1.
         21   -1    0    0  501  502  0.00000000000E+00 -0.00000000000E+00 -0.53422424542E+02  0.53422424542E+02  0.00000000000E+00 0.  1.
         25    1    1    2    0    0 -0.19243409511E+03 -0.12157064487E+03  0.59630830162E+03  0.65039902616E+03  0.12500000000E+03 0.  0.
          2    1    1    2  501    0  0.19243409511E+03  0.12157064487E+03  0.46467745822E+03  0.51743158276E+03  0.00000000000E+00 0.  1.
<mgrwt>
<rscale>  3 0.25968308E+03</rscale>
<asrwt>0</asrwt>
<pdfrwt beam="1">  1       21 0.82188354E-02 0.25968308E+03</pdfrwt>
<pdfrwt beam="2">  1        2 0.17144740E+00 0.25968308E+03</pdfrwt>
<totfact> 0.32334980E+04</totfact>
</mgrwt>
</event>
<event>
 4    0  0.1002184E-001  0.2860130E+03  0.7546771E-02  0.1092449E+00
          1   -1    0    0  502    0 -0.00000000000E+00  0.00000000000E+00  0.17412948893E+04  0.17412948893E+04  0.00000000000E+00 0. -1.
         21   -1    0    0  501  502  0.00000000000E+00 -0.00000000000E+00 -0.22268852747E+04  0.22268852747E+04  0.00000000000E+00 0.  1.
         25    1    1    2    0    0  0.18319743072E+03 -0.18060222035E+03 -0.22081101717E+04  0.22265565322E+04  0.12500000000E+03 0.  0.
          1    1    1    2  501    0 -0.18319743072E+03  0.18060222035E+03  0.17225197863E+04  0.17416236318E+04  0.00000000000E+00 0. -1.
<mgrwt>
<rscale>  3 0.28601304E+03</rscale>
<asrwt>0</asrwt>
<pdfrwt beam="1">  1       21 0.34259774E+00 0.28601304E+03</pdfrwt>
<pdfrwt beam="2">  1        1 0.26789152E+00 0.28601304E+03</pdfrwt>
<totfact> 0.94395778E-01</totfact>
</mgrwt>
</event>
<event>
 4    0  0.1464281E-001  0.3432954E+03  0.7546771E-02  0.1065401E+00
         21   -1    0    0  501  502  0.00000000000E+00  0.00000000000E+00  0.15328475932E+03  0.15328475932E+03  0.00000000000E+00 0.  1.
          3   -1    0    0  502    0 -0.00000000000E+00 -0.00000000000E+00 -0.10296213443E+04  0.10296213443E+04  0.00000000000E+00 0.  1.
         25    1    1    2    0    0  0.17824260630E+02 -0.31923196843E+03 -0.12323552037E+03  0.36474477024E+03  0.12500000000E+03 0.  0.
          3    1    1    2  501    0 -0.17824260630E+02  0.31923196843E+03 -0.75310106465E+03  0.81816133342E+03  0.00000000000E+00 0.  1.
<mgrwt>
<rscale>  3 0.34329543E+03</rscale>
<asrwt>0</asrwt>
<pdfrwt beam="1">  1       21 0.23582271E-01 0.34329543E+03</pdfrwt>
<pdfrwt beam="2">  1        3 0.15840328E+00 0.34329543E+03</pdfrwt>
<totfact> 0.24320748E+02</totfact>
</mgrwt>
</event>
<event>
 4    0  0.1641064E-001  0.3131203E+03  0.7546771E-02  0.1078860E+00
          2   -1    0    0  502    0 -0.00000000000E+00  0.00000000000E+00  0.12577808267E+04  0.12577808267E+04  0.00000000000E+00 0.  1.
         21   -1    0    0  501  502  0.00000000000E+00 -0.00000000000E+00 -0.12841497065E+04  0.12841497065E+04  0.00000000000E+00 0. -1.
         25    1    1    2    0    0 -0.14771393004E+03 -0.24617045387E+03 -0.12481740777E+04  0.12868499624E+04  0.12500000000E+03 0.  0.
          2    1    1    2  501    0  0.14771393004E+03  0.24617045387E+03  0.12218051979E+04  0.12550805708E+04  0.00000000000E+00 0.  1.
<mgrwt>
<rscale>  3 0.31312026E+03</rscale>
<asrwt>0</asrwt>
<pdfrwt beam="1">  1       21 0.19756149E+00 0.31312026E+03</pdfrwt>
<pdfrwt beam="2">  1        2 0.19350474E+00 0.31312026E+03</pdfrwt>
<totfact> 0.29485493E+01</totfact>
</mgrwt>
</event>
<event>
 4    0  0.1002184E-001  0.3265663E+03  0.7546771E-02  0.1072666E+00
          2   -1    0    0  502    0 -0.00000000000E+00  0.00000000000E+00  0.17018704040E+04  0.17018704040E+04  0.00000000000E+00 0.  1.
         21   -1    0    0  501  502  0.00000000000E+00 -0.00000000000E+00 -0.79300689995E+02  0.79300689995E+02  0.00000000000E+00 0. -1.
         25    1    1    2    0    0  0.17973500997E+03  0.24231354839E+03  0.37327349904E+03  0.49596233186E+03  0.12500000000E+03 0.  0.
          2    1    1    2  501    0 -0.17973500997E+03 -0.24231354839E+03  0.12492962149E+04  0.12852087621E+04  0.00000000000E+00 0.  1.
<mgrwt>
<rscale>  3 0.32656627E+03</rscale>
<asrwt>0</asrwt>
<pdfrwt beam="1">  1       21 0.12200107E-01 0.32656627E+03</pdfrwt>
<pdfrwt beam="2">  1        2 0.26182619E+00 0.32656627E+03</pdfrwt>
<totfact> 0.74927874E+03</totfact>
</mgrwt>
</event>
<event>
 4    0  0.1002184E-001  0.3466323E+03  0.7546771E-02  0.1064006E+00
          1   -1    0    0  502    0 -0.00000000000E+00  0.00000000000E+00  0.17483861555E+03  0.17483861555E+03  0.00000000000E+00 0. -1.
         21   -1    0    0  501  502  0.00000000000E+00 -0.00000000000E+00 -0.97643972809E+03  0.97643972809E+03  0.00000000000E+00 0.  1.
         25    1    1    2    0    0  0.32324538727E+03  0.64323979457E+01 -0.74684372417E+03  0.82336474570E+03  0.12500000000E+03 0.  0.
          1    1    1    2  501    0 -0.32324538727E+03 -0.64323979457E+01 -0.54757388370E+02  0.32791359794E+03  0.00000000000E+00 0. -1.
<mgrwt>
<rscale>  3 0.34663231E+03</rscale>
<asrwt>0</asrwt>
<pdfrwt beam="1">  1       21 0.15022150E+00 0.34663231E+03</pdfrwt>
<pdfrwt beam="2">  1        1 0.26898249E-01 0.34663231E+03</pdfrwt>
<totfact> 0.52171151E+02</totfact>
</mgrwt>
</event>
<event>
 4    0  0.1450593E-001  0.2827404E+03  0.7546771E-02  0.1094202E+00
         21   -1    0    0  501  502  0.00000000000E+00  0.00000000000E+00  0.58436671076E+03  0.58436671076E+03  0.00000000000E+00 0. -1.
         -2   -1    0    0    0  501 -0.00000000000E+00 -0.00000000000E+00 -0.12635138745E+03  0.12635138745E+03  0.00000000000E+00 0. -1.
         25    1    1    2    0    0 -0.14925696661E+03  0.20503530020E+03  0.29831656826E+03  0.41101689906E+03  0.12500000000E+03 0.  0.
         -2    1    1    2    0  502  0.14925696661E+03 -0.20503530020E+03  0.15969875505E+03  0.29970119915E+03  0.00000000000E+00 0. -1.
<mgrwt>
<rscale>  3 0.28274037E+03</rscale>
<asrwt>0</asrwt>
<pdfrwt beam="1">  1       21 0.89902569E-01 0.28274037E+03</pdfrwt>
<pdfrwt beam="2">  1       -2 0.19438675E-01 0.28274037E+03</pdfrwt>
<totfact> 0.18002122E+03</totfact>
</mgrwt>
</event>
<event>
 4    0  0.1228709E-001  0.2413037E+03  0.7546771E-02  0.1118927E+00
          2   -1    0    0  502    0 -0.00000000000E+00  0.00000000000E+00  0.17914436718E+04  0.17914436718E+04  0.00000000000E+00 0. -1.
         21   -1    0    0  501  502  0.00000000000E+00 -0.00000000000E+00 -0.66999019836E+02  0.66999019836E+02  0.00000000000E+00 0. -1.
         25    1    1    2    0    0  0.13322103852E+03 -0.15765357052E+03  0.18198672572E+03  0.30223610264E+03  0.12500000000E+03 0.  0.
          2    1    1    2  501    0 -0.13322103852E+03  0.15765357052E+03  0.15424579263E+04  0.15562065890E+04  0.00000000000E+00 0. -1.
<mgrwt>
<rscale>  3 0.24130374E+03</rscale>
<asrwt>0</asrwt>
<pdfrwt beam="1">  1       21 0.10307543E-01 0.24130374E+03</pdfrwt>
<pdfrwt beam="2">  1        2 0.27560668E+00 0.24130374E+03</pdfrwt>
<totfact> 0.93320073E+03</totfact>
</mgrwt>
</event>
<event>
 4    0  0.1002184E-001  0.2803075E+03  0.7546771E-02  0.1095521E+00
         21   -1    0    0  501  502  0.00000000000E+00  0.00000000000E+00  0.24804536241E+03  0.24804536241E+03  0.00000000000E+00 0. -1.
          2   -1    0    0  502    0 -0.00000000000E+00 -0.00000000000E+00 -0.38998123159E+04  0.38998123159E+04  0.00000000000E+00 0. -1.
         25    1    1    2    0    0 -0.20522923469E+03  0.14431994272E+03  0.16339586056E+03  0.32445414451E+03  0.12500000000E+03 0.  0.
          2    1    1    2  501    0  0.20522923469E+03 -0.14431994272E+03 -0.38151628140E+04  0.38234035338E+04  0.00000000000E+00 0. -1.
<mgrwt>
<rscale>  3 0.28030748E+03</rscale>
<asrwt>0</asrwt>
<pdfrwt beam="1">  1       21 0.38160828E-01 0.28030748E+03</pdfrwt>
<pdfrwt beam="2">  1        2 0.59997107E+00 0.28030748E+03</pdfrwt>
<totfact> 0.43122939E+01</totfact>
</mgrwt>
</event>
<event>
 4    0  0.1185545E-001  0.2365592E+03  0.7546771E-02  0.1122106E+00
         21   -1    0    0  501  502  0.00000000000E+00  0.00000000000E+00  0.36611496732E+03  0.36611496732E+03  0.00000000000E+00 0.  1.
          1   -1    0    0  502    0 -0.00000000000E+00 -0.00000000000E+00 -0.39308142464E+03  0.39308142464E+03  0.00000000000E+00 0. -1.
         25    1    1    2    0    0  0.17929524671E+03  0.90490269682E+02  0.29597712516E+03  0.37889673134E+03  0.12500000000E+03 0.  0.
          1    1    1    2  501    0 -0.17929524671E+03 -0.90490269682E+02 -0.32294358249E+03  0.38029966062E+03  0.00000000000E+00 0. -1.
<mgrwt>
<rscale>  3 0.23655924E+03</rscale>
<asrwt>0</asrwt>
<pdfrwt beam="1">  1       21 0.56325380E-01 0.23655924E+03</pdfrwt>
<pdfrwt beam="2">  1        1 0.60474065E-01 0.23655924E+03</pdfrwt>
<totfact> 0.19858075E+03</totfact>
</mgrwt>
</event>
<event>
 4    0  0.1078021E-001  0.2481862E+03  0.7546771E-02  0.1114457E+00
         21   -1    0    0  501  502  0.00000000000E+00  0.00000000000E+00  0.12968677732E+03  0.12968677732E+03  0.00000000000E+00 0. -1.
          2   -1    0    0  502    0 -0.00000000000E+00 -0.00000000000E+00 -0.72692468869E+03  0.72692468869E+03  0.00000000000E+00 0.  1.
         25    1    1    2    0    0  0.72333963679E+02  0.20183945398E+03 -0.29741280538E+02  0.24996181959E+03  0.12500000000E+03 0.  0.
          2    1    1    2  501    0 -0.72333963679E+02 -0.20183945398E+03 -0.56749663083E+03  0.60664964641E+03  0.00000000000E+00 0.  1.
<mgrwt>
<rscale>  3 0.24818615E+03</rscale>
<asrwt>0</asrwt>
<pdfrwt beam="1">  1       21 0.19951812E-01 0.24818615E+03</pdfrwt>
<pdfrwt beam="2">  1        2 0.11183457E+00 0.24818615E+03</pdfrwt>
<totfact> 0.11562553E+04</totfact>
</mgrwt>
</event>
<event>
 4    0  0.1593250E-001  0.3141907E+03  0.7546771E-02  0.1078354E+00
         21   -1    0    0  501  502  0.00000000000E+00  0.00000000000E+00  0.13844869869E+03  0.13844869869E+03  0.00000000000E+00 0. -1.
          2   -1    0    0  502    0 -0.00000000000E+00 -0.00000000000E+00 -0.18539182568E+04  0.18539182568E+04  0.00000000000E+00 0. -1.
         25    1    1    2    0    0  0.27824184501E+03  0.75314637017E+02 -0.70070734361E+02  0.32190950075E+03  0.12500000000E+03 0.  0.
          2    1    1    2  501    0 -0.27824184501E+03 -0.75314637017E+02 -0.16453988237E+04  0.16704574547E+04  0.00000000000E+00 0. -1.
<mgrwt>
<rscale>  3 0.31419074E+03</rscale>
<asrwt>0</asrwt>
<pdfrwt beam="1">  1       21 0.21299801E-01 0.31419074E+03</pdfrwt>
<pdfrwt beam="2">  1        2 0.28521817E+00 0.31419074E+03</pdfrwt>
<totfact> 0.22237757E+03</totfact>
</mgrwt>
</event>
<event>
 4    0  0.1139385E-001  0.2558460E+03  0.7546771E-02  0.1109665E+00
         21   -1    0    0  501  502  0.00000000000E+00  0.00000000000E+00  0.12551749848E+03  0.12551749848E+03  0.00000000000E+00 0.  1.
          1   -1    0    0  502    0 -0.00000000000E+00 -0.00000000000E+00 -0.78012557629E+03  0.78012557629E+03  0.00000000000E+00 0. -1.
         25    1    1    2    0    0 -0.10433747302E+03 -0.19734710486E+03 -0.49391480682E+02  0.26056996457E+03  0.12500000000E+03 0.  0.
          1    1    1    2  501    0  0.10433747302E+03  0.19734710486E+03 -0.60521659713E+03  0.64507311021E+03  0.00000000000E+00 0. -1.
<mgrwt>
<rscale>  3 0.25584602E+03</rscale>
<asrwt>0</asrwt>
<pdfrwt beam="1">  1       21 0.19310385E-01 0.25584602E+03</pdfrwt>
<pdfrwt beam="2">  1        1 0.12001932E+00 0.25584602E+03</pdfrwt>
<totfact> 0.64731429E+03</totfact>
</mgrwt>
</event>
<event>
 4    0  0.1303146E-001  0.3183904E+03  0.7546771E-02  0.1076392E+00
         21   -1    0    0  501  502  0.00000000000E+00  0.00000000000E+00  0.38505008847E+03  0.38505008847E+03  0.00000000000E+00 0. -1.
          4   -1    0    0  502    0 -0.00000000000E+00 -0.00000000000E+00 -0.53965562922E+03  0.53965562922E+03  0.00000000000E+00 0.  1.
         25    1    1    2    0    0  0.27120627712E+03  0.11042930530E+03  0.26416553837E+03  0.41370993206E+03  0.12500000000E+03 0.  0.
          4    1    1    2  501    0 -0.27120627712E+03 -0.11042930530E+03 -0.41877107912E+03  0.51099578563E+03  0.00000000000E+00 0.  1.
<mgrwt>
<rscale>  3 0.31839045E+03</rscale>
<asrwt>0</asrwt>
<pdfrwt beam="1">  1       21 0.59238475E-01 0.31839045E+03</pdfrwt>
<pdfrwt beam="2">  1        4 0.83023943E-01 0.31839045E+03</pdfrwt>
<totfact> 0.14316941E+02</totfact>
</mgrwt>
</event>
<event>
 4    0  0.1927640E-001  0.2546412E+03  0.7546771E-02  0.1110406E+00
         21   -1    0    0  501  502  0.00000000000E+00  0.00000000000E+00  0.11972720585E+03  0.11972720585E+03  0.00000000000E+00 0.  1.
         -4   -1    0    0    0  501 -0.00000000000E+00 -0.00000000000E+00 -0.96365012104E+03  0.96365012104E+03  0.00000000000E+00 0.  1.
         25    1    1    2    0    0 -0.15970711353E+03  0.15398297181E+03 -0.50601596414E+02  0.25962018273E+03  0.12500000000E+03 0.  0.
         -4    1    1    2    0  502  0.15970711353E+03 -0.15398297181E+03 -0.79332131877E+03  0.82375714415E+03  0.00000000000E+00 0.  1.
<mgrwt>
<rscale>  3 0.25464115E+03</rscale>
<asrwt>0</asrwt>
<pdfrwt beam="1">  1       21 0.18419571E-01 0.25464115E+03</pdfrwt>
<pdfrwt beam="2">  1       -4 0.14825386E+00 0.25464115E+03</pdfrwt>
<totfact> 0.36812912E+02</totfact>
</mgrwt>
</event>
<event>
 4    0  0.1352557E-001  0.2906631E+03  0.7546771E-02  0.1090003E+00
         21   -1    0    0  501  502  0.00000000000E+00  0.00000000000E+00  0.56843691562E+03  0.56843691562E+03  0.00000000000E+00 0. -1.
          2   -1    0    0  502    0 -0.00000000000E+00 -0.00000000000E+00 -0.32034269005E+03  0.32034269005E+03  0.00000000000E+00 0. -1.
         25    1    1    2    0    0  0.20277259101E+03  0.16656330603E+03  0.46497060331E+03  0.54834543905E+03  0.12500000000E+03 0.  0.
          2    1    1    2  501    0 -0.20277259101E+03 -0.16656330603E+03 -0.21687637774E+03  0.34043416662E+03  0.00000000000E+00 0. -1.
<mgrwt>
<rscale>  3 0.29066314E+03</rscale>
<asrwt>0</asrwt>
<pdfrwt beam="1">  1       21 0.87451833E-01 0.29066314E+03</pdfrwt>
<pdfrwt beam="2">  1        2 0.49283491E-01 0.29066314E+03</pdfrwt>
<totfact> 0.13640392E+03</totfact>
</mgrwt>
</event>
<event>
 4    0  0.1373028E-001  0.2777937E+03  0.7546771E-02  0.1096900E+00
          2   -1    0    0  502    0 -0.00000000000E+00  0.00000000000E+00  0.30379319772E+03  0.30379319772E+03  0.00000000000E+00 0. -1.
         21   -1    0    0  501  502  0.00000000000E+00 -0.00000000000E+00 -0.33243912391E+03  0.33243912391E+03  0.00000000000E+00 0. -1.
         25    1    1    2    0    0 -0.24808023364E+03  0.72047379751E+00 -0.19334706435E+03  0.33845591840E+03  0.12500000000E+03 0.  0.
          2    1    1    2  501    0  0.24808023364E+03 -0.72047379751E+00  0.16470113817E+03  0.29777640323E+03  0.00000000000E+00 0. -1.
<mgrwt>
<rscale>  3 0.27779367E+03</rscale>
<asrwt>0</asrwt>
<pdfrwt beam="1">  1       21 0.51144481E-01 0.27779367E+03</pdfrwt>
<pdfrwt beam="2">  1        2 0.46737415E-01 0.27779367E+03</pdfrwt>
<totfact> 0.47506782E+03</totfact>
</mgrwt>
</event>
<event>
 4    0  0.1526992E-001  0.2855107E+03  0.7546771E-02  0.1092717E+00
          1   -1    0    0  502    0 -0.00000000000E+00  0.00000000000E+00  0.12953031838E+04  0.12953031838E+04  0.00000000000E+00 0. -1.
         21   -1    0    0  501  502  0.00000000000E+00 -0.00000000000E+00 -0.14009124144E+03  0.14009124144E+03  0.00000000000E+00 0. -1.
         25    1    1    2    0    0  0.24450627486E+03  0.78153808780E+02  0.36764005351E+02  0.28786790089E+03  0.12500000000E+03 0.  0.
          1    1    1    2  501    0 -0.24450627486E+03 -0.78153808780E+02  0.11184479370E+04  0.11475265243E+04  0.00000000000E+00 0. -1.
<mgrwt>
<rscale>  3 0.28551066E+03</rscale>
<asrwt>0</asrwt>
<pdfrwt beam="1">  1       21 0.21552500E-01 0.28551066E+03</pdfrwt>
<pdfrwt beam="2">  1        1 0.19927740E+00 0.28551066E+03</pdfrwt>
<totfact> 0.21454958E+03</totfact>
</mgrwt>
</event>
<event>
 4    0  0.1594254E-001  0.2569139E+03  0.7546771E-02  0.1109012E+00
         21   -1    0    0  501  502  0.00000000000E+00  0.00000000000E+00  0.65358365034E+02  0.65358365034E+02  0.00000000000E+00 0. -1.
          1   -1    0    0  502    0 -0.00000000000E+00 -0.00000000000E+00 -0.14128570938E+04  0.14128570938E+04  0.00000000000E+00 0. -1.
         25    1    1    2    0    0  0.21269261882E+03  0.71704893341E+02 -0.11528077952E+04  0.11810887158E+04  0.12500000000E+03 0.  0.
          1    1    1    2  501    0 -0.21269261882E+03 -0.71704893341E+02 -0.19469093355E+03  0.29712674305E+03  0.00000000000E+00 0. -1.
<mgrwt>
<rscale>  3 0.25691388E+03</rscale>
<asrwt>0</asrwt>
<pdfrwt beam="1">  1       21 0.10055133E-01 0.25691388E+03</pdfrwt>
<pdfrwt beam="2">  1        1 0.21736263E+00 0.25691388E+03</pdfrwt>
<totfact> 0.72977524E+03</totfact>
</mgrwt>
</event>
<event>
 4    0  0.1148697E-001  0.2573271E+03  0.7546771E-02  0.1108760E+00
         21   -1    0    0  501  502  0.00000000000E+00  0.00000000000E+00  0.12187813616E+04  0.12187813616E+04  0.00000000000E+00 0. -1.
         -1   -1    0    0    0  501 -0.00000000000E+00 -0.00000000000E+00 -0.81778726293E+02  0.81778726293E+02  0.00000000000E+00 0. -1.
         25    1    1    2    0    0  0.19709477575E+03  0.10837839569E+03  0.10099766149E+04  0.10422427692E+04  0.12500000000E+03 0.  0.
         -1    1    1    2    0  502 -0.19709477575E+03 -0.10837839569E+03  0.12702602040E+03  0.25831731870E+03  0.00000000000E+00 0. -1.
<mgrwt>
<rscale>  3 0.25732708E+03</rscale>
<asrwt>0</asrwt>
<pdfrwt beam="1">  1       21 0.18750481E+00 0.25732708E+03</pdfrwt>
<pdfrwt beam="2">  1       -1 0.12581343E-01 0.25732708E+03</pdfrwt>
<totfact> 0.59684915E+02</totfact>
</mgrwt>
</event>
<event>
 4    0  0.1002184E-001  0.2908659E+03  0.7546771E-02  0.1089898E+00
         21   -1    0    0  501  502  0.00000000000E+00  0.00000000000E+00  0.24569075601E+02  0.24569075601E+02  0.00000000000E+00 0.  1.
          1   -1    0    0  502    0 -0.00000000000E+00 -0.00000000000E+00 -0.33021967667E+04  0.33021967667E+04  0.00000000000E+00 0. -1.
         25    1    1    2    0    0 -0.17326757611E+03  0.19737360376E+03 -0.13246913059E+04  0.13562485201E+04  0.12500000000E+03 0.  0.
          1    1    1    2  501    0  0.17326757611E+03 -0.19737360376E+03 -0.19529363852E+04  0.19705173221E+04  0.00000000000E+00 0. -1.
<mgrwt>
<rscale>  3 0.29086594E+03</rscale>
<asrwt>0</asrwt>
<pdfrwt beam="1">  1       21 0.37798582E-02 0.29086594E+03</pdfrwt>
<pdfrwt beam="2">  1        1 0.50803021E+00 0.29086594E+03</pdfrwt>
<totfact> 0.21031798E+03</totfact>
</mgrwt>
</event>
<event>
 4    0  0.1002184E-001  0.6239802E+03  0.7546771E-02  0.9856867E-01
         21   -1    0    0  501  502  0.00000000000E+00  0.00000000000E+00  0.23820198669E+03  0.23820198669E+03  0.00000000000E+00 0. -1.
          2   -1    0    0  502    0 -0.00000000000E+00 -0.00000000000E+00 -0.32821582712E+04  0.32821582712E+04  0.00000000000E+00 0. -1.
         25    1    1    2    0    0  0.57534732954E+03  0.20664396907E+03 -0.27008873960E+03  0.67992588332E+03  0.12500000000E+03 0.  0.
          2    1    1    2  501    0 -0.57534732954E+03 -0.20664396907E+03 -0.27738675449E+04  0.28404343745E+04  0.00000000000E+00 0. -1.
<mgrwt>
<rscale>  3 0.62398019E+03</rscale>
<asrwt>0</asrwt>
<pdfrwt beam="1">  1       21 0.36646463E-01 0.62398019E+03</pdfrwt>
<pdfrwt beam="2">  1        2 0.50494737E+00 0.62398019E+03</pdfrwt>
<totfact> 0.10519335E+02</totfact>
</mgrwt>
</event>
<event>
 4    0  0.1398380E-001  0.2795573E+03  0.7546771E-02  0.1095931E+00
         21   -1    0    0  501  502  0.00000000000E+00  0.00000000000E+00  0.61734580864E+03  0.61734580864E+03  0.00000000000E+00 0.  1.
         -4   -1    0    0    0  501 -0.00000000000E+00 -0.00000000000E+00 -0.11365456669E+03  0.11365456669E+03  0.00000000000E+00 0.  1.
         25    1    1    2    0    0  0.21167569135E+03 -0.13311913967E+03  0.25694132828E+03  0.37969876196E+03  0.12500000000E+03 0.  0.
         -4    1    1    2    0  502 -0.21167569135E+03  0.13311913967E+03  0.24674991368E+03  0.35130161337E+03  0.00000000000E+00 0.  1.
<mgrwt>
<rscale>  3 0.27955734E+03</rscale>
<asrwt>0</asrwt>
<pdfrwt beam="1">  1       21 0.94976276E-01 0.27955734E+03</pdfrwt>
<pdfrwt beam="2">  1       -4 0.17485318E-01 0.27955734E+03</pdfrwt>
<totfact> 0.11146157E+03</totfact>
</mgrwt>
</event>
<event>
 4    0  0.1366570E-001  0.3532378E+03  0.7546771E-02  0.1061294E+00
          2   -1    0    0  502    0 -0.00000000000E+00  0.00000000000E+00  0.19542738409E+04  0.19542738409E+04  0.00000000000E+00 0. -1.
         21   -1    0    0  501  502  0.00000000000E+00 -0.00000000000E+00 -0.60261756336E+02  0.60261756336E+02  0.00000000000E+00 0. -1.
         25    1    1    2    0    0  0.23598870713E+03  0.23121688147E+03  0.88875682641E+03  0.95638152045E+03  0.12500000000E+03 0.  0.
          2    1    1    2  501    0 -0.23598870713E+03 -0.23121688147E+03  0.10052552581E+04  0.10581540768E+04  0.00000000000E+00 0. -1.
<mgrwt>
<rscale>  3 0.35323776E+03</rscale>
<asrwt>0</asrwt>
<pdfrwt beam="1">  1       21 0.92710409E-02 0.35323776E+03</pdfrwt>
<pdfrwt beam="2">  1        2 0.30065747E+00 0.35323776E+03</pdfrwt>
<totfact> 0.89542492E+03</totfact>
</mgrwt>
</event>
<event>
 4    0  0.1002184E-001  0.2706629E+03  0.7546771E-02  0.1100901E+00
         21   -1    0    0  501  502  0.00000000000E+00  0.00000000000E+00  0.51110131351E+02  0.51110131351E+02  0.00000000000E+00 0.  1.
          1   -1    0    0  502    0 -0.00000000000E+00 -0.00000000000E+00 -0.13336784987E+04  0.13336784987E+04  0.00000000000E+00 0. -1.
         25    1    1    2    0    0 -0.22897067754E+03  0.72151435324E+02 -0.53417780841E+03  0.59883581372E+03  0.12500000000E+03 0.  0.
          1    1    1    2  501    0  0.22897067754E+03 -0.72151435324E+02 -0.74839055893E+03  0.78595281633E+03  0.00000000000E+00 0. -1.
<mgrwt>
<rscale>  3 0.27066289E+03</rscale>
<asrwt>0</asrwt>
<pdfrwt beam="1">  1       21 0.78630970E-02 0.27066289E+03</pdfrwt>
<pdfrwt beam="2">  1        1 0.20518131E+00 0.27066289E+03</pdfrwt>
<totfact> 0.12694287E+04</totfact>
</mgrwt>
</event>
<event>
 4    0  0.1201742E-001  0.2670832E+03  0.7546771E-02  0.1102961E+00
         21   -1    0    0  501  502  0.00000000000E+00  0.00000000000E+00  0.71501146940E+03  0.71501146940E+03  0.00000000000E+00 0. -1.
          1   -1    0    0  502    0 -0.00000000000E+00 -0.00000000000E+00 -0.15588243374E+03  0.15588243374E+03  0.00000000000E+00 0. -1.
         25    1    1    2    0    0  0.20072630313E+03 -0.12416674188E+03  0.33835249639E+01  0.26710461770E+03  0.12500000000E+03 0.  0.
          1    1    1    2  501    0 -0.20072630313E+03  0.12416674188E+03  0.55574551069E+03  0.60378928544E+03  0.00000000000E+00 0. -1.
<mgrwt>
<rscale>  3 0.26708319E+03</rscale>
<asrwt>0</asrwt>
<pdfrwt beam="1">  1       21 0.11000176E+00 0.26708319E+03</pdfrwt>
<pdfrwt beam="2">  1        1 0.23981913E-01 0.26708319E+03</pdfrwt>
<totfact> 0.13803731E+03</totfact>
</mgrwt>
</event>
<event>
 4    0  0.1366623E-001  0.4250790E+03  0.7546771E-02  0.1035426E+00
         21   -1    0    0  501  502  0.00000000000E+00  0.00000000000E+00  0.19719457868E+03  0.19719457868E+03  0.00000000000E+00 0. -1.
          2   -1    0    0  502    0 -0.00000000000E+00 -0.00000000000E+00 -0.99967260866E+03  0.99967260866E+03  0.00000000000E+00 0. -1.
         25    1    1    2    0    0 -0.34570159550E+02  0.40481114452E+03 -0.19896174470E+03  0.46933776165E+03  0.12500000000E+03 0.  0.
          2    1    1    2  501    0  0.34570159550E+02 -0.40481114452E+03 -0.60351628527E+03  0.72752942569E+03  0.00000000000E+00 0. -1.
<mgrwt>
<rscale>  3 0.42507900E+03</rscale>
<asrwt>0</asrwt>
<pdfrwt beam="1">  1       21 0.30337628E-01 0.42507900E+03</pdfrwt>
<pdfrwt beam="2">  1        2 0.15379578E+00 0.42507900E+03</pdfrwt>
<totfact> 0.32485779E+03</totfact>
</mgrwt>
</event>
<event>
 4    0  0.1506304E-001  0.2669211E+03  0.7546771E-02  0.1103055E+00
          2   -1    0    0  502    0 -0.00000000000E+00  0.00000000000E+00  0.22443127146E+04  0.22443127146E+04  0.00000000000E+00 0.  1.
         21   -1    0    0  501  502  0.00000000000E+00 -0.00000000000E+00 -0.41245242652E+02  0.41245242652E+02  0.00000000000E+00 0.  1.
         25    1    1    2    0    0 -0.56863845933E+02  0.22888509861E+03  0.50510736649E+03  0.57129706548E+03  0.12500000000E+03 0.  0.
          2    1    1    2  501    0  0.56863845933E+02 -0.22888509861E+03  0.16979601055E+04  0.17142608918E+04  0.00000000000E+00 0.  1.
<mgrwt>
<rscale>  3 0.26692112E+03</rscale>
<asrwt>0</asrwt>
<pdfrwt beam="1">  1       21 0.63454237E-02 0.26692112E+03</pdfrwt>
<pdfrwt beam="2">  1        2 0.34527878E+00 0.26692112E+03</pdfrwt>
<totfact> 0.12510800E+04</totfact>
</mgrwt>
</event>
<event>
 4    0  0.1002184E-001  0.2787856E+03  0.7546771E-02  0.1096354E+00
          1   -1    0    0  502    0 -0.00000000000E+00  0.00000000000E+00  0.36180507261E+03  0.36180507261E+03  0.00000000000E+00 0. -1.
         21   -1    0    0  501  502  0.00000000000E+00 -0.00000000000E+00 -0.26457101300E+03  0.26457101300E+03  0.00000000000E+00 0.  1.
         25    1    1    2    0    0 -0.22498541736E+03  0.10713519929E+03 -0.11254005318E+03  0.30064373022E+03  0.12500000000E+03 0.  0.
          1    1    1    2  501    0  0.22498541736E+03 -0.10713519929E+03  0.20977411279E+03  0.32573235539E+03  0.00000000000E+00 0. -1.
<mgrwt>
<rscale>  3 0.27878556E+03</rscale>
<asrwt>0</asrwt>
<pdfrwt beam="1">  1       21 0.40703233E-01 0.27878556E+03</pdfrwt>
<pdfrwt beam="2">  1        1 0.55662319E-01 0.27878556E+03</pdfrwt>
<totfact> 0.42969618E+03</totfact>
</mgrwt>
</event>
<event>
 4    0  0.1002184E-001  0.2509801E+03  0.7546771E-02  0.1112687E+00
         21   -1    0    0  501  502  0.00000000000E+00  0.00000000000E+00  0.14939388596E+02  0.14939388596E+02  0.00000000000E+00 0.  1.
          2   -1    0    0  502    0 -0.00000000000E+00 -0.00000000000E+00 -0.43574103312E+04  0.43574103312E+04  0.00000000000E+00 0.  1.
         25    1    1    2    0    0  0.95885653425E+01 -0.21742600145E+03 -0.14381474605E+04  0.14598832573E+04  0.12500000000E+03 0.  0.
          2    1    1    2  501    0 -0.95885653425E+01  0.21742600145E+03 -0.29043234821E+04  0.29124664625E+04  0.00000000000E+00 0.  1.
<mgrwt>
<rscale>  3 0.25098009E+03</rscale>
<asrwt>0</asrwt>
<pdfrwt beam="1">  1       21 0.22983631E-02 0.25098009E+03</pdfrwt>
<pdfrwt beam="2">  1        2 0.67037209E+00 0.25098009E+03</pdfrwt>
<totfact> 0.29043822E+03</totfact>
</mgrwt>
</event>
<event>
 4    0  0.1589014E-001  0.2814177E+03  0.7546771E-02  0.1094917E+00
         21   -1    0    0  501  502  0.00000000000E+00  0.00000000000E+00  0.76256362471E+02  0.76256362471E+02  0.00000000000E+00 0.  1.
          2   -1    0    0  502    0 -0.00000000000E+00 -0.00000000000E+00 -0.15550528129E+04  0.15550528129E+04  0.00000000000E+00 0.  1.
         25    1    1    2    0    0  0.19636791701E+03 -0.15814734798E+03 -0.24846177770E+03  0.37540537753E+03  0.12500000000E+03 0.  0.
          2    1    1    2  501    0 -0.19636791701E+03  0.15814734798E+03 -0.12303346728E+04  0.12559037979E+04  0.00000000000E+00 0.  1.
<mgrwt>
<rscale>  3 0.28141774E+03</rscale>
<asrwt>0</asrwt>
<pdfrwt beam="1">  1       21 0.11731749E-01 0.28141774E+03</pdfrwt>
<pdfrwt beam="2">  1        2 0.23923887E+00 0.28141774E+03</pdfrwt>
<totfact> 0.97444491E+03</totfact>
</mgrwt>
</event>
<event>
 4    0  0.1756934E-001  0.2412719E+03  0.7546771E-02  0.1118948E+00
         21   -1    0    0  501  502  0.00000000000E+00  0.00000000000E+00  0.47639721712E+02  0.47639721712E+02  0.00000000000E+00 0. -1.
          2   -1    0    0  502    0 -0.00000000000E+00 -0.00000000000E+00 -0.17613007308E+04  0.17613007308E+04  0.00000000000E+00 0. -1.
         25    1    1    2    0    0  0.20563619316E+03 -0.17345842626E+02 -0.14698374864E+04  0.14895080929E+04  0.12500000000E+03 0.  0.
          2    1    1    2  501    0 -0.20563619316E+03  0.17345842626E+02 -0.24382352269E+03  0.31943235968E+03  0.00000000000E+00 0. -1.
<mgrwt>
<rscale>  3 0.24127188E+03</rscale>
<asrwt>0</asrwt>
<pdfrwt beam="1">  1       21 0.73291882E-02 0.24127188E+03</pdfrwt>
<pdfrwt beam="2">  1        2 0.27096933E+00 0.24127188E+03</pdfrwt>
<totfact> 0.17632240E+04</totfact>
</mgrwt>
</event>
<event>
 4    0  0.1649844E-001  0.2877938E+03  0.7546771E-02  0.1091507E+00
          2   -1    0    0  502    0 -0.00000000000E+00  0.00000000000E+00  0.17989179009E+04  0.17989179009E+04  0.00000000000E+00 0. -1.
         21   -1    0    0  501  502  0.00000000000E+00 -0.00000000000E+00 -0.48506029890E+02  0.48506029890E+02  0.00000000000E+00 0. -1.
         25    1    1    2    0    0  0.22479394025E+03 -0.12910447564E+03  0.12628850024E+04  0.12952620625E+04  0.12500000000E+03 0.  0.
          2    1    1    2  501    0 -0.22479394025E+03  0.12910447564E+03  0.48752686862E+03  0.55216186833E+03  0.00000000000E+00 0. -1.
<mgrwt>
<rscale>  3 0.28779382E+03</rscale>
<asrwt>0</asrwt>
<pdfrwt beam="1">  1       21 0.74624675E-02 0.28779382E+03</pdfrwt>
<pdfrwt beam="2">  1        2 0.27675655E+00 0.28779382E+03</pdfrwt>
<totfact> 0.16126555E+04</totfact>
</mgrwt>
</event>
<event>
 4    0  0.1085341E-001  0.2758752E+03  0.7546771E-02  0.1097963E+00
          2   -1    0    0  502    0 -0.00000000000E+00  0.00000000000E+00  0.16412114650E+03  0.16412114650E+03  0.00000000000E+00 0. -1.
         21   -1    0    0  501  502  0.00000000000E+00 -0.00000000000E+00 -0.70753671037E+03  0.70753671037E+03  0.00000000000E+00 0. -1.
         25    1    1    2    0    0 -0.18282330370E+03  0.16449248528E+03 -0.56093427990E+03  0.62510351499E+03  0.12500000000E+03 0.  0.
          2    1    1    2  501    0  0.18282330370E+03 -0.16449248528E+03  0.17518716029E+02  0.24655434188E+03  0.00000000000E+00 0. -1.
<mgrwt>
<rscale>  3 0.27587522E+03</rscale>
<asrwt>0</asrwt>
<pdfrwt beam="1">  1       21 0.10885180E+00 0.27587522E+03</pdfrwt>
<pdfrwt beam="2">  1        2 0.25249408E-01 0.27587522E+03</pdfrwt>
<totfact> 0.16935997E+03</totfact>
</mgrwt>
</event>
<event>
 4    0  0.1446966E-001  0.3081378E+03  0.7546771E-02  0.1081242E+00
          2   -1    0    0  502    0 -0.00000000000E+00  0.00000000000E+00  0.76382333666E+03  0.76382333666E+03  0.00000000000E+00 0.  1.
         21   -1    0    0  501  502  0.00000000000E+00 -0.00000000000E+00 -0.14110223836E+03  0.14110223836E+03  0.00000000000E+00 0.  1.
         25    1    1    2    0    0 -0.40251837187E+02 -0.27875380656E+03  0.12395957744E+03  0.33213682709E+03  0.12500000000E+03 0.  0.
          2    1    1    2  501    0  0.40251837187E+02  0.27875380656E+03  0.49876152086E+03  0.57278874793E+03  0.00000000000E+00 0.  1.
<mgrwt>
<rscale>  3 0.30813779E+03</rscale>
<asrwt>0</asrwt>
<pdfrwt beam="1">  1       21 0.21708037E-01 0.30813779E+03</pdfrwt>
<pdfrwt beam="2">  1        2 0.11751128E+00 0.30813779E+03</pdfrwt>
<totfact> 0.91548601E+03</totfact>
</mgrwt>
</event>
<event>
 4    0  0.1002184E-001  0.2678922E+03  0.7546771E-02  0.1102492E+00
          1   -1    0    0  502    0 -0.00000000000E+00  0.00000000000E+00  0.51626530209E+03  0.51626530209E+03  0.00000000000E+00 0. -1.
         21   -1    0    0  501  502  0.00000000000E+00 -0.00000000000E+00 -0.18831621676E+03  0.18831621676E+03  0.00000000000E+00 0.  1.
         25    1    1    2    0    0  0.22220230203E+03  0.82264153729E+02 -0.35999980292E+02  0.27030030077E+03  0.12500000000E+03 0.  0.
          1    1    1    2  501    0 -0.22220230203E+03 -0.82264153729E+02  0.36394906562E+03  0.43428121808E+03  0.00000000000E+00 0. -1.
<mgrwt>
<rscale>  3 0.26789224E+03</rscale>
<asrwt>0</asrwt>
<pdfrwt beam="1">  1       21 0.28971726E-01 0.26789224E+03</pdfrwt>
<pdfrwt beam="2">  1        1 0.79425430E-01 0.26789224E+03</pdfrwt>
<totfact> 0.53426521E+03</totfact>
</mgrwt>
</event>
<event>
 4    0  0.1409432E-001  0.2946980E+03  0.7546771E-02  0.1087921E+00
          1   -1    0    0  502    0 -0.00000000000E+00  0.00000000000E+00  0.23413753424E+04  0.23413753424E+04  0.00000000000E+00 0. -1.
         21   -1    0    0  501  502  0.00000000000E+00 -0.00000000000E+00 -0.62638592862E+02  0.62638592862E+02  0.00000000000E+00 0. -1.
         25    1    1    2    0    0 -0.24805806845E+03  0.98433225194E+02  0.35286694927E+03  0.45974121964E+03  0.12500000000E+03 0.  0.
          1    1    1    2  501    0  0.24805806845E+03 -0.98433225194E+02  0.19258698003E+04  0.19442727157E+04  0.00000000000E+00 0. -1.
<mgrwt>
<rscale>  3 0.29469799E+03</rscale>
<asrwt>0</asrwt>
<pdfrwt beam="1">  1       21 0.96367084E-02 0.29469799E+03</pdfrwt>
<pdfrwt beam="2">  1        1 0.36021152E+00 0.29469799E+03</pdfrwt>
<totfact> 0.19147265E+03</totfact>
</mgrwt>
</event>
<event>
 4    0  0.1765250E-001  0.2546123E+03  0.7546771E-02  0.1110424E+00
         21   -1    0    0  501  502  0.00000000000E+00  0.00000000000E+00  0.11711804196E+03  0.11711804196E+03  0.00000000000E+00 0. -1.
         -3   -1    0    0    0  501 -0.00000000000E+00 -0.00000000000E+00 -0.14004559073E+04  0.14004559073E+04  0.00000000000E+00 0. -1.
         25    1    1    2    0    0 -0.84825133448E+02 -0.20495633004E+03 -0.43808291590E+02  0.25835356955E+03  0.12500000000E+03 0.  0.
         -3    1    1    2    0  502  0.84825133448E+02  0.20495633004E+03 -0.12395295737E+04  0.12592203797E+04  0.00000000000E+00 0. -1.
<mgrwt>
<rscale>  3 0.25461226E+03</rscale>
<asrwt>0</asrwt>
<pdfrwt beam="1">  1       21 0.18018161E-01 0.25461226E+03</pdfrwt>
<pdfrwt beam="2">  1       -3 0.21545475E+00 0.25461226E+03</pdfrwt>
<totfact> 0.17656769E+02</totfact>
</mgrwt>
</event>
<event>
 4    0  0.1883590E-001  0.2673573E+03  0.7546771E-02  0.1102802E+00
          1   -1    0    0  502    0 -0.00000000000E+00  0.00000000000E+00  0.15880640715E+04  0.15880640715E+04  0.00000000000E+00 0. -1.
         21   -1    0    0  501  502  0.00000000000E+00 -0.00000000000E+00 -0.26885432444E+03  0.26885432444E+03  0.00000000000E+00 0.  1.
         25    1    1    2    0    0  0.17446559377E+03  0.15942616293E+03 -0.19084319079E+03  0.32848298024E+03  0.12500000000E+03 0.  0.
          1    1    1    2  501    0 -0.17446559377E+03 -0.15942616293E+03  0.15100529379E+04  0.15284354157E+04  0.00000000000E+00 0. -1.
<mgrwt>
<rscale>  3 0.26735734E+03</rscale>
<asrwt>0</asrwt>
<pdfrwt beam="1">  1       21 0.41362205E-01 0.26735734E+03</pdfrwt>
<pdfrwt beam="2">  1        1 0.24431754E+00 0.26735734E+03</pdfrwt>
<totfact> 0.38195430E+02</totfact>
</mgrwt>
</event>
<event>
 4    0  0.1002184E-001  0.3733287E+03  0.7546771E-02  0.1053427E+00
         21   -1    0    0  501  502  0.00000000000E+00  0.00000000000E+00  0.23271014516E+03  0.23271014516E+03  0.00000000000E+00 0. -1.
          2   -1    0    0  502    0 -0.00000000000E+00 -0.00000000000E+00 -0.75017296750E+03  0.75017296750E+03  0.00000000000E+00 0.  1.
         25    1    1    2    0    0 -0.35158757491E+03  0.11639142553E+02 -0.20338338583E+02  0.37388225485E+03  0.12500000000E+03 0.  0.
          2    1    1    2  501    0  0.35158757491E+03 -0.11639142553E+02 -0.49712448375E+03  0.60900085781E+03  0.00000000000E+00 0.  1.
<mgrwt>
<rscale>  3 0.37332867E+03</rscale>
<asrwt>0</asrwt>
<pdfrwt beam="1">  1       21 0.35801560E-01 0.37332867E+03</pdfrwt>
<pdfrwt beam="2">  1        2 0.11541123E+00 0.37332867E+03</pdfrwt>
<totfact> 0.34669400E+03</totfact>
</mgrwt>
</event>
<event>
 4    0  0.1553804E-001  0.2512076E+03  0.7546771E-02  0.1112544E+00
         21   -1    0    0  501  502  0.00000000000E+00  0.00000000000E+00  0.45760378748E+03  0.45760378748E+03  0.00000000000E+00 0.  1.
         -3   -1    0    0    0  501 -0.00000000000E+00 -0.00000000000E+00 -0.15692772111E+03  0.15692772111E+03  0.00000000000E+00 0.  1.
         25    1    1    2    0    0 -0.16228020401E+03  0.14541463543E+03  0.30682677043E+03  0.39654501366E+03  0.12500000000E+03 0.  0.
         -3    1    1    2    0  502  0.16228020401E+03 -0.14541463543E+03 -0.61507040539E+01  0.21798649493E+03  0.00000000000E+00 0.  1.
<mgrwt>
<rscale>  3 0.25120764E+03</rscale>
<asrwt>0</asrwt>
<pdfrwt beam="1">  1       21 0.70400582E-01 0.25120764E+03</pdfrwt>
<pdfrwt beam="2">  1       -3 0.24142727E-01 0.25120764E+03</pdfrwt>
<totfact> 0.14353817E+03</totfact>
</mgrwt>
</event>
<event>
 4    0  0.1242248E-001  0.3188612E+03  0.7546771E-02  0.1076175E+00
          1   -1    0    0  502    0 -0.00000000000E+00  0.00000000000E+00  0.29602293780E+03  0.29602293780E+03  0.00000000000E+00 0. -1.
         21   -1    0    0  501  502  0.00000000000E+00 -0.00000000000E+00 -0.32660812623E+03  0.32660812623E+03  0.00000000000E+00 0. -1.
         25    1    1    2    0    0 -0.29037980136E+03 -0.41557467835E+02  0.38757439634E+02  0.32120801873E+03  0.12500000000E+03 0.  0.
          1    1    1    2  501    0  0.29037980136E+03  0.41557467835E+02 -0.69342628061E+02  0.30142304530E+03  0.00000000000E+00 0. -1.
<mgrwt>
<rscale>  3 0.31886118E+03</rscale>
<asrwt>0</asrwt>
<pdfrwt beam="1">  1       21 0.50247404E-01 0.31886118E+03</pdfrwt>
<pdfrwt beam="2">  1        1 0.45541990E-01 0.31886118E+03</pdfrwt>
<totfact> 0.35493437E+03</totfact>
</mgrwt>
</event>
<event>
 4    0  0.1202966E-001  0.2592521E+03  0.7546771E-02  0.1107593E+00
         21   -1    0    0  501  502  0.00000000000E+00  0.00000000000E+00  0.37232937957E+03  0.37232937957E+03  0.00000000000E+00 0. -1.
          1   -1    0    0  502    0 -0.00000000000E+00 -0.00000000000E+00 -0.29335163698E+03  0.29335163698E+03  0.00000000000E+00 0. -1.
         25    1    1    2    0    0  0.19731250144E+03  0.11249200348E+03  0.26601731839E+03  0.37145240308E+03  0.12500000000E+03 0.  0.
          1    1    1    2  501    0 -0.19731250144E+03 -0.11249200348E+03 -0.18703957580E+03  0.29422861347E+03  0.00000000000E+00 0. -1.
<mgrwt>
<rscale>  3 0.25925214E+03</rscale>
<asrwt>0</asrwt>
<pdfrwt beam="1">  1       21 0.57281443E-01 0.25925214E+03</pdfrwt>
<pdfrwt beam="2">  1        1 0.45131021E-01 0.25925214E+03</pdfrwt>
<totfact> 0.27571796E+03</totfact>
</mgrwt>
</event>
<event>
 4    0  0.1002184E-001  0.5871555E+03  0.7546771E-02  0.9932419E-01
         21   -1    0    0  501  502  0.00000000000E+00  0.00000000000E+00  0.13235368617E+03  0.13235368617E+03  0.00000000000E+00 0. -1.
          2   -1    0    0  502    0 -0.00000000000E+00 -0.00000000000E+00 -0.37931819805E+04  0.37931819805E+04  0.00000000000E+00 0. -1.
         25    1    1    2    0    0 -0.46514693051E+03  0.33580483186E+03 -0.71897350416E+03  0.92826421440E+03  0.12500000000E+03 0.  0.
          2    1    1    2  501    0  0.46514693051E+03 -0.33580483186E+03 -0.29418547902E+04  0.29972714522E+04  0.00000000000E+00 0. -1.
<mgrwt>
<rscale>  3 0.58715548E+03</rscale>
<asrwt>0</asrwt>
<pdfrwt beam="1">  1       21 0.20362110E-01 0.58715548E+03</pdfrwt>
<pdfrwt beam="2">  1        2 0.58356633E+00 0.58715548E+03</pdfrwt>
<totfact> 0.15184972E+02</totfact>
</mgrwt>
</event>
<event>
 4    0  0.1676699E-001  0.2559816E+03  0.7546771E-02  0.1109582E+00
         -3   -1    0    0    0  501 -0.00000000000E+00  0.00000000000E+00  0.33632761957E+03  0.33632761957E+03  0.00000000000E+00 0.  1.
         21   -1    0    0  501  502  0.00000000000E+00 -0.00000000000E+00 -0.20527914264E+03  0.20527914264E+03  0.00000000000E+00 0.  1.
         25    1    1    2    0    0  0.18219480073E+02  0.22264234088E+03 -0.41521025191E+02  0.25932712342E+03  0.12500000000E+03 0.  0.
         -3    1    1    2    0  502 -0.18219480073E+02 -0.22264234088E+03  0.17256950212E+03  0.28227963878E+03  0.00000000000E+00 0.  1.
<mgrwt>
<rscale>  3 0.25598156E+03</rscale>
<asrwt>0</asrwt>
<pdfrwt beam="1">  1       21 0.31581406E-01 0.25598156E+03</pdfrwt>
<pdfrwt beam="2">  1       -3 0.51742711E-01 0.25598156E+03</pdfrwt>
<totfact> 0.17687977E+03</totfact>
</mgrwt>
</event>
<event>
 4    0  0.1349373E-001  0.3900575E+03  0.7546771E-02  0.1047278E+00
          2   -1    0    0  502    0 -0.00000000000E+00  0.00000000000E+00  0.16706507778E+04  0.16706507778E+04  0.00000000000E+00 0.  1.
         21   -1    0    0  501  502  0.00000000000E+00 -0.00000000000E+00 -0.97530336602E+02  0.97530336602E+02  0.00000000000E+00 0.  1.
         25    1    1    2    0    0 -0.36853538675E+03 -0.26486001104E+02  0.50590789776E+03  0.63881737653E+03  0.12500000000E+03 0.  0.
          2    1    1    2  501    0  0.36853538675E+03  0.26486001104E+02  0.10672125435E+04  0.11293637379E+04  0.00000000000E+00 0.  1.
<mgrwt>
<rscale>  3 0.39005748E+03</rscale>
<asrwt>0</asrwt>
<pdfrwt beam="1">  1       21 0.15004668E-01 0.39005748E+03</pdfrwt>
<pdfrwt beam="2">  1        2 0.25702318E+00 0.39005748E+03</pdfrwt>
<totfact> 0.52466975E+03</totfact>
</mgrwt>
</event>
<event>
 4    0  0.1031693E-001  0.2390762E+03  0.7546771E-02  0.1120410E+00
         21   -1    0    0  501  502  0.00000000000E+00  0.00000000000E+00  0.17679653053E+03  0.17679653053E+03  0.00000000000E+00 0. -1.
          1   -1    0    0  502    0 -0.00000000000E+00 -0.00000000000E+00 -0.52639240871E+03  0.52639240871E+03  0.00000000000E+00 0.  1.
         25    1    1    2    0    0  0.18492473201E+03 -0.85646208001E+02  0.59300250190E+02  0.24632082561E+03  0.12500000000E+03 0.  0.
          1    1    1    2  501    0 -0.18492473201E+03  0.85646208001E+02 -0.40889612837E+03  0.45686811363E+03  0.00000000000E+00 0.  1.
<mgrwt>
<rscale>  3 0.23907620E+03</rscale>
<asrwt>0</asrwt>
<pdfrwt beam="1">  1       21 0.27199467E-01 0.23907620E+03</pdfrwt>
<pdfrwt beam="2">  1        1 0.80983445E-01 0.23907620E+03</pdfrwt>
<totfact> 0.59278539E+03</totfact>
</mgrwt>
</event>
<event>
 4    0  0.1135158E-001  0.5236210E+03  0.7546771E-02  0.1007791E+00
          1   -1    0    0  502    0 -0.00000000000E+00  0.00000000000E+00  0.74174006889E+03  0.74174006889E+03  0.00000000000E+00 0.  1.
         21   -1    0    0  501  502  0.00000000000E+00 -0.00000000000E+00 -0.35906692843E+03  0.35906692843E+03  0.00000000000E+00 0.  1.
         25    1    1    2    0    0 -0.38222444836E+03 -0.33534828483E+03  0.19948811200E+03  0.56033428227E+03  0.12500000000E+03 0.  0.
          1    1    1    2  501    0  0.38222444836E+03  0.33534828483E+03  0.18318502846E+03  0.54047271505E+03  0.00000000000E+00 0.  1.
<mgrwt>
<rscale>  3 0.52362105E+03</rscale>
<asrwt>0</asrwt>
<pdfrwt beam="1">  1       21 0.55241066E-01 0.52362105E+03</pdfrwt>
<pdfrwt beam="2">  1        1 0.11411386E+00 0.52362105E+03</pdfrwt>
<totfact> 0.79800200E+02</totfact>
</mgrwt>
</event>
<event>
 4    0  0.1002184E-001  0.2777020E+03  0.7546771E-02  0.1096951E+00
         -2   -1    0    0    0  501 -0.00000000000E+00  0.00000000000E+00  0.34752786576E+03  0.34752786576E+03  0.00000000000E+00 0. -1.
         21   -1    0    0  501  502  0.00000000000E+00 -0.00000000000E+00 -0.36560504512E+03  0.36560504512E+03  0.00000000000E+00 0.  1.
         25    1    1    2    0    0 -0.21601430980E+03  0.12178340062E+03 -0.24996012075E+03  0.37362874712E+03  0.12500000000E+03 0.  0.
         -2    1    1    2    0  502  0.21601430980E+03 -0.12178340062E+03  0.23188294139E+03  0.33950416377E+03  0.00000000000E+00 0. -1.
<mgrwt>
<rscale>  3 0.27770196E+03</rscale>
<asrwt>0</asrwt>
<pdfrwt beam="1">  1       21 0.56246930E-01 0.27770196E+03</pdfrwt>
<pdfrwt beam="2">  1       -2 0.53465826E-01 0.27770196E+03</pdfrwt>
<totfact> 0.78743252E+02</totfact>
</mgrwt>
</event>
<event>
 4    0  0.1249828E-001  0.3108564E+03  0.7546771E-02  0.1079936E+00
          2   -1    0    0  502    0 -0.00000000000E+00  0.00000000000E+00  0.40138892361E+03  0.40138892361E+03  0.00000000000E+00 0.  1.
         21   -1    0    0  501  502  0.00000000000E+00 -0.00000000000E+00 -0.46160483217E+03  0.46160483217E+03  0.00000000000E+00 0.  1.
         25    1    1    2    0    0  0.21411131751E+03  0.18751816288E+03  0.28073530175E+03  0.41886039123E+03  0.12500000000E+03 0.  0.
          2    1    1    2  501    0 -0.21411131751E+03 -0.18751816288E+03 -0.34095121031E+03  0.44413336455E+03  0.00000000000E+00 0.  1.
<mgrwt>
<rscale>  3 0.31085643E+03</rscale>
<asrwt>0</asrwt>
<pdfrwt beam="1">  1       21 0.71016128E-01 0.31085643E+03</pdfrwt>
<pdfrwt beam="2">  1        2 0.61752142E-01 0.31085643E+03</pdfrwt>
<totfact> 0.17041028E+03</totfact>
</mgrwt>
</event>
<event>
 4    0  0.1002184E-001  0.3545308E+03  0.7546771E-02  0.1060771E+00
         -1   -1    0    0    0  501 -0.00000000000E+00  0.00000000000E+00  0.32037274483E+03  0.32037274483E+03  0.00000000000E+00 0. -1.
         21   -1    0    0  501  502  0.00000000000E+00 -0.00000000000E+00 -0.52107848952E+03  0.52107848952E+03  0.00000000000E+00 0.  1.
         25    1    1    2    0    0  0.14146464389E+03  0.30009135356E+03 -0.33099089471E+03  0.48502271940E+03  0.12500000000E+03 0.  0.
         -1    1    1    2    0  502 -0.14146464389E+03 -0.30009135356E+03  0.13028515002E+03  0.35642851495E+03  0.00000000000E+00 0. -1.
<mgrwt>
<rscale>  3 0.35453077E+03</rscale>
<asrwt>0</asrwt>
<pdfrwt beam="1">  1       21 0.80165921E-01 0.35453077E+03</pdfrwt>
<pdfrwt beam="2">  1       -1 0.49288115E-01 0.35453077E+03</pdfrwt>
<totfact> 0.50235278E+02</totfact>
</mgrwt>
</event>
<event>
 4    0  0.1002184E-001  0.2784165E+03  0.7546771E-02  0.1096557E+00
         21   -1    0    0  501  502  0.00000000000E+00  0.00000000000E+00  0.25731153967E+02  0.25731153967E+02  0.00000000000E+00 0. -1.
          1   -1    0    0  502    0 -0.00000000000E+00 -0.00000000000E+00 -0.28258644770E+04  0.28258644770E+04  0.00000000000E+00 0.  1.
         25    1    1    2    0    0  0.23094999767E+03 -0.92481654199E+02 -0.11752700365E+04  0.12077977548E+04  0.12500000000E+03 0.  0.
          1    1    1    2  501    0 -0.23094999767E+03  0.92481654199E+02 -0.16248632866E+04  0.16437978762E+04  0.00000000000E+00 0.  1.
<mgrwt>
<rscale>  3 0.27841652E+03</rscale>
<asrwt>0</asrwt>
<pdfrwt beam="1">  1       21 0.39586379E-02 0.27841652E+03</pdfrwt>
<pdfrwt beam="2">  1        1 0.43474851E+00 0.27841652E+03</pdfrwt>
<totfact> 0.42486932E+03</totfact>
</mgrwt>
</event>
<event>
 4    0  0.1172541E-001  0.2662466E+03  0.7546771E-02  0.1103447E+00
         21   -1    0    0  501  502  0.00000000000E+00  0.00000000000E+00  0.37597667095E+03  0.37597667095E+03  0.00000000000E+00 0. -1.
          2   -1    0    0  502    0 -0.00000000000E+00 -0.00000000000E+00 -0.21898787750E+03  0.21898787750E+03  0.00000000000E+00 0. -1.
         25    1    1    2    0    0  0.22395361489E+03 -0.71463555801E+02  0.22678689134E+03  0.34974212717E+03  0.12500000000E+03 0.  0.
          2    1    1    2  501    0 -0.22395361489E+03  0.71463555801E+02 -0.69798097894E+02  0.24522242128E+03  0.00000000000E+00 0. -1.
<mgrwt>
<rscale>  3 0.26624662E+03</rscale>
<asrwt>0</asrwt>
<pdfrwt beam="1">  1       21 0.57842565E-01 0.26624662E+03</pdfrwt>
<pdfrwt beam="2">  1        2 0.33690443E-01 0.26624662E+03</pdfrwt>
<totfact> 0.52307532E+03</totfact>
</mgrwt>
</event>
<event>
 4    0  0.1002184E-001  0.2409169E+03  0.7546771E-02  0.1119184E+00
          2   -1    0    0  502    0 -0.00000000000E+00  0.00000000000E+00  0.29501918123E+04  0.29501918123E+04  0.00000000000E+00 0. -1.
         21   -1    0    0  501  502  0.00000000000E+00 -0.00000000000E+00 -0.58189590287E+03  0.58189590287E+03  0.00000000000E+00 0. -1.
         25    1    1    2    0    0 -0.19462299528E+03  0.67363355729E+02 -0.55317827654E+03  0.60336318882E+03  0.12500000000E+03 0.  0.
          2    1    1    2  501    0  0.19462299528E+03 -0.67363355729E+02  0.29214741860E+04  0.29287245264E+04  0.00000000000E+00 0. -1.
<mgrwt>
<rscale>  3 0.24091686E+03</rscale>
<asrwt>0</asrwt>
<pdfrwt beam="1">  1       21 0.89522448E-01 0.24091686E+03</pdfrwt>
<pdfrwt beam="2">  1        2 0.45387565E+00 0.24091686E+03</pdfrwt>
<totfact> 0.29590246E+01</totfact>
</mgrwt>
</event>
<event>
 4    0  0.1608729E-001  0.2768195E+03  0.7546771E-02  0.1097439E+00
          1   -1    0    0  502    0 -0.00000000000E+00  0.00000000000E+00  0.87299707375E+03  0.87299707375E+03  0.00000000000E+00 0.  1.
         21   -1    0    0  501  502  0.00000000000E+00 -0.00000000000E+00 -0.91718708751E+02  0.91718708751E+02  0.00000000000E+00 0.  1.
         25    1    1    2    0    0 -0.24698987907E+03  0.10331841454E+00  0.59205562360E+03  0.65357392274E+03  0.12500000000E+03 0.  0.
          1    1    1    2  501    0  0.24698987907E+03 -0.10331841454E+00  0.18922274139E+03  0.31114185977E+03  0.00000000000E+00 0.  1.
<mgrwt>
<rscale>  3 0.27681946E+03</rscale>
<asrwt>0</asrwt>
<pdfrwt beam="1">  1       21 0.14110571E-01 0.27681946E+03</pdfrwt>
<pdfrwt beam="2">  1        1 0.13430724E+00 0.27681946E+03</pdfrwt>
<totfact> 0.96484517E+03</totfact>
</mgrwt>
</event>
<event>
 4    0  0.1002184E-001  0.2985975E+03  0.7546771E-02  0.1085944E+00
         -3   -1    0    0    0  501 -0.00000000000E+00  0.00000000000E+00  0.22480885689E+03  0.22480885689E+03  0.00000000000E+00 0.  1.
         21   -1    0    0  501  502  0.00000000000E+00 -0.00000000000E+00 -0.57282931680E+03  0.57282931680E+03  0.00000000000E+00 0. -1.
         25    1    1    2    0    0 -0.25726316800E+03 -0.85738598655E+02 -0.42162633892E+03  0.51665192788E+03  0.12500000000E+03 0.  0.
         -3    1    1    2    0  502  0.25726316800E+03  0.85738598655E+02  0.73605879018E+02  0.28098624581E+03  0.00000000000E+00 0.  1.
<mgrwt>
<rscale>  3 0.29859746E+03</rscale>
<asrwt>0</asrwt>
<pdfrwt beam="1">  1       21 0.88127586E-01 0.29859746E+03</pdfrwt>
<pdfrwt beam="2">  1       -3 0.34585978E-01 0.29859746E+03</pdfrwt>
<totfact> 0.43701907E+02</totfact>
</mgrwt>
</event>
<event>
 4    0  0.1679908E-001  0.2608826E+03  0.7546771E-02  0.1106614E+00
          2   -1    0    0  502    0 -0.00000000000E+00  0.00000000000E+00  0.69345637763E+03  0.69345637763E+03  0.00000000000E+00 0.  1.
         21   -1    0    0  501  502  0.00000000000E+00 -0.00000000000E+00 -0.92113558310E+02  0.92113558310E+02  0.00000000000E+00 0.  1.
         25    1    1    2    0    0 -0.22358776354E+03  0.49429359140E+02  0.41571842965E+03  0.49079686460E+03  0.12500000000E+03 0.  0.
          2    1    1    2  501    0  0.22358776354E+03 -0.49429359140E+02  0.18562438967E+03  0.29477307135E+03  0.00000000000E+00 0.  1.
<mgrwt>
<rscale>  3 0.26088264E+03</rscale>
<asrwt>0</asrwt>
<pdfrwt beam="1">  1       21 0.14171317E-01 0.26088264E+03</pdfrwt>
<pdfrwt beam="2">  1        2 0.10668559E+00 0.26088264E+03</pdfrwt>
<totfact> 0.23017631E+04</totfact>
</mgrwt>
</event>
<event>
 4    0  0.1017311E-001  0.2465166E+03  0.7546771E-02  0.1115526E+00
         21   -1    0    0  501  502  0.00000000000E+00  0.00000000000E+00  0.98121149963E+03  0.98121149963E+03  0.00000000000E+00 0.  1.
          3   -1    0    0  502    0 -0.00000000000E+00 -0.00000000000E+00 -0.89214496429E+02  0.89214496429E+02  0.00000000000E+00 0.  1.
         25    1    1    2    0    0  0.19188362142E+03  0.91247570447E+02  0.80313659019E+03  0.84011834034E+03  0.12500000000E+03 0.  0.
          3    1    1    2  501    0 -0.19188362142E+03 -0.91247570447E+02  0.88860413017E+02  0.23030765572E+03  0.00000000000E+00 0.  1.
<mgrwt>
<rscale>  3 0.24651662E+03</rscale>
<asrwt>0</asrwt>
<pdfrwt beam="1">  1       21 0.15095561E+00 0.24651662E+03</pdfrwt>
<pdfrwt beam="2">  1        3 0.13725308E-01 0.24651662E+03</pdfrwt>
<totfact> 0.61690881E+02</totfact>
</mgrwt>
</event>
<event>
 4    0  0.1563381E-001  0.3220739E+03  0.7546771E-02  0.1074699E+00
         21   -1    0    0  501  502  0.00000000000E+00  0.00000000000E+00  0.25464890649E+03  0.25464890649E+03  0.00000000000E+00 0.  1.
          2   -1    0    0  502    0 -0.00000000000E+00 -0.00000000000E+00 -0.10468123160E+04  0.10468123160E+04  0.00000000000E+00 0. -1.
         25    1    1    2    0    0 -0.24726972436E+03  0.16420796116E+03  0.11885616898E+03  0.34330505385E+03  0.12500000000E+03 0.  0.
          2    1    1    2  501    0  0.24726972436E+03 -0.16420796116E+03 -0.91101957850E+03  0.95815616864E+03  0.00000000000E+00 0. -1.
<mgrwt>
<rscale>  3 0.32207386E+03</rscale>
<asrwt>0</asrwt>
<pdfrwt beam="1">  1       21 0.39176755E-01 0.32207386E+03</pdfrwt>
<pdfrwt beam="2">  1        2 0.16104805E+00 0.32207386E+03</pdfrwt>
<totfact> 0.18650016E+03</totfact>
</mgrwt>
</event>
<event>
 4    0  0.1416557E-001  0.2457560E+03  0.7546771E-02  0.1116017E+00
          1   -1    0    0  502    0 -0.00000000000E+00  0.00000000000E+00  0.12339387357E+04  0.12339387357E+04  0.00000000000E+00 0. -1.
         21   -1    0    0  501  502  0.00000000000E+00 -0.00000000000E+00 -0.84673907516E+02  0.84673907516E+02  0.00000000000E+00 0. -1.
         25    1    1    2    0    0  0.77203779514E+01 -0.21145077561E+03  0.13079268877E+03  0.27839317911E+03  0.12500000000E+03 0.  0.
          1    1    1    2  501    0 -0.77203779514E+01  0.21145077561E+03  0.10184721394E+04  0.10402194641E+04  0.00000000000E+00 0. -1.
<mgrwt>
<rscale>  3 0.24575605E+03</rscale>
<asrwt>0</asrwt>
<pdfrwt beam="1">  1       21 0.13026756E-01 0.24575605E+03</pdfrwt>
<pdfrwt beam="2">  1        1 0.18983671E+00 0.24575605E+03</pdfrwt>
<totfact> 0.60912537E+03</totfact>
</mgrwt>
</event>
<event>
 4    0  0.1021377E-001  0.2603555E+03  0.7546771E-02  0.1106930E+00
          2   -1    0    0  502    0 -0.00000000000E+00  0.00000000000E+00  0.64389969142E+02  0.64389969142E+02  0.00000000000E+00 0. -1.
         21   -1    0    0  501  502  0.00000000000E+00 -0.00000000000E+00 -0.92924236483E+03  0.92924236483E+03  0.00000000000E+00 0. -1.
         25    1    1    2    0    0  0.22021262519E+03 -0.60550756635E+02 -0.43874314141E+03  0.51017696788E+03  0.12500000000E+03 0.  0.
          2    1    1    2  501    0 -0.22021262519E+03  0.60550756635E+02 -0.42610925427E+03  0.48345536608E+03  0.00000000000E+00 0. -1.
<mgrwt>
<rscale>  3 0.26035552E+03</rscale>
<asrwt>0</asrwt>
<pdfrwt beam="1">  1       21 0.14296036E+00 0.26035552E+03</pdfrwt>
<pdfrwt beam="2">  1        2 0.99061497E-02 0.26035552E+03</pdfrwt>
<totfact> 0.25917355E+03</totfact>
</mgrwt>
</event>
<event>
 4    0  0.1002184E-001  0.3618994E+03  0.7546771E-02  0.1057834E+00
         21   -1    0    0  501  502  0.00000000000E+00  0.00000000000E+00  0.36602871848E+03  0.36602871848E+03  0.00000000000E+00 0. -1.
          2   -1    0    0  502    0 -0.00000000000E+00 -0.00000000000E+00 -0.38045440812E+03  0.38045440812E+03  0.00000000000E+00 0.  1.
         25    1    1    2    0    0 -0.32801187049E+03 -0.88059101466E+02  0.11991972276E+03  0.38125048517E+03  0.12500000000E+03 0.  0.
          2    1    1    2  501    0  0.32801187049E+03  0.88059101466E+02 -0.13434541239E+03  0.36523264143E+03  0.00000000000E+00 0.  1.
<mgrwt>
<rscale>  3 0.36189942E+03</rscale>
<asrwt>0</asrwt>
<pdfrwt beam="1">  1       21 0.56312111E-01 0.36189942E+03</pdfrwt>
<pdfrwt beam="2">  1        2 0.58531447E-01 0.36189942E+03</pdfrwt>
<totfact> 0.29709611E+03</totfact>
</mgrwt>
</event>
<event>
 4    0  0.2095988E-001  0.2616073E+03  0.7546771E-02  0.1106181E+00
         21   -1    0    0  501  502  0.00000000000E+00  0.00000000000E+00  0.65517825307E+02  0.65517825307E+02  0.00000000000E+00 0. -1.
         -1   -1    0    0    0  501 -0.00000000000E+00 -0.00000000000E+00 -0.97005436111E+03  0.97005436111E+03  0.00000000000E+00 0. -1.
         25    1    1    2    0    0 -0.22979777768E+03 -0.25215823238E+01 -0.36442590292E+03  0.44860296000E+03  0.12500000000E+03 0.  0.
         -1    1    1    2    0  502  0.22979777768E+03  0.25215823238E+01 -0.54011063288E+03  0.58696922642E+03  0.00000000000E+00 0. -1.
<mgrwt>
<rscale>  3 0.26160730E+03</rscale>
<asrwt>0</asrwt>
<pdfrwt beam="1">  1       21 0.10079666E-01 0.26160730E+03</pdfrwt>
<pdfrwt beam="2">  1       -1 0.14923912E+00 0.26160730E+03</pdfrwt>
<totfact> 0.28534820E+03</totfact>
</mgrwt>
</event>
<event>
 4    0  0.1446315E-001  0.3320679E+03  0.7546771E-02  0.1070226E+00
         21   -1    0    0  501  502  0.00000000000E+00  0.00000000000E+00  0.14192653943E+03  0.14192653943E+03  0.00000000000E+00 0. -1.
          2   -1    0    0  502    0 -0.00000000000E+00 -0.00000000000E+00 -0.72174135724E+03  0.72174135724E+03  0.00000000000E+00 0. -1.
         25    1    1    2    0    0  0.30371333769E+03 -0.49013292670E+02 -0.31614541011E+03  0.45849429079E+03  0.12500000000E+03 0.  0.
          2    1    1    2  501    0 -0.30371333769E+03  0.49013292670E+02 -0.26366940770E+03  0.40517360588E+03  0.00000000000E+00 0. -1.
<mgrwt>
<rscale>  3 0.33206791E+03</rscale>
<asrwt>0</asrwt>
<pdfrwt beam="1">  1       21 0.21834852E-01 0.33206791E+03</pdfrwt>
<pdfrwt beam="2">  1        2 0.11103713E+00 0.33206791E+03</pdfrwt>
<totfact> 0.96765806E+03</totfact>
</mgrwt>
</event>
<event>
 4    0  0.1342496E-001  0.3489949E+03  0.7546771E-02  0.1063028E+00
         21   -1    0    0  501  502  0.00000000000E+00  0.00000000000E+00  0.52896154079E+02  0.52896154079E+02  0.00000000000E+00 0. -1.
          2   -1    0    0  502    0 -0.00000000000E+00 -0.00000000000E+00 -0.25787079902E+04  0.25787079902E+04  0.00000000000E+00 0. -1.
         25    1    1    2    0    0 -0.12366140828E+03 -0.30146356200E+03 -0.18338392206E+04  0.18667521823E+04  0.12500000000E+03 0.  0.
          2    1    1    2  501    0  0.12366140828E+03  0.30146356200E+03 -0.69197261550E+03  0.76485196196E+03  0.00000000000E+00 0. -1.
<mgrwt>
<rscale>  3 0.34899488E+03</rscale>
<asrwt>0</asrwt>
<pdfrwt beam="1">  1       21 0.81378685E-02 0.34899488E+03</pdfrwt>
<pdfrwt beam="2">  1        2 0.39672437E+00 0.34899488E+03</pdfrwt>
<totfact> 0.51844135E+03</totfact>
</mgrwt>
</event>
<event>
 4    0  0.1737867E-001  0.2441016E+03  0.7546771E-02  0.1117090E+00
         -1   -1    0    0    0  501 -0.00000000000E+00  0.00000000000E+00  0.19691515758E+03  0.19691515758E+03  0.00000000000E+00 0.  1.
         21   -1    0    0  501  502  0.00000000000E+00 -0.00000000000E+00 -0.26145240698E+03  0.26145240698E+03  0.00000000000E+00 0.  1.
         25    1    1    2    0    0 -0.20119315404E+03 -0.59007755934E+02 -0.32002716112E+02  0.24619052446E+03  0.12500000000E+03 0.  0.
         -1    1    1    2    0  502  0.20119315404E+03  0.59007755934E+02 -0.32534533289E+02  0.21217704011E+03  0.00000000000E+00 0.  1.
<mgrwt>
<rscale>  3 0.24410162E+03</rscale>
<asrwt>0</asrwt>
<pdfrwt beam="1">  1       21 0.40223447E-01 0.24410162E+03</pdfrwt>
<pdfrwt beam="2">  1       -1 0.30294639E-01 0.24410162E+03</pdfrwt>
<totfact> 0.54181434E+03</totfact>
</mgrwt>
</event>
<event>
 4    0  0.1443733E-001  0.3401635E+03  0.7546771E-02  0.1066726E+00
          2   -1    0    0  502    0 -0.00000000000E+00  0.00000000000E+00  0.24736593616E+04  0.24736593616E+04  0.00000000000E+00 0. -1.
         21   -1    0    0  501  502  0.00000000000E+00 -0.00000000000E+00 -0.44560057848E+02  0.44560057848E+02  0.00000000000E+00 0. -1.
         25    1    1    2    0    0 -0.21189384725E+03 -0.23491953737E+03  0.10692568378E+04  0.11220612179E+04  0.12500000000E+03 0.  0.
          2    1    1    2  501    0  0.21189384725E+03  0.23491953737E+03  0.13598424660E+04  0.13961582016E+04  0.00000000000E+00 0. -1.
<mgrwt>
<rscale>  3 0.34016348E+03</rscale>
<asrwt>0</asrwt>
<pdfrwt beam="1">  1       21 0.68553954E-02 0.34016348E+03</pdfrwt>
<pdfrwt beam="2">  1        2 0.38056287E+00 0.34016348E+03</pdfrwt>
<totfact> 0.80330052E+03</totfact>
</mgrwt>
</event>
<event>
 4    0  0.1002184E-001  0.3612538E+03  0.7546771E-02  0.1058089E+00
         21   -1    0    0  501  502  0.00000000000E+00  0.00000000000E+00  0.84939990338E+02  0.84939990338E+02  0.00000000000E+00 0.  1.
          1   -1    0    0  502    0 -0.00000000000E+00 -0.00000000000E+00 -0.16222762961E+04  0.16222762961E+04  0.00000000000E+00 0. -1.
         25    1    1    2    0    0 -0.21971957068E+03 -0.25807485644E+03 -0.50681238131E+03  0.62238501839E+03  0.12500000000E+03 0.  0.
          1    1    1    2  501    0  0.21971957068E+03  0.25807485644E+03 -0.10305239245E+04  0.10848312681E+04  0.00000000000E+00 0. -1.
<mgrwt>
<rscale>  3 0.36125382E+03</rscale>
<asrwt>0</asrwt>
<pdfrwt beam="1">  1       21 0.13067691E-01 0.36125382E+03</pdfrwt>
<pdfrwt beam="2">  1        1 0.24958097E+00 0.36125382E+03</pdfrwt>
<totfact> 0.32058663E+03</totfact>
</mgrwt>
</event>
<event>
 4    0  0.1618360E-001  0.2910638E+03  0.7546771E-02  0.1089795E+00
         21   -1    0    0  501  502  0.00000000000E+00  0.00000000000E+00  0.10484158701E+03  0.10484158701E+03  0.00000000000E+00 0.  1.
          1   -1    0    0  502    0 -0.00000000000E+00 -0.00000000000E+00 -0.11479552786E+04  0.11479552786E+04  0.00000000000E+00 0.  1.
         25    1    1    2    0    0  0.23468285793E+03  0.11839385898E+03 -0.16157443259E+03  0.33290305934E+03  0.12500000000E+03 0.  0.
          1    1    1    2  501    0 -0.23468285793E+03 -0.11839385898E+03 -0.88153925896E+03  0.91989380623E+03  0.00000000000E+00 0.  1.
<mgrwt>
<rscale>  3 0.29106382E+03</rscale>
<asrwt>0</asrwt>
<pdfrwt beam="1">  1       21 0.16129475E-01 0.29106382E+03</pdfrwt>
<pdfrwt beam="2">  1        1 0.17660851E+00 0.29106382E+03</pdfrwt>
<totfact> 0.46728976E+03</totfact>
</mgrwt>
</event>
<event>
 4    0  0.1566161E-001  0.3358453E+03  0.7546771E-02  0.1068579E+00
         21   -1    0    0  501  502  0.00000000000E+00  0.00000000000E+00  0.26452805330E+03  0.26452805330E+03  0.00000000000E+00 0.  1.
         -2   -1    0    0    0  501 -0.00000000000E+00 -0.00000000000E+00 -0.41176549283E+03  0.41176549283E+03  0.00000000000E+00 0.  1.
         25    1    1    2    0    0  0.21429160874E+03  0.22637613608E+03 -0.14173613517E+03  0.36452871022E+03  0.12500000000E+03 0.  0.
         -2    1    1    2    0  502 -0.21429160874E+03 -0.22637613608E+03 -0.55013043651E+01  0.31176483591E+03  0.00000000000E+00 0.  1.
<mgrwt>
<rscale>  3 0.33584527E+03</rscale>
<asrwt>0</asrwt>
<pdfrwt beam="1">  1       21 0.40696624E-01 0.33584527E+03</pdfrwt>
<pdfrwt beam="2">  1       -2 0.63348537E-01 0.33584527E+03</pdfrwt>
<totfact> 0.10770191E+03</totfact>
</mgrwt>
</event>
<event>
 4    0  0.1433299E-001  0.3699391E+03  0.7546771E-02  0.1054716E+00
          2   -1    0    0  502    0 -0.00000000000E+00  0.00000000000E+00  0.73910936463E+03  0.73910936463E+03  0.00000000000E+00 0. -1.
         21   -1    0    0  501  502  0.00000000000E+00 -0.00000000000E+00 -0.33739772291E+03  0.33739772291E+03  0.00000000000E+00 0. -1.
         25    1    1    2    0    0  0.33728583358E+03  0.86418934238E+02 -0.16998901937E+03  0.40712557330E+03  0.12500000000E+03 0.  0.
          2    1    1    2  501    0 -0.33728583358E+03 -0.86418934238E+02  0.57170066109E+03  0.66938151425E+03  0.00000000000E+00 0. -1.
<mgrwt>
<rscale>  3 0.36993914E+03</rscale>
<asrwt>0</asrwt>
<pdfrwt beam="1">  1       21 0.51907342E-01 0.36993914E+03</pdfrwt>
<pdfrwt beam="2">  1        2 0.11370913E+00 0.36993914E+03</pdfrwt>
<totfact> 0.16362393E+03</totfact>
</mgrwt>
</event>
<event>
 4    0  0.1579306E-001  0.3444594E+03  0.7546771E-02  0.1064912E+00
         21   -1    0    0  501  502  0.00000000000E+00  0.00000000000E+00  0.86154709534E+02  0.86154709534E+02  0.00000000000E+00 0. -1.
          2   -1    0    0  502    0 -0.00000000000E+00 -0.00000000000E+00 -0.14188099677E+04  0.14188099677E+04  0.00000000000E+00 0. -1.
         25    1    1    2    0    0 -0.11324198678E+03  0.30033902918E+03 -0.91864792346E+03  0.98110462607E+03  0.12500000000E+03 0.  0.
          2    1    1    2  501    0  0.11324198678E+03 -0.30033902918E+03 -0.41400733470E+03  0.52386005116E+03  0.00000000000E+00 0. -1.
<mgrwt>
<rscale>  3 0.34445940E+03</rscale>
<asrwt>0</asrwt>
<pdfrwt beam="1">  1       21 0.13254570E-01 0.34445940E+03</pdfrwt>
<pdfrwt beam="2">  1        2 0.21827847E+00 0.34445940E+03</pdfrwt>
<totfact> 0.91109301E+03</totfact>
</mgrwt>
</event>
<event>
 4    0  0.1531278E-001  0.2474307E+03  0.7546771E-02  0.1114939E+00
          2   -1    0    0  502    0 -0.00000000000E+00  0.00000000000E+00  0.23874324838E+04  0.23874324838E+04  0.00000000000E+00 0.  1.
         21   -1    0    0  501  502  0.00000000000E+00 -0.00000000000E+00 -0.22393522564E+02  0.22393522564E+02  0.00000000000E+00 0.  1.
         25    1    1    2    0    0  0.20505514333E+03 -0.59576422689E+02  0.13648618047E+04  0.13871083981E+04  0.12500000000E+03 0.  0.
          2    1    1    2  501    0 -0.20505514333E+03  0.59576422689E+02  0.10001771565E+04  0.10227176083E+04  0.00000000000E+00 0.  1.
<mgrwt>
<rscale>  3 0.24743072E+03</rscale>
<asrwt>0</asrwt>
<pdfrwt beam="1">  1       21 0.34451592E-02 0.24743072E+03</pdfrwt>
<pdfrwt beam="2">  1        2 0.36729710E+00 0.24743072E+03</pdfrwt>
<totfact> 0.29798162E+04</totfact>
</mgrwt>
</event>
<event>
 4    0  0.1002184E-001  0.3064077E+03  0.7546771E-02  0.1082081E+00
          3   -1    0    0  502    0 -0.00000000000E+00  0.00000000000E+00  0.46865399493E+04  0.46865399493E+04  0.00000000000E+00 0.  1.
         21   -1    0    0  501  502  0.00000000000E+00 -0.00000000000E+00 -0.36349435842E+02  0.36349435842E+02  0.00000000000E+00 0. -1.
         25    1    1    2    0    0 -0.72245899555E+02 -0.27026138408E+03  0.71654658910E+03  0.77931040034E+03  0.12500000000E+03 0.  0.
          3    1    1    2  501    0  0.72245899555E+02  0.27026138408E+03  0.39336439243E+04  0.39435789848E+04  0.00000000000E+00 0.  1.
<mgrwt>
<rscale>  3 0.30640771E+03</rscale>
<asrwt>0</asrwt>
<pdfrwt beam="1">  1       21 0.55922246E-02 0.30640771E+03</pdfrwt>
<pdfrwt beam="2">  1        3 0.72100567E+00 0.30640771E+03</pdfrwt>
<totfact> 0.37141103E+00</totfact>
</mgrwt>
</event>
<event>
 4    0  0.1002184E-001  0.2373066E+03  0.7546771E-02  0.1121600E+00
         21   -1    0    0  501  502  0.00000000000E+00  0.00000000000E+00  0.95916673086E+02  0.95916673086E+02  0.00000000000E+00 0. -1.
          1   -1    0    0  502    0 -0.00000000000E+00 -0.00000000000E+00 -0.72376912947E+03  0.72376912947E+03  0.00000000000E+00 0.  1.
         25    1    1    2    0    0 -0.17163042070E+03  0.10598302974E+03 -0.10542983674E+03  0.25967259073E+03  0.12500000000E+03 0.  0.
          1    1    1    2  501    0  0.17163042070E+03 -0.10598302974E+03 -0.52242261964E+03  0.56001321182E+03  0.00000000000E+00 0.  1.
<mgrwt>
<rscale>  3 0.23730656E+03</rscale>
<asrwt>0</asrwt>
<pdfrwt beam="1">  1       21 0.14756411E-01 0.23730656E+03</pdfrwt>
<pdfrwt beam="2">  1        1 0.11134910E+00 0.23730656E+03</pdfrwt>
<totfact> 0.11965041E+04</totfact>
</mgrwt>
</event>
<event>
 4    0  0.1002184E-001  0.2889813E+03  0.7546771E-02  0.1090882E+00
         21   -1    0    0  501  502  0.00000000000E+00  0.00000000000E+00  0.38810935761E+02  0.38810935761E+02  0.00000000000E+00 0.  1.
          2   -1    0    0  502    0 -0.00000000000E+00 -0.00000000000E+00 -0.20934376896E+04  0.20934376896E+04  0.00000000000E+00 0. -1.
         25    1    1    2    0    0 -0.16454584033E+03  0.20201445045E+03 -0.79337192341E+03  0.84436318052E+03  0.12500000000E+03 0.  0.
          2    1    1    2  501    0  0.16454584033E+03 -0.20201445045E+03 -0.12612548305E+04  0.12878854449E+04  0.00000000000E+00 0. -1.
<mgrwt>
<rscale>  3 0.28898127E+03</rscale>
<asrwt>0</asrwt>
<pdfrwt beam="1">  1       21 0.59709118E-02 0.28898127E+03</pdfrwt>
<pdfrwt beam="2">  1        2 0.32206741E+00 0.28898127E+03</pdfrwt>
<totfact> 0.16608759E+04</totfact>
</mgrwt>
</event>
<event>
 4    0  0.1535888E-001  0.2616921E+03  0.7546771E-02  0.1106131E+00
         -4   -1    0    0    0  501 -0.00000000000E+00  0.00000000000E+00  0.35107037756E+03  0.35107037756E+03  0.00000000000E+00 0.  1.
         21   -1    0    0  501  502  0.00000000000E+00 -0.00000000000E+00 -0.29261528138E+03  0.29261528138E+03  0.00000000000E+00 0.  1.
         25    1    1    2    0    0 -0.22182089283E+03 -0.60442152785E+02 -0.17595650700E+03  0.31534656283E+03  0.12500000000E+03 0.  0.
         -4    1    1    2    0  502  0.22182089283E+03  0.60442152785E+02  0.23441160319E+03  0.32833909612E+03  0.00000000000E+00 0.  1.
<mgrwt>
<rscale>  3 0.26169211E+03</rscale>
<asrwt>0</asrwt>
<pdfrwt beam="1">  1       21 0.45017736E-01 0.26169211E+03</pdfrwt>
<pdfrwt beam="2">  1       -4 0.54010827E-01 0.26169211E+03</pdfrwt>
<totfact> 0.65634911E+02</totfact>
</mgrwt>
</event>
<event>
 4    0  0.1195085E-001  0.3054159E+03  0.7546771E-02  0.1082564E+00
          3   -1    0    0  502    0 -0.00000000000E+00  0.00000000000E+00  0.26178355470E+03  0.26178355470E+03  0.00000000000E+00 0. -1.
         21   -1    0    0  501  502  0.00000000000E+00 -0.00000000000E+00 -0.37579328192E+03  0.37579328192E+03  0.00000000000E+00 0. -1.
         25    1    1    2    0    0  0.25807082408E+03  0.10513471940E+03 -0.17544416441E+03  0.35222083171E+03  0.12500000000E+03 0.  0.
          3    1    1    2  501    0 -0.25807082408E+03 -0.10513471940E+03  0.61434437189E+02  0.28535600491E+03  0.00000000000E+00 0. -1.
<mgrwt>
<rscale>  3 0.30541588E+03</rscale>
<asrwt>0</asrwt>
<pdfrwt beam="1">  1       21 0.57814351E-01 0.30541588E+03</pdfrwt>
<pdfrwt beam="2">  1        3 0.40274393E-01 0.30541588E+03</pdfrwt>
<totfact> 0.83612357E+02</totfact>
</mgrwt>
</event>
<event>
 4    0  0.1002184E-001  0.2808687E+03  0.7546771E-02  0.1095215E+00
          4   -1    0    0  502    0 -0.00000000000E+00  0.00000000000E+00  0.41449921873E+02  0.41449921873E+02  0.00000000000E+00 0.  1.
         21   -1    0    0  501  502  0.00000000000E+00 -0.00000000000E+00 -0.17367874905E+04  0.17367874905E+04  0.00000000000E+00 0.  1.
         25    1    1    2    0    0 -0.22765454108E+02  0.25048750159E+03 -0.78242227017E+03  0.83130732176E+03  0.12500000000E+03 0.  0.
          4    1    1    2  501    0  0.22765454108E+02 -0.25048750159E+03 -0.91291529846E+03  0.94693009062E+03  0.00000000000E+00 0.  1.
<mgrwt>
<rscale>  3 0.28086875E+03</rscale>
<asrwt>0</asrwt>
<pdfrwt beam="1">  1       21 0.26719806E+00 0.28086875E+03</pdfrwt>
<pdfrwt beam="2">  1        4 0.63769113E-02 0.28086875E+03</pdfrwt>
<totfact> 0.34359446E+02</totfact>
</mgrwt>
</event>
<event>
 4    0  0.1474421E-001  0.2568895E+03  0.7546771E-02  0.1109027E+00
         21   -1    0    0  501  502  0.00000000000E+00  0.00000000000E+00  0.69338477223E+02  0.69338477223E+02  0.00000000000E+00 0.  1.
          2   -1    0    0  502    0 -0.00000000000E+00 -0.00000000000E+00 -0.19047843888E+04  0.19047843888E+04  0.00000000000E+00 0.  1.
         25    1    1    2    0    0  0.21713987301E+03  0.56723045849E+02 -0.20597309616E+03  0.32926758833E+03  0.12500000000E+03 0.  0.
          2    1    1    2  501    0 -0.21713987301E+03 -0.56723045849E+02 -0.16294728154E+04  0.16448552777E+04  0.00000000000E+00 0.  1.
<mgrwt>
<rscale>  3 0.25688953E+03</rscale>
<asrwt>0</asrwt>
<pdfrwt beam="1">  1       21 0.10667457E-01 0.25688953E+03</pdfrwt>
<pdfrwt beam="2">  1        2 0.29304379E+00 0.25688953E+03</pdfrwt>
<totfact> 0.76155839E+03</totfact>
</mgrwt>
</event>
<event>
 4    0  0.1369241E-001  0.2553607E+03  0.7546771E-02  0.1109963E+00
         21   -1    0    0  501  502  0.00000000000E+00  0.00000000000E+00  0.19943265520E+03  0.19943265520E+03  0.00000000000E+00 0. -1.
          2   -1    0    0  502    0 -0.00000000000E+00 -0.00000000000E+00 -0.50168178365E+03  0.50168178365E+03  0.00000000000E+00 0. -1.
         25    1    1    2    0    0  0.15424140868E+03 -0.16060415186E+03  0.72276857681E+02  0.26539225667E+03  0.12500000000E+03 0.  0.
          2    1    1    2  501    0 -0.15424140868E+03  0.16060415186E+03 -0.37452598614E+03  0.43572218217E+03  0.00000000000E+00 0. -1.
<mgrwt>
<rscale>  3 0.25536074E+03</rscale>
<asrwt>0</asrwt>
<pdfrwt beam="1">  1       21 0.30681947E-01 0.25536074E+03</pdfrwt>
<pdfrwt beam="2">  1        2 0.77181812E-01 0.25536074E+03</pdfrwt>
<totfact> 0.77964305E+03</totfact>
</mgrwt>
</event>
<event>
 4    0  0.1404266E-001  0.2382087E+03  0.7546771E-02  0.1120992E+00
         21   -1    0    0  501  502  0.00000000000E+00  0.00000000000E+00  0.65166806993E+02  0.65166806993E+02  0.00000000000E+00 0.  1.
          1   -1    0    0  502    0 -0.00000000000E+00 -0.00000000000E+00 -0.85962271584E+03  0.85962271584E+03  0.00000000000E+00 0.  1.
         25    1    1    2    0    0 -0.12148201604E+03 -0.16235915141E+03 -0.25731861473E+03  0.35065117104E+03  0.12500000000E+03 0.  0.
          1    1    1    2  501    0  0.12148201604E+03  0.16235915141E+03 -0.53713729411E+03  0.57413835179E+03  0.00000000000E+00 0.  1.
<mgrwt>
<rscale>  3 0.23820868E+03</rscale>
<asrwt>0</asrwt>
<pdfrwt beam="1">  1       21 0.10025663E-01 0.23820868E+03</pdfrwt>
<pdfrwt beam="2">  1        1 0.13224965E+00 0.23820868E+03</pdfrwt>
<totfact> 0.18439356E+04</totfact>
</mgrwt>
</event>
<event>
 4    0  0.1433350E-001  0.2662862E+03  0.7546771E-02  0.1103424E+00
          3   -1    0    0  502    0 -0.00000000000E+00  0.00000000000E+00  0.41058775330E+03  0.41058775330E+03  0.00000000000E+00 0. -1.
         21   -1    0    0  501  502  0.00000000000E+00 -0.00000000000E+00 -0.16125039556E+03  0.16125039556E+03  0.00000000000E+00 0. -1.
         25    1    1    2    0    0 -0.22131583369E+03  0.79389137510E+02  0.67785303520E+02  0.27477842122E+03  0.12500000000E+03 0.  0.
          3    1    1    2  501    0  0.22131583369E+03 -0.79389137510E+02  0.18155205422E+03  0.29705972764E+03  0.00000000000E+00 0. -1.
<mgrwt>
<rscale>  3 0.26628619E+03</rscale>
<asrwt>0</asrwt>
<pdfrwt beam="1">  1       21 0.24807753E-01 0.26628619E+03</pdfrwt>
<pdfrwt beam="2">  1        3 0.63167346E-01 0.26628619E+03</pdfrwt>
<totfact> 0.18737558E+03</totfact>
</mgrwt>
</event>
<event>
 4    0  0.1433426E-001  0.2361856E+03  0.7546771E-02  0.1122360E+00
         21   -1    0    0  501  502  0.00000000000E+00  0.00000000000E+00  0.61575779224E+02  0.61575779224E+02  0.00000000000E+00 0. -1.
          2   -1    0    0  502    0 -0.00000000000E+00 -0.00000000000E+00 -0.90075325999E+03  0.90075325999E+03  0.00000000000E+00 0. -1.
         25    1    1    2    0    0  0.19385449787E+03 -0.50784528907E+02 -0.26906342840E+03  0.35802061843E+03  0.12500000000E+03 0.  0.
          2    1    1    2  501    0 -0.19385449787E+03  0.50784528907E+02 -0.57011405236E+03  0.60430842078E+03  0.00000000000E+00 0. -1.
<mgrwt>
<rscale>  3 0.23618559E+03</rscale>
<asrwt>0</asrwt>
<pdfrwt beam="1">  1       21 0.94731968E-02 0.23618559E+03</pdfrwt>
<pdfrwt beam="2">  1        2 0.13857742E+00 0.23618559E+03</pdfrwt>
<totfact> 0.34141370E+04</totfact>
</mgrwt>
</event>
<event>
 4    0  0.1563869E-001  0.3672335E+03  0.7546771E-02  0.1055756E+00
          2   -1    0    0  502    0 -0.00000000000E+00  0.00000000000E+00  0.11497541160E+04  0.11497541160E+04  0.00000000000E+00 0.  1.
         21   -1    0    0  501  502  0.00000000000E+00 -0.00000000000E+00 -0.11140712192E+03  0.11140712192E+03  0.00000000000E+00 0.  1.
         25    1    1    2    0    0 -0.33984197344E+03  0.61179328131E+02  0.59506466966E+03  0.69925849167E+03  0.12500000000E+03 0.  0.
          2    1    1    2  501    0  0.33984197344E+03 -0.61179328131E+02  0.44328232443E+03  0.56190274626E+03  0.00000000000E+00 0.  1.
<mgrwt>
<rscale>  3 0.36723355E+03</rscale>
<asrwt>0</asrwt>
<pdfrwt beam="1">  1       21 0.17139558E-01 0.36723355E+03</pdfrwt>
<pdfrwt beam="2">  1        2 0.17688524E+00 0.36723355E+03</pdfrwt>
<totfact> 0.80021774E+03</totfact>
</mgrwt>
</event>
<event>
 4    0  0.1207593E-001  0.2971549E+03  0.7546771E-02  0.1086672E+00
          2   -1    0    0  502    0 -0.00000000000E+00  0.00000000000E+00  0.29890056993E+04  0.29890056993E+04  0.00000000000E+00 0. -1.
         21   -1    0    0  501  502  0.00000000000E+00 -0.00000000000E+00 -0.35063838327E+02  0.35063838327E+02  0.00000000000E+00 0. -1.
         25    1    1    2    0    0 -0.13526744619E+03  0.23319254845E+03  0.22625258925E+04  0.22819562793E+04  0.12500000000E+03 0.  0.
          2    1    1    2  501    0  0.13526744619E+03 -0.23319254845E+03  0.69141596857E+03  0.74211325837E+03  0.00000000000E+00 0. -1.
<mgrwt>
<rscale>  3 0.29715492E+03</rscale>
<asrwt>0</asrwt>
<pdfrwt beam="1">  1       21 0.53944390E-02 0.29715492E+03</pdfrwt>
<pdfrwt beam="2">  1        2 0.45984683E+00 0.29715492E+03</pdfrwt>
<totfact> 0.62749199E+03</totfact>
</mgrwt>
</event>
<event>
 4    0  0.1417233E-001  0.2427034E+03  0.7546771E-02  0.1118005E+00
          2   -1    0    0  502    0 -0.00000000000E+00  0.00000000000E+00  0.11675635224E+04  0.11675635224E+04  0.00000000000E+00 0. -1.
         21   -1    0    0  501  502  0.00000000000E+00 -0.00000000000E+00 -0.15460112241E+03  0.15460112241E+03  0.00000000000E+00 0. -1.
         25    1    1    2    0    0 -0.10355043868E+03  0.18043621862E+03 -0.42498620387E+02  0.24639613446E+03  0.12500000000E+03 0.  0.
          2    1    1    2  501    0  0.10355043868E+03 -0.18043621862E+03  0.10554610204E+04  0.10757685104E+04  0.00000000000E+00 0. -1.
<mgrwt>
<rscale>  3 0.24270336E+03</rscale>
<asrwt>0</asrwt>
<pdfrwt beam="1">  1       21 0.23784789E-01 0.24270336E+03</pdfrwt>
<pdfrwt beam="2">  1        2 0.17962515E+00 0.24270336E+03</pdfrwt>
<totfact> 0.43489304E+03</totfact>
</mgrwt>
</event>
<event>
 4    0  0.1002184E-001  0.2394159E+03  0.7546771E-02  0.1120183E+00
         -1   -1    0    0    0  501 -0.00000000000E+00  0.00000000000E+00  0.10056582652E+04  0.10056582652E+04  0.00000000000E+00 0. -1.
         21   -1    0    0  501  502  0.00000000000E+00 -0.00000000000E+00 -0.85014007128E+02  0.85014007128E+02  0.00000000000E+00 0.  1.
         25    1    1    2    0    0  0.50513192517E+02 -0.19784692885E+03  0.12666801715E+03  0.27085932962E+03  0.12500000000E+03 0.  0.
         -1    1    1    2    0  502 -0.50513192517E+02  0.19784692885E+03  0.79397624091E+03  0.81981294269E+03  0.00000000000E+00 0. -1.
<mgrwt>
<rscale>  3 0.23941593E+03</rscale>
<asrwt>0</asrwt>
<pdfrwt beam="1">  1       21 0.13079079E-01 0.23941593E+03</pdfrwt>
<pdfrwt beam="2">  1       -1 0.15471665E+00 0.23941593E+03</pdfrwt>
<totfact> 0.16348067E+03</totfact>
</mgrwt>
</event>
<event>
 4    0  0.1392472E-001  0.2799127E+03  0.7546771E-02  0.1095737E+00
         21   -1    0    0  501  502  0.00000000000E+00  0.00000000000E+00  0.79886936807E+03  0.79886936807E+03  0.00000000000E+00 0. -1.
         -4   -1    0    0    0  501 -0.00000000000E+00 -0.00000000000E+00 -0.99041881605E+02  0.99041881605E+02  0.00000000000E+00 0. -1.
         25    1    1    2    0    0  0.10737408705E+03 -0.22626743013E+03  0.51670856300E+03  0.58765541228E+03  0.12500000000E+03 0.  0.
         -4    1    1    2    0  502 -0.10737408705E+03  0.22626743013E+03  0.18311892346E+03  0.31025583739E+03  0.00000000000E+00 0. -1.
<mgrwt>
<rscale>  3 0.27991274E+03</rscale>
<asrwt>0</asrwt>
<pdfrwt beam="1">  1       21 0.12290298E+00 0.27991274E+03</pdfrwt>
<pdfrwt beam="2">  1       -4 0.15237213E-01 0.27991274E+03</pdfrwt>
<totfact> 0.75964039E+02</totfact>
</mgrwt>
</event>
<event>
 4    0  0.1002184E-001  0.2473843E+03  0.7546771E-02  0.1114969E+00
         21   -1    0    0  501  502  0.00000000000E+00  0.00000000000E+00  0.21256832034E+04  0.21256832034E+04  0.00000000000E+00 0. -1.
          2   -1    0    0  502    0 -0.00000000000E+00 -0.00000000000E+00 -0.53694495877E+02  0.53694495877E+02  0.00000000000E+00 0. -1.
         25    1    1    2    0    0 -0.21094793595E+03  0.32786927645E+02  0.18673206056E+04  0.18836361799E+04  0.12500000000E+03 0.  0.
          2    1    1    2  501    0  0.21094793595E+03 -0.32786927645E+02  0.20466810188E+03  0.29574151929E+03  0.00000000000E+00 0. -1.
<mgrwt>
<rscale>  3 0.24738435E+03</rscale>
<asrwt>0</asrwt>
<pdfrwt beam="1">  1       21 0.32702812E+00 0.24738435E+03</pdfrwt>
<pdfrwt beam="2">  1        2 0.82606933E-02 0.24738435E+03</pdfrwt>
<totfact> 0.22253984E+02</totfact>
</mgrwt>
</event>
<event>
 4    0  0.1002184E-001  0.3612119E+03  0.7546771E-02  0.1058105E+00
          2   -1    0    0  502    0 -0.00000000000E+00  0.00000000000E+00  0.99735789895E+03  0.99735789895E+03  0.00000000000E+00 0. -1.
         21   -1    0    0  501  502  0.00000000000E+00 -0.00000000000E+00 -0.13679555791E+03  0.13679555791E+03  0.00000000000E+00 0.  1.
         25    1    1    2    0    0 -0.23033923524E+03 -0.24858171890E+03  0.26169812150E+03  0.44604925856E+03  0.12500000000E+03 0.  0.
          2    1    1    2  501    0  0.23033923524E+03  0.24858171890E+03  0.59886421955E+03  0.68810419830E+03  0.00000000000E+00 0. -1.
<mgrwt>
<rscale>  3 0.36121190E+03</rscale>
<asrwt>0</asrwt>
<pdfrwt beam="1">  1       21 0.21045471E-01 0.36121190E+03</pdfrwt>
<pdfrwt beam="2">  1        2 0.15343967E+00 0.36121190E+03</pdfrwt>
<totfact> 0.67219585E+03</totfact>
</mgrwt>
</event>
<event>
 4    0  0.1394667E-001  0.2479849E+03  0.7546771E-02  0.1114585E+00
          1   -1    0    0  502    0 -0.00000000000E+00  0.00000000000E+00  0.15571317793E+04  0.15571317793E+04  0.00000000000E+00 0. -1.
         21   -1    0    0  501  502  0.00000000000E+00 -0.00000000000E+00 -0.84668628346E+02  0.84668628346E+02  0.00000000000E+00 0.  1.
         25    1    1    2    0    0 -0.20891326823E+03 -0.47188428060E+02  0.12553209166E+03  0.27794749040E+03  0.12500000000E+03 0.  0.
          1    1    1    2  501    0  0.20891326823E+03  0.47188428060E+02  0.13469310593E+04  0.13638529172E+04  0.00000000000E+00 0. -1.
<mgrwt>
<rscale>  3 0.24798488E+03</rscale>
<asrwt>0</asrwt>
<pdfrwt beam="1">  1       21 0.13025944E-01 0.24798488E+03</pdfrwt>
<pdfrwt beam="2">  1        1 0.23955871E+00 0.24798488E+03</pdfrwt>
<totfact> 0.36897720E+03</totfact>
</mgrwt>
</event>
<event>
 4    0  0.1002184E-001  0.3385799E+03  0.7546771E-02  0.1067402E+00
         21   -1    0    0  501  502  0.00000000000E+00  0.00000000000E+00  0.13028173064E+04  0.13028173064E+04  0.00000000000E+00 0.  1.
          2   -1    0    0  502    0 -0.00000000000E+00 -0.00000000000E+00 -0.16771257604E+03  0.16771257604E+03  0.00000000000E+00 0.  1.
         25    1    1    2    0    0  0.14578181133E+03 -0.27885308111E+03  0.11035138563E+04  0.11542873162E+04  0.12500000000E+03 0.  0.
          2    1    1    2  501    0 -0.14578181133E+03  0.27885308111E+03  0.31590874056E+02  0.31624256621E+03  0.00000000000E+00 0.  1.
<mgrwt>
<rscale>  3 0.33857994E+03</rscale>
<asrwt>0</asrwt>
<pdfrwt beam="1">  1       21 0.20043343E+00 0.33857994E+03</pdfrwt>
<pdfrwt beam="2">  1        2 0.25801936E-01 0.33857994E+03</pdfrwt>
<totfact> 0.31206442E+02</totfact>
</mgrwt>
</event>
<event>
 4    0  0.1002184E-001  0.6266142E+03  0.7546771E-02  0.9851678E-01
         21   -1    0    0  501  502  0.00000000000E+00  0.00000000000E+00  0.37891774576E+03  0.37891774576E+03  0.00000000000E+00 0. -1.
          2   -1    0    0  502    0 -0.00000000000E+00 -0.00000000000E+00 -0.15447199394E+04  0.15447199394E+04  0.00000000000E+00 0. -1.
         25    1    1    2    0    0  0.55434973332E+03 -0.26403931068E+03 -0.23841810914E+02  0.62706763301E+03  0.12500000000E+03 0.  0.
          2    1    1    2  501    0 -0.55434973332E+03  0.26403931068E+03 -0.11419603827E+04  0.12965700521E+04  0.00000000000E+00 0. -1.
<mgrwt>
<rscale>  3 0.62661422E+03</rscale>
<asrwt>0</asrwt>
<pdfrwt beam="1">  1       21 0.58295037E-01 0.62661422E+03</pdfrwt>
<pdfrwt beam="2">  1        2 0.23764922E+00 0.62661422E+03</pdfrwt>
<totfact> 0.38576594E+02</totfact>
</mgrwt>
</event>
<event>
 4    0  0.1015622E-001  0.2450206E+03  0.7546771E-02  0.1116493E+00
          2   -1    0    0  502    0 -0.00000000000E+00  0.00000000000E+00  0.54674819604E+03  0.54674819604E+03  0.00000000000E+00 0. -1.
         21   -1    0    0  501  502  0.00000000000E+00 -0.00000000000E+00 -0.14930383947E+03  0.14930383947E+03  0.00000000000E+00 0.  1.
         25    1    1    2    0    0 -0.14493580661E+03  0.15298263872E+03 -0.13238570607E+01  0.24502413837E+03  0.12500000000E+03 0.  0.
          2    1    1    2  501    0  0.14493580661E+03 -0.15298263872E+03  0.39876821363E+03  0.45102789713E+03  0.00000000000E+00 0. -1.
<mgrwt>
<rscale>  3 0.24502056E+03</rscale>
<asrwt>0</asrwt>
<pdfrwt beam="1">  1       21 0.22969822E-01 0.24502056E+03</pdfrwt>
<pdfrwt beam="2">  1        2 0.84115106E-01 0.24502056E+03</pdfrwt>
<totfact> 0.12409184E+04</totfact>
</mgrwt>
</event>
<event>
 4    0  0.1002184E-001  0.2695320E+03  0.7546771E-02  0.1101548E+00
         21   -1    0    0  501  502  0.00000000000E+00  0.00000000000E+00  0.41678695181E+04  0.41678695181E+04  0.00000000000E+00 0.  1.
          1   -1    0    0  502    0 -0.00000000000E+00 -0.00000000000E+00 -0.31959498634E+02  0.31959498634E+02  0.00000000000E+00 0. -1.
         25    1    1    2    0    0  0.19218035893E+03 -0.14173647940E+03  0.36342853754E+04  0.36442664158E+04  0.12500000000E+03 0.  0.
          1    1    1    2  501    0 -0.19218035893E+03  0.14173647940E+03  0.50162464406E+03  0.55556260087E+03  0.00000000000E+00 0. -1.
<mgrwt>
<rscale>  3 0.26953204E+03</rscale>
<asrwt>0</asrwt>
<pdfrwt beam="1">  1       21 0.64121027E+00 0.26953204E+03</pdfrwt>
<pdfrwt beam="2">  1        1 0.49168492E-02 0.26953204E+03</pdfrwt>
<totfact> 0.25820346E+00</totfact>
</mgrwt>
</event>
<event>
 4    0  0.1130245E-001  0.4052204E+03  0.7546771E-02  0.1041987E+00
          2   -1    0    0  502    0 -0.00000000000E+00  0.00000000000E+00  0.24669553308E+04  0.24669553308E+04  0.00000000000E+00 0. -1.
         21   -1    0    0  501  502  0.00000000000E+00 -0.00000000000E+00 -0.78337394318E+02  0.78337394318E+02  0.00000000000E+00 0. -1.
         25    1    1    2    0    0  0.34605070541E+03  0.16978653730E+03  0.66202381179E+03  0.77619526302E+03  0.12500000000E+03 0.  0.
          2    1    1    2  501    0 -0.34605070541E+03 -0.16978653730E+03  0.17265941247E+04  0.17690974621E+04  0.00000000000E+00 0. -1.
<mgrwt>
<rscale>  3 0.40522038E+03</rscale>
<asrwt>0</asrwt>
<pdfrwt beam="1">  1       21 0.12051909E-01 0.40522038E+03</pdfrwt>
<pdfrwt beam="2">  1        2 0.37953153E+00 0.40522038E+03</pdfrwt>
<totfact> 0.29097544E+03</totfact>
</mgrwt>
</event>
<event>
 4    0  0.1417415E-001  0.2658754E+03  0.7546771E-02  0.1103664E+00
         21   -1    0    0  501  502  0.00000000000E+00  0.00000000000E+00  0.11041772496E+04  0.11041772496E+04  0.00000000000E+00 0.  1.
          2   -1    0    0  502    0 -0.00000000000E+00 -0.00000000000E+00 -0.56885601473E+03  0.56885601473E+03  0.00000000000E+00 0. -1.
         25    1    1    2    0    0  0.23125217922E+03 -0.39838907049E+02  0.10628856804E+04  0.10956348290E+04  0.12500000000E+03 0.  0.
          2    1    1    2  501    0 -0.23125217922E+03  0.39838907049E+02 -0.52756444555E+03  0.57739843532E+03  0.00000000000E+00 0. -1.
<mgrwt>
<rscale>  3 0.26587536E+03</rscale>
<asrwt>0</asrwt>
<pdfrwt beam="1">  1       21 0.16987342E+00 0.26587536E+03</pdfrwt>
<pdfrwt beam="2">  1        2 0.87516310E-01 0.26587536E+03</pdfrwt>
<totfact> 0.13632830E+02</totfact>
</mgrwt>
</event>
<event>
 4    0  0.1056665E-001  0.5629858E+03  0.7546771E-02  0.9985321E-01
         21   -1    0    0  501  502  0.00000000000E+00  0.00000000000E+00  0.52307703200E+03  0.52307703200E+03  0.00000000000E+00 0.  1.
          1   -1    0    0  502    0 -0.00000000000E+00 -0.00000000000E+00 -0.10949101697E+04  0.10949101697E+04  0.00000000000E+00 0. -1.
         25    1    1    2    0    0  0.41082208869E+03 -0.36407854397E+03  0.26098217217E+03  0.62053579181E+03  0.12500000000E+03 0.  0.
          1    1    1    2  501    0 -0.41082208869E+03  0.36407854397E+03 -0.83281530992E+03  0.99745140993E+03  0.00000000000E+00 0. -1.
<mgrwt>
<rscale>  3 0.56298577E+03</rscale>
<asrwt>0</asrwt>
<pdfrwt beam="1">  1       21 0.80473390E-01 0.56298577E+03</pdfrwt>
<pdfrwt beam="2">  1        1 0.16844772E+00 0.56298577E+03</pdfrwt>
<totfact> 0.17668154E+02</totfact>
</mgrwt>
</event>
<event>
 4    0  0.1136066E-001  0.2467917E+03  0.7546771E-02  0.1115349E+00
          2   -1    0    0  502    0 -0.00000000000E+00  0.00000000000E+00  0.22815721877E+04  0.22815721877E+04  0.00000000000E+00 0.  1.
         21   -1    0    0  501  502  0.00000000000E+00 -0.00000000000E+00 -0.11156707222E+03  0.11156707222E+03  0.00000000000E+00 0.  1.
         25    1    1    2    0    0 -0.15592166723E+03  0.14480873865E+03  0.37004540290E+02  0.24955054218E+03  0.12500000000E+03 0.  0.
          2    1    1    2  501    0  0.15592166723E+03 -0.14480873865E+03  0.21330005752E+04  0.21435887178E+04  0.00000000000E+00 0.  1.
<mgrwt>
<rscale>  3 0.24679169E+03</rscale>
<asrwt>0</asrwt>
<pdfrwt beam="1">  1       21 0.17164167E-01 0.24679169E+03</pdfrwt>
<pdfrwt beam="2">  1        2 0.35101107E+00 0.24679169E+03</pdfrwt>
<totfact> 0.20382997E+03</totfact>
</mgrwt>
</event>
<event>
 4    0  0.1021242E-001  0.3247230E+03  0.7546771E-02  0.1073496E+00
          2   -1    0    0  502    0 -0.00000000000E+00  0.00000000000E+00  0.19735814677E+04  0.19735814677E+04  0.00000000000E+00 0. -1.
         21   -1    0    0  501  502  0.00000000000E+00 -0.00000000000E+00 -0.69364263961E+02  0.69364263961E+02  0.00000000000E+00 0.  1.
         25    1    1    2    0    0 -0.11514756120E+03  0.27669671871E+03  0.43145199000E+03  0.53999616172E+03  0.12500000000E+03 0.  0.
          2    1    1    2  501    0  0.11514756120E+03 -0.27669671871E+03  0.14727652138E+04  0.15029495700E+04  0.00000000000E+00 0. -1.
<mgrwt>
<rscale>  3 0.32472301E+03</rscale>
<asrwt>0</asrwt>
<pdfrwt beam="1">  1       21 0.10671427E-01 0.32472301E+03</pdfrwt>
<pdfrwt beam="2">  1        2 0.30362788E+00 0.32472301E+03</pdfrwt>
<totfact> 0.68523173E+03</totfact>
</mgrwt>
</event>
<event>
 4    0  0.1002184E-001  0.2489976E+03  0.7546771E-02  0.1113940E+00
         21   -1    0    0  501  502  0.00000000000E+00  0.00000000000E+00  0.81052765300E+03  0.81052765300E+03  0.00000000000E+00 0.  1.
          1   -1    0    0  502    0 -0.00000000000E+00 -0.00000000000E+00 -0.10062462252E+03  0.10062462252E+03  0.00000000000E+00 0. -1.
         25    1    1    2    0    0  0.20559538511E+03 -0.64072825684E+02  0.63677463087E+03  0.68372634868E+03  0.12500000000E+03 0.  0.
          1    1    1    2  501    0 -0.20559538511E+03  0.64072825684E+02  0.73128399612E+02  0.22742592684E+03  0.00000000000E+00 0. -1.
<mgrwt>
<rscale>  3 0.24899757E+03</rscale>
<asrwt>0</asrwt>
<pdfrwt beam="1">  1       21 0.12469656E+00 0.24899757E+03</pdfrwt>
<pdfrwt beam="2">  1        1 0.15480712E-01 0.24899757E+03</pdfrwt>
<totfact> 0.17958917E+03</totfact>
</mgrwt>
</event>
<event>
 4    0  0.1002184E-001  0.3947393E+03  0.7546771E-02  0.1045617E+00
         -1   -1    0    0    0  501 -0.00000000000E+00  0.00000000000E+00  0.22927550788E+03  0.22927550788E+03  0.00000000000E+00 0. -1.
         21   -1    0    0  501  502  0.00000000000E+00 -0.00000000000E+00 -0.11006434390E+04  0.11006434390E+04  0.00000000000E+00 0.  1.
         25    1    1    2    0    0  0.31828214992E+03 -0.19720705453E+03 -0.87014109024E+03  0.95549184520E+03  0.12500000000E+03 0.  0.
         -1    1    1    2    0  502 -0.31828214992E+03  0.19720705453E+03 -0.12268408530E+01  0.37442710166E+03  0.00000000000E+00 0. -1.
<mgrwt>
<rscale>  3 0.39473934E+03</rscale>
<asrwt>0</asrwt>
<pdfrwt beam="1">  1       21 0.16932976E+00 0.39473934E+03</pdfrwt>
<pdfrwt beam="2">  1       -1 0.35273155E-01 0.39473934E+03</pdfrwt>
<totfact> 0.13746127E+02</totfact>
</mgrwt>
</event>
<event>
 4    0  0.1002184E-001  0.2520024E+03  0.7546771E-02  0.1112046E+00
         -1   -1    0    0    0  501 -0.00000000000E+00  0.00000000000E+00  0.49067011011E+03  0.49067011011E+03  0.00000000000E+00 0. -1.
         21   -1    0    0  501  502  0.00000000000E+00 -0.00000000000E+00 -0.11499013774E+03  0.11499013774E+03  0.00000000000E+00 0.  1.
         25    1    1    2    0    0  0.17446610857E+03  0.13206739193E+03  0.16053006614E+03  0.29878942616E+03  0.12500000000E+03 0.  0.
         -1    1    1    2    0  502 -0.17446610857E+03 -0.13206739193E+03  0.21514990622E+03  0.30687082168E+03  0.00000000000E+00 0. -1.
<mgrwt>
<rscale>  3 0.25200242E+03</rscale>
<asrwt>0</asrwt>
<pdfrwt beam="1">  1       21 0.17690791E-01 0.25200242E+03</pdfrwt>
<pdfrwt beam="2">  1       -1 0.75487708E-01 0.25200242E+03</pdfrwt>
<totfact> 0.49169826E+03</totfact>
</mgrwt>
</event>
<event>
 4    0  0.1327205E-001  0.2879565E+03  0.7546771E-02  0.1091421E+00
          1   -1    0    0  502    0 -0.00000000000E+00  0.00000000000E+00  0.38169151169E+03  0.38169151169E+03  0.00000000000E+00 0.  1.
         21   -1    0    0  501  502  0.00000000000E+00 -0.00000000000E+00 -0.27563075526E+03  0.27563075526E+03  0.00000000000E+00 0.  1.
         25    1    1    2    0    0  0.15722062966E+03 -0.20633858586E+03 -0.12121916677E+03  0.31243083202E+03  0.12500000000E+03 0.  0.
          1    1    1    2  501    0 -0.15722062966E+03  0.20633858586E+03  0.22727992319E+03  0.34489143494E+03  0.00000000000E+00 0.  1.
<mgrwt>
<rscale>  3 0.28795649E+03</rscale>
<asrwt>0</asrwt>
<pdfrwt beam="1">  1       21 0.42404732E-01 0.28795649E+03</pdfrwt>
<pdfrwt beam="2">  1        1 0.58721771E-01 0.28795649E+03</pdfrwt>
<totfact> 0.36809727E+03</totfact>
</mgrwt>
</event>
<event>
 4    0  0.1806952E-001  0.2662245E+03  0.7546771E-02  0.1103460E+00
         -1   -1    0    0    0  501 -0.00000000000E+00  0.00000000000E+00  0.74607209250E+03  0.74607209250E+03  0.00000000000E+00 0.  1.
         21   -1    0    0  501  502  0.00000000000E+00 -0.00000000000E+00 -0.11412462342E+03  0.11412462342E+03  0.00000000000E+00 0.  1.
         25    1    1    2    0    0  0.22308419727E+03 -0.74053683590E+02  0.11055022748E+03  0.28826525965E+03  0.12500000000E+03 0.  0.
         -1    1    1    2    0  502 -0.22308419727E+03  0.74053683590E+02  0.52139724160E+03  0.57193145627E+03  0.00000000000E+00 0.  1.
<mgrwt>
<rscale>  3 0.26622454E+03</rscale>
<asrwt>0</asrwt>
<pdfrwt beam="1">  1       21 0.17557635E-01 0.26622454E+03</pdfrwt>
<pdfrwt beam="2">  1       -1 0.11478032E+00 0.26622454E+03</pdfrwt>
<totfact> 0.19916246E+03</totfact>
</mgrwt>
</event>
<event>
 4    0  0.1236607E-001  0.3815874E+03  0.7546771E-02  0.1050349E+00
         21   -1    0    0  501  502  0.00000000000E+00  0.00000000000E+00  0.93789873698E+03  0.93789873698E+03  0.00000000000E+00 0.  1.
          2   -1    0    0  502    0 -0.00000000000E+00 -0.00000000000E+00 -0.35536668815E+03  0.35536668815E+03  0.00000000000E+00 0.  1.
         25    1    1    2    0    0 -0.30469649108E+03  0.19272784612E+03  0.78997839949E+03  0.87731114550E+03  0.12500000000E+03 0.  0.
          2    1    1    2  501    0  0.30469649108E+03 -0.19272784612E+03 -0.20744635066E+03  0.41595427964E+03  0.00000000000E+00 0.  1.
<mgrwt>
<rscale>  3 0.38158744E+03</rscale>
<asrwt>0</asrwt>
<pdfrwt beam="1">  1       21 0.14429211E+00 0.38158744E+03</pdfrwt>
<pdfrwt beam="2">  1        2 0.54671799E-01 0.38158744E+03</pdfrwt>
<totfact> 0.34064644E+02</totfact>
</mgrwt>
</event>
<event>
 4    0  0.1424981E-001  0.2744590E+03  0.7546771E-02  0.1098754E+00
          1   -1    0    0  502    0 -0.00000000000E+00  0.00000000000E+00  0.43543536601E+03  0.43543536601E+03  0.00000000000E+00 0. -1.
         21   -1    0    0  501  502  0.00000000000E+00 -0.00000000000E+00 -0.15453215286E+03  0.15453215286E+03  0.00000000000E+00 0. -1.
         25    1    1    2    0    0  0.55590851050E+02 -0.23793359072E+03  0.14922171254E+03  0.31240175385E+03  0.12500000000E+03 0.  0.
          1    1    1    2  501    0 -0.55590851050E+02  0.23793359072E+03  0.13168150061E+03  0.27756576503E+03  0.00000000000E+00 0. -1.
<mgrwt>
<rscale>  3 0.27445899E+03</rscale>
<asrwt>0</asrwt>
<pdfrwt beam="1">  1       21 0.23774178E-01 0.27445899E+03</pdfrwt>
<pdfrwt beam="2">  1        1 0.66990056E-01 0.27445899E+03</pdfrwt>
<totfact> 0.97973325E+03</totfact>
</mgrwt>
</event>
<event>
 4    0  0.1314125E-001  0.2646178E+03  0.7546771E-02  0.1104400E+00
         21   -1    0    0  501  502  0.00000000000E+00  0.00000000000E+00  0.14491748170E+03  0.14491748170E+03  0.00000000000E+00 0.  1.
          2   -1    0    0  502    0 -0.00000000000E+00 -0.00000000000E+00 -0.89622546110E+03  0.89622546110E+03  0.00000000000E+00 0. -1.
         25    1    1    2    0    0  0.18101141961E+03 -0.14707971341E+03 -0.10870850885E+02  0.26484099291E+03  0.12500000000E+03 0.  0.
          2    1    1    2  501    0 -0.18101141961E+03  0.14707971341E+03 -0.74043712851E+03  0.77630194989E+03  0.00000000000E+00 0. -1.
<mgrwt>
<rscale>  3 0.26461779E+03</rscale>
<asrwt>0</asrwt>
<pdfrwt beam="1">  1       21 0.22294997E-01 0.26461779E+03</pdfrwt>
<pdfrwt beam="2">  1        2 0.13788084E+00 0.26461779E+03</pdfrwt>
<totfact> 0.71387383E+03</totfact>
</mgrwt>
</event>
<event>
 4    0  0.1141468E-001  0.4638947E+03  0.7546771E-02  0.1023658E+00
         21   -1    0    0  501  502  0.00000000000E+00  0.00000000000E+00  0.69415917270E+03  0.69415917270E+03  0.00000000000E+00 0.  1.
          2   -1    0    0  502    0 -0.00000000000E+00 -0.00000000000E+00 -0.19666235244E+04  0.19666235244E+04  0.00000000000E+00 0.  1.
         25    1    1    2    0    0  0.28696491145E+03 -0.34238048569E+03  0.58713148616E+03  0.74827911866E+03  0.12500000000E+03 0.  0.
          2    1    1    2  501    0 -0.28696491145E+03  0.34238048569E+03 -0.18595958378E+04  0.19125035784E+04  0.00000000000E+00 0.  1.
<mgrwt>
<rscale>  3 0.46389466E+03</rscale>
<asrwt>0</asrwt>
<pdfrwt beam="1">  1       21 0.10679372E+00 0.46389466E+03</pdfrwt>
<pdfrwt beam="2">  1        2 0.30255747E+00 0.46389466E+03</pdfrwt>
<totfact> 0.58838681E+01</totfact>
</mgrwt>
</event>
<event>
 4    0  0.1186015E-001  0.3448208E+03  0.7546771E-02  0.1064761E+00
          1   -1    0    0  502    0 -0.00000000000E+00  0.00000000000E+00  0.19428726421E+04  0.19428726421E+04  0.00000000000E+00 0.  1.
         21   -1    0    0  501  502  0.00000000000E+00 -0.00000000000E+00 -0.10379151647E+03  0.10379151647E+03  0.00000000000E+00 0. -1.
         25    1    1    2    0    0 -0.18679142187E+03 -0.26150586361E+03  0.25127319259E+03  0.42666095357E+03  0.12500000000E+03 0.  0.
          1    1    1    2  501    0  0.18679142187E+03  0.26150586361E+03  0.15878079330E+04  0.16200032050E+04  0.00000000000E+00 0.  1.
<mgrwt>
<rscale>  3 0.34482075E+03</rscale>
<asrwt>0</asrwt>
<pdfrwt beam="1">  1       21 0.15967927E-01 0.34482075E+03</pdfrwt>
<pdfrwt beam="2">  1        1 0.29890346E+00 0.34482075E+03</pdfrwt>
<totfact> 0.13717225E+03</totfact>
</mgrwt>
</event>
<event>
 4    0  0.1427759E-001  0.2406014E+03  0.7546771E-02  0.1119393E+00
         21   -1    0    0  501  502  0.00000000000E+00  0.00000000000E+00  0.29847383537E+02  0.29847383537E+02  0.00000000000E+00 0.  1.
          2   -1    0    0  502    0 -0.00000000000E+00 -0.00000000000E+00 -0.22175743802E+04  0.22175743802E+04  0.00000000000E+00 0.  1.
         25    1    1    2    0    0 -0.65066773126E+00  0.20558116210E+03 -0.60004546788E+03  0.64648557688E+03  0.12500000000E+03 0.  0.
          2    1    1    2  501    0  0.65066773126E+00 -0.20558116210E+03 -0.15876815288E+04  0.16009361869E+04  0.00000000000E+00 0.  1.
<mgrwt>
<rscale>  3 0.24060141E+03</rscale>
<asrwt>0</asrwt>
<pdfrwt beam="1">  1       21 0.45919042E-02 0.24060141E+03</pdfrwt>
<pdfrwt beam="2">  1        2 0.34116536E+00 0.24060141E+03</pdfrwt>
<totfact> 0.22679330E+04</totfact>
</mgrwt>
</event>
<event>
 4    0  0.1002184E-001  0.2526415E+03  0.7546771E-02  0.1111647E+00
          1   -1    0    0  502    0 -0.00000000000E+00  0.00000000000E+00  0.93408137494E+02  0.93408137494E+02  0.00000000000E+00 0. -1.
         21   -1    0    0  501  502  0.00000000000E+00 -0.00000000000E+00 -0.10870007013E+04  0.10870007013E+04  0.00000000000E+00 0. -1.
         25    1    1    2    0    0  0.17596838346E+03 -0.13129292996E+03 -0.91173994988E+03  0.94609589453E+03  0.12500000000E+03 0.  0.
          1    1    1    2  501    0 -0.17596838346E+03  0.13129292996E+03 -0.81852613890E+02  0.23431294423E+03  0.00000000000E+00 0. -1.
<mgrwt>
<rscale>  3 0.25264146E+03</rscale>
<asrwt>0</asrwt>
<pdfrwt beam="1">  1       21 0.16723087E+00 0.25264146E+03</pdfrwt>
<pdfrwt beam="2">  1        1 0.14370483E-01 0.25264146E+03</pdfrwt>
<totfact> 0.91294258E+02</totfact>
</mgrwt>
</event>
<event>
 4    0  0.1280841E-001  0.2667300E+03  0.7546771E-02  0.1103166E+00
         21   -1    0    0  501  502  0.00000000000E+00  0.00000000000E+00  0.39125100858E+03  0.39125100858E+03  0.00000000000E+00 0. -1.
          4   -1    0    0  502    0 -0.00000000000E+00 -0.00000000000E+00 -0.16262343073E+03  0.16262343073E+03  0.00000000000E+00 0. -1.
         25    1    1    2    0    0  0.99024563869E+02  0.21380843442E+03  0.14670233047E+03  0.30441170254E+03  0.12500000000E+03 0.  0.
          4    1    1    2  501    0 -0.99024563869E+02 -0.21380843442E+03  0.81925247382E+02  0.24946273677E+03  0.00000000000E+00 0. -1.
<mgrwt>
<rscale>  3 0.26673003E+03</rscale>
<asrwt>0</asrwt>
<pdfrwt beam="1">  1       21 0.60192462E-01 0.26673003E+03</pdfrwt>
<pdfrwt beam="2">  1        4 0.25018990E-01 0.26673003E+03</pdfrwt>
<totfact> 0.16204790E+03</totfact>
</mgrwt>
</event>
<event>
 4    0  0.1590779E-001  0.2598736E+03  0.7546771E-02  0.1107219E+00
          2   -1    0    0  502    0 -0.00000000000E+00  0.00000000000E+00  0.19651166826E+04  0.19651166826E+04  0.00000000000E+00 0.  1.
         21   -1    0    0  501  502  0.00000000000E+00 -0.00000000000E+00 -0.34586533471E+02  0.34586533471E+02  0.00000000000E+00 0.  1.
         25    1    1    2    0    0  0.22782234343E+03  0.25059850779E+01  0.66779358524E+03  0.71657698303E+03  0.12500000000E+03 0.  0.
          2    1    1    2  501    0 -0.22782234343E+03 -0.25059850779E+01  0.12627365639E+04  0.12831262330E+04  0.00000000000E+00 0.  1.
<mgrwt>
<rscale>  3 0.25987362E+03</rscale>
<asrwt>0</asrwt>
<pdfrwt beam="1">  1       21 0.53210067E-02 0.25987362E+03</pdfrwt>
<pdfrwt beam="2">  1        2 0.30232556E+00 0.25987362E+03</pdfrwt>
<totfact> 0.23842619E+04</totfact>
</mgrwt>
</event>
<event>
 4    0  0.1276918E-001  0.2513035E+03  0.7546771E-02  0.1112484E+00
         21   -1    0    0  501  502  0.00000000000E+00  0.00000000000E+00  0.49553770710E+02  0.49553770710E+02  0.00000000000E+00 0. -1.
          1   -1    0    0  502    0 -0.00000000000E+00 -0.00000000000E+00 -0.23728813994E+04  0.23728813994E+04  0.00000000000E+00 0. -1.
         25    1    1    2    0    0 -0.20110054640E+03 -0.84184418088E+02 -0.31809418954E+03  0.40538544551E+03  0.12500000000E+03 0.  0.
          1    1    1    2  501    0  0.20110054640E+03  0.84184418088E+02 -0.20052334391E+04  0.20170497246E+04  0.00000000000E+00 0. -1.
<mgrwt>
<rscale>  3 0.25130349E+03</rscale>
<asrwt>0</asrwt>
<pdfrwt beam="1">  1       21 0.76236578E-02 0.25130349E+03</pdfrwt>
<pdfrwt beam="2">  1        1 0.36505864E+00 0.25130349E+03</pdfrwt>
<totfact> 0.28087926E+03</totfact>
</mgrwt>
</event>
<event>
 4    0  0.1125828E-001  0.5393653E+03  0.7546771E-02  0.1003986E+00
          2   -1    0    0  502    0 -0.00000000000E+00  0.00000000000E+00  0.88256771681E+03  0.88256771681E+03  0.00000000000E+00 0.  1.
         21   -1    0    0  501  502  0.00000000000E+00 -0.00000000000E+00 -0.10852774895E+04  0.10852774895E+04  0.00000000000E+00 0.  1.
         25    1    1    2    0    0 -0.39039624377E+03  0.35054348632E+03 -0.92758966235E+03  0.10730039817E+04  0.12500000000E+03 0.  0.
          2    1    1    2  501    0  0.39039624377E+03 -0.35054348632E+03  0.72487988965E+03  0.89484122467E+03  0.00000000000E+00 0.  1.
<mgrwt>
<rscale>  3 0.53936533E+03</rscale>
<asrwt>0</asrwt>
<pdfrwt beam="1">  1       21 0.16696577E+00 0.53936533E+03</pdfrwt>
<pdfrwt beam="2">  1        2 0.13577965E+00 0.53936533E+03</pdfrwt>
<totfact> 0.73145290E+01</totfact>
</mgrwt>
</event>
<event>
 4    0  0.1433161E-001  0.2463453E+03  0.7546771E-02  0.1115637E+00
         21   -1    0    0  501  502  0.00000000000E+00  0.00000000000E+00  0.11280175246E+03  0.11280175246E+03  0.00000000000E+00 0.  1.
          1   -1    0    0  502    0 -0.00000000000E+00 -0.00000000000E+00 -0.11746176327E+04  0.11746176327E+04  0.00000000000E+00 0. -1.
         25    1    1    2    0    0 -0.17723553106E+03  0.11682715735E+03 -0.47188581565E+02  0.25082420217E+03  0.12500000000E+03 0.  0.
          1    1    1    2  501    0  0.17723553106E+03 -0.11682715735E+03 -0.10146272987E+04  0.10365951830E+04  0.00000000000E+00 0. -1.
<mgrwt>
<rscale>  3 0.24634532E+03</rscale>
<asrwt>0</asrwt>
<pdfrwt beam="1">  1       21 0.17354116E-01 0.24634532E+03</pdfrwt>
<pdfrwt beam="2">  1        1 0.18071040E+00 0.24634532E+03</pdfrwt>
<totfact> 0.39614883E+03</totfact>
</mgrwt>
</event>
<event>
 4    0  0.1822331E-001  0.2809359E+03  0.7546771E-02  0.1095179E+00
         -2   -1    0    0    0  501 -0.00000000000E+00  0.00000000000E+00  0.72248629793E+03  0.72248629793E+03  0.00000000000E+00 0. -1.
         21   -1    0    0  501  502  0.00000000000E+00 -0.00000000000E+00 -0.37424198065E+03  0.37424198065E+03  0.00000000000E+00 0. -1.
         25    1    1    2    0    0  0.13566397459E+03  0.21188498972E+03 -0.29419094048E+03  0.40678406106E+03  0.12500000000E+03 0.  0.
         -2    1    1    2    0  502 -0.13566397459E+03 -0.21188498972E+03  0.64243525777E+03  0.68994421752E+03  0.00000000000E+00 0. -1.
<mgrwt>
<rscale>  3 0.28093587E+03</rscale>
<asrwt>0</asrwt>
<pdfrwt beam="1">  1       21 0.57575690E-01 0.28093587E+03</pdfrwt>
<pdfrwt beam="2">  1       -2 0.11115174E+00 0.28093587E+03</pdfrwt>
<totfact> 0.14941358E+02</totfact>
</mgrwt>
</event>
<event>
 4    0  0.1002184E-001  0.2456623E+03  0.7546771E-02  0.1116077E+00
         21   -1    0    0  501  502  0.00000000000E+00  0.00000000000E+00  0.29888637659E+03  0.29888637659E+03  0.00000000000E+00 0.  1.
          1   -1    0    0  502    0 -0.00000000000E+00 -0.00000000000E+00 -0.21025814204E+03  0.21025814204E+03  0.00000000000E+00 0. -1.
         25    1    1    2    0    0  0.19739257897E+03 -0.75902191965E+02  0.15136748876E+03  0.28855171050E+03  0.12500000000E+03 0.  0.
          1    1    1    2  501    0 -0.19739257897E+03  0.75902191965E+02 -0.62739254218E+02  0.22059280813E+03  0.00000000000E+00 0. -1.
<mgrwt>
<rscale>  3 0.24566231E+03</rscale>
<asrwt>0</asrwt>
<pdfrwt beam="1">  1       21 0.45982520E-01 0.24566231E+03</pdfrwt>
<pdfrwt beam="2">  1        1 0.32347406E-01 0.24566231E+03</pdfrwt>
<totfact> 0.66882210E+03</totfact>
</mgrwt>
</event>
<event>
 4    0  0.1002184E-001  0.2387983E+03  0.7546771E-02  0.1120596E+00
          2   -1    0    0  502    0 -0.00000000000E+00  0.00000000000E+00  0.43168724451E+04  0.43168724451E+04  0.00000000000E+00 0. -1.
         21   -1    0    0  501  502  0.00000000000E+00 -0.00000000000E+00 -0.20768165999E+02  0.20768165999E+02  0.00000000000E+00 0. -1.
         25    1    1    2    0    0  0.36156832759E+02  0.20023059675E+03  0.78193917514E+03  0.81759004522E+03  0.12500000000E+03 0.  0.
          2    1    1    2  501    0 -0.36156832759E+02 -0.20023059675E+03  0.35141651040E+04  0.35200505659E+04  0.00000000000E+00 0. -1.
<mgrwt>
<rscale>  3 0.23879826E+03</rscale>
<asrwt>0</asrwt>
<pdfrwt beam="1">  1       21 0.31951059E-02 0.23879826E+03</pdfrwt>
<pdfrwt beam="2">  1        2 0.66413351E+00 0.23879826E+03</pdfrwt>
<totfact> 0.18386292E+03</totfact>
</mgrwt>
</event>
<event>
 4    0  0.1599200E-001  0.3017260E+03  0.7546771E-02  0.1084381E+00
         21   -1    0    0  501  502  0.00000000000E+00  0.00000000000E+00  0.73228518693E+02  0.73228518693E+02  0.00000000000E+00 0.  1.
          1   -1    0    0  502    0 -0.00000000000E+00 -0.00000000000E+00 -0.15000008932E+04  0.15000008932E+04  0.00000000000E+00 0.  1.
         25    1    1    2    0    0  0.14192968698E+03  0.23509478909E+03 -0.11269812246E+04  0.11666727375E+04  0.12500000000E+03 0.  0.
          1    1    1    2  501    0 -0.14192968698E+03 -0.23509478909E+03 -0.29979114991E+03  0.40655667436E+03  0.00000000000E+00 0.  1.
<mgrwt>
<rscale>  3 0.30172603E+03</rscale>
<asrwt>0</asrwt>
<pdfrwt beam="1">  1       21 0.11265927E-01 0.30172603E+03</pdfrwt>
<pdfrwt beam="2">  1        1 0.23076935E+00 0.30172603E+03</pdfrwt>
<totfact> 0.51405926E+03</totfact>
</mgrwt>
</event>
<event>
 4    0  0.1002184E-001  0.2984779E+03  0.7546771E-02  0.1086004E+00
         21   -1    0    0  501  502  0.00000000000E+00  0.00000000000E+00  0.52622346764E+03  0.52622346764E+03  0.00000000000E+00 0.  1.
         -1   -1    0    0    0  501 -0.00000000000E+00 -0.00000000000E+00 -0.15414749424E+03  0.15414749424E+03  0.00000000000E+00 0. -1.
         25    1    1    2    0    0  0.13236405135E+03 -0.23652446559E+03  0.18872472446E+03  0.35313748956E+03  0.12500000000E+03 0.  0.
         -1    1    1    2    0  502 -0.13236405135E+03  0.23652446559E+03  0.18335124894E+03  0.32723347231E+03  0.00000000000E+00 0. -1.
<mgrwt>
<rscale>  3 0.29847791E+03</rscale>
<asrwt>0</asrwt>
<pdfrwt beam="1">  1       21 0.80957455E-01 0.29847791E+03</pdfrwt>
<pdfrwt beam="2">  1       -1 0.23714999E-01 0.29847791E+03</pdfrwt>
<totfact> 0.17949588E+03</totfact>
</mgrwt>
</event>
<event>
 4    0  0.1002184E-001  0.3139410E+03  0.7546771E-02  0.1078472E+00
         21   -1    0    0  501  502  0.00000000000E+00  0.00000000000E+00  0.42407795378E+03  0.42407795378E+03  0.00000000000E+00 0.  1.
         -1   -1    0    0    0  501 -0.00000000000E+00 -0.00000000000E+00 -0.24236434198E+03  0.24236434198E+03  0.00000000000E+00 0. -1.
         25    1    1    2    0    0 -0.18252876892E+03  0.22274924501E+03 -0.20415336339E+02  0.31460413792E+03  0.12500000000E+03 0.  0.
         -1    1    1    2    0  502  0.18252876892E+03 -0.22274924501E+03  0.20212894814E+03  0.35183815784E+03  0.00000000000E+00 0. -1.
<mgrwt>
<rscale>  3 0.31394104E+03</rscale>
<asrwt>0</asrwt>
<pdfrwt beam="1">  1       21 0.65242762E-01 0.31394104E+03</pdfrwt>
<pdfrwt beam="2">  1       -1 0.37286822E-01 0.31394104E+03</pdfrwt>
<totfact> 0.13383910E+03</totfact>
</mgrwt>
</event>
<event>
 4    0  0.1352971E-001  0.2415818E+03  0.7546771E-02  0.1118744E+00
          2   -1    0    0  502    0 -0.00000000000E+00  0.00000000000E+00  0.10601339442E+04  0.10601339442E+04  0.00000000000E+00 0. -1.
         21   -1    0    0  501  502  0.00000000000E+00 -0.00000000000E+00 -0.13816921295E+03  0.13816921295E+03  0.00000000000E+00 0. -1.
         25    1    1    2    0    0  0.97269301861E+02  0.18241561354E+03 -0.11856788009E+02  0.24187260401E+03  0.12500000000E+03 0.  0.
          2    1    1    2  501    0 -0.97269301861E+02 -0.18241561354E+03  0.93382151927E+03  0.95643055315E+03  0.00000000000E+00 0. -1.
<mgrwt>
<rscale>  3 0.24158181E+03</rscale>
<asrwt>0</asrwt>
<pdfrwt beam="1">  1       21 0.21256803E-01 0.24158181E+03</pdfrwt>
<pdfrwt beam="2">  1        2 0.16309753E+00 0.24158181E+03</pdfrwt>
<totfact> 0.62225318E+03</totfact>
</mgrwt>
</event>
<event>
 4    0  0.1461524E-001  0.4169820E+03  0.7546771E-02  0.1038053E+00
         21   -1    0    0  501  502  0.00000000000E+00  0.00000000000E+00  0.42645323114E+03  0.42645323114E+03  0.00000000000E+00 0. -1.
          2   -1    0    0  502    0 -0.00000000000E+00 -0.00000000000E+00 -0.10882388747E+04  0.10882388747E+04  0.00000000000E+00 0. -1.
         25    1    1    2    0    0  0.33207659041E+03 -0.21903006099E+03  0.27325991763E+03  0.49854288893E+03  0.12500000000E+03 0.  0.
          2    1    1    2  501    0 -0.33207659041E+03  0.21903006099E+03 -0.93504556122E+03  0.10161492169E+04  0.00000000000E+00 0. -1.
<mgrwt>
<rscale>  3 0.41698205E+03</rscale>
<asrwt>0</asrwt>
<pdfrwt beam="1">  1       21 0.65608189E-01 0.41698205E+03</pdfrwt>
<pdfrwt beam="2">  1        2 0.16742137E+00 0.41698205E+03</pdfrwt>
<totfact> 0.57131525E+02</totfact>
</mgrwt>
</event>
<event>
 4    0  0.1563429E-001  0.2500212E+03  0.7546771E-02  0.1113291E+00
         21   -1    0    0  501  502  0.00000000000E+00  0.00000000000E+00  0.30496000820E+03  0.30496000820E+03  0.00000000000E+00 0.  1.
         -3   -1    0    0    0  501 -0.00000000000E+00 -0.00000000000E+00 -0.22570892585E+03  0.22570892585E+03  0.00000000000E+00 0.  1.
         25    1    1    2    0    0  0.17877010773E+03 -0.12217544494E+03  0.16304883431E+03  0.29848871526E+03  0.12500000000E+03 0.  0.
         -3    1    1    2    0  502 -0.17877010773E+03  0.12217544494E+03 -0.83797751959E+02  0.23218021879E+03  0.00000000000E+00 0.  1.
<mgrwt>
<rscale>  3 0.25002118E+03</rscale>
<asrwt>0</asrwt>
<pdfrwt beam="1">  1       21 0.46916925E-01 0.25002118E+03</pdfrwt>
<pdfrwt beam="2">  1       -3 0.34724450E-01 0.25002118E+03</pdfrwt>
<totfact> 0.17421257E+03</totfact>
</mgrwt>
</event>
<event>
 4    0  0.1336980E-001  0.3193629E+03  0.7546771E-02  0.1075943E+00
          1   -1    0    0  502    0 -0.00000000000E+00  0.00000000000E+00  0.30194702775E+03  0.30194702775E+03  0.00000000000E+00 0. -1.
         21   -1    0    0  501  502  0.00000000000E+00 -0.00000000000E+00 -0.33241957940E+03  0.33241957940E+03  0.00000000000E+00 0. -1.
         25    1    1    2    0    0 -0.17163602285E+03 -0.23855553139E+03 -0.95576540594E+02  0.33335797726E+03  0.12500000000E+03 0.  0.
          1    1    1    2  501    0  0.17163602285E+03  0.23855553139E+03  0.65103988944E+02  0.30100862989E+03  0.00000000000E+00 0. -1.
<mgrwt>
<rscale>  3 0.31936291E+03</rscale>
<asrwt>0</asrwt>
<pdfrwt beam="1">  1       21 0.51141474E-01 0.31936291E+03</pdfrwt>
<pdfrwt beam="2">  1        1 0.46453389E-01 0.31936291E+03</pdfrwt>
<totfact> 0.33340604E+03</totfact>
</mgrwt>
</event>
<event>
 4    0  0.1055513E-001  0.2866583E+03  0.7546771E-02  0.1092107E+00
         -4   -1    0    0    0  501 -0.00000000000E+00  0.00000000000E+00  0.85582763096E+03  0.85582763096E+03  0.00000000000E+00 0. -1.
         21   -1    0    0  501  502  0.00000000000E+00 -0.00000000000E+00 -0.15199339287E+03  0.15199339287E+03  0.00000000000E+00 0.  1.
         25    1    1    2    0    0 -0.21167605300E+02  0.25709898141E+03  0.32336840566E+02  0.28847638554E+03  0.12500000000E+03 0.  0.
         -4    1    1    2    0  502  0.21167605300E+02 -0.25709898141E+03  0.67149739752E+03  0.71934463829E+03  0.00000000000E+00 0. -1.
<mgrwt>
<rscale>  3 0.28665825E+03</rscale>
<asrwt>0</asrwt>
<pdfrwt beam="1">  1       21 0.23383599E-01 0.28665825E+03</pdfrwt>
<pdfrwt beam="2">  1       -4 0.13166579E+00 0.28665825E+03</pdfrwt>
<totfact> 0.31626213E+02</totfact>
</mgrwt>
</event>
<event>
 4    0  0.1002184E-001  0.3325024E+03  0.7546771E-02  0.1070035E+00
         21   -1    0    0  501  502  0.00000000000E+00  0.00000000000E+00  0.57724430213E+02  0.57724430213E+02  0.00000000000E+00 0.  1.
          1   -1    0    0  502    0 -0.00000000000E+00 -0.00000000000E+00 -0.20209412426E+04  0.20209412426E+04  0.00000000000E+00 0. -1.
         25    1    1    2    0    0 -0.31418221256E+02 -0.30650564761E+03 -0.65387334550E+03  0.73355856521E+03  0.12500000000E+03 0.  0.
          1    1    1    2  501    0  0.31418221256E+02  0.30650564761E+03 -0.13093434669E+04  0.13451071076E+04  0.00000000000E+00 0. -1.
<mgrwt>
<rscale>  3 0.33250236E+03</rscale>
<asrwt>0</asrwt>
<pdfrwt beam="1">  1       21 0.88806808E-02 0.33250236E+03</pdfrwt>
<pdfrwt beam="2">  1        1 0.31091406E+00 0.33250236E+03</pdfrwt>
<totfact> 0.35453486E+03</totfact>
</mgrwt>
</event>
<event>
 4    0  0.1202254E-001  0.2703610E+03  0.7546771E-02  0.1101073E+00
          4   -1    0    0  502    0 -0.00000000000E+00  0.00000000000E+00  0.21087035536E+03  0.21087035536E+03  0.00000000000E+00 0. -1.
         21   -1    0    0  501  502  0.00000000000E+00 -0.00000000000E+00 -0.47241709461E+03  0.47241709461E+03  0.00000000000E+00 0. -1.
         25    1    1    2    0    0 -0.26209959029E+01 -0.23971480426E+03 -0.33692415963E+03  0.43198720623E+03  0.12500000000E+03 0.  0.
          4    1    1    2  501    0  0.26209959029E+01  0.23971480426E+03  0.75377420382E+02  0.25130024374E+03  0.00000000000E+00 0. -1.
<mgrwt>
<rscale>  3 0.27036098E+03</rscale>
<asrwt>0</asrwt>
<pdfrwt beam="1">  1       21 0.72679553E-01 0.27036098E+03</pdfrwt>
<pdfrwt beam="2">  1        4 0.32441593E-01 0.27036098E+03</pdfrwt>
<totfact> 0.65253105E+02</totfact>
</mgrwt>
</event>
<event>
 4    0  0.1450195E-001  0.2377473E+03  0.7546771E-02  0.1121303E+00
         21   -1    0    0  501  502  0.00000000000E+00  0.00000000000E+00  0.51489586292E+02  0.51489586292E+02  0.00000000000E+00 0.  1.
          2   -1    0    0  502    0 -0.00000000000E+00 -0.00000000000E+00 -0.11017684748E+04  0.11017684748E+04  0.00000000000E+00 0.  1.
         25    1    1    2    0    0  0.31128514969E+02 -0.19982445178E+03 -0.34090622106E+03  0.41562103837E+03  0.12500000000E+03 0.  0.
          2    1    1    2  501    0 -0.31128514969E+02  0.19982445178E+03 -0.70937266748E+03  0.73763702275E+03  0.00000000000E+00 0.  1.
<mgrwt>
<rscale>  3 0.23774734E+03</rscale>
<asrwt>0</asrwt>
<pdfrwt beam="1">  1       21 0.79214755E-02 0.23774734E+03</pdfrwt>
<pdfrwt beam="2">  1        2 0.16950283E+00 0.23774734E+03</pdfrwt>
<totfact> 0.35204568E+04</totfact>
</mgrwt>
</event>
<event>
 4    0  0.1590116E-001  0.2471751E+03  0.7546771E-02  0.1115103E+00
          2   -1    0    0  502    0 -0.00000000000E+00  0.00000000000E+00  0.88038994485E+03  0.88038994485E+03  0.00000000000E+00 0. -1.
         21   -1    0    0  501  502  0.00000000000E+00 -0.00000000000E+00 -0.60493661005E+02  0.60493661005E+02  0.00000000000E+00 0. -1.
         25    1    1    2    0    0  0.12314329419E+03  0.17408697455E+03  0.47297906421E+03  0.53367100427E+03  0.12500000000E+03 0.  0.
          2    1    1    2  501    0 -0.12314329419E+03 -0.17408697455E+03  0.34691721964E+03  0.40721260159E+03  0.00000000000E+00 0. -1.
<mgrwt>
<rscale>  3 0.24717513E+03</rscale>
<asrwt>0</asrwt>
<pdfrwt beam="1">  1       21 0.93067177E-02 0.24717513E+03</pdfrwt>
<pdfrwt beam="2">  1        2 0.13544460E+00 0.24717513E+03</pdfrwt>
<totfact> 0.36264661E+04</totfact>
</mgrwt>
</event>
<event>
 4    0  0.1343620E-001  0.2919994E+03  0.7546771E-02  0.1089310E+00
         21   -1    0    0  501  502  0.00000000000E+00  0.00000000000E+00  0.17601253079E+03  0.17601253079E+03  0.00000000000E+00 0. -1.
          1   -1    0    0  502    0 -0.00000000000E+00 -0.00000000000E+00 -0.44038051242E+03  0.44038051242E+03  0.00000000000E+00 0. -1.
         25    1    1    2    0    0  0.18835305904E+03  0.18482899690E+03 -0.15663351972E+03  0.33135734856E+03  0.12500000000E+03 0.  0.
          1    1    1    2  501    0 -0.18835305904E+03 -0.18482899690E+03 -0.10773446191E+03  0.28503569466E+03  0.00000000000E+00 0. -1.
<mgrwt>
<rscale>  3 0.29199937E+03</rscale>
<asrwt>0</asrwt>
<pdfrwt beam="1">  1       21 0.27078851E-01 0.29199937E+03</pdfrwt>
<pdfrwt beam="2">  1        1 0.67750848E-01 0.29199937E+03</pdfrwt>
<totfact> 0.74861042E+03</totfact>
</mgrwt>
</event>
<event>
 4    0  0.1002184E-001  0.4061677E+03  0.7546771E-02  0.1041665E+00
         -3   -1    0    0    0  501 -0.00000000000E+00  0.00000000000E+00  0.18633480190E+03  0.18633480190E+03  0.00000000000E+00 0. -1.
         21   -1    0    0  501  502  0.00000000000E+00 -0.00000000000E+00 -0.95949227397E+03  0.95949227397E+03  0.00000000000E+00 0.  1.
         25    1    1    2    0    0 -0.14323962494E+03 -0.35892836428E+03 -0.59467810308E+03  0.72014873958E+03  0.12500000000E+03 0.  0.
         -3    1    1    2    0  502  0.14323962494E+03  0.35892836428E+03 -0.17847936900E+03  0.42567833630E+03  0.00000000000E+00 0. -1.
<mgrwt>
<rscale>  3 0.40616765E+03</rscale>
<asrwt>0</asrwt>
<pdfrwt beam="1">  1       21 0.14761420E+00 0.40616765E+03</pdfrwt>
<pdfrwt beam="2">  1       -3 0.28666893E-01 0.40616765E+03</pdfrwt>
<totfact> 0.16852750E+02</totfact>
</mgrwt>
</event>
<event>
 4    0  0.1494660E-001  0.2880940E+03  0.7546771E-02  0.1091348E+00
          1   -1    0    0  502    0 -0.00000000000E+00  0.00000000000E+00  0.16199455114E+04  0.16199455114E+04  0.00000000000E+00 0. -1.
         21   -1    0    0  501  502  0.00000000000E+00 -0.00000000000E+00 -0.14151431947E+03  0.14151431947E+03  0.00000000000E+00 0.  1.
         25    1    1    2    0    0  0.25580933805E+03  0.43985737533E+02  0.29655823359E+02  0.28961635036E+03  0.12500000000E+03 0.  0.
          1    1    1    2  501    0 -0.25580933805E+03 -0.43985737533E+02  0.14487753686E+04  0.14718434805E+04  0.00000000000E+00 0. -1.
<mgrwt>
<rscale>  3 0.28809402E+03</rscale>
<asrwt>0</asrwt>
<pdfrwt beam="1">  1       21 0.21771435E-01 0.28809402E+03</pdfrwt>
<pdfrwt beam="2">  1        1 0.24922237E+00 0.28809402E+03</pdfrwt>
<totfact> 0.12742892E+03</totfact>
</mgrwt>
</event>
<event>
 4    0  0.1294619E-001  0.2740087E+03  0.7546771E-02  0.1099007E+00
         21   -1    0    0  501  502  0.00000000000E+00  0.00000000000E+00  0.48725166059E+03  0.48725166059E+03  0.00000000000E+00 0.  1.
          2   -1    0    0  502    0 -0.00000000000E+00 -0.00000000000E+00 -0.46340664700E+03  0.46340664700E+03  0.00000000000E+00 0. -1.
         25    1    1    2    0    0 -0.19528242355E+03 -0.14601552604E+03  0.41049394756E+03  0.49354436454E+03  0.12500000000E+03 0.  0.
          2    1    1    2  501    0  0.19528242355E+03  0.14601552604E+03 -0.38664893397E+03  0.45711394305E+03  0.00000000000E+00 0. -1.
<mgrwt>
<rscale>  3 0.27400868E+03</rscale>
<asrwt>0</asrwt>
<pdfrwt beam="1">  1       21 0.74961794E-01 0.27400868E+03</pdfrwt>
<pdfrwt beam="2">  1        2 0.71293330E-01 0.27400868E+03</pdfrwt>
<totfact> 0.13031410E+03</totfact>
</mgrwt>
</event>
<event>
 4    0  0.1046030E-001  0.2805825E+03  0.7546771E-02  0.1095371E+00
         21   -1    0    0  501  502  0.00000000000E+00  0.00000000000E+00  0.72494073836E+02  0.72494073836E+02  0.00000000000E+00 0. -1.
          1   -1    0    0  502    0 -0.00000000000E+00 -0.00000000000E+00 -0.13247779533E+04  0.13247779533E+04  0.00000000000E+00 0.  1.
         25    1    1    2    0    0 -0.18406691420E+03  0.17094121143E+03 -0.29314515268E+03  0.40578394154E+03  0.12500000000E+03 0.  0.
          1    1    1    2  501    0  0.18406691420E+03 -0.17094121143E+03 -0.95913872677E+03  0.99148808559E+03  0.00000000000E+00 0.  1.
<mgrwt>
<rscale>  3 0.28058248E+03</rscale>
<asrwt>0</asrwt>
<pdfrwt beam="1">  1       21 0.11152935E-01 0.28058248E+03</pdfrwt>
<pdfrwt beam="2">  1        1 0.20381198E+00 0.28058248E+03</pdfrwt>
<totfact> 0.69095004E+03</totfact>
</mgrwt>
</event>
<event>
 4    0  0.1221032E-001  0.2609200E+03  0.7546771E-02  0.1106592E+00
          2   -1    0    0  502    0 -0.00000000000E+00  0.00000000000E+00  0.20140320047E+04  0.20140320047E+04  0.00000000000E+00 0.  1.
         21   -1    0    0  501  502  0.00000000000E+00 -0.00000000000E+00 -0.60924088746E+02  0.60924088746E+02  0.00000000000E+00 0. -1.
         25    1    1    2    0    0 -0.22066860748E+03  0.61315507193E+02  0.26684080214E+03  0.37320669800E+03  0.12500000000E+03 0.  0.
          2    1    1    2  501    0  0.22066860748E+03 -0.61315507193E+02  0.16862671138E+04  0.17017493955E+04  0.00000000000E+00 0.  1.
<mgrwt>
<rscale>  3 0.26091996E+03</rscale>
<asrwt>0</asrwt>
<pdfrwt beam="1">  1       21 0.93729383E-02 0.26091996E+03</pdfrwt>
<pdfrwt beam="2">  1        2 0.30985103E+00 0.26091996E+03</pdfrwt>
<totfact> 0.83879972E+03</totfact>
</mgrwt>
</event>
<event>
 4    0  0.1460017E-001  0.3479809E+03  0.7546771E-02  0.1063447E+00
          2   -1    0    0  502    0 -0.00000000000E+00  0.00000000000E+00  0.99015862908E+03  0.99015862908E+03  0.00000000000E+00 0.  1.
         21   -1    0    0  501  502  0.00000000000E+00 -0.00000000000E+00 -0.14037012204E+03  0.14037012204E+03  0.00000000000E+00 0.  1.
         25    1    1    2    0    0 -0.16441956108E+03 -0.28005699455E+03  0.19319941337E+03  0.39801598660E+03  0.12500000000E+03 0.  0.
          2    1    1    2  501    0  0.16441956108E+03  0.28005699455E+03  0.65658909367E+03  0.73251276452E+03  0.00000000000E+00 0.  1.
<mgrwt>
<rscale>  3 0.34798091E+03</rscale>
<asrwt>0</asrwt>
<pdfrwt beam="1">  1       21 0.21595404E-01 0.34798091E+03</pdfrwt>
<pdfrwt beam="2">  1        2 0.15233209E+00 0.34798091E+03</pdfrwt>
<totfact> 0.64835446E+03</totfact>
</mgrwt>
</event>
<event>
 4    0  0.1002184E-001  0.2663417E+03  0.7546771E-02  0.1103392E+00
         21   -1    0    0  501  502  0.00000000000E+00  0.00000000000E+00  0.43083843571E+02  0.43083843571E+02  0.00000000000E+00 0.  1.
          2   -1    0    0  502    0 -0.00000000000E+00 -0.00000000000E+00 -0.15177331794E+04  0.15177331794E+04  0.00000000000E+00 0. -1.
         25    1    1    2    0    0  0.21557933737E+03  0.94012927001E+02 -0.62884576638E+03  0.68292377249E+03  0.12500000000E+03 0.  0.
          2    1    1    2  501    0 -0.21557933737E+03 -0.94012927001E+02 -0.84580356949E+03  0.87789325052E+03  0.00000000000E+00 0. -1.
<mgrwt>
<rscale>  3 0.26634166E+03</rscale>
<asrwt>0</asrwt>
<pdfrwt beam="1">  1       21 0.66282843E-02 0.26634166E+03</pdfrwt>
<pdfrwt beam="2">  1        2 0.23349739E+00 0.26634166E+03</pdfrwt>
<totfact> 0.28069417E+04</totfact>
</mgrwt>
</event>
<event>
 4    0  0.1002184E-001  0.2439856E+03  0.7546771E-02  0.1117166E+00
          3   -1    0    0  502    0 -0.00000000000E+00  0.00000000000E+00  0.17295286563E+03  0.17295286563E+03  0.00000000000E+00 0. -1.
         21   -1    0    0  501  502  0.00000000000E+00 -0.00000000000E+00 -0.10037862938E+04  0.10037862938E+04  0.00000000000E+00 0. -1.
         25    1    1    2    0    0 -0.19379807364E+03  0.79663441903E+02 -0.91794723150E+03  0.94981897072E+03  0.12500000000E+03 0.  0.
          3    1    1    2  501    0  0.19379807364E+03 -0.79663441903E+02  0.87113803321E+02  0.22692018872E+03  0.00000000000E+00 0. -1.
<mgrwt>
<rscale>  3 0.24398557E+03</rscale>
<asrwt>0</asrwt>
<pdfrwt beam="1">  1       21 0.15442866E+00 0.24398557E+03</pdfrwt>
<pdfrwt beam="2">  1        3 0.26608133E-01 0.24398557E+03</pdfrwt>
<totfact> 0.17929829E+02</totfact>
</mgrwt>
</event>
<event>
 4    0  0.1522477E-001  0.2980497E+03  0.7546771E-02  0.1086220E+00
         21   -1    0    0  501  502  0.00000000000E+00  0.00000000000E+00  0.44365717427E+02  0.44365717427E+02  0.00000000000E+00 0.  1.
          2   -1    0    0  502    0 -0.00000000000E+00 -0.00000000000E+00 -0.20722111039E+04  0.20722111039E+04  0.00000000000E+00 0.  1.
         25    1    1    2    0    0  0.25827517946E+03  0.80638592513E+02 -0.68960926696E+03  0.75126199957E+03  0.12500000000E+03 0.  0.
          2    1    1    2  501    0 -0.25827517946E+03 -0.80638592513E+02 -0.13382361195E+04  0.13653148217E+04  0.00000000000E+00 0.  1.
<mgrwt>
<rscale>  3 0.29804975E+03</rscale>
<asrwt>0</asrwt>
<pdfrwt beam="1">  1       21 0.68254965E-02 0.29804975E+03</pdfrwt>
<pdfrwt beam="2">  1        2 0.31880164E+00 0.29804975E+03</pdfrwt>
<totfact> 0.13483537E+04</totfact>
</mgrwt>
</event>
<event>
 4    0  0.1002184E-001  0.2863413E+03  0.7546771E-02  0.1092275E+00
          2   -1    0    0  502    0 -0.00000000000E+00  0.00000000000E+00  0.93121680232E+03  0.93121680232E+03  0.00000000000E+00 0.  1.
         21   -1    0    0  501  502  0.00000000000E+00 -0.00000000000E+00 -0.86201676033E+02  0.86201676033E+02  0.00000000000E+00 0. -1.
         25    1    1    2    0    0 -0.23376713646E+03 -0.10825564432E+03  0.30073881753E+03  0.41525316975E+03  0.12500000000E+03 0.  0.
          2    1    1    2  501    0  0.23376713646E+03  0.10825564432E+03  0.54427630876E+03  0.60216530861E+03  0.00000000000E+00 0.  1.
<mgrwt>
<rscale>  3 0.28634133E+03</rscale>
<asrwt>0</asrwt>
<pdfrwt beam="1">  1       21 0.13261797E-01 0.28634133E+03</pdfrwt>
<pdfrwt beam="2">  1        2 0.14326412E+00 0.28634133E+03</pdfrwt>
<totfact> 0.17714326E+04</totfact>
</mgrwt>
</event>
<event>
 4    0  0.1002184E-001  0.2433059E+03  0.7546771E-02  0.1117610E+00
          2   -1    0    0  502    0 -0.00000000000E+00  0.00000000000E+00  0.33588213281E+02  0.33588213281E+02  0.00000000000E+00 0. -1.
         21   -1    0    0  501  502  0.00000000000E+00 -0.00000000000E+00 -0.15964738154E+04  0.15964738154E+04  0.00000000000E+00 0. -1.
         25    1    1    2    0    0  0.23333003311E+02 -0.20743268128E+03 -0.10151242999E+04  0.10438750359E+04  0.12500000000E+03 0.  0.
          2    1    1    2  501    0 -0.23333003311E+02  0.20743268128E+03 -0.54776130218E+03  0.58618699275E+03  0.00000000000E+00 0. -1.
<mgrwt>
<rscale>  3 0.24330587E+03</rscale>
<asrwt>0</asrwt>
<pdfrwt beam="1">  1       21 0.24561138E+00 0.24330587E+03</pdfrwt>
<pdfrwt beam="2">  1        2 0.51674170E-02 0.24330587E+03</pdfrwt>
<totfact> 0.12334841E+03</totfact>
</mgrwt>
</event>
<event>
 4    0  0.1568786E-001  0.2877540E+03  0.7546771E-02  0.1091528E+00
         21   -1    0    0  501  502  0.00000000000E+00  0.00000000000E+00  0.56809021346E+02  0.56809021346E+02  0.00000000000E+00 0. -1.
          2   -1    0    0  502    0 -0.00000000000E+00 -0.00000000000E+00 -0.13960930898E+04  0.13960930898E+04  0.00000000000E+00 0. -1.
         25    1    1    2    0    0  0.44944734728E+02 -0.25525929383E+03 -0.52932913229E+03  0.60248789744E+03  0.12500000000E+03 0.  0.
          2    1    1    2  501    0 -0.44944734728E+02  0.25525929383E+03 -0.80995493619E+03  0.85041421373E+03  0.00000000000E+00 0. -1.
<mgrwt>
<rscale>  3 0.28775395E+03</rscale>
<asrwt>0</asrwt>
<pdfrwt beam="1">  1       21 0.87398502E-02 0.28775395E+03</pdfrwt>
<pdfrwt beam="2">  1        2 0.21478353E+00 0.28775395E+03</pdfrwt>
<totfact> 0.20041232E+04</totfact>
</mgrwt>
</event>
<event>
 4    0  0.1306482E-001  0.3924560E+03  0.7546771E-02  0.1046424E+00
         21   -1    0    0  501  502  0.00000000000E+00  0.00000000000E+00  0.29291795815E+03  0.29291795815E+03  0.00000000000E+00 0. -1.
          1   -1    0    0  502    0 -0.00000000000E+00 -0.00000000000E+00 -0.50719517075E+03  0.50719517075E+03  0.00000000000E+00 0. -1.
         25    1    1    2    0    0 -0.26944363255E+03  0.25650896534E+03 -0.58476166429E+02  0.39678858661E+03  0.12500000000E+03 0.  0.
          1    1    1    2  501    0  0.26944363255E+03 -0.25650896534E+03 -0.15580104617E+03  0.40332454229E+03  0.00000000000E+00 0. -1.
<mgrwt>
<rscale>  3 0.39245601E+03</rscale>
<asrwt>0</asrwt>
<pdfrwt beam="1">  1       21 0.45064301E-01 0.39245601E+03</pdfrwt>
<pdfrwt beam="2">  1        1 0.78030027E-01 0.39245601E+03</pdfrwt>
<totfact> 0.21800387E+03</totfact>
</mgrwt>
</event>
<event>
 4    0  0.1002184E-001  0.2368873E+03  0.7546771E-02  0.1121884E+00
         21   -1    0    0  501  502  0.00000000000E+00  0.00000000000E+00  0.42570988980E+03  0.42570988980E+03  0.00000000000E+00 0.  1.
         -4   -1    0    0    0  501 -0.00000000000E+00 -0.00000000000E+00 -0.12342512372E+03  0.12342512372E+03  0.00000000000E+00 0. -1.
         25    1    1    2    0    0 -0.18879915027E+03  0.69609594408E+02  0.24300344078E+03  0.33936158740E+03  0.12500000000E+03 0.  0.
         -4    1    1    2    0  502  0.18879915027E+03 -0.69609594408E+02  0.59281325308E+02  0.20977342612E+03  0.00000000000E+00 0. -1.
<mgrwt>
<rscale>  3 0.23688735E+03</rscale>
<asrwt>0</asrwt>
<pdfrwt beam="1">  1       21 0.65493829E-01 0.23688735E+03</pdfrwt>
<pdfrwt beam="2">  1       -4 0.18988481E-01 0.23688735E+03</pdfrwt>
<totfact> 0.22384901E+03</totfact>
</mgrwt>
</event>
<event>
 4    0  0.1002184E-001  0.5089424E+03  0.7546771E-02  0.1011471E+00
          2   -1    0    0  502    0 -0.00000000000E+00  0.00000000000E+00  0.32833265148E+04  0.32833265148E+04  0.00000000000E+00 0. -1.
         21   -1    0    0  501  502  0.00000000000E+00 -0.00000000000E+00 -0.78377414439E+02  0.78377414439E+02  0.00000000000E+00 0.  1.
         25    1    1    2    0    0  0.26375406163E+03  0.41693068699E+03  0.13661518125E+04  0.14578728262E+04  0.12500000000E+03 0.  0.
          2    1    1    2  501    0 -0.26375406163E+03 -0.41693068699E+03  0.18387972879E+04  0.19038311030E+04  0.00000000000E+00 0. -1.
<mgrwt>
<rscale>  3 0.50894244E+03</rscale>
<asrwt>0</asrwt>
<pdfrwt beam="1">  1       21 0.12058066E-01 0.50894244E+03</pdfrwt>
<pdfrwt beam="2">  1        2 0.50512705E+00 0.50894244E+03</pdfrwt>
<totfact> 0.92615345E+02</totfact>
</mgrwt>
</event>
<event>
 4    0  0.1455972E-001  0.2441227E+03  0.7546771E-02  0.1117076E+00
          2   -1    0    0  502    0 -0.00000000000E+00  0.00000000000E+00  0.26698164758E+04  0.26698164758E+04  0.00000000000E+00 0.  1.
         21   -1    0    0  501  502  0.00000000000E+00 -0.00000000000E+00 -0.27654823224E+02  0.27654823224E+02  0.00000000000E+00 0.  1.
         25    1    1    2    0    0  0.18864472418E+03 -0.91564512896E+02  0.65046619093E+03  0.69476770041E+03  0.12500000000E+03 0.  0.
          2    1    1    2  501    0 -0.18864472418E+03  0.91564512896E+02  0.19916954616E+04  0.20027035986E+04  0.00000000000E+00 0.  1.
<mgrwt>
<rscale>  3 0.24412270E+03</rscale>
<asrwt>0</asrwt>
<pdfrwt beam="1">  1       21 0.42545903E-02 0.24412270E+03</pdfrwt>
<pdfrwt beam="2">  1        2 0.41074079E+00 0.24412270E+03</pdfrwt>
<totfact> 0.14643051E+04</totfact>
</mgrwt>
</event>
<event>
 4    0  0.1464708E-001  0.2945982E+03  0.7546771E-02  0.1087973E+00
         21   -1    0    0  501  502  0.00000000000E+00  0.00000000000E+00  0.16236243543E+03  0.16236243543E+03  0.00000000000E+00 0. -1.
          2   -1    0    0  502    0 -0.00000000000E+00 -0.00000000000E+00 -0.63486700894E+03  0.63486700894E+03  0.00000000000E+00 0. -1.
         25    1    1    2    0    0  0.25854200875E+02  0.26550829340E+03 -0.51859835302E+02  0.29912795938E+03  0.12500000000E+03 0.  0.
          2    1    1    2  501    0 -0.25854200875E+02 -0.26550829340E+03 -0.42064473821E+03  0.49810148499E+03  0.00000000000E+00 0. -1.
<mgrwt>
<rscale>  3 0.29459819E+03</rscale>
<asrwt>0</asrwt>
<pdfrwt beam="1">  1       21 0.24978837E-01 0.29459819E+03</pdfrwt>
<pdfrwt beam="2">  1        2 0.97671845E-01 0.29459819E+03</pdfrwt>
<totfact> 0.87966440E+03</totfact>
</mgrwt>
</event>
<event>
 4    0  0.1182878E-001  0.2375151E+03  0.7546771E-02  0.1121459E+00
          2   -1    0    0  502    0 -0.00000000000E+00  0.00000000000E+00  0.22190371241E+04  0.22190371241E+04  0.00000000000E+00 0. -1.
         21   -1    0    0  501  502  0.00000000000E+00 -0.00000000000E+00 -0.59523918100E+02  0.59523918100E+02  0.00000000000E+00 0.  1.
         25    1    1    2    0    0 -0.14164538802E+03  0.14396189118E+03  0.20531638317E+03  0.31395582374E+03  0.12500000000E+03 0.  0.
          2    1    1    2  501    0  0.14164538802E+03 -0.14396189118E+03  0.19541968228E+04  0.19646052184E+04  0.00000000000E+00 0. -1.
<mgrwt>
<rscale>  3 0.23751514E+03</rscale>
<asrwt>0</asrwt>
<pdfrwt beam="1">  1       21 0.91575276E-02 0.23751514E+03</pdfrwt>
<pdfrwt beam="2">  1        2 0.34139026E+00 0.23751514E+03</pdfrwt>
<totfact> 0.68729675E+03</totfact>
</mgrwt>
</event>
<event>
 4    0  0.1002184E-001  0.6846310E+03  0.7546771E-02  0.9743882E-01
         21   -1    0    0  501  502  0.00000000000E+00  0.00000000000E+00  0.97769177052E+03  0.97769177052E+03  0.00000000000E+00 0.  1.
          2   -1    0    0  502    0 -0.00000000000E+00 -0.00000000000E+00 -0.48030453286E+03  0.48030453286E+03  0.00000000000E+00 0.  1.
         25    1    1    2    0    0  0.44620040219E+03 -0.50398400333E+03  0.35007476527E+03  0.76894214074E+03  0.12500000000E+03 0.  0.
          2    1    1    2  501    0 -0.44620040219E+03  0.50398400333E+03  0.14731247239E+03  0.68905416264E+03  0.00000000000E+00 0.  1.
<mgrwt>
<rscale>  3 0.68463105E+03</rscale>
<asrwt>0</asrwt>
<pdfrwt beam="1">  1       21 0.15041412E+00 0.68463105E+03</pdfrwt>
<pdfrwt beam="2">  1        2 0.73893005E-01 0.68463105E+03</pdfrwt>
<totfact> 0.20024702E+02</totfact>
</mgrwt>
</event>
<event>
 4    0  0.1002184E-001  0.3027106E+03  0.7546771E-02  0.1083893E+00
          1   -1    0    0  502    0 -0.00000000000E+00  0.00000000000E+00  0.79260205143E+03  0.79260205143E+03  0.00000000000E+00 0. -1.
         21   -1    0    0  501  502  0.00000000000E+00 -0.00000000000E+00 -0.10579779379E+03  0.10579779379E+03  0.00000000000E+00 0.  1.
         25    1    1    2    0    0 -0.23963858239E+03 -0.13631604274E+03  0.33658483374E+03  0.45268428731E+03  0.12500000000E+03 0.  0.
          1    1    1    2  501    0  0.23963858239E+03  0.13631604274E+03  0.35021942390E+03  0.44571555790E+03  0.00000000000E+00 0. -1.
<mgrwt>
<rscale>  3 0.30271061E+03</rscale>
<asrwt>0</asrwt>
<pdfrwt beam="1">  1       21 0.16276584E-01 0.30271061E+03</pdfrwt>
<pdfrwt beam="2">  1        1 0.12193877E+00 0.30271061E+03</pdfrwt>
<totfact> 0.85942570E+03</totfact>
</mgrwt>
</event>
<event>
 4    0  0.1667216E-001  0.2855959E+03  0.7546771E-02  0.1092671E+00
         21   -1    0    0  501  502  0.00000000000E+00  0.00000000000E+00  0.43215707354E+02  0.43215707354E+02  0.00000000000E+00 0.  1.
          2   -1    0    0  502    0 -0.00000000000E+00 -0.00000000000E+00 -0.20775198178E+04  0.20775198178E+04  0.00000000000E+00 0.  1.
         25    1    1    2    0    0  0.24746132036E+03  0.68577824736E+02 -0.61099867326E+03  0.67445118567E+03  0.12500000000E+03 0.  0.
          2    1    1    2  501    0 -0.24746132036E+03 -0.68577824736E+02 -0.14233054372E+04  0.14462843395E+04  0.00000000000E+00 0.  1.
<mgrwt>
<rscale>  3 0.28559591E+03</rscale>
<asrwt>0</asrwt>
<pdfrwt beam="1">  1       21 0.66485731E-02 0.28559591E+03</pdfrwt>
<pdfrwt beam="2">  1        2 0.31961830E+00 0.28559591E+03</pdfrwt>
<totfact> 0.14070602E+04</totfact>
</mgrwt>
</event>
<event>
 4    0  0.1316542E-001  0.5113076E+03  0.7546771E-02  0.1010869E+00
         21   -1    0    0  501  502  0.00000000000E+00  0.00000000000E+00  0.77557137613E+03  0.77557137613E+03  0.00000000000E+00 0. -1.
          2   -1    0    0  502    0 -0.00000000000E+00 -0.00000000000E+00 -0.11566834373E+04  0.11566834373E+04  0.00000000000E+00 0.  1.
         25    1    1    2    0    0 -0.29933487461E+03 -0.39523301065E+03  0.62686292828E+03  0.80894538178E+03  0.12500000000E+03 0.  0.
          2    1    1    2  501    0  0.29933487461E+03  0.39523301065E+03 -0.10079749894E+04  0.11233094316E+04  0.00000000000E+00 0.  1.
<mgrwt>
<rscale>  3 0.51130764E+03</rscale>
<asrwt>0</asrwt>
<pdfrwt beam="1">  1       21 0.11931867E+00 0.51130764E+03</pdfrwt>
<pdfrwt beam="2">  1        2 0.17795130E+00 0.51130764E+03</pdfrwt>
<totfact> 0.12243348E+02</totfact>
</mgrwt>
</event>
<event>
 4    0  0.1483299E-001  0.2407535E+03  0.7546771E-02  0.1119292E+00
         21   -1    0    0  501  502  0.00000000000E+00  0.00000000000E+00  0.81086407652E+02  0.81086407652E+02  0.00000000000E+00 0. -1.
         -1   -1    0    0    0  501 -0.00000000000E+00 -0.00000000000E+00 -0.17246913264E+04  0.17246913264E+04  0.00000000000E+00 0. -1.
         25    1    1    2    0    0  0.15231219427E+03  0.13834097720E+03 -0.12121610624E+03  0.26954698089E+03  0.12500000000E+03 0.  0.
         -1    1    1    2    0  502 -0.15231219427E+03 -0.13834097720E+03 -0.15223888125E+04  0.15362307531E+04  0.00000000000E+00 0. -1.
<mgrwt>
<rscale>  3 0.24075346E+03</rscale>
<asrwt>0</asrwt>
<pdfrwt beam="1">  1       21 0.12474833E-01 0.24075346E+03</pdfrwt>
<pdfrwt beam="2">  1       -1 0.26533711E+00 0.24075346E+03</pdfrwt>
<totfact> 0.32644772E+02</totfact>
</mgrwt>
</event>
<event>
 4    0  0.1140687E-001  0.3580659E+03  0.7546771E-02  0.1059352E+00
         21   -1    0    0  501  502  0.00000000000E+00  0.00000000000E+00  0.71649469532E+03  0.71649469532E+03  0.00000000000E+00 0.  1.
          2   -1    0    0  502    0 -0.00000000000E+00 -0.00000000000E+00 -0.21103268559E+03  0.21103268559E+03  0.00000000000E+00 0.  1.
         25    1    1    2    0    0 -0.25252815944E+03 -0.22094286806E+03  0.49589927744E+02  0.36148358633E+03  0.12500000000E+03 0.  0.
          2    1    1    2  501    0  0.25252815944E+03  0.22094286806E+03  0.45587208198E+03  0.56604379458E+03  0.00000000000E+00 0.  1.
<mgrwt>
<rscale>  3 0.35806595E+03</rscale>
<asrwt>0</asrwt>
<pdfrwt beam="1">  1       21 0.11022995E+00 0.35806595E+03</pdfrwt>
<pdfrwt beam="2">  1        2 0.32466567E-01 0.35806595E+03</pdfrwt>
<totfact> 0.12108292E+03</totfact>
</mgrwt>
</event>
<event>
 4    0  0.1527292E-001  0.2656498E+03  0.7546771E-02  0.1103795E+00
          2   -1    0    0  502    0 -0.00000000000E+00  0.00000000000E+00  0.18741703678E+04  0.18741703678E+04  0.00000000000E+00 0. -1.
         21   -1    0    0  501  502  0.00000000000E+00 -0.00000000000E+00 -0.22287082491E+03  0.22287082491E+03  0.00000000000E+00 0. -1.
         25    1    1    2    0    0 -0.23091419765E+03 -0.40292369117E+02 -0.13322707038E+03  0.29718562207E+03  0.12500000000E+03 0.  0.
          2    1    1    2  501    0  0.23091419765E+03  0.40292369117E+02  0.17845266133E+04  0.17998555707E+04  0.00000000000E+00 0. -1.
<mgrwt>
<rscale>  3 0.26564985E+03</rscale>
<asrwt>0</asrwt>
<pdfrwt beam="1">  1       21 0.34287821E-01 0.26564985E+03</pdfrwt>
<pdfrwt beam="2">  1        2 0.28833389E+00 0.26564985E+03</pdfrwt>
<totfact> 0.87783700E+02</totfact>
</mgrwt>
</event>
<event>
 4    0  0.1367895E-001  0.2643843E+03  0.7546771E-02  0.1104537E+00
         21   -1    0    0  501  502  0.00000000000E+00  0.00000000000E+00  0.72733247140E+03  0.72733247140E+03  0.00000000000E+00 0. -1.
         -4   -1    0    0    0  501 -0.00000000000E+00 -0.00000000000E+00 -0.95097877205E+02  0.95097877205E+02  0.00000000000E+00 0. -1.
         25    1    1    2    0    0 -0.23085885230E+03  0.31276637993E+02  0.46757832204E+03  0.53714851300E+03  0.12500000000E+03 0.  0.
         -4    1    1    2    0  502  0.23085885230E+03 -0.31276637993E+02  0.16465627215E+03  0.28528183561E+03  0.00000000000E+00 0. -1.
<mgrwt>
<rscale>  3 0.26438426E+03</rscale>
<asrwt>0</asrwt>
<pdfrwt beam="1">  1       21 0.11189730E+00 0.26438426E+03</pdfrwt>
<pdfrwt beam="2">  1       -4 0.14630443E-01 0.26438426E+03</pdfrwt>
<totfact> 0.10320004E+03</totfact>
</mgrwt>
</event>
<event>
 4    0  0.1350578E-001  0.2395667E+03  0.7546771E-02  0.1120082E+00
         21   -1    0    0  501  502  0.00000000000E+00  0.00000000000E+00  0.12804567948E+03  0.12804567948E+03  0.00000000000E+00 0.  1.
          2   -1    0    0  502    0 -0.00000000000E+00 -0.00000000000E+00 -0.42065911451E+03  0.42065911451E+03  0.00000000000E+00 0.  1.
         25    1    1    2    0    0  0.82769394815E+02  0.18685932856E+03 -0.77028321373E+02  0.25164567090E+03  0.12500000000E+03 0.  0.
          2    1    1    2  501    0 -0.82769394815E+02 -0.18685932856E+03 -0.21558511366E+03  0.29705912310E+03  0.00000000000E+00 0.  1.
<mgrwt>
<rscale>  3 0.23956665E+03</rscale>
<asrwt>0</asrwt>
<pdfrwt beam="1">  1       21 0.19699335E-01 0.23956665E+03</pdfrwt>
<pdfrwt beam="2">  1        2 0.64716787E-01 0.23956665E+03</pdfrwt>
<totfact> 0.22237649E+04</totfact>
</mgrwt>
</event>
<event>
 4    0  0.1002184E-001  0.5971380E+03  0.7546771E-02  0.9911362E-01
          1   -1    0    0  502    0 -0.00000000000E+00  0.00000000000E+00  0.52414156814E+04  0.52414156814E+04  0.00000000000E+00 0.  1.
         21   -1    0    0  501  502  0.00000000000E+00 -0.00000000000E+00 -0.71963448073E+02  0.71963448073E+02  0.00000000000E+00 0.  1.
         25    1    1    2    0    0  0.11173176798E+03  0.57311844773E+03  0.18816149910E+04  0.19740944044E+04  0.12500000000E+03 0.  0.
          1    1    1    2  501    0 -0.11173176798E+03 -0.57311844773E+03  0.32878372423E+04  0.33392847251E+04  0.00000000000E+00 0.  1.
<mgrwt>
<rscale>  3 0.59713796E+03</rscale>
<asrwt>0</asrwt>
<pdfrwt beam="1">  1       21 0.11071304E-01 0.59713796E+03</pdfrwt>
<pdfrwt beam="2">  1        1 0.80637134E+00 0.59713796E+03</pdfrwt>
<totfact> 0.37052743E+00</totfact>
</mgrwt>
</event>
<event>
 4    0  0.1318236E-001  0.2534023E+03  0.7546771E-02  0.1111173E+00
         21   -1    0    0  501  502  0.00000000000E+00  0.00000000000E+00  0.18603804941E+03  0.18603804941E+03  0.00000000000E+00 0.  1.
          4   -1    0    0  502    0 -0.00000000000E+00 -0.00000000000E+00 -0.31505493606E+03  0.31505493606E+03  0.00000000000E+00 0.  1.
         25    1    1    2    0    0 -0.20807188018E+02  0.21944201041E+03 -0.17350546251E+02  0.25399562292E+03  0.12500000000E+03 0.  0.
          4    1    1    2  501    0  0.20807188018E+02 -0.21944201041E+03 -0.11166634040E+03  0.24709736256E+03  0.00000000000E+00 0.  1.
<mgrwt>
<rscale>  3 0.25340232E+03</rscale>
<asrwt>0</asrwt>
<pdfrwt beam="1">  1       21 0.28621239E-01 0.25340232E+03</pdfrwt>
<pdfrwt beam="2">  1        4 0.48469990E-01 0.25340232E+03</pdfrwt>
<totfact> 0.20383167E+03</totfact>
</mgrwt>
</event>
<event>
 4    0  0.1436943E-001  0.2904793E+03  0.7546771E-02  0.1090099E+00
         21   -1    0    0  501  502  0.00000000000E+00  0.00000000000E+00  0.70006487349E+02  0.70006487349E+02  0.00000000000E+00 0.  1.
          2   -1    0    0  502    0 -0.00000000000E+00 -0.00000000000E+00 -0.19127035090E+04  0.19127035090E+04  0.00000000000E+00 0.  1.
         25    1    1    2    0    0  0.47285926664E+02  0.25790939946E+03 -0.29887359757E+03  0.41677769196E+03  0.12500000000E+03 0.  0.
          2    1    1    2  501    0 -0.47285926664E+02 -0.25790939946E+03 -0.15438234241E+04  0.15659323044E+04  0.00000000000E+00 0.  1.
<mgrwt>
<rscale>  3 0.29047929E+03</rscale>
<asrwt>0</asrwt>
<pdfrwt beam="1">  1       21 0.10770226E-01 0.29047929E+03</pdfrwt>
<pdfrwt beam="2">  1        2 0.29426215E+00 0.29047929E+03</pdfrwt>
<totfact> 0.73327674E+03</totfact>
</mgrwt>
</event>
<event>
 4    0  0.1791097E-001  0.2595900E+03  0.7546771E-02  0.1107390E+00
         21   -1    0    0  501  502  0.00000000000E+00  0.00000000000E+00  0.12354809428E+03  0.12354809428E+03  0.00000000000E+00 0. -1.
         -1   -1    0    0    0  501 -0.00000000000E+00 -0.00000000000E+00 -0.52284325007E+03  0.52284325007E+03  0.00000000000E+00 0. -1.
         25    1    1    2    0    0  0.69011755389E+02 -0.21679329042E+03 -0.11951142913E+03  0.28577952139E+03  0.12500000000E+03 0.  0.
         -1    1    1    2    0  502 -0.69011755389E+02  0.21679329042E+03 -0.27978372666E+03  0.36061182295E+03  0.00000000000E+00 0. -1.
<mgrwt>
<rscale>  3 0.25958997E+03</rscale>
<asrwt>0</asrwt>
<pdfrwt beam="1">  1       21 0.19007399E-01 0.25958997E+03</pdfrwt>
<pdfrwt beam="2">  1       -1 0.80437422E-01 0.25958997E+03</pdfrwt>
<totfact> 0.37679144E+03</totfact>
</mgrwt>
</event>
<event>
 4    0  0.1002184E-001  0.3005937E+03  0.7546771E-02  0.1084944E+00
         21   -1    0    0  501  502  0.00000000000E+00  0.00000000000E+00  0.55645265672E+03  0.55645265672E+03  0.00000000000E+00 0. -1.
         -2   -1    0    0    0  501 -0.00000000000E+00 -0.00000000000E+00 -0.29231503182E+03  0.29231503182E+03  0.00000000000E+00 0.  1.
         25    1    1    2    0    0  0.14791628542E+03 -0.22989642777E+03  0.43325069426E+03  0.52731656438E+03  0.12500000000E+03 0.  0.
         -2    1    1    2    0  502 -0.14791628542E+03  0.22989642777E+03 -0.16911306936E+03  0.32145112416E+03  0.00000000000E+00 0.  1.
<mgrwt>
<rscale>  3 0.30059374E+03</rscale>
<asrwt>0</asrwt>
<pdfrwt beam="1">  1       21 0.85608101E-01 0.30059374E+03</pdfrwt>
<pdfrwt beam="2">  1       -2 0.44971543E-01 0.30059374E+03</pdfrwt>
<totfact> 0.43360967E+02</totfact>
</mgrwt>
</event>
<event>
 4    0  0.1002184E-001  0.2623219E+03  0.7546771E-02  0.1105756E+00
         21   -1    0    0  501  502  0.00000000000E+00  0.00000000000E+00  0.44507965131E+03  0.44507965131E+03  0.00000000000E+00 0.  1.
          3   -1    0    0  502    0 -0.00000000000E+00 -0.00000000000E+00 -0.15118103111E+03  0.15118103111E+03  0.00000000000E+00 0. -1.
         25    1    1    2    0    0  0.13582776910E+03 -0.18638297698E+03  0.24824107000E+03  0.36115983415E+03  0.12500000000E+03 0.  0.
          3    1    1    2  501    0 -0.13582776910E+03  0.18638297698E+03  0.45657550192E+02  0.23510084827E+03  0.00000000000E+00 0. -1.
<mgrwt>
<rscale>  3 0.26232193E+03</rscale>
<asrwt>0</asrwt>
<pdfrwt beam="1">  1       21 0.68473792E-01 0.26232193E+03</pdfrwt>
<pdfrwt beam="2">  1        3 0.23258620E-01 0.26232193E+03</pdfrwt>
<totfact> 0.16319634E+03</totfact>
</mgrwt>
</event>
<event>
 4    0  0.1002184E-001  0.2641039E+03  0.7546771E-02  0.1104702E+00
          1   -1    0    0  502    0 -0.00000000000E+00  0.00000000000E+00  0.11165640246E+04  0.11165640246E+04  0.00000000000E+00 0. -1.
         21   -1    0    0  501  502  0.00000000000E+00 -0.00000000000E+00 -0.55253908898E+02  0.55253908898E+02  0.00000000000E+00 0.  1.
         25    1    1    2    0    0  0.73327878668E+02  0.22079151943E+03  0.56865580255E+03  0.62699305787E+03  0.12500000000E+03 0.  0.
          1    1    1    2  501    0 -0.73327878668E+02 -0.22079151943E+03  0.49265431318E+03  0.54482487566E+03  0.00000000000E+00 0. -1.
<mgrwt>
<rscale>  3 0.26410391E+03</rscale>
<asrwt>0</asrwt>
<pdfrwt beam="1">  1       21 0.85006022E-02 0.26410391E+03</pdfrwt>
<pdfrwt beam="2">  1        1 0.17177906E+00 0.26410391E+03</pdfrwt>
<totfact> 0.15710811E+04</totfact>
</mgrwt>
</event>
<event>
 4    0  0.1049961E-001  0.2579020E+03  0.7546771E-02  0.1108410E+00
         21   -1    0    0  501  502  0.00000000000E+00  0.00000000000E+00  0.29155627043E+02  0.29155627043E+02  0.00000000000E+00 0.  1.
          2   -1    0    0  502    0 -0.00000000000E+00 -0.00000000000E+00 -0.33129903973E+04  0.33129903973E+04  0.00000000000E+00 0.  1.
         25    1    1    2    0    0 -0.18229554100E+03 -0.13287871836E+03 -0.65950499584E+03  0.70813858643E+03  0.12500000000E+03 0.  0.
          2    1    1    2  501    0  0.18229554100E+03  0.13287871836E+03 -0.26243297744E+04  0.26340074379E+04  0.00000000000E+00 0.  1.
<mgrwt>
<rscale>  3 0.25790195E+03</rscale>
<asrwt>0</asrwt>
<pdfrwt beam="1">  1       21 0.44854841E-02 0.25790195E+03</pdfrwt>
<pdfrwt beam="2">  1        2 0.50969049E+00 0.25790195E+03</pdfrwt>
<totfact> 0.55398553E+03</totfact>
</mgrwt>
</event>
<event>
 4    0  0.1345581E-001  0.2448195E+03  0.7546771E-02  0.1116623E+00
          2   -1    0    0  502    0 -0.00000000000E+00  0.00000000000E+00  0.23877928098E+04  0.23877928098E+04  0.00000000000E+00 0. -1.
         21   -1    0    0  501  502  0.00000000000E+00 -0.00000000000E+00 -0.56880437338E+02  0.56880437338E+02  0.00000000000E+00 0.  1.
         25    1    1    2    0    0 -0.20549686997E+03  0.45636036208E+02  0.23879921911E+03  0.34199660586E+03  0.12500000000E+03 0.  0.
          2    1    1    2  501    0  0.20549686997E+03 -0.45636036208E+02  0.20921131534E+04  0.21026766413E+04  0.00000000000E+00 0. -1.
<mgrwt>
<rscale>  3 0.24481955E+03</rscale>
<asrwt>0</asrwt>
<pdfrwt beam="1">  1       21 0.87508383E-02 0.24481955E+03</pdfrwt>
<pdfrwt beam="2">  1        2 0.36735266E+00 0.24481955E+03</pdfrwt>
<totfact> 0.60309386E+03</totfact>
</mgrwt>
</event>
<event>
 4    0  0.1402572E-001  0.2650491E+03  0.7546771E-02  0.1104147E+00
         21   -1    0    0  501  502  0.00000000000E+00  0.00000000000E+00  0.26049316621E+03  0.26049316621E+03  0.00000000000E+00 0.  1.
          2   -1    0    0  502    0 -0.00000000000E+00 -0.00000000000E+00 -0.61909454954E+03  0.61909454954E+03  0.00000000000E+00 0.  1.
         25    1    1    2    0    0  0.74378908868E+02 -0.22157122397E+03  0.16080751584E+03  0.31001626816E+03  0.12500000000E+03 0.  0.
          2    1    1    2  501    0 -0.74378908868E+02  0.22157122397E+03 -0.51940889917E+03  0.56957144759E+03  0.00000000000E+00 0.  1.
<mgrwt>
<rscale>  3 0.26504911E+03</rscale>
<asrwt>0</asrwt>
<pdfrwt beam="1">  1       21 0.40075872E-01 0.26504911E+03</pdfrwt>
<pdfrwt beam="2">  1        2 0.95245314E-01 0.26504911E+03</pdfrwt>
<totfact> 0.35804473E+03</totfact>
</mgrwt>
</event>
<event>
 4    0  0.1152341E-001  0.3727874E+03  0.7546771E-02  0.1053632E+00
          2   -1    0    0  502    0 -0.00000000000E+00  0.00000000000E+00  0.19161825238E+04  0.19161825238E+04  0.00000000000E+00 0. -1.
         21   -1    0    0  501  502  0.00000000000E+00 -0.00000000000E+00 -0.14256182991E+04  0.14256182991E+04  0.00000000000E+00 0.  1.
         25    1    1    2    0    0 -0.15318491242E+03  0.31603772293E+03 -0.13846638508E+04  0.14339680748E+04  0.12500000000E+03 0.  0.
          2    1    1    2  501    0  0.15318491242E+03 -0.31603772293E+03  0.18752280755E+04  0.19078327481E+04  0.00000000000E+00 0. -1.
<mgrwt>
<rscale>  3 0.37278742E+03</rscale>
<asrwt>0</asrwt>
<pdfrwt beam="1">  1       21 0.21932589E+00 0.37278742E+03</pdfrwt>
<pdfrwt beam="2">  1        2 0.29479731E+00 0.37278742E+03</pdfrwt>
<totfact> 0.90017252E+00</totfact>
</mgrwt>
</event>
<event>
 4    0  0.1002184E-001  0.3953842E+03  0.7546771E-02  0.1045390E+00
         21   -1    0    0  501  502  0.00000000000E+00  0.00000000000E+00  0.19930567167E+03  0.19930567167E+03  0.00000000000E+00 0.  1.
          2   -1    0    0  502    0 -0.00000000000E+00 -0.00000000000E+00 -0.28793553279E+04  0.28793553279E+04  0.00000000000E+00 0.  1.
         25    1    1    2    0    0  0.33718530922E+03 -0.16434644504E+03 -0.23846463606E+02  0.39610268943E+03  0.12500000000E+03 0.  0.
          2    1    1    2  501    0 -0.33718530922E+03  0.16434644504E+03 -0.26562031926E+04  0.26825583102E+04  0.00000000000E+00 0.  1.
<mgrwt>
<rscale>  3 0.39538423E+03</rscale>
<asrwt>0</asrwt>
<pdfrwt beam="1">  1       21 0.30662414E-01 0.39538423E+03</pdfrwt>
<pdfrwt beam="2">  1        2 0.44297770E+00 0.39538423E+03</pdfrwt>
<totfact> 0.28981461E+02</totfact>
</mgrwt>
</event>
<event>
 4    0  0.1482546E-001  0.4277057E+03  0.7546771E-02  0.1034587E+00
         -2   -1    0    0    0  501 -0.00000000000E+00  0.00000000000E+00  0.60353455506E+03  0.60353455506E+03  0.00000000000E+00 0.  1.
         21   -1    0    0  501  502  0.00000000000E+00 -0.00000000000E+00 -0.51176302804E+03  0.51176302804E+03  0.00000000000E+00 0.  1.
         25    1    1    2    0    0 -0.29693062808E+03 -0.28131717222E+03  0.41349264472E+03  0.59490193857E+03  0.12500000000E+03 0.  0.
         -2    1    1    2    0  502  0.29693062808E+03  0.28131717222E+03 -0.32172111770E+03  0.52039564453E+03  0.00000000000E+00 0.  1.
<mgrwt>
<rscale>  3 0.42770568E+03</rscale>
<asrwt>0</asrwt>
<pdfrwt beam="1">  1       21 0.78732773E-01 0.42770568E+03</pdfrwt>
<pdfrwt beam="2">  1       -2 0.92851470E-01 0.42770568E+03</pdfrwt>
<totfact> 0.10852519E+02</totfact>
</mgrwt>
</event>
<event>
 4    0  0.1002184E-001  0.2685899E+03  0.7546771E-02  0.1102089E+00
         21   -1    0    0  501  502  0.00000000000E+00  0.00000000000E+00  0.14378897131E+03  0.14378897131E+03  0.00000000000E+00 0. -1.
          2   -1    0    0  502    0 -0.00000000000E+00 -0.00000000000E+00 -0.52209191028E+03  0.52209191028E+03  0.00000000000E+00 0.  1.
         25    1    1    2    0    0 -0.18456412658E+02 -0.23701239724E+03 -0.71859121154E+02  0.27803641652E+03  0.12500000000E+03 0.  0.
          2    1    1    2  501    0  0.18456412658E+02  0.23701239724E+03 -0.30644381781E+03  0.38784446508E+03  0.00000000000E+00 0.  1.
<mgrwt>
<rscale>  3 0.26858987E+03</rscale>
<asrwt>0</asrwt>
<pdfrwt beam="1">  1       21 0.22121380E-01 0.26858987E+03</pdfrwt>
<pdfrwt beam="2">  1        2 0.80321833E-01 0.26858987E+03</pdfrwt>
<totfact> 0.13989399E+04</totfact>
</mgrwt>
</event>
<event>
 4    0  0.1557495E-001  0.2454625E+03  0.7546771E-02  0.1116206E+00
         21   -1    0    0  501  502  0.00000000000E+00  0.00000000000E+00  0.29257785173E+02  0.29257785173E+02  0.00000000000E+00 0.  1.
          1   -1    0    0  502    0 -0.00000000000E+00 -0.00000000000E+00 -0.18815848404E+04  0.18815848404E+04  0.00000000000E+00 0.  1.
         25    1    1    2    0    0  0.42211625964E+02  0.20699033685E+03 -0.77301664551E+03  0.81105274498E+03  0.12500000000E+03 0.  0.
          1    1    1    2  501    0 -0.42211625964E+02 -0.20699033685E+03 -0.10793104097E+04  0.10997898806E+04  0.00000000000E+00 0.  1.
<mgrwt>
<rscale>  3 0.24546246E+03</rscale>
<asrwt>0</asrwt>
<pdfrwt beam="1">  1       21 0.45011974E-02 0.24546246E+03</pdfrwt>
<pdfrwt beam="2">  1        1 0.28947461E+00 0.24546246E+03</pdfrwt>
<totfact> 0.14547213E+04</totfact>
</mgrwt>
</event>
<event>
 4    0  0.1117892E-001  0.2362436E+03  0.7546771E-02  0.1122321E+00
         21   -1    0    0  501  502  0.00000000000E+00  0.00000000000E+00  0.54148829570E+02  0.54148829570E+02  0.00000000000E+00 0.  1.
          2   -1    0    0  502    0 -0.00000000000E+00 -0.00000000000E+00 -0.14582372326E+04  0.14582372326E+04  0.00000000000E+00 0. -1.
         25    1    1    2    0    0 -0.12183056996E+03  0.15919598162E+03 -0.26176892946E+03  0.35261029590E+03  0.12500000000E+03 0.  0.
          2    1    1    2  501    0  0.12183056996E+03 -0.15919598162E+03 -0.11423194736E+04  0.11597757663E+04  0.00000000000E+00 0. -1.
<mgrwt>
<rscale>  3 0.23624362E+03</rscale>
<asrwt>0</asrwt>
<pdfrwt beam="1">  1       21 0.83305893E-02 0.23624362E+03</pdfrwt>
<pdfrwt beam="2">  1        2 0.22434419E+00 0.23624362E+03</pdfrwt>
<totfact> 0.20413033E+04</totfact>
</mgrwt>
</event>
<event>
 4    0  0.1002184E-001  0.3065322E+03  0.7546771E-02  0.1082020E+00
          1   -1    0    0  502    0 -0.00000000000E+00  0.00000000000E+00  0.39298324224E+03  0.39298324224E+03  0.00000000000E+00 0.  1.
         21   -1    0    0  501  502  0.00000000000E+00 -0.00000000000E+00 -0.21900770602E+03  0.21900770602E+03  0.00000000000E+00 0. -1.
         25    1    1    2    0    0  0.17932922233E+03 -0.21489075727E+03  0.10105604937E+03  0.32276048807E+03  0.12500000000E+03 0.  0.
          1    1    1    2  501    0 -0.17932922233E+03  0.21489075727E+03  0.72919486853E+02  0.28923046020E+03  0.00000000000E+00 0.  1.
<mgrwt>
<rscale>  3 0.30653223E+03</rscale>
<asrwt>0</asrwt>
<pdfrwt beam="1">  1       21 0.33693493E-01 0.30653223E+03</pdfrwt>
<pdfrwt beam="2">  1        1 0.60458960E-01 0.30653223E+03</pdfrwt>
<totfact> 0.56262557E+03</totfact>
</mgrwt>
</event>
<event>
 4    0  0.1419538E-001  0.2696684E+03  0.7546771E-02  0.1101470E+00
         21   -1    0    0  501  502  0.00000000000E+00  0.00000000000E+00  0.18843299454E+03  0.18843299454E+03  0.00000000000E+00 0. -1.
          1   -1    0    0  502    0 -0.00000000000E+00 -0.00000000000E+00 -0.82432112309E+03  0.82432112309E+03  0.00000000000E+00 0. -1.
         25    1    1    2    0    0  0.11252100875E+03  0.21079623046E+03  0.60620490713E+02  0.27639803198E+03  0.12500000000E+03 0.  0.
          1    1    1    2  501    0 -0.11252100875E+03 -0.21079623046E+03 -0.69650861926E+03  0.73635608566E+03  0.00000000000E+00 0. -1.
<mgrwt>
<rscale>  3 0.26966837E+03</rscale>
<asrwt>0</asrwt>
<pdfrwt beam="1">  1       21 0.28989691E-01 0.26966837E+03</pdfrwt>
<pdfrwt beam="2">  1        1 0.12681864E+00 0.26966837E+03</pdfrwt>
<totfact> 0.27212325E+03</totfact>
</mgrwt>
</event>
<event>
 4    0  0.1245620E-001  0.4412519E+03  0.7546771E-02  0.1030363E+00
         21   -1    0    0  501  502  0.00000000000E+00  0.00000000000E+00  0.13305683190E+03  0.13305683190E+03  0.00000000000E+00 0. -1.
          2   -1    0    0  502    0 -0.00000000000E+00 -0.00000000000E+00 -0.23502481446E+04  0.23502481446E+04  0.00000000000E+00 0. -1.
         25    1    1    2    0    0 -0.37798358294E+03 -0.19028049829E+03 -0.33468394396E+03  0.55382000627E+03  0.12500000000E+03 0.  0.
          2    1    1    2  501    0  0.37798358294E+03  0.19028049829E+03 -0.18825073687E+04  0.19294849702E+04  0.00000000000E+00 0. -1.
<mgrwt>
<rscale>  3 0.44125192E+03</rscale>
<asrwt>0</asrwt>
<pdfrwt beam="1">  1       21 0.20470283E-01 0.44125192E+03</pdfrwt>
<pdfrwt beam="2">  1        2 0.36157661E+00 0.44125192E+03</pdfrwt>
<totfact> 0.12456375E+03</totfact>
</mgrwt>
</event>
<event>
 4    0  0.1595093E-001  0.2954974E+03  0.7546771E-02  0.1087513E+00
          2   -1    0    0  502    0 -0.00000000000E+00  0.00000000000E+00  0.13995303755E+04  0.13995303755E+04  0.00000000000E+00 0. -1.
         21   -1    0    0  501  502  0.00000000000E+00 -0.00000000000E+00 -0.62603632402E+02  0.62603632402E+02  0.00000000000E+00 0. -1.
         25    1    1    2    0    0  0.14815413636E+03  0.22303381654E+03  0.92305560589E+03  0.96920089920E+03  0.12500000000E+03 0.  0.
          2    1    1    2  501    0 -0.14815413636E+03 -0.22303381654E+03  0.41387113717E+03  0.49293310867E+03  0.00000000000E+00 0. -1.
<mgrwt>
<rscale>  3 0.29549743E+03</rscale>
<asrwt>0</asrwt>
<pdfrwt beam="1">  1       21 0.96313291E-02 0.29549743E+03</pdfrwt>
<pdfrwt beam="2">  1        2 0.21531234E+00 0.29549743E+03</pdfrwt>
<totfact> 0.16771720E+04</totfact>
</mgrwt>
</event>
<event>
 4    0  0.1289610E-001  0.2811636E+03  0.7546771E-02  0.1095055E+00
         21   -1    0    0  501  502  0.00000000000E+00  0.00000000000E+00  0.17364871311E+03  0.17364871311E+03  0.00000000000E+00 0. -1.
          1   -1    0    0  502    0 -0.00000000000E+00 -0.00000000000E+00 -0.83008041653E+03  0.83008041653E+03  0.00000000000E+00 0.  1.
         25    1    1    2    0    0  0.23024340541E+03  0.10205854724E+03  0.20059740109E+02  0.28187828219E+03  0.12500000000E+03 0.  0.
          1    1    1    2  501    0 -0.23024340541E+03 -0.10205854724E+03 -0.67649144352E+03  0.72185084744E+03  0.00000000000E+00 0.  1.
<mgrwt>
<rscale>  3 0.28116361E+03</rscale>
<asrwt>0</asrwt>
<pdfrwt beam="1">  1       21 0.26715187E-01 0.28116361E+03</pdfrwt>
<pdfrwt beam="2">  1        1 0.12770468E+00 0.28116361E+03</pdfrwt>
<totfact> 0.31450775E+03</totfact>
</mgrwt>
</event>
<event>
 4    0  0.1002184E-001  0.2843864E+03  0.7546771E-02  0.1093317E+00
          1   -1    0    0  502    0 -0.00000000000E+00  0.00000000000E+00  0.94260151448E+02  0.94260151448E+02  0.00000000000E+00 0. -1.
         21   -1    0    0  501  502  0.00000000000E+00 -0.00000000000E+00 -0.12021139590E+04  0.12021139590E+04  0.00000000000E+00 0.  1.
         25    1    1    2    0    0  0.21414866879E+03  0.13925146899E+03 -0.95997970033E+03  0.10012175832E+04  0.12500000000E+03 0.  0.
          1    1    1    2  501    0 -0.21414866879E+03 -0.13925146899E+03 -0.14787410720E+03  0.29515652718E+03  0.00000000000E+00 0. -1.
<mgrwt>
<rscale>  3 0.28438640E+03</rscale>
<asrwt>0</asrwt>
<pdfrwt beam="1">  1       21 0.18494059E+00 0.28438640E+03</pdfrwt>
<pdfrwt beam="2">  1        1 0.14501563E-01 0.28438640E+03</pdfrwt>
<totfact> 0.66860721E+02</totfact>
</mgrwt>
</event>
<event>
 4    0  0.1002184E-001  0.3675933E+03  0.7546771E-02  0.1055617E+00
          3   -1    0    0  502    0 -0.00000000000E+00  0.00000000000E+00  0.10281762185E+03  0.10281762185E+03  0.00000000000E+00 0.  1.
         21   -1    0    0  501  502  0.00000000000E+00 -0.00000000000E+00 -0.12370698877E+04  0.12370698877E+04  0.00000000000E+00 0.  1.
         25    1    1    2    0    0 -0.34209333997E+03 -0.49719353346E+02 -0.58374062426E+03  0.68983909991E+03  0.12500000000E+03 0.  0.
          3    1    1    2  501    0  0.34209333997E+03  0.49719353346E+02 -0.55051164162E+03  0.65004840966E+03  0.00000000000E+00 0.  1.
<mgrwt>
<rscale>  3 0.36759335E+03</rscale>
<asrwt>0</asrwt>
<pdfrwt beam="1">  1       21 0.19031844E+00 0.36759335E+03</pdfrwt>
<pdfrwt beam="2">  1        3 0.15818096E-01 0.36759335E+03</pdfrwt>
<totfact> 0.24387051E+02</totfact>
</mgrwt>
</event>
<event>
 4    0  0.1279907E-001  0.3372702E+03  0.7546771E-02  0.1067965E+00
         21   -1    0    0  501  502  0.00000000000E+00  0.00000000000E+00  0.12340117330E+03  0.12340117330E+03  0.00000000000E+00 0.  1.
          2   -1    0    0  502    0 -0.00000000000E+00 -0.00000000000E+00 -0.17415390765E+04  0.17415390765E+04  0.00000000000E+00 0. -1.
         25    1    1    2    0    0 -0.25701575444E+03  0.17907849370E+03 -0.15956994235E+03  0.37311361733E+03  0.12500000000E+03 0.  0.
          2    1    1    2  501    0  0.25701575444E+03 -0.17907849370E+03 -0.14585679609E+04  0.14918266325E+04  0.00000000000E+00 0. -1.
<mgrwt>
<rscale>  3 0.33727023E+03</rscale>
<asrwt>0</asrwt>
<pdfrwt beam="1">  1       21 0.18984796E-01 0.33727023E+03</pdfrwt>
<pdfrwt beam="2">  1        2 0.26792909E+00 0.33727023E+03</pdfrwt>
<totfact> 0.31456308E+03</totfact>
</mgrwt>
</event>
<event>
 4    0  0.1002184E-001  0.2931538E+03  0.7546771E-02  0.1088714E+00
         21   -1    0    0  501  502  0.00000000000E+00  0.00000000000E+00  0.60890155019E+02  0.60890155019E+02  0.00000000000E+00 0.  1.
          2   -1    0    0  502    0 -0.00000000000E+00 -0.00000000000E+00 -0.14000160071E+04  0.14000160071E+04  0.00000000000E+00 0. -1.
         25    1    1    2    0    0  0.22688918696E+03 -0.13724223819E+03 -0.91399122211E+03  0.95985368114E+03  0.12500000000E+03 0.  0.
          2    1    1    2  501    0 -0.22688918696E+03  0.13724223819E+03 -0.42513463001E+03  0.50105248102E+03  0.00000000000E+00 0. -1.
<mgrwt>
<rscale>  3 0.29315377E+03</rscale>
<asrwt>0</asrwt>
<pdfrwt beam="1">  1       21 0.93677165E-02 0.29315377E+03</pdfrwt>
<pdfrwt beam="2">  1        2 0.21538707E+00 0.29315377E+03</pdfrwt>
<totfact> 0.17617552E+04</totfact>
</mgrwt>
</event>
<event>
 4    0  0.1517750E-001  0.2806362E+03  0.7546771E-02  0.1095342E+00
         21   -1    0    0  501  502  0.00000000000E+00  0.00000000000E+00  0.15310660719E+03  0.15310660719E+03  0.00000000000E+00 0. -1.
          2   -1    0    0  502    0 -0.00000000000E+00 -0.00000000000E+00 -0.47848436341E+03  0.47848436341E+03  0.00000000000E+00 0. -1.
         25    1    1    2    0    0 -0.21377096744E+03  0.13203650801E+03 -0.11275599498E+03  0.30244103619E+03  0.12500000000E+03 0.  0.
          2    1    1    2  501    0  0.21377096744E+03 -0.13203650801E+03 -0.21262176124E+03  0.32914993441E+03  0.00000000000E+00 0. -1.
<mgrwt>
<rscale>  3 0.28063618E+03</rscale>
<asrwt>0</asrwt>
<pdfrwt beam="1">  1       21 0.23554863E-01 0.28063618E+03</pdfrwt>
<pdfrwt beam="2">  1        2 0.73612978E-01 0.28063618E+03</pdfrwt>
<totfact> 0.13664945E+04</totfact>
</mgrwt>
</event>
<event>
 4    0  0.1121168E-001  0.3042614E+03  0.7546771E-02  0.1083130E+00
         21   -1    0    0  501  502  0.00000000000E+00  0.00000000000E+00  0.46122664516E+03  0.46122664516E+03  0.00000000000E+00 0.  1.
          2   -1    0    0  502    0 -0.00000000000E+00 -0.00000000000E+00 -0.18866619383E+03  0.18866619383E+03  0.00000000000E+00 0.  1.
         25    1    1    2    0    0  0.26178700780E+03  0.91747353519E+02  0.19670719909E+03  0.36231027657E+03  0.12500000000E+03 0.  0.
          2    1    1    2  501    0 -0.26178700780E+03 -0.91747353519E+02  0.75853252234E+02  0.28758256242E+03  0.00000000000E+00 0.  1.
<mgrwt>
<rscale>  3 0.30426142E+03</rscale>
<asrwt>0</asrwt>
<pdfrwt beam="1">  1       21 0.70957945E-01 0.30426142E+03</pdfrwt>
<pdfrwt beam="2">  1        2 0.29025568E-01 0.30426142E+03</pdfrwt>
<totfact> 0.39045958E+03</totfact>
</mgrwt>
</event>
<event>
 4    0  0.1002184E-001  0.2863435E+03  0.7546771E-02  0.1092274E+00
         21   -1    0    0  501  502  0.00000000000E+00  0.00000000000E+00  0.35181406194E+02  0.35181406194E+02  0.00000000000E+00 0.  1.
          1   -1    0    0  502    0 -0.00000000000E+00 -0.00000000000E+00 -0.22694514620E+04  0.22694514620E+04  0.00000000000E+00 0. -1.
         25    1    1    2    0    0  0.20775575072E+03  0.15233240493E+03 -0.85978478064E+03  0.90621326551E+03  0.12500000000E+03 0.  0.
          1    1    1    2  501    0 -0.20775575072E+03 -0.15233240493E+03 -0.13744852752E+04  0.13984196027E+04  0.00000000000E+00 0. -1.
<mgrwt>
<rscale>  3 0.28634352E+03</rscale>
<asrwt>0</asrwt>
<pdfrwt beam="1">  1       21 0.54125221E-02 0.28634352E+03</pdfrwt>
<pdfrwt beam="2">  1        1 0.34914650E+00 0.28634352E+03</pdfrwt>
<totfact> 0.58653307E+03</totfact>
</mgrwt>
</event>
<event>
 4    0  0.1361689E-001  0.2878966E+03  0.7546771E-02  0.1091452E+00
         21   -1    0    0  501  502  0.00000000000E+00  0.00000000000E+00  0.92596656324E+02  0.92596656324E+02  0.00000000000E+00 0. -1.
          2   -1    0    0  502    0 -0.00000000000E+00 -0.00000000000E+00 -0.18702959183E+04  0.18702959183E+04  0.00000000000E+00 0.  1.
         25    1    1    2    0    0  0.10870355362E+03  0.23546335946E+03 -0.16985821595E+03  0.33426975595E+03  0.12500000000E+03 0.  0.
          2    1    1    2  501    0 -0.10870355362E+03 -0.23546335946E+03 -0.16078410461E+04  0.16286228187E+04  0.00000000000E+00 0.  1.
<mgrwt>
<rscale>  3 0.28789661E+03</rscale>
<asrwt>0</asrwt>
<pdfrwt beam="1">  1       21 0.14245641E-01 0.28789661E+03</pdfrwt>
<pdfrwt beam="2">  1        2 0.28773780E+00 0.28789661E+03</pdfrwt>
<totfact> 0.46568245E+03</totfact>
</mgrwt>
</event>
<event>
 4    0  0.1496712E-001  0.3050388E+03  0.7546771E-02  0.1082749E+00
          2   -1    0    0  502    0 -0.00000000000E+00  0.00000000000E+00  0.72955593840E+03  0.72955593840E+03  0.00000000000E+00 0.  1.
         21   -1    0    0  501  502  0.00000000000E+00 -0.00000000000E+00 -0.16826508856E+03  0.16826508856E+03  0.00000000000E+00 0.  1.
         25    1    1    2    0    0 -0.23698840491E+03  0.14580863702E+03  0.40977352498E+02  0.30777882661E+03  0.12500000000E+03 0.  0.
          2    1    1    2  501    0  0.23698840491E+03 -0.14580863702E+03  0.52031349734E+03  0.59004220036E+03  0.00000000000E+00 0.  1.
<mgrwt>
<rscale>  3 0.30503879E+03</rscale>
<asrwt>0</asrwt>
<pdfrwt beam="1">  1       21 0.25886937E-01 0.30503879E+03</pdfrwt>
<pdfrwt beam="2">  1        2 0.11223937E+00 0.30503879E+03</pdfrwt>
<totfact> 0.69201532E+03</totfact>
</mgrwt>
</event>
<event>
 4    0  0.1002184E-001  0.2367615E+03  0.7546771E-02  0.1121969E+00
         21   -1    0    0  501  502  0.00000000000E+00  0.00000000000E+00  0.18217467169E+03  0.18217467169E+03  0.00000000000E+00 0.  1.
          2   -1    0    0  502    0 -0.00000000000E+00 -0.00000000000E+00 -0.26523812914E+03  0.26523812914E+03  0.00000000000E+00 0. -1.
         25    1    1    2    0    0 -0.13901311985E+03 -0.14528026804E+03 -0.65037315871E+02  0.24553178252E+03  0.12500000000E+03 0.  0.
          2    1    1    2  501    0  0.13901311985E+03  0.14528026804E+03 -0.18026141572E+02  0.20188101831E+03  0.00000000000E+00 0. -1.
<mgrwt>
<rscale>  3 0.23676149E+03</rscale>
<asrwt>0</asrwt>
<pdfrwt beam="1">  1       21 0.28026873E-01 0.23676149E+03</pdfrwt>
<pdfrwt beam="2">  1        2 0.40805866E-01 0.23676149E+03</pdfrwt>
<totfact> 0.18705100E+04</totfact>
</mgrwt>
</event>
<event>
 4    0  0.1390172E-001  0.3259025E+03  0.7546771E-02  0.1072964E+00
         21   -1    0    0  501  502  0.00000000000E+00  0.00000000000E+00  0.19509786506E+03  0.19509786506E+03  0.00000000000E+00 0. -1.
          2   -1    0    0  502    0 -0.00000000000E+00 -0.00000000000E+00 -0.53029315061E+03  0.53029315061E+03  0.00000000000E+00 0. -1.
         25    1    1    2    0    0  0.25445123928E+03 -0.16075458737E+03 -0.92561206973E+02  0.33879204177E+03  0.12500000000E+03 0.  0.
          2    1    1    2  501    0 -0.25445123928E+03  0.16075458737E+03 -0.24263407858E+03  0.38659897390E+03  0.00000000000E+00 0. -1.
<mgrwt>
<rscale>  3 0.32590255E+03</rscale>
<asrwt>0</asrwt>
<pdfrwt beam="1">  1       21 0.30015056E-01 0.32590255E+03</pdfrwt>
<pdfrwt beam="2">  1        2 0.81583561E-01 0.32590255E+03</pdfrwt>
<totfact> 0.75379991E+03</totfact>
</mgrwt>
</event>
<event>
 4    0  0.1541649E-001  0.2462426E+03  0.7546771E-02  0.1115703E+00
         21   -1    0    0  501  502  0.00000000000E+00  0.00000000000E+00  0.46532038649E+02  0.46532038649E+02  0.00000000000E+00 0. -1.
          2   -1    0    0  502    0 -0.00000000000E+00 -0.00000000000E+00 -0.11354440840E+04  0.11354440840E+04  0.00000000000E+00 0. -1.
         25    1    1    2    0    0  0.16612371158E+02 -0.21150520176E+03 -0.54014637762E+03  0.59362743408E+03  0.12500000000E+03 0.  0.
          2    1    1    2  501    0 -0.16612371158E+02  0.21150520176E+03 -0.54876566770E+03  0.58834868852E+03  0.00000000000E+00 0. -1.
<mgrwt>
<rscale>  3 0.24624261E+03</rscale>
<asrwt>0</asrwt>
<pdfrwt beam="1">  1       21 0.71587751E-02 0.24624261E+03</pdfrwt>
<pdfrwt beam="2">  1        2 0.17468371E+00 0.24624261E+03</pdfrwt>
<totfact> 0.40092870E+04</totfact>
</mgrwt>
</event>
<event>
 4    0  0.1538360E-001  0.2621771E+03  0.7546771E-02  0.1105842E+00
         21   -1    0    0  501  502  0.00000000000E+00  0.00000000000E+00  0.13263087273E+03  0.13263087273E+03  0.00000000000E+00 0. -1.
          1   -1    0    0  502    0 -0.00000000000E+00 -0.00000000000E+00 -0.10985332093E+04  0.10985332093E+04  0.00000000000E+00 0. -1.
         25    1    1    2    0    0 -0.12687535906E+03 -0.19239139806E+03 -0.26049168369E+02  0.26346796002E+03  0.12500000000E+03 0.  0.
          1    1    1    2  501    0  0.12687535906E+03  0.19239139806E+03 -0.93985316824E+03  0.96769612206E+03  0.00000000000E+00 0. -1.
<mgrwt>
<rscale>  3 0.26217705E+03</rscale>
<asrwt>0</asrwt>
<pdfrwt beam="1">  1       21 0.20404750E-01 0.26217705E+03</pdfrwt>
<pdfrwt beam="2">  1        1 0.16900511E+00 0.26217705E+03</pdfrwt>
<totfact> 0.32983593E+03</totfact>
</mgrwt>
</event>
<event>
 4    0  0.1507137E-001  0.2639883E+03  0.7546771E-02  0.1104770E+00
          2   -1    0    0  502    0 -0.00000000000E+00  0.00000000000E+00  0.48118477046E+03  0.48118477046E+03  0.00000000000E+00 0.  1.
         21   -1    0    0  501  502  0.00000000000E+00 -0.00000000000E+00 -0.12813752909E+03  0.12813752909E+03  0.00000000000E+00 0.  1.
         25    1    1    2    0    0 -0.17491424627E+03  0.15319868719E+03  0.18121799349E+03  0.32020273651E+03  0.12500000000E+03 0.  0.
          2    1    1    2  501    0  0.17491424627E+03 -0.15319868719E+03  0.17182924787E+03  0.28911956304E+03  0.00000000000E+00 0.  1.
<mgrwt>
<rscale>  3 0.26398832E+03</rscale>
<asrwt>0</asrwt>
<pdfrwt beam="1">  1       21 0.19713466E-01 0.26398832E+03</pdfrwt>
<pdfrwt beam="2">  1        2 0.74028425E-01 0.26398832E+03</pdfrwt>
<totfact> 0.19079209E+04</totfact>
</mgrwt>
</event>
<event>
 4    0  0.1297948E-001  0.2468385E+03  0.7546771E-02  0.1115319E+00
          2   -1    0    0  502    0 -0.00000000000E+00  0.00000000000E+00  0.60809587817E+03  0.60809587817E+03  0.00000000000E+00 0.  1.
         21   -1    0    0  501  502  0.00000000000E+00 -0.00000000000E+00 -0.48682067461E+03  0.48682067461E+03  0.00000000000E+00 0.  1.
         25    1    1    2    0    0  0.38598427763E+02  0.20931892999E+03 -0.43453227973E+03  0.49974749144E+03  0.12500000000E+03 0.  0.
          2    1    1    2  501    0 -0.38598427763E+02 -0.20931892999E+03  0.55580748329E+03  0.59516906133E+03  0.00000000000E+00 0.  1.
<mgrwt>
<rscale>  3 0.24683852E+03</rscale>
<asrwt>0</asrwt>
<pdfrwt beam="1">  1       21 0.74895489E-01 0.24683852E+03</pdfrwt>
<pdfrwt beam="2">  1        2 0.93553212E-01 0.24683852E+03</pdfrwt>
<totfact> 0.96914660E+02</totfact>
</mgrwt>
</event>
<event>
 4    0  0.1564396E-001  0.2654725E+03  0.7546771E-02  0.1103899E+00
          2   -1    0    0  502    0 -0.00000000000E+00  0.00000000000E+00  0.19833554996E+04  0.19833554996E+04  0.00000000000E+00 0.  1.
         21   -1    0    0  501  502  0.00000000000E+00 -0.00000000000E+00 -0.32216699952E+02  0.32216699952E+02  0.00000000000E+00 0.  1.
         25    1    1    2    0    0  0.67413408742E+02 -0.22429021771E+03  0.11882121754E+04  0.12175072251E+04  0.12500000000E+03 0.  0.
          2    1    1    2  501    0 -0.67413408742E+02  0.22429021771E+03  0.76292662427E+03  0.79806497446E+03  0.00000000000E+00 0.  1.
<mgrwt>
<rscale>  3 0.26547254E+03</rscale>
<asrwt>0</asrwt>
<pdfrwt beam="1">  1       21 0.49564169E-02 0.26547254E+03</pdfrwt>
<pdfrwt beam="2">  1        2 0.30513152E+00 0.26547254E+03</pdfrwt>
<totfact> 0.26293540E+04</totfact>
</mgrwt>
</event>
<event>
 4    0  0.1062883E-001  0.3953400E+03  0.7546771E-02  0.1045405E+00
          1   -1    0    0  502    0 -0.00000000000E+00  0.00000000000E+00  0.19537786020E+03  0.19537786020E+03  0.00000000000E+00 0.  1.
         21   -1    0    0  501  502  0.00000000000E+00 -0.00000000000E+00 -0.76681361330E+03  0.76681361330E+03  0.00000000000E+00 0.  1.
         25    1    1    2    0    0 -0.33727002072E+03 -0.16406610652E+03 -0.24601776658E+03  0.46563773006E+03  0.12500000000E+03 0.  0.
          1    1    1    2  501    0  0.33727002072E+03  0.16406610652E+03 -0.32541798652E+03  0.49655374345E+03  0.00000000000E+00 0.  1.
<mgrwt>
<rscale>  3 0.39534005E+03</rscale>
<asrwt>0</asrwt>
<pdfrwt beam="1">  1       21 0.11797133E+00 0.39534005E+03</pdfrwt>
<pdfrwt beam="2">  1        1 0.30058132E-01 0.39534005E+03</pdfrwt>
<totfact> 0.83632830E+02</totfact>
</mgrwt>
</event>
<event>
 4    0  0.1327001E-001  0.2582994E+03  0.7546771E-02  0.1108169E+00
         21   -1    0    0  501  502  0.00000000000E+00  0.00000000000E+00  0.96733078010E+02  0.96733078010E+02  0.00000000000E+00 0.  1.
          2   -1    0    0  502    0 -0.00000000000E+00 -0.00000000000E+00 -0.12837070802E+04  0.12837070802E+04  0.00000000000E+00 0. -1.
         25    1    1    2    0    0 -0.19817251233E+03 -0.10872548749E+03 -0.11127465063E+03  0.28124833181E+03  0.12500000000E+03 0.  0.
          2    1    1    2  501    0  0.19817251233E+03  0.10872548749E+03 -0.10756993516E+04  0.10991918264E+04  0.00000000000E+00 0. -1.
<mgrwt>
<rscale>  3 0.25829939E+03</rscale>
<asrwt>0</asrwt>
<pdfrwt beam="1">  1       21 0.14882012E-01 0.25829939E+03</pdfrwt>
<pdfrwt beam="2">  1        2 0.19749339E+00 0.25829939E+03</pdfrwt>
<totfact> 0.89400067E+03</totfact>
</mgrwt>
</event>
<event>
 4    0  0.1287173E-001  0.4781115E+03  0.7546771E-02  0.1019655E+00
          2   -1    0    0  502    0 -0.00000000000E+00  0.00000000000E+00  0.93770182881E+03  0.93770182881E+03  0.00000000000E+00 0.  1.
         21   -1    0    0  501  502  0.00000000000E+00 -0.00000000000E+00 -0.51438497358E+03  0.51438497358E+03  0.00000000000E+00 0.  1.
         25    1    1    2    0    0 -0.56027316446E+02 -0.45806831422E+03 -0.32131405938E+03  0.57604979423E+03  0.12500000000E+03 0.  0.
          2    1    1    2  501    0  0.56027316446E+02  0.45806831422E+03  0.74463091461E+03  0.87603700816E+03  0.00000000000E+00 0.  1.
<mgrwt>
<rscale>  3 0.47811154E+03</rscale>
<asrwt>0</asrwt>
<pdfrwt beam="1">  1       21 0.79136150E-01 0.47811154E+03</pdfrwt>
<pdfrwt beam="2">  1        2 0.14426182E+00 0.47811154E+03</pdfrwt>
<totfact> 0.45582354E+02</totfact>
</mgrwt>
</event>
<event>
 4    0  0.1400944E-001  0.3441081E+03  0.7546771E-02  0.1065060E+00
          1   -1    0    0  502    0 -0.00000000000E+00  0.00000000000E+00  0.12587563213E+04  0.12587563213E+04  0.00000000000E+00 0.  1.
         21   -1    0    0  501  502  0.00000000000E+00 -0.00000000000E+00 -0.95248102535E+02  0.95248102535E+02  0.00000000000E+00 0.  1.
         25    1    1    2    0    0  0.47218553780E+02  0.31710529792E+03  0.41090711402E+03  0.53596176929E+03  0.12500000000E+03 0.  0.
          1    1    1    2  501    0 -0.47218553780E+02 -0.31710529792E+03  0.75260110470E+03  0.81804265450E+03  0.00000000000E+00 0.  1.
<mgrwt>
<rscale>  3 0.34410807E+03</rscale>
<asrwt>0</asrwt>
<pdfrwt beam="1">  1       21 0.14653555E-01 0.34410807E+03</pdfrwt>
<pdfrwt beam="2">  1        1 0.19365481E+00 0.34410807E+03</pdfrwt>
<totfact> 0.45969194E+03</totfact>
</mgrwt>
</event>
<event>
 4    0  0.1133751E-001  0.3874525E+03  0.7546771E-02  0.1048213E+00
          2   -1    0    0  502    0 -0.00000000000E+00  0.00000000000E+00  0.23645143581E+04  0.23645143581E+04  0.00000000000E+00 0.  1.
         21   -1    0    0  501  502  0.00000000000E+00 -0.00000000000E+00 -0.17335422095E+03  0.17335422095E+03  0.00000000000E+00 0. -1.
         25    1    1    2    0    0  0.35225623888E+03  0.10202916654E+03  0.80681861697E+02  0.39576378240E+03  0.12500000000E+03 0.  0.
          2    1    1    2  501    0 -0.35225623888E+03 -0.10202916654E+03  0.21104782755E+04  0.21421047967E+04  0.00000000000E+00 0.  1.
<mgrwt>
<rscale>  3 0.38745246E+03</rscale>
<asrwt>0</asrwt>
<pdfrwt beam="1">  1       21 0.26669882E-01 0.38745246E+03</pdfrwt>
<pdfrwt beam="2">  1        2 0.36377142E+00 0.38745246E+03</pdfrwt>
<totfact> 0.74783002E+02</totfact>
</mgrwt>
</event>
<event>
 4    0  0.1616455E-001  0.2907162E+03  0.7546771E-02  0.1089976E+00
          2   -1    0    0  502    0 -0.00000000000E+00  0.00000000000E+00  0.10602066940E+04  0.10602066940E+04  0.00000000000E+00 0.  1.
         21   -1    0    0  501  502  0.00000000000E+00 -0.00000000000E+00 -0.19402985787E+03  0.19402985787E+03  0.00000000000E+00 0.  1.
         25    1    1    2    0    0 -0.11963877929E+03  0.23361825267E+03 -0.55455668005E+02  0.29595820077E+03  0.12500000000E+03 0.  0.
          2    1    1    2  501    0  0.11963877929E+03 -0.23361825267E+03  0.92163250417E+03  0.95827835112E+03  0.00000000000E+00 0.  1.
<mgrwt>
<rscale>  3 0.29071623E+03</rscale>
<asrwt>0</asrwt>
<pdfrwt beam="1">  1       21 0.29850748E-01 0.29071623E+03</pdfrwt>
<pdfrwt beam="2">  1        2 0.16310872E+00 0.29071623E+03</pdfrwt>
<totfact> 0.31857420E+03</totfact>
</mgrwt>
</event>
<event>
 4    0  0.1597017E-001  0.2770968E+03  0.7546771E-02  0.1097285E+00
          1   -1    0    0  502    0 -0.00000000000E+00  0.00000000000E+00  0.11150679944E+04  0.11150679944E+04  0.00000000000E+00 0. -1.
         21   -1    0    0  501  502  0.00000000000E+00 -0.00000000000E+00 -0.14425760626E+03  0.14425760626E+03  0.00000000000E+00 0. -1.
         25    1    1    2    0    0 -0.82184451909E+02  0.23324524816E+03  0.21048148888E+02  0.27789504223E+03  0.12500000000E+03 0.  0.
          1    1    1    2  501    0  0.82184451909E+02 -0.23324524816E+03  0.94976223920E+03  0.98143055839E+03  0.00000000000E+00 0. -1.
<mgrwt>
<rscale>  3 0.27709679E+03</rscale>
<asrwt>0</asrwt>
<pdfrwt beam="1">  1       21 0.22193479E-01 0.27709679E+03</pdfrwt>
<pdfrwt beam="2">  1        1 0.17154892E+00 0.27709679E+03</pdfrwt>
<totfact> 0.27233362E+03</totfact>
</mgrwt>
</event>
<event>
 4    0  0.1002184E-001  0.2988990E+03  0.7546771E-02  0.1085792E+00
         21   -1    0    0  501  502  0.00000000000E+00  0.00000000000E+00  0.12937965430E+03  0.12937965430E+03  0.00000000000E+00 0. -1.
         -3   -1    0    0    0  501 -0.00000000000E+00 -0.00000000000E+00 -0.71796138282E+03  0.71796138282E+03  0.00000000000E+00 0.  1.
         25    1    1    2    0    0 -0.85049096377E+02  0.25784152356E+03 -0.15742851552E+03  0.33782293819E+03  0.12500000000E+03 0.  0.
         -3    1    1    2    0  502  0.85049096377E+02 -0.25784152356E+03 -0.43115321300E+03  0.50951809894E+03  0.00000000000E+00 0.  1.
<mgrwt>
<rscale>  3 0.29889898E+03</rscale>
<asrwt>0</asrwt>
<pdfrwt beam="1">  1       21 0.19904562E-01 0.29889898E+03</pdfrwt>
<pdfrwt beam="2">  1       -3 0.11045560E+00 0.29889898E+03</pdfrwt>
<totfact> 0.81876459E+02</totfact>
</mgrwt>
</event>
<event>
 4    0  0.1079320E-001  0.2552942E+03  0.7546771E-02  0.1110004E+00
          2   -1    0    0  502    0 -0.00000000000E+00  0.00000000000E+00  0.19379003121E+04  0.19379003121E+04  0.00000000000E+00 0. -1.
         21   -1    0    0  501  502  0.00000000000E+00 -0.00000000000E+00 -0.39632628430E+02  0.39632628430E+02  0.00000000000E+00 0.  1.
         25    1    1    2    0    0 -0.21963819185E+03  0.36182609320E+02  0.49740229761E+03  0.55909226627E+03  0.12500000000E+03 0.  0.
          2    1    1    2  501    0  0.21963819185E+03 -0.36182609320E+02  0.14008653860E+04  0.14184406742E+04  0.00000000000E+00 0. -1.
<mgrwt>
<rscale>  3 0.25529418E+03</rscale>
<asrwt>0</asrwt>
<pdfrwt beam="1">  1       21 0.60973290E-02 0.25529418E+03</pdfrwt>
<pdfrwt beam="2">  1        2 0.29813844E+00 0.25529418E+03</pdfrwt>
<totfact> 0.19523966E+04</totfact>
</mgrwt>
</event>
<event>
 4    0  0.1308939E-001  0.2676861E+03  0.7546771E-02  0.1102611E+00
         21   -1    0    0  501  502  0.00000000000E+00  0.00000000000E+00  0.22130202953E+03  0.22130202953E+03  0.00000000000E+00 0.  1.
          3   -1    0    0  502    0 -0.00000000000E+00 -0.00000000000E+00 -0.54313100690E+03  0.54313100690E+03  0.00000000000E+00 0.  1.
         25    1    1    2    0    0  0.22688404289E+03 -0.67486824994E+02  0.95861368927E+02  0.28433297825E+03  0.12500000000E+03 0.  0.
          3    1    1    2  501    0 -0.22688404289E+03  0.67486824994E+02 -0.41769034630E+03  0.48010005817E+03  0.00000000000E+00 0.  1.
<mgrwt>
<rscale>  3 0.26768609E+03</rscale>
<asrwt>0</asrwt>
<pdfrwt beam="1">  1       21 0.34046466E-01 0.26768609E+03</pdfrwt>
<pdfrwt beam="2">  1        3 0.83558616E-01 0.26768609E+03</pdfrwt>
<totfact> 0.55095959E+02</totfact>
</mgrwt>
</event>
<event>
 4    0  0.1452351E-001  0.2951289E+03  0.7546771E-02  0.1087701E+00
         21   -1    0    0  501  502  0.00000000000E+00  0.00000000000E+00  0.15064109051E+03  0.15064109051E+03  0.00000000000E+00 0.  1.
          2   -1    0    0  502    0 -0.00000000000E+00 -0.00000000000E+00 -0.65016946925E+03  0.65016946925E+03  0.00000000000E+00 0.  1.
         25    1    1    2    0    0  0.25149053429E+03 -0.90711565367E+02 -0.84255580565E+02  0.30692031504E+03  0.12500000000E+03 0.  0.
          2    1    1    2  501    0 -0.25149053429E+03  0.90711565367E+02 -0.41527279817E+03  0.49389024472E+03  0.00000000000E+00 0.  1.
<mgrwt>
<rscale>  3 0.29512892E+03</rscale>
<asrwt>0</asrwt>
<pdfrwt beam="1">  1       21 0.23175553E-01 0.29512892E+03</pdfrwt>
<pdfrwt beam="2">  1        2 0.10002607E+00 0.29512892E+03</pdfrwt>
<totfact> 0.98727372E+03</totfact>
</mgrwt>
</event>
<event>
 4    0  0.1478324E-001  0.3216395E+03  0.7546771E-02  0.1074897E+00
          2   -1    0    0  502    0 -0.00000000000E+00  0.00000000000E+00  0.10678200704E+04  0.10678200704E+04  0.00000000000E+00 0.  1.
         21   -1    0    0  501  502  0.00000000000E+00 -0.00000000000E+00 -0.89739902197E+02  0.89739902197E+02  0.00000000000E+00 0.  1.
         25    1    1    2    0    0  0.72000917438E+02 -0.28747666855E+03  0.47420513669E+03  0.57299430951E+03  0.12500000000E+03 0.  0.
          2    1    1    2  501    0 -0.72000917438E+02  0.28747666855E+03  0.50387503154E+03  0.58456566311E+03  0.00000000000E+00 0.  1.
<mgrwt>
<rscale>  3 0.32163950E+03</rscale>
<asrwt>0</asrwt>
<pdfrwt beam="1">  1       21 0.13806140E-01 0.32163950E+03</pdfrwt>
<pdfrwt beam="2">  1        2 0.16428000E+00 0.32163950E+03</pdfrwt>
<totfact> 0.13465583E+04</totfact>
</mgrwt>
</event>
<event>
 4    0  0.1085791E-001  0.2443843E+03  0.7546771E-02  0.1116906E+00
         21   -1    0    0  501  502  0.00000000000E+00  0.00000000000E+00  0.89189265334E+03  0.89189265334E+03  0.00000000000E+00 0. -1.
          2   -1    0    0  502    0 -0.00000000000E+00 -0.00000000000E+00 -0.30170869830E+03  0.30170869830E+03  0.00000000000E+00 0.  1.
         25    1    1    2    0    0 -0.98536898268E+02  0.18544316212E+03  0.83559970341E+03  0.87060355560E+03  0.12500000000E+03 0.  0.
          2    1    1    2  501    0  0.98536898268E+02 -0.18544316212E+03 -0.24541574837E+03  0.32299779604E+03  0.00000000000E+00 0.  1.
<mgrwt>
<rscale>  3 0.24438430E+03</rscale>
<asrwt>0</asrwt>
<pdfrwt beam="1">  1       21 0.13721425E+00 0.24438430E+03</pdfrwt>
<pdfrwt beam="2">  1        2 0.46416723E-01 0.24438430E+03</pdfrwt>
<totfact> 0.49267350E+02</totfact>
</mgrwt>
</event>
<event>
 4    0  0.1115650E-001  0.3213360E+03  0.7546771E-02  0.1075036E+00
         21   -1    0    0  501  502  0.00000000000E+00  0.00000000000E+00  0.62013247226E+03  0.62013247226E+03  0.00000000000E+00 0.  1.
          1   -1    0    0  502    0 -0.00000000000E+00 -0.00000000000E+00 -0.15384459647E+03  0.15384459647E+03  0.00000000000E+00 0.  1.
         25    1    1    2    0    0 -0.28256980872E+03  0.88239123727E+02  0.25639338613E+03  0.41108929469E+03  0.12500000000E+03 0.  0.
          1    1    1    2  501    0  0.28256980872E+03 -0.88239123727E+02  0.20989448966E+03  0.36288777404E+03  0.00000000000E+00 0.  1.
<mgrwt>
<rscale>  3 0.32133602E+03</rscale>
<asrwt>0</asrwt>
<pdfrwt beam="1">  1       21 0.95404994E-01 0.32133602E+03</pdfrwt>
<pdfrwt beam="2">  1        1 0.23668400E-01 0.32133602E+03</pdfrwt>
<totfact> 0.19481011E+03</totfact>
</mgrwt>
</event>
<event>
 4    0  0.1015859E-001  0.2955646E+03  0.7546771E-02  0.1087479E+00
         21   -1    0    0  501  502  0.00000000000E+00  0.00000000000E+00  0.51629682899E+02  0.51629682899E+02  0.00000000000E+00 0.  1.
          2   -1    0    0  502    0 -0.00000000000E+00 -0.00000000000E+00 -0.36143492008E+04  0.36143492008E+04  0.00000000000E+00 0. -1.
         25    1    1    2    0    0  0.26752612924E+03  0.12774811561E+02 -0.42972581406E+03  0.52155795547E+03  0.12500000000E+03 0.  0.
          2    1    1    2  501    0 -0.26752612924E+03 -0.12774811561E+02 -0.31329937038E+04  0.31444209282E+04  0.00000000000E+00 0. -1.
<mgrwt>
<rscale>  3 0.29556459E+03</rscale>
<asrwt>0</asrwt>
<pdfrwt beam="1">  1       21 0.79430304E-02 0.29556459E+03</pdfrwt>
<pdfrwt beam="2">  1        2 0.55605356E+00 0.29556459E+03</pdfrwt>
<totfact> 0.12851381E+03</totfact>
</mgrwt>
</event>
<event>
 4    0  0.1462337E-001  0.3542270E+03  0.7546771E-02  0.1060893E+00
         21   -1    0    0  501  502  0.00000000000E+00  0.00000000000E+00  0.10440099791E+03  0.10440099791E+03  0.00000000000E+00 0. -1.
          4   -1    0    0  502    0 -0.00000000000E+00 -0.00000000000E+00 -0.11609622983E+04  0.11609622983E+04  0.00000000000E+00 0. -1.
         25    1    1    2    0    0 -0.31648477928E+03  0.98433341445E+02 -0.43525481180E+03  0.56118044283E+03  0.12500000000E+03 0.  0.
          4    1    1    2  501    0  0.31648477928E+03 -0.98433341445E+02 -0.62130648857E+03  0.70418285336E+03  0.00000000000E+00 0. -1.
<mgrwt>
<rscale>  3 0.35422696E+03</rscale>
<asrwt>0</asrwt>
<pdfrwt beam="1">  1       21 0.16061691E-01 0.35422696E+03</pdfrwt>
<pdfrwt beam="2">  1        4 0.17860959E+00 0.35422696E+03</pdfrwt>
<totfact> 0.28500735E+02</totfact>
</mgrwt>
</event>
<event>
 4    0  0.1154196E-001  0.3409994E+03  0.7546771E-02  0.1066371E+00
          2   -1    0    0  502    0 -0.00000000000E+00  0.00000000000E+00  0.29451088695E+04  0.29451088695E+04  0.00000000000E+00 0.  1.
         21   -1    0    0  501  502  0.00000000000E+00 -0.00000000000E+00 -0.11629953737E+03  0.11629953737E+03  0.00000000000E+00 0.  1.
         25    1    1    2    0    0  0.20957420784E+03  0.23818952312E+03  0.16508772462E+03  0.37885954434E+03  0.12500000000E+03 0.  0.
          2    1    1    2  501    0 -0.20957420784E+03 -0.23818952312E+03  0.26637216076E+04  0.26825488626E+04  0.00000000000E+00 0.  1.
<mgrwt>
<rscale>  3 0.34099941E+03</rscale>
<asrwt>0</asrwt>
<pdfrwt beam="1">  1       21 0.17892239E-01 0.34099941E+03</pdfrwt>
<pdfrwt beam="2">  1        2 0.45309362E+00 0.34099941E+03</pdfrwt>
<totfact> 0.76670136E+02</totfact>
</mgrwt>
</event>
<event>
 4    0  0.1144005E-001  0.3350248E+03  0.7546771E-02  0.1068935E+00
         21   -1    0    0  501  502  0.00000000000E+00  0.00000000000E+00  0.33686880132E+02  0.33686880132E+02  0.00000000000E+00 0. -1.
          2   -1    0    0  502    0 -0.00000000000E+00 -0.00000000000E+00 -0.33137759500E+04  0.33137759500E+04  0.00000000000E+00 0. -1.
         25    1    1    2    0    0  0.17916533633E+03  0.25400079284E+03 -0.21265678101E+04  0.21527963841E+04  0.12500000000E+03 0.  0.
          2    1    1    2  501    0 -0.17916533633E+03 -0.25400079284E+03 -0.11535212598E+04  0.11946664460E+04  0.00000000000E+00 0. -1.
<mgrwt>
<rscale>  3 0.33502481E+03</rscale>
<asrwt>0</asrwt>
<pdfrwt beam="1">  1       21 0.51825949E-02 0.33502481E+03</pdfrwt>
<pdfrwt beam="2">  1        2 0.50981188E+00 0.33502481E+03</pdfrwt>
<totfact> 0.41847393E+03</totfact>
</mgrwt>
</event>
<event>
 4    0  0.1581205E-001  0.2816605E+03  0.7546771E-02  0.1094785E+00
         21   -1    0    0  501  502  0.00000000000E+00  0.00000000000E+00  0.80277823896E+02  0.80277823896E+02  0.00000000000E+00 0.  1.
          2   -1    0    0  502    0 -0.00000000000E+00 -0.00000000000E+00 -0.11166129100E+04  0.11166129100E+04  0.00000000000E+00 0.  1.
         25    1    1    2    0    0 -0.24970224075E+03 -0.36829521401E+02 -0.81106573553E+03  0.85858036900E+03  0.12500000000E+03 0.  0.
          2    1    1    2  501    0  0.24970224075E+03  0.36829521401E+02 -0.22526935054E+03  0.33831036486E+03  0.00000000000E+00 0.  1.
<mgrwt>
<rscale>  3 0.28166047E+03</rscale>
<asrwt>0</asrwt>
<pdfrwt beam="1">  1       21 0.12350434E-01 0.28166047E+03</pdfrwt>
<pdfrwt beam="2">  1        2 0.17178661E+00 0.28166047E+03</pdfrwt>
<totfact> 0.15546259E+04</totfact>
</mgrwt>
</event>
<event>
 4    0  0.1099608E-001  0.5406284E+03  0.7546771E-02  0.1003687E+00
          2   -1    0    0  502    0 -0.00000000000E+00  0.00000000000E+00  0.11455007205E+04  0.11455007205E+04  0.00000000000E+00 0. -1.
         21   -1    0    0  501  502  0.00000000000E+00 -0.00000000000E+00 -0.25084395893E+03  0.25084395893E+03  0.00000000000E+00 0. -1.
         25    1    1    2    0    0  0.84640821344E+02  0.51912421610E+03  0.38292611037E+03  0.66250390669E+03  0.12500000000E+03 0.  0.
          2    1    1    2  501    0 -0.84640821344E+02 -0.51912421610E+03  0.51173065123E+03  0.73384077277E+03  0.00000000000E+00 0. -1.
<mgrwt>
<rscale>  3 0.54062836E+03</rscale>
<asrwt>0</asrwt>
<pdfrwt beam="1">  1       21 0.38591379E-01 0.54062836E+03</pdfrwt>
<pdfrwt beam="2">  1        2 0.17623088E+00 0.54062836E+03</pdfrwt>
<totfact> 0.15905874E+03</totfact>
</mgrwt>
</event>
<event>
 4    0  0.1832434E-001  0.2945647E+03  0.7546771E-02  0.1087990E+00
         21   -1    0    0  501  502  0.00000000000E+00  0.00000000000E+00  0.45755074722E+03  0.45755074722E+03  0.00000000000E+00 0. -1.
         -1   -1    0    0    0  501 -0.00000000000E+00 -0.00000000000E+00 -0.52774643622E+03  0.52774643622E+03  0.00000000000E+00 0. -1.
         25    1    1    2    0    0  0.32074998118E+02 -0.26479156862E+03  0.36857128683E+03  0.47181900533E+03  0.12500000000E+03 0.  0.
         -1    1    1    2    0  502 -0.32074998118E+02  0.26479156862E+03 -0.43876697583E+03  0.51347817811E+03  0.00000000000E+00 0. -1.
<mgrwt>
<rscale>  3 0.29456473E+03</rscale>
<asrwt>0</asrwt>
<pdfrwt beam="1">  1       21 0.70392423E-01 0.29456473E+03</pdfrwt>
<pdfrwt beam="2">  1       -1 0.81191760E-01 0.29456473E+03</pdfrwt>
<totfact> 0.25768320E+02</totfact>
</mgrwt>
</event>
<event>
 4    0  0.1332736E-001  0.4335925E+03  0.7546771E-02  0.1032731E+00
         21   -1    0    0  501  502  0.00000000000E+00  0.00000000000E+00  0.14130677658E+03  0.14130677658E+03  0.00000000000E+00 0.  1.
          1   -1    0    0  502    0 -0.00000000000E+00 -0.00000000000E+00 -0.13704381946E+04  0.13704381946E+04  0.00000000000E+00 0.  1.
         25    1    1    2    0    0  0.96934053873E+02 -0.40370938792E+03 -0.42708533547E+03  0.60860854781E+03  0.12500000000E+03 0.  0.
          1    1    1    2  501    0 -0.96934053873E+02  0.40370938792E+03 -0.80204608254E+03  0.90313642337E+03  0.00000000000E+00 0.  1.
<mgrwt>
<rscale>  3 0.43359253E+03</rscale>
<asrwt>0</asrwt>
<pdfrwt beam="1">  1       21 0.21739504E-01 0.43359253E+03</pdfrwt>
<pdfrwt beam="2">  1        1 0.21083665E+00 0.43359253E+03</pdfrwt>
<totfact> 0.17956084E+03</totfact>
</mgrwt>
</event>
<event>
 4    0  0.1002184E-001  0.2651374E+03  0.7546771E-02  0.1104095E+00
         21   -1    0    0  501  502  0.00000000000E+00  0.00000000000E+00  0.54352307319E+03  0.54352307319E+03  0.00000000000E+00 0. -1.
         -3   -1    0    0    0  501 -0.00000000000E+00 -0.00000000000E+00 -0.13267650993E+03  0.13267650993E+03  0.00000000000E+00 0.  1.
         25    1    1    2    0    0  0.22020385340E+03  0.78632625047E+02  0.34143704889E+03  0.43229282336E+03  0.12500000000E+03 0.  0.
         -3    1    1    2    0  502 -0.22020385340E+03 -0.78632625047E+02  0.69409514364E+02  0.24390675976E+03  0.00000000000E+00 0.  1.
<mgrwt>
<rscale>  3 0.26513737E+03</rscale>
<asrwt>0</asrwt>
<pdfrwt beam="1">  1       21 0.83618933E-01 0.26513737E+03</pdfrwt>
<pdfrwt beam="2">  1       -3 0.20411771E-01 0.26513737E+03</pdfrwt>
<totfact> 0.13154501E+03</totfact>
</mgrwt>
</event>
<event>
 4    0  0.1002184E-001  0.3869177E+03  0.7546771E-02  0.1048406E+00
         21   -1    0    0  501  502  0.00000000000E+00  0.00000000000E+00  0.39069803380E+02  0.39069803380E+02  0.00000000000E+00 0. -1.
          2   -1    0    0  502    0 -0.00000000000E+00 -0.00000000000E+00 -0.38648793548E+04  0.38648793548E+04  0.00000000000E+00 0. -1.
         25    1    1    2    0    0 -0.17797427515E+03 -0.32000855653E+03 -0.14803584662E+04  0.15300870914E+04  0.12500000000E+03 0.  0.
          2    1    1    2  501    0  0.17797427515E+03  0.32000855653E+03 -0.23454510853E+04  0.23738620668E+04  0.00000000000E+00 0. -1.
<mgrwt>
<rscale>  3 0.38691772E+03</rscale>
<asrwt>0</asrwt>
<pdfrwt beam="1">  1       21 0.60107367E-02 0.38691772E+03</pdfrwt>
<pdfrwt beam="2">  1        2 0.59459705E+00 0.38691772E+03</pdfrwt>
<totfact> 0.13295327E+03</totfact>
</mgrwt>
</event>
<event>
 4    0  0.1354399E-001  0.2640480E+03  0.7546771E-02  0.1104735E+00
         21   -1    0    0  501  502  0.00000000000E+00  0.00000000000E+00  0.27711352122E+03  0.27711352122E+03  0.00000000000E+00 0. -1.
          2   -1    0    0  502    0 -0.00000000000E+00 -0.00000000000E+00 -0.22798167516E+03  0.22798167516E+03  0.00000000000E+00 0. -1.
         25    1    1    2    0    0  0.11605768776E+03 -0.20156134309E+03  0.65121839637E+02  0.27195995278E+03  0.12500000000E+03 0.  0.
          2    1    1    2  501    0 -0.11605768776E+03  0.20156134309E+03 -0.15989993581E+02  0.23313524361E+03  0.00000000000E+00 0. -1.
<mgrwt>
<rscale>  3 0.26404803E+03</rscale>
<asrwt>0</asrwt>
<pdfrwt beam="1">  1       21 0.42632850E-01 0.26404803E+03</pdfrwt>
<pdfrwt beam="2">  1        2 0.35074104E-01 0.26404803E+03</pdfrwt>
<totfact> 0.95048861E+03</totfact>
</mgrwt>
</event>
