<event>
 5    0  0.5440185E+000  0.3629591E+03  0.7546771E-02  0.1057418E+00
         21   -1    0    0  503  501  0.00000000000E+00  0.00000000000E+00  0.50204815088E+03  0.50204815088E+03  0.00000000000E+00 0. -1.
         21   -1    0    0  504  502 -0.00000000000E+00 -0.00000000000E+00 -0.14916596511E+04  0.14916596511E+04  0.00000000000E+00 0. -1.
         25    1    1    2    0    0  0.29677929558E+03 -0.17266349559E+03 -0.13826610568E+04  0.14301283967E+04  0.12500000000E+03 0.  0.
         21    1    1    2  503  502 -0.26676396918E+03  0.15690335842E+03  0.20206781216E+03  0.36961206670E+03  0.00000000000E+00 0. -1.
         21    1    1    2  504  501 -0.30015326396E+02  0.15760137172E+02  0.19098174442E+03  0.19396733860E+03  0.00000000000E+00 0. -1.
<mgrwt>
<rscale>  4 0.36295906E+03</rscale>
<asrwt>0</asrwt>
<pdfrwt beam="1">  1       21 0.77238178E-01 0.36295906E+03</pdfrwt>
<pdfrwt beam="2">  1       21 0.22948610E+00 0.36295906E+03</pdfrwt>
<totfact> 0.10984522E+02</totfact>
</mgrwt>
</event>
<event>
 5    0  0.5440185E+000  0.2840880E+03  0.7546771E-02  0.1093477E+00
         21   -1    0    0  503  501  0.00000000000E+00  0.00000000000E+00  0.11589067080E+03  0.11589067080E+03  0.00000000000E+00 0.  1.
         21   -1    0    0  504  502 -0.00000000000E+00 -0.00000000000E+00 -0.11725618390E+04  0.11725618390E+04  0.00000000000E+00 0.  1.
         25    1    1    2    0    0 -0.22996861837E+03 -0.11636673770E+03 -0.94951645178E+03  0.99178287708E+03  0.12500000000E+03 0.  0.
         21    1    1    2  503  502  0.22688520743E+03  0.95044008676E+02 -0.11768388723E+03  0.27268985726E+03  0.00000000000E+00 0.  1.
         21    1    1    2  504  501  0.30834109335E+01  0.21322729019E+02  0.10529170763E+02  0.23979775494E+02  0.00000000000E+00 0.  1.
<mgrwt>
<rscale>  4 0.28408802E+03</rscale>
<asrwt>0</asrwt>
<pdfrwt beam="1">  1       21 0.17829335E-01 0.28408802E+03</pdfrwt>
<pdfrwt beam="2">  1       21 0.18039412E+00 0.28408802E+03</pdfrwt>
<totfact> 0.48263500E+03</totfact>
</mgrwt>
</event>
<event>
 5    0  0.5440185E+000  0.2293435E+03  0.7546771E-02  0.1127103E+00
         21   -1    0    0  503  501  0.00000000000E+00  0.00000000000E+00  0.53228996682E+03  0.53228996682E+03  0.00000000000E+00 0. -1.
         21   -1    0    0  504  502 -0.00000000000E+00 -0.00000000000E+00 -0.11699283634E+03  0.11699283634E+03  0.00000000000E+00 0. -1.
         25    1    1    2    0    0  0.12374133771E+02 -0.21966580399E+03  0.20649099585E+03  0.32660330065E+03  0.12500000000E+03 0.  0.
         21    1    1    2  503  502  0.37151402146E+02  0.17323792228E+03  0.16330184322E+03  0.24095455256E+03  0.00000000000E+00 0. -1.
         21    1    1    2  504  501 -0.49525535918E+02  0.46427881712E+02  0.45504291407E+02  0.81724949952E+02  0.00000000000E+00 0. -1.
<mgrwt>
<rscale>  4 0.22934347E+03</rscale>
<asrwt>0</asrwt>
<pdfrwt beam="1">  1       21 0.81890762E-01 0.22934347E+03</pdfrwt>
<pdfrwt beam="2">  1       21 0.17998898E-01 0.22934347E+03</pdfrwt>
<totfact> 0.35943904E+04</totfact>
</mgrwt>
</event>
<event>
 5    0  0.5440185E+000  0.2477492E+03  0.7546771E-02  0.1114736E+00
         21   -1    0    0  503  501  0.00000000000E+00  0.00000000000E+00  0.45296043158E+03  0.45296043158E+03  0.00000000000E+00 0. -1.
         21   -1    0    0  504  502 -0.00000000000E+00 -0.00000000000E+00 -0.58937083926E+03  0.58937083926E+03  0.00000000000E+00 0. -1.
         25    1    1    2    0    0 -0.11200759271E+03 -0.18292264998E+03 -0.52100483765E+03  0.57712861440E+03  0.12500000000E+03 0.  0.
         21    1    1    2  503  502  0.67765252324E+02  0.20087423871E+03  0.28980641704E+03  0.35906872400E+03  0.00000000000E+00 0. -1.
         21    1    1    2  504  501  0.44242340381E+02 -0.17951588730E+02  0.94788012934E+02  0.10613393245E+03  0.00000000000E+00 0. -1.
<mgrwt>
<rscale>  4 0.24774922E+03</rscale>
<asrwt>0</asrwt>
<pdfrwt beam="1">  1       21 0.69686220E-01 0.24774922E+03</pdfrwt>
<pdfrwt beam="2">  1       21 0.90672437E-01 0.24774922E+03</pdfrwt>
<totfact> 0.18464047E+03</totfact>
</mgrwt>
</event>
<event>
 5    0  0.5440185E+000  0.3277029E+03  0.7546771E-02  0.1072158E+00
         21   -1    0    0  502  501  0.00000000000E+00  0.00000000000E+00  0.18399509630E+03  0.18399509630E+03  0.00000000000E+00 0.  1.
         21   -1    0    0  503  502 -0.00000000000E+00 -0.00000000000E+00 -0.58565709731E+03  0.58565709731E+03  0.00000000000E+00 0.  1.
         25    1    1    2    0    0 -0.11100140452E+03  0.28185612696E+03 -0.28440782246E+03  0.43390897385E+03  0.12500000000E+03 0.  0.
         21    1    1    2  503  504  0.43353663010E+02 -0.74406109210E+02  0.38247155019E+01  0.86199986270E+02  0.00000000000E+00 0.  1.
         21    1    1    2  504  501  0.67647741508E+02 -0.20745001775E+03 -0.12107889405E+03  0.24954323349E+03  0.00000000000E+00 0.  1.
<mgrwt>
<rscale>  4 0.32770290E+03</rscale>
<asrwt>0</asrwt>
<pdfrwt beam="1">  1       21 0.28306938E-01 0.32770290E+03</pdfrwt>
<pdfrwt beam="2">  1       21 0.90101090E-01 0.32770290E+03</pdfrwt>
<totfact> 0.11638557E+04</totfact>
</mgrwt>
</event>
<event>
 5    0  0.5440185E+000  0.2641926E+03  0.7546771E-02  0.1104650E+00
         21   -1    0    0  502  501  0.00000000000E+00  0.00000000000E+00  0.12181334192E+04  0.12181334192E+04  0.00000000000E+00 0.  1.
         21   -1    0    0  503  502 -0.00000000000E+00 -0.00000000000E+00 -0.22328506274E+03  0.22328506274E+03  0.00000000000E+00 0.  1.
         25    1    1    2    0    0  0.21059087065E+03  0.54299175633E+02 -0.12896770888E+03  0.28205422388E+03  0.12500000000E+03 0.  0.
         21    1    1    2  503  504  0.12195663086E+02  0.16187562626E+02  0.12643520741E+02  0.23887862998E+02  0.00000000000E+00 0.  1.
         21    1    1    2  504  501 -0.22278653373E+03 -0.70486738259E+02  0.11111725445E+04  0.11354763950E+04  0.00000000000E+00 0.  1.
<mgrwt>
<rscale>  4 0.26419258E+03</rscale>
<asrwt>0</asrwt>
<pdfrwt beam="1">  1       21 0.18740514E+00 0.26419258E+03</pdfrwt>
<pdfrwt beam="2">  1       21 0.34351549E-01 0.26419258E+03</pdfrwt>
<totfact> 0.12399550E+03</totfact>
</mgrwt>
</event>
<event>
 5    0  0.5440185E+000  0.3331194E+03  0.7546771E-02  0.1069765E+00
         21   -1    0    0  503  501  0.00000000000E+00  0.00000000000E+00  0.50332629012E+03  0.50332629012E+03  0.00000000000E+00 0. -1.
         21   -1    0    0  504  502 -0.00000000000E+00 -0.00000000000E+00 -0.24022643879E+03  0.24022643879E+03  0.00000000000E+00 0. -1.
         25    1    1    2    0    0  0.11243136255E+03 -0.27631135144E+03  0.77619354817E+02  0.33262371903E+03  0.12500000000E+03 0.  0.
         21    1    1    2  503  502 -0.13026570733E+03  0.29310245764E+03  0.12248311398E+03  0.34333703324E+03  0.00000000000E+00 0. -1.
         21    1    1    2  504  501  0.17834344785E+02 -0.16791106197E+02  0.62997382528E+02  0.67591976644E+02  0.00000000000E+00 0. -1.
<mgrwt>
<rscale>  4 0.33311938E+03</rscale>
<asrwt>0</asrwt>
<pdfrwt beam="1">  1       21 0.77434814E-01 0.33311938E+03</pdfrwt>
<pdfrwt beam="2">  1       21 0.36957914E-01 0.33311938E+03</pdfrwt>
<totfact> 0.96936623E+03</totfact>
</mgrwt>
</event>
<event>
 5    0  0.5440185E+000  0.3443234E+03  0.7546771E-02  0.1064969E+00
         21   -1    0    0  503  501  0.00000000000E+00  0.00000000000E+00  0.95210242973E+03  0.95210242973E+03  0.00000000000E+00 0.  1.
         21   -1    0    0  501  502 -0.00000000000E+00 -0.00000000000E+00 -0.18549060956E+03  0.18549060956E+03  0.00000000000E+00 0.  1.
         25    1    1    2    0    0  0.32035510474E+03  0.17497977158E+02  0.45385821350E+02  0.34730166299E+03  0.12500000000E+03 0.  0.
         21    1    1    2  503  504 -0.26406447547E+02 -0.23232799987E+01  0.89813574436E+02  0.93643879965E+02  0.00000000000E+00 0.  1.
         21    1    1    2  504  502 -0.29394865719E+03 -0.15174697159E+02  0.63141242438E+03  0.69664749634E+03  0.00000000000E+00 0.  1.
<mgrwt>
<rscale>  4 0.34432335E+03</rscale>
<asrwt>0</asrwt>
<pdfrwt beam="1">  1       21 0.14647729E+00 0.34432335E+03</pdfrwt>
<pdfrwt beam="2">  1       21 0.28537017E-01 0.34432335E+03</pdfrwt>
<totfact> 0.33794600E+03</totfact>
</mgrwt>
</event>
<event>
 5    0  0.5440185E+000  0.1852162E+03  0.7546771E-02  0.1162848E+00
         21   -1    0    0  503  501  0.00000000000E+00  0.00000000000E+00  0.25335424555E+03  0.25335424555E+03  0.00000000000E+00 0.  1.
         21   -1    0    0  504  502 -0.00000000000E+00 -0.00000000000E+00 -0.10863738431E+04  0.10863738431E+04  0.00000000000E+00 0. -1.
         25    1    1    2    0    0  0.11406589959E+03  0.20217179452E+03 -0.80727738433E+03  0.84923862323E+03  0.12500000000E+03 0.  0.
         21    1    1    2  503  502 -0.99838066960E+02 -0.68199013221E+02 -0.22179357983E+03  0.25260866389E+03  0.00000000000E+00 0. -1.
         21    1    1    2  504  501 -0.14227832625E+02 -0.13397278130E+03  0.19605136665E+03  0.23788080149E+03  0.00000000000E+00 0.  1.
<mgrwt>
<rscale>  4 0.18521622E+03</rscale>
<asrwt>0</asrwt>
<pdfrwt beam="1">  1       21 0.38977577E-01 0.18521622E+03</pdfrwt>
<pdfrwt beam="2">  1       21 0.16713444E+00 0.18521622E+03</pdfrwt>
<totfact> 0.14299170E+03</totfact>
</mgrwt>
</event>
<event>
 5    0  0.5440185E+000  0.3921252E+03  0.7546771E-02  0.1046541E+00
         21   -1    0    0  503  501  0.00000000000E+00  0.00000000000E+00  0.52147911132E+03  0.52147911132E+03  0.00000000000E+00 0. -1.
         21   -1    0    0  501  502 -0.00000000000E+00 -0.00000000000E+00 -0.46490482681E+03  0.46490482681E+03  0.00000000000E+00 0. -1.
         25    1    1    2    0    0  0.10643456406E+03  0.34590663167E+03 -0.19497713013E+03  0.42967522099E+03  0.12500000000E+03 0.  0.
         21    1    1    2  503  504  0.81876765816E+02  0.81481391036E+01  0.96355657085E+02  0.12670678594E+03  0.00000000000E+00 0. -1.
         21    1    1    2  504  502 -0.18831132988E+03 -0.35405477077E+03  0.15519575756E+03  0.43000193120E+03  0.00000000000E+00 0. -1.
<mgrwt>
<rscale>  4 0.39212524E+03</rscale>
<asrwt>0</asrwt>
<pdfrwt beam="1">  1       21 0.80227556E-01 0.39212524E+03</pdfrwt>
<pdfrwt beam="2">  1       21 0.71523819E-01 0.39212524E+03</pdfrwt>
<totfact> 0.21355213E+03</totfact>
</mgrwt>
</event>
<event>
 5    0  0.5440185E+000  0.3298922E+03  0.7546771E-02  0.1071185E+00
         21   -1    0    0  503  501  0.00000000000E+00  0.00000000000E+00  0.10486466997E+04  0.10486466997E+04  0.00000000000E+00 0.  1.
         21   -1    0    0  504  502 -0.00000000000E+00 -0.00000000000E+00 -0.77144158774E+03  0.77144158774E+03  0.00000000000E+00 0.  1.
         25    1    1    2    0    0 -0.16926442550E+03  0.22575178294E+03 -0.59777889326E+03  0.67273985943E+03  0.12500000000E+03 0.  0.
         21    1    1    2  503  502  0.10805955659E+02  0.36245673909E+02 -0.10976345854E+03  0.11609709034E+03  0.00000000000E+00 0. -1.
         21    1    1    2  504  501  0.15845846984E+03 -0.26199745685E+03  0.98474746371E+03  0.10312513376E+04  0.00000000000E+00 0.  1.
<mgrwt>
<rscale>  4 0.32989216E+03</rscale>
<asrwt>0</asrwt>
<pdfrwt beam="1">  1       21 0.16133026E+00 0.32989216E+03</pdfrwt>
<pdfrwt beam="2">  1       21 0.11868332E+00 0.32989216E+03</pdfrwt>
<totfact> 0.11599068E+02</totfact>
</mgrwt>
</event>
<event>
 5    0  0.5440185E+000  0.2033782E+03  0.7546771E-02  0.1146920E+00
         21   -1    0    0  503  501  0.00000000000E+00  0.00000000000E+00  0.11822561925E+04  0.11822561925E+04  0.00000000000E+00 0.  1.
         21   -1    0    0  504  502 -0.00000000000E+00 -0.00000000000E+00 -0.88526264332E+02  0.88526264332E+02  0.00000000000E+00 0.  1.
         25    1    1    2    0    0  0.23339183161E+03  0.24614414098E+02  0.46642375356E+03  0.53689266556E+03  0.12500000000E+03 0.  0.
         21    1    1    2  503  502 -0.98603592254E+02  0.30956126451E+02  0.56662272328E+03  0.57597071168E+03  0.00000000000E+00 0.  1.
         21    1    1    2  504  501 -0.13478823936E+03 -0.55570540549E+02  0.60683451374E+02  0.15791907965E+03  0.00000000000E+00 0.  1.
<mgrwt>
<rscale>  4 0.20337822E+03</rscale>
<asrwt>0</asrwt>
<pdfrwt beam="1">  1       21 0.18188556E+00 0.20337822E+03</pdfrwt>
<pdfrwt beam="2">  1       21 0.13619426E-01 0.20337822E+03</pdfrwt>
<totfact> 0.81845976E+03</totfact>
</mgrwt>
</event>
<event>
 5    0  0.5440185E+000  0.2738236E+03  0.7546771E-02  0.1099111E+00
         21   -1    0    0  503  501  0.00000000000E+00  0.00000000000E+00  0.13920529981E+04  0.13920529981E+04  0.00000000000E+00 0.  1.
         21   -1    0    0  501  502 -0.00000000000E+00 -0.00000000000E+00 -0.67046521895E+02  0.67046521895E+02  0.00000000000E+00 0.  1.
         25    1    1    2    0    0  0.14120884625E+03  0.19622096663E+03  0.73135005401E+03  0.78034640225E+03  0.12500000000E+03 0.  0.
         21    1    1    2  503  504  0.34851743842E+02 -0.24747089082E+02  0.26469495418E+03  0.26812400347E+03  0.00000000000E+00 0.  1.
         21    1    1    2  504  502 -0.17606059009E+03 -0.17147387754E+03  0.32896146805E+03  0.41062911432E+03  0.00000000000E+00 0.  1.
<mgrwt>
<rscale>  4 0.27382355E+03</rscale>
<asrwt>0</asrwt>
<pdfrwt beam="1">  1       21 0.21416198E+00 0.27382355E+03</pdfrwt>
<pdfrwt beam="2">  1       21 0.10314851E-01 0.27382355E+03</pdfrwt>
<totfact> 0.78896558E+03</totfact>
</mgrwt>
</event>
<event>
 5    0  0.5440185E+000  0.4925735E+03  0.7546771E-02  0.1015736E+00
         21   -1    0    0  503  501  0.00000000000E+00  0.00000000000E+00  0.52676190517E+03  0.52676190517E+03  0.00000000000E+00 0. -1.
         21   -1    0    0  504  502 -0.00000000000E+00 -0.00000000000E+00 -0.59714997500E+03  0.59714997500E+03  0.00000000000E+00 0. -1.
         25    1    1    2    0    0  0.35531874654E+03 -0.33840662332E+03 -0.20573802468E+03  0.54655611711E+03  0.12500000000E+03 0.  0.
         21    1    1    2  503  502 -0.33173884795E+03  0.31364285985E+03  0.19920003178E+02  0.45696751887E+03  0.00000000000E+00 0. -1.
         21    1    1    2  504  501 -0.23579898596E+02  0.24763763470E+02  0.11542995167E+03  0.12038824420E+03  0.00000000000E+00 0.  1.
<mgrwt>
<rscale>  4 0.49257352E+03</rscale>
<asrwt>0</asrwt>
<pdfrwt beam="1">  1       21 0.81040294E-01 0.49257352E+03</pdfrwt>
<pdfrwt beam="2">  1       21 0.91869226E-01 0.49257352E+03</pdfrwt>
<totfact> 0.11223777E+03</totfact>
</mgrwt>
</event>
<event>
 5    0  0.5440185E+000  0.2553799E+03  0.7546771E-02  0.1109951E+00
         21   -1    0    0  502  501  0.00000000000E+00  0.00000000000E+00  0.11652812095E+04  0.11652812095E+04  0.00000000000E+00 0.  1.
         21   -1    0    0  503  502 -0.00000000000E+00 -0.00000000000E+00 -0.59354025762E+03  0.59354025762E+03  0.00000000000E+00 0.  1.
         25    1    1    2    0    0 -0.15366565583E+03 -0.14336127498E+03 -0.44660880785E+03  0.50916600063E+03  0.12500000000E+03 0.  0.
         21    1    1    2  503  504  0.35907552159E+03  0.16252192283E+03  0.28117336771E+03  0.48415603715E+03  0.00000000000E+00 0.  1.
         21    1    1    2  504  501 -0.20540986576E+03 -0.19160647850E+02  0.73717639205E+03  0.76549942937E+03  0.00000000000E+00 0.  1.
<mgrwt>
<rscale>  4 0.25537991E+03</rscale>
<asrwt>0</asrwt>
<pdfrwt beam="1">  1       21 0.17927403E+00 0.25537991E+03</pdfrwt>
<pdfrwt beam="2">  1       21 0.91313886E-01 0.25537991E+03</pdfrwt>
<totfact> 0.17385151E+02</totfact>
</mgrwt>
</event>
<event>
 5    0  0.5440185E+000  0.3040248E+03  0.7546771E-02  0.1083246E+00
         21   -1    0    0  502  501  0.00000000000E+00  0.00000000000E+00  0.53139371782E+03  0.53139371782E+03  0.00000000000E+00 0.  1.
         21   -1    0    0  503  502 -0.00000000000E+00 -0.00000000000E+00 -0.41379505806E+03  0.41379505806E+03  0.00000000000E+00 0.  1.
         25    1    1    2    0    0 -0.17538208184E+03  0.21458611704E+03 -0.30964800506E+03  0.43395041571E+03  0.12500000000E+03 0.  0.
         21    1    1    2  503  504  0.22730270611E+02 -0.18506836798E+02  0.71705853516E+02  0.77465460941E+02  0.00000000000E+00 0.  1.
         21    1    1    2  504  501  0.15265181123E+03 -0.19607928024E+03  0.35554081130E+03  0.43377289923E+03  0.00000000000E+00 0.  1.
<mgrwt>
<rscale>  4 0.30402480E+03</rscale>
<asrwt>0</asrwt>
<pdfrwt beam="1">  1       21 0.81752880E-01 0.30402480E+03</pdfrwt>
<pdfrwt beam="2">  1       21 0.63660778E-01 0.30402480E+03</pdfrwt>
<totfact> 0.27650931E+03</totfact>
</mgrwt>
</event>
<event>
 5    0  0.5440185E+000  0.3231357E+03  0.7546771E-02  0.1074215E+00
         21   -1    0    0  502  501  0.00000000000E+00  0.00000000000E+00  0.32349033528E+03  0.32349033528E+03  0.00000000000E+00 0. -1.
         21   -1    0    0  503  502 -0.00000000000E+00 -0.00000000000E+00 -0.10133704420E+04  0.10133704420E+04  0.00000000000E+00 0. -1.
         25    1    1    2    0    0  0.29976607135E+03  0.29240281513E+01 -0.88890304381E+03  0.94638357381E+03  0.12500000000E+03 0.  0.
         21    1    1    2  503  504 -0.18935721217E+02 -0.37426942934E+02 -0.41436349353E+01  0.42148633499E+02  0.00000000000E+00 0.  1.
         21    1    1    2  504  501 -0.28083035014E+03  0.34502914782E+02  0.20316657202E+03  0.34832856999E+03  0.00000000000E+00 0. -1.
<mgrwt>
<rscale>  4 0.32313574E+03</rscale>
<asrwt>0</asrwt>
<pdfrwt beam="1">  1       21 0.49767744E-01 0.32313574E+03</pdfrwt>
<pdfrwt beam="2">  1       21 0.15590315E+00 0.32313574E+03</pdfrwt>
<totfact> 0.93344836E+02</totfact>
</mgrwt>
</event>
<event>
 5    0  0.5440185E+000  0.2412517E+03  0.7546771E-02  0.1118962E+00
         21   -1    0    0  503  501  0.00000000000E+00  0.00000000000E+00  0.16381257394E+04  0.16381257394E+04  0.00000000000E+00 0. -1.
         21   -1    0    0  501  502 -0.00000000000E+00 -0.00000000000E+00 -0.22115936969E+03  0.22115936969E+03  0.00000000000E+00 0.  1.
         25    1    1    2    0    0 -0.10087567978E+03 -0.20819547388E+03  0.59285963912E+03  0.64855902569E+03  0.12500000000E+03 0.  0.
         21    1    1    2  503  504 -0.18812774147E+00  0.30749384095E+02  0.96317218434E+03  0.96366291653E+03  0.00000000000E+00 0. -1.
         21    1    1    2  504  502  0.10106380752E+03  0.17744608978E+03 -0.13906545378E+03  0.24706316683E+03  0.00000000000E+00 0.  1.
<mgrwt>
<rscale>  4 0.24125173E+03</rscale>
<asrwt>0</asrwt>
<pdfrwt beam="1">  1       21 0.25201934E+00 0.24125173E+03</pdfrwt>
<pdfrwt beam="2">  1       21 0.34024520E-01 0.24125173E+03</pdfrwt>
<totfact> 0.50814380E+02</totfact>
</mgrwt>
</event>
<event>
 5    0  0.5440185E+000  0.2436299E+03  0.7546771E-02  0.1117398E+00
         21   -1    0    0  503  501  0.00000000000E+00  0.00000000000E+00  0.56194033157E+03  0.56194033157E+03  0.00000000000E+00 0. -1.
         21   -1    0    0  504  502 -0.00000000000E+00 -0.00000000000E+00 -0.14566047247E+04  0.14566047247E+04  0.00000000000E+00 0.  1.
         25    1    1    2    0    0  0.19949559527E+03  0.59947062711E+02 -0.13827858623E+04  0.14039636333E+04  0.12500000000E+03 0.  0.
         21    1    1    2  503  502 -0.23316488421E+03 -0.94169516684E+01  0.16498034577E+03  0.28578498333E+03  0.00000000000E+00 0. -1.
         21    1    1    2  504  501  0.33669288940E+02 -0.50530111043E+02  0.32314112332E+03  0.32879643964E+03  0.00000000000E+00 0. -1.
<mgrwt>
<rscale>  4 0.24362991E+03</rscale>
<asrwt>0</asrwt>
<pdfrwt beam="1">  1       21 0.86452360E-01 0.24362991E+03</pdfrwt>
<pdfrwt beam="2">  1       21 0.22409303E+00 0.24362991E+03</pdfrwt>
<totfact> 0.10232450E+02</totfact>
</mgrwt>
</event>
<event>
 5    0  0.5440185E+000  0.2589157E+03  0.7546771E-02  0.1107796E+00
         21   -1    0    0  503  501  0.00000000000E+00  0.00000000000E+00  0.68790430948E+03  0.68790430948E+03  0.00000000000E+00 0. -1.
         21   -1    0    0  501  502 -0.00000000000E+00 -0.00000000000E+00 -0.44264616911E+03  0.44264616911E+03  0.00000000000E+00 0. -1.
         25    1    1    2    0    0 -0.10382663455E+03 -0.20185465078E+03 -0.34173173804E+03  0.42887160185E+03  0.12500000000E+03 0.  0.
         21    1    1    2  503  504 -0.20089032968E+02  0.12279737903E+02  0.41908689196E+03  0.41974776262E+03  0.00000000000E+00 0. -1.
         21    1    1    2  504  502  0.12391566751E+03  0.18957491288E+03  0.16790298645E+03  0.28193111412E+03  0.00000000000E+00 0. -1.
<mgrwt>
<rscale>  4 0.25891569E+03</rscale>
<asrwt>0</asrwt>
<pdfrwt beam="1">  1       21 0.10583143E+00 0.25891569E+03</pdfrwt>
<pdfrwt beam="2">  1       21 0.68099410E-01 0.25891569E+03</pdfrwt>
<totfact> 0.13340734E+03</totfact>
</mgrwt>
</event>
<event>
 5    0  0.5440185E+000  0.2569514E+03  0.7546771E-02  0.1108989E+00
         21   -1    0    0  503  501  0.00000000000E+00  0.00000000000E+00  0.11049037602E+03  0.11049037602E+03  0.00000000000E+00 0.  1.
         21   -1    0    0  504  502 -0.00000000000E+00 -0.00000000000E+00 -0.20431451919E+04  0.20431451919E+04  0.00000000000E+00 0. -1.
         25    1    1    2    0    0  0.33665181943E+02  0.23128315819E+03 -0.17853974905E+04  0.18049638343E+04  0.12500000000E+03 0.  0.
         21    1    1    2  503  502 -0.10432856331E+03 -0.65964768624E+02 -0.10941102261E+03  0.16494414719E+03  0.00000000000E+00 0.  1.
         21    1    1    2  504  501  0.70663381367E+02 -0.16531838957E+03 -0.37846302696E+02  0.18372758645E+03  0.00000000000E+00 0.  1.
<mgrwt>
<rscale>  4 0.25695141E+03</rscale>
<asrwt>0</asrwt>
<pdfrwt beam="1">  1       21 0.16998519E-01 0.25695141E+03</pdfrwt>
<pdfrwt beam="2">  1       21 0.31433003E+00 0.25695141E+03</pdfrwt>
<totfact> 0.81434956E+02</totfact>
</mgrwt>
</event>
<event>
 5    0  0.5440185E+000  0.2377733E+03  0.7546771E-02  0.1121285E+00
         21   -1    0    0  503  501  0.00000000000E+00  0.00000000000E+00  0.66976426341E+03  0.66976426341E+03  0.00000000000E+00 0. -1.
         21   -1    0    0  501  502 -0.00000000000E+00 -0.00000000000E+00 -0.26348173557E+03  0.26348173557E+03  0.00000000000E+00 0. -1.
         25    1    1    2    0    0  0.20962457953E+03  0.17207133512E+03  0.10639541246E+03  0.31701102900E+03  0.12500000000E+03 0.  0.
         21    1    1    2  503  504 -0.79474371775E+02 -0.41379737420E+02  0.39755589322E+03  0.40752809311E+03  0.00000000000E+00 0. -1.
         21    1    1    2  504  502 -0.13015020776E+03 -0.13069159770E+03 -0.97668777848E+02  0.20870687688E+03  0.00000000000E+00 0. -1.
<mgrwt>
<rscale>  4 0.23777329E+03</rscale>
<asrwt>0</asrwt>
<pdfrwt beam="1">  1       21 0.10304066E+00 0.23777329E+03</pdfrwt>
<pdfrwt beam="2">  1       21 0.40535652E-01 0.23777329E+03</pdfrwt>
<totfact> 0.43322674E+03</totfact>
</mgrwt>
</event>
<event>
 5    0  0.5440185E+000  0.2666415E+03  0.7546771E-02  0.1103217E+00
         21   -1    0    0  503  501  0.00000000000E+00  0.00000000000E+00  0.83745003371E+02  0.83745003371E+02  0.00000000000E+00 0. -1.
         21   -1    0    0  501  502 -0.00000000000E+00 -0.00000000000E+00 -0.10752988710E+04  0.10752988710E+04  0.00000000000E+00 0. -1.
         25    1    1    2    0    0 -0.16447931772E+03  0.17073810422E+03 -0.68363383728E+03  0.73429229171E+03  0.12500000000E+03 0.  0.
         21    1    1    2  503  504  0.34145952458E+02  0.25280524809E+02 -0.75792010452E+01  0.43156636713E+02  0.00000000000E+00 0.  1.
         21    1    1    2  504  502  0.13033336526E+03 -0.19601862903E+03 -0.30034082930E+03  0.38159494595E+03  0.00000000000E+00 0. -1.
<mgrwt>
<rscale>  4 0.26664154E+03</rscale>
<asrwt>0</asrwt>
<pdfrwt beam="1">  1       21 0.12883846E-01 0.26664154E+03</pdfrwt>
<pdfrwt beam="2">  1       21 0.16543060E+00 0.26664154E+03</pdfrwt>
<totfact> 0.11305331E+04</totfact>
</mgrwt>
</event>
<event>
 5    0  0.5440185E+000  0.2968347E+03  0.7546771E-02  0.1086834E+00
         21   -1    0    0  503  501  0.00000000000E+00  0.00000000000E+00  0.11019550121E+04  0.11019550121E+04  0.00000000000E+00 0. -1.
         21   -1    0    0  504  502 -0.00000000000E+00 -0.00000000000E+00 -0.80828871962E+03  0.80828871962E+03  0.00000000000E+00 0.  1.
         25    1    1    2    0    0  0.21338446017E+03  0.16979595632E+03 -0.75738221564E+03  0.81462654952E+03  0.12500000000E+03 0.  0.
         21    1    1    2  503  502 -0.18053051497E+03 -0.99082447229E+02  0.52712804905E+03  0.56592630111E+03  0.00000000000E+00 0. -1.
         21    1    1    2  504  501 -0.32853945203E+02 -0.70713509087E+02  0.52392045904E+03  0.52969088107E+03  0.00000000000E+00 0. -1.
<mgrwt>
<rscale>  4 0.29683474E+03</rscale>
<asrwt>0</asrwt>
<pdfrwt beam="1">  1       21 0.16953154E+00 0.29683474E+03</pdfrwt>
<pdfrwt beam="2">  1       21 0.12435211E+00 0.29683474E+03</pdfrwt>
<totfact> 0.92344920E+01</totfact>
</mgrwt>
</event>
<event>
 5    0  0.5440185E+000  0.3957386E+03  0.7546771E-02  0.1045265E+00
         21   -1    0    0  503  501  0.00000000000E+00  0.00000000000E+00  0.77868440910E+03  0.77868440910E+03  0.00000000000E+00 0.  1.
         21   -1    0    0  501  502 -0.00000000000E+00 -0.00000000000E+00 -0.51942546501E+03  0.51942546501E+03  0.00000000000E+00 0.  1.
         25    1    1    2    0    0  0.14358559843E+03  0.37107143926E+03  0.47794440482E+02  0.41978583308E+03  0.12500000000E+03 0.  0.
         21    1    1    2  503  504 -0.24982735677E+02 -0.24899083027E+02  0.44358557195E+03  0.44498568635E+03  0.00000000000E+00 0.  1.
         21    1    1    2  504  502 -0.11860286275E+03 -0.34617235623E+03 -0.23212106834E+03  0.43333835468E+03  0.00000000000E+00 0.  1.
<mgrwt>
<rscale>  4 0.39573857E+03</rscale>
<asrwt>0</asrwt>
<pdfrwt beam="1">  1       21 0.11979760E+00 0.39573857E+03</pdfrwt>
<pdfrwt beam="2">  1       21 0.79911610E-01 0.39573857E+03</pdfrwt>
<totfact> 0.63022362E+02</totfact>
</mgrwt>
</event>
<event>
 5    0  0.5440185E+000  0.3110254E+03  0.7546771E-02  0.1079855E+00
         21   -1    0    0  503  501  0.00000000000E+00  0.00000000000E+00  0.40208318914E+03  0.40208318914E+03  0.00000000000E+00 0.  1.
         21   -1    0    0  501  502 -0.00000000000E+00 -0.00000000000E+00 -0.18688421581E+04  0.18688421581E+04  0.00000000000E+00 0.  1.
         25    1    1    2    0    0 -0.67652697389E+02  0.27969962931E+03 -0.17827087337E+04  0.18101061293E+04  0.12500000000E+03 0.  0.
         21    1    1    2  503  504 -0.29575361697E+02 -0.59369968209E+02  0.16183453721E+03  0.17489972149E+03  0.00000000000E+00 0.  1.
         21    1    1    2  504  502  0.97228059086E+02 -0.22032966110E+03  0.15411522760E+03  0.28591949639E+03  0.00000000000E+00 0.  1.
<mgrwt>
<rscale>  4 0.31102544E+03</rscale>
<asrwt>0</asrwt>
<pdfrwt beam="1">  1       21 0.61858952E-01 0.31102544E+03</pdfrwt>
<pdfrwt beam="2">  1       21 0.28751418E+00 0.31102544E+03</pdfrwt>
<totfact> 0.84198391E+01</totfact>
</mgrwt>
</event>
<event>
 5    0  0.5440185E+000  0.2526688E+03  0.7546771E-02  0.1111630E+00
         21   -1    0    0  503  501  0.00000000000E+00  0.00000000000E+00  0.79943087699E+03  0.79943087699E+03  0.00000000000E+00 0.  1.
         21   -1    0    0  501  502 -0.00000000000E+00 -0.00000000000E+00 -0.15752231304E+03  0.15752231304E+03  0.00000000000E+00 0.  1.
         25    1    1    2    0    0 -0.16082659723E+03 -0.15916203566E+03 -0.36807200325E+01  0.25852716622E+03  0.12500000000E+03 0.  0.
         21    1    1    2  503  504  0.32228870507E+02  0.64112038638E+01  0.27948193884E+03  0.28140710326E+03  0.00000000000E+00 0.  1.
         21    1    1    2  504  502  0.12859772672E+03  0.15275083180E+03  0.36610734514E+03  0.41701892056E+03  0.00000000000E+00 0.  1.
<mgrwt>
<rscale>  4 0.25266884E+03</rscale>
<asrwt>0</asrwt>
<pdfrwt beam="1">  1       21 0.12298936E+00 0.25266884E+03</pdfrwt>
<pdfrwt beam="2">  1       21 0.24234202E-01 0.25266884E+03</pdfrwt>
<totfact> 0.76647748E+03</totfact>
</mgrwt>
</event>
<event>
 5    0  0.5440185E+000  0.4033339E+03  0.7546771E-02  0.1042631E+00
         21   -1    0    0  503  501  0.00000000000E+00  0.00000000000E+00  0.64634223781E+03  0.64634223781E+03  0.00000000000E+00 0. -1.
         21   -1    0    0  504  502 -0.00000000000E+00 -0.00000000000E+00 -0.34854210592E+03  0.34854210592E+03  0.00000000000E+00 0. -1.
         25    1    1    2    0    0 -0.38109502215E+03  0.10412397269E+03  0.15523211505E+02  0.41465791647E+03  0.12500000000E+03 0.  0.
         21    1    1    2  503  502  0.36270392065E+03 -0.78909288487E+02  0.85392893928E+02  0.38088417688E+03  0.00000000000E+00 0. -1.
         21    1    1    2  504  501  0.18391101498E+02 -0.25214684199E+02  0.19688402645E+03  0.19934225038E+03  0.00000000000E+00 0. -1.
<mgrwt>
<rscale>  4 0.40333388E+03</rscale>
<asrwt>0</asrwt>
<pdfrwt beam="1">  1       21 0.99437267E-01 0.40333388E+03</pdfrwt>
<pdfrwt beam="2">  1       21 0.53621863E-01 0.40333388E+03</pdfrwt>
<totfact> 0.24131591E+03</totfact>
</mgrwt>
</event>
<event>
 5    0  0.5440185E+000  0.2204717E+03  0.7546771E-02  0.1133532E+00
         21   -1    0    0  503  501  0.00000000000E+00  0.00000000000E+00  0.10243115670E+03  0.10243115670E+03  0.00000000000E+00 0. -1.
         21   -1    0    0  501  502 -0.00000000000E+00 -0.00000000000E+00 -0.93529374507E+03  0.93529374507E+03  0.00000000000E+00 0. -1.
         25    1    1    2    0    0  0.14191111227E+03  0.14284051878E+03 -0.70933907516E+03  0.74788307986E+03  0.12500000000E+03 0.  0.
         21    1    1    2  503  504 -0.14000606908E+03 -0.30580145658E+02 -0.36756329283E+02  0.14794550494E+03  0.00000000000E+00 0. -1.
         21    1    1    2  504  502 -0.19050431816E+01 -0.11226037312E+03 -0.86767183918E+02  0.14189631697E+03  0.00000000000E+00 0. -1.
<mgrwt>
<rscale>  4 0.22047167E+03</rscale>
<asrwt>0</asrwt>
<pdfrwt beam="1">  1       21 0.15758640E-01 0.22047167E+03</pdfrwt>
<pdfrwt beam="2">  1       21 0.14389134E+00 0.22047167E+03</pdfrwt>
<totfact> 0.11716103E+04</totfact>
</mgrwt>
</event>
<event>
 5    0  0.5440185E+000  0.4540041E+03  0.7546771E-02  0.1026535E+00
         21   -1    0    0  503  501  0.00000000000E+00  0.00000000000E+00  0.12042490587E+04  0.12042490587E+04  0.00000000000E+00 0.  1.
         21   -1    0    0  504  502 -0.00000000000E+00 -0.00000000000E+00 -0.32638418878E+03  0.32638418878E+03  0.00000000000E+00 0. -1.
         25    1    1    2    0    0 -0.42660614989E+03  0.10659085266E+03 -0.83692652247E+02  0.46474065567E+03  0.12500000000E+03 0.  0.
         21    1    1    2  503  502  0.41129010145E+03 -0.93313856007E+02  0.81223804002E+03  0.91520361501E+03  0.00000000000E+00 0.  1.
         21    1    1    2  504  501  0.15316048443E+02 -0.13276996657E+02  0.14931948215E+03  0.15068897680E+03  0.00000000000E+00 0. -1.
<mgrwt>
<rscale>  4 0.45400406E+03</rscale>
<asrwt>0</asrwt>
<pdfrwt beam="1">  1       21 0.18526908E+00 0.45400406E+03</pdfrwt>
<pdfrwt beam="2">  1       21 0.50212953E-01 0.45400406E+03</pdfrwt>
<totfact> 0.52288397E+02</totfact>
</mgrwt>
</event>
<event>
 5    0  0.5440185E+000  0.2724911E+03  0.7546771E-02  0.1099862E+00
         21   -1    0    0  503  501  0.00000000000E+00  0.00000000000E+00  0.23381175944E+03  0.23381175944E+03  0.00000000000E+00 0.  1.
         21   -1    0    0  504  502 -0.00000000000E+00 -0.00000000000E+00 -0.38608326206E+03  0.38608326206E+03  0.00000000000E+00 0.  1.
         25    1    1    2    0    0  0.17475985132E+03 -0.18372135303E+03 -0.17922140329E+03  0.33472354651E+03  0.12500000000E+03 0.  0.
         21    1    1    2  503  502 -0.14663153673E+03  0.17350618680E+03 -0.21544092340E+02  0.22818709940E+03  0.00000000000E+00 0.  1.
         21    1    1    2  504  501 -0.28128314589E+02  0.10215166228E+02  0.48493993015E+02  0.56984375589E+02  0.00000000000E+00 0.  1.
<mgrwt>
<rscale>  4 0.27249114E+03</rscale>
<asrwt>0</asrwt>
<pdfrwt beam="1">  1       21 0.35971041E-01 0.27249114E+03</pdfrwt>
<pdfrwt beam="2">  1       21 0.59397424E-01 0.27249114E+03</pdfrwt>
<totfact> 0.18921068E+04</totfact>
</mgrwt>
</event>
<event>
 5    0  0.5440185E+000  0.3435829E+03  0.7546771E-02  0.1065280E+00
         21   -1    0    0  503  501  0.00000000000E+00  0.00000000000E+00  0.79742831698E+03  0.79742831698E+03  0.00000000000E+00 0. -1.
         21   -1    0    0  504  502 -0.00000000000E+00 -0.00000000000E+00 -0.26148510923E+03  0.26148510923E+03  0.00000000000E+00 0. -1.
         25    1    1    2    0    0 -0.85192052236E+02 -0.31314055534E+03 -0.65202534262E+02  0.35382349221E+03  0.12500000000E+03 0.  0.
         21    1    1    2  503  502  0.10795528027E+03  0.30054580936E+03  0.59921913898E+03  0.67900346286E+03  0.00000000000E+00 0. -1.
         21    1    1    2  504  501 -0.22763228037E+02  0.12594745983E+02  0.19266030314E+01  0.26086471135E+02  0.00000000000E+00 0. -1.
<mgrwt>
<rscale>  4 0.34358293E+03</rscale>
<asrwt>0</asrwt>
<pdfrwt beam="1">  1       21 0.12268128E+00 0.34358293E+03</pdfrwt>
<pdfrwt beam="2">  1       21 0.40228479E-01 0.34358293E+03</pdfrwt>
<totfact> 0.26929666E+03</totfact>
</mgrwt>
</event>
<event>
 5    0  0.5440185E+000  0.3130456E+03  0.7546771E-02  0.1078895E+00
         21   -1    0    0  503  501  0.00000000000E+00  0.00000000000E+00  0.15599914180E+04  0.15599914180E+04  0.00000000000E+00 0.  1.
         21   -1    0    0  504  502 -0.00000000000E+00 -0.00000000000E+00 -0.40271830972E+03  0.40271830972E+03  0.00000000000E+00 0. -1.
         25    1    1    2    0    0 -0.34959765663E+03  0.73776814513E+02  0.53381425284E+03  0.65440369529E+03  0.12500000000E+03 0.  0.
         21    1    1    2  503  502  0.28017510088E+03 -0.14342538486E+02 -0.28227481655E+03  0.39797345090E+03  0.00000000000E+00 0. -1.
         21    1    1    2  504  501  0.69422555752E+02 -0.59434276028E+02  0.90573367199E+03  0.91033258152E+03  0.00000000000E+00 0.  1.
<mgrwt>
<rscale>  4 0.31304564E+03</rscale>
<asrwt>0</asrwt>
<pdfrwt beam="1">  1       21 0.23999868E+00 0.31304564E+03</pdfrwt>
<pdfrwt beam="2">  1       21 0.61956664E-01 0.31304564E+03</pdfrwt>
<totfact> 0.16110606E+02</totfact>
</mgrwt>
</event>
<event>
 5    0  0.5440185E+000  0.3335989E+03  0.7546771E-02  0.1069555E+00
         21   -1    0    0  503  501  0.00000000000E+00  0.00000000000E+00  0.95958979499E+02  0.95958979499E+02  0.00000000000E+00 0. -1.
         21   -1    0    0  504  502 -0.00000000000E+00 -0.00000000000E+00 -0.23470386838E+04  0.23470386838E+04  0.00000000000E+00 0. -1.
         25    1    1    2    0    0 -0.14357924185E+03 -0.23034462389E+03 -0.87291141632E+03  0.92264456059E+03  0.12500000000E+03 0.  0.
         21    1    1    2  503  502  0.17105534044E+03  0.29416185274E+03 -0.14051888792E+04  0.14458032063E+04  0.00000000000E+00 0. -1.
         21    1    1    2  504  501 -0.27476098593E+02 -0.63817228851E+02  0.27020591288E+02  0.74549896349E+02  0.00000000000E+00 0. -1.
<mgrwt>
<rscale>  4 0.33359894E+03</rscale>
<asrwt>0</asrwt>
<pdfrwt beam="1">  1       21 0.14762920E-01 0.33359894E+03</pdfrwt>
<pdfrwt beam="2">  1       21 0.36108287E+00 0.33359894E+03</pdfrwt>
<totfact> 0.51614481E+02</totfact>
</mgrwt>
</event>
<event>
 5    0  0.5440185E+000  0.3227162E+03  0.7546771E-02  0.1074406E+00
         21   -1    0    0  503  501  0.00000000000E+00  0.00000000000E+00  0.27979449079E+03  0.27979449079E+03  0.00000000000E+00 0.  1.
         21   -1    0    0  501  502 -0.00000000000E+00 -0.00000000000E+00 -0.68509363564E+03  0.68509363564E+03  0.00000000000E+00 0.  1.
         25    1    1    2    0    0 -0.28626662578E+03  0.11068231376E+03 -0.47484457021E+03  0.57905226143E+03  0.12500000000E+03 0.  0.
         21    1    1    2  503  504  0.17229559828E+02 -0.46210655212E+02  0.95992397341E+02  0.10792044632E+03  0.00000000000E+00 0.  1.
         21    1    1    2  504  502  0.26903706595E+03 -0.64471658550E+02 -0.26446971982E+02  0.27791541868E+03  0.00000000000E+00 0.  1.
<mgrwt>
<rscale>  4 0.32271619E+03</rscale>
<asrwt>0</asrwt>
<pdfrwt beam="1">  1       21 0.43045307E-01 0.32271619E+03</pdfrwt>
<pdfrwt beam="2">  1       21 0.10539902E+00 0.32271619E+03</pdfrwt>
<totfact> 0.34507424E+03</totfact>
</mgrwt>
</event>
<event>
 5    0  0.5440185E+000  0.3239122E+03  0.7546771E-02  0.1073863E+00
         21   -1    0    0  503  501  0.00000000000E+00  0.00000000000E+00  0.54081911375E+03  0.54081911375E+03  0.00000000000E+00 0.  1.
         21   -1    0    0  504  502 -0.00000000000E+00 -0.00000000000E+00 -0.12267820353E+04  0.12267820353E+04  0.00000000000E+00 0.  1.
         25    1    1    2    0    0  0.33466648052E+03 -0.11296114188E+02 -0.40452100153E+03  0.53980690627E+03  0.12500000000E+03 0.  0.
         21    1    1    2  503  502 -0.28387988722E+03  0.19640573923E+02 -0.72625540276E+03  0.78001311050E+03  0.00000000000E+00 0.  1.
         21    1    1    2  504  501 -0.50786593300E+02 -0.83444597356E+01  0.44481348271E+03  0.44778113232E+03  0.00000000000E+00 0.  1.
<mgrwt>
<rscale>  4 0.32391223E+03</rscale>
<asrwt>0</asrwt>
<pdfrwt beam="1">  1       21 0.83202941E-01 0.32391223E+03</pdfrwt>
<pdfrwt beam="2">  1       21 0.18873570E+00 0.32391223E+03</pdfrwt>
<totfact> 0.17507420E+02</totfact>
</mgrwt>
</event>
