<event>
 5    0  0.1781295E-001  0.2410334E+03  0.7546771E-02  0.1119106E+00
         21   -1    0    0  501  502  0.00000000000E+00  0.00000000000E+00  0.64765941505E+03  0.64765941505E+03  0.00000000000E+00 0.  1.
         21   -1    0    0  502  503 -0.00000000000E+00 -0.00000000000E+00 -0.10558324025E+03  0.10558324025E+03  0.00000000000E+00 0. -1.
         25    1    1    2    0    0  0.17528825728E+03  0.12215865280E+03  0.32366496844E+03  0.40747112952E+03  0.12500000000E+03 0.  0.
          2    1    1    2  501    0 -0.19385401011E+03 -0.66333108242E+02  0.14177672308E+03  0.24915878008E+03  0.00000000000E+00 0. -1.
         -2    1    1    2    0  503  0.18565752830E+02 -0.55825544560E+02  0.76634483286E+02  0.96612745702E+02  0.00000000000E+00 0.  1.
<mgrwt>
<rscale>  4 0.24103338E+03</rscale>
<asrwt>0</asrwt>
<pdfrwt beam="1">  1       21 0.99639908E-01 0.24103338E+03</pdfrwt>
<pdfrwt beam="2">  1       21 0.16243576E-01 0.24103338E+03</pdfrwt>
<totfact> 0.27357540E+04</totfact>
</mgrwt>
</event>
<event>
 5    0  0.1781295E-001  0.2389665E+03  0.7546771E-02  0.1120483E+00
         21   -1    0    0  501  502  0.00000000000E+00  0.00000000000E+00  0.17320060294E+03  0.17320060294E+03  0.00000000000E+00 0.  1.
         21   -1    0    0  502  503 -0.00000000000E+00 -0.00000000000E+00 -0.54815133753E+03  0.54815133753E+03  0.00000000000E+00 0. -1.
         25    1    1    2    0    0  0.62210963291E+02 -0.21400149528E+03  0.16196679804E+02  0.25603549826E+03  0.12500000000E+03 0.  0.
          1    1    1    2  501    0 -0.40976219350E+02  0.45603344154E+02 -0.20237858200E+03  0.21146112173E+03  0.00000000000E+00 0.  1.
         -1    1    1    2    0  503 -0.21234743940E+02  0.16839815112E+03 -0.18876883240E+03  0.25385532049E+03  0.00000000000E+00 0. -1.
<mgrwt>
<rscale>  4 0.23896648E+03</rscale>
<asrwt>0</asrwt>
<pdfrwt beam="1">  1       21 0.26646246E-01 0.23896648E+03</pdfrwt>
<pdfrwt beam="2">  1       21 0.84330976E-01 0.23896648E+03</pdfrwt>
<totfact> 0.15911744E+04</totfact>
</mgrwt>
</event>
<event>
 5    0  0.1781295E-001  0.2650111E+03  0.7546771E-02  0.1104169E+00
         21   -1    0    0  501  502  0.00000000000E+00  0.00000000000E+00  0.50841911213E+03  0.50841911213E+03  0.00000000000E+00 0.  1.
         21   -1    0    0  502  503 -0.00000000000E+00 -0.00000000000E+00 -0.18306364723E+03  0.18306364723E+03  0.00000000000E+00 0.  1.
         25    1    1    2    0    0  0.23718444429E+03 -0.64139942417E+02  0.31798153538E+03  0.42084159689E+03  0.12500000000E+03 0.  0.
          4    1    1    2  501    0 -0.34547299476E+02 -0.38855616273E+01 -0.38657314131E+02  0.51990397441E+02  0.00000000000E+00 0. -1.
         -4    1    1    2    0  503 -0.20263714482E+03  0.68025504044E+02  0.46031243656E+02  0.21865076504E+03  0.00000000000E+00 0.  1.
<mgrwt>
<rscale>  4 0.26501114E+03</rscale>
<asrwt>0</asrwt>
<pdfrwt beam="1">  1       21 0.78218325E-01 0.26501114E+03</pdfrwt>
<pdfrwt beam="2">  1       21 0.28163638E-01 0.26501114E+03</pdfrwt>
<totfact> 0.16748294E+04</totfact>
</mgrwt>
</event>
<event>
 5    0  0.1781295E-001  0.3286239E+03  0.7546771E-02  0.1073123E+00
         21   -1    0    0  501  502  0.00000000000E+00  0.00000000000E+00  0.60366424639E+03  0.60366424639E+03  0.00000000000E+00 0.  1.
         21   -1    0    0  502  503 -0.00000000000E+00 -0.00000000000E+00 -0.11452633024E+04  0.11452633024E+04  0.00000000000E+00 0. -1.
         25    1    1    2    0    0 -0.23979882682E+03  0.16444131407E+03  0.53592662637E+03  0.62240402631E+03  0.12500000000E+03 0.  0.
          2    1    1    2  501    0  0.30097231523E+02 -0.10678745192E+03 -0.38248565640E+03  0.39825203149E+03  0.00000000000E+00 0.  1.
         -2    1    1    2    0  503  0.20970159530E+03 -0.57653862155E+02 -0.69504002602E+03  0.72827149104E+03  0.00000000000E+00 0. -1.
<mgrwt>
<rscale>  4 0.32554890E+03</rscale>
<asrwt>0</asrwt>
<pdfrwt beam="1">  1       21 0.92871424E-01 0.32862387E+03</pdfrwt>
<pdfrwt beam="2">  1       21 0.17619435E+00 0.32862387E+03</pdfrwt>
<totfact> 0.16469055E+02</totfact>
</mgrwt>
</event>
<event>
 5    0  0.1781295E-001  0.2444259E+03  0.7546771E-02  0.1116879E+00
         21   -1    0    0  501  502  0.00000000000E+00  0.00000000000E+00  0.60546566549E+03  0.60546566549E+03  0.00000000000E+00 0. -1.
         21   -1    0    0  502  503 -0.00000000000E+00 -0.00000000000E+00 -0.10687715399E+03  0.10687715399E+03  0.00000000000E+00 0. -1.
         25    1    1    2    0    0  0.14634971598E+02 -0.20953486541E+03  0.38609863540E+03  0.45696411071E+03  0.12500000000E+03 0.  0.
          3    1    1    2  501    0  0.17450926953E+02  0.16615436708E+03  0.53480368750E+02  0.17541937861E+03  0.00000000000E+00 0. -1.
         -3    1    1    2    0  503 -0.32085898551E+02  0.43380498337E+02  0.59009507353E+02  0.79959330161E+02  0.00000000000E+00 0.  1.
<mgrwt>
<rscale>  4 0.24442594E+03</rscale>
<asrwt>0</asrwt>
<pdfrwt beam="1">  1       21 0.93148562E-01 0.24442594E+03</pdfrwt>
<pdfrwt beam="2">  1       21 0.16442639E-01 0.24442594E+03</pdfrwt>
<totfact> 0.31318450E+04</totfact>
</mgrwt>
</event>
<event>
 5    0  0.1781295E-001  0.2552221E+03  0.7546771E-02  0.1110048E+00
         21   -1    0    0  501  502  0.00000000000E+00  0.00000000000E+00  0.46102730128E+02  0.46102730128E+02  0.00000000000E+00 0.  1.
         21   -1    0    0  502  503 -0.00000000000E+00 -0.00000000000E+00 -0.13607117292E+04  0.13607117292E+04  0.00000000000E+00 0.  1.
         25    1    1    2    0    0 -0.18365512394E+03 -0.12563486024E+03 -0.80628042032E+03  0.84571061177E+03  0.12500000000E+03 0.  0.
          3    1    1    2  501    0  0.78925503444E+02  0.68858269402E+01 -0.17207362554E+03  0.18943595834E+03  0.00000000000E+00 0. -1.
         -3    1    1    2    0  503  0.10472962050E+03  0.11874903330E+03 -0.33625495322E+03  0.37166788923E+03  0.00000000000E+00 0.  1.
<mgrwt>
<rscale>  4 0.25522210E+03</rscale>
<asrwt>0</asrwt>
<pdfrwt beam="1">  1       21 0.70927286E-02 0.25522210E+03</pdfrwt>
<pdfrwt beam="2">  1       21 0.20934024E+00 0.25522210E+03</pdfrwt>
<totfact> 0.16566450E+04</totfact>
</mgrwt>
</event>
<event>
 5    0  0.1781295E-001  0.2406129E+03  0.7546771E-02  0.1119385E+00
         21   -1    0    0  501  502  0.00000000000E+00  0.00000000000E+00  0.86083080538E+03  0.86083080538E+03  0.00000000000E+00 0.  1.
         21   -1    0    0  502  503 -0.00000000000E+00 -0.00000000000E+00 -0.60695745844E+02  0.60695745844E+02  0.00000000000E+00 0.  1.
         25    1    1    2    0    0 -0.64695770729E+02  0.19515125953E+03  0.34758969888E+03  0.42274478781E+03  0.12500000000E+03 0.  0.
          1    1    1    2  501    0  0.46798761745E+02 -0.17490810056E+03  0.36998767713E+03  0.41191485646E+03  0.00000000000E+00 0.  1.
         -1    1    1    2    0  503  0.17897008984E+02 -0.20243158971E+02  0.82557683528E+02  0.86866906962E+02  0.00000000000E+00 0. -1.
<mgrwt>
<rscale>  4 0.24061288E+03</rscale>
<asrwt>0</asrwt>
<pdfrwt beam="1">  1       21 0.13243550E+00 0.24061288E+03</pdfrwt>
<pdfrwt beam="2">  1       21 0.93378077E-02 0.24061288E+03</pdfrwt>
<totfact> 0.36798716E+04</totfact>
</mgrwt>
</event>
<event>
 5    0  0.1781295E-001  0.2673499E+03  0.7546771E-02  0.1102806E+00
         21   -1    0    0  501  502  0.00000000000E+00  0.00000000000E+00  0.11216312835E+04  0.11216312835E+04  0.00000000000E+00 0. -1.
         21   -1    0    0  502  503 -0.00000000000E+00 -0.00000000000E+00 -0.23623979195E+03  0.23623979195E+03  0.00000000000E+00 0. -1.
         25    1    1    2    0    0  0.33455230760E+03  0.75112127139E+00  0.51730875781E+03  0.62861686393E+03  0.12500000000E+03 0.  0.
          4    1    1    2  501    0 -0.11424754491E+03  0.42342219906E+02  0.46795720537E+03  0.48355900484E+03  0.00000000000E+00 0.  1.
         -4    1    1    2    0  503 -0.22030476270E+03 -0.43093341177E+02 -0.99874471607E+02  0.24569520671E+03  0.00000000000E+00 0. -1.
<mgrwt>
<rscale>  4 0.26734993E+03</rscale>
<asrwt>0</asrwt>
<pdfrwt beam="1">  1       21 0.17255866E+00 0.26734993E+03</pdfrwt>
<pdfrwt beam="2">  1       21 0.36344584E-01 0.26734993E+03</pdfrwt>
<totfact> 0.13988831E+03</totfact>
</mgrwt>
</event>
<event>
 5    0  0.1781295E-001  0.2926540E+03  0.7546771E-02  0.1088972E+00
         21   -1    0    0  501  502  0.00000000000E+00  0.00000000000E+00  0.48729067365E+03  0.48729067365E+03  0.00000000000E+00 0.  1.
         21   -1    0    0  502  503 -0.00000000000E+00 -0.00000000000E+00 -0.32136107125E+03  0.32136107125E+03  0.00000000000E+00 0. -1.
         25    1    1    2    0    0  0.20718073406E+03  0.16461321327E+03  0.35967170009E+03  0.46369181402E+03  0.12500000000E+03 0.  0.
          2    1    1    2  501    0 -0.73103186083E+02 -0.49541383513E+01 -0.75792859861E+02  0.10541905382E+03  0.00000000000E+00 0.  1.
         -2    1    1    2    0  503 -0.13407754798E+03 -0.15965907492E+03 -0.11794923783E+03  0.23954087705E+03  0.00000000000E+00 0. -1.
<mgrwt>
<rscale>  4 0.29265400E+03</rscale>
<asrwt>0</asrwt>
<pdfrwt beam="1">  1       21 0.74967796E-01 0.29265400E+03</pdfrwt>
<pdfrwt beam="2">  1       21 0.49440165E-01 0.29265400E+03</pdfrwt>
<totfact> 0.58303836E+03</totfact>
</mgrwt>
</event>
<event>
 5    0  0.1781295E-001  0.2764000E+03  0.7546771E-02  0.1097672E+00
         21   -1    0    0  501  502  0.00000000000E+00  0.00000000000E+00  0.95911313324E+02  0.95911313324E+02  0.00000000000E+00 0. -1.
         21   -1    0    0  502  503 -0.00000000000E+00 -0.00000000000E+00 -0.77800205523E+03  0.77800205523E+03  0.00000000000E+00 0. -1.
         25    1    1    2    0    0  0.18825910416E+03  0.15915547973E+03 -0.25266560013E+03  0.37448212576E+03  0.12500000000E+03 0.  0.
          3    1    1    2  501    0 -0.88368162791E+02 -0.42322089343E+02 -0.20750511130E+03  0.22947431808E+03  0.00000000000E+00 0. -1.
         -3    1    1    2    0  503 -0.99890941366E+02 -0.11683339038E+03 -0.22192003047E+03  0.26995692471E+03  0.00000000000E+00 0.  1.
<mgrwt>
<rscale>  4 0.27639999E+03</rscale>
<asrwt>0</asrwt>
<pdfrwt beam="1">  1       21 0.14755587E-01 0.27639999E+03</pdfrwt>
<pdfrwt beam="2">  1       21 0.11969262E+00 0.27639999E+03</pdfrwt>
<totfact> 0.20521162E+04</totfact>
</mgrwt>
</event>
<event>
 5    0  0.1781295E-001  0.2151147E+03  0.7546771E-02  0.1137579E+00
         21   -1    0    0  501  502  0.00000000000E+00  0.00000000000E+00  0.47444230074E+02  0.47444230074E+02  0.00000000000E+00 0. -1.
         21   -1    0    0  502  503 -0.00000000000E+00 -0.00000000000E+00 -0.19677698735E+04  0.19677698735E+04  0.00000000000E+00 0.  1.
         25    1    1    2    0    0 -0.17238330291E+03 -0.11550549047E+03 -0.35559936538E+03  0.43027134475E+03  0.12500000000E+03 0.  0.
          1    1    1    2  501    0  0.39830932633E+02  0.10098932043E+03 -0.93313568572E+03  0.93942937680E+03  0.00000000000E+00 0.  1.
         -1    1    1    2    0  503  0.13255237028E+03  0.14516170031E+02 -0.63159059229E+03  0.64551338199E+03  0.00000000000E+00 0. -1.
<mgrwt>
<rscale>  4 0.21511470E+03</rscale>
<asrwt>0</asrwt>
<pdfrwt beam="1">  1       21 0.72991118E-02 0.21511470E+03</pdfrwt>
<pdfrwt beam="2">  1       21 0.30273385E+00 0.21511470E+03</pdfrwt>
<totfact> 0.45168767E+03</totfact>
</mgrwt>
</event>
<event>
 5    0  0.1781295E-001  0.2461771E+03  0.7546771E-02  0.1115745E+00
         21   -1    0    0  501  502  0.00000000000E+00  0.00000000000E+00  0.81172894407E+02  0.81172894407E+02  0.00000000000E+00 0. -1.
         21   -1    0    0  502  503 -0.00000000000E+00 -0.00000000000E+00 -0.80013826952E+03  0.80013826952E+03  0.00000000000E+00 0. -1.
         25    1    1    2    0    0  0.15270409992E+03 -0.15989923745E+03 -0.36150080666E+03  0.44180781058E+03  0.12500000000E+03 0.  0.
          1    1    1    2  501    0 -0.12438652233E+03  0.16472981703E+03 -0.35502796645E+03  0.41067356443E+03  0.00000000000E+00 0. -1.
         -1    1    1    2    0  503 -0.28317577593E+02 -0.48305795850E+01 -0.24366019993E+01  0.28829788920E+02  0.00000000000E+00 0.  1.
<mgrwt>
<rscale>  4 0.24617708E+03</rscale>
<asrwt>0</asrwt>
<pdfrwt beam="1">  1       21 0.12488138E-01 0.24617708E+03</pdfrwt>
<pdfrwt beam="2">  1       21 0.12309819E+00 0.24617708E+03</pdfrwt>
<totfact> 0.26283545E+04</totfact>
</mgrwt>
</event>
<event>
 5    0  0.1781295E-001  0.4208644E+03  0.7546771E-02  0.1037964E+00
         21   -1    0    0  501  502  0.00000000000E+00  0.00000000000E+00  0.71321632568E+03  0.71321632568E+03  0.00000000000E+00 0.  1.
         21   -1    0    0  502  503 -0.00000000000E+00 -0.00000000000E+00 -0.80145127796E+03  0.80145127796E+03  0.00000000000E+00 0. -1.
         25    1    1    2    0    0  0.14936400918E+03 -0.35692243018E+03  0.58995495574E+03  0.71650197363E+03  0.12500000000E+03 0.  0.
          4    1    1    2  501    0 -0.86953343310E+02  0.79577717881E+02 -0.31906914980E+03  0.34014499769E+03  0.00000000000E+00 0.  1.
         -4    1    1    2    0  503 -0.62410665870E+02  0.27734471230E+03 -0.35912075821E+03  0.45802063232E+03  0.00000000000E+00 0. -1.
<mgrwt>
<rscale>  4 0.41725351E+03</rscale>
<asrwt>0</asrwt>
<pdfrwt beam="1">  1       21 0.10972559E+00 0.42086437E+03</pdfrwt>
<pdfrwt beam="2">  1       21 0.12330020E+00 0.42086437E+03</pdfrwt>
<totfact> 0.27115879E+02</totfact>
</mgrwt>
</event>
<event>
 5    0  0.1781295E-001  0.2309797E+03  0.7546771E-02  0.1125952E+00
         21   -1    0    0  501  502  0.00000000000E+00  0.00000000000E+00  0.46053947660E+03  0.46053947660E+03  0.00000000000E+00 0.  1.
         21   -1    0    0  502  503 -0.00000000000E+00 -0.00000000000E+00 -0.24594162644E+03  0.24594162644E+03  0.00000000000E+00 0.  1.
         25    1    1    2    0    0 -0.18285799287E+03 -0.19046761417E+03  0.18493174793E+03  0.34574515036E+03  0.12500000000E+03 0.  0.
          3    1    1    2  501    0  0.12906856977E+03  0.98055115780E+02  0.13477179323E+03  0.21080070608E+03  0.00000000000E+00 0. -1.
         -3    1    1    2    0  503  0.53789423102E+02  0.92412498386E+02 -0.10510569100E+03  0.14993524661E+03  0.00000000000E+00 0.  1.
<mgrwt>
<rscale>  4 0.23097970E+03</rscale>
<asrwt>0</asrwt>
<pdfrwt beam="1">  1       21 0.70852227E-01 0.23097970E+03</pdfrwt>
<pdfrwt beam="2">  1       21 0.37837173E-01 0.23097970E+03</pdfrwt>
<totfact> 0.11861397E+04</totfact>
</mgrwt>
</event>
<event>
 5    0  0.1781295E-001  0.4005137E+03  0.7546771E-02  0.1043602E+00
         21   -1    0    0  501  502  0.00000000000E+00  0.00000000000E+00  0.40195017489E+03  0.40195017489E+03  0.00000000000E+00 0.  1.
         21   -1    0    0  502  503 -0.00000000000E+00 -0.00000000000E+00 -0.18443611036E+04  0.18443611036E+04  0.00000000000E+00 0. -1.
         25    1    1    2    0    0 -0.31633889407E+03 -0.21146147377E+03  0.27504655015E+03  0.48586197169E+03  0.12500000000E+03 0.  0.
          1    1    1    2  501    0  0.24727781845E+03  0.19568584025E+03 -0.13663276257E+04  0.14022447890E+04  0.00000000000E+00 0. -1.
         -1    1    1    2    0  503  0.69061075620E+02  0.15775633521E+02 -0.35112985317E+03  0.35820451779E+03  0.00000000000E+00 0.  1.
<mgrwt>
<rscale>  4 0.40051373E+03</rscale>
<asrwt>0</asrwt>
<pdfrwt beam="1">  1       21 0.61838488E-01 0.40051373E+03</pdfrwt>
<pdfrwt beam="2">  1       21 0.28374786E+00 0.40051373E+03</pdfrwt>
<totfact> 0.82242476E+01</totfact>
</mgrwt>
</event>
<event>
 5    0  0.1781295E-001  0.2402402E+03  0.7546771E-02  0.1119633E+00
         21   -1    0    0  501  502  0.00000000000E+00  0.00000000000E+00  0.46620112161E+03  0.46620112161E+03  0.00000000000E+00 0.  1.
         21   -1    0    0  502  503 -0.00000000000E+00 -0.00000000000E+00 -0.12279862387E+03  0.12279862387E+03  0.00000000000E+00 0.  1.
         25    1    1    2    0    0 -0.75841484013E+02 -0.19062639577E+03  0.10321038883E+03  0.26147225058E+03  0.12500000000E+03 0.  0.
          4    1    1    2  501    0  0.67410147426E+02  0.56198488525E+02  0.87779449389E+02  0.12412747409E+03  0.00000000000E+00 0. -1.
         -4    1    1    2    0  503  0.84313365870E+01  0.13442790724E+03  0.15241265952E+03  0.20340002081E+03  0.00000000000E+00 0.  1.
<mgrwt>
<rscale>  4 0.24024020E+03</rscale>
<asrwt>0</asrwt>
<pdfrwt beam="1">  1       21 0.71723249E-01 0.24024020E+03</pdfrwt>
<pdfrwt beam="2">  1       21 0.18892096E-01 0.24024020E+03</pdfrwt>
<totfact> 0.44066208E+04</totfact>
</mgrwt>
</event>
<event>
 5    0  0.1781295E-001  0.2677710E+03  0.7546771E-02  0.1102562E+00
         21   -1    0    0  501  502  0.00000000000E+00  0.00000000000E+00  0.92162796921E+02  0.92162796921E+02  0.00000000000E+00 0. -1.
         21   -1    0    0  502  503 -0.00000000000E+00 -0.00000000000E+00 -0.80756581666E+03  0.80756581666E+03  0.00000000000E+00 0. -1.
         25    1    1    2    0    0  0.26043798327E+02  0.24894325996E+03 -0.38977260343E+03  0.47979027553E+03  0.12500000000E+03 0.  0.
          1    1    1    2  501    0 -0.28596021306E+01 -0.22618791570E+03 -0.31034740842E+03  0.38403732168E+03  0.00000000000E+00 0. -1.
         -1    1    1    2    0  503 -0.23184196197E+02 -0.22755344263E+02 -0.15283007897E+02  0.35901016367E+02  0.00000000000E+00 0.  1.
<mgrwt>
<rscale>  4 0.26777098E+03</rscale>
<asrwt>0</asrwt>
<pdfrwt beam="1">  1       21 0.14178892E-01 0.26777098E+03</pdfrwt>
<pdfrwt beam="2">  1       21 0.12424090E+00 0.26777098E+03</pdfrwt>
<totfact> 0.20177813E+04</totfact>
</mgrwt>
</event>
<event>
 5    0  0.1781295E-001  0.3624385E+03  0.7546771E-02  0.1057622E+00
         21   -1    0    0  501  502  0.00000000000E+00  0.00000000000E+00  0.23346407899E+03  0.23346407899E+03  0.00000000000E+00 0.  1.
         21   -1    0    0  502  503 -0.00000000000E+00 -0.00000000000E+00 -0.66286672755E+03  0.66286672755E+03  0.00000000000E+00 0.  1.
         25    1    1    2    0    0 -0.14120660235E+02  0.33990778700E+03 -0.32942630833E+02  0.36393256742E+03  0.12500000000E+03 0.  0.
          2    1    1    2  501    0 -0.13684606710E+02 -0.21259956846E+03 -0.30951307086E+03  0.37574484162E+03  0.00000000000E+00 0.  1.
         -2    1    1    2    0  503  0.27805266945E+02 -0.12730821854E+03 -0.86946946873E+02  0.15665339750E+03  0.00000000000E+00 0. -1.
<mgrwt>
<rscale>  4 0.36243854E+03</rscale>
<asrwt>0</asrwt>
<pdfrwt beam="1">  1       21 0.35917551E-01 0.36243854E+03</pdfrwt>
<pdfrwt beam="2">  1       21 0.10197950E+00 0.36243854E+03</pdfrwt>
<totfact> 0.53151620E+03</totfact>
</mgrwt>
</event>
<event>
 5    0  0.1781295E-001  0.2450133E+03  0.7546771E-02  0.1116497E+00
         21   -1    0    0  501  502  0.00000000000E+00  0.00000000000E+00  0.21962397985E+04  0.21962397985E+04  0.00000000000E+00 0.  1.
         21   -1    0    0  502  503 -0.00000000000E+00 -0.00000000000E+00 -0.48173107040E+02  0.48173107040E+02  0.00000000000E+00 0.  1.
         25    1    1    2    0    0  0.36015785635E+02 -0.28014617760E+03  0.76388391261E+03  0.82396762654E+03  0.12500000000E+03 0.  0.
          3    1    1    2  501    0  0.27863015775E+02  0.98516850102E+02  0.25192008760E+03  0.27192949074E+03  0.00000000000E+00 0.  1.
         -3    1    1    2    0  503 -0.63878801411E+02  0.18162932749E+03  0.11322626913E+04  0.11485157883E+04  0.00000000000E+00 0. -1.
<mgrwt>
<rscale>  4 0.24501328E+03</rscale>
<asrwt>0</asrwt>
<pdfrwt beam="1">  1       21 0.33788297E+00 0.24501328E+03</pdfrwt>
<pdfrwt beam="2">  1       21 0.74112489E-02 0.24501328E+03</pdfrwt>
<totfact> 0.26549492E+03</totfact>
</mgrwt>
</event>
<event>
 5    0  0.1781295E-001  0.3792203E+03  0.7546771E-02  0.1051222E+00
         21   -1    0    0  501  502  0.00000000000E+00  0.00000000000E+00  0.58437065422E+03  0.58437065422E+03  0.00000000000E+00 0.  1.
         21   -1    0    0  502  503 -0.00000000000E+00 -0.00000000000E+00 -0.92201592000E+03  0.92201592000E+03  0.00000000000E+00 0. -1.
         25    1    1    2    0    0  0.33310983876E+03  0.14366433655E+03  0.44329191589E+03  0.58628860552E+03  0.12500000000E+03 0.  0.
          4    1    1    2  501    0 -0.97779845282E+02  0.92945040500E+02 -0.12389300307E+03  0.18316428393E+03  0.00000000000E+00 0.  1.
         -4    1    1    2    0  503 -0.23532999347E+03 -0.23660937705E+03 -0.65704417859E+03  0.73693368478E+03  0.00000000000E+00 0. -1.
<mgrwt>
<rscale>  4 0.37922031E+03</rscale>
<asrwt>0</asrwt>
<pdfrwt beam="1">  1       21 0.89903178E-01 0.37922031E+03</pdfrwt>
<pdfrwt beam="2">  1       21 0.14184860E+00 0.37922031E+03</pdfrwt>
<totfact> 0.31206817E+02</totfact>
</mgrwt>
</event>
<event>
 5    0  0.1781295E-001  0.2543090E+03  0.7546771E-02  0.1110612E+00
         21   -1    0    0  501  502  0.00000000000E+00  0.00000000000E+00  0.13116052890E+04  0.13116052890E+04  0.00000000000E+00 0.  1.
         21   -1    0    0  502  503 -0.00000000000E+00 -0.00000000000E+00 -0.68424238965E+02  0.68424238965E+02  0.00000000000E+00 0.  1.
         25    1    1    2    0    0  0.21682677331E+03  0.45102203232E+02  0.10597661075E+04  0.10898519446E+04  0.12500000000E+03 0.  0.
          1    1    1    2  501    0 -0.18675578671E+03 -0.50609650139E+02  0.14950585284E+03  0.24452210654E+03  0.00000000000E+00 0.  1.
         -1    1    1    2    0  503 -0.30070986607E+02  0.55074469074E+01  0.33909089680E+02  0.45655476888E+02  0.00000000000E+00 0. -1.
<mgrwt>
<rscale>  4 0.25430898E+03</rscale>
<asrwt>0</asrwt>
<pdfrwt beam="1">  1       21 0.20178541E+00 0.25430898E+03</pdfrwt>
<pdfrwt beam="2">  1       21 0.10526807E-01 0.25430898E+03</pdfrwt>
<totfact> 0.92467285E+03</totfact>
</mgrwt>
</event>
<event>
 5    0  0.1781295E-001  0.4118967E+03  0.7546771E-02  0.1039736E+00
         21   -1    0    0  501  502  0.00000000000E+00  0.00000000000E+00  0.79584479883E+03  0.79584479883E+03  0.00000000000E+00 0.  1.
         21   -1    0    0  502  503 -0.00000000000E+00 -0.00000000000E+00 -0.35767425825E+03  0.35767425825E+03  0.00000000000E+00 0. -1.
         25    1    1    2    0    0  0.11389979066E+03 -0.35544412134E+03  0.46006722625E+03  0.60547546472E+03  0.12500000000E+03 0.  0.
          4    1    1    2  501    0 -0.94236093538E+02  0.44213084218E+03  0.13755544244E+02  0.45227131008E+03  0.00000000000E+00 0. -1.
         -4    1    1    2    0  503 -0.19663697127E+02 -0.86686720838E+02 -0.35652229909E+02  0.95772282273E+02  0.00000000000E+00 0.  1.
<mgrwt>
<rscale>  4 0.41189670E+03</rscale>
<asrwt>0</asrwt>
<pdfrwt beam="1">  1       21 0.12243766E+00 0.41189670E+03</pdfrwt>
<pdfrwt beam="2">  1       21 0.55026809E-01 0.41189670E+03</pdfrwt>
<totfact> 0.13574462E+03</totfact>
</mgrwt>
</event>
<event>
 5    0  0.1781295E-001  0.2390592E+03  0.7546771E-02  0.1120421E+00
         21   -1    0    0  501  502  0.00000000000E+00  0.00000000000E+00  0.16198200492E+03  0.16198200492E+03  0.00000000000E+00 0. -1.
         21   -1    0    0  502  503 -0.00000000000E+00 -0.00000000000E+00 -0.31549330024E+03  0.31549330024E+03  0.00000000000E+00 0. -1.
         25    1    1    2    0    0 -0.18200572277E+03  0.91641723540E+02 -0.51541063582E+02  0.24455218226E+03  0.12500000000E+03 0.  0.
          2    1    1    2  501    0  0.39663714695E+02 -0.11046242027E+01 -0.10591939459E+02  0.41068475008E+02  0.00000000000E+00 0.  1.
         -2    1    1    2    0  503  0.14234200807E+03 -0.90537099337E+02 -0.91378292273E+02  0.19185464789E+03  0.00000000000E+00 0. -1.
<mgrwt>
<rscale>  4 0.23905917E+03</rscale>
<asrwt>0</asrwt>
<pdfrwt beam="1">  1       21 0.24920309E-01 0.23905917E+03</pdfrwt>
<pdfrwt beam="2">  1       21 0.48537430E-01 0.23905917E+03</pdfrwt>
<totfact> 0.60536298E+04</totfact>
</mgrwt>
</event>
<event>
 5    0  0.1781295E-001  0.2359417E+03  0.7546771E-02  0.1122526E+00
         21   -1    0    0  501  502  0.00000000000E+00  0.00000000000E+00  0.90893423527E+03  0.90893423527E+03  0.00000000000E+00 0. -1.
         21   -1    0    0  502  503 -0.00000000000E+00 -0.00000000000E+00 -0.28025159349E+03  0.28025159349E+03  0.00000000000E+00 0. -1.
         25    1    1    2    0    0  0.12913591911E+03 -0.15669889101E+03 -0.21095953657E+03  0.31837015268E+03  0.12500000000E+03 0.  0.
          4    1    1    2  501    0 -0.37328365673E+01  0.37439597519E+02  0.33951975318E+03  0.34159818549E+03  0.00000000000E+00 0. -1.
         -4    1    1    2    0  503 -0.12540308254E+03  0.11925929349E+03  0.50012242517E+03  0.52921749059E+03  0.00000000000E+00 0.  1.
<mgrwt>
<rscale>  4 0.23594170E+03</rscale>
<asrwt>0</asrwt>
<pdfrwt beam="1">  1       21 0.13983603E+00 0.23594170E+03</pdfrwt>
<pdfrwt beam="2">  1       21 0.43115630E-01 0.23594170E+03</pdfrwt>
<totfact> 0.17864570E+03</totfact>
</mgrwt>
</event>
<event>
 5    0  0.1781295E-001  0.3077385E+03  0.7546771E-02  0.1081435E+00
         21   -1    0    0  501  502  0.00000000000E+00  0.00000000000E+00  0.13083109448E+03  0.13083109448E+03  0.00000000000E+00 0.  1.
         21   -1    0    0  502  503 -0.00000000000E+00 -0.00000000000E+00 -0.12340410665E+04  0.12340410665E+04  0.00000000000E+00 0.  1.
         25    1    1    2    0    0 -0.56688990214E+02  0.35483687189E+03 -0.60844684087E+03  0.71760393354E+03  0.12500000000E+03 0.  0.
          1    1    1    2  501    0  0.11361862565E+03 -0.21134980632E+03 -0.39904149402E+03  0.46563080512E+03  0.00000000000E+00 0.  1.
         -1    1    1    2    0  503 -0.56929635438E+02 -0.14348706556E+03 -0.95721637132E+02  0.18163742233E+03  0.00000000000E+00 0. -1.
<mgrwt>
<rscale>  4 0.30773854E+03</rscale>
<asrwt>0</asrwt>
<pdfrwt beam="1">  1       21 0.20127861E-01 0.30773854E+03</pdfrwt>
<pdfrwt beam="2">  1       21 0.18985247E+00 0.30773854E+03</pdfrwt>
<totfact> 0.32667120E+03</totfact>
</mgrwt>
</event>
<event>
 5    0  0.1781295E-001  0.3998211E+03  0.7546771E-02  0.1045710E+00
         21   -1    0    0  501  502  0.00000000000E+00  0.00000000000E+00  0.41817609998E+03  0.41817609998E+03  0.00000000000E+00 0. -1.
         21   -1    0    0  502  503 -0.00000000000E+00 -0.00000000000E+00 -0.42817666374E+03  0.42817666374E+03  0.00000000000E+00 0. -1.
         25    1    1    2    0    0  0.30531782606E+03  0.18624805419E+03 -0.17058335006E+03  0.41548885896E+03  0.12500000000E+03 0.  0.
          1    1    1    2  501    0 -0.12765805364E+03 -0.14618486969E+03  0.15546943800E+03  0.24867115019E+03  0.00000000000E+00 0.  1.
         -1    1    1    2    0  503 -0.17765977242E+03 -0.40063184492E+02  0.51133483024E+01  0.18219275458E+03  0.00000000000E+00 0. -1.
<mgrwt>
<rscale>  4 0.39447361E+03</rscale>
<asrwt>0</asrwt>
<pdfrwt beam="1">  1       21 0.64334785E-01 0.39982105E+03</pdfrwt>
<pdfrwt beam="2">  1       21 0.65873332E-01 0.39982105E+03</pdfrwt>
<totfact> 0.42117249E+03</totfact>
</mgrwt>
</event>
<event>
 5    0  0.1781295E-001  0.2384416E+03  0.7546771E-02  0.1120835E+00
         21   -1    0    0  501  502  0.00000000000E+00  0.00000000000E+00  0.11953717398E+03  0.11953717398E+03  0.00000000000E+00 0. -1.
         21   -1    0    0  502  503 -0.00000000000E+00 -0.00000000000E+00 -0.12220491514E+04  0.12220491514E+04  0.00000000000E+00 0. -1.
         25    1    1    2    0    0  0.19225775890E+03  0.65317183852E+02 -0.11076690041E+04  0.11330423659E+04  0.12500000000E+03 0.  0.
          4    1    1    2  501    0 -0.90212854367E+02 -0.52455305070E+02  0.14102685308E+02  0.10530338958E+03  0.00000000000E+00 0. -1.
         -4    1    1    2    0  503 -0.10204490453E+03 -0.12861878782E+02 -0.89456586630E+01  0.10324056991E+03  0.00000000000E+00 0.  1.
<mgrwt>
<rscale>  4 0.23844157E+03</rscale>
<asrwt>0</asrwt>
<pdfrwt beam="1">  1       21 0.18390336E-01 0.23844157E+03</pdfrwt>
<pdfrwt beam="2">  1       21 0.18800754E+00 0.23844157E+03</pdfrwt>
<totfact> 0.41720877E+03</totfact>
</mgrwt>
</event>
<event>
 5    0  0.1781295E-001  0.3715857E+03  0.7546771E-02  0.1054088E+00
         21   -1    0    0  501  502  0.00000000000E+00  0.00000000000E+00  0.16874797726E+03  0.16874797726E+03  0.00000000000E+00 0.  1.
         21   -1    0    0  502  503 -0.00000000000E+00 -0.00000000000E+00 -0.10224023299E+04  0.10224023299E+04  0.00000000000E+00 0.  1.
         25    1    1    2    0    0  0.65655557500E+02  0.34371540985E+03 -0.14806167403E+03  0.39999774314E+03  0.12500000000E+03 0.  0.
          2    1    1    2  501    0 -0.25322846440E+02 -0.28952119281E+02 -0.52912288744E+02  0.65415457369E+02  0.00000000000E+00 0. -1.
         -2    1    1    2    0  503 -0.40332711059E+02 -0.31476329057E+03 -0.65268038984E+03  0.72573710664E+03  0.00000000000E+00 0.  1.
<mgrwt>
<rscale>  4 0.37158570E+03</rscale>
<asrwt>0</asrwt>
<pdfrwt beam="1">  1       21 0.25961227E-01 0.37158570E+03</pdfrwt>
<pdfrwt beam="2">  1       21 0.15729267E+00 0.37158570E+03</pdfrwt>
<totfact> 0.33098774E+03</totfact>
</mgrwt>
</event>
<event>
 5    0  0.1781295E-001  0.2788089E+03  0.7546771E-02  0.1096341E+00
         21   -1    0    0  501  502  0.00000000000E+00  0.00000000000E+00  0.20489850900E+03  0.20489850900E+03  0.00000000000E+00 0. -1.
         21   -1    0    0  502  503 -0.00000000000E+00 -0.00000000000E+00 -0.39930641656E+03  0.39930641656E+03  0.00000000000E+00 0. -1.
         25    1    1    2    0    0  0.63109376442E+02 -0.24109463062E+03 -0.21038061783E+03  0.34927699418E+03  0.12500000000E+03 0.  0.
          1    1    1    2  501    0 -0.42461915809E+02  0.68714758962E+02  0.29895623150E+01  0.80831119479E+02  0.00000000000E+00 0.  1.
         -1    1    1    2    0  503 -0.20647460633E+02  0.17237987166E+03  0.12983147950E+02  0.17409681190E+03  0.00000000000E+00 0. -1.
<mgrwt>
<rscale>  4 0.27880892E+03</rscale>
<asrwt>0</asrwt>
<pdfrwt beam="1">  1       21 0.31522848E-01 0.27880892E+03</pdfrwt>
<pdfrwt beam="2">  1       21 0.61431755E-01 0.27880892E+03</pdfrwt>
<totfact> 0.22817112E+04</totfact>
</mgrwt>
</event>
<event>
 5    0  0.1781295E-001  0.3392359E+03  0.7546771E-02  0.1067122E+00
         21   -1    0    0  501  502  0.00000000000E+00  0.00000000000E+00  0.22632837250E+03  0.22632837250E+03  0.00000000000E+00 0.  1.
         21   -1    0    0  502  503 -0.00000000000E+00 -0.00000000000E+00 -0.53786750833E+03  0.53786750833E+03  0.00000000000E+00 0.  1.
         25    1    1    2    0    0  0.12833698278E+03 -0.28807228413E+03 -0.27793192322E+03  0.43855122389E+03  0.12500000000E+03 0.  0.
          4    1    1    2  501    0 -0.11916045692E+02  0.32245351326E+02  0.19614128220E+02  0.39578641373E+02  0.00000000000E+00 0. -1.
         -4    1    1    2    0  503 -0.11642093709E+03  0.25582693280E+03 -0.53221340825E+02  0.28606601556E+03  0.00000000000E+00 0.  1.
<mgrwt>
<rscale>  4 0.33923594E+03</rscale>
<asrwt>0</asrwt>
<pdfrwt beam="1">  1       21 0.34819750E-01 0.33923594E+03</pdfrwt>
<pdfrwt beam="2">  1       21 0.82748847E-01 0.33923594E+03</pdfrwt>
<totfact> 0.93643633E+03</totfact>
</mgrwt>
</event>
<event>
 5    0  0.1781295E-001  0.3121352E+03  0.7546771E-02  0.1079327E+00
         21   -1    0    0  501  502  0.00000000000E+00  0.00000000000E+00  0.42262511015E+03  0.42262511015E+03  0.00000000000E+00 0. -1.
         21   -1    0    0  502  503 -0.00000000000E+00 -0.00000000000E+00 -0.33022899268E+03  0.33022899268E+03  0.00000000000E+00 0. -1.
         25    1    1    2    0    0 -0.21224249073E+03 -0.19171994869E+03 -0.17483377209E+03  0.35776425403E+03  0.12500000000E+03 0.  0.
          2    1    1    2  501    0  0.16976816801E+03  0.15251590484E+03  0.18099729707E+03  0.29127710800E+03  0.00000000000E+00 0. -1.
         -2    1    1    2    0  503  0.42474322723E+02  0.39204043844E+02  0.86232592492E+02  0.10381274080E+03  0.00000000000E+00 0.  1.
<mgrwt>
<rscale>  4 0.31213525E+03</rscale>
<asrwt>0</asrwt>
<pdfrwt beam="1">  1       21 0.65019248E-01 0.31213525E+03</pdfrwt>
<pdfrwt beam="2">  1       21 0.50804460E-01 0.31213525E+03</pdfrwt>
<totfact> 0.74916122E+03</totfact>
</mgrwt>
</event>
<event>
 5    0  0.1781295E-001  0.2839724E+03  0.7546771E-02  0.1093539E+00
         21   -1    0    0  501  502  0.00000000000E+00  0.00000000000E+00  0.36463069810E+03  0.36463069810E+03  0.00000000000E+00 0. -1.
         21   -1    0    0  502  503 -0.00000000000E+00 -0.00000000000E+00 -0.39436605203E+03  0.39436605203E+03  0.00000000000E+00 0.  1.
         25    1    1    2    0    0  0.28362055308E+02  0.19946163326E+03  0.20973804139E+03  0.31655077844E+03  0.12500000000E+03 0.  0.
          1    1    1    2  501    0  0.51637935755E+02  0.55566800039E+02  0.10386917518E+02  0.76563919251E+02  0.00000000000E+00 0. -1.
         -1    1    1    2    0  503 -0.79999991063E+02 -0.25502843330E+03 -0.24986031285E+03  0.36588205244E+03  0.00000000000E+00 0.  1.
<mgrwt>
<rscale>  4 0.28397244E+03</rscale>
<asrwt>0</asrwt>
<pdfrwt beam="1">  1       21 0.56097030E-01 0.28397244E+03</pdfrwt>
<pdfrwt beam="2">  1       21 0.60671701E-01 0.28397244E+03</pdfrwt>
<totfact> 0.71542711E+03</totfact>
</mgrwt>
</event>
<event>
 5    0  0.1781295E-001  0.2262565E+03  0.7546771E-02  0.1129303E+00
         21   -1    0    0  501  502  0.00000000000E+00  0.00000000000E+00  0.89028235752E+03  0.89028235752E+03  0.00000000000E+00 0. -1.
         21   -1    0    0  502  503 -0.00000000000E+00 -0.00000000000E+00 -0.93673327998E+02  0.93673327998E+02  0.00000000000E+00 0. -1.
         25    1    1    2    0    0  0.31456192085E+02  0.23294880075E+03  0.26806559347E+03  0.37780788530E+03  0.12500000000E+03 0.  0.
          1    1    1    2  501    0  0.87142695108E+01 -0.61258420873E+02  0.15696639473E+02  0.63835077440E+02  0.00000000000E+00 0. -1.
         -1    1    1    2    0  503 -0.40170461596E+02 -0.17169037988E+03  0.51284679658E+03  0.54231272278E+03  0.00000000000E+00 0.  1.
<mgrwt>
<rscale>  4 0.22625654E+03</rscale>
<asrwt>0</asrwt>
<pdfrwt beam="1">  1       21 0.13696651E+00 0.22625654E+03</pdfrwt>
<pdfrwt beam="2">  1       21 0.14411282E-01 0.22625654E+03</pdfrwt>
<totfact> 0.15625386E+04</totfact>
</mgrwt>
</event>
<event>
 5    0  0.1781295E-001  0.2904821E+03  0.7546771E-02  0.1090098E+00
         21   -1    0    0  501  502  0.00000000000E+00  0.00000000000E+00  0.23383511752E+03  0.23383511752E+03  0.00000000000E+00 0. -1.
         21   -1    0    0  502  503 -0.00000000000E+00 -0.00000000000E+00 -0.36527655344E+03  0.36527655344E+03  0.00000000000E+00 0. -1.
         25    1    1    2    0    0 -0.20776535228E+03 -0.15996372896E+03 -0.10280695071E+03  0.30813812699E+03  0.12500000000E+03 0.  0.
          3    1    1    2  501    0  0.10802551147E+03  0.10180197079E+03 -0.75297002451E+02  0.16644155420E+03  0.00000000000E+00 0.  1.
         -3    1    1    2    0  503  0.99739840809E+02  0.58161758170E+02  0.46662517240E+02  0.12453198976E+03  0.00000000000E+00 0. -1.
<mgrwt>
<rscale>  4 0.29048208E+03</rscale>
<asrwt>0</asrwt>
<pdfrwt beam="1">  1       21 0.35974633E-01 0.29048208E+03</pdfrwt>
<pdfrwt beam="2">  1       21 0.56196393E-01 0.29048208E+03</pdfrwt>
<totfact> 0.21152030E+04</totfact>
</mgrwt>
</event>
