<event>
 5    0  0.1926049E+001  0.3325558E+03  0.7546771E-02  0.1070012E+00
         21   -1    0    0  503  501  0.00000000000E+00  0.00000000000E+00  0.27095148767E+03  0.27095148767E+03  0.00000000000E+00 0.  1.
         21   -1    0    0  504  502 -0.00000000000E+00 -0.00000000000E+00 -0.57407756955E+03  0.57407756955E+03  0.00000000000E+00 0.  1.
         25    1    1    2    0    0 -0.29124264848E+03  0.36512589425E+02  0.24659336488E+02  0.31998208131E+03  0.12500000000E+03 0.  0.
         21    1    1    2  503  502 -0.46593472888E+02 -0.11424112601E+02 -0.11599710551E+03  0.12552605527E+03  0.00000000000E+00 0. -1.
         21    1    1    2  504  501  0.33783612137E+03 -0.25088476823E+02 -0.21178831286E+03  0.39952092065E+03  0.00000000000E+00 0.  1.
<mgrwt>
<rscale>  4 0.33255583E+03</rscale>
<asrwt>0</asrwt>
<pdfrwt beam="1">  1       21 0.41684844E-01 0.33255583E+03</pdfrwt>
<pdfrwt beam="2">  1       21 0.88319626E-01 0.33255583E+03</pdfrwt>
<totfact> 0.55976958E+03</totfact>
</mgrwt>
</event>
<event>
 5    0  0.5305911E+001  0.2363982E+03  0.7546771E-02  0.1122216E+00
         21   -1    0    0  502  501  0.00000000000E+00  0.00000000000E+00  0.31162296384E+03  0.31162296384E+03  0.00000000000E+00 0.  1.
         21   -1    0    0  504  502 -0.00000000000E+00 -0.00000000000E+00 -0.68104144117E+03  0.68104144117E+03  0.00000000000E+00 0.  1.
         25    1    1    2    0    0  0.12323337842E+03  0.18639429298E+03  0.21972523143E+03  0.33739216846E+03  0.12500000000E+03 0.  0.
         21    1    1    2  503  501 -0.11609644758E+02 -0.21259636300E+02  0.81824007513E+01  0.25567707544E+02  0.00000000000E+00 0. -1.
         21    1    1    2  504  503 -0.11162373367E+03 -0.16513465668E+03 -0.59732610951E+03  0.62970452901E+03  0.00000000000E+00 0.  1.
<mgrwt>
<rscale>  4 0.23639817E+03</rscale>
<asrwt>0</asrwt>
<pdfrwt beam="1">  1       21 0.47941995E-01 0.23639817E+03</pdfrwt>
<pdfrwt beam="2">  1       21 0.10477561E+00 0.23639817E+03</pdfrwt>
<totfact> 0.29486479E+03</totfact>
</mgrwt>
</event>
<event>
 5    0  0.1911311E+001  0.2556035E+03  0.7546771E-02  0.1109814E+00
         21   -1    0    0  502  501  0.00000000000E+00  0.00000000000E+00  0.77749620980E+03  0.77749620980E+03  0.00000000000E+00 0.  1.
         21   -1    0    0  504  502 -0.00000000000E+00 -0.00000000000E+00 -0.75207170904E+03  0.75207170904E+03  0.00000000000E+00 0.  1.
         25    1    1    2    0    0  0.22992295603E+03 -0.84490475151E+02  0.67203523633E+03  0.72612641115E+03  0.12500000000E+03 0.  0.
         21    1    1    2  503  501 -0.10173709750E+02  0.49490232664E+02  0.50645925861E+02  0.71538781829E+02  0.00000000000E+00 0. -1.
         21    1    1    2  504  503 -0.21974924628E+03  0.35000242487E+02 -0.69725666143E+03  0.73190272586E+03  0.00000000000E+00 0.  1.
<mgrwt>
<rscale>  4 0.25560346E+03</rscale>
<asrwt>0</asrwt>
<pdfrwt beam="1">  1       21 0.11961480E+00 0.25560346E+03</pdfrwt>
<pdfrwt beam="2">  1       21 0.11570334E+00 0.25560346E+03</pdfrwt>
<totfact> 0.28774559E+02</totfact>
</mgrwt>
</event>
