<event>
 5    0  0.1911311E+001  0.3421481E+03  0.7546771E-02  0.1065885E+00
         21   -1    0    0  504  501  0.00000000000E+00  0.00000000000E+00  0.79050649623E+03  0.79050649623E+03  0.00000000000E+00 0.  1.
         21   -1    0    0  503  502 -0.00000000000E+00 -0.00000000000E+00 -0.10102973992E+04  0.10102973992E+04  0.00000000000E+00 0.  1.
         25    1    1    2    0    0  0.64909267639E+02 -0.40949113640E+03  0.60550423010E+03  0.74441693727E+03  0.12500000000E+03 0.  0.
         21    1    1    2  503  501 -0.84221340146E+02  0.30323729140E+03 -0.88053312710E+03  0.93508538484E+03  0.00000000000E+00 0.  1.
         21    1    1    2  504  502  0.19312072507E+02  0.10625384500E+03  0.55237993975E+02  0.12130157336E+03  0.00000000000E+00 0.  1.
<mgrwt>
<rscale>  4 0.34214808E+03</rscale>
<asrwt>0</asrwt>
<pdfrwt beam="1">  1       21 0.12161638E+00 0.34214808E+03</pdfrwt>
<pdfrwt beam="2">  1       21 0.15543037E+00 0.34214808E+03</pdfrwt>
<totfact> 0.11967789E+02</totfact>
</mgrwt>
</event>
<event>
 5    0  0.1911311E+001  0.2173996E+03  0.7546771E-02  0.1135837E+00
         21   -1    0    0  502  501  0.00000000000E+00  0.00000000000E+00  0.75697908359E+03  0.75697908359E+03  0.00000000000E+00 0. -1.
         21   -1    0    0  504  502 -0.00000000000E+00 -0.00000000000E+00 -0.84408140294E+02  0.84408140294E+02  0.00000000000E+00 0. -1.
         25    1    1    2    0    0  0.20953464398E+03 -0.10915185322E+02  0.21903849913E+03  0.32806519535E+03  0.12500000000E+03 0.  0.
         21    1    1    2  503  501 -0.16669399961E+03  0.26356393651E+02  0.43027472686E+03  0.46218815385E+03  0.00000000000E+00 0. -1.
         21    1    1    2  504  503 -0.42840644376E+02 -0.15441208329E+02  0.23257717309E+02  0.51133874678E+02  0.00000000000E+00 0. -1.
<mgrwt>
<rscale>  4 0.21739964E+03</rscale>
<asrwt>0</asrwt>
<pdfrwt beam="1">  1       21 0.11645832E+00 0.21739964E+03</pdfrwt>
<pdfrwt beam="2">  1       21 0.12985868E-01 0.21739964E+03</pdfrwt>
<totfact> 0.28542832E+04</totfact>
</mgrwt>
</event>
<event>
 5    0  0.1911311E+001  0.3094105E+03  0.7546771E-02  0.1080629E+00
         21   -1    0    0  502  501  0.00000000000E+00  0.00000000000E+00  0.34146891148E+04  0.34146891148E+04  0.00000000000E+00 0. -1.
         21   -1    0    0  504  502 -0.00000000000E+00 -0.00000000000E+00 -0.15401875688E+03  0.15401875688E+03  0.00000000000E+00 0. -1.
         25    1    1    2    0    0  0.16765960965E+03  0.22669766455E+03  0.27666903900E+04  0.27838287106E+04  0.12500000000E+03 0.  0.
         21    1    1    2  503  501  0.53016264649E+02 -0.48672964967E+02  0.49614562042E+03  0.50133846701E+03  0.00000000000E+00 0. -1.
         21    1    1    2  504  503 -0.22067587430E+03 -0.17802469958E+03 -0.21656524720E+01  0.28354069410E+03  0.00000000000E+00 0. -1.
<mgrwt>
<rscale>  4 0.30941055E+03</rscale>
<asrwt>0</asrwt>
<pdfrwt beam="1">  1       21 0.52533673E+00 0.30941055E+03</pdfrwt>
<pdfrwt beam="2">  1       21 0.23695196E-01 0.30941055E+03</pdfrwt>
<totfact> 0.17425753E+01</totfact>
</mgrwt>
</event>
<event>
 5    0  0.1911311E+001  0.3333647E+03  0.7546771E-02  0.1069658E+00
         21   -1    0    0  504  501  0.00000000000E+00  0.00000000000E+00  0.54952812904E+03  0.54952812904E+03  0.00000000000E+00 0.  1.
         21   -1    0    0  503  502 -0.00000000000E+00 -0.00000000000E+00 -0.38343639956E+03  0.38343639956E+03  0.00000000000E+00 0. -1.
         25    1    1    2    0    0 -0.18525493039E+03  0.26358362368E+03 -0.17715731938E+03  0.38833675040E+03  0.12500000000E+03 0.  0.
         21    1    1    2  503  501  0.24883734188E+02 -0.21967544476E+01 -0.44038477045E+02  0.50630163121E+02  0.00000000000E+00 0. -1.
         21    1    1    2  504  502  0.16037119620E+03 -0.26138686923E+03  0.38728752591E+03  0.49399761508E+03  0.00000000000E+00 0.  1.
<mgrwt>
<rscale>  4 0.33336473E+03</rscale>
<asrwt>0</asrwt>
<pdfrwt beam="1">  1       21 0.84542789E-01 0.33336473E+03</pdfrwt>
<pdfrwt beam="2">  1       21 0.58990215E-01 0.33336473E+03</pdfrwt>
<totfact> 0.29760295E+03</totfact>
</mgrwt>
</event>
<event>
 5    0  0.1911311E+001  0.3074554E+03  0.7546771E-02  0.1081572E+00
         21   -1    0    0  502  501  0.00000000000E+00  0.00000000000E+00  0.11119399158E+04  0.11119399158E+04  0.00000000000E+00 0.  1.
         21   -1    0    0  504  502 -0.00000000000E+00 -0.00000000000E+00 -0.97695655759E+02  0.97695655759E+02  0.00000000000E+00 0.  1.
         25    1    1    2    0    0  0.24122025940E+03  0.17935558204E+03  0.58746299793E+03  0.67163488019E+03  0.12500000000E+03 0.  0.
         21    1    1    2  503  501 -0.20717941735E+03 -0.16264871164E+03  0.42504520660E+03  0.50004134031E+03  0.00000000000E+00 0.  1.
         21    1    1    2  504  503 -0.34040842051E+02 -0.16706870404E+02  0.17360555468E+01  0.37959351089E+02  0.00000000000E+00 0.  1.
<mgrwt>
<rscale>  4 0.30745542E+03</rscale>
<asrwt>0</asrwt>
<pdfrwt beam="1">  1       21 0.17106767E+00 0.30745542E+03</pdfrwt>
<pdfrwt beam="2">  1       21 0.15030102E-01 0.30745542E+03</pdfrwt>
<totfact> 0.76007409E+03</totfact>
</mgrwt>
</event>
<event>
 5    0  0.1911311E+001  0.2424288E+03  0.7546771E-02  0.1118185E+00
         21   -1    0    0  502  501  0.00000000000E+00  0.00000000000E+00  0.32648622507E+03  0.32648622507E+03  0.00000000000E+00 0.  1.
         21   -1    0    0  504  502 -0.00000000000E+00 -0.00000000000E+00 -0.43208123127E+03  0.43208123127E+03  0.00000000000E+00 0.  1.
         25    1    1    2    0    0  0.57641516666E+02  0.19776251365E+03 -0.27503126113E+03  0.36564976528E+03  0.12500000000E+03 0.  0.
         21    1    1    2  503  501 -0.15972084295E+03 -0.17420738915E+03  0.16465749826E+03  0.28804696464E+03  0.00000000000E+00 0.  1.
         21    1    1    2  504  503  0.10207932629E+03 -0.23555124497E+02  0.47787566782E+01  0.10487072643E+03  0.00000000000E+00 0.  1.
<mgrwt>
<rscale>  4 0.24242877E+03</rscale>
<asrwt>0</asrwt>
<pdfrwt beam="1">  1       21 0.50228650E-01 0.24242877E+03</pdfrwt>
<pdfrwt beam="2">  1       21 0.66474035E-01 0.24242877E+03</pdfrwt>
<totfact> 0.75780176E+03</totfact>
</mgrwt>
</event>
<event>
 5    0  0.1911311E+001  0.2700675E+03  0.7546771E-02  0.1101241E+00
         21   -1    0    0  502  501  0.00000000000E+00  0.00000000000E+00  0.11304347765E+03  0.11304347765E+03  0.00000000000E+00 0. -1.
         21   -1    0    0  504  502 -0.00000000000E+00 -0.00000000000E+00 -0.14858706624E+04  0.14858706624E+04  0.00000000000E+00 0. -1.
         25    1    1    2    0    0 -0.17077092972E+03  0.13266699994E+03 -0.79429974071E+02  0.26210182008E+03  0.12500000000E+03 0.  0.
         21    1    1    2  503  501 -0.29603082313E+02  0.36068371970E+01 -0.11102121386E+02  0.31821515618E+02  0.00000000000E+00 0. -1.
         21    1    1    2  504  503  0.20037401203E+03 -0.13627383714E+03 -0.12822950893E+04  0.13049908043E+04  0.00000000000E+00 0. -1.
<mgrwt>
<rscale>  4 0.27006754E+03</rscale>
<asrwt>0</asrwt>
<pdfrwt beam="1">  1       21 0.17391303E-01 0.27006754E+03</pdfrwt>
<pdfrwt beam="2">  1       21 0.22859550E+00 0.27006754E+03</pdfrwt>
<totfact> 0.24859910E+03</totfact>
</mgrwt>
</event>
<event>
 5    0  0.1911311E+001  0.2076638E+03  0.7546771E-02  0.1143429E+00
         21   -1    0    0  503  501  0.00000000000E+00  0.00000000000E+00  0.75250385409E+03  0.75250385409E+03  0.00000000000E+00 0.  1.
         21   -1    0    0  504  502 -0.00000000000E+00 -0.00000000000E+00 -0.32786806412E+03  0.32786806412E+03  0.00000000000E+00 0. -1.
         25    1    1    2    0    0  0.13535642678E+03 -0.15328374257E+03  0.58920268130E+03  0.63608338106E+03  0.12500000000E+03 0.  0.
         21    1    1    2  503  502 -0.14387757578E+03  0.80333243182E+02 -0.26969037540E+03  0.31604918186E+03  0.00000000000E+00 0. -1.
         21    1    1    2  504  501  0.85211489949E+01  0.72950499390E+02  0.10512348408E+03  0.12823935529E+03  0.00000000000E+00 0. -1.
<mgrwt>
<rscale>  4 0.20766380E+03</rscale>
<asrwt>0</asrwt>
<pdfrwt beam="1">  1       21 0.11576982E+00 0.20766380E+03</pdfrwt>
<pdfrwt beam="2">  1       21 0.50441241E-01 0.20766380E+03</pdfrwt>
<totfact> 0.21289691E+03</totfact>
</mgrwt>
</event>
