<event>
 5    0  0.1410715E+001  0.2441141E+03  0.7546771E-02  0.1117082E+00
         21   -1    0    0  502  501  0.00000000000E+00  0.00000000000E+00  0.11081717497E+03  0.11081717497E+03  0.00000000000E+00 0.  1.
         21   -1    0    0  503  502 -0.00000000000E+00 -0.00000000000E+00 -0.60706013822E+03  0.60706013822E+03  0.00000000000E+00 0.  1.
         25    1    1    2    0    0  0.12295552535E+03  0.16984889906E+03 -0.42556592850E+03  0.49060989516E+03  0.12500000000E+03 0.  0.
         21    1    1    2  503  504 -0.48044093121E+01 -0.32749895685E+02 -0.36180831233E+00  0.33102400539E+02  0.00000000000E+00 0. -1.
         21    1    1    2  504  501 -0.11815111603E+03 -0.13709900338E+03 -0.70315226429E+02  0.19416501749E+03  0.00000000000E+00 0.  1.
<mgrwt>
<rscale>  4 0.24411413E+03</rscale>
<asrwt>0</asrwt>
<pdfrwt beam="1">  1       21 0.17048796E-01 0.24411413E+03</pdfrwt>
<pdfrwt beam="2">  1       21 0.93393868E-01 0.24411413E+03</pdfrwt>
<totfact> 0.29116090E+04</totfact>
</mgrwt>
</event>
<event>
 5    0  0.1856407E+000  0.2621943E+03  0.7546771E-02  0.1105832E+00
         21   -1    0    0  502  501  0.00000000000E+00  0.00000000000E+00  0.87988016271E+03  0.87988016271E+03  0.00000000000E+00 0. -1.
         21   -1    0    0  503  502 -0.00000000000E+00 -0.00000000000E+00 -0.92563750478E+02  0.92563750478E+02  0.00000000000E+00 0. -1.
         25    1    1    2    0    0 -0.24523226603E+02  0.22917128118E+03  0.65279273584E+03  0.70348007841E+03  0.12500000000E+03 0.  0.
         21    1    1    2  503  504  0.27917296756E+02 -0.19697973135E+03  0.10408670014E+03  0.22453158167E+03  0.00000000000E+00 0. -1.
         21    1    1    2  504  501 -0.33940701527E+01 -0.32191549827E+02  0.30436976256E+02  0.44432253106E+02  0.00000000000E+00 0. -1.
<mgrwt>
<rscale>  4 0.26219433E+03</rscale>
<asrwt>0</asrwt>
<pdfrwt beam="1">  1       21 0.13536617E+00 0.26219433E+03</pdfrwt>
<pdfrwt beam="2">  1       21 0.14240578E-01 0.26219433E+03</pdfrwt>
<totfact> 0.16131463E+04</totfact>
</mgrwt>
</event>
<event>
 5    0  0.1856407E+000  0.3863681E+03  0.7546771E-02  0.1048605E+00
         21   -1    0    0  502  501  0.00000000000E+00  0.00000000000E+00  0.19734968994E+03  0.19734968994E+03  0.00000000000E+00 0.  1.
         21   -1    0    0  503  502 -0.00000000000E+00 -0.00000000000E+00 -0.16818854962E+04  0.16818854962E+04  0.00000000000E+00 0.  1.
         25    1    1    2    0    0 -0.24403590911E+03  0.27221647958E+03 -0.41791970869E+02  0.38862180268E+03  0.12500000000E+03 0.  0.
         21    1    1    2  503  504  0.21651709499E+02 -0.56611200381E+00 -0.53980896009E+02  0.58164027895E+02  0.00000000000E+00 0.  1.
         21    1    1    2  504  501  0.22238419961E+03 -0.27165036757E+03 -0.13887629394E+04  0.14324493556E+04  0.00000000000E+00 0.  1.
<mgrwt>
<rscale>  4 0.38636814E+03</rscale>
<asrwt>0</asrwt>
<pdfrwt beam="1">  1       21 0.30361491E-01 0.38636814E+03</pdfrwt>
<pdfrwt beam="2">  1       21 0.25875162E+00 0.38636814E+03</pdfrwt>
<totfact> 0.51594970E+02</totfact>
</mgrwt>
</event>
<event>
 5    0  0.1856407E+000  0.3051050E+03  0.7546771E-02  0.1082716E+00
         21   -1    0    0  502  501  0.00000000000E+00  0.00000000000E+00  0.14716927988E+04  0.14716927988E+04  0.00000000000E+00 0. -1.
         21   -1    0    0  503  502 -0.00000000000E+00 -0.00000000000E+00 -0.13707065543E+03  0.13707065543E+03  0.00000000000E+00 0.  1.
         25    1    1    2    0    0 -0.12231733416E+03  0.22463747715E+03  0.11624103338E+04  0.11967649354E+04  0.12500000000E+03 0.  0.
         21    1    1    2  503  504  0.92138306947E+01  0.33325473965E+02  0.12083251452E+03  0.12568205304E+03  0.00000000000E+00 0.  1.
         21    1    1    2  504  501  0.11310350346E+03 -0.25796295112E+03  0.51379295032E+02  0.28631646582E+03  0.00000000000E+00 0.  1.
<mgrwt>
<rscale>  4 0.30510504E+03</rscale>
<asrwt>0</asrwt>
<pdfrwt beam="1">  1       21 0.22641426E+00 0.30510504E+03</pdfrwt>
<pdfrwt beam="2">  1       21 0.21087794E-01 0.30510504E+03</pdfrwt>
<totfact> 0.17408520E+03</totfact>
</mgrwt>
</event>
<event>
 5    0  0.1856407E+000  0.2512757E+03  0.7546771E-02  0.1112501E+00
         21   -1    0    0  502  501  0.00000000000E+00  0.00000000000E+00  0.44791800627E+03  0.44791800627E+03  0.00000000000E+00 0.  1.
         21   -1    0    0  503  502 -0.00000000000E+00 -0.00000000000E+00 -0.15057522566E+03  0.15057522566E+03  0.00000000000E+00 0.  1.
         25    1    1    2    0    0 -0.19741271245E+03 -0.92426627363E+02  0.27777759237E+03  0.37456621752E+03  0.12500000000E+03 0.  0.
         21    1    1    2  503  504  0.15802979996E+03  0.51593298434E+02  0.11643761010E+02  0.16664592191E+03  0.00000000000E+00 0.  1.
         21    1    1    2  504  501  0.39382912492E+02  0.40833328929E+02  0.79214272297E+01  0.57281092492E+02  0.00000000000E+00 0.  1.
<mgrwt>
<rscale>  4 0.25127567E+03</rscale>
<asrwt>0</asrwt>
<pdfrwt beam="1">  1       21 0.68910462E-01 0.25127567E+03</pdfrwt>
<pdfrwt beam="2">  1       21 0.23165420E-01 0.25127567E+03</pdfrwt>
<totfact> 0.32623475E+04</totfact>
</mgrwt>
</event>
<event>
 5    0  0.1856407E+000  0.3650289E+03  0.7546771E-02  0.1056610E+00
         21   -1    0    0  502  501  0.00000000000E+00  0.00000000000E+00  0.10375165295E+03  0.10375165295E+03  0.00000000000E+00 0. -1.
         21   -1    0    0  503  502 -0.00000000000E+00 -0.00000000000E+00 -0.15642610629E+04  0.15642610629E+04  0.00000000000E+00 0. -1.
         25    1    1    2    0    0  0.35264971638E+03  0.12839542005E+02 -0.43599630715E+03  0.57466899703E+03  0.12500000000E+03 0.  0.
         21    1    1    2  503  504 -0.28273149562E+02  0.34478577400E+02 -0.22249331609E+03  0.22691720735E+03  0.00000000000E+00 0. -1.
         21    1    1    2  504  501 -0.32437656681E+03 -0.47318119405E+02 -0.80201978670E+03  0.86642651148E+03  0.00000000000E+00 0. -1.
<mgrwt>
<rscale>  4 0.36502886E+03</rscale>
<asrwt>0</asrwt>
<pdfrwt beam="1">  1       21 0.15961793E-01 0.36502886E+03</pdfrwt>
<pdfrwt beam="2">  1       21 0.24065555E+00 0.36502886E+03</pdfrwt>
<totfact> 0.23088408E+03</totfact>
</mgrwt>
</event>
<event>
 5    0  0.1856407E+000  0.2485747E+03  0.7546771E-02  0.1114209E+00
         21   -1    0    0  502  501  0.00000000000E+00  0.00000000000E+00  0.65200484271E+03  0.65200484271E+03  0.00000000000E+00 0. -1.
         21   -1    0    0  503  502 -0.00000000000E+00 -0.00000000000E+00 -0.14752653231E+03  0.14752653231E+03  0.00000000000E+00 0. -1.
         25    1    1    2    0    0 -0.17316770387E+03 -0.15818325904E+03  0.42885313827E+03  0.50452850396E+03  0.12500000000E+03 0.  0.
         21    1    1    2  503  504  0.12808018465E+03  0.16765440794E+03  0.54434618653E+01  0.21105014921E+03  0.00000000000E+00 0. -1.
         21    1    1    2  504  501  0.45087519219E+02 -0.94711489010E+01  0.70181710264E+02  0.83952721852E+02  0.00000000000E+00 0. -1.
<mgrwt>
<rscale>  4 0.24857468E+03</rscale>
<asrwt>0</asrwt>
<pdfrwt beam="1">  1       21 0.10030844E+00 0.24857468E+03</pdfrwt>
<pdfrwt beam="2">  1       21 0.22696390E-01 0.24857468E+03</pdfrwt>
<totfact> 0.14342392E+04</totfact>
</mgrwt>
</event>
<event>
 5    0  0.1856407E+000  0.4981062E+03  0.7546771E-02  0.1014274E+00
         21   -1    0    0  502  501  0.00000000000E+00  0.00000000000E+00  0.34943258559E+03  0.34943258559E+03  0.00000000000E+00 0. -1.
         21   -1    0    0  503  502 -0.00000000000E+00 -0.00000000000E+00 -0.69831774427E+03  0.69831774427E+03  0.00000000000E+00 0. -1.
         25    1    1    2    0    0  0.28071685683E+03 -0.39202399991E+03 -0.21875994120E+03  0.54402728065E+03  0.12500000000E+03 0.  0.
         21    1    1    2  503  504 -0.27668644368E+02  0.12238878478E+02 -0.75638149069E+01  0.31185819270E+02  0.00000000000E+00 0. -1.
         21    1    1    2  504  501 -0.25304821246E+03  0.37978512143E+03 -0.12256140257E+03  0.47253722995E+03  0.00000000000E+00 0. -1.
<mgrwt>
<rscale>  4 0.49810618E+03</rscale>
<asrwt>0</asrwt>
<pdfrwt beam="1">  1       21 0.53758860E-01 0.49810618E+03</pdfrwt>
<pdfrwt beam="2">  1       21 0.10743350E+00 0.49810618E+03</pdfrwt>
<totfact> 0.19157898E+03</totfact>
</mgrwt>
</event>
<event>
 5    0  0.3136105E+000  0.3075928E+03  0.7546771E-02  0.1081505E+00
         21   -1    0    0  502  501  0.00000000000E+00  0.00000000000E+00  0.87486009540E+02  0.87486009540E+02  0.00000000000E+00 0. -1.
         21   -1    0    0  503  502 -0.00000000000E+00 -0.00000000000E+00 -0.11492322871E+04  0.11492322871E+04  0.00000000000E+00 0. -1.
         25    1    1    2    0    0 -0.85610201773E+02 -0.26769244326E+03 -0.33212336689E+03  0.45268010964E+03  0.12500000000E+03 0.  0.
         21    1    1    2  503  504  0.87879612029E+02  0.19224389716E+03 -0.54805677202E+03  0.58740681607E+03  0.00000000000E+00 0. -1.
         21    1    1    2  504  501 -0.22694102559E+01  0.75448546101E+02 -0.18156613868E+03  0.19663137096E+03  0.00000000000E+00 0.  1.
<mgrwt>
<rscale>  4 0.30759283E+03</rscale>
<asrwt>0</asrwt>
<pdfrwt beam="1">  1       21 0.13459387E-01 0.30759283E+03</pdfrwt>
<pdfrwt beam="2">  1       21 0.17680496E+00 0.30759283E+03</pdfrwt>
<totfact> 0.84733364E+03</totfact>
</mgrwt>
</event>
