<event>
 5    0  0.2159162E+000  0.2584236E+03  0.7546771E-02  0.1108094E+00
         21   -1    0    0  502  501  0.00000000000E+00  0.00000000000E+00  0.17361177130E+03  0.17361177130E+03  0.00000000000E+00 0. -1.
         21   -1    0    0  503  502 -0.00000000000E+00 -0.00000000000E+00 -0.79991323280E+03  0.79991323280E+03  0.00000000000E+00 0.  1.
         25    1    1    2    0    0  0.20288045423E+03  0.99986352322E+02  0.45965688481E+02  0.26247970184E+03  0.12500000000E+03 0.  0.
         21    1    1    2  503  504 -0.59161787699E+02 -0.48539055800E+02 -0.17827401909E+03  0.19400459516E+03  0.00000000000E+00 0.  1.
         21    1    1    2  504  501 -0.14371866653E+03 -0.51447296521E+02 -0.49399313089E+03  0.51704070710E+03  0.00000000000E+00 0.  1.
<mgrwt>
<rscale>  4 0.25842359E+03</rscale>
<asrwt>0</asrwt>
<pdfrwt beam="1">  1       21 0.26709503E-01 0.25842359E+03</pdfrwt>
<pdfrwt beam="2">  1       21 0.12306357E+00 0.25842359E+03</pdfrwt>
<totfact> 0.63244840E+03</totfact>
</mgrwt>
</event>
<event>
 5    0  0.2714957E+000  0.1719768E+03  0.7546771E-02  0.1175802E+00
         21   -1    0    0  502  501  0.00000000000E+00  0.00000000000E+00  0.51822778675E+03  0.51822778675E+03  0.00000000000E+00 0.  1.
         21   -1    0    0  503  502 -0.00000000000E+00 -0.00000000000E+00 -0.11787760748E+03  0.11787760748E+03  0.00000000000E+00 0.  1.
         25    1    1    2    0    0 -0.19147917486E+03 -0.61791768533E+02  0.28362589114E+03  0.36952827116E+03  0.12500000000E+03 0.  0.
         21    1    1    2  503  504  0.99808099137E+02  0.35820529545E+02 -0.11681670735E+02  0.10668284033E+03  0.00000000000E+00 0.  1.
         21    1    1    2  504  501  0.91671075722E+02  0.25971238988E+02  0.12840595887E+03  0.15989428274E+03  0.00000000000E+00 0.  1.
<mgrwt>
<rscale>  4 0.17197681E+03</rscale>
<asrwt>0</asrwt>
<pdfrwt beam="1">  1       21 0.79727351E-01 0.17197681E+03</pdfrwt>
<pdfrwt beam="2">  1       21 0.18135017E-01 0.17197681E+03</pdfrwt>
<totfact> 0.38799053E+04</totfact>
</mgrwt>
</event>
<event>
 5    0  0.2159162E+000  0.4378805E+03  0.7546771E-02  0.1031399E+00
         21   -1    0    0  502  501  0.00000000000E+00  0.00000000000E+00  0.11348373990E+04  0.11348373990E+04  0.00000000000E+00 0.  1.
         21   -1    0    0  503  502 -0.00000000000E+00 -0.00000000000E+00 -0.42783322260E+03  0.42783322260E+03  0.00000000000E+00 0.  1.
         25    1    1    2    0    0 -0.67256672196E+01 -0.46668402809E+03  0.83508748294E+03  0.96479807257E+03  0.12500000000E+03 0.  0.
         21    1    1    2  503  504 -0.83498729426E+02  0.62418507311E+02  0.82741571576E+02  0.13309498690E+03  0.00000000000E+00 0. -1.
         21    1    1    2  504  501  0.90224396645E+02  0.40426552078E+03 -0.21082487810E+03  0.46477756214E+03  0.00000000000E+00 0.  1.
<mgrwt>
<rscale>  4 0.43788052E+03</rscale>
<asrwt>0</asrwt>
<pdfrwt beam="1">  1       21 0.17459037E+00 0.43788052E+03</pdfrwt>
<pdfrwt beam="2">  1       21 0.65820496E-01 0.43788052E+03</pdfrwt>
<totfact> 0.34786234E+02</totfact>
</mgrwt>
</event>
<event>
 5    0  0.3992362E+000  0.3271548E+03  0.7546771E-02  0.1072403E+00
         21   -1    0    0  502  501  0.00000000000E+00  0.00000000000E+00  0.37493867892E+03  0.37493867892E+03  0.00000000000E+00 0. -1.
         21   -1    0    0  503  502 -0.00000000000E+00 -0.00000000000E+00 -0.28388511363E+03  0.28388511363E+03  0.00000000000E+00 0. -1.
         25    1    1    2    0    0  0.28427666899E+03 -0.10291760629E+03  0.10918500621E+03  0.34489364128E+03  0.12500000000E+03 0.  0.
         21    1    1    2  503  504 -0.24370141665E+03  0.11029973943E+03 -0.34182356560E+02  0.26967544660E+03  0.00000000000E+00 0. -1.
         21    1    1    2  504  501 -0.40575252337E+02 -0.73821331456E+01  0.16050915639E+02  0.44254704664E+02  0.00000000000E+00 0. -1.
<mgrwt>
<rscale>  4 0.32715479E+03</rscale>
<asrwt>0</asrwt>
<pdfrwt beam="1">  1       21 0.57682874E-01 0.32715479E+03</pdfrwt>
<pdfrwt beam="2">  1       21 0.43674633E-01 0.32715479E+03</pdfrwt>
<totfact> 0.13264764E+04</totfact>
</mgrwt>
</event>
<event>
 5    0  0.2463411E+000  0.2404795E+03  0.7546771E-02  0.1119474E+00
         21   -1    0    0  502  501  0.00000000000E+00  0.00000000000E+00  0.60097940894E+03  0.60097940894E+03  0.00000000000E+00 0. -1.
         21   -1    0    0  503  502 -0.00000000000E+00 -0.00000000000E+00 -0.99692310283E+02  0.99692310283E+02  0.00000000000E+00 0. -1.
         25    1    1    2    0    0 -0.84157756880E+02 -0.18741093081E+03  0.13010393938E+03  0.27341803173E+03  0.12500000000E+03 0.  0.
         21    1    1    2  503  504  0.68220472810E+02  0.16601803238E+03  0.28296138223E+03  0.33508680043E+03  0.00000000000E+00 0. -1.
         21    1    1    2  504  501  0.15937284070E+02  0.21392898434E+02  0.88221777044E+02  0.92166887067E+02  0.00000000000E+00 0. -1.
<mgrwt>
<rscale>  4 0.24047949E+03</rscale>
<asrwt>0</asrwt>
<pdfrwt beam="1">  1       21 0.92458368E-01 0.24047949E+03</pdfrwt>
<pdfrwt beam="2">  1       21 0.15337279E-01 0.24047949E+03</pdfrwt>
<totfact> 0.36286430E+04</totfact>
</mgrwt>
</event>
<event>
 5    0  0.2159162E+000  0.2736305E+03  0.7546771E-02  0.1099220E+00
         21   -1    0    0  502  501  0.00000000000E+00  0.00000000000E+00  0.24575027360E+03  0.24575027360E+03  0.00000000000E+00 0.  1.
         21   -1    0    0  503  502 -0.00000000000E+00 -0.00000000000E+00 -0.72502174729E+03  0.72502174729E+03  0.00000000000E+00 0.  1.
         25    1    1    2    0    0 -0.14568830273E+03 -0.21151351085E+03  0.11121835358E+03  0.30652498919E+03  0.12500000000E+03 0.  0.
         21    1    1    2  503  504  0.52473499463E+02  0.17401395728E+03 -0.48788481746E+03  0.52063991451E+03  0.00000000000E+00 0.  1.
         21    1    1    2  504  501  0.93214803268E+02  0.37499553575E+02 -0.10260500981E+03  0.14360711718E+03  0.00000000000E+00 0.  1.
<mgrwt>
<rscale>  4 0.27363053E+03</rscale>
<asrwt>0</asrwt>
<pdfrwt beam="1">  1       21 0.37807735E-01 0.27363053E+03</pdfrwt>
<pdfrwt beam="2">  1       21 0.11154180E+00 0.27363053E+03</pdfrwt>
<totfact> 0.40228216E+03</totfact>
</mgrwt>
</event>
<event>
 5    0  0.2159162E+000  0.3085208E+03  0.7546771E-02  0.1081057E+00
         21   -1    0    0  502  501  0.00000000000E+00  0.00000000000E+00  0.26882297981E+03  0.26882297981E+03  0.00000000000E+00 0.  1.
         21   -1    0    0  503  502 -0.00000000000E+00 -0.00000000000E+00 -0.60103811128E+03  0.60103811128E+03  0.00000000000E+00 0. -1.
         25    1    1    2    0    0 -0.29197195051E+03 -0.46682211373E+02  0.49007831365E+02  0.32473622570E+03  0.12500000000E+03 0.  0.
         21    1    1    2  503  504  0.25602217208E+03 -0.68750693129E+02 -0.29510924471E+03  0.39669065620E+03  0.00000000000E+00 0. -1.
         21    1    1    2  504  501  0.35949778432E+02  0.11543290450E+03 -0.86113718133E+02  0.14843420920E+03  0.00000000000E+00 0.  1.
<mgrwt>
<rscale>  4 0.30852082E+03</rscale>
<asrwt>0</asrwt>
<pdfrwt beam="1">  1       21 0.41357382E-01 0.30852082E+03</pdfrwt>
<pdfrwt beam="2">  1       21 0.92467401E-01 0.30852082E+03</pdfrwt>
<totfact> 0.51661263E+03</totfact>
</mgrwt>
</event>
<event>
 5    0  0.3091907E+000  0.3036739E+03  0.7546771E-02  0.1083418E+00
         21   -1    0    0  502  501  0.00000000000E+00  0.00000000000E+00  0.23766803764E+03  0.23766803764E+03  0.00000000000E+00 0. -1.
         21   -1    0    0  503  502 -0.00000000000E+00 -0.00000000000E+00 -0.44704096332E+03  0.44704096332E+03  0.00000000000E+00 0. -1.
         25    1    1    2    0    0 -0.13292301337E+03  0.25004351688E+03 -0.22744792294E+03  0.38411957184E+03  0.12500000000E+03 0.  0.
         21    1    1    2  503  504  0.30632780772E+02 -0.40106634046E+01  0.14470758194E+02  0.34115326783E+02  0.00000000000E+00 0. -1.
         21    1    1    2  504  501  0.10229023260E+03 -0.24603285348E+03  0.36042390695E+01  0.26647410234E+03  0.00000000000E+00 0. -1.
<mgrwt>
<rscale>  4 0.30367392E+03</rscale>
<asrwt>0</asrwt>
<pdfrwt beam="1">  1       21 0.36564313E-01 0.30367392E+03</pdfrwt>
<pdfrwt beam="2">  1       21 0.68775533E-01 0.30367392E+03</pdfrwt>
<totfact> 0.13096601E+04</totfact>
</mgrwt>
</event>
<event>
 5    0  0.2159162E+000  0.2382145E+03  0.7546771E-02  0.1120988E+00
         21   -1    0    0  502  501  0.00000000000E+00  0.00000000000E+00  0.91809041252E+02  0.91809041252E+02  0.00000000000E+00 0.  1.
         21   -1    0    0  503  502 -0.00000000000E+00 -0.00000000000E+00 -0.11149645010E+04  0.11149645010E+04  0.00000000000E+00 0.  1.
         25    1    1    2    0    0  0.13843615908E+03  0.14817756996E+03 -0.95326639170E+02  0.25658006648E+03  0.12500000000E+03 0.  0.
         21    1    1    2  503  504 -0.80412397702E+01 -0.20020938931E+02 -0.78647065395E+02  0.81552807603E+02  0.00000000000E+00 0.  1.
         21    1    1    2  504  501 -0.13039491931E+03 -0.12815663103E+03 -0.84918175516E+03  0.86864066815E+03  0.00000000000E+00 0.  1.
<mgrwt>
<rscale>  4 0.23821453E+03</rscale>
<asrwt>0</asrwt>
<pdfrwt beam="1">  1       21 0.14124469E-01 0.23821453E+03</pdfrwt>
<pdfrwt beam="2">  1       21 0.17153299E+00 0.23821453E+03</pdfrwt>
<totfact> 0.88043189E+03</totfact>
</mgrwt>
</event>
<event>
 5    0  0.2159162E+000  0.2510822E+03  0.7546771E-02  0.1112623E+00
         21   -1    0    0  502  501  0.00000000000E+00  0.00000000000E+00  0.78986953609E+02  0.78986953609E+02  0.00000000000E+00 0. -1.
         21   -1    0    0  503  502 -0.00000000000E+00 -0.00000000000E+00 -0.78522855769E+03  0.78522855769E+03  0.00000000000E+00 0. -1.
         25    1    1    2    0    0  0.27381306085E+02  0.21602664552E+03 -0.29448618422E+03  0.38699400537E+03  0.12500000000E+03 0.  0.
         21    1    1    2  503  504  0.39026735068E+02 -0.62379646745E+02 -0.11540078415E+03  0.13686360860E+03  0.00000000000E+00 0. -1.
         21    1    1    2  504  501 -0.66408041154E+02 -0.15364699877E+03 -0.29635463572E+03  0.34035789733E+03  0.00000000000E+00 0. -1.
<mgrwt>
<rscale>  4 0.25108215E+03</rscale>
<asrwt>0</asrwt>
<pdfrwt beam="1">  1       21 0.12151839E-01 0.25108215E+03</pdfrwt>
<pdfrwt beam="2">  1       21 0.12080440E+00 0.25108215E+03</pdfrwt>
<totfact> 0.28875856E+04</totfact>
</mgrwt>
</event>
<event>
 5    0  0.2159162E+000  0.2571055E+03  0.7546771E-02  0.1108895E+00
         21   -1    0    0  502  501  0.00000000000E+00  0.00000000000E+00  0.60046373899E+03  0.60046373899E+03  0.00000000000E+00 0. -1.
         21   -1    0    0  503  502 -0.00000000000E+00 -0.00000000000E+00 -0.29170987977E+03  0.29170987977E+03  0.00000000000E+00 0. -1.
         25    1    1    2    0    0 -0.22847422541E+03  0.13098446596E+02  0.50100770049E+03  0.56480594626E+03  0.12500000000E+03 0.  0.
         21    1    1    2  503  504  0.36115011447E+02  0.47077763412E+02 -0.21180517553E+02  0.63001779210E+02  0.00000000000E+00 0.  1.
         21    1    1    2  504  501  0.19235921396E+03 -0.60176210008E+02 -0.17107332371E+03  0.26436589329E+03  0.00000000000E+00 0. -1.
<mgrwt>
<rscale>  4 0.25710550E+03</rscale>
<asrwt>0</asrwt>
<pdfrwt beam="1">  1       21 0.92379037E-01 0.25710550E+03</pdfrwt>
<pdfrwt beam="2">  1       21 0.44878443E-01 0.25710550E+03</pdfrwt>
<totfact> 0.45012682E+03</totfact>
</mgrwt>
</event>
