<event>
 5    0  0.2629946E-001  0.4496320E+03  0.7546771E-02  0.1027832E+00
         21   -1    0    0  504  501  0.00000000000E+00  0.00000000000E+00  0.23579631459E+03  0.23579631459E+03  0.00000000000E+00 0.  1.
         21   -1    0    0  501  502 -0.00000000000E+00 -0.00000000000E+00 -0.21434703757E+03  0.21434703757E+03  0.00000000000E+00 0.  1.
         25    1    1    2    0    0  0.64063003898E-02 -0.20598842568E+03  0.17431994048E+02  0.24157836404E+03  0.12500000000E+03 0.  0.
         21    1    1    2  503  502 -0.77450793760E+01  0.29312976339E+02 -0.78617345771E+01  0.31321617246E+02  0.00000000000E+00 0. -1.
         21    1    1    2  504  503  0.77386730756E+01  0.17667544934E+03  0.11879017551E+02  0.17724337087E+03  0.00000000000E+00 0.  1.
<mgrwt>
<rscale>  4 0.44963203E+03</rscale>
<asrwt>0</asrwt>
<pdfrwt beam="1">  1       21 0.36276356E-01 0.44963203E+03</pdfrwt>
<pdfrwt beam="2">  1       21 0.32976467E-01 0.44963203E+03</pdfrwt>
<totfact> 0.59973004E+04</totfact>
</mgrwt>
</event>
<event>
 5    0  0.2629946E-001  0.6096447E+03  0.7546771E-02  0.9885596E-01
         21   -1    0    0  504  501  0.00000000000E+00  0.00000000000E+00  0.19019315495E+03  0.19019315495E+03  0.00000000000E+00 0.  1.
         21   -1    0    0  501  502 -0.00000000000E+00 -0.00000000000E+00 -0.48853848079E+03  0.48853848079E+03  0.00000000000E+00 0.  1.
         25    1    1    2    0    0  0.20973924444E+02  0.24029520046E+03 -0.14995649839E+02  0.27208740946E+03  0.12500000000E+03 0.  0.
         21    1    1    2  503  502 -0.73306340836E+02 -0.22547883840E+03 -0.22469870060E+03  0.32665583146E+03  0.00000000000E+00 0.  1.
         21    1    1    2  504  503  0.52332416392E+02 -0.14816362057E+02 -0.58650975402E+02  0.79988394819E+02  0.00000000000E+00 0.  1.
<mgrwt>
<rscale>  4 0.60964473E+03</rscale>
<asrwt>0</asrwt>
<pdfrwt beam="1">  1       21 0.29260486E-01 0.60964473E+03</pdfrwt>
<pdfrwt beam="2">  1       21 0.75159766E-01 0.60964473E+03</pdfrwt>
<totfact> 0.15348241E+04</totfact>
</mgrwt>
</event>
<event>
 5    0  0.2629946E-001  0.5934766E+03  0.7546771E-02  0.9919033E-01
         21   -1    0    0  504  501  0.00000000000E+00  0.00000000000E+00  0.13060839440E+03  0.13060839440E+03  0.00000000000E+00 0. -1.
         21   -1    0    0  501  502 -0.00000000000E+00 -0.00000000000E+00 -0.67418030310E+03  0.67418030310E+03  0.00000000000E+00 0. -1.
         25    1    1    2    0    0  0.13347970273E+03  0.24310409970E+03 -0.27758538205E+03  0.41181923057E+03  0.12500000000E+03 0.  0.
         21    1    1    2  503  502 -0.87887627191E+02 -0.21456012580E+03 -0.18943553942E+03  0.29940959602E+03  0.00000000000E+00 0. -1.
         21    1    1    2  504  503 -0.45592075538E+02 -0.28543973908E+02 -0.76550987229E+02  0.93559870907E+02  0.00000000000E+00 0.  1.
<mgrwt>
<rscale>  4 0.59347656E+03</rscale>
<asrwt>0</asrwt>
<pdfrwt beam="1">  1       21 0.20093599E-01 0.59347656E+03</pdfrwt>
<pdfrwt beam="2">  1       21 0.10372005E+00 0.59347656E+03</pdfrwt>
<totfact> 0.14908359E+04</totfact>
</mgrwt>
</event>
<event>
 5    0  0.2629946E-001  0.4704609E+03  0.7546771E-02  0.1021790E+00
         21   -1    0    0  504  501  0.00000000000E+00  0.00000000000E+00  0.18273185037E+03  0.18273185037E+03  0.00000000000E+00 0.  1.
         21   -1    0    0  501  502 -0.00000000000E+00 -0.00000000000E+00 -0.30281184520E+03  0.30281184520E+03  0.00000000000E+00 0.  1.
         25    1    1    2    0    0  0.19749526443E+03  0.70159265106E+02 -0.10399592313E+03  0.26526751399E+03  0.12500000000E+03 0.  0.
         21    1    1    2  503  502 -0.37179331522E+02 -0.22877816482E+02  0.21947744347E+02  0.48861034182E+02  0.00000000000E+00 0.  1.
         21    1    1    2  504  503 -0.16031593291E+03 -0.47281448623E+02 -0.38031816048E+02  0.17141514740E+03  0.00000000000E+00 0.  1.
<mgrwt>
<rscale>  4 0.47046092E+03</rscale>
<asrwt>0</asrwt>
<pdfrwt beam="1">  1       21 0.28112592E-01 0.47046092E+03</pdfrwt>
<pdfrwt beam="2">  1       21 0.46586438E-01 0.47046092E+03</pdfrwt>
<totfact> 0.48897223E+04</totfact>
</mgrwt>
</event>
<event>
 5    0  0.2629946E-001  0.5068385E+03  0.7546771E-02  0.1012009E+00
         21   -1    0    0  502  501  0.00000000000E+00  0.00000000000E+00  0.40630828298E+03  0.40630828298E+03  0.00000000000E+00 0.  1.
         21   -1    0    0  504  502 -0.00000000000E+00 -0.00000000000E+00 -0.15806056748E+03  0.15806056748E+03  0.00000000000E+00 0.  1.
         25    1    1    2    0    0 -0.22642450694E+03  0.51343118642E+02  0.14988408750E+03  0.30330580749E+03  0.12500000000E+03 0.  0.
         21    1    1    2  503  501  0.52511289816E+02 -0.12003108074E+02  0.56185495704E+02  0.77835211113E+02  0.00000000000E+00 0.  1.
         21    1    1    2  504  503  0.17391321712E+03 -0.39340010568E+02  0.42178132290E+02  0.18322783185E+03  0.00000000000E+00 0.  1.
<mgrwt>
<rscale>  4 0.50683851E+03</rscale>
<asrwt>0</asrwt>
<pdfrwt beam="1">  1       21 0.62508966E-01 0.50683851E+03</pdfrwt>
<pdfrwt beam="2">  1       21 0.24317010E-01 0.50683851E+03</pdfrwt>
<totfact> 0.34187949E+04</totfact>
</mgrwt>
</event>
<event>
 5    0  0.2629946E-001  0.6585498E+03  0.7546771E-02  0.9790867E-01
         21   -1    0    0  502  501  0.00000000000E+00  0.00000000000E+00  0.10687155663E+04  0.10687155663E+04  0.00000000000E+00 0. -1.
         21   -1    0    0  504  502 -0.00000000000E+00 -0.00000000000E+00 -0.10145070832E+03  0.10145070832E+03  0.00000000000E+00 0. -1.
         25    1    1    2    0    0 -0.21551475996E+03  0.10319356678E+03  0.24614708056E+03  0.36511492609E+03  0.12500000000E+03 0.  0.
         21    1    1    2  503  501  0.15030479324E+02 -0.20585509580E+02  0.48038265913E+03  0.48105839324E+03  0.00000000000E+00 0.  1.
         21    1    1    2  504  503  0.20048428063E+03 -0.82608057203E+02  0.24073511826E+03  0.32399295526E+03  0.00000000000E+00 0. -1.
<mgrwt>
<rscale>  4 0.65854977E+03</rscale>
<asrwt>0</asrwt>
<pdfrwt beam="1">  1       21 0.16441777E+00 0.65854977E+03</pdfrwt>
<pdfrwt beam="2">  1       21 0.15607802E-01 0.65854977E+03</pdfrwt>
<totfact> 0.70392134E+03</totfact>
</mgrwt>
</event>
<event>
 5    0  0.2629946E-001  0.4493731E+03  0.7546771E-02  0.1027909E+00
         21   -1    0    0  504  501  0.00000000000E+00  0.00000000000E+00  0.15718558489E+04  0.15718558489E+04  0.00000000000E+00 0. -1.
         21   -1    0    0  501  502 -0.00000000000E+00 -0.00000000000E+00 -0.32117475759E+02  0.32117475759E+02  0.00000000000E+00 0. -1.
         25    1    1    2    0    0  0.55601289170E+02  0.19373928151E+03  0.68974436592E+03  0.72938241196E+03  0.12500000000E+03 0.  0.
         21    1    1    2  503  502 -0.41901755283E+02 -0.17206480717E+03  0.78486585109E+03  0.80459707878E+03  0.00000000000E+00 0. -1.
         21    1    1    2  504  503 -0.13699533887E+02 -0.21674474342E+02  0.65128156112E+02  0.69993833909E+02  0.00000000000E+00 0. -1.
<mgrwt>
<rscale>  4 0.44937308E+03</rscale>
<asrwt>0</asrwt>
<pdfrwt beam="1">  1       21 0.24182392E+00 0.44937308E+03</pdfrwt>
<pdfrwt beam="2">  1       21 0.49411513E-02 0.44937308E+03</pdfrwt>
<totfact> 0.17700451E+04</totfact>
</mgrwt>
</event>
<event>
 5    0  0.2629946E-001  0.5006743E+03  0.7546771E-02  0.1013603E+00
         21   -1    0    0  504  501  0.00000000000E+00  0.00000000000E+00  0.33553292101E+03  0.33553292101E+03  0.00000000000E+00 0. -1.
         21   -1    0    0  501  502 -0.00000000000E+00 -0.00000000000E+00 -0.18677357803E+03  0.18677357803E+03  0.00000000000E+00 0. -1.
         25    1    1    2    0    0 -0.21494353691E+03  0.59095136039E+02  0.15114042574E+03  0.29691983338E+03  0.12500000000E+03 0.  0.
         21    1    1    2  503  502  0.18177071704E+03 -0.48538270452E+02 -0.14068571347E+02  0.18866499933E+03  0.00000000000E+00 0. -1.
         21    1    1    2  504  503  0.33172819866E+02 -0.10556865587E+02  0.11687488581E+02  0.36721666332E+02  0.00000000000E+00 0. -1.
<mgrwt>
<rscale>  4 0.50067428E+03</rscale>
<asrwt>0</asrwt>
<pdfrwt beam="1">  1       21 0.51620449E-01 0.50067428E+03</pdfrwt>
<pdfrwt beam="2">  1       21 0.28734397E-01 0.50067428E+03</pdfrwt>
<totfact> 0.37418581E+04</totfact>
</mgrwt>
</event>
<event>
 5    0  0.2629946E-001  0.4852601E+03  0.7546771E-02  0.1017699E+00
         21   -1    0    0  504  501  0.00000000000E+00  0.00000000000E+00  0.38204574004E+03  0.38204574004E+03  0.00000000000E+00 0.  1.
         21   -1    0    0  501  502 -0.00000000000E+00 -0.00000000000E+00 -0.15408980361E+03  0.15408980361E+03  0.00000000000E+00 0.  1.
         25    1    1    2    0    0  0.19526584095E+03  0.65047916603E+02  0.58836968182E+02  0.24788458791E+03  0.12500000000E+03 0.  0.
         21    1    1    2  503  502 -0.16332855686E+03 -0.53320790198E+01  0.10051723434E+03  0.19185505715E+03  0.00000000000E+00 0.  1.
         21    1    1    2  504  503 -0.31937284090E+02 -0.59715837584E+02  0.68601733906E+02  0.96395898607E+02  0.00000000000E+00 0. -1.
<mgrwt>
<rscale>  4 0.48526015E+03</rscale>
<asrwt>0</asrwt>
<pdfrwt beam="1">  1       21 0.58776267E-01 0.48526015E+03</pdfrwt>
<pdfrwt beam="2">  1       21 0.23706124E-01 0.48526015E+03</pdfrwt>
<totfact> 0.41316849E+04</totfact>
</mgrwt>
</event>
<event>
 5    0  0.2629946E-001  0.4970168E+03  0.7546771E-02  0.1014561E+00
         21   -1    0    0  504  501  0.00000000000E+00  0.00000000000E+00  0.39284676298E+03  0.39284676298E+03  0.00000000000E+00 0. -1.
         21   -1    0    0  501  502 -0.00000000000E+00 -0.00000000000E+00 -0.15720231574E+03  0.15720231574E+03  0.00000000000E+00 0. -1.
         25    1    1    2    0    0  0.49366387315E+02  0.22274127475E+03  0.15762383206E+03  0.30417262879E+03  0.12500000000E+03 0.  0.
         21    1    1    2  503  502 -0.53577345787E+02 -0.17309734203E+03  0.47033743290E+02  0.18720415275E+03  0.00000000000E+00 0. -1.
         21    1    1    2  504  503  0.42109584719E+01 -0.49643932720E+02  0.30986871883E+02  0.58672297179E+02  0.00000000000E+00 0. -1.
<mgrwt>
<rscale>  4 0.49701678E+03</rscale>
<asrwt>0</asrwt>
<pdfrwt beam="1">  1       21 0.60437963E-01 0.49701678E+03</pdfrwt>
<pdfrwt beam="2">  1       21 0.24184972E-01 0.49701678E+03</pdfrwt>
<totfact> 0.37293972E+04</totfact>
</mgrwt>
</event>
<event>
 5    0  0.2629946E-001  0.4661584E+03  0.7546771E-02  0.1023010E+00
         21   -1    0    0  504  501  0.00000000000E+00  0.00000000000E+00  0.43444048714E+03  0.43444048714E+03  0.00000000000E+00 0. -1.
         21   -1    0    0  501  502 -0.00000000000E+00 -0.00000000000E+00 -0.12504799962E+03  0.12504799962E+03  0.00000000000E+00 0. -1.
         25    1    1    2    0    0  0.20477959487E+03  0.36563508217E+02  0.18054024950E+03  0.30247537800E+03  0.12500000000E+03 0.  0.
         21    1    1    2  503  502 -0.11168744522E+03  0.19031033569E+02  0.55990461673E+02  0.12637720307E+03  0.00000000000E+00 0. -1.
         21    1    1    2  504  503 -0.93092149647E+02 -0.55594541786E+02  0.72861776349E+02  0.13063590569E+03  0.00000000000E+00 0. -1.
<mgrwt>
<rscale>  4 0.46615840E+03</rscale>
<asrwt>0</asrwt>
<pdfrwt beam="1">  1       21 0.66836997E-01 0.46615840E+03</pdfrwt>
<pdfrwt beam="2">  1       21 0.19238154E-01 0.46615840E+03</pdfrwt>
<totfact> 0.46603485E+04</totfact>
</mgrwt>
</event>
<event>
 5    0  0.2629946E-001  0.6344761E+03  0.7546771E-02  0.9836353E-01
         21   -1    0    0  504  501  0.00000000000E+00  0.00000000000E+00  0.20269218794E+04  0.20269218794E+04  0.00000000000E+00 0. -1.
         21   -1    0    0  501  502 -0.00000000000E+00 -0.00000000000E+00 -0.49651628563E+02  0.49651628563E+02  0.00000000000E+00 0. -1.
         25    1    1    2    0    0  0.28309372547E+03  0.73281429555E+02  0.11257123789E+04  0.11697715953E+04  0.12500000000E+03 0.  0.
         21    1    1    2  503  502 -0.10950739979E+03 -0.69587221488E+02  0.26453639339E+03  0.29464174082E+03  0.00000000000E+00 0. -1.
         21    1    1    2  504  503 -0.17358632569E+03 -0.36942080666E+01  0.58702147862E+03  0.61216017185E+03  0.00000000000E+00 0. -1.
<mgrwt>
<rscale>  4 0.63447607E+03</rscale>
<asrwt>0</asrwt>
<pdfrwt beam="1">  1       21 0.31183407E+00 0.63447607E+03</pdfrwt>
<pdfrwt beam="2">  1       21 0.76387136E-02 0.63447607E+03</pdfrwt>
<totfact> 0.28879460E+03</totfact>
</mgrwt>
</event>
<event>
 5    0  0.2629946E-001  0.4808617E+03  0.7546771E-02  0.1018899E+00
         21   -1    0    0  504  501  0.00000000000E+00  0.00000000000E+00  0.26312638886E+02  0.26312638886E+02  0.00000000000E+00 0. -1.
         21   -1    0    0  501  502 -0.00000000000E+00 -0.00000000000E+00 -0.21969286804E+04  0.21969286804E+04  0.00000000000E+00 0. -1.
         25    1    1    2    0    0  0.65679976440E+02 -0.19523995914E+03 -0.15393488567E+04  0.15580925529E+04  0.12500000000E+03 0.  0.
         21    1    1    2  503  502 -0.69731116530E+02  0.16661183174E+03 -0.54921364594E+03  0.57815011889E+03  0.00000000000E+00 0. -1.
         21    1    1    2  504  503  0.40511400901E+01  0.28628127401E+02 -0.82053538900E+02  0.86998647463E+02  0.00000000000E+00 0. -1.
<mgrwt>
<rscale>  4 0.48086169E+03</rscale>
<asrwt>0</asrwt>
<pdfrwt beam="1">  1       21 0.40480992E-02 0.48086169E+03</pdfrwt>
<pdfrwt beam="2">  1       21 0.33798895E+00 0.48086169E+03</pdfrwt>
<totfact> 0.64212173E+03</totfact>
</mgrwt>
</event>
<event>
 5    0  0.2629946E-001  0.4870084E+03  0.7546771E-02  0.1017227E+00
         21   -1    0    0  504  501  0.00000000000E+00  0.00000000000E+00  0.68285257752E+03  0.68285257752E+03  0.00000000000E+00 0.  1.
         21   -1    0    0  501  502 -0.00000000000E+00 -0.00000000000E+00 -0.86833228297E+02  0.86833228297E+02  0.00000000000E+00 0.  1.
         25    1    1    2    0    0  0.20285898153E+03  0.32718784072E+02  0.45889434034E+03  0.51810356186E+03  0.12500000000E+03 0.  0.
         21    1    1    2  503  502 -0.17435469352E+03 -0.44668629038E+02  0.11541806548E+03  0.21381341261E+03  0.00000000000E+00 0.  1.
         21    1    1    2  504  503 -0.28504288008E+02  0.11949844966E+02  0.21706943405E+02  0.37768831350E+02  0.00000000000E+00 0. -1.
<mgrwt>
<rscale>  4 0.48700839E+03</rscale>
<asrwt>0</asrwt>
<pdfrwt beam="1">  1       21 0.10505424E+00 0.48700839E+03</pdfrwt>
<pdfrwt beam="2">  1       21 0.13358959E-01 0.48700839E+03</pdfrwt>
<totfact> 0.31811147E+04</totfact>
</mgrwt>
</event>
<event>
 5    0  0.2629946E-001  0.5583908E+03  0.7546771E-02  0.9995702E-01
         21   -1    0    0  502  501  0.00000000000E+00  0.00000000000E+00  0.37016289113E+03  0.37016289113E+03  0.00000000000E+00 0. -1.
         21   -1    0    0  504  502 -0.00000000000E+00 -0.00000000000E+00 -0.21058315696E+03  0.21058315696E+03  0.00000000000E+00 0. -1.
         25    1    1    2    0    0 -0.21209280646E+03 -0.78905440255E+01  0.11983484603E+03  0.27391788836E+03  0.12500000000E+03 0.  0.
         21    1    1    2  503  501  0.20099245589E+03  0.89392633475E+02  0.13096189962E+02  0.22036451719E+03  0.00000000000E+00 0. -1.
         21    1    1    2  504  503  0.11100350578E+02 -0.81502089450E+02  0.26648698185E+02  0.86463642547E+02  0.00000000000E+00 0. -1.
<mgrwt>
<rscale>  4 0.55839080E+03</rscale>
<asrwt>0</asrwt>
<pdfrwt beam="1">  1       21 0.56948137E-01 0.55839080E+03</pdfrwt>
<pdfrwt beam="2">  1       21 0.32397409E-01 0.55839080E+03</pdfrwt>
<totfact> 0.23533599E+04</totfact>
</mgrwt>
</event>
<event>
 5    0  0.2629946E-001  0.9788978E+03  0.7546771E-02  0.9331997E-01
         21   -1    0    0  504  501  0.00000000000E+00  0.00000000000E+00  0.91348064140E+03  0.91348064140E+03  0.00000000000E+00 0.  1.
         21   -1    0    0  501  502 -0.00000000000E+00 -0.00000000000E+00 -0.26224992830E+03  0.26224992830E+03  0.00000000000E+00 0.  1.
         25    1    1    2    0    0 -0.23373283163E+03 -0.40299319011E+03  0.37514997079E+03  0.61106222960E+03  0.12500000000E+03 0.  0.
         21    1    1    2  503  502  0.20198514355E+03  0.21877046241E+03  0.21761072153E+03  0.36879932153E+03  0.00000000000E+00 0.  1.
         21    1    1    2  504  503  0.31747688078E+02  0.18422272770E+03  0.58470020780E+02  0.19586901856E+03  0.00000000000E+00 0.  1.
<mgrwt>
<rscale>  4 0.97889781E+03</rscale>
<asrwt>0</asrwt>
<pdfrwt beam="1">  1       21 0.14053548E+00 0.97889781E+03</pdfrwt>
<pdfrwt beam="2">  1       21 0.40346143E-01 0.97889781E+03</pdfrwt>
<totfact> 0.15679447E+03</totfact>
</mgrwt>
</event>
<event>
 5    0  0.2629946E-001  0.5802852E+03  0.7546771E-02  0.9947174E-01
         21   -1    0    0  502  501  0.00000000000E+00  0.00000000000E+00  0.80296839068E+02  0.80296839068E+02  0.00000000000E+00 0.  1.
         21   -1    0    0  504  502 -0.00000000000E+00 -0.00000000000E+00 -0.10483939619E+04  0.10483939619E+04  0.00000000000E+00 0.  1.
         25    1    1    2    0    0  0.12875549789E+02 -0.26779032594E+03 -0.57411221617E+03  0.64583842810E+03  0.12500000000E+03 0.  0.
         21    1    1    2  503  501 -0.24903312074E+02  0.32718758221E+02 -0.37377227258E+02  0.55567519373E+02  0.00000000000E+00 0.  1.
         21    1    1    2  504  503  0.12027762284E+02  0.23507156772E+03 -0.35660767936E+03  0.42728485346E+03  0.00000000000E+00 0.  1.
<mgrwt>
<rscale>  4 0.58028518E+03</rscale>
<asrwt>0</asrwt>
<pdfrwt beam="1">  1       21 0.12353360E-01 0.58028518E+03</pdfrwt>
<pdfrwt beam="2">  1       21 0.16129137E+00 0.58028518E+03</pdfrwt>
<totfact> 0.11685309E+04</totfact>
</mgrwt>
</event>
<event>
 5    0  0.2629946E-001  0.5276554E+03  0.7546771E-02  0.1006802E+00
         21   -1    0    0  504  501  0.00000000000E+00  0.00000000000E+00  0.61662642407E+02  0.61662642407E+02  0.00000000000E+00 0. -1.
         21   -1    0    0  501  502 -0.00000000000E+00 -0.00000000000E+00 -0.11288043231E+04  0.11288043231E+04  0.00000000000E+00 0. -1.
         25    1    1    2    0    0 -0.13199271822E+03  0.17366249736E+03 -0.32131945017E+03  0.40798520771E+03  0.12500000000E+03 0.  0.
         21    1    1    2  503  502  0.12310192053E+03 -0.92280446000E+02 -0.45189809550E+03  0.47736951334E+03  0.00000000000E+00 0.  1.
         21    1    1    2  504  503  0.88907976874E+01 -0.81382051360E+02 -0.29392413498E+03  0.30511224441E+03  0.00000000000E+00 0.  1.
<mgrwt>
<rscale>  4 0.52765541E+03</rscale>
<asrwt>0</asrwt>
<pdfrwt beam="1">  1       21 0.94865611E-02 0.52765541E+03</pdfrwt>
<pdfrwt beam="2">  1       21 0.17366219E+00 0.52765541E+03</pdfrwt>
<totfact> 0.15498204E+04</totfact>
</mgrwt>
</event>
<event>
 5    0  0.2629946E-001  0.9824517E+03  0.7546771E-02  0.9328004E-01
         21   -1    0    0  504  501  0.00000000000E+00  0.00000000000E+00  0.13385611780E+04  0.13385611780E+04  0.00000000000E+00 0.  1.
         21   -1    0    0  501  502 -0.00000000000E+00 -0.00000000000E+00 -0.18027031057E+03  0.18027031057E+03  0.00000000000E+00 0.  1.
         25    1    1    2    0    0  0.46456319533E+03  0.12287427352E+03  0.59398481906E+03  0.77418345037E+03  0.12500000000E+03 0.  0.
         21    1    1    2  503  502 -0.49277597584E+02 -0.13398899883E+02  0.30344022844E+02  0.59401783341E+02  0.00000000000E+00 0.  1.
         21    1    1    2  504  503 -0.41528559774E+03 -0.10947537364E+03  0.53396202556E+03  0.68524625491E+03  0.00000000000E+00 0.  1.
<mgrwt>
<rscale>  4 0.98245171E+03</rscale>
<asrwt>0</asrwt>
<pdfrwt beam="1">  1       21 0.20593248E+00 0.98245171E+03</pdfrwt>
<pdfrwt beam="2">  1       21 0.27733895E-01 0.98245171E+03</pdfrwt>
<totfact> 0.10954804E+03</totfact>
</mgrwt>
</event>
<event>
 5    0  0.2629946E-001  0.5178537E+03  0.7546771E-02  0.1009221E+00
         21   -1    0    0  504  501  0.00000000000E+00  0.00000000000E+00  0.59285713039E+03  0.59285713039E+03  0.00000000000E+00 0.  1.
         21   -1    0    0  501  502 -0.00000000000E+00 -0.00000000000E+00 -0.11308477174E+03  0.11308477174E+03  0.00000000000E+00 0.  1.
         25    1    1    2    0    0  0.20416724991E+03 -0.10119642111E+03  0.14453660888E+03  0.29739000133E+03  0.12500000000E+03 0.  0.
         21    1    1    2  503  502 -0.15982546468E+03  0.81589348853E+02  0.22258572543E+03  0.28591153557E+03  0.00000000000E+00 0.  1.
         21    1    1    2  504  503 -0.44341785236E+02  0.19607072262E+02  0.11265002433E+03  0.12264036523E+03  0.00000000000E+00 0. -1.
<mgrwt>
<rscale>  4 0.51785370E+03</rscale>
<asrwt>0</asrwt>
<pdfrwt beam="1">  1       21 0.91208788E-01 0.51785370E+03</pdfrwt>
<pdfrwt beam="2">  1       21 0.17397658E-01 0.51785370E+03</pdfrwt>
<totfact> 0.27213258E+04</totfact>
</mgrwt>
</event>
<event>
 5    0  0.2629946E-001  0.5340101E+03  0.7546771E-02  0.1005264E+00
         21   -1    0    0  504  501  0.00000000000E+00  0.00000000000E+00  0.57894703654E+02  0.57894703654E+02  0.00000000000E+00 0. -1.
         21   -1    0    0  501  502 -0.00000000000E+00 -0.00000000000E+00 -0.12314025118E+04  0.12314025118E+04  0.00000000000E+00 0. -1.
         25    1    1    2    0    0  0.20680186175E+03  0.12533058093E+03 -0.46237349052E+03  0.53655289514E+03  0.12500000000E+03 0.  0.
         21    1    1    2  503  502 -0.45380096157E+02 -0.24274090969E+02 -0.22093982516E+03  0.22685455905E+03  0.00000000000E+00 0.  1.
         21    1    1    2  504  503 -0.16142176559E+03 -0.10105648996E+03 -0.49019449248E+03  0.52588976129E+03  0.00000000000E+00 0.  1.
<mgrwt>
<rscale>  4 0.53401005E+03</rscale>
<asrwt>0</asrwt>
<pdfrwt beam="1">  1       21 0.89068777E-02 0.53401005E+03</pdfrwt>
<pdfrwt beam="2">  1       21 0.18944654E+00 0.53401005E+03</pdfrwt>
<totfact> 0.13402687E+04</totfact>
</mgrwt>
</event>
<event>
 5    0  0.2629946E-001  0.7146002E+03  0.7546771E-02  0.9692585E-01
         21   -1    0    0  502  501  0.00000000000E+00  0.00000000000E+00  0.56125748005E+03  0.56125748005E+03  0.00000000000E+00 0. -1.
         21   -1    0    0  504  502 -0.00000000000E+00 -0.00000000000E+00 -0.22745953013E+03  0.22745953013E+03  0.00000000000E+00 0. -1.
         25    1    1    2    0    0 -0.16806960262E+03  0.27744581209E+03  0.14571260746E+03  0.37693598123E+03  0.12500000000E+03 0.  0.
         21    1    1    2  503  501 -0.31898301702E+02 -0.47823918026E+02  0.80431245941E+01  0.58045849465E+02  0.00000000000E+00 0. -1.
         21    1    1    2  504  503  0.19996790432E+03 -0.22962189406E+03  0.18004221786E+03  0.35373517949E+03  0.00000000000E+00 0. -1.
<mgrwt>
<rscale>  4 0.71460020E+03</rscale>
<asrwt>0</asrwt>
<pdfrwt beam="1">  1       21 0.86347304E-01 0.71460020E+03</pdfrwt>
<pdfrwt beam="2">  1       21 0.34993774E-01 0.71460020E+03</pdfrwt>
<totfact> 0.75798037E+03</totfact>
</mgrwt>
</event>
