<event>
 5    0  0.2324070E+000  0.4354554E+03  0.7546771E-02  0.1032150E+00
         21   -1    0    0  503  501  0.00000000000E+00  0.00000000000E+00  0.11162836210E+03  0.11162836210E+03  0.00000000000E+00 0. -1.
         21   -1    0    0  504  502 -0.00000000000E+00 -0.00000000000E+00 -0.99209575590E+03  0.99209575590E+03  0.00000000000E+00 0.  1.
         25    1    1    2    0    0 -0.17586237201E+03 -0.11557191500E+03 -0.12830508658E+03  0.27635418699E+03  0.12500000000E+03 0.  0.
         21    1    1    2  503  502  0.27357183658E+02  0.94061866665E+01 -0.56564398070E+03  0.56638326665E+03  0.00000000000E+00 0.  1.
         21    1    1    2  504  501  0.14850518835E+03  0.10616572834E+03 -0.18651832652E+03  0.26098666435E+03  0.00000000000E+00 0. -1.
<mgrwt>
<rscale>  4 0.43545540E+03</rscale>
<asrwt>0</asrwt>
<pdfrwt beam="1">  1       21 0.17173595E-01 0.43545540E+03</pdfrwt>
<pdfrwt beam="2">  1       21 0.15263011E+00 0.43545540E+03</pdfrwt>
<totfact> 0.77107187E+03</totfact>
</mgrwt>
</event>
<event>
 5    0  0.2324070E+000  0.4232465E+03  0.7546771E-02  0.1036015E+00
         21   -1    0    0  503  501  0.00000000000E+00  0.00000000000E+00  0.16007121485E+04  0.16007121485E+04  0.00000000000E+00 0.  1.
         21   -1    0    0  504  502 -0.00000000000E+00 -0.00000000000E+00 -0.12676579694E+03  0.12676579694E+03  0.00000000000E+00 0.  1.
         25    1    1    2    0    0 -0.61102504679E+02 -0.21909171536E+03  0.12635069343E+04  0.12898873861E+04  0.12500000000E+03 0.  0.
         21    1    1    2  503  502 -0.84047079546E+01  0.10383672072E+03 -0.70695304924E+02  0.12589888730E+03  0.00000000000E+00 0.  1.
         21    1    1    2  504  501  0.69507212634E+02  0.11525499464E+03  0.28113472221E+03  0.31169167206E+03  0.00000000000E+00 0. -1.
<mgrwt>
<rscale>  4 0.42324654E+03</rscale>
<asrwt>0</asrwt>
<pdfrwt beam="1">  1       21 0.24626339E+00 0.42324654E+03</pdfrwt>
<pdfrwt beam="2">  1       21 0.19502431E-01 0.42324654E+03</pdfrwt>
<totfact> 0.14192589E+03</totfact>
</mgrwt>
</event>
<event>
 5    0  0.2324070E+000  0.3402590E+03  0.7546771E-02  0.1066686E+00
         21   -1    0    0  503  501  0.00000000000E+00  0.00000000000E+00  0.49233278311E+02  0.49233278311E+02  0.00000000000E+00 0. -1.
         21   -1    0    0  504  502 -0.00000000000E+00 -0.00000000000E+00 -0.20945252855E+04  0.20945252855E+04  0.00000000000E+00 0. -1.
         25    1    1    2    0    0  0.21502275055E+03  0.11835192823E+03 -0.52772031903E+03  0.59527783201E+03  0.12500000000E+03 0.  0.
         21    1    1    2  503  502 -0.24427823485E+02  0.47822523833E+02 -0.21612530009E+03  0.22269678418E+03  0.00000000000E+00 0.  1.
         21    1    1    2  504  501 -0.19059492707E+03 -0.16617445206E+03 -0.13014463881E+04  0.13257839477E+04  0.00000000000E+00 0. -1.
<mgrwt>
<rscale>  4 0.34025897E+03</rscale>
<asrwt>0</asrwt>
<pdfrwt beam="1">  1       21 0.75743499E-02 0.34025897E+03</pdfrwt>
<pdfrwt beam="2">  1       21 0.32223469E+00 0.34025897E+03</pdfrwt>
<totfact> 0.29203399E+03</totfact>
</mgrwt>
</event>
<event>
 5    0  0.2324070E+000  0.5070751E+03  0.7546771E-02  0.1011949E+00
         21   -1    0    0  503  501  0.00000000000E+00  0.00000000000E+00  0.50395230709E+03  0.50395230709E+03  0.00000000000E+00 0. -1.
         21   -1    0    0  504  502 -0.00000000000E+00 -0.00000000000E+00 -0.37046014206E+03  0.37046014206E+03  0.00000000000E+00 0. -1.
         25    1    1    2    0    0 -0.62288111961E+02  0.20211092507E+03  0.37394797505E+03  0.44742677945E+03  0.12500000000E+03 0.  0.
         21    1    1    2  503  502  0.45271215011E+01 -0.27984711134E+02 -0.24186813026E+03  0.24352377979E+03  0.00000000000E+00 0. -1.
         21    1    1    2  504  501  0.57760990459E+02 -0.17412621394E+03  0.14123202495E+01  0.18346188991E+03  0.00000000000E+00 0. -1.
<mgrwt>
<rscale>  4 0.50707510E+03</rscale>
<asrwt>0</asrwt>
<pdfrwt beam="1">  1       21 0.77531125E-01 0.50707510E+03</pdfrwt>
<pdfrwt beam="2">  1       21 0.56993868E-01 0.50707510E+03</pdfrwt>
<totfact> 0.36658980E+03</totfact>
</mgrwt>
</event>
<event>
 5    0  0.2324070E+000  0.4583540E+03  0.7546771E-02  0.1025260E+00
         21   -1    0    0  503  501  0.00000000000E+00  0.00000000000E+00  0.50261743307E+03  0.50261743307E+03  0.00000000000E+00 0.  1.
         21   -1    0    0  504  502 -0.00000000000E+00 -0.00000000000E+00 -0.41221311998E+03  0.41221311998E+03  0.00000000000E+00 0.  1.
         25    1    1    2    0    0  0.80523531298E+01 -0.21547126567E+03  0.14294269814E+03  0.28731571776E+03  0.12500000000E+03 0.  0.
         21    1    1    2  503  502 -0.17018745395E+02  0.22735272663E+02 -0.30692395983E+03  0.30823505225E+03  0.00000000000E+00 0.  1.
         21    1    1    2  504  501  0.89663922654E+01  0.19273599301E+03  0.25438557479E+03  0.31927978303E+03  0.00000000000E+00 0.  1.
<mgrwt>
<rscale>  4 0.45835395E+03</rscale>
<asrwt>0</asrwt>
<pdfrwt beam="1">  1       21 0.77325760E-01 0.45835395E+03</pdfrwt>
<pdfrwt beam="2">  1       21 0.63417403E-01 0.45835395E+03</pdfrwt>
<totfact> 0.29638318E+03</totfact>
</mgrwt>
</event>
<event>
 5    0  0.2324070E+000  0.1031895E+04  0.7546771E-02  0.9274239E-01
         21   -1    0    0  503  501  0.00000000000E+00  0.00000000000E+00  0.35360579963E+03  0.35360579963E+03  0.00000000000E+00 0.  1.
         21   -1    0    0  504  502 -0.00000000000E+00 -0.00000000000E+00 -0.12932737944E+04  0.12932737944E+04  0.00000000000E+00 0.  1.
         25    1    1    2    0    0 -0.30761920180E+03  0.30929949940E+03  0.57427876746E+02  0.45740432297E+03  0.12500000000E+03 0.  0.
         21    1    1    2  503  502  0.38305276124E+03 -0.24341997489E+03 -0.47157587873E+03  0.65449714397E+03  0.00000000000E+00 0.  1.
         21    1    1    2  504  501 -0.75433559443E+02 -0.65879524504E+02 -0.52551999279E+03  0.53497812709E+03  0.00000000000E+00 0.  1.
<mgrwt>
<rscale>  4 0.10318945E+04</rscale>
<asrwt>0</asrwt>
<pdfrwt beam="1">  1       21 0.54400892E-01 0.10318945E+04</pdfrwt>
<pdfrwt beam="2">  1       21 0.19896520E+00 0.10318945E+04</pdfrwt>
<totfact> 0.29629333E+02</totfact>
</mgrwt>
</event>
<event>
 5    0  0.2324070E+000  0.5122838E+03  0.7546771E-02  0.1010621E+00
         21   -1    0    0  503  501  0.00000000000E+00  0.00000000000E+00  0.70345579117E+03  0.70345579117E+03  0.00000000000E+00 0.  1.
         21   -1    0    0  504  502 -0.00000000000E+00 -0.00000000000E+00 -0.24690962360E+03  0.24690962360E+03  0.00000000000E+00 0.  1.
         25    1    1    2    0    0  0.10606197506E+03  0.18542580577E+03  0.19800555118E+03  0.31695909878E+03  0.12500000000E+03 0.  0.
         21    1    1    2  503  502 -0.59167011391E+02  0.57871625458E+02 -0.14086980624E+03  0.16338348319E+03  0.00000000000E+00 0.  1.
         21    1    1    2  504  501 -0.46894963672E+02 -0.24329743123E+03  0.39941042262E+03  0.47002283281E+03  0.00000000000E+00 0.  1.
<mgrwt>
<rscale>  4 0.51228382E+03</rscale>
<asrwt>0</asrwt>
<pdfrwt beam="1">  1       21 0.10822397E+00 0.51228382E+03</pdfrwt>
<pdfrwt beam="2">  1       21 0.37986096E-01 0.51228382E+03</pdfrwt>
<totfact> 0.38861547E+03</totfact>
</mgrwt>
</event>
<event>
 5    0  0.2324070E+000  0.5043401E+03  0.7546771E-02  0.1012652E+00
         21   -1    0    0  503  501  0.00000000000E+00  0.00000000000E+00  0.52920546639E+02  0.52920546639E+02  0.00000000000E+00 0.  1.
         21   -1    0    0  504  502 -0.00000000000E+00 -0.00000000000E+00 -0.12989439604E+04  0.12989439604E+04  0.00000000000E+00 0.  1.
         25    1    1    2    0    0 -0.16496048087E+03 -0.16806204545E+03 -0.52985087052E+03  0.59314733107E+03  0.12500000000E+03 0.  0.
         21    1    1    2  503  502 -0.94092272422E+01  0.17668584447E+02 -0.49309624818E+02  0.53217962507E+02  0.00000000000E+00 0. -1.
         21    1    1    2  504  501  0.17436970811E+03  0.15039346100E+03 -0.66686291840E+03  0.70549921343E+03  0.00000000000E+00 0.  1.
<mgrwt>
<rscale>  4 0.50434012E+03</rscale>
<asrwt>0</asrwt>
<pdfrwt beam="1">  1       21 0.81416228E-02 0.50434012E+03</pdfrwt>
<pdfrwt beam="2">  1       21 0.19983753E+00 0.50434012E+03</pdfrwt>
<totfact> 0.13484388E+04</totfact>
</mgrwt>
</event>
<event>
 5    0  0.2324070E+000  0.7316236E+03  0.7546771E-02  0.9664629E-01
         21   -1    0    0  503  501  0.00000000000E+00  0.00000000000E+00  0.89658714887E+03  0.89658714887E+03  0.00000000000E+00 0.  1.
         21   -1    0    0  504  502 -0.00000000000E+00 -0.00000000000E+00 -0.18362486610E+03  0.18362486610E+03  0.00000000000E+00 0.  1.
         25    1    1    2    0    0 -0.26436809966E+03  0.23939630712E+03  0.49920813003E+03  0.62612685701E+03  0.12500000000E+03 0.  0.
         21    1    1    2  503  502  0.31167847200E+01 -0.25541246220E+02 -0.28611996907E+02  0.38480072407E+02  0.00000000000E+00 0.  1.
         21    1    1    2  504  501  0.26125131494E+03 -0.21385506090E+03  0.24236614965E+03  0.41560508554E+03  0.00000000000E+00 0.  1.
<mgrwt>
<rscale>  4 0.73162356E+03</rscale>
<asrwt>0</asrwt>
<pdfrwt beam="1">  1       21 0.13793648E+00 0.73162356E+03</pdfrwt>
<pdfrwt beam="2">  1       21 0.28249980E-01 0.73162356E+03</pdfrwt>
<totfact> 0.35805745E+03</totfact>
</mgrwt>
</event>
<event>
 5    0  0.2324070E+000  0.3984957E+03  0.7546771E-02  0.1044302E+00
         21   -1    0    0  503  501  0.00000000000E+00  0.00000000000E+00  0.23337653004E+03  0.23337653004E+03  0.00000000000E+00 0.  1.
         21   -1    0    0  504  502 -0.00000000000E+00 -0.00000000000E+00 -0.50466689447E+03  0.50466689447E+03  0.00000000000E+00 0.  1.
         25    1    1    2    0    0 -0.17781919043E+03  0.11624285138E+03 -0.81943683380E+02  0.25975340657E+03  0.12500000000E+03 0.  0.
         21    1    1    2  503  502  0.82961110710E+02  0.33777379069E+01  0.11262364585E+03  0.13992155163E+03  0.00000000000E+00 0.  1.
         21    1    1    2  504  501  0.94858079716E+02 -0.11962058928E+03 -0.30197032690E+03  0.33836846631E+03  0.00000000000E+00 0.  1.
<mgrwt>
<rscale>  4 0.39849569E+03</rscale>
<asrwt>0</asrwt>
<pdfrwt beam="1">  1       21 0.35904082E-01 0.39849569E+03</pdfrwt>
<pdfrwt beam="2">  1       21 0.77641060E-01 0.39849569E+03</pdfrwt>
<totfact> 0.99717589E+03</totfact>
</mgrwt>
</event>
<event>
 5    0  0.2324070E+000  0.5331876E+03  0.7546771E-02  0.1005462E+00
         21   -1    0    0  503  501  0.00000000000E+00  0.00000000000E+00  0.26616286008E+03  0.26616286008E+03  0.00000000000E+00 0.  1.
         21   -1    0    0  504  502 -0.00000000000E+00 -0.00000000000E+00 -0.40019815719E+03  0.40019815719E+03  0.00000000000E+00 0. -1.
         25    1    1    2    0    0 -0.60628608792E+02 -0.19503772381E+03  0.14600083502E+03  0.28045817111E+03  0.12500000000E+03 0.  0.
         21    1    1    2  503  502 -0.53356221848E+02  0.41350014446E+02 -0.11437692612E+03  0.13281111149E+03  0.00000000000E+00 0. -1.
         21    1    1    2  504  501  0.11398483064E+03  0.15368770937E+03 -0.16565920601E+03  0.25309173468E+03  0.00000000000E+00 0. -1.
<mgrwt>
<rscale>  4 0.53318763E+03</rscale>
<asrwt>0</asrwt>
<pdfrwt beam="1">  1       21 0.40948133E-01 0.53318763E+03</pdfrwt>
<pdfrwt beam="2">  1       21 0.61568947E-01 0.53318763E+03</pdfrwt>
<totfact> 0.12355728E+04</totfact>
</mgrwt>
</event>
<event>
 5    0  0.2324070E+000  0.3656049E+03  0.7546771E-02  0.1056386E+00
         21   -1    0    0  503  501  0.00000000000E+00  0.00000000000E+00  0.18744856568E+04  0.18744856568E+04  0.00000000000E+00 0.  1.
         21   -1    0    0  504  502 -0.00000000000E+00 -0.00000000000E+00 -0.58440452590E+02  0.58440452590E+02  0.00000000000E+00 0. -1.
         25    1    1    2    0    0  0.18396161138E+03 -0.14687071015E+03  0.13209008928E+04  0.13475225596E+04  0.12500000000E+03 0.  0.
         21    1    1    2  503  502 -0.63772001791E+02  0.74501915696E+02  0.40939734297E+03  0.42097932026E+03  0.00000000000E+00 0. -1.
         21    1    1    2  504  501 -0.12018960958E+03  0.72368794455E+02  0.85746968404E+02  0.16442422952E+03  0.00000000000E+00 0. -1.
<mgrwt>
<rscale>  4 0.36560486E+03</rscale>
<asrwt>0</asrwt>
<pdfrwt beam="1">  1       21 0.28838236E+00 0.36560486E+03</pdfrwt>
<pdfrwt beam="2">  1       21 0.89908403E-02 0.36560486E+03</pdfrwt>
<totfact> 0.33757302E+03</totfact>
</mgrwt>
</event>
<event>
 5    0  0.2324070E+000  0.5564509E+03  0.7546771E-02  0.1000012E+00
         21   -1    0    0  503  501  0.00000000000E+00  0.00000000000E+00  0.94219201630E+03  0.94219201630E+03  0.00000000000E+00 0.  1.
         21   -1    0    0  504  502 -0.00000000000E+00 -0.00000000000E+00 -0.53028911885E+03  0.53028911885E+03  0.00000000000E+00 0.  1.
         25    1    1    2    0    0  0.32867112891E+03  0.17004407440E+03  0.68325519458E+03  0.78702119358E+03  0.12500000000E+03 0.  0.
         21    1    1    2  503  502 -0.14819137668E+03  0.26477659993E+02  0.13308830258E+03  0.20093343894E+03  0.00000000000E+00 0.  1.
         21    1    1    2  504  501 -0.18047975223E+03 -0.19652173439E+03 -0.40444059971E+03  0.48452650263E+03  0.00000000000E+00 0.  1.
<mgrwt>
<rscale>  4 0.55645094E+03</rscale>
<asrwt>0</asrwt>
<pdfrwt beam="1">  1       21 0.14495262E+00 0.55645094E+03</pdfrwt>
<pdfrwt beam="2">  1       21 0.81582942E-01 0.55645094E+03</pdfrwt>
<totfact> 0.34017169E+02</totfact>
</mgrwt>
</event>
<event>
 5    0  0.2324070E+000  0.7381155E+03  0.7546771E-02  0.9654182E-01
         21   -1    0    0  503  501  0.00000000000E+00  0.00000000000E+00  0.14903014367E+04  0.14903014367E+04  0.00000000000E+00 0. -1.
         21   -1    0    0  504  502 -0.00000000000E+00 -0.00000000000E+00 -0.56638636361E+03  0.56638636361E+03  0.00000000000E+00 0.  1.
         25    1    1    2    0    0 -0.91029363680E+02 -0.27308227890E+03  0.50399981444E+03  0.59371802151E+03  0.12500000000E+03 0.  0.
         21    1    1    2  503  502  0.76623862730E+02 -0.14602793441E+03 -0.45976468803E+03  0.48844543434E+03  0.00000000000E+00 0.  1.
         21    1    1    2  504  501  0.14405500950E+02  0.41911021332E+03  0.87967994665E+03  0.97452434444E+03  0.00000000000E+00 0. -1.
<mgrwt>
<rscale>  4 0.73811546E+03</rscale>
<asrwt>0</asrwt>
<pdfrwt beam="1">  1       21 0.22927714E+00 0.73811546E+03</pdfrwt>
<pdfrwt beam="2">  1       21 0.87136365E-01 0.73811546E+03</pdfrwt>
<totfact> 0.68851804E+01</totfact>
</mgrwt>
</event>
<event>
 5    0  0.2324070E+000  0.4598457E+03  0.7546771E-02  0.1024826E+00
         21   -1    0    0  503  501  0.00000000000E+00  0.00000000000E+00  0.13827618521E+04  0.13827618521E+04  0.00000000000E+00 0. -1.
         21   -1    0    0  504  502 -0.00000000000E+00 -0.00000000000E+00 -0.12330486790E+03  0.12330486790E+03  0.00000000000E+00 0.  1.
         25    1    1    2    0    0 -0.19965155029E+03 -0.51609965648E+02  0.10735844479E+04  0.11003330845E+04  0.12500000000E+03 0.  0.
         21    1    1    2  503  502  0.16945434792E+03  0.85588772112E+00  0.26037571802E+03  0.31066223315E+03  0.00000000000E+00 0.  1.
         21    1    1    2  504  501  0.30197202379E+02  0.50754077927E+02 -0.74503181722E+02  0.95071402348E+02  0.00000000000E+00 0.  1.
<mgrwt>
<rscale>  4 0.45984569E+03</rscale>
<asrwt>0</asrwt>
<pdfrwt beam="1">  1       21 0.21273258E+00 0.45984569E+03</pdfrwt>
<pdfrwt beam="2">  1       21 0.18969981E-01 0.45984569E+03</pdfrwt>
<totfact> 0.23920509E+03</totfact>
</mgrwt>
</event>
<event>
 5    0  0.2324070E+000  0.5255904E+03  0.7546771E-02  0.1007307E+00
         21   -1    0    0  503  501  0.00000000000E+00  0.00000000000E+00  0.11315867181E+04  0.11315867181E+04  0.00000000000E+00 0.  1.
         21   -1    0    0  504  502 -0.00000000000E+00 -0.00000000000E+00 -0.76211031709E+02  0.76211031709E+02  0.00000000000E+00 0.  1.
         25    1    1    2    0    0 -0.26113675003E+02  0.23275969025E+03  0.29077726190E+03  0.39374536628E+03  0.12500000000E+03 0.  0.
         21    1    1    2  503  502 -0.72063520786E+01 -0.19304614370E+03  0.72064048322E+03  0.74608407781E+03  0.00000000000E+00 0.  1.
         21    1    1    2  504  501  0.33320027082E+02 -0.39713546546E+02  0.43957941307E+02  0.67968305761E+02  0.00000000000E+00 0.  1.
<mgrwt>
<rscale>  4 0.52559044E+03</rscale>
<asrwt>0</asrwt>
<pdfrwt beam="1">  1       21 0.17409025E+00 0.52559044E+03</pdfrwt>
<pdfrwt beam="2">  1       21 0.11724775E-01 0.52559044E+03</pdfrwt>
<totfact> 0.10490368E+04</totfact>
</mgrwt>
</event>
<event>
 5    0  0.2324070E+000  0.4178187E+03  0.7546771E-02  0.1037779E+00
         21   -1    0    0  503  501  0.00000000000E+00  0.00000000000E+00  0.37225828052E+03  0.37225828052E+03  0.00000000000E+00 0. -1.
         21   -1    0    0  504  502 -0.00000000000E+00 -0.00000000000E+00 -0.40961270769E+03  0.40961270769E+03  0.00000000000E+00 0. -1.
         25    1    1    2    0    0 -0.20773428279E+03 -0.69647192166E+02  0.98888767597E+02  0.27093957256E+03  0.12500000000E+03 0.  0.
         21    1    1    2  503  502  0.57902105977E+02  0.32841088766E+02 -0.28735851030E+03  0.29496797188E+03  0.00000000000E+00 0. -1.
         21    1    1    2  504  501  0.14983217682E+03  0.36806103401E+02  0.15111531554E+03  0.21596344378E+03  0.00000000000E+00 0. -1.
<mgrwt>
<rscale>  4 0.41781875E+03</rscale>
<asrwt>0</asrwt>
<pdfrwt beam="1">  1       21 0.57270505E-01 0.41781875E+03</pdfrwt>
<pdfrwt beam="2">  1       21 0.63017340E-01 0.41781875E+03</pdfrwt>
<totfact> 0.59557938E+03</totfact>
</mgrwt>
</event>
<event>
 5    0  0.2324070E+000  0.5758121E+03  0.7546771E-02  0.9956899E-01
         21   -1    0    0  503  501  0.00000000000E+00  0.00000000000E+00  0.45375254280E+03  0.45375254280E+03  0.00000000000E+00 0.  1.
         21   -1    0    0  504  502 -0.00000000000E+00 -0.00000000000E+00 -0.23189084936E+03  0.23189084936E+03  0.00000000000E+00 0. -1.
         25    1    1    2    0    0  0.12449676402E+03 -0.20827491129E+03  0.10213679137E+02  0.27314318986E+03  0.12500000000E+03 0.  0.
         21    1    1    2  503  502 -0.11426838304E+03  0.22710198294E+03  0.25752126973E+03  0.36186983624E+03  0.00000000000E+00 0. -1.
         21    1    1    2  504  501 -0.10228380976E+02 -0.18827071647E+02 -0.45873255431E+02  0.50630366066E+02  0.00000000000E+00 0. -1.
<mgrwt>
<rscale>  4 0.57581207E+03</rscale>
<asrwt>0</asrwt>
<pdfrwt beam="1">  1       21 0.69808083E-01 0.57581207E+03</pdfrwt>
<pdfrwt beam="2">  1       21 0.35675515E-01 0.57581207E+03</pdfrwt>
<totfact> 0.12267478E+04</totfact>
</mgrwt>
</event>
<event>
 5    0  0.2324070E+000  0.5520949E+03  0.7546771E-02  0.1001010E+00
         21   -1    0    0  503  501  0.00000000000E+00  0.00000000000E+00  0.35043758893E+03  0.35043758893E+03  0.00000000000E+00 0. -1.
         21   -1    0    0  504  502 -0.00000000000E+00 -0.00000000000E+00 -0.62315664395E+03  0.62315664395E+03  0.00000000000E+00 0. -1.
         25    1    1    2    0    0  0.26759729676E+03 -0.29194996555E+02  0.39523526395E+02  0.29941237482E+03  0.12500000000E+03 0.  0.
         21    1    1    2  503  502 -0.24357862449E+03  0.64192765211E+02  0.91660925111E+02  0.26805406657E+03  0.00000000000E+00 0. -1.
         21    1    1    2  504  501 -0.24018672272E+02 -0.34997768656E+02 -0.40390350653E+03  0.40612779149E+03  0.00000000000E+00 0. -1.
<mgrwt>
<rscale>  4 0.55209492E+03</rscale>
<asrwt>0</asrwt>
<pdfrwt beam="1">  1       21 0.53913476E-01 0.55209492E+03</pdfrwt>
<pdfrwt beam="2">  1       21 0.95870252E-01 0.55209492E+03</pdfrwt>
<totfact> 0.24740053E+03</totfact>
</mgrwt>
</event>
<event>
 5    0  0.2324070E+000  0.8543785E+03  0.7546771E-02  0.9484479E-01
         21   -1    0    0  503  501  0.00000000000E+00  0.00000000000E+00  0.19446272612E+03  0.19446272612E+03  0.00000000000E+00 0. -1.
         21   -1    0    0  504  502 -0.00000000000E+00 -0.00000000000E+00 -0.16654417263E+04  0.16654417263E+04  0.00000000000E+00 0. -1.
         25    1    1    2    0    0 -0.21610723396E+03 -0.27392428167E+02 -0.91420787624E+03  0.94807896436E+03  0.12500000000E+03 0.  0.
         21    1    1    2  503  502  0.12466196243E+03  0.77254624538E+01  0.15209918974E+03  0.19681069881E+03  0.00000000000E+00 0. -1.
         21    1    1    2  504  501  0.91445271530E+02  0.19666965713E+02 -0.70887031366E+03  0.71501478923E+03  0.00000000000E+00 0. -1.
<mgrwt>
<rscale>  4 0.85437854E+03</rscale>
<asrwt>0</asrwt>
<pdfrwt beam="1">  1       21 0.29917343E-01 0.85437854E+03</pdfrwt>
<pdfrwt beam="2">  1       21 0.25622180E+00 0.85437854E+03</pdfrwt>
<totfact> 0.45677669E+02</totfact>
</mgrwt>
</event>
<event>
 5    0  0.2324070E+000  0.8797219E+03  0.7546771E-02  0.9451291E-01
         21   -1    0    0  503  501  0.00000000000E+00  0.00000000000E+00  0.56226232997E+03  0.56226232997E+03  0.00000000000E+00 0.  1.
         21   -1    0    0  504  502 -0.00000000000E+00 -0.00000000000E+00 -0.44156288957E+03  0.44156288957E+03  0.00000000000E+00 0.  1.
         25    1    1    2    0    0  0.24777210233E+03 -0.33153854492E+03  0.68765185665E+01  0.43241312188E+03  0.12500000000E+03 0.  0.
         21    1    1    2  503  502 -0.22688078817E+03  0.35989884315E+03  0.20603039214E+03  0.47270560799E+03  0.00000000000E+00 0.  1.
         21    1    1    2  504  501 -0.20891314164E+02 -0.28360298231E+02 -0.92207470302E+02  0.98706489669E+02  0.00000000000E+00 0.  1.
<mgrwt>
<rscale>  4 0.87972187E+03</rscale>
<asrwt>0</asrwt>
<pdfrwt beam="1">  1       21 0.86501897E-01 0.87972187E+03</pdfrwt>
<pdfrwt beam="2">  1       21 0.67932752E-01 0.87972187E+03</pdfrwt>
<totfact> 0.17591626E+03</totfact>
</mgrwt>
</event>
<event>
 5    0  0.2324070E+000  0.5849185E+03  0.7546771E-02  0.9937199E-01
         21   -1    0    0  503  501  0.00000000000E+00  0.00000000000E+00  0.28556614062E+03  0.28556614062E+03  0.00000000000E+00 0. -1.
         21   -1    0    0  504  502 -0.00000000000E+00 -0.00000000000E+00 -0.37456272759E+03  0.37456272759E+03  0.00000000000E+00 0. -1.
         25    1    1    2    0    0 -0.13831723105E+03  0.23473617823E+03 -0.17960428242E+03  0.34945017963E+03  0.12500000000E+03 0.  0.
         21    1    1    2  503  502  0.12267147984E+03 -0.16936418502E+03  0.11562068236E+03  0.23895744668E+03  0.00000000000E+00 0. -1.
         21    1    1    2  504  501  0.15645751213E+02 -0.65371993205E+02 -0.25012986903E+02  0.71721241905E+02  0.00000000000E+00 0.  1.
<mgrwt>
<rscale>  4 0.58491848E+03</rscale>
<asrwt>0</asrwt>
<pdfrwt beam="1">  1       21 0.43933252E-01 0.58491848E+03</pdfrwt>
<pdfrwt beam="2">  1       21 0.57625035E-01 0.58491848E+03</pdfrwt>
<totfact> 0.12196998E+04</totfact>
</mgrwt>
</event>
<event>
 5    0  0.2324070E+000  0.3884763E+03  0.7546771E-02  0.1047845E+00
         21   -1    0    0  503  501  0.00000000000E+00  0.00000000000E+00  0.12872373834E+03  0.12872373834E+03  0.00000000000E+00 0.  1.
         21   -1    0    0  504  502 -0.00000000000E+00 -0.00000000000E+00 -0.87109646708E+03  0.87109646708E+03  0.00000000000E+00 0. -1.
         25    1    1    2    0    0 -0.19736753805E+03 -0.82357123244E+02 -0.28609469992E+02  0.24935946462E+03  0.12500000000E+03 0.  0.
         21    1    1    2  503  502  0.71740140239E+02  0.47732699053E+02 -0.16170238286E+03  0.18322859739E+03  0.00000000000E+00 0. -1.
         21    1    1    2  504  501  0.12562739781E+03  0.34624424191E+02 -0.55206087589E+03  0.56723214341E+03  0.00000000000E+00 0. -1.
<mgrwt>
<rscale>  4 0.38847629E+03</rscale>
<asrwt>0</asrwt>
<pdfrwt beam="1">  1       21 0.19803652E-01 0.38847629E+03</pdfrwt>
<pdfrwt beam="2">  1       21 0.13401484E+00 0.38847629E+03</pdfrwt>
<totfact> 0.84823331E+03</totfact>
</mgrwt>
</event>
<event>
 5    0  0.2324070E+000  0.4367099E+03  0.7546771E-02  0.1031761E+00
         21   -1    0    0  503  501  0.00000000000E+00  0.00000000000E+00  0.44758066137E+02  0.44758066137E+02  0.00000000000E+00 0. -1.
         21   -1    0    0  504  502 -0.00000000000E+00 -0.00000000000E+00 -0.12918212085E+04  0.12918212085E+04  0.00000000000E+00 0. -1.
         25    1    1    2    0    0 -0.16348759003E+03  0.11912732117E+03 -0.53500999644E+03  0.58547434361E+03  0.12500000000E+03 0.  0.
         21    1    1    2  503  502 -0.82619708284E+01 -0.19922040776E+02 -0.21289139761E+03  0.21398106235E+03  0.00000000000E+00 0. -1.
         21    1    1    2  504  501  0.17174956085E+03 -0.99205280390E+02 -0.49916174831E+03  0.53712386866E+03  0.00000000000E+00 0. -1.
<mgrwt>
<rscale>  4 0.43670991E+03</rscale>
<asrwt>0</asrwt>
<pdfrwt beam="1">  1       21 0.68858557E-02 0.43670991E+03</pdfrwt>
<pdfrwt beam="2">  1       21 0.19874174E+00 0.43670991E+03</pdfrwt>
<totfact> 0.18841601E+04</totfact>
</mgrwt>
</event>
<event>
 5    0  0.2324070E+000  0.6042955E+03  0.7546771E-02  0.9896534E-01
         21   -1    0    0  503  501  0.00000000000E+00  0.00000000000E+00  0.44639907274E+03  0.44639907274E+03  0.00000000000E+00 0.  1.
         21   -1    0    0  504  502 -0.00000000000E+00 -0.00000000000E+00 -0.26941682152E+03  0.26941682152E+03  0.00000000000E+00 0.  1.
         25    1    1    2    0    0  0.19944309647E+03  0.15131036012E+03 -0.48545074790E+02  0.28399647550E+03  0.12500000000E+03 0.  0.
         21    1    1    2  503  502 -0.39022035028E+02  0.15151093469E+02 -0.54483357658E+02  0.68707431277E+02  0.00000000000E+00 0.  1.
         21    1    1    2  504  501 -0.16042106144E+03 -0.16646145359E+03  0.28001068368E+03  0.36311198749E+03  0.00000000000E+00 0.  1.
<mgrwt>
<rscale>  4 0.60429549E+03</rscale>
<asrwt>0</asrwt>
<pdfrwt beam="1">  1       21 0.68676780E-01 0.60429549E+03</pdfrwt>
<pdfrwt beam="2">  1       21 0.41448742E-01 0.60429549E+03</pdfrwt>
<totfact> 0.92867435E+03</totfact>
</mgrwt>
</event>
<event>
 5    0  0.2324070E+000  0.4422778E+03  0.7546771E-02  0.1030050E+00
         21   -1    0    0  503  501  0.00000000000E+00  0.00000000000E+00  0.10770243077E+03  0.10770243077E+03  0.00000000000E+00 0. -1.
         21   -1    0    0  504  502 -0.00000000000E+00 -0.00000000000E+00 -0.64903683392E+03  0.64903683392E+03  0.00000000000E+00 0. -1.
         25    1    1    2    0    0  0.17002643994E+03 -0.11506464929E+03 -0.15563566925E+03  0.28635000496E+03  0.12500000000E+03 0.  0.
         21    1    1    2  503  502  0.48866027806E+01  0.21587584863E+02 -0.19164748259E+03  0.19292138371E+03  0.00000000000E+00 0.  1.
         21    1    1    2  504  501 -0.17491304272E+03  0.93477064429E+02 -0.19405125131E+03  0.27746787602E+03  0.00000000000E+00 0. -1.
<mgrwt>
<rscale>  4 0.44227781E+03</rscale>
<asrwt>0</asrwt>
<pdfrwt beam="1">  1       21 0.16569605E-01 0.44227781E+03</pdfrwt>
<pdfrwt beam="2">  1       21 0.99851822E-01 0.44227781E+03</pdfrwt>
<totfact> 0.24429614E+04</totfact>
</mgrwt>
</event>
<event>
 5    0  0.2324070E+000  0.4422514E+03  0.7546771E-02  0.1030058E+00
         21   -1    0    0  503  501  0.00000000000E+00  0.00000000000E+00  0.22063887032E+03  0.22063887032E+03  0.00000000000E+00 0. -1.
         21   -1    0    0  504  502 -0.00000000000E+00 -0.00000000000E+00 -0.29331237843E+03  0.29331237843E+03  0.00000000000E+00 0. -1.
         25    1    1    2    0    0  0.15116396833E+03  0.13187549839E+03 -0.51170052192E+02  0.24183685955E+03  0.12500000000E+03 0.  0.
         21    1    1    2  503  502 -0.12737912349E+03 -0.14841124027E+03  0.44020813881E+02  0.20047236566E+03  0.00000000000E+00 0. -1.
         21    1    1    2  504  501 -0.23784844840E+02  0.16535741872E+02 -0.65524269804E+02  0.71642023539E+02  0.00000000000E+00 0. -1.
<mgrwt>
<rscale>  4 0.44225144E+03</rscale>
<asrwt>0</asrwt>
<pdfrwt beam="1">  1       21 0.33944442E-01 0.44225144E+03</pdfrwt>
<pdfrwt beam="2">  1       21 0.45124981E-01 0.44225144E+03</pdfrwt>
<totfact> 0.36124358E+04</totfact>
</mgrwt>
</event>
<event>
 5    0  0.2324070E+000  0.3919774E+03  0.7546771E-02  0.1046594E+00
         21   -1    0    0  503  501  0.00000000000E+00  0.00000000000E+00  0.37851966172E+03  0.37851966172E+03  0.00000000000E+00 0. -1.
         21   -1    0    0  504  502 -0.00000000000E+00 -0.00000000000E+00 -0.54720983126E+03  0.54720983126E+03  0.00000000000E+00 0.  1.
         25    1    1    2    0    0  0.21857854028E+03  0.70419244150E+01  0.18881598020E+03  0.31480572001E+03  0.12500000000E+03 0.  0.
         21    1    1    2  503  502 -0.13011436304E+03  0.49349171565E+02  0.80340014167E+02  0.16068480351E+03  0.00000000000E+00 0. -1.
         21    1    1    2  504  501 -0.88464177233E+02 -0.56391095980E+02 -0.43784616392E+03  0.45023896945E+03  0.00000000000E+00 0.  1.
<mgrwt>
<rscale>  4 0.39197741E+03</rscale>
<asrwt>0</asrwt>
<pdfrwt beam="1">  1       21 0.58233795E-01 0.39197741E+03</pdfrwt>
<pdfrwt beam="2">  1       21 0.84186127E-01 0.39197741E+03</pdfrwt>
<totfact> 0.30106505E+03</totfact>
</mgrwt>
</event>
<event>
 5    0  0.2324070E+000  0.6120504E+03  0.7546771E-02  0.9880716E-01
         21   -1    0    0  503  501  0.00000000000E+00  0.00000000000E+00  0.19578642419E+04  0.19578642419E+04  0.00000000000E+00 0.  1.
         21   -1    0    0  504  502 -0.00000000000E+00 -0.00000000000E+00 -0.52239226884E+03  0.52239226884E+03  0.00000000000E+00 0.  1.
         25    1    1    2    0    0 -0.21530397635E+03  0.14609694751E+03  0.17243804943E+04  0.17483744477E+04  0.12500000000E+03 0.  0.
         21    1    1    2  503  502  0.50064986725E+02 -0.16567340854E+03  0.17069419627E+03  0.24308576641E+03  0.00000000000E+00 0. -1.
         21    1    1    2  504  501  0.16523898962E+03  0.19576461028E+02 -0.45960271758E+03  0.48879629655E+03  0.00000000000E+00 0.  1.
<mgrwt>
<rscale>  4 0.61205041E+03</rscale>
<asrwt>0</asrwt>
<pdfrwt beam="1">  1       21 0.30120988E+00 0.61205041E+03</pdfrwt>
<pdfrwt beam="2">  1       21 0.80368042E-01 0.61205041E+03</pdfrwt>
<totfact> 0.31410602E+01</totfact>
</mgrwt>
</event>
<event>
 5    0  0.2324070E+000  0.7683663E+03  0.7546771E-02  0.9606969E-01
         21   -1    0    0  503  501  0.00000000000E+00  0.00000000000E+00  0.80285428767E+03  0.80285428767E+03  0.00000000000E+00 0.  1.
         21   -1    0    0  504  502 -0.00000000000E+00 -0.00000000000E+00 -0.24819218023E+03  0.24819218023E+03  0.00000000000E+00 0.  1.
         25    1    1    2    0    0 -0.22105822149E+02 -0.20011158004E+03 -0.75355061772E+02  0.24866985578E+03  0.12500000000E+03 0.  0.
         21    1    1    2  503  502  0.94400486129E+01 -0.78537636926E+02 -0.30965571875E+02  0.84947875626E+02  0.00000000000E+00 0.  1.
         21    1    1    2  504  501  0.12665773536E+02  0.27864921697E+03  0.66098274109E+03  0.71742873650E+03  0.00000000000E+00 0.  1.
<mgrwt>
<rscale>  4 0.76836626E+03</rscale>
<asrwt>0</asrwt>
<pdfrwt beam="1">  1       21 0.12351604E+00 0.76836626E+03</pdfrwt>
<pdfrwt beam="2">  1       21 0.38183413E-01 0.76836626E+03</pdfrwt>
<totfact> 0.25795512E+03</totfact>
</mgrwt>
</event>
<event>
 5    0  0.2324070E+000  0.5646345E+03  0.7546771E-02  0.9981622E-01
         21   -1    0    0  503  501  0.00000000000E+00  0.00000000000E+00  0.14427109495E+04  0.14427109495E+04  0.00000000000E+00 0. -1.
         21   -1    0    0  504  502 -0.00000000000E+00 -0.00000000000E+00 -0.79093552920E+02  0.79093552920E+02  0.00000000000E+00 0. -1.
         25    1    1    2    0    0 -0.18523928894E+03  0.10646721358E+03  0.30697987647E+03  0.39434820437E+03  0.12500000000E+03 0.  0.
         21    1    1    2  503  502  0.37521356016E+01  0.30591702615E+02 -0.13333995612E+02  0.33581635301E+02  0.00000000000E+00 0. -1.
         21    1    1    2  504  501  0.18148715334E+03 -0.13705891619E+03  0.10699715157E+04  0.10938746627E+04  0.00000000000E+00 0. -1.
<mgrwt>
<rscale>  4 0.56463454E+03</rscale>
<asrwt>0</asrwt>
<pdfrwt beam="1">  1       21 0.22195551E+00 0.56463454E+03</pdfrwt>
<pdfrwt beam="2">  1       21 0.12168240E-01 0.56463454E+03</pdfrwt>
<totfact> 0.45884396E+03</totfact>
</mgrwt>
</event>
