<event>
 5    0  0.1972558E-002  0.2513050E+03  0.7546771E-02  0.1112483E+00
         21   -1    0    0  501  502  0.00000000000E+00  0.00000000000E+00  0.18399468469E+03  0.18399468469E+03  0.00000000000E+00 0.  1.
         21   -1    0    0  502  503 -0.00000000000E+00 -0.00000000000E+00 -0.20640710983E+04  0.20640710983E+04  0.00000000000E+00 0.  1.
         25    1    1    2    0    0 -0.59604602115E+02 -0.20158366121E+03 -0.74163818394E+03  0.78092309285E+03  0.12500000000E+03 0.  0.
          4    1    1    2  501    0  0.23041608565E+02  0.22180223114E+03 -0.12904079451E+04  0.13095341959E+04  0.00000000000E+00 0. -1.
         -4    1    1    2    0  503  0.36562993550E+02 -0.20218569928E+02  0.15196971540E+03  0.15760849427E+03  0.00000000000E+00 0.  1.
<mgrwt>
<rscale>  4 0.25130497E+03</rscale>
<asrwt>0</asrwt>
<pdfrwt beam="1">  1       21 0.28306876E-01 0.25130497E+03</pdfrwt>
<pdfrwt beam="2">  1       21 0.31754938E+00 0.25130497E+03</pdfrwt>
<totfact> 0.29809129E+02</totfact>
</mgrwt>
</event>
<event>
 5    0  0.1972558E-002  0.2865236E+03  0.7546771E-02  0.1092178E+00
         21   -1    0    0  501  502  0.00000000000E+00  0.00000000000E+00  0.89524756937E+03  0.89524756937E+03  0.00000000000E+00 0. -1.
         21   -1    0    0  502  503 -0.00000000000E+00 -0.00000000000E+00 -0.28435192000E+03  0.28435192000E+03  0.00000000000E+00 0.  1.
         25    1    1    2    0    0  0.25923469828E+03  0.17940661345E+02 -0.18196087296E+03  0.34096811495E+03  0.12500000000E+03 0.  0.
          1    1    1    2  501    0 -0.19541460844E+02  0.91137489649E+01  0.15852548731E+03  0.15998518444E+03  0.00000000000E+00 0.  1.
         -1    1    1    2    0  503 -0.23969323743E+03 -0.27054410310E+02  0.63433103502E+03  0.67864618998E+03  0.00000000000E+00 0. -1.
<mgrwt>
<rscale>  4 0.28652365E+03</rscale>
<asrwt>0</asrwt>
<pdfrwt beam="1">  1       21 0.13773039E+00 0.28652365E+03</pdfrwt>
<pdfrwt beam="2">  1       21 0.43746450E-01 0.28652365E+03</pdfrwt>
<totfact> 0.17393141E+03</totfact>
</mgrwt>
</event>
<event>
 5    0  0.1972558E-002  0.3061353E+03  0.7546771E-02  0.1082213E+00
         21   -1    0    0  501  502  0.00000000000E+00  0.00000000000E+00  0.20824431347E+03  0.20824431347E+03  0.00000000000E+00 0. -1.
         21   -1    0    0  502  503 -0.00000000000E+00 -0.00000000000E+00 -0.82406309906E+03  0.82406309906E+03  0.00000000000E+00 0.  1.
         25    1    1    2    0    0 -0.46709621894E+02  0.28923941971E+03 -0.45531095524E+03  0.55567463200E+03  0.12500000000E+03 0.  0.
          1    1    1    2  501    0  0.12447931686E+03 -0.24027043148E+03 -0.23494740345E+03  0.35836470663E+03  0.00000000000E+00 0. -1.
         -1    1    1    2    0  503 -0.77769694964E+02 -0.48968988228E+02  0.74439573095E+02  0.11826807391E+03  0.00000000000E+00 0.  1.
<mgrwt>
<rscale>  4 0.30613534E+03</rscale>
<asrwt>0</asrwt>
<pdfrwt beam="1">  1       21 0.32037586E-01 0.30613534E+03</pdfrwt>
<pdfrwt beam="2">  1       21 0.12677894E+00 0.30613534E+03</pdfrwt>
<totfact> 0.39965362E+03</totfact>
</mgrwt>
</event>
<event>
 5    0  0.1972558E-002  0.3948727E+03  0.7546771E-02  0.1045570E+00
         21   -1    0    0  501  502  0.00000000000E+00  0.00000000000E+00  0.21801901499E+03  0.21801901499E+03  0.00000000000E+00 0. -1.
         21   -1    0    0  502  503 -0.00000000000E+00 -0.00000000000E+00 -0.86003196810E+03  0.86003196810E+03  0.00000000000E+00 0.  1.
         25    1    1    2    0    0  0.29826681327E+03 -0.18798848696E+03 -0.28364148287E+03  0.46944675303E+03  0.12500000000E+03 0.  0.
          4    1    1    2  501    0 -0.32062756498E+03  0.22978228311E+03 -0.38751281738E+03  0.55296303375E+03  0.00000000000E+00 0. -1.
         -4    1    1    2    0  503  0.22360751709E+02 -0.41793796146E+02  0.29141347148E+02  0.55641196311E+02  0.00000000000E+00 0.  1.
<mgrwt>
<rscale>  4 0.39487269E+03</rscale>
<asrwt>0</asrwt>
<pdfrwt beam="1">  1       21 0.33541387E-01 0.39487269E+03</pdfrwt>
<pdfrwt beam="2">  1       21 0.13231261E+00 0.39487269E+03</pdfrwt>
<totfact> 0.31325651E+03</totfact>
</mgrwt>
</event>
<event>
 5    0  0.1972558E-002  0.2405321E+03  0.7546771E-02  0.1119439E+00
         21   -1    0    0  501  502  0.00000000000E+00  0.00000000000E+00  0.14596944491E+04  0.14596944491E+04  0.00000000000E+00 0.  1.
         21   -1    0    0  502  503 -0.00000000000E+00 -0.00000000000E+00 -0.53746391729E+02  0.53746391729E+02  0.00000000000E+00 0. -1.
         25    1    1    2    0    0  0.19592154618E+03  0.91906003585E+02  0.39617934121E+03  0.46841758736E+03  0.12500000000E+03 0.  0.
          1    1    1    2  501    0 -0.20615659093E+02 -0.13393359347E+02  0.49458157443E+03  0.49519220636E+03  0.00000000000E+00 0. -1.
         -1    1    1    2    0  503 -0.17530588709E+03 -0.78512644237E+02  0.51518714177E+03  0.54983104714E+03  0.00000000000E+00 0.  1.
<mgrwt>
<rscale>  4 0.24053211E+03</rscale>
<asrwt>0</asrwt>
<pdfrwt beam="1">  1       21 0.22456835E+00 0.24053211E+03</pdfrwt>
<pdfrwt beam="2">  1       21 0.82686768E-02 0.24053211E+03</pdfrwt>
<totfact> 0.10277496E+04</totfact>
</mgrwt>
</event>
<event>
 5    0  0.1972558E-002  0.2593363E+03  0.7546771E-02  0.1107543E+00
         21   -1    0    0  501  502  0.00000000000E+00  0.00000000000E+00  0.94410383777E+02  0.94410383777E+02  0.00000000000E+00 0.  1.
         21   -1    0    0  502  503 -0.00000000000E+00 -0.00000000000E+00 -0.10263523870E+04  0.10263523870E+04  0.00000000000E+00 0.  1.
         25    1    1    2    0    0 -0.18033323914E+03  0.12079797623E+03 -0.67117881293E+03  0.71639250912E+03  0.12500000000E+03 0.  0.
          1    1    1    2  501    0  0.19784771373E+03 -0.15210259591E+03 -0.26965494769E+03  0.36741353857E+03  0.00000000000E+00 0.  1.
         -1    1    1    2    0  503 -0.17514474588E+02  0.31304619671E+02  0.88917573823E+01  0.36956723098E+02  0.00000000000E+00 0. -1.
<mgrwt>
<rscale>  4 0.25933631E+03</rscale>
<asrwt>0</asrwt>
<pdfrwt beam="1">  1       21 0.14524675E-01 0.25933631E+03</pdfrwt>
<pdfrwt beam="2">  1       21 0.15790036E+00 0.25933631E+03</pdfrwt>
<totfact> 0.10369983E+04</totfact>
</mgrwt>
</event>
<event>
 5    0  0.1972558E-002  0.2355163E+03  0.7546771E-02  0.1122816E+00
         21   -1    0    0  501  502  0.00000000000E+00  0.00000000000E+00  0.72929689546E+02  0.72929689546E+02  0.00000000000E+00 0. -1.
         21   -1    0    0  502  503 -0.00000000000E+00 -0.00000000000E+00 -0.94340178396E+03  0.94340178396E+03  0.00000000000E+00 0.  1.
         25    1    1    2    0    0 -0.70421654541E+02  0.20073071167E+03 -0.66547390608E+03  0.70974118361E+03  0.12500000000E+03 0.  0.
          2    1    1    2  501    0  0.12301424400E+02 -0.30724136210E+02  0.11762378904E+01  0.33116176163E+02  0.00000000000E+00 0.  1.
         -2    1    1    2    0  503  0.58120230141E+02 -0.17000657546E+03 -0.20617442622E+03  0.27347411373E+03  0.00000000000E+00 0. -1.
<mgrwt>
<rscale>  4 0.23551633E+03</rscale>
<asrwt>0</asrwt>
<pdfrwt beam="1">  1       21 0.11219954E-01 0.23551633E+03</pdfrwt>
<pdfrwt beam="2">  1       21 0.14513872E+00 0.23551633E+03</pdfrwt>
<totfact> 0.20992513E+04</totfact>
</mgrwt>
</event>
<event>
 5    0  0.1972558E-002  0.2179097E+03  0.7546771E-02  0.1135451E+00
         21   -1    0    0  501  502  0.00000000000E+00  0.00000000000E+00  0.30116372305E+03  0.30116372305E+03  0.00000000000E+00 0.  1.
         21   -1    0    0  502  503 -0.00000000000E+00 -0.00000000000E+00 -0.23936798780E+03  0.23936798780E+03  0.00000000000E+00 0. -1.
         25    1    1    2    0    0 -0.15047553326E+03  0.16574806517E+03 -0.21056177042E+02  0.25726187010E+03  0.12500000000E+03 0.  0.
          4    1    1    2  501    0  0.12667459184E+03 -0.87195381704E+02 -0.16194129925E+02  0.15463420272E+03  0.00000000000E+00 0. -1.
         -4    1    1    2    0  503  0.23800941417E+02 -0.78552683464E+02  0.99046042216E+02  0.12863563803E+03  0.00000000000E+00 0.  1.
<mgrwt>
<rscale>  4 0.21790972E+03</rscale>
<asrwt>0</asrwt>
<pdfrwt beam="1">  1       21 0.46332880E-01 0.21790972E+03</pdfrwt>
<pdfrwt beam="2">  1       21 0.36825844E-01 0.21790972E+03</pdfrwt>
<totfact> 0.31311887E+04</totfact>
</mgrwt>
</event>
<event>
 5    0  0.1972558E-002  0.2612327E+03  0.7546771E-02  0.1106405E+00
         21   -1    0    0  501  502  0.00000000000E+00  0.00000000000E+00  0.31663579158E+03  0.31663579158E+03  0.00000000000E+00 0.  1.
         21   -1    0    0  502  503 -0.00000000000E+00 -0.00000000000E+00 -0.10598760952E+04  0.10598760952E+04  0.00000000000E+00 0. -1.
         25    1    1    2    0    0 -0.18565692052E+02 -0.22718433988E+03 -0.96374067377E+03  0.99818760536E+03  0.12500000000E+03 0.  0.
          1    1    1    2  501    0  0.36896539914E+02  0.24355147218E+03  0.11839963124E+03  0.27330778791E+03  0.00000000000E+00 0.  1.
         -1    1    1    2    0  503 -0.18330847862E+02 -0.16367132290E+02  0.10210073896E+03  0.10501649346E+03  0.00000000000E+00 0. -1.
<mgrwt>
<rscale>  4 0.26123265E+03</rscale>
<asrwt>0</asrwt>
<pdfrwt beam="1">  1       21 0.48713199E-01 0.26123265E+03</pdfrwt>
<pdfrwt beam="2">  1       21 0.16305786E+00 0.26123265E+03</pdfrwt>
<totfact> 0.90217907E+02</totfact>
</mgrwt>
</event>
<event>
 5    0  0.1972558E-002  0.5019584E+03  0.7546771E-02  0.1013269E+00
         21   -1    0    0  501  502  0.00000000000E+00  0.00000000000E+00  0.27203331727E+04  0.27203331727E+04  0.00000000000E+00 0. -1.
         21   -1    0    0  502  503 -0.00000000000E+00 -0.00000000000E+00 -0.70616818628E+03  0.70616818628E+03  0.00000000000E+00 0.  1.
         25    1    1    2    0    0 -0.53626710354E+02 -0.48044175410E+03 -0.48149542176E+03  0.69365909806E+03  0.12500000000E+03 0.  0.
          2    1    1    2  501    0 -0.43669079216E+03  0.21657430595E+02  0.11114887768E+04  0.11943932322E+04  0.00000000000E+00 0. -1.
         -2    1    1    2    0  503  0.49031750252E+03  0.45878432350E+03  0.13841716314E+04  0.15384490288E+04  0.00000000000E+00 0.  1.
<mgrwt>
<rscale>  4 0.50195841E+03</rscale>
<asrwt>0</asrwt>
<pdfrwt beam="1">  1       21 0.41851279E+00 0.50195841E+03</pdfrwt>
<pdfrwt beam="2">  1       21 0.10864126E+00 0.50195841E+03</pdfrwt>
<totfact> 0.30038656E+00</totfact>
</mgrwt>
</event>
<event>
 5    0  0.1972558E-002  0.5554856E+03  0.7546771E-02  0.1001126E+00
         21   -1    0    0  501  502  0.00000000000E+00  0.00000000000E+00  0.62434116833E+03  0.62434116833E+03  0.00000000000E+00 0.  1.
         21   -1    0    0  502  503 -0.00000000000E+00 -0.00000000000E+00 -0.63347532510E+03  0.63347532510E+03  0.00000000000E+00 0. -1.
         25    1    1    2    0    0  0.48912743127E+03  0.19186239569E+03 -0.31343868099E+03  0.62444025306E+03  0.12500000000E+03 0.  0.
          1    1    1    2  501    0 -0.67117432450E+02 -0.36360172037E+02  0.13055464476E+03  0.15123269196E+03  0.00000000000E+00 0. -1.
         -1    1    1    2    0  503 -0.42200999882E+03 -0.15550222366E+03  0.17374987946E+03  0.48214354841E+03  0.00000000000E+00 0.  1.
<mgrwt>
<rscale>  4 0.55159238E+03</rscale>
<asrwt>0</asrwt>
<pdfrwt beam="1">  1       21 0.96052487E-01 0.55548557E+03</pdfrwt>
<pdfrwt beam="2">  1       21 0.97457742E-01 0.55548557E+03</pdfrwt>
<totfact> 0.63680178E+02</totfact>
</mgrwt>
</event>
<event>
 5    0  0.1972558E-002  0.3222282E+03  0.7546771E-02  0.1074628E+00
         21   -1    0    0  501  502  0.00000000000E+00  0.00000000000E+00  0.14884029048E+04  0.14884029048E+04  0.00000000000E+00 0. -1.
         21   -1    0    0  502  503 -0.00000000000E+00 -0.00000000000E+00 -0.13808124030E+03  0.13808124030E+03  0.00000000000E+00 0.  1.
         25    1    1    2    0    0  0.16576544802E+03  0.20976961776E+03  0.32980169941E+03  0.44257839670E+03  0.12500000000E+03 0.  0.
          4    1    1    2  501    0 -0.18934328814E+03 -0.26007295842E+03  0.23986874148E+03  0.40128024822E+03  0.00000000000E+00 0.  1.
         -4    1    1    2    0  503  0.23577840121E+02  0.50303340662E+02  0.78065122361E+03  0.78262550019E+03  0.00000000000E+00 0. -1.
<mgrwt>
<rscale>  4 0.32222816E+03</rscale>
<asrwt>0</asrwt>
<pdfrwt beam="1">  1       21 0.22898505E+00 0.32222816E+03</pdfrwt>
<pdfrwt beam="2">  1       21 0.21243269E-01 0.32222816E+03</pdfrwt>
<totfact> 0.16356690E+03</totfact>
</mgrwt>
</event>
<event>
 5    0  0.1972558E-002  0.2456887E+03  0.7546771E-02  0.1116060E+00
         21   -1    0    0  501  502  0.00000000000E+00  0.00000000000E+00  0.51089923450E+03  0.51089923450E+03  0.00000000000E+00 0.  1.
         21   -1    0    0  502  503 -0.00000000000E+00 -0.00000000000E+00 -0.24266570609E+03  0.24266570609E+03  0.00000000000E+00 0. -1.
         25    1    1    2    0    0  0.20064350909E+03  0.35585119177E+01  0.45253055989E+02  0.24071418700E+03  0.12500000000E+03 0.  0.
          1    1    1    2  501    0 -0.19019071495E+03  0.16067676279E+03  0.17497679717E+02  0.24959106344E+03  0.00000000000E+00 0.  1.
         -1    1    1    2    0  503 -0.10452794140E+02 -0.16423527470E+03  0.20548279270E+03  0.26325969015E+03  0.00000000000E+00 0. -1.
<mgrwt>
<rscale>  4 0.24568875E+03</rscale>
<asrwt>0</asrwt>
<pdfrwt beam="1">  1       21 0.78599882E-01 0.24568875E+03</pdfrwt>
<pdfrwt beam="2">  1       21 0.37333185E-01 0.24568875E+03</pdfrwt>
<totfact> 0.95742931E+03</totfact>
</mgrwt>
</event>
<event>
 5    0  0.1972558E-002  0.2223252E+03  0.7546771E-02  0.1132161E+00
         21   -1    0    0  501  502  0.00000000000E+00  0.00000000000E+00  0.12945029358E+04  0.12945029358E+04  0.00000000000E+00 0.  1.
         21   -1    0    0  502  503 -0.00000000000E+00 -0.00000000000E+00 -0.12952624819E+03  0.12952624819E+03  0.00000000000E+00 0.  1.
         25    1    1    2    0    0 -0.11142024704E+03 -0.20144021946E+03  0.85020718091E+02  0.27540180822E+03  0.12500000000E+03 0.  0.
          3    1    1    2  501    0  0.82594424634E+02  0.11720415133E+03  0.12705636800E+03  0.19157758929E+03  0.00000000000E+00 0. -1.
         -3    1    1    2    0  503  0.28825822409E+02  0.84236068134E+02  0.95289960149E+03  0.95704978644E+03  0.00000000000E+00 0.  1.
<mgrwt>
<rscale>  4 0.22232523E+03</rscale>
<asrwt>0</asrwt>
<pdfrwt beam="1">  1       21 0.19915429E+00 0.22232523E+03</pdfrwt>
<pdfrwt beam="2">  1       21 0.19927116E-01 0.22232523E+03</pdfrwt>
<totfact> 0.30732073E+03</totfact>
</mgrwt>
</event>
<event>
 5    0  0.1972558E-002  0.2595979E+03  0.7546771E-02  0.1107385E+00
         21   -1    0    0  501  502  0.00000000000E+00  0.00000000000E+00  0.24719166870E+03  0.24719166870E+03  0.00000000000E+00 0.  1.
         21   -1    0    0  502  503 -0.00000000000E+00 -0.00000000000E+00 -0.55922567120E+03  0.55922567120E+03  0.00000000000E+00 0.  1.
         25    1    1    2    0    0  0.20293624595E+03  0.10419746855E+03 -0.34675177001E+03  0.43347666878E+03  0.12500000000E+03 0.  0.
          2    1    1    2  501    0 -0.17406883976E+02  0.28326745891E+02  0.12377699208E+03  0.12816453453E+03  0.00000000000E+00 0. -1.
         -2    1    1    2    0  503 -0.18552936197E+03 -0.13252421444E+03 -0.89059224565E+02  0.24477613660E+03  0.00000000000E+00 0.  1.
<mgrwt>
<rscale>  4 0.25959792E+03</rscale>
<asrwt>0</asrwt>
<pdfrwt beam="1">  1       21 0.38029487E-01 0.25959792E+03</pdfrwt>
<pdfrwt beam="2">  1       21 0.86034719E-01 0.25959792E+03</pdfrwt>
<totfact> 0.74415188E+03</totfact>
</mgrwt>
</event>
<event>
 5    0  0.1972558E-002  0.2893881E+03  0.7546771E-02  0.1090669E+00
         21   -1    0    0  501  502  0.00000000000E+00  0.00000000000E+00  0.12581154249E+04  0.12581154249E+04  0.00000000000E+00 0. -1.
         21   -1    0    0  502  503 -0.00000000000E+00 -0.00000000000E+00 -0.66470534317E+03  0.66470534317E+03  0.00000000000E+00 0.  1.
         25    1    1    2    0    0  0.22347611483E+03 -0.13482922286E+03 -0.61622634693E+03  0.68079395112E+03  0.12500000000E+03 0.  0.
          1    1    1    2  501    0 -0.78919515193E+02 -0.70394796030E+01  0.34737001223E+03  0.35629169167E+03  0.00000000000E+00 0.  1.
         -1    1    1    2    0  503 -0.14455659963E+03  0.14186870246E+03  0.86226641639E+03  0.88573512523E+03  0.00000000000E+00 0. -1.
<mgrwt>
<rscale>  4 0.28938814E+03</rscale>
<asrwt>0</asrwt>
<pdfrwt beam="1">  1       21 0.19355622E+00 0.28938814E+03</pdfrwt>
<pdfrwt beam="2">  1       21 0.10226236E+00 0.28938814E+03</pdfrwt>
<totfact> 0.10287057E+02</totfact>
</mgrwt>
</event>
<event>
 5    0  0.1972558E-002  0.2849706E+03  0.7546771E-02  0.1093005E+00
         21   -1    0    0  501  502  0.00000000000E+00  0.00000000000E+00  0.41125063392E+03  0.41125063392E+03  0.00000000000E+00 0. -1.
         21   -1    0    0  502  503 -0.00000000000E+00 -0.00000000000E+00 -0.18254974592E+03  0.18254974592E+03  0.00000000000E+00 0. -1.
         25    1    1    2    0    0  0.21118027570E+03 -0.14486589685E+03  0.10147912864E+03  0.30250000077E+03  0.12500000000E+03 0.  0.
          4    1    1    2  501    0 -0.18125068800E+03  0.12547037910E+03  0.85574237017E+02  0.23646897888E+03  0.00000000000E+00 0. -1.
         -4    1    1    2    0  503 -0.29929587708E+02  0.19395517749E+02  0.41647522340E+02  0.54831400184E+02  0.00000000000E+00 0.  1.
<mgrwt>
<rscale>  4 0.28497059E+03</rscale>
<asrwt>0</asrwt>
<pdfrwt beam="1">  1       21 0.63269328E-01 0.28497059E+03</pdfrwt>
<pdfrwt beam="2">  1       21 0.28084576E-01 0.28497059E+03</pdfrwt>
<totfact> 0.26778973E+04</totfact>
</mgrwt>
</event>
<event>
 5    0  0.1972558E-002  0.2839123E+03  0.7546771E-02  0.1093571E+00
         21   -1    0    0  501  502  0.00000000000E+00  0.00000000000E+00  0.43820903438E+03  0.43820903438E+03  0.00000000000E+00 0.  1.
         21   -1    0    0  502  503 -0.00000000000E+00 -0.00000000000E+00 -0.11205158743E+04  0.11205158743E+04  0.00000000000E+00 0. -1.
         25    1    1    2    0    0  0.18787687118E+03  0.96896158664E+02 -0.30002023528E+02  0.24740999516E+03  0.12500000000E+03 0.  0.
          2    1    1    2  501    0  0.47278583420E+02  0.18467700843E+02  0.30993437236E+03  0.31406310766E+03  0.00000000000E+00 0.  1.
         -2    1    1    2    0  503 -0.23515545460E+03 -0.11536385951E+03 -0.96223918872E+03  0.99725180583E+03  0.00000000000E+00 0. -1.
<mgrwt>
<rscale>  4 0.28391230E+03</rscale>
<asrwt>0</asrwt>
<pdfrwt beam="1">  1       21 0.67416775E-01 0.28391230E+03</pdfrwt>
<pdfrwt beam="2">  1       21 0.17238706E+00 0.28391230E+03</pdfrwt>
<totfact> 0.37731634E+02</totfact>
</mgrwt>
</event>
<event>
 5    0  0.1972558E-002  0.2482986E+03  0.7546771E-02  0.1114385E+00
         21   -1    0    0  501  502  0.00000000000E+00  0.00000000000E+00  0.55403369821E+03  0.55403369821E+03  0.00000000000E+00 0.  1.
         21   -1    0    0  502  503 -0.00000000000E+00 -0.00000000000E+00 -0.12095570501E+04  0.12095570501E+04  0.00000000000E+00 0. -1.
         25    1    1    2    0    0  0.57945206643E+01 -0.21516616343E+03 -0.11716678079E+04  0.11978148882E+04  0.12500000000E+03 0.  0.
          1    1    1    2  501    0  0.21096489327E+02  0.23349523275E+02  0.13026905461E+03  0.13401600161E+03  0.00000000000E+00 0. -1.
         -1    1    1    2    0  503 -0.26891009991E+02  0.19181664016E+03  0.38587540148E+03  0.43175985840E+03  0.00000000000E+00 0.  1.
<mgrwt>
<rscale>  4 0.24829864E+03</rscale>
<asrwt>0</asrwt>
<pdfrwt beam="1">  1       21 0.85235955E-01 0.24829864E+03</pdfrwt>
<pdfrwt beam="2">  1       21 0.18608570E+00 0.24829864E+03</pdfrwt>
<totfact> 0.18462180E+02</totfact>
</mgrwt>
</event>
<event>
 5    0  0.1972558E-002  0.2527799E+03  0.7546771E-02  0.1111560E+00
         21   -1    0    0  503  502  0.00000000000E+00  0.00000000000E+00  0.15082779251E+03  0.15082779251E+03  0.00000000000E+00 0. -1.
         21   -1    0    0  501  503 -0.00000000000E+00 -0.00000000000E+00 -0.47867615576E+03  0.47867615576E+03  0.00000000000E+00 0.  1.
         25    1    1    2    0    0 -0.20725511118E+03 -0.72924569391E+02 -0.29732797422E+03  0.39025837363E+03  0.12500000000E+03 0.  0.
          1    1    1    2  501    0  0.72393405566E+02 -0.16822116028E+02  0.41803363598E+00  0.74323371218E+02  0.00000000000E+00 0.  1.
         -1    1    1    2    0  502  0.13486170562E+03  0.89746685419E+02 -0.30938422670E+02  0.16492220342E+03  0.00000000000E+00 0. -1.
<mgrwt>
<rscale>  4 0.25277989E+03</rscale>
<asrwt>0</asrwt>
<pdfrwt beam="1">  1       21 0.23204276E-01 0.25277989E+03</pdfrwt>
<pdfrwt beam="2">  1       21 0.73642485E-01 0.25277989E+03</pdfrwt>
<totfact> 0.28028938E+04</totfact>
</mgrwt>
</event>
<event>
 5    0  0.1972558E-002  0.2524847E+03  0.7546771E-02  0.1111745E+00
         21   -1    0    0  501  502  0.00000000000E+00  0.00000000000E+00  0.87952942614E+03  0.87952942614E+03  0.00000000000E+00 0. -1.
         21   -1    0    0  502  503 -0.00000000000E+00 -0.00000000000E+00 -0.21902357093E+03  0.21902357093E+03  0.00000000000E+00 0.  1.
         25    1    1    2    0    0  0.19806524337E+03  0.80394653906E+02 -0.59380369813E+02  0.25464518320E+03  0.12500000000E+03 0.  0.
          2    1    1    2  501    0  0.27812825180E+02 -0.21430982577E+02  0.55966994532E+03  0.56077026308E+03  0.00000000000E+00 0.  1.
         -2    1    1    2    0  503 -0.22587806855E+03 -0.58963671328E+02  0.16021627970E+03  0.28313755080E+03  0.00000000000E+00 0. -1.
<mgrwt>
<rscale>  4 0.25248468E+03</rscale>
<asrwt>0</asrwt>
<pdfrwt beam="1">  1       21 0.13531222E+00 0.25248468E+03</pdfrwt>
<pdfrwt beam="2">  1       21 0.33695934E-01 0.25248468E+03</pdfrwt>
<totfact> 0.31610373E+03</totfact>
</mgrwt>
</event>
<event>
 5    0  0.1972558E-002  0.2832358E+03  0.7546771E-02  0.1093935E+00
         21   -1    0    0  501  502  0.00000000000E+00  0.00000000000E+00  0.38859119927E+03  0.38859119927E+03  0.00000000000E+00 0. -1.
         21   -1    0    0  502  503 -0.00000000000E+00 -0.00000000000E+00 -0.59651098776E+03  0.59651098776E+03  0.00000000000E+00 0.  1.
         25    1    1    2    0    0 -0.14802461353E+03  0.18893312765E+03 -0.37785988157E+03  0.46476887055E+03  0.12500000000E+03 0.  0.
          2    1    1    2  501    0  0.54476684384E+01  0.76381677695E+02  0.20334800724E+03  0.21728840242E+03  0.00000000000E+00 0. -1.
         -2    1    1    2    0  503  0.14257694509E+03 -0.26531480534E+03 -0.33407914161E+02  0.30304491405E+03  0.00000000000E+00 0.  1.
<mgrwt>
<rscale>  4 0.28323576E+03</rscale>
<asrwt>0</asrwt>
<pdfrwt beam="1">  1       21 0.59783262E-01 0.28323576E+03</pdfrwt>
<pdfrwt beam="2">  1       21 0.91770921E-01 0.28323576E+03</pdfrwt>
<totfact> 0.24531837E+03</totfact>
</mgrwt>
</event>
<event>
 5    0  0.1972558E-002  0.3386204E+03  0.7546771E-02  0.1067385E+00
         21   -1    0    0  501  502  0.00000000000E+00  0.00000000000E+00  0.28680355795E+03  0.28680355795E+03  0.00000000000E+00 0.  1.
         21   -1    0    0  502  503 -0.00000000000E+00 -0.00000000000E+00 -0.16839514914E+04  0.16839514914E+04  0.00000000000E+00 0. -1.
         25    1    1    2    0    0 -0.23729585704E+03  0.20671103847E+03 -0.15702597109E+04  0.16063559185E+04  0.12500000000E+03 0.  0.
          3    1    1    2  501    0  0.16634232875E+03 -0.17633411190E+03  0.11832592509E+03  0.26974898313E+03  0.00000000000E+00 0. -1.
         -3    1    1    2    0  503  0.70953528291E+02 -0.30376926573E+02  0.54785852357E+02  0.94650147720E+02  0.00000000000E+00 0.  1.
<mgrwt>
<rscale>  4 0.33862040E+03</rscale>
<asrwt>0</asrwt>
<pdfrwt beam="1">  1       21 0.44123625E-01 0.33862040E+03</pdfrwt>
<pdfrwt beam="2">  1       21 0.25906945E+00 0.33862040E+03</pdfrwt>
<totfact> 0.24894092E+02</totfact>
</mgrwt>
</event>
<event>
 5    0  0.1972558E-002  0.2821097E+03  0.7546771E-02  0.1094542E+00
         21   -1    0    0  501  502  0.00000000000E+00  0.00000000000E+00  0.43423741705E+03  0.43423741705E+03  0.00000000000E+00 0. -1.
         21   -1    0    0  502  503 -0.00000000000E+00 -0.00000000000E+00 -0.76904759660E+03  0.76904759660E+03  0.00000000000E+00 0. -1.
         25    1    1    2    0    0  0.24599243891E+02  0.25055906935E+03 -0.66149927285E+03  0.71874283162E+03  0.12500000000E+03 0.  0.
          4    1    1    2  501    0  0.49863384297E+02  0.51782447695E+01  0.16614333337E+03  0.17354186393E+03  0.00000000000E+00 0. -1.
         -4    1    1    2    0  503 -0.74462628188E+02 -0.25573731412E+03  0.16054575993E+03  0.31100031810E+03  0.00000000000E+00 0.  1.
<mgrwt>
<rscale>  4 0.28210973E+03</rscale>
<asrwt>0</asrwt>
<pdfrwt beam="1">  1       21 0.66805757E-01 0.28210973E+03</pdfrwt>
<pdfrwt beam="2">  1       21 0.11831501E+00 0.28210973E+03</pdfrwt>
<totfact> 0.10413487E+03</totfact>
</mgrwt>
</event>
<event>
 5    0  0.1972558E-002  0.2660374E+03  0.7546771E-02  0.1103569E+00
         21   -1    0    0  501  502  0.00000000000E+00  0.00000000000E+00  0.37860786735E+03  0.37860786735E+03  0.00000000000E+00 0. -1.
         21   -1    0    0  502  503 -0.00000000000E+00 -0.00000000000E+00 -0.20116828503E+03  0.20116828503E+03  0.00000000000E+00 0.  1.
         25    1    1    2    0    0 -0.12563164597E+03  0.18756484335E+03  0.99424900033E+02  0.27653967469E+03  0.12500000000E+03 0.  0.
          4    1    1    2  501    0  0.11890594319E+03 -0.21021341982E+03  0.22083584691E+02  0.24252008146E+03  0.00000000000E+00 0. -1.
         -4    1    1    2    0  503  0.67257027800E+01  0.22648576470E+02  0.55931097592E+02  0.60716396236E+02  0.00000000000E+00 0.  1.
<mgrwt>
<rscale>  4 0.26603741E+03</rscale>
<asrwt>0</asrwt>
<pdfrwt beam="1">  1       21 0.58247364E-01 0.26603741E+03</pdfrwt>
<pdfrwt beam="2">  1       21 0.30948967E-01 0.26603741E+03</pdfrwt>
<totfact> 0.26694323E+04</totfact>
</mgrwt>
</event>
<event>
 5    0  0.1972558E-002  0.2394424E+03  0.7546771E-02  0.1120165E+00
         21   -1    0    0  501  502  0.00000000000E+00  0.00000000000E+00  0.42397832848E+02  0.42397832848E+02  0.00000000000E+00 0. -1.
         21   -1    0    0  502  503 -0.00000000000E+00 -0.00000000000E+00 -0.19815098530E+04  0.19815098530E+04  0.00000000000E+00 0. -1.
         25    1    1    2    0    0 -0.17748208916E+03 -0.10103351725E+03 -0.16024908309E+04  0.16202806938E+04  0.12500000000E+03 0.  0.
          3    1    1    2  501    0  0.50142830247E+02  0.73361671817E+02 -0.10226684465E+03  0.13547968789E+03  0.00000000000E+00 0.  1.
         -3    1    1    2    0  503  0.12733925891E+03  0.27671845435E+02 -0.23435434458E+03  0.26814730413E+03  0.00000000000E+00 0. -1.
<mgrwt>
<rscale>  4 0.23944240E+03</rscale>
<asrwt>0</asrwt>
<pdfrwt beam="1">  1       21 0.65227432E-02 0.23944240E+03</pdfrwt>
<pdfrwt beam="2">  1       21 0.30484769E+00 0.23944240E+03</pdfrwt>
<totfact> 0.52052255E+03</totfact>
</mgrwt>
</event>
<event>
 5    0  0.1972558E-002  0.3153466E+03  0.7546771E-02  0.1077811E+00
         21   -1    0    0  501  502  0.00000000000E+00  0.00000000000E+00  0.10884016429E+04  0.10884016429E+04  0.00000000000E+00 0.  1.
         21   -1    0    0  502  503 -0.00000000000E+00 -0.00000000000E+00 -0.10246969016E+04  0.10246969016E+04  0.00000000000E+00 0. -1.
         25    1    1    2    0    0  0.28855055605E+03 -0.21553986355E+02 -0.63141413799E+03  0.70571581488E+03  0.12500000000E+03 0.  0.
          2    1    1    2  501    0 -0.23254958942E+03  0.29974795521E+03 -0.22732760920E+03  0.44227365973E+03  0.00000000000E+00 0. -1.
         -2    1    1    2    0  503 -0.56000966631E+02 -0.27819396885E+03  0.92244648852E+03  0.96510906987E+03  0.00000000000E+00 0.  1.
<mgrwt>
<rscale>  4 0.31534664E+03</rscale>
<asrwt>0</asrwt>
<pdfrwt beam="1">  1       21 0.16744641E+00 0.31534664E+03</pdfrwt>
<pdfrwt beam="2">  1       21 0.15764568E+00 0.31534664E+03</pdfrwt>
<totfact> 0.50433008E+01</totfact>
</mgrwt>
</event>
<event>
 5    0  0.1972558E-002  0.2844190E+03  0.7546771E-02  0.1093300E+00
         21   -1    0    0  503  502  0.00000000000E+00  0.00000000000E+00  0.10493267866E+04  0.10493267866E+04  0.00000000000E+00 0. -1.
         21   -1    0    0  501  503 -0.00000000000E+00 -0.00000000000E+00 -0.22795526300E+03  0.22795526300E+03  0.00000000000E+00 0.  1.
         25    1    1    2    0    0 -0.17195945278E+03 -0.18766487399E+03 -0.10796778910E+03  0.30343071995E+03  0.12500000000E+03 0.  0.
          4    1    1    2  501    0  0.96543715853E+01 -0.21782858014E+02  0.48773545053E+02  0.54282211552E+02  0.00000000000E+00 0.  1.
         -4    1    1    2    0  502  0.16230508119E+03  0.20944773201E+03  0.88056576769E+03  0.91956911814E+03  0.00000000000E+00 0. -1.
<mgrwt>
<rscale>  4 0.28441902E+03</rscale>
<asrwt>0</asrwt>
<pdfrwt beam="1">  1       21 0.16143489E+00 0.28441902E+03</pdfrwt>
<pdfrwt beam="2">  1       21 0.35070041E-01 0.28441902E+03</pdfrwt>
<totfact> 0.17861218E+03</totfact>
</mgrwt>
</event>
<event>
 5    0  0.1972558E-002  0.2460106E+03  0.7546771E-02  0.1115852E+00
         21   -1    0    0  501  502  0.00000000000E+00  0.00000000000E+00  0.16047499220E+04  0.16047499220E+04  0.00000000000E+00 0.  1.
         21   -1    0    0  502  503 -0.00000000000E+00 -0.00000000000E+00 -0.65678871948E+02  0.65678871948E+02  0.00000000000E+00 0. -1.
         25    1    1    2    0    0  0.19319376268E+03  0.87019336470E+02  0.21233578970E+03  0.32497335651E+03  0.12500000000E+03 0.  0.
          1    1    1    2  501    0 -0.12500570678E+03 -0.86360296308E+02  0.79739157680E+03  0.81173755257E+03  0.00000000000E+00 0. -1.
         -1    1    1    2    0  503 -0.68188055899E+02 -0.65904016230E+00  0.52934368358E+03  0.53371788488E+03  0.00000000000E+00 0.  1.
<mgrwt>
<rscale>  4 0.24601056E+03</rscale>
<asrwt>0</asrwt>
<pdfrwt beam="1">  1       21 0.24688457E+00 0.24601056E+03</pdfrwt>
<pdfrwt beam="2">  1       21 0.10104443E-01 0.24601056E+03</pdfrwt>
<totfact> 0.52618157E+03</totfact>
</mgrwt>
</event>
<event>
 5    0  0.1972558E-002  0.2285524E+03  0.7546771E-02  0.1127663E+00
         21   -1    0    0  501  502  0.00000000000E+00  0.00000000000E+00  0.20441700029E+03  0.20441700029E+03  0.00000000000E+00 0. -1.
         21   -1    0    0  502  503 -0.00000000000E+00 -0.00000000000E+00 -0.70556758609E+03  0.70556758609E+03  0.00000000000E+00 0.  1.
         25    1    1    2    0    0 -0.20116121838E+03 -0.20279868418E+02 -0.49391289385E+03  0.54813507054E+03  0.12500000000E+03 0.  0.
          1    1    1    2  501    0  0.35040013957E+02 -0.42652591834E+02  0.12746950437E+03  0.13890831765E+03  0.00000000000E+00 0. -1.
         -1    1    1    2    0  503  0.16612120443E+03  0.62932460252E+02 -0.13470719632E+03  0.22294119820E+03  0.00000000000E+00 0.  1.
<mgrwt>
<rscale>  4 0.22855245E+03</rscale>
<asrwt>0</asrwt>
<pdfrwt beam="1">  1       21 0.31448769E-01 0.22855245E+03</pdfrwt>
<pdfrwt beam="2">  1       21 0.10854886E+00 0.22855245E+03</pdfrwt>
<totfact> 0.63848463E+03</totfact>
</mgrwt>
</event>
<event>
 5    0  0.1972558E-002  0.2860851E+03  0.7546771E-02  0.1092411E+00
         21   -1    0    0  501  502  0.00000000000E+00  0.00000000000E+00  0.65554886589E+03  0.65554886589E+03  0.00000000000E+00 0. -1.
         21   -1    0    0  502  503 -0.00000000000E+00 -0.00000000000E+00 -0.85120891653E+03  0.85120891653E+03  0.00000000000E+00 0. -1.
         25    1    1    2    0    0 -0.24122155514E+03  0.99013812612E+02 -0.76433691713E+03  0.81720713203E+03  0.12500000000E+03 0.  0.
          1    1    1    2  501    0  0.25203753411E+02 -0.22546260708E+02  0.40866190553E+03  0.41005867396E+03  0.00000000000E+00 0. -1.
         -1    1    1    2    0  503  0.21601780173E+03 -0.76467551904E+02  0.16001496097E+03  0.27949197643E+03  0.00000000000E+00 0.  1.
<mgrwt>
<rscale>  4 0.28608512E+03</rscale>
<asrwt>0</asrwt>
<pdfrwt beam="1">  1       21 0.10085367E+00 0.28608512E+03</pdfrwt>
<pdfrwt beam="2">  1       21 0.13095522E+00 0.28608512E+03</pdfrwt>
<totfact> 0.31151893E+02</totfact>
</mgrwt>
</event>
<event>
 5    0  0.1972558E-002  0.2369677E+03  0.7546771E-02  0.1121830E+00
         21   -1    0    0  501  502  0.00000000000E+00  0.00000000000E+00  0.46511544078E+03  0.46511544078E+03  0.00000000000E+00 0. -1.
         21   -1    0    0  502  503 -0.00000000000E+00 -0.00000000000E+00 -0.50590637602E+03  0.50590637602E+03  0.00000000000E+00 0.  1.
         25    1    1    2    0    0 -0.19883702288E+03  0.26481002620E+02 -0.41536515028E+03  0.47790230512E+03  0.12500000000E+03 0.  0.
          3    1    1    2  501    0 -0.77704668913E+01 -0.22427593350E+02  0.25146066508E+03  0.25257839017E+03  0.00000000000E+00 0. -1.
         -3    1    1    2    0  503  0.20660748977E+03 -0.40534092699E+01  0.12311354995E+03  0.24054112151E+03  0.00000000000E+00 0.  1.
<mgrwt>
<rscale>  4 0.23696765E+03</rscale>
<asrwt>0</asrwt>
<pdfrwt beam="1">  1       21 0.71556222E-01 0.23696765E+03</pdfrwt>
<pdfrwt beam="2">  1       21 0.77831750E-01 0.23696765E+03</pdfrwt>
<totfact> 0.24917121E+03</totfact>
</mgrwt>
</event>
<event>
 5    0  0.1972558E-002  0.2823365E+03  0.7546771E-02  0.1094420E+00
         21   -1    0    0  501  502  0.00000000000E+00  0.00000000000E+00  0.52585319357E+03  0.52585319357E+03  0.00000000000E+00 0. -1.
         21   -1    0    0  502  503 -0.00000000000E+00 -0.00000000000E+00 -0.12753773524E+04  0.12753773524E+04  0.00000000000E+00 0.  1.
         25    1    1    2    0    0  0.42645937157E+02  0.24202272914E+03 -0.38471051340E+03  0.47330841583E+03  0.12500000000E+03 0.  0.
          2    1    1    2  501    0 -0.13334337728E+03  0.99268407880E+01  0.45041409180E+03  0.46984236987E+03  0.00000000000E+00 0. -1.
         -2    1    1    2    0  503  0.90697440125E+02 -0.25194956993E+03 -0.81522773728E+03  0.85807976032E+03  0.00000000000E+00 0.  1.
<mgrwt>
<rscale>  4 0.28233648E+03</rscale>
<asrwt>0</asrwt>
<pdfrwt beam="1">  1       21 0.80900492E-01 0.28233648E+03</pdfrwt>
<pdfrwt beam="2">  1       21 0.19621190E+00 0.28233648E+03</pdfrwt>
<totfact> 0.17233151E+02</totfact>
</mgrwt>
</event>
<event>
 5    0  0.1972558E-002  0.2091598E+03  0.7546771E-02  0.1142233E+00
         21   -1    0    0  501  502  0.00000000000E+00  0.00000000000E+00  0.10665272142E+04  0.10665272142E+04  0.00000000000E+00 0.  1.
         21   -1    0    0  502  503 -0.00000000000E+00 -0.00000000000E+00 -0.81079407394E+02  0.81079407394E+02  0.00000000000E+00 0.  1.
         25    1    1    2    0    0 -0.20529246446E+03 -0.48925529421E+02  0.19846580532E+03  0.31551922172E+03  0.12500000000E+03 0.  0.
          2    1    1    2  501    0  0.14512023799E+03  0.71472325395E+02  0.72492934624E+03  0.74275886653E+03  0.00000000000E+00 0.  1.
         -2    1    1    2    0  503  0.60172226473E+02 -0.22546795974E+02  0.62052655273E+02  0.89328533369E+02  0.00000000000E+00 0. -1.
<mgrwt>
<rscale>  4 0.20915983E+03</rscale>
<asrwt>0</asrwt>
<pdfrwt beam="1">  1       21 0.16408110E+00 0.20915983E+03</pdfrwt>
<pdfrwt beam="2">  1       21 0.12473756E-01 0.20915983E+03</pdfrwt>
<totfact> 0.12715405E+04</totfact>
</mgrwt>
</event>
<event>
 5    0  0.1972558E-002  0.2704787E+03  0.7546771E-02  0.1101006E+00
         21   -1    0    0  501  502  0.00000000000E+00  0.00000000000E+00  0.13677217718E+03  0.13677217718E+03  0.00000000000E+00 0. -1.
         21   -1    0    0  502  503 -0.00000000000E+00 -0.00000000000E+00 -0.70255568425E+03  0.70255568425E+03  0.00000000000E+00 0.  1.
         25    1    1    2    0    0  0.21027376271E+03  0.77930605991E+02 -0.36081504316E+03  0.44283262075E+03  0.12500000000E+03 0.  0.
          4    1    1    2  501    0 -0.25506002802E+03 -0.67145146883E+02 -0.22459659522E+03  0.34642130308E+03  0.00000000000E+00 0. -1.
         -4    1    1    2    0  503  0.44786265302E+02 -0.10785459108E+02  0.19628131305E+02  0.50073937596E+02  0.00000000000E+00 0.  1.
<mgrwt>
<rscale>  4 0.27047870E+03</rscale>
<asrwt>0</asrwt>
<pdfrwt beam="1">  1       21 0.21041874E-01 0.27047870E+03</pdfrwt>
<pdfrwt beam="2">  1       21 0.10808549E+00 0.27047870E+03</pdfrwt>
<totfact> 0.13666370E+04</totfact>
</mgrwt>
</event>
<event>
 5    0  0.1972558E-002  0.3521498E+03  0.7546771E-02  0.1061736E+00
         21   -1    0    0  501  502  0.00000000000E+00  0.00000000000E+00  0.32925812556E+03  0.32925812556E+03  0.00000000000E+00 0.  1.
         21   -1    0    0  502  503 -0.00000000000E+00 -0.00000000000E+00 -0.41962093855E+03  0.41962093855E+03  0.00000000000E+00 0. -1.
         25    1    1    2    0    0  0.20621743960E+03 -0.25662977554E+03 -0.17958241752E+03  0.39529649476E+03  0.12500000000E+03 0.  0.
          4    1    1    2  501    0 -0.17950284735E+03  0.15986125631E+03  0.77284782169E+02  0.25248728885E+03  0.00000000000E+00 0.  1.
         -4    1    1    2    0  503 -0.26714592255E+02  0.96768519230E+02  0.11934822360E+02  0.10109528049E+03  0.00000000000E+00 0. -1.
<mgrwt>
<rscale>  4 0.35214979E+03</rscale>
<asrwt>0</asrwt>
<pdfrwt beam="1">  1       21 0.50655096E-01 0.35214979E+03</pdfrwt>
<pdfrwt beam="2">  1       21 0.64557067E-01 0.35214979E+03</pdfrwt>
<totfact> 0.75282930E+03</totfact>
</mgrwt>
</event>
<event>
 5    0  0.1972558E-002  0.2604209E+03  0.7546771E-02  0.1106891E+00
         21   -1    0    0  501  502  0.00000000000E+00  0.00000000000E+00  0.10567725248E+03  0.10567725248E+03  0.00000000000E+00 0. -1.
         21   -1    0    0  502  503 -0.00000000000E+00 -0.00000000000E+00 -0.73582568506E+03  0.73582568506E+03  0.00000000000E+00 0. -1.
         25    1    1    2    0    0 -0.14390907345E+03  0.18283754736E+03 -0.48887762534E+03  0.55566691705E+03  0.12500000000E+03 0.  0.
          4    1    1    2  501    0  0.24548798928E+02  0.36158414831E+01 -0.34411456925E+01  0.25051134148E+02  0.00000000000E+00 0.  1.
         -4    1    1    2    0  503  0.11936027453E+03 -0.18645338884E+03 -0.13782966154E+03  0.26078488634E+03  0.00000000000E+00 0. -1.
<mgrwt>
<rscale>  4 0.26042088E+03</rscale>
<asrwt>0</asrwt>
<pdfrwt beam="1">  1       21 0.16258039E-01 0.26042088E+03</pdfrwt>
<pdfrwt beam="2">  1       21 0.11320395E+00 0.26042088E+03</pdfrwt>
<totfact> 0.19856546E+04</totfact>
</mgrwt>
</event>
<event>
 5    0  0.1972558E-002  0.3453221E+03  0.7546771E-02  0.1064552E+00
         21   -1    0    0  503  502  0.00000000000E+00  0.00000000000E+00  0.93850031954E+03  0.93850031954E+03  0.00000000000E+00 0.  1.
         21   -1    0    0  501  503 -0.00000000000E+00 -0.00000000000E+00 -0.22588857723E+03  0.22588857723E+03  0.00000000000E+00 0.  1.
         25    1    1    2    0    0  0.15302374943E+03  0.28320673934E+03 -0.31039890526E+02  0.34671429146E+03  0.12500000000E+03 0.  0.
          4    1    1    2  501    0  0.15851246457E+01 -0.71715791651E+02  0.23225137108E+03  0.24307687418E+03  0.00000000000E+00 0. -1.
         -4    1    1    2    0  502 -0.15460887408E+03 -0.21149094769E+03  0.51140026176E+03  0.57459773114E+03  0.00000000000E+00 0.  1.
<mgrwt>
<rscale>  4 0.34532206E+03</rscale>
<asrwt>0</asrwt>
<pdfrwt beam="1">  1       21 0.14438466E+00 0.34532206E+03</pdfrwt>
<pdfrwt beam="2">  1       21 0.34752089E-01 0.34532206E+03</pdfrwt>
<totfact> 0.23728310E+03</totfact>
</mgrwt>
</event>
<event>
 5    0  0.1972558E-002  0.2263331E+03  0.7546771E-02  0.1129248E+00
         21   -1    0    0  501  502  0.00000000000E+00  0.00000000000E+00  0.22084120874E+03  0.22084120874E+03  0.00000000000E+00 0. -1.
         21   -1    0    0  502  503 -0.00000000000E+00 -0.00000000000E+00 -0.25705498824E+03  0.25705498824E+03  0.00000000000E+00 0.  1.
         25    1    1    2    0    0  0.39762955256E+02 -0.19697667241E+03 -0.74829038953E+02  0.24820412397E+03  0.12500000000E+03 0.  0.
          2    1    1    2  501    0 -0.40654393341E+02  0.17203278878E+03 -0.78520160203E+01  0.17694551215E+03  0.00000000000E+00 0. -1.
         -2    1    1    2    0  503  0.89143808523E+00  0.24943883626E+02  0.46467275479E+02  0.52746560861E+02  0.00000000000E+00 0.  1.
<mgrwt>
<rscale>  4 0.22633309E+03</rscale>
<asrwt>0</asrwt>
<pdfrwt beam="1">  1       21 0.33975571E-01 0.22633309E+03</pdfrwt>
<pdfrwt beam="2">  1       21 0.39546921E-01 0.22633309E+03</pdfrwt>
<totfact> 0.50644967E+04</totfact>
</mgrwt>
</event>
<event>
 5    0  0.1972558E-002  0.5494115E+03  0.7546771E-02  0.1001630E+00
         21   -1    0    0  501  502  0.00000000000E+00  0.00000000000E+00  0.56711658164E+03  0.56711658164E+03  0.00000000000E+00 0.  1.
         21   -1    0    0  502  503 -0.00000000000E+00 -0.00000000000E+00 -0.96748215715E+03  0.96748215715E+03  0.00000000000E+00 0. -1.
         25    1    1    2    0    0  0.39791721036E+03  0.34319078952E+03 -0.52005331720E+03  0.74979895775E+03  0.12500000000E+03 0.  0.
          4    1    1    2  501    0 -0.40343407010E+03 -0.38063322955E+03 -0.98518897720E+02  0.56333531539E+03  0.00000000000E+00 0.  1.
         -4    1    1    2    0  503  0.55168597470E+01  0.37442440027E+02  0.21820663941E+03  0.22146446564E+03  0.00000000000E+00 0. -1.
<mgrwt>
<rscale>  4 0.54941146E+03</rscale>
<asrwt>0</asrwt>
<pdfrwt beam="1">  1       21 0.87248704E-01 0.54941146E+03</pdfrwt>
<pdfrwt beam="2">  1       21 0.14884341E+00 0.54941146E+03</pdfrwt>
<totfact> 0.27112808E+02</totfact>
</mgrwt>
</event>
<event>
 5    0  0.1972558E-002  0.2611128E+03  0.7546771E-02  0.1106476E+00
         21   -1    0    0  501  502  0.00000000000E+00  0.00000000000E+00  0.18569030851E+03  0.18569030851E+03  0.00000000000E+00 0.  1.
         21   -1    0    0  502  503 -0.00000000000E+00 -0.00000000000E+00 -0.20086804376E+04  0.20086804376E+04  0.00000000000E+00 0.  1.
         25    1    1    2    0    0  0.15958725723E+03  0.15442007959E+03 -0.60786876816E+03  0.65912297255E+03  0.12500000000E+03 0.  0.
          3    1    1    2  501    0 -0.18746472207E+03 -0.13766226524E+03 -0.13635772691E+04  0.13832703605E+04  0.00000000000E+00 0. -1.
         -3    1    1    2    0  503  0.27877464840E+02 -0.16757814345E+02  0.14845590823E+03  0.15197741304E+03  0.00000000000E+00 0.  1.
<mgrwt>
<rscale>  4 0.26111280E+03</rscale>
<asrwt>0</asrwt>
<pdfrwt beam="1">  1       21 0.28567741E-01 0.26111280E+03</pdfrwt>
<pdfrwt beam="2">  1       21 0.30902775E+00 0.26111280E+03</pdfrwt>
<totfact> 0.32485593E+02</totfact>
</mgrwt>
</event>
<event>
 5    0  0.1972558E-002  0.1970046E+03  0.7546771E-02  0.1152291E+00
         21   -1    0    0  501  502  0.00000000000E+00  0.00000000000E+00  0.41311414380E+03  0.41311414380E+03  0.00000000000E+00 0.  1.
         21   -1    0    0  502  503 -0.00000000000E+00 -0.00000000000E+00 -0.39379257737E+03  0.39379257737E+03  0.00000000000E+00 0. -1.
         25    1    1    2    0    0  0.18513360325E+03  0.13179482476E+03 -0.15865180573E+03  0.30403901452E+03  0.12500000000E+03 0.  0.
          1    1    1    2  501    0 -0.75601240743E+02 -0.69586923184E+02  0.30628404305E+03  0.32306006021E+03  0.00000000000E+00 0.  1.
         -1    1    1    2    0  503 -0.10953236251E+03 -0.62207901577E+02 -0.12831067088E+03  0.17980764644E+03  0.00000000000E+00 0. -1.
<mgrwt>
<rscale>  4 0.19700460E+03</rscale>
<asrwt>0</asrwt>
<pdfrwt beam="1">  1       21 0.63556022E-01 0.19700460E+03</pdfrwt>
<pdfrwt beam="2">  1       21 0.60583473E-01 0.19700460E+03</pdfrwt>
<totfact> 0.57887454E+03</totfact>
</mgrwt>
</event>
<event>
 5    0  0.1972558E-002  0.2347685E+03  0.7546771E-02  0.1123328E+00
         21   -1    0    0  503  502  0.00000000000E+00  0.00000000000E+00  0.65275729732E+03  0.65275729732E+03  0.00000000000E+00 0. -1.
         21   -1    0    0  501  503 -0.00000000000E+00 -0.00000000000E+00 -0.90798687164E+02  0.90798687164E+02  0.00000000000E+00 0. -1.
         25    1    1    2    0    0 -0.61634376593E+02 -0.19859049652E+03  0.19350475045E+03  0.31033219319E+03  0.12500000000E+03 0.  0.
          3    1    1    2  501    0  0.37232763539E+02  0.12376342951E+02  0.50561880807E+02  0.63999658877E+02  0.00000000000E+00 0.  1.
         -3    1    1    2    0  502  0.24401613054E+02  0.18621415357E+03  0.31789197890E+03  0.36922413242E+03  0.00000000000E+00 0. -1.
<mgrwt>
<rscale>  4 0.23476852E+03</rscale>
<asrwt>0</asrwt>
<pdfrwt beam="1">  1       21 0.10042420E+00 0.23476852E+03</pdfrwt>
<pdfrwt beam="2">  1       21 0.13969029E-01 0.23476852E+03</pdfrwt>
<totfact> 0.35495388E+04</totfact>
</mgrwt>
</event>
<event>
 5    0  0.1972558E-002  0.2500211E+03  0.7546771E-02  0.1113291E+00
         21   -1    0    0  501  502  0.00000000000E+00  0.00000000000E+00  0.63143768886E+02  0.63143768886E+02  0.00000000000E+00 0. -1.
         21   -1    0    0  502  503 -0.00000000000E+00 -0.00000000000E+00 -0.15009126721E+04  0.15009126721E+04  0.00000000000E+00 0. -1.
         25    1    1    2    0    0  0.21899719315E+03 -0.98556714226E+02 -0.10311918294E+04  0.10661401341E+04  0.12500000000E+03 0.  0.
          2    1    1    2  501    0 -0.14272016832E+03  0.12483835236E+03 -0.35410303255E+03  0.40167476685E+03  0.00000000000E+00 0. -1.
         -2    1    1    2    0  503 -0.76277024837E+02 -0.26281638133E+02 -0.52474041264E+02  0.96241540031E+02  0.00000000000E+00 0.  1.
<mgrwt>
<rscale>  4 0.25002109E+03</rscale>
<asrwt>0</asrwt>
<pdfrwt beam="1">  1       21 0.97144257E-02 0.25002109E+03</pdfrwt>
<pdfrwt beam="2">  1       21 0.23090965E+00 0.25002109E+03</pdfrwt>
<totfact> 0.70244318E+03</totfact>
</mgrwt>
</event>
<event>
 5    0  0.1972558E-002  0.4139338E+03  0.7546771E-02  0.1039059E+00
         21   -1    0    0  501  502  0.00000000000E+00  0.00000000000E+00  0.58932172025E+03  0.58932172025E+03  0.00000000000E+00 0. -1.
         21   -1    0    0  502  503 -0.00000000000E+00 -0.00000000000E+00 -0.54507986072E+03  0.54507986072E+03  0.00000000000E+00 0.  1.
         25    1    1    2    0    0 -0.13795410164E+03 -0.37386944453E+03 -0.22586854968E+03  0.47481712000E+03  0.12500000000E+03 0.  0.
          1    1    1    2  501    0  0.96617029779E+02  0.37755778164E+03  0.34758421881E+01  0.38973941345E+03  0.00000000000E+00 0.  1.
         -1    1    1    2    0  503  0.41337071858E+02 -0.36883371027E+01  0.26663456702E+03  0.26984504752E+03  0.00000000000E+00 0. -1.
<mgrwt>
<rscale>  4 0.41393384E+03</rscale>
<asrwt>0</asrwt>
<pdfrwt beam="1">  1       21 0.90664880E-01 0.41393384E+03</pdfrwt>
<pdfrwt beam="2">  1       21 0.83858440E-01 0.41393384E+03</pdfrwt>
<totfact> 0.11042573E+03</totfact>
</mgrwt>
</event>
<event>
 5    0  0.1972558E-002  0.2497819E+03  0.7546771E-02  0.1113443E+00
         21   -1    0    0  501  502  0.00000000000E+00  0.00000000000E+00  0.43910942718E+03  0.43910942718E+03  0.00000000000E+00 0.  1.
         21   -1    0    0  502  503 -0.00000000000E+00 -0.00000000000E+00 -0.21772600891E+03  0.21772600891E+03  0.00000000000E+00 0.  1.
         25    1    1    2    0    0  0.97601222145E+02  0.22093654147E+03 -0.50759010979E+02  0.27665941357E+03  0.12500000000E+03 0.  0.
          2    1    1    2  501    0 -0.91494955269E+02 -0.18989814399E+03  0.27709387678E+03  0.34815750528E+03  0.00000000000E+00 0.  1.
         -2    1    1    2    0  503 -0.61062668761E+01 -0.31038397482E+02 -0.49514475371E+01  0.32018517238E+02  0.00000000000E+00 0. -1.
<mgrwt>
<rscale>  4 0.24978190E+03</rscale>
<asrwt>0</asrwt>
<pdfrwt beam="1">  1       21 0.67555296E-01 0.24978190E+03</pdfrwt>
<pdfrwt beam="2">  1       21 0.33496309E-01 0.24978190E+03</pdfrwt>
<totfact> 0.16648657E+04</totfact>
</mgrwt>
</event>
<event>
 5    0  0.1972558E-002  0.5149183E+03  0.7546771E-02  0.1009957E+00
         21   -1    0    0  501  502  0.00000000000E+00  0.00000000000E+00  0.58005629605E+03  0.58005629605E+03  0.00000000000E+00 0.  1.
         21   -1    0    0  502  503 -0.00000000000E+00 -0.00000000000E+00 -0.21696697675E+04  0.21696697675E+04  0.00000000000E+00 0. -1.
         25    1    1    2    0    0 -0.49530636524E+03 -0.66170521763E+01 -0.14412159575E+04  0.15290848953E+04  0.12500000000E+03 0.  0.
          2    1    1    2  501    0  0.50649897453E+03  0.68952536708E+02 -0.58649345116E+03  0.77799115147E+03  0.00000000000E+00 0. -1.
         -2    1    1    2    0  503 -0.11192609287E+02 -0.62335484531E+02  0.43809593723E+03  0.44265001678E+03  0.00000000000E+00 0.  1.
<mgrwt>
<rscale>  4 0.51491825E+03</rscale>
<asrwt>0</asrwt>
<pdfrwt beam="1">  1       21 0.89239431E-01 0.51491825E+03</pdfrwt>
<pdfrwt beam="2">  1       21 0.33379534E+00 0.51491825E+03</pdfrwt>
<totfact> 0.16432608E+01</totfact>
</mgrwt>
</event>
<event>
 5    0  0.1972558E-002  0.3863598E+03  0.7546771E-02  0.1048608E+00
         21   -1    0    0  501  502  0.00000000000E+00  0.00000000000E+00  0.50180325441E+03  0.50180325441E+03  0.00000000000E+00 0.  1.
         21   -1    0    0  502  503 -0.00000000000E+00 -0.00000000000E+00 -0.37528339157E+03  0.37528339157E+03  0.00000000000E+00 0.  1.
         25    1    1    2    0    0  0.28486246029E+03  0.21379535875E+03  0.41405975674E+02  0.37972955051E+03  0.12500000000E+03 0.  0.
          3    1    1    2  501    0  0.38906651054E+02 -0.25598867417E+02  0.11260614784E+03  0.12185718707E+03  0.00000000000E+00 0. -1.
         -3    1    1    2    0  503 -0.32376911135E+03 -0.18819649134E+03 -0.27492260672E+02  0.37549990840E+03  0.00000000000E+00 0.  1.
<mgrwt>
<rscale>  4 0.38635976E+03</rscale>
<asrwt>0</asrwt>
<pdfrwt beam="1">  1       21 0.77200501E-01 0.38635976E+03</pdfrwt>
<pdfrwt beam="2">  1       21 0.57735906E-01 0.38635976E+03</pdfrwt>
<totfact> 0.37541183E+03</totfact>
</mgrwt>
</event>
<event>
 5    0  0.1972558E-002  0.2310109E+03  0.7546771E-02  0.1125930E+00
         21   -1    0    0  501  502  0.00000000000E+00  0.00000000000E+00  0.13606995452E+03  0.13606995452E+03  0.00000000000E+00 0. -1.
         21   -1    0    0  502  503 -0.00000000000E+00 -0.00000000000E+00 -0.53211310789E+03  0.53211310789E+03  0.00000000000E+00 0. -1.
         25    1    1    2    0    0  0.42778179746E+02 -0.19563378511E+03 -0.35066400162E+03  0.42272070279E+03  0.12500000000E+03 0.  0.
          1    1    1    2  501    0 -0.53945325264E+02  0.17665698087E+03 -0.82504339955E+02  0.20229867305E+03  0.00000000000E+00 0. -1.
         -1    1    1    2    0  503  0.11167145519E+02  0.18976804247E+02  0.37125188209E+02  0.43163686566E+02  0.00000000000E+00 0.  1.
<mgrwt>
<rscale>  4 0.23101093E+03</rscale>
<asrwt>0</asrwt>
<pdfrwt beam="1">  1       21 0.20933839E-01 0.23101093E+03</pdfrwt>
<pdfrwt beam="2">  1       21 0.81863556E-01 0.23101093E+03</pdfrwt>
<totfact> 0.27095589E+04</totfact>
</mgrwt>
</event>
<event>
 5    0  0.1972558E-002  0.2230629E+03  0.7546771E-02  0.1131620E+00
         21   -1    0    0  503  502  0.00000000000E+00  0.00000000000E+00  0.22912964344E+03  0.22912964344E+03  0.00000000000E+00 0.  1.
         21   -1    0    0  501  503 -0.00000000000E+00 -0.00000000000E+00 -0.32086934652E+03  0.32086934652E+03  0.00000000000E+00 0.  1.
         25    1    1    2    0    0  0.60285927222E+02  0.22629262815E+03 -0.81793200797E+01  0.26558359861E+03  0.12500000000E+03 0.  0.
          3    1    1    2  501    0 -0.20637573303E+02 -0.72518382056E+02 -0.99470862124E+02  0.12481697633E+03  0.00000000000E+00 0. -1.
         -3    1    1    2    0  502 -0.39648353919E+02 -0.15377424609E+03  0.15910479122E+02  0.15959841502E+03  0.00000000000E+00 0.  1.
<mgrwt>
<rscale>  4 0.22306288E+03</rscale>
<asrwt>0</asrwt>
<pdfrwt beam="1">  1       21 0.35250715E-01 0.22306288E+03</pdfrwt>
<pdfrwt beam="2">  1       21 0.49364514E-01 0.22306288E+03</pdfrwt>
<totfact> 0.29875458E+04</totfact>
</mgrwt>
</event>
<event>
 5    0  0.1972558E-002  0.2642954E+03  0.7546771E-02  0.1104590E+00
         21   -1    0    0  501  502  0.00000000000E+00  0.00000000000E+00  0.44836294046E+03  0.44836294046E+03  0.00000000000E+00 0. -1.
         21   -1    0    0  502  503 -0.00000000000E+00 -0.00000000000E+00 -0.19879720999E+03  0.19879720999E+03  0.00000000000E+00 0. -1.
         25    1    1    2    0    0  0.71068516347E+02  0.21877405287E+03  0.12721593290E+02  0.26210619825E+03  0.12500000000E+03 0.  0.
          4    1    1    2  501    0 -0.25588169102E+02  0.14778131939E+02  0.11302925785E+03  0.11682791067E+03  0.00000000000E+00 0.  1.
         -4    1    1    2    0  503 -0.45480347245E+02 -0.23355218481E+03  0.12381487933E+03  0.26822604153E+03  0.00000000000E+00 0. -1.
<mgrwt>
<rscale>  4 0.26429537E+03</rscale>
<asrwt>0</asrwt>
<pdfrwt beam="1">  1       21 0.68978914E-01 0.26429537E+03</pdfrwt>
<pdfrwt beam="2">  1       21 0.30584186E-01 0.26429537E+03</pdfrwt>
<totfact> 0.18898211E+04</totfact>
</mgrwt>
</event>
<event>
 5    0  0.1972558E-002  0.2544320E+03  0.7546771E-02  0.1110536E+00
         21   -1    0    0  501  502  0.00000000000E+00  0.00000000000E+00  0.10386435564E+04  0.10386435564E+04  0.00000000000E+00 0.  1.
         21   -1    0    0  502  503 -0.00000000000E+00 -0.00000000000E+00 -0.10230713520E+03  0.10230713520E+03  0.00000000000E+00 0. -1.
         25    1    1    2    0    0 -0.90841672148E+02  0.20814672933E+03  0.14414913188E+03  0.29661632212E+03  0.12500000000E+03 0.  0.
          1    1    1    2  501    0  0.70377577726E+02 -0.19910562236E+03  0.40724359574E+03  0.45874110190E+03  0.00000000000E+00 0.  1.
         -1    1    1    2    0  503  0.20464094422E+02 -0.90411069742E+01  0.38494369358E+03  0.38559326758E+03  0.00000000000E+00 0. -1.
<mgrwt>
<rscale>  4 0.25443198E+03</rscale>
<asrwt>0</asrwt>
<pdfrwt beam="1">  1       21 0.15979131E+00 0.25443198E+03</pdfrwt>
<pdfrwt beam="2">  1       21 0.15739560E-01 0.25443198E+03</pdfrwt>
<totfact> 0.86894233E+03</totfact>
</mgrwt>
</event>
<event>
 5    0  0.1972558E-002  0.2503488E+03  0.7546771E-02  0.1113085E+00
         21   -1    0    0  503  502  0.00000000000E+00  0.00000000000E+00  0.17129864282E+04  0.17129864282E+04  0.00000000000E+00 0.  1.
         21   -1    0    0  501  503 -0.00000000000E+00 -0.00000000000E+00 -0.38878666930E+03  0.38878666930E+03  0.00000000000E+00 0.  1.
         25    1    1    2    0    0 -0.12872875076E+03 -0.17445207532E+03 -0.33679974021E+03  0.41959943143E+03  0.12500000000E+03 0.  0.
          3    1    1    2  501    0  0.30574733524E+02 -0.26718957389E+02  0.32917686273E+03  0.33167171114E+03  0.00000000000E+00 0. -1.
         -3    1    1    2    0  502  0.98154017238E+02  0.20117103271E+03  0.13318226364E+04  0.13505019550E+04  0.00000000000E+00 0.  1.
<mgrwt>
<rscale>  4 0.25034883E+03</rscale>
<asrwt>0</asrwt>
<pdfrwt beam="1">  1       21 0.26353637E+00 0.25034883E+03</pdfrwt>
<pdfrwt beam="2">  1       21 0.59813335E-01 0.25034883E+03</pdfrwt>
<totfact> 0.13383707E+02</totfact>
</mgrwt>
</event>
<event>
 5    0  0.1972558E-002  0.4019067E+03  0.7546771E-02  0.1043121E+00
         21   -1    0    0  501  502  0.00000000000E+00  0.00000000000E+00  0.13189190349E+03  0.13189190349E+03  0.00000000000E+00 0. -1.
         21   -1    0    0  502  503 -0.00000000000E+00 -0.00000000000E+00 -0.15130654594E+04  0.15130654594E+04  0.00000000000E+00 0. -1.
         25    1    1    2    0    0 -0.45781012870E+02  0.38958031402E+03 -0.92430818426E+03  0.10118494659E+04  0.12500000000E+03 0.  0.
          3    1    1    2  501    0  0.61264584298E+02 -0.36229199262E+03 -0.47209423763E+03  0.59823223451E+03  0.00000000000E+00 0. -1.
         -3    1    1    2    0  503 -0.15483571428E+02 -0.27288321394E+02  0.15228866010E+02  0.34875662411E+02  0.00000000000E+00 0.  1.
<mgrwt>
<rscale>  4 0.40190675E+03</rscale>
<asrwt>0</asrwt>
<pdfrwt beam="1">  1       21 0.20291061E-01 0.40190675E+03</pdfrwt>
<pdfrwt beam="2">  1       21 0.23277931E+00 0.40190675E+03</pdfrwt>
<totfact> 0.16127955E+03</totfact>
</mgrwt>
</event>
<event>
 5    0  0.1972558E-002  0.3588509E+03  0.7546771E-02  0.1059040E+00
         21   -1    0    0  503  502  0.00000000000E+00  0.00000000000E+00  0.10391559871E+04  0.10391559871E+04  0.00000000000E+00 0. -1.
         21   -1    0    0  501  503 -0.00000000000E+00 -0.00000000000E+00 -0.13855288941E+03  0.13855288941E+03  0.00000000000E+00 0.  1.
         25    1    1    2    0    0 -0.26842397246E+03  0.17839590329E+03  0.29807889530E+03  0.45645652052E+03  0.12500000000E+03 0.  0.
          1    1    1    2  501    0 -0.25686591935E+02  0.27307517055E+02  0.53753270481E+02  0.65535605440E+02  0.00000000000E+00 0.  1.
         -1    1    1    2    0  502  0.29411056440E+03 -0.20570342035E+03  0.54877093192E+03  0.65571675055E+03  0.00000000000E+00 0. -1.
<mgrwt>
<rscale>  4 0.35885085E+03</rscale>
<asrwt>0</asrwt>
<pdfrwt beam="1">  1       21 0.15987015E+00 0.35885085E+03</pdfrwt>
<pdfrwt beam="2">  1       21 0.21315830E-01 0.35885085E+03</pdfrwt>
<totfact> 0.46533289E+03</totfact>
</mgrwt>
</event>
<event>
 5    0  0.1972558E-002  0.2032400E+03  0.7546771E-02  0.1147034E+00
         21   -1    0    0  501  502  0.00000000000E+00  0.00000000000E+00  0.46126477154E+03  0.46126477154E+03  0.00000000000E+00 0.  1.
         21   -1    0    0  502  503 -0.00000000000E+00 -0.00000000000E+00 -0.13689934541E+03  0.13689934541E+03  0.00000000000E+00 0. -1.
         25    1    1    2    0    0  0.22114269248E+02 -0.20036765191E+03  0.83626544584E+02  0.25150474309E+03  0.12500000000E+03 0.  0.
          2    1    1    2  501    0  0.35273502619E+02  0.13269129575E+03  0.69710229273E+02  0.15398284327E+03  0.00000000000E+00 0.  1.
         -2    1    1    2    0  503 -0.57387771868E+02  0.67676356157E+02  0.17102865228E+03  0.19267653060E+03  0.00000000000E+00 0. -1.
<mgrwt>
<rscale>  4 0.20323999E+03</rscale>
<asrwt>0</asrwt>
<pdfrwt beam="1">  1       21 0.70963810E-01 0.20323999E+03</pdfrwt>
<pdfrwt beam="2">  1       21 0.21061438E-01 0.20323999E+03</pdfrwt>
<totfact> 0.37458472E+04</totfact>
</mgrwt>
</event>
<event>
 5    0  0.1972558E-002  0.2428398E+03  0.7546771E-02  0.1117915E+00
         21   -1    0    0  501  502  0.00000000000E+00  0.00000000000E+00  0.96137769170E+02  0.96137769170E+02  0.00000000000E+00 0. -1.
         21   -1    0    0  502  503 -0.00000000000E+00 -0.00000000000E+00 -0.10647497163E+04  0.10647497163E+04  0.00000000000E+00 0.  1.
         25    1    1    2    0    0  0.53305609062E+02  0.20125770179E+03 -0.88117316254E+03  0.91402258882E+03  0.12500000000E+03 0.  0.
          3    1    1    2  501    0 -0.14839844013E+02 -0.10723553372E+03  0.65671051070E+01  0.10845647759E+03  0.00000000000E+00 0.  1.
         -3    1    1    2    0  503 -0.38465765049E+02 -0.94022168070E+02 -0.94005889699E+02  0.13840841906E+03  0.00000000000E+00 0. -1.
<mgrwt>
<rscale>  4 0.24283976E+03</rscale>
<asrwt>0</asrwt>
<pdfrwt beam="1">  1       21 0.14790427E-01 0.24283976E+03</pdfrwt>
<pdfrwt beam="2">  1       21 0.16380764E+00 0.24283976E+03</pdfrwt>
<totfact> 0.91663713E+03</totfact>
</mgrwt>
</event>
<event>
 5    0  0.1972558E-002  0.2697513E+03  0.7546771E-02  0.1101422E+00
         21   -1    0    0  501  502  0.00000000000E+00  0.00000000000E+00  0.25626803609E+04  0.25626803609E+04  0.00000000000E+00 0.  1.
         21   -1    0    0  502  503 -0.00000000000E+00 -0.00000000000E+00 -0.98752303397E+02  0.98752303397E+02  0.00000000000E+00 0. -1.
         25    1    1    2    0    0 -0.73939049201E+01  0.21683273157E+03  0.16991554036E+03  0.30260104786E+03  0.12500000000E+03 0.  0.
          2    1    1    2  501    0 -0.17192564222E+02  0.96080220567E+02  0.15265151850E+04  0.15296325059E+04  0.00000000000E+00 0.  1.
         -2    1    1    2    0  503  0.24586469142E+02 -0.31291295214E+03  0.76749733217E+03  0.82919911056E+03  0.00000000000E+00 0. -1.
<mgrwt>
<rscale>  4 0.26975133E+03</rscale>
<asrwt>0</asrwt>
<pdfrwt beam="1">  1       21 0.39425847E+00 0.26975133E+03</pdfrwt>
<pdfrwt beam="2">  1       21 0.15192664E-01 0.26975133E+03</pdfrwt>
<totfact> 0.32543969E+02</totfact>
</mgrwt>
</event>
<event>
 5    0  0.1972558E-002  0.6342231E+03  0.7546771E-02  0.9836842E-01
         21   -1    0    0  501  502  0.00000000000E+00  0.00000000000E+00  0.10370174012E+04  0.10370174012E+04  0.00000000000E+00 0. -1.
         21   -1    0    0  502  503 -0.00000000000E+00 -0.00000000000E+00 -0.45790619496E+03  0.45790619496E+03  0.00000000000E+00 0.  1.
         25    1    1    2    0    0  0.36030745046E+03 -0.51935886458E+03  0.15623836975E+03  0.66301622700E+03  0.12500000000E+03 0.  0.
          1    1    1    2  501    0 -0.16069331881E+01  0.25557126278E+02  0.16891826347E+03  0.17084826213E+03  0.00000000000E+00 0.  1.
         -1    1    1    2    0  503 -0.35870051728E+03  0.49380173831E+03  0.25395457303E+03  0.66105910705E+03  0.00000000000E+00 0. -1.
<mgrwt>
<rscale>  4 0.63422313E+03</rscale>
<asrwt>0</asrwt>
<pdfrwt beam="1">  1       21 0.15954114E+00 0.63422313E+03</pdfrwt>
<pdfrwt beam="2">  1       21 0.70447107E-01 0.63422313E+03</pdfrwt>
<totfact> 0.35604134E+02</totfact>
</mgrwt>
</event>
<event>
 5    0  0.1972558E-002  0.2627885E+03  0.7546771E-02  0.1105479E+00
         21   -1    0    0  503  502  0.00000000000E+00  0.00000000000E+00  0.52682685360E+03  0.52682685360E+03  0.00000000000E+00 0. -1.
         21   -1    0    0  501  503 -0.00000000000E+00 -0.00000000000E+00 -0.11626151310E+04  0.11626151310E+04  0.00000000000E+00 0. -1.
         25    1    1    2    0    0  0.78873409582E+02 -0.21868889719E+03 -0.11134829745E+04  0.11443405013E+04  0.12500000000E+03 0.  0.
          3    1    1    2  501    0  0.34782363903E+01  0.45924950208E+02  0.22396684994E+02  0.51213383785E+02  0.00000000000E+00 0.  1.
         -3    1    1    2    0  502 -0.82351645973E+02  0.17276394698E+03  0.45529801211E+03  0.49388809947E+03  0.00000000000E+00 0. -1.
<mgrwt>
<rscale>  4 0.26278848E+03</rscale>
<asrwt>0</asrwt>
<pdfrwt beam="1">  1       21 0.81050286E-01 0.26278848E+03</pdfrwt>
<pdfrwt beam="2">  1       21 0.17886386E+00 0.26278848E+03</pdfrwt>
<totfact> 0.22888583E+02</totfact>
</mgrwt>
</event>
<event>
 5    0  0.1972558E-002  0.2117438E+03  0.7546771E-02  0.1140192E+00
         21   -1    0    0  501  502  0.00000000000E+00  0.00000000000E+00  0.10555389962E+04  0.10555389962E+04  0.00000000000E+00 0. -1.
         21   -1    0    0  502  503 -0.00000000000E+00 -0.00000000000E+00 -0.62712963004E+02  0.62712963004E+02  0.00000000000E+00 0. -1.
         25    1    1    2    0    0  0.75779093145E+02 -0.18557568414E+03  0.27277931234E+03  0.36085226720E+03  0.12500000000E+03 0.  0.
          4    1    1    2  501    0 -0.64054971786E+02  0.43081128594E+02  0.39232445632E+03  0.39984684828E+03  0.00000000000E+00 0.  1.
         -4    1    1    2    0  503 -0.11724121358E+02  0.14249455555E+03  0.32772226456E+03  0.35755284374E+03  0.00000000000E+00 0. -1.
<mgrwt>
<rscale>  4 0.21174384E+03</rscale>
<asrwt>0</asrwt>
<pdfrwt beam="1">  1       21 0.16239060E+00 0.21174384E+03</pdfrwt>
<pdfrwt beam="2">  1       21 0.96481489E-02 0.21174384E+03</pdfrwt>
<totfact> 0.20632474E+04</totfact>
</mgrwt>
</event>
<event>
 5    0  0.1972558E-002  0.2829920E+03  0.7546771E-02  0.1094066E+00
         21   -1    0    0  501  502  0.00000000000E+00  0.00000000000E+00  0.25173728816E+03  0.25173728816E+03  0.00000000000E+00 0. -1.
         21   -1    0    0  502  503 -0.00000000000E+00 -0.00000000000E+00 -0.69203998568E+03  0.69203998568E+03  0.00000000000E+00 0.  1.
         25    1    1    2    0    0  0.25720995778E+03  0.45773603046E+02 -0.51863001045E+03  0.59401538099E+03  0.12500000000E+03 0.  0.
          1    1    1    2  501    0 -0.24018095268E+02 -0.22916962337E+02  0.10854872429E+03  0.11351159239E+03  0.00000000000E+00 0. -1.
         -1    1    1    2    0  503 -0.23319186251E+03 -0.22856640710E+02 -0.30221411358E+02  0.23625030046E+03  0.00000000000E+00 0.  1.
<mgrwt>
<rscale>  4 0.28299204E+03</rscale>
<asrwt>0</asrwt>
<pdfrwt beam="1">  1       21 0.38728814E-01 0.28299204E+03</pdfrwt>
<pdfrwt beam="2">  1       21 0.10646769E+00 0.28299204E+03</pdfrwt>
<totfact> 0.42697526E+03</totfact>
</mgrwt>
</event>
<event>
 5    0  0.1972558E-002  0.2946135E+03  0.7546771E-02  0.1087965E+00
         21   -1    0    0  501  502  0.00000000000E+00  0.00000000000E+00  0.55388720193E+03  0.55388720193E+03  0.00000000000E+00 0. -1.
         21   -1    0    0  502  503 -0.00000000000E+00 -0.00000000000E+00 -0.52410284014E+03  0.52410284014E+03  0.00000000000E+00 0.  1.
         25    1    1    2    0    0 -0.18808046563E+03 -0.12167235592E+03 -0.10965085830E+03  0.27897443336E+03  0.12500000000E+03 0.  0.
          4    1    1    2  501    0 -0.12643084052E+02 -0.11392306601E+03  0.38640633479E+03  0.40304859274E+03  0.00000000000E+00 0. -1.
         -4    1    1    2    0  503  0.20072354968E+03  0.23559542193E+03 -0.24697111471E+03  0.39596701597E+03  0.00000000000E+00 0.  1.
<mgrwt>
<rscale>  4 0.29461352E+03</rscale>
<asrwt>0</asrwt>
<pdfrwt beam="1">  1       21 0.85213416E-01 0.29461352E+03</pdfrwt>
<pdfrwt beam="2">  1       21 0.80631206E-01 0.29461352E+03</pdfrwt>
<totfact> 0.14881171E+03</totfact>
</mgrwt>
</event>
<event>
 5    0  0.1972558E-002  0.2523793E+03  0.7546771E-02  0.1111810E+00
         21   -1    0    0  501  502  0.00000000000E+00  0.00000000000E+00  0.26947320676E+03  0.26947320676E+03  0.00000000000E+00 0. -1.
         21   -1    0    0  502  503 -0.00000000000E+00 -0.00000000000E+00 -0.61990976492E+03  0.61990976492E+03  0.00000000000E+00 0. -1.
         25    1    1    2    0    0 -0.23446123554E+03 -0.10000763107E+02 -0.39549426852E+03  0.47656353476E+03  0.12500000000E+03 0.  0.
          4    1    1    2  501    0  0.19294055894E+03 -0.72797328071E+02 -0.10885535077E+03  0.23318447129E+03  0.00000000000E+00 0. -1.
         -4    1    1    2    0  503  0.41520676592E+02  0.82798091178E+02  0.15391306114E+03  0.17963496563E+03  0.00000000000E+00 0.  1.
<mgrwt>
<rscale>  4 0.25237930E+03</rscale>
<asrwt>0</asrwt>
<pdfrwt beam="1">  1       21 0.41457416E-01 0.25237930E+03</pdfrwt>
<pdfrwt beam="2">  1       21 0.95370733E-01 0.25237930E+03</pdfrwt>
<totfact> 0.49294943E+03</totfact>
</mgrwt>
</event>
<event>
 5    0  0.1972558E-002  0.2279367E+03  0.7546771E-02  0.1128100E+00
         21   -1    0    0  501  502  0.00000000000E+00  0.00000000000E+00  0.13289863694E+03  0.13289863694E+03  0.00000000000E+00 0. -1.
         21   -1    0    0  502  503 -0.00000000000E+00 -0.00000000000E+00 -0.45397505242E+03  0.45397505242E+03  0.00000000000E+00 0.  1.
         25    1    1    2    0    0 -0.19174200146E+03 -0.58091008033E+02 -0.25997492512E+03  0.35121435339E+03  0.12500000000E+03 0.  0.
          2    1    1    2  501    0  0.23809591273E+02 -0.35646293333E+01  0.27062355494E+02  0.36221185842E+02  0.00000000000E+00 0.  1.
         -2    1    1    2    0  503  0.16793241019E+03  0.61655637367E+02 -0.88163845857E+02  0.19943815013E+03  0.00000000000E+00 0. -1.
<mgrwt>
<rscale>  4 0.22793672E+03</rscale>
<asrwt>0</asrwt>
<pdfrwt beam="1">  1       21 0.20445944E-01 0.22793672E+03</pdfrwt>
<pdfrwt beam="2">  1       21 0.69842316E-01 0.22793672E+03</pdfrwt>
<totfact> 0.40531503E+04</totfact>
</mgrwt>
</event>
<event>
 5    0  0.1972558E-002  0.2587591E+03  0.7546771E-02  0.1107891E+00
         21   -1    0    0  501  502  0.00000000000E+00  0.00000000000E+00  0.18372990447E+04  0.18372990447E+04  0.00000000000E+00 0.  1.
         21   -1    0    0  502  503 -0.00000000000E+00 -0.00000000000E+00 -0.23344408505E+03  0.23344408505E+03  0.00000000000E+00 0. -1.
         25    1    1    2    0    0  0.16059065339E+03 -0.17135697549E+03 -0.13111502780E+03  0.29659521493E+03  0.12500000000E+03 0.  0.
          1    1    1    2  501    0 -0.91540871084E+02 -0.42202052159E+01  0.12563079221E+04  0.12596456392E+04  0.00000000000E+00 0.  1.
         -1    1    1    2    0  503 -0.69049782307E+02  0.17557718070E+03  0.47866206536E+03  0.51450227563E+03  0.00000000000E+00 0. -1.
<mgrwt>
<rscale>  4 0.25875913E+03</rscale>
<asrwt>0</asrwt>
<pdfrwt beam="1">  1       21 0.28266138E+00 0.25875913E+03</pdfrwt>
<pdfrwt beam="2">  1       21 0.35914476E-01 0.25875913E+03</pdfrwt>
<totfact> 0.29548770E+02</totfact>
</mgrwt>
</event>
<event>
 5    0  0.1972558E-002  0.2442313E+03  0.7546771E-02  0.1117006E+00
         21   -1    0    0  501  502  0.00000000000E+00  0.00000000000E+00  0.23310049841E+04  0.23310049841E+04  0.00000000000E+00 0. -1.
         21   -1    0    0  502  503 -0.00000000000E+00 -0.00000000000E+00 -0.17269101497E+03  0.17269101497E+03  0.00000000000E+00 0. -1.
         25    1    1    2    0    0  0.94294637779E+02 -0.18877218648E+03 -0.64213411059E+02  0.25352471135E+03  0.12500000000E+03 0.  0.
          3    1    1    2  501    0  0.12779323648E+02  0.18238143695E+02  0.14984754307E+04  0.14986409034E+04  0.00000000000E+00 0. -1.
         -3    1    1    2    0  503 -0.10707396143E+03  0.17053404279E+03  0.72405194948E+03  0.75153038429E+03  0.00000000000E+00 0.  1.
<mgrwt>
<rscale>  4 0.24423127E+03</rscale>
<asrwt>0</asrwt>
<pdfrwt beam="1">  1       21 0.35861613E+00 0.24423127E+03</pdfrwt>
<pdfrwt beam="2">  1       21 0.26567850E-01 0.24423127E+03</pdfrwt>
<totfact> 0.19411652E+02</totfact>
</mgrwt>
</event>
<event>
 5    0  0.1972558E-002  0.3789696E+03  0.7546771E-02  0.1051315E+00
         21   -1    0    0  501  502  0.00000000000E+00  0.00000000000E+00  0.68152387391E+03  0.68152387391E+03  0.00000000000E+00 0.  1.
         21   -1    0    0  502  503 -0.00000000000E+00 -0.00000000000E+00 -0.97623698149E+03  0.97623698149E+03  0.00000000000E+00 0.  1.
         25    1    1    2    0    0  0.10521798525E+03  0.34354530847E+03 -0.83786355409E+03  0.92018179653E+03  0.12500000000E+03 0.  0.
          3    1    1    2  501    0 -0.81830113503E+02 -0.33691179361E+03  0.21379039552E+03  0.40732303810E+03  0.00000000000E+00 0.  1.
         -3    1    1    2    0  503 -0.23387871747E+02 -0.66335148549E+01  0.32936005099E+03  0.33025602077E+03  0.00000000000E+00 0. -1.
<mgrwt>
<rscale>  4 0.37896962E+03</rscale>
<asrwt>0</asrwt>
<pdfrwt beam="1">  1       21 0.10484983E+00 0.37896962E+03</pdfrwt>
<pdfrwt beam="2">  1       21 0.15019031E+00 0.37896962E+03</pdfrwt>
<totfact> 0.18512136E+02</totfact>
</mgrwt>
</event>
<event>
 5    0  0.1972558E-002  0.4382616E+03  0.7546771E-02  0.1031282E+00
         21   -1    0    0  501  502  0.00000000000E+00  0.00000000000E+00  0.37093096717E+03  0.37093096717E+03  0.00000000000E+00 0. -1.
         21   -1    0    0  502  503 -0.00000000000E+00 -0.00000000000E+00 -0.15758369673E+04  0.15758369673E+04  0.00000000000E+00 0.  1.
         25    1    1    2    0    0  0.56210376852E+02  0.37569878363E+03 -0.14835135536E+03  0.42654695770E+03  0.12500000000E+03 0.  0.
          1    1    1    2  501    0  0.31371568904E+02  0.45909372914E+02  0.19179382832E+03  0.19969155826E+03  0.00000000000E+00 0. -1.
         -1    1    1    2    0  503 -0.87581945756E+02 -0.42160815654E+03 -0.12483484731E+04  0.13205294185E+04  0.00000000000E+00 0.  1.
<mgrwt>
<rscale>  4 0.43826162E+03</rscale>
<asrwt>0</asrwt>
<pdfrwt beam="1">  1       21 0.57066304E-01 0.43826162E+03</pdfrwt>
<pdfrwt beam="2">  1       21 0.24243645E+00 0.43826162E+03</pdfrwt>
<totfact> 0.17027334E+02</totfact>
</mgrwt>
</event>
<event>
 5    0  0.1972558E-002  0.2778346E+03  0.7546771E-02  0.1096878E+00
         21   -1    0    0  501  502  0.00000000000E+00  0.00000000000E+00  0.31676755635E+03  0.31676755635E+03  0.00000000000E+00 0. -1.
         21   -1    0    0  502  503 -0.00000000000E+00 -0.00000000000E+00 -0.45989989828E+03  0.45989989828E+03  0.00000000000E+00 0.  1.
         25    1    1    2    0    0  0.23262298562E+03  0.70741932507E+02  0.26146789685E+02  0.27463890668E+03  0.12500000000E+03 0.  0.
          4    1    1    2  501    0  0.14954497406E+02 -0.33800560313E+02  0.11644100573E+03  0.12216637298E+03  0.00000000000E+00 0. -1.
         -4    1    1    2    0  503 -0.24757748303E+03 -0.36941372195E+02 -0.28572013735E+03  0.37986217496E+03  0.00000000000E+00 0.  1.
<mgrwt>
<rscale>  4 0.27783459E+03</rscale>
<asrwt>0</asrwt>
<pdfrwt beam="1">  1       21 0.48733470E-01 0.27783459E+03</pdfrwt>
<pdfrwt beam="2">  1       21 0.70753830E-01 0.27783459E+03</pdfrwt>
<totfact> 0.68944681E+03</totfact>
</mgrwt>
</event>
<event>
 5    0  0.1972558E-002  0.2408737E+03  0.7546771E-02  0.1119212E+00
         21   -1    0    0  501  502  0.00000000000E+00  0.00000000000E+00  0.43531172934E+03  0.43531172934E+03  0.00000000000E+00 0.  1.
         21   -1    0    0  502  503 -0.00000000000E+00 -0.00000000000E+00 -0.15960189499E+03  0.15960189499E+03  0.00000000000E+00 0.  1.
         25    1    1    2    0    0 -0.14842987614E+03  0.14270149620E+03  0.45920676706E+01  0.24091748013E+03  0.12500000000E+03 0.  0.
          3    1    1    2  501    0  0.12951731094E+03 -0.82142867280E+02  0.23607000254E+03  0.28151595084E+03  0.00000000000E+00 0.  1.
         -3    1    1    2    0  503  0.18912565204E+02 -0.60558628916E+02  0.35047764136E+02  0.72480193362E+02  0.00000000000E+00 0. -1.
<mgrwt>
<rscale>  4 0.24087371E+03</rscale>
<asrwt>0</asrwt>
<pdfrwt beam="1">  1       21 0.66971035E-01 0.24087371E+03</pdfrwt>
<pdfrwt beam="2">  1       21 0.24554138E-01 0.24087371E+03</pdfrwt>
<totfact> 0.31231399E+04</totfact>
</mgrwt>
</event>
<event>
 5    0  0.1972558E-002  0.3365426E+03  0.7546771E-02  0.1068278E+00
         21   -1    0    0  501  502  0.00000000000E+00  0.00000000000E+00  0.21032631016E+03  0.21032631016E+03  0.00000000000E+00 0.  1.
         21   -1    0    0  502  503 -0.00000000000E+00 -0.00000000000E+00 -0.75877451947E+03  0.75877451947E+03  0.00000000000E+00 0.  1.
         25    1    1    2    0    0  0.12457816149E+03  0.32094320286E+03 -0.37907985803E+03  0.52711554383E+03  0.12500000000E+03 0.  0.
          3    1    1    2  501    0 -0.79742429080E+02 -0.40252438576E+02  0.30624781596E+02  0.94429820791E+02  0.00000000000E+00 0.  1.
         -3    1    1    2    0  503 -0.44835732406E+02 -0.28069076429E+03 -0.19999313288E+03  0.34755546501E+03  0.00000000000E+00 0. -1.
<mgrwt>
<rscale>  4 0.33654260E+03</rscale>
<asrwt>0</asrwt>
<pdfrwt beam="1">  1       21 0.32357895E-01 0.33654260E+03</pdfrwt>
<pdfrwt beam="2">  1       21 0.11673454E+00 0.33654260E+03</pdfrwt>
<totfact> 0.47533905E+03</totfact>
</mgrwt>
</event>
<event>
 5    0  0.1972558E-002  0.3633548E+03  0.7546771E-02  0.1057263E+00
         21   -1    0    0  501  502  0.00000000000E+00  0.00000000000E+00  0.46644853919E+03  0.46644853919E+03  0.00000000000E+00 0. -1.
         21   -1    0    0  502  503 -0.00000000000E+00 -0.00000000000E+00 -0.31063451934E+04  0.31063451934E+04  0.00000000000E+00 0.  1.
         25    1    1    2    0    0 -0.61641919637E+02  0.33987564152E+03 -0.29918569217E+04  0.30143238077E+04  0.12500000000E+03 0.  0.
          3    1    1    2  501    0  0.10407017086E+03 -0.69007832238E+02  0.22278331984E+03  0.25539202997E+03  0.00000000000E+00 0.  1.
         -3    1    1    2    0  503 -0.42428251222E+02 -0.27086780928E+03  0.12917694761E+03  0.30307789494E+03  0.00000000000E+00 0. -1.
<mgrwt>
<rscale>  4 0.36335477E+03</rscale>
<asrwt>0</asrwt>
<pdfrwt beam="1">  1       21 0.71761312E-01 0.36335477E+03</pdfrwt>
<pdfrwt beam="2">  1       21 0.47789927E+00 0.36335477E+03</pdfrwt>
<totfact> 0.36147408E+00</totfact>
</mgrwt>
</event>
<event>
 5    0  0.1972558E-002  0.2716234E+03  0.7546771E-02  0.1100354E+00
         21   -1    0    0  501  502  0.00000000000E+00  0.00000000000E+00  0.37486597252E+03  0.37486597252E+03  0.00000000000E+00 0.  1.
         21   -1    0    0  502  503 -0.00000000000E+00 -0.00000000000E+00 -0.60568805050E+03  0.60568805050E+03  0.00000000000E+00 0. -1.
         25    1    1    2    0    0 -0.54569486744E+02 -0.25001843279E+03 -0.33930012634E+03  0.44298602840E+03  0.12500000000E+03 0.  0.
          2    1    1    2  501    0  0.59447008139E+02  0.21651654539E+03 -0.15441626713E+03  0.27250274266E+03  0.00000000000E+00 0. -1.
         -2    1    1    2    0  503 -0.48775213946E+01  0.33501887402E+02  0.26289431550E+03  0.26506525196E+03  0.00000000000E+00 0.  1.
<mgrwt>
<rscale>  4 0.27162339E+03</rscale>
<asrwt>0</asrwt>
<pdfrwt beam="1">  1       21 0.57671689E-01 0.27162339E+03</pdfrwt>
<pdfrwt beam="2">  1       21 0.93182776E-01 0.27162339E+03</pdfrwt>
<totfact> 0.25762544E+03</totfact>
</mgrwt>
</event>
<event>
 5    0  0.1972558E-002  0.2342508E+03  0.7546771E-02  0.1123683E+00
         21   -1    0    0  501  502  0.00000000000E+00  0.00000000000E+00  0.20158065324E+04  0.20158065324E+04  0.00000000000E+00 0.  1.
         21   -1    0    0  502  503 -0.00000000000E+00 -0.00000000000E+00 -0.36061406687E+02  0.36061406687E+02  0.00000000000E+00 0.  1.
         25    1    1    2    0    0 -0.15480469283E+03 -0.14413198838E+03  0.72313964097E+03  0.76373716902E+03  0.12500000000E+03 0.  0.
          3    1    1    2  501    0  0.13674146987E+03  0.12885967877E+03  0.55148660126E+03  0.58261523990E+03  0.00000000000E+00 0.  1.
         -3    1    1    2    0  503  0.18063222961E+02  0.15272309604E+02  0.70511888349E+03  0.70551553018E+03  0.00000000000E+00 0. -1.
<mgrwt>
<rscale>  4 0.23425082E+03</rscale>
<asrwt>0</asrwt>
<pdfrwt beam="1">  1       21 0.31012399E+00 0.23425082E+03</pdfrwt>
<pdfrwt beam="2">  1       21 0.55479103E-02 0.23425082E+03</pdfrwt>
<totfact> 0.64368765E+03</totfact>
</mgrwt>
</event>
<event>
 5    0  0.1972558E-002  0.2322686E+03  0.7546771E-02  0.1125053E+00
         21   -1    0    0  503  502  0.00000000000E+00  0.00000000000E+00  0.41745119632E+03  0.41745119632E+03  0.00000000000E+00 0. -1.
         21   -1    0    0  501  503 -0.00000000000E+00 -0.00000000000E+00 -0.35442611867E+03  0.35442611867E+03  0.00000000000E+00 0. -1.
         25    1    1    2    0    0 -0.51704858111E+02 -0.20629240696E+03 -0.23917295474E+03  0.34359664114E+03  0.12500000000E+03 0.  0.
          4    1    1    2  501    0  0.86683391034E+01  0.51095014918E+02  0.25534333640E+03  0.26054953483E+03  0.00000000000E+00 0. -1.
         -4    1    1    2    0  502  0.43036519008E+02  0.15519739204E+03  0.46854695976E+02  0.16773113903E+03  0.00000000000E+00 0.  1.
<mgrwt>
<rscale>  4 0.23226862E+03</rscale>
<asrwt>0</asrwt>
<pdfrwt beam="1">  1       21 0.64223261E-01 0.23226862E+03</pdfrwt>
<pdfrwt beam="2">  1       21 0.54527095E-01 0.23226862E+03</pdfrwt>
<totfact> 0.69142400E+03</totfact>
</mgrwt>
</event>
<event>
 5    0  0.1972558E-002  0.2591776E+03  0.7546771E-02  0.1107638E+00
         21   -1    0    0  501  502  0.00000000000E+00  0.00000000000E+00  0.21447064202E+03  0.21447064202E+03  0.00000000000E+00 0.  1.
         21   -1    0    0  502  503 -0.00000000000E+00 -0.00000000000E+00 -0.89923467533E+03  0.89923467533E+03  0.00000000000E+00 0.  1.
         25    1    1    2    0    0 -0.27798435990E+03 -0.17107256584E+01 -0.26342847406E+03  0.40286200103E+03  0.12500000000E+03 0.  0.
          1    1    1    2  501    0  0.72917922473E+02  0.64412366442E+02  0.10461084267E+03  0.14286148807E+03  0.00000000000E+00 0. -1.
         -1    1    1    2    0  503  0.20506643743E+03 -0.62701640784E+02 -0.52594640192E+03  0.56798182824E+03  0.00000000000E+00 0.  1.
<mgrwt>
<rscale>  4 0.25917756E+03</rscale>
<asrwt>0</asrwt>
<pdfrwt beam="1">  1       21 0.32995484E-01 0.25917756E+03</pdfrwt>
<pdfrwt beam="2">  1       21 0.13834379E+00 0.25917756E+03</pdfrwt>
<totfact> 0.30980226E+03</totfact>
</mgrwt>
</event>
<event>
 5    0  0.1972558E-002  0.2523677E+03  0.7546771E-02  0.1111818E+00
         21   -1    0    0  501  502  0.00000000000E+00  0.00000000000E+00  0.23295676169E+03  0.23295676169E+03  0.00000000000E+00 0. -1.
         21   -1    0    0  502  503 -0.00000000000E+00 -0.00000000000E+00 -0.31971763444E+03  0.31971763444E+03  0.00000000000E+00 0. -1.
         25    1    1    2    0    0  0.29794150803E+02 -0.21720216059E+03 -0.17902834487E+03  0.30941980909E+03  0.12500000000E+03 0.  0.
          1    1    1    2  501    0 -0.38823465079E+02  0.19506360665E+03  0.70779863456E+02  0.21110864774E+03  0.00000000000E+00 0. -1.
         -1    1    1    2    0  503  0.90293142766E+01  0.22138553948E+02  0.21487608672E+02  0.32145939303E+02  0.00000000000E+00 0.  1.
<mgrwt>
<rscale>  4 0.25236773E+03</rscale>
<asrwt>0</asrwt>
<pdfrwt beam="1">  1       21 0.35839502E-01 0.25236773E+03</pdfrwt>
<pdfrwt beam="2">  1       21 0.49187328E-01 0.25236773E+03</pdfrwt>
<totfact> 0.28723878E+04</totfact>
</mgrwt>
</event>
<event>
 5    0  0.1972558E-002  0.2445226E+03  0.7546771E-02  0.1116816E+00
         21   -1    0    0  501  502  0.00000000000E+00  0.00000000000E+00  0.47767778475E+02  0.47767778475E+02  0.00000000000E+00 0.  1.
         21   -1    0    0  502  503 -0.00000000000E+00 -0.00000000000E+00 -0.14478855705E+04  0.14478855705E+04  0.00000000000E+00 0.  1.
         25    1    1    2    0    0 -0.15503429309E+02  0.20105134653E+03 -0.86914391563E+03  0.90094292068E+03  0.12500000000E+03 0.  0.
          1    1    1    2  501    0 -0.17642450274E+02 -0.22475440678E+03 -0.47136678796E+03  0.52250593127E+03  0.00000000000E+00 0.  1.
         -1    1    1    2    0  503  0.33145879583E+02  0.23703060248E+02 -0.59607088445E+02  0.72204497029E+02  0.00000000000E+00 0. -1.
<mgrwt>
<rscale>  4 0.24452263E+03</rscale>
<asrwt>0</asrwt>
<pdfrwt beam="1">  1       21 0.73488891E-02 0.24452263E+03</pdfrwt>
<pdfrwt beam="2">  1       21 0.22275162E+00 0.24452263E+03</pdfrwt>
<totfact> 0.12922545E+04</totfact>
</mgrwt>
</event>
<event>
 5    0  0.1972558E-002  0.4230643E+03  0.7546771E-02  0.1036074E+00
         21   -1    0    0  501  502  0.00000000000E+00  0.00000000000E+00  0.35965866349E+03  0.35965866349E+03  0.00000000000E+00 0.  1.
         21   -1    0    0  502  503 -0.00000000000E+00 -0.00000000000E+00 -0.58739784852E+03  0.58739784852E+03  0.00000000000E+00 0.  1.
         25    1    1    2    0    0 -0.38163287513E+03  0.11508537457E+03 -0.14086028268E+03  0.44085702224E+03  0.12500000000E+03 0.  0.
          1    1    1    2  501    0 -0.16546978058E+02 -0.18339893526E+02  0.64733501504E+02  0.69286220811E+02  0.00000000000E+00 0. -1.
         -1    1    1    2    0  503  0.39817985319E+03 -0.96745481048E+02 -0.15161240385E+03  0.43691326895E+03  0.00000000000E+00 0.  1.
<mgrwt>
<rscale>  4 0.42306426E+03</rscale>
<asrwt>0</asrwt>
<pdfrwt beam="1">  1       21 0.55332102E-01 0.42306426E+03</pdfrwt>
<pdfrwt beam="2">  1       21 0.90368900E-01 0.42306426E+03</pdfrwt>
<totfact> 0.28127305E+03</totfact>
</mgrwt>
</event>
<event>
 5    0  0.1972558E-002  0.3155690E+03  0.7546771E-02  0.1077707E+00
         21   -1    0    0  501  502  0.00000000000E+00  0.00000000000E+00  0.12313119882E+04  0.12313119882E+04  0.00000000000E+00 0.  1.
         21   -1    0    0  502  503 -0.00000000000E+00 -0.00000000000E+00 -0.28228772172E+03  0.28228772172E+03  0.00000000000E+00 0.  1.
         25    1    1    2    0    0 -0.32444890806E+03 -0.10909101872E+03  0.46660270125E+02  0.36738280459E+03  0.12500000000E+03 0.  0.
          1    1    1    2  501    0  0.25234278446E+03  0.44311073736E+02  0.18301758262E+02  0.25685658738E+03  0.00000000000E+00 0.  1.
         -1    1    1    2    0  503  0.72106123596E+02  0.64779944981E+02  0.88406223807E+03  0.88936031793E+03  0.00000000000E+00 0. -1.
<mgrwt>
<rscale>  4 0.31556901E+03</rscale>
<asrwt>0</asrwt>
<pdfrwt beam="1">  1       21 0.18943261E+00 0.31556901E+03</pdfrwt>
<pdfrwt beam="2">  1       21 0.43428881E-01 0.31556901E+03</pdfrwt>
<totfact> 0.71861796E+02</totfact>
</mgrwt>
</event>
<event>
 5    0  0.1972558E-002  0.2521168E+03  0.7546771E-02  0.1111974E+00
         21   -1    0    0  501  502  0.00000000000E+00  0.00000000000E+00  0.65547613773E+03  0.65547613773E+03  0.00000000000E+00 0. -1.
         21   -1    0    0  502  503 -0.00000000000E+00 -0.00000000000E+00 -0.33658803589E+03  0.33658803589E+03  0.00000000000E+00 0.  1.
         25    1    1    2    0    0  0.15879804249E+03  0.15977935315E+03 -0.22579895248E+03  0.34257324316E+03  0.12500000000E+03 0.  0.
          1    1    1    2  501    0  0.24859906960E+01 -0.41807923644E+02  0.40145765054E+03  0.40363638067E+03  0.00000000000E+00 0.  1.
         -1    1    1    2    0  503 -0.16128403319E+03 -0.11797142951E+03  0.14322940378E+03  0.24585454978E+03  0.00000000000E+00 0. -1.
<mgrwt>
<rscale>  4 0.25211684E+03</rscale>
<asrwt>0</asrwt>
<pdfrwt beam="1">  1       21 0.10084248E+00 0.25211684E+03</pdfrwt>
<pdfrwt beam="2">  1       21 0.51782775E-01 0.25211684E+03</pdfrwt>
<totfact> 0.27210366E+03</totfact>
</mgrwt>
</event>
<event>
 5    0  0.1972558E-002  0.2316858E+03  0.7546771E-02  0.1125459E+00
         21   -1    0    0  501  502  0.00000000000E+00  0.00000000000E+00  0.49174596764E+03  0.49174596764E+03  0.00000000000E+00 0.  1.
         21   -1    0    0  502  503 -0.00000000000E+00 -0.00000000000E+00 -0.34969746579E+03  0.34969746579E+03  0.00000000000E+00 0.  1.
         25    1    1    2    0    0  0.18637978784E+03 -0.80181547199E+02 -0.26657362347E+03  0.35756538221E+03  0.12500000000E+03 0.  0.
          2    1    1    2  501    0 -0.83765163621E+02 -0.10260290241E+02  0.45559385662E+02  0.95903773722E+02  0.00000000000E+00 0. -1.
         -2    1    1    2    0  503 -0.10261462422E+03  0.90441837440E+02  0.36306273966E+03  0.38797427749E+03  0.00000000000E+00 0.  1.
<mgrwt>
<rscale>  4 0.23168578E+03</rscale>
<asrwt>0</asrwt>
<pdfrwt beam="1">  1       21 0.75653226E-01 0.23168578E+03</pdfrwt>
<pdfrwt beam="2">  1       21 0.53799610E-01 0.23168578E+03</pdfrwt>
<totfact> 0.49518104E+03</totfact>
</mgrwt>
</event>
<event>
 5    0  0.2512239E-002  0.2302847E+03  0.7546771E-02  0.1126440E+00
         21   -1    0    0  501  502  0.00000000000E+00  0.00000000000E+00  0.41951472558E+03  0.41951472558E+03  0.00000000000E+00 0. -1.
         21   -1    0    0  502  503 -0.00000000000E+00 -0.00000000000E+00 -0.64107160420E+03  0.64107160420E+03  0.00000000000E+00 0. -1.
         25    1    1    2    0    0  0.17418033254E+03  0.11647206478E+03 -0.30710573042E+03  0.39222883598E+03  0.12500000000E+03 0.  0.
          1    1    1    2  501    0 -0.97004136887E+01 -0.35850342204E+02  0.34707821990E+03  0.34905964503E+03  0.00000000000E+00 0. -1.
         -1    1    1    2    0  503 -0.16447991885E+03 -0.80621722575E+02 -0.26152936810E+03  0.31929784878E+03  0.00000000000E+00 0.  1.
<mgrwt>
<rscale>  4 0.23028469E+03</rscale>
<asrwt>0</asrwt>
<pdfrwt beam="1">  1       21 0.64540726E-01 0.23028469E+03</pdfrwt>
<pdfrwt beam="2">  1       21 0.98626402E-01 0.23028469E+03</pdfrwt>
<totfact> 0.18172292E+03</totfact>
</mgrwt>
</event>
<event>
 5    0  0.1972558E-002  0.2327949E+03  0.7546771E-02  0.1124688E+00
         21   -1    0    0  501  502  0.00000000000E+00  0.00000000000E+00  0.11856871601E+04  0.11856871601E+04  0.00000000000E+00 0. -1.
         21   -1    0    0  502  503 -0.00000000000E+00 -0.00000000000E+00 -0.14774587585E+03  0.14774587585E+03  0.00000000000E+00 0.  1.
         25    1    1    2    0    0  0.19882887435E+03 -0.42514930038E+02 -0.23810688529E+02  0.23985910331E+03  0.12500000000E+03 0.  0.
          4    1    1    2  501    0 -0.16582523680E+03  0.22922679367E+02  0.44206650864E+03  0.47270102226E+03  0.00000000000E+00 0.  1.
         -4    1    1    2    0  503 -0.33003637548E+02  0.19592250671E+02  0.61968546411E+03  0.62087291035E+03  0.00000000000E+00 0. -1.
<mgrwt>
<rscale>  4 0.23279495E+03</rscale>
<asrwt>0</asrwt>
<pdfrwt beam="1">  1       21 0.18241340E+00 0.23279495E+03</pdfrwt>
<pdfrwt beam="2">  1       21 0.22730136E-01 0.23279495E+03</pdfrwt>
<totfact> 0.30687263E+03</totfact>
</mgrwt>
</event>
<event>
 5    0  0.1972558E-002  0.2339554E+03  0.7546771E-02  0.1123886E+00
         21   -1    0    0  503  502  0.00000000000E+00  0.00000000000E+00  0.35006654495E+03  0.35006654495E+03  0.00000000000E+00 0.  1.
         21   -1    0    0  501  503 -0.00000000000E+00 -0.00000000000E+00 -0.22047729830E+03  0.22047729830E+03  0.00000000000E+00 0.  1.
         25    1    1    2    0    0  0.11929161142E+03 -0.19207287526E+03  0.12655137221E+02  0.25866509324E+03  0.12500000000E+03 0.  0.
          4    1    1    2  501    0 -0.10707889088E+03  0.11001512119E+02  0.42936365738E+02  0.11588983409E+03  0.00000000000E+00 0. -1.
         -4    1    1    2    0  502 -0.12212720537E+02  0.18107136314E+03  0.73997743687E+02  0.19598891592E+03  0.00000000000E+00 0.  1.
<mgrwt>
<rscale>  4 0.23395538E+03</rscale>
<asrwt>0</asrwt>
<pdfrwt beam="1">  1       21 0.53856392E-01 0.23395538E+03</pdfrwt>
<pdfrwt beam="2">  1       21 0.33919584E-01 0.23395538E+03</pdfrwt>
<totfact> 0.26710457E+04</totfact>
</mgrwt>
</event>
<event>
 5    0  0.1972558E-002  0.3485616E+03  0.7546771E-02  0.1063207E+00
         21   -1    0    0  503  502  0.00000000000E+00  0.00000000000E+00  0.80745004402E+03  0.80745004402E+03  0.00000000000E+00 0.  1.
         21   -1    0    0  501  503 -0.00000000000E+00 -0.00000000000E+00 -0.28167631105E+03  0.28167631105E+03  0.00000000000E+00 0.  1.
         25    1    1    2    0    0  0.23626656851E+03 -0.22271990289E+03 -0.10367151175E+03  0.36304108430E+03  0.12500000000E+03 0.  0.
          1    1    1    2  501    0  0.20905934748E+02  0.16440039198E+02  0.20337545949E+02  0.33480573050E+02  0.00000000000E+00 0. -1.
         -1    1    1    2    0  502 -0.25717250326E+03  0.20627986370E+03  0.60910769877E+03  0.69260469772E+03  0.00000000000E+00 0.  1.
<mgrwt>
<rscale>  4 0.34856161E+03</rscale>
<asrwt>0</asrwt>
<pdfrwt beam="1">  1       21 0.12422308E+00 0.34856161E+03</pdfrwt>
<pdfrwt beam="2">  1       21 0.43334817E-01 0.34856161E+03</pdfrwt>
<totfact> 0.22324821E+03</totfact>
</mgrwt>
</event>
<event>
 5    0  0.1972558E-002  0.2650574E+03  0.7546771E-02  0.1104142E+00
         21   -1    0    0  501  502  0.00000000000E+00  0.00000000000E+00  0.30371778473E+03  0.30371778473E+03  0.00000000000E+00 0. -1.
         21   -1    0    0  502  503 -0.00000000000E+00 -0.00000000000E+00 -0.52358163676E+03  0.52358163676E+03  0.00000000000E+00 0. -1.
         25    1    1    2    0    0 -0.48306743309E+02 -0.22892470289E+03 -0.41101170401E+03  0.48917857872E+03  0.12500000000E+03 0.  0.
          4    1    1    2  501    0  0.42601532150E+02 -0.67739598163E+01  0.29247073820E+02  0.52116872509E+02  0.00000000000E+00 0.  1.
         -4    1    1    2    0  503  0.57052111597E+01  0.23569866271E+03  0.16190077817E+03  0.28600397027E+03  0.00000000000E+00 0. -1.
<mgrwt>
<rscale>  4 0.26505738E+03</rscale>
<asrwt>0</asrwt>
<pdfrwt beam="1">  1       21 0.46725813E-01 0.26505738E+03</pdfrwt>
<pdfrwt beam="2">  1       21 0.80551021E-01 0.26505738E+03</pdfrwt>
<totfact> 0.56578054E+03</totfact>
</mgrwt>
</event>
<event>
 5    0  0.1972558E-002  0.2492792E+03  0.7546771E-02  0.1113761E+00
         21   -1    0    0  501  502  0.00000000000E+00  0.00000000000E+00  0.57029382820E+03  0.57029382820E+03  0.00000000000E+00 0.  1.
         21   -1    0    0  502  503 -0.00000000000E+00 -0.00000000000E+00 -0.37456188872E+03  0.37456188872E+03  0.00000000000E+00 0.  1.
         25    1    1    2    0    0 -0.16395869526E+03  0.15217952187E+03 -0.28778851082E+03  0.38534178023E+03  0.12500000000E+03 0.  0.
          3    1    1    2  501    0  0.12394225734E+03 -0.12972126874E+03  0.18582491623E+03  0.25830251685E+03  0.00000000000E+00 0. -1.
         -3    1    1    2    0  503  0.40016437925E+02 -0.22458253127E+02  0.29769553408E+03  0.30121141985E+03  0.00000000000E+00 0.  1.
<mgrwt>
<rscale>  4 0.24927925E+03</rscale>
<asrwt>0</asrwt>
<pdfrwt beam="1">  1       21 0.87737512E-01 0.24927925E+03</pdfrwt>
<pdfrwt beam="2">  1       21 0.57624906E-01 0.24927925E+03</pdfrwt>
<totfact> 0.30142179E+03</totfact>
</mgrwt>
</event>
<event>
 5    0  0.1972558E-002  0.2673252E+03  0.7546771E-02  0.1102820E+00
         21   -1    0    0  501  502  0.00000000000E+00  0.00000000000E+00  0.13755057817E+03  0.13755057817E+03  0.00000000000E+00 0.  1.
         21   -1    0    0  502  503 -0.00000000000E+00 -0.00000000000E+00 -0.11132137948E+04  0.11132137948E+04  0.00000000000E+00 0. -1.
         25    1    1    2    0    0  0.22884733239E+03  0.27373851809E+02 -0.79614989291E+03  0.83821243207E+03  0.12500000000E+03 0.  0.
          1    1    1    2  501    0  0.19605917482E+02  0.98581021172E+01  0.60956451979E+02  0.64786288793E+02  0.00000000000E+00 0.  1.
         -1    1    1    2    0  503 -0.24845324987E+03 -0.37231953926E+02 -0.24046977573E+03  0.34776565213E+03  0.00000000000E+00 0. -1.
<mgrwt>
<rscale>  4 0.26732518E+03</rscale>
<asrwt>0</asrwt>
<pdfrwt beam="1">  1       21 0.21161628E-01 0.26732518E+03</pdfrwt>
<pdfrwt beam="2">  1       21 0.17126365E+00 0.26732518E+03</pdfrwt>
<totfact> 0.40972717E+03</totfact>
</mgrwt>
</event>
<event>
 5    0  0.1972558E-002  0.2427920E+03  0.7546771E-02  0.1117947E+00
         21   -1    0    0  503  502  0.00000000000E+00  0.00000000000E+00  0.54900549594E+03  0.54900549594E+03  0.00000000000E+00 0.  1.
         21   -1    0    0  501  503 -0.00000000000E+00 -0.00000000000E+00 -0.18657269112E+03  0.18657269112E+03  0.00000000000E+00 0. -1.
         25    1    1    2    0    0 -0.89593516479E+02  0.17943121862E+03  0.39554348174E+02  0.23960823623E+03  0.12500000000E+03 0.  0.
          2    1    1    2  501    0 -0.33261673178E+02 -0.10367227249E+01  0.27126676096E+03  0.27330032802E+03  0.00000000000E+00 0.  1.
         -2    1    1    2    0  502  0.12285518966E+03 -0.17839449589E+03  0.51611695690E+02  0.22266962281E+03  0.00000000000E+00 0. -1.
<mgrwt>
<rscale>  4 0.24279203E+03</rscale>
<asrwt>0</asrwt>
<pdfrwt beam="1">  1       21 0.84462383E-01 0.24279203E+03</pdfrwt>
<pdfrwt beam="2">  1       21 0.28703491E-01 0.24279203E+03</pdfrwt>
<totfact> 0.13695429E+04</totfact>
</mgrwt>
</event>
<event>
 5    0  0.1972558E-002  0.2496926E+03  0.7546771E-02  0.1113499E+00
         21   -1    0    0  501  502  0.00000000000E+00  0.00000000000E+00  0.17735195472E+03  0.17735195472E+03  0.00000000000E+00 0. -1.
         21   -1    0    0  502  503 -0.00000000000E+00 -0.00000000000E+00 -0.71799358164E+03  0.71799358164E+03  0.00000000000E+00 0. -1.
         25    1    1    2    0    0 -0.80644488903E+02 -0.19930362765E+03 -0.58558339640E+03  0.63620624308E+03  0.12500000000E+03 0.  0.
          2    1    1    2  501    0  0.58398701686E+02  0.21532015180E+03  0.23491457647E+02  0.22433239782E+03  0.00000000000E+00 0. -1.
         -2    1    1    2    0  503  0.22245787216E+02 -0.16016524146E+02  0.21450311834E+02  0.34806895472E+02  0.00000000000E+00 0.  1.
<mgrwt>
<rscale>  4 0.24969261E+03</rscale>
<asrwt>0</asrwt>
<pdfrwt beam="1">  1       21 0.27284916E-01 0.24969261E+03</pdfrwt>
<pdfrwt beam="2">  1       21 0.11046055E+00 0.24969261E+03</pdfrwt>
<totfact> 0.79700917E+03</totfact>
</mgrwt>
</event>
<event>
 5    0  0.1972558E-002  0.2424651E+03  0.7546771E-02  0.1118161E+00
         21   -1    0    0  501  502  0.00000000000E+00  0.00000000000E+00  0.41194212379E+03  0.41194212379E+03  0.00000000000E+00 0. -1.
         21   -1    0    0  502  503 -0.00000000000E+00 -0.00000000000E+00 -0.25587211224E+03  0.25587211224E+03  0.00000000000E+00 0. -1.
         25    1    1    2    0    0 -0.15747910057E+03 -0.12653464416E+03 -0.12739447662E+03  0.26956453024E+03  0.12500000000E+03 0.  0.
          3    1    1    2  501    0  0.17380195840E+03  0.14481776069E+03  0.17217900255E+03  0.28429722734E+03  0.00000000000E+00 0. -1.
         -3    1    1    2    0  503 -0.16322857820E+02 -0.18283116523E+02  0.11128548562E+03  0.11395247845E+03  0.00000000000E+00 0.  1.
<mgrwt>
<rscale>  4 0.24246506E+03</rscale>
<asrwt>0</asrwt>
<pdfrwt beam="1">  1       21 0.63375711E-01 0.24246506E+03</pdfrwt>
<pdfrwt beam="2">  1       21 0.39364940E-01 0.24246506E+03</pdfrwt>
<totfact> 0.13905703E+04</totfact>
</mgrwt>
</event>
<event>
 5    0  0.1972558E-002  0.4329878E+03  0.7546771E-02  0.1032920E+00
         21   -1    0    0  501  502  0.00000000000E+00  0.00000000000E+00  0.10747024709E+04  0.10747024709E+04  0.00000000000E+00 0.  1.
         21   -1    0    0  502  503 -0.00000000000E+00 -0.00000000000E+00 -0.83642960597E+03  0.83642960597E+03  0.00000000000E+00 0. -1.
         25    1    1    2    0    0 -0.48493500848E+02  0.41303213562E+03 -0.49453448962E+03  0.65813108581E+03  0.12500000000E+03 0.  0.
          2    1    1    2  501    0  0.25009596195E+02 -0.41159488443E+03 -0.96389908501E+02  0.42347000278E+03  0.00000000000E+00 0. -1.
         -2    1    1    2    0  503  0.23483904653E+02 -0.14372511849E+01  0.82919726307E+03  0.82953098830E+03  0.00000000000E+00 0.  1.
<mgrwt>
<rscale>  4 0.43298784E+03</rscale>
<asrwt>0</asrwt>
<pdfrwt beam="1">  1       21 0.16533884E+00 0.43298784E+03</pdfrwt>
<pdfrwt beam="2">  1       21 0.12868148E+00 0.43298784E+03</pdfrwt>
<totfact> 0.82150025E+01</totfact>
</mgrwt>
</event>
<event>
 5    0  0.1972558E-002  0.2980698E+03  0.7546771E-02  0.1086209E+00
         21   -1    0    0  503  502  0.00000000000E+00  0.00000000000E+00  0.17070667516E+03  0.17070667516E+03  0.00000000000E+00 0. -1.
         21   -1    0    0  501  503 -0.00000000000E+00 -0.00000000000E+00 -0.10375619524E+04  0.10375619524E+04  0.00000000000E+00 0. -1.
         25    1    1    2    0    0 -0.99770309200E+01 -0.27099941756E+03 -0.78144567085E+03  0.83655398030E+03  0.12500000000E+03 0.  0.
          2    1    1    2  501    0  0.81423092296E+02  0.23806662259E+01 -0.18889441662E+01  0.81479786701E+02  0.00000000000E+00 0.  1.
         -2    1    1    2    0  502 -0.71446061376E+02  0.26861875133E+03 -0.83520662201E+02  0.29023486053E+03  0.00000000000E+00 0. -1.
<mgrwt>
<rscale>  4 0.29806984E+03</rscale>
<asrwt>0</asrwt>
<pdfrwt beam="1">  1       21 0.26262565E-01 0.29806984E+03</pdfrwt>
<pdfrwt beam="2">  1       21 0.15962492E+00 0.29806984E+03</pdfrwt>
<totfact> 0.32300178E+03</totfact>
</mgrwt>
</event>
<event>
 5    0  0.1972558E-002  0.1888846E+03  0.7546771E-02  0.1159471E+00
         21   -1    0    0  501  502  0.00000000000E+00  0.00000000000E+00  0.54762064876E+02  0.54762064876E+02  0.00000000000E+00 0.  1.
         21   -1    0    0  502  503 -0.00000000000E+00 -0.00000000000E+00 -0.11330812062E+04  0.11330812062E+04  0.00000000000E+00 0.  1.
         25    1    1    2    0    0  0.72996643584E+02  0.20445433346E+03 -0.59088499365E+03  0.64179448437E+03  0.12500000000E+03 0.  0.
          2    1    1    2  501    0 -0.29983912574E+01 -0.12164679527E+03 -0.15926163815E+03  0.20042754935E+03  0.00000000000E+00 0. -1.
         -2    1    1    2    0  503 -0.69998252327E+02 -0.82807538183E+02 -0.32817250953E+03  0.34562123737E+03  0.00000000000E+00 0.  1.
<mgrwt>
<rscale>  4 0.18888458E+03</rscale>
<asrwt>0</asrwt>
<pdfrwt beam="1">  1       21 0.84249329E-02 0.18888458E+03</pdfrwt>
<pdfrwt beam="2">  1       21 0.17432019E+00 0.18888458E+03</pdfrwt>
<totfact> 0.21885700E+04</totfact>
</mgrwt>
</event>
<event>
 5    0  0.1972558E-002  0.2464905E+03  0.7546771E-02  0.1115543E+00
         21   -1    0    0  501  502  0.00000000000E+00  0.00000000000E+00  0.18455735252E+03  0.18455735252E+03  0.00000000000E+00 0.  1.
         21   -1    0    0  502  503 -0.00000000000E+00 -0.00000000000E+00 -0.45963682679E+03  0.45963682679E+03  0.00000000000E+00 0.  1.
         25    1    1    2    0    0 -0.24809817750E+03  0.52608617255E+02 -0.15646302901E+03  0.32315019996E+03  0.12500000000E+03 0.  0.
          1    1    1    2  501    0  0.19081310385E+03  0.18088056490E+01 -0.14288597729E+03  0.23838899909E+03  0.00000000000E+00 0.  1.
         -1    1    1    2    0  503  0.57285073650E+02 -0.54417422904E+02  0.24269532019E+02  0.82654980268E+02  0.00000000000E+00 0. -1.
<mgrwt>
<rscale>  4 0.24649049E+03</rscale>
<asrwt>0</asrwt>
<pdfrwt beam="1">  1       21 0.28393439E-01 0.24649049E+03</pdfrwt>
<pdfrwt beam="2">  1       21 0.70713357E-01 0.24649049E+03</pdfrwt>
<totfact> 0.20861743E+04</totfact>
</mgrwt>
</event>
<event>
 5    0  0.1972558E-002  0.4034691E+03  0.7546771E-02  0.1042585E+00
         21   -1    0    0  501  502  0.00000000000E+00  0.00000000000E+00  0.10551401382E+03  0.10551401382E+03  0.00000000000E+00 0. -1.
         21   -1    0    0  502  503 -0.00000000000E+00 -0.00000000000E+00 -0.25600963654E+04  0.25600963654E+04  0.00000000000E+00 0. -1.
         25    1    1    2    0    0  0.35204672179E+03 -0.17011440774E+03 -0.18345804624E+04  0.18799431585E+04  0.12500000000E+03 0.  0.
          3    1    1    2  501    0 -0.33272773508E+03  0.15694348093E+03 -0.65044967731E+03  0.74727758203E+03  0.00000000000E+00 0. -1.
         -3    1    1    2    0  503 -0.19318986712E+02  0.13170926808E+02  0.30447788123E+02  0.38389638734E+02  0.00000000000E+00 0.  1.
<mgrwt>
<rscale>  4 0.40346910E+03</rscale>
<asrwt>0</asrwt>
<pdfrwt beam="1">  1       21 0.16232926E-01 0.40346910E+03</pdfrwt>
<pdfrwt beam="2">  1       21 0.39386096E+00 0.40346910E+03</pdfrwt>
<totfact> 0.25578243E+02</totfact>
</mgrwt>
</event>
<event>
 5    0  0.2086934E-002  0.2306375E+03  0.7546771E-02  0.1126192E+00
         21   -1    0    0  503  502  0.00000000000E+00  0.00000000000E+00  0.22171290882E+03  0.22171290882E+03  0.00000000000E+00 0. -1.
         21   -1    0    0  501  503 -0.00000000000E+00 -0.00000000000E+00 -0.44159896969E+03  0.44159896969E+03  0.00000000000E+00 0. -1.
         25    1    1    2    0    0  0.16086723329E+03 -0.18884235476E+03 -0.21148807581E+03  0.34913021626E+03  0.12500000000E+03 0.  0.
          3    1    1    2  501    0 -0.23443819854E+02  0.68413288708E+02 -0.88823156517E+02  0.11454057750E+03  0.00000000000E+00 0.  1.
         -3    1    1    2    0  502 -0.13742341344E+03  0.12042906605E+03  0.80425171457E+02  0.19964108474E+03  0.00000000000E+00 0. -1.
<mgrwt>
<rscale>  4 0.23063755E+03</rscale>
<asrwt>0</asrwt>
<pdfrwt beam="1">  1       21 0.34109678E-01 0.23063755E+03</pdfrwt>
<pdfrwt beam="2">  1       21 0.67938303E-01 0.23063755E+03</pdfrwt>
<totfact> 0.16019576E+04</totfact>
</mgrwt>
</event>
<event>
 5    0  0.1972558E-002  0.3084643E+03  0.7546771E-02  0.1081084E+00
         21   -1    0    0  501  502  0.00000000000E+00  0.00000000000E+00  0.14207590741E+04  0.14207590741E+04  0.00000000000E+00 0.  1.
         21   -1    0    0  502  503 -0.00000000000E+00 -0.00000000000E+00 -0.17816139320E+03  0.17816139320E+03  0.00000000000E+00 0.  1.
         25    1    1    2    0    0 -0.92785257751E+02  0.27327728139E+03  0.62878073288E+01  0.31456972693E+03  0.12500000000E+03 0.  0.
          4    1    1    2  501    0  0.76980281909E+02 -0.16923543179E+02  0.45868961295E+03  0.46541221637E+03  0.00000000000E+00 0.  1.
         -4    1    1    2    0  503  0.15804975842E+02 -0.25635373821E+03  0.77762026066E+03  0.81893852403E+03  0.00000000000E+00 0. -1.
<mgrwt>
<rscale>  4 0.30846433E+03</rscale>
<asrwt>0</asrwt>
<pdfrwt beam="1">  1       21 0.21857831E+00 0.30846433E+03</pdfrwt>
<pdfrwt beam="2">  1       21 0.27409446E-01 0.30846433E+03</pdfrwt>
<totfact> 0.11744244E+03</totfact>
</mgrwt>
</event>
<event>
 5    0  0.1972558E-002  0.2856178E+03  0.7546771E-02  0.1092660E+00
         21   -1    0    0  501  502  0.00000000000E+00  0.00000000000E+00  0.10037342202E+04  0.10037342202E+04  0.00000000000E+00 0.  1.
         21   -1    0    0  502  503 -0.00000000000E+00 -0.00000000000E+00 -0.31886599112E+03  0.31886599112E+03  0.00000000000E+00 0.  1.
         25    1    1    2    0    0  0.24462772468E+03  0.11719832828E+03 -0.19464556453E+03  0.35649693916E+03  0.12500000000E+03 0.  0.
          1    1    1    2  501    0 -0.19414624956E+03 -0.80071884497E+02  0.22194344206E+03  0.30555386494E+03  0.00000000000E+00 0. -1.
         -1    1    1    2    0  503 -0.50481475121E+02 -0.37126443786E+02  0.65757035151E+03  0.66054940719E+03  0.00000000000E+00 0.  1.
<mgrwt>
<rscale>  4 0.28561782E+03</rscale>
<asrwt>0</asrwt>
<pdfrwt beam="1">  1       21 0.15442065E+00 0.28561782E+03</pdfrwt>
<pdfrwt beam="2">  1       21 0.49056307E-01 0.28561782E+03</pdfrwt>
<totfact> 0.10123397E+03</totfact>
</mgrwt>
</event>
<event>
 5    0  0.1972558E-002  0.2586818E+03  0.7546771E-02  0.1107938E+00
         21   -1    0    0  501  502  0.00000000000E+00  0.00000000000E+00  0.83748488356E+02  0.83748488356E+02  0.00000000000E+00 0.  1.
         21   -1    0    0  502  503 -0.00000000000E+00 -0.00000000000E+00 -0.10411289910E+04  0.10411289910E+04  0.00000000000E+00 0.  1.
         25    1    1    2    0    0 -0.72766546286E+02  0.21699065753E+03 -0.71388023677E+03  0.76001967617E+03  0.12500000000E+03 0.  0.
          3    1    1    2  501    0  0.89608947079E+02 -0.20393795312E+03 -0.25663516930E+03  0.33982651786E+03  0.00000000000E+00 0.  1.
         -3    1    1    2    0  503 -0.16842400793E+02 -0.13052704415E+02  0.13134903428E+02  0.25031285326E+02  0.00000000000E+00 0. -1.
<mgrwt>
<rscale>  4 0.25868179E+03</rscale>
<asrwt>0</asrwt>
<pdfrwt beam="1">  1       21 0.12884383E-01 0.25868179E+03</pdfrwt>
<pdfrwt beam="2">  1       21 0.16017369E+00 0.25868179E+03</pdfrwt>
<totfact> 0.12409469E+04</totfact>
</mgrwt>
</event>
<event>
 5    0  0.1972558E-002  0.3087595E+03  0.7546771E-02  0.1080942E+00
         21   -1    0    0  503  502  0.00000000000E+00  0.00000000000E+00  0.99794192985E+03  0.99794192985E+03  0.00000000000E+00 0. -1.
         21   -1    0    0  501  503 -0.00000000000E+00 -0.00000000000E+00 -0.13890060892E+03  0.13890060892E+03  0.00000000000E+00 0. -1.
         25    1    1    2    0    0 -0.20004743724E+03 -0.20509537986E+03  0.12170900063E+03  0.33544175772E+03  0.12500000000E+03 0.  0.
          1    1    1    2  501    0 -0.14239504038E+02  0.36873589950E+02  0.12743626756E+03  0.13342573740E+03  0.00000000000E+00 0.  1.
         -1    1    1    2    0  502  0.21428694128E+03  0.16822178991E+03  0.60989605273E+03  0.66797504365E+03  0.00000000000E+00 0. -1.
<mgrwt>
<rscale>  4 0.30875948E+03</rscale>
<asrwt>0</asrwt>
<pdfrwt beam="1">  1       21 0.15352952E+00 0.30875948E+03</pdfrwt>
<pdfrwt beam="2">  1       21 0.21369325E-01 0.30875948E+03</pdfrwt>
<totfact> 0.53027052E+03</totfact>
</mgrwt>
</event>
<event>
 5    0  0.1972558E-002  0.3104397E+03  0.7546771E-02  0.1080135E+00
         21   -1    0    0  501  502  0.00000000000E+00  0.00000000000E+00  0.57188775875E+03  0.57188775875E+03  0.00000000000E+00 0.  1.
         21   -1    0    0  502  503 -0.00000000000E+00 -0.00000000000E+00 -0.30698844585E+03  0.30698844585E+03  0.00000000000E+00 0.  1.
         25    1    1    2    0    0  0.13448309951E+02  0.31898531691E+03  0.21192479400E+03  0.40307518871E+03  0.12500000000E+03 0.  0.
          2    1    1    2  501    0 -0.43794355559E+02 -0.27074779512E+03 -0.11576514182E+03  0.29769763553E+03  0.00000000000E+00 0.  1.
         -2    1    1    2    0  503  0.30346045608E+02 -0.48237521788E+02  0.16873966073E+03  0.17810338036E+03  0.00000000000E+00 0. -1.
<mgrwt>
<rscale>  4 0.31043975E+03</rscale>
<asrwt>0</asrwt>
<pdfrwt beam="1">  1       21 0.87982732E-01 0.31043975E+03</pdfrwt>
<pdfrwt beam="2">  1       21 0.47228992E-01 0.31043975E+03</pdfrwt>
<totfact> 0.44049829E+03</totfact>
</mgrwt>
</event>
<event>
 5    0  0.1972558E-002  0.3783957E+03  0.7546771E-02  0.1051528E+00
         21   -1    0    0  501  502  0.00000000000E+00  0.00000000000E+00  0.52298900627E+03  0.52298900627E+03  0.00000000000E+00 0.  1.
         21   -1    0    0  502  503 -0.00000000000E+00 -0.00000000000E+00 -0.65364792383E+03  0.65364792383E+03  0.00000000000E+00 0. -1.
         25    1    1    2    0    0 -0.21940676541E+02 -0.35647851126E+03 -0.52161777688E+03  0.64441324276E+03  0.12500000000E+03 0.  0.
          2    1    1    2  501    0  0.26914210727E+02  0.33207432096E+03  0.34292244530E+03  0.47811456040E+03  0.00000000000E+00 0.  1.
         -2    1    1    2    0  503 -0.49735341861E+01  0.24404190304E+02  0.48036414023E+02  0.54109126946E+02  0.00000000000E+00 0. -1.
<mgrwt>
<rscale>  4 0.37839572E+03</rscale>
<asrwt>0</asrwt>
<pdfrwt beam="1">  1       21 0.80459847E-01 0.37839572E+03</pdfrwt>
<pdfrwt beam="2">  1       21 0.10056122E+00 0.37839572E+03</pdfrwt>
<totfact> 0.96467914E+02</totfact>
</mgrwt>
</event>
<event>
 5    0  0.1972558E-002  0.4956176E+03  0.7546771E-02  0.1014929E+00
         21   -1    0    0  503  502  0.00000000000E+00  0.00000000000E+00  0.74374161142E+03  0.74374161142E+03  0.00000000000E+00 0.  1.
         21   -1    0    0  501  503 -0.00000000000E+00 -0.00000000000E+00 -0.18654410183E+04  0.18654410183E+04  0.00000000000E+00 0. -1.
         25    1    1    2    0    0  0.48124174821E+01  0.48948997853E+03 -0.17188132224E+04  0.17915265814E+04  0.12500000000E+03 0.  0.
          2    1    1    2  501    0 -0.12375235051E+03 -0.13361159055E+03  0.22110702216E+03  0.28645246837E+03  0.00000000000E+00 0. -1.
         -2    1    1    2    0  502  0.11893993303E+03 -0.35587838798E+03  0.37600679334E+03  0.53120357994E+03  0.00000000000E+00 0.  1.
<mgrwt>
<rscale>  4 0.49561764E+03</rscale>
<asrwt>0</asrwt>
<pdfrwt beam="1">  1       21 0.11442179E+00 0.49561764E+03</pdfrwt>
<pdfrwt beam="2">  1       21 0.28699092E+00 0.49561764E+03</pdfrwt>
<totfact> 0.17421963E+01</totfact>
</mgrwt>
</event>
<event>
 5    0  0.1972558E-002  0.2338590E+03  0.7546771E-02  0.1123953E+00
         21   -1    0    0  501  502  0.00000000000E+00  0.00000000000E+00  0.20133498900E+04  0.20133498900E+04  0.00000000000E+00 0. -1.
         21   -1    0    0  502  503 -0.00000000000E+00 -0.00000000000E+00 -0.49476901680E+02  0.49476901680E+02  0.00000000000E+00 0. -1.
         25    1    1    2    0    0 -0.14380877437E+03 -0.14220690827E+03  0.29646966828E+03  0.38003030478E+03  0.12500000000E+03 0.  0.
          1    1    1    2  501    0  0.10105631015E+03  0.15241196448E+03  0.13108840063E+04  0.13235779776E+04  0.00000000000E+00 0. -1.
         -1    1    1    2    0  503  0.42752464217E+02 -0.10205056210E+02  0.35651931370E+03  0.35921850928E+03  0.00000000000E+00 0.  1.
<mgrwt>
<rscale>  4 0.23385903E+03</rscale>
<asrwt>0</asrwt>
<pdfrwt beam="1">  1       21 0.30974607E+00 0.23385903E+03</pdfrwt>
<pdfrwt beam="2">  1       21 0.76118326E-02 0.23385903E+03</pdfrwt>
<totfact> 0.37478162E+03</totfact>
</mgrwt>
</event>
<event>
 5    0  0.1972558E-002  0.3269446E+03  0.7546771E-02  0.1072497E+00
         21   -1    0    0  503  502  0.00000000000E+00  0.00000000000E+00  0.51597914933E+03  0.51597914933E+03  0.00000000000E+00 0.  1.
         21   -1    0    0  501  503 -0.00000000000E+00 -0.00000000000E+00 -0.19668857219E+04  0.19668857219E+04  0.00000000000E+00 0. -1.
         25    1    1    2    0    0  0.30087059914E+03  0.34336680047E+02 -0.18776446937E+04  0.19060106822E+04  0.12500000000E+03 0.  0.
          2    1    1    2  501    0 -0.29111604029E+03  0.22848378936E+02  0.22991615103E+03  0.37166118151E+03  0.00000000000E+00 0.  1.
         -2    1    1    2    0  502 -0.97545588497E+01 -0.57185058983E+02  0.19682197012E+03  0.20519300746E+03  0.00000000000E+00 0. -1.
<mgrwt>
<rscale>  4 0.32694465E+03</rscale>
<asrwt>0</asrwt>
<pdfrwt beam="1">  1       21 0.79381408E-01 0.32694465E+03</pdfrwt>
<pdfrwt beam="2">  1       21 0.30259780E+00 0.32694465E+03</pdfrwt>
<totfact> 0.38648823E+01</totfact>
</mgrwt>
</event>
<event>
 5    0  0.1972558E-002  0.2351667E+03  0.7546771E-02  0.1123055E+00
         21   -1    0    0  501  502  0.00000000000E+00  0.00000000000E+00  0.12124261459E+03  0.12124261459E+03  0.00000000000E+00 0.  1.
         21   -1    0    0  502  503 -0.00000000000E+00 -0.00000000000E+00 -0.13684670354E+04  0.13684670354E+04  0.00000000000E+00 0.  1.
         25    1    1    2    0    0 -0.21354159206E+03 -0.21558241637E+02 -0.49336812385E+03  0.55236027641E+03  0.12500000000E+03 0.  0.
          2    1    1    2  501    0  0.23490737041E+02 -0.15436806060E+02  0.78181364127E+02  0.83080896750E+02  0.00000000000E+00 0. -1.
         -2    1    1    2    0  503  0.19005085502E+03  0.36995047697E+02 -0.83203766112E+03  0.85426847687E+03  0.00000000000E+00 0.  1.
<mgrwt>
<rscale>  4 0.23516670E+03</rscale>
<asrwt>0</asrwt>
<pdfrwt beam="1">  1       21 0.18652709E-01 0.23516670E+03</pdfrwt>
<pdfrwt beam="2">  1       21 0.21053340E+00 0.23516670E+03</pdfrwt>
<totfact> 0.29082884E+03</totfact>
</mgrwt>
</event>
<event>
 5    0  0.2645064E-002  0.3039758E+03  0.7546771E-02  0.1083270E+00
         21   -1    0    0  501  502  0.00000000000E+00  0.00000000000E+00  0.13413893473E+04  0.13413893473E+04  0.00000000000E+00 0. -1.
         21   -1    0    0  502  503 -0.00000000000E+00 -0.00000000000E+00 -0.11355340669E+03  0.11355340669E+03  0.00000000000E+00 0. -1.
         25    1    1    2    0    0 -0.20118780851E+03  0.26314803143E+03  0.58018716717E+03  0.67968049088E+03  0.12500000000E+03 0.  0.
          2    1    1    2  501    0  0.12417900317E+03 -0.21918517378E+03  0.63815797426E+03  0.68608174829E+03  0.00000000000E+00 0. -1.
         -2    1    1    2    0  503  0.77008805336E+02 -0.43962857652E+02  0.94907991752E+01  0.89180514807E+02  0.00000000000E+00 0.  1.
<mgrwt>
<rscale>  4 0.30397579E+03</rscale>
<asrwt>0</asrwt>
<pdfrwt beam="1">  1       21 0.20636758E+00 0.30397579E+03</pdfrwt>
<pdfrwt beam="2">  1       21 0.17469756E-01 0.30397579E+03</pdfrwt>
<totfact> 0.33237020E+03</totfact>
</mgrwt>
</event>
<event>
 5    0  0.1972558E-002  0.2886440E+03  0.7546771E-02  0.1091059E+00
         21   -1    0    0  501  502  0.00000000000E+00  0.00000000000E+00  0.32924895479E+03  0.32924895479E+03  0.00000000000E+00 0.  1.
         21   -1    0    0  502  503 -0.00000000000E+00 -0.00000000000E+00 -0.36822324123E+03  0.36822324123E+03  0.00000000000E+00 0. -1.
         25    1    1    2    0    0 -0.14710698848E+03 -0.22584379977E+03 -0.14203297155E+03  0.32930875021E+03  0.12500000000E+03 0.  0.
          2    1    1    2  501    0  0.15228030393E+03  0.19677529137E+03 -0.12266259695E+02  0.24911898239E+03  0.00000000000E+00 0. -1.
         -2    1    1    2    0  503 -0.51733154508E+01  0.29068508404E+02  0.11532494481E+03  0.11904446341E+03  0.00000000000E+00 0.  1.
<mgrwt>
<rscale>  4 0.28864401E+03</rscale>
<asrwt>0</asrwt>
<pdfrwt beam="1">  1       21 0.50653685E-01 0.28864401E+03</pdfrwt>
<pdfrwt beam="2">  1       21 0.56649730E-01 0.28864401E+03</pdfrwt>
<totfact> 0.10284531E+04</totfact>
</mgrwt>
</event>
<event>
 5    0  0.1972558E-002  0.2355061E+03  0.7546771E-02  0.1122823E+00
         21   -1    0    0  501  502  0.00000000000E+00  0.00000000000E+00  0.13124712071E+03  0.13124712071E+03  0.00000000000E+00 0.  1.
         21   -1    0    0  502  503 -0.00000000000E+00 -0.00000000000E+00 -0.45739046469E+03  0.45739046469E+03  0.00000000000E+00 0.  1.
         25    1    1    2    0    0 -0.13135920029E+03 -0.16973618693E+03 -0.14692083929E+03  0.28857641219E+03  0.12500000000E+03 0.  0.
          3    1    1    2  501    0  0.13045061464E+02  0.19447997825E+02  0.14725780675E+02  0.27663095714E+02  0.00000000000E+00 0. -1.
         -3    1    1    2    0  503  0.11831413883E+03  0.15028818910E+03 -0.19394828537E+03  0.27239807750E+03  0.00000000000E+00 0.  1.
<mgrwt>
<rscale>  4 0.23550612E+03</rscale>
<asrwt>0</asrwt>
<pdfrwt beam="1">  1       21 0.20191865E-01 0.23550612E+03</pdfrwt>
<pdfrwt beam="2">  1       21 0.70367763E-01 0.23550612E+03</pdfrwt>
<totfact> 0.40671805E+04</totfact>
</mgrwt>
</event>
<event>
 5    0  0.1972558E-002  0.3628479E+03  0.7546771E-02  0.1057462E+00
         21   -1    0    0  501  502  0.00000000000E+00  0.00000000000E+00  0.45331597667E+03  0.45331597667E+03  0.00000000000E+00 0.  1.
         21   -1    0    0  502  503 -0.00000000000E+00 -0.00000000000E+00 -0.48077599009E+03  0.48077599009E+03  0.00000000000E+00 0. -1.
         25    1    1    2    0    0  0.32630209172E+03 -0.11689250509E+03 -0.21297001192E+03  0.42557976782E+03  0.12500000000E+03 0.  0.
          1    1    1    2  501    0 -0.24261166374E+02 -0.20177109108E+02  0.17377514306E+03  0.17661687426E+03  0.00000000000E+00 0. -1.
         -1    1    1    2    0  503 -0.30204092534E+03  0.13706961419E+03  0.11734855442E+02  0.33189532469E+03  0.00000000000E+00 0.  1.
<mgrwt>
<rscale>  4 0.36284792E+03</rscale>
<asrwt>0</asrwt>
<pdfrwt beam="1">  1       21 0.69740919E-01 0.36284792E+03</pdfrwt>
<pdfrwt beam="2">  1       21 0.73965537E-01 0.36284792E+03</pdfrwt>
<totfact> 0.27564141E+03</totfact>
</mgrwt>
</event>
<event>
 5    0  0.1972558E-002  0.2648248E+03  0.7546771E-02  0.1104279E+00
         21   -1    0    0  501  502  0.00000000000E+00  0.00000000000E+00  0.19904858014E+03  0.19904858014E+03  0.00000000000E+00 0.  1.
         21   -1    0    0  502  503 -0.00000000000E+00 -0.00000000000E+00 -0.36440102298E+03  0.36440102298E+03  0.00000000000E+00 0.  1.
         25    1    1    2    0    0 -0.58899110505E+02  0.22591606469E+03 -0.18829588105E+03  0.32494232154E+03  0.12500000000E+03 0.  0.
          4    1    1    2  501    0  0.44128984326E+02 -0.21073143585E+03  0.14792298354E+02  0.21580991034E+03  0.00000000000E+00 0.  1.
         -4    1    1    2    0  503  0.14770126179E+02 -0.15184628843E+02  0.81511398525E+01  0.22697371243E+02  0.00000000000E+00 0. -1.
<mgrwt>
<rscale>  4 0.26482480E+03</rscale>
<asrwt>0</asrwt>
<pdfrwt beam="1">  1       21 0.30622859E-01 0.26482480E+03</pdfrwt>
<pdfrwt beam="2">  1       21 0.56061696E-01 0.26482480E+03</pdfrwt>
<totfact> 0.29604398E+04</totfact>
</mgrwt>
</event>
<event>
 5    0  0.1972558E-002  0.4398456E+03  0.7546771E-02  0.1030794E+00
         21   -1    0    0  501  502  0.00000000000E+00  0.00000000000E+00  0.58961732638E+03  0.58961732638E+03  0.00000000000E+00 0. -1.
         21   -1    0    0  502  503 -0.00000000000E+00 -0.00000000000E+00 -0.70662827769E+03  0.70662827769E+03  0.00000000000E+00 0. -1.
         25    1    1    2    0    0 -0.63634113707E+02  0.41424080639E+03 -0.20372938042E+03  0.48246803682E+03  0.12500000000E+03 0.  0.
          2    1    1    2  501    0  0.55944121480E+01 -0.42597027786E+03 -0.23508861118E+03  0.48656821739E+03  0.00000000000E+00 0. -1.
         -2    1    1    2    0  503  0.58039701559E+02  0.11729471474E+02  0.32180704029E+03  0.32720934986E+03  0.00000000000E+00 0.  1.
<mgrwt>
<rscale>  4 0.43984563E+03</rscale>
<asrwt>0</asrwt>
<pdfrwt beam="1">  1       21 0.90710357E-01 0.43984563E+03</pdfrwt>
<pdfrwt beam="2">  1       21 0.10871204E+00 0.43984563E+03</pdfrwt>
<totfact> 0.58470722E+02</totfact>
</mgrwt>
</event>
<event>
 5    0  0.1972558E-002  0.2413063E+03  0.7546771E-02  0.1118926E+00
         21   -1    0    0  501  502  0.00000000000E+00  0.00000000000E+00  0.11303492893E+04  0.11303492893E+04  0.00000000000E+00 0. -1.
         21   -1    0    0  502  503 -0.00000000000E+00 -0.00000000000E+00 -0.11216788525E+03  0.11216788525E+03  0.00000000000E+00 0.  1.
         25    1    1    2    0    0  0.21416130058E+03 -0.75580618213E+01  0.12592399027E+03  0.27821581244E+03  0.12500000000E+03 0.  0.
          1    1    1    2  501    0 -0.19606776649E+03 -0.10468044640E+02  0.23363665629E+03  0.30518557662E+03  0.00000000000E+00 0.  1.
         -1    1    1    2    0  503 -0.18093534093E+02  0.18026106462E+02  0.65862075752E+03  0.65911578552E+03  0.00000000000E+00 0. -1.
<mgrwt>
<rscale>  4 0.24130633E+03</rscale>
<asrwt>0</asrwt>
<pdfrwt beam="1">  1       21 0.17389988E+00 0.24130633E+03</pdfrwt>
<pdfrwt beam="2">  1       21 0.17256598E-01 0.24130633E+03</pdfrwt>
<totfact> 0.58536440E+03</totfact>
</mgrwt>
</event>
<event>
 5    0  0.1972558E-002  0.4608050E+03  0.7546771E-02  0.1024548E+00
         21   -1    0    0  501  502  0.00000000000E+00  0.00000000000E+00  0.51016680340E+03  0.51016680340E+03  0.00000000000E+00 0. -1.
         21   -1    0    0  502  503 -0.00000000000E+00 -0.00000000000E+00 -0.11444854744E+04  0.11444854744E+04  0.00000000000E+00 0.  1.
         25    1    1    2    0    0 -0.41077092163E+03  0.17420665596E+03 -0.95474014305E+03  0.10612419374E+04  0.12500000000E+03 0.  0.
          3    1    1    2  501    0  0.38972478878E+03 -0.17406098292E+03  0.20035516558E+03  0.47151333930E+03  0.00000000000E+00 0.  1.
         -3    1    1    2    0  503  0.21046132847E+02 -0.14567303229E+00  0.12006630645E+03  0.12189700108E+03  0.00000000000E+00 0. -1.
<mgrwt>
<rscale>  4 0.46080504E+03</rscale>
<asrwt>0</asrwt>
<pdfrwt beam="1">  1       21 0.78487202E-01 0.46080504E+03</pdfrwt>
<pdfrwt beam="2">  1       21 0.17607469E+00 0.46080504E+03</pdfrwt>
<totfact> 0.22528148E+02</totfact>
</mgrwt>
</event>
<event>
 5    0  0.1972558E-002  0.2813553E+03  0.7546771E-02  0.1094951E+00
         21   -1    0    0  501  502  0.00000000000E+00  0.00000000000E+00  0.11130669199E+04  0.11130669199E+04  0.00000000000E+00 0. -1.
         21   -1    0    0  502  503 -0.00000000000E+00 -0.00000000000E+00 -0.20415153270E+03  0.20415153270E+03  0.00000000000E+00 0.  1.
         25    1    1    2    0    0 -0.12130807855E+03  0.22095281189E+03 -0.82096464712E+02  0.29308808321E+03  0.12500000000E+03 0.  0.
          1    1    1    2  501    0  0.28351170678E+02 -0.20429630891E+02  0.18989559215E+03  0.19308416459E+03  0.00000000000E+00 0.  1.
         -1    1    1    2    0  503  0.92956907875E+02 -0.20052318099E+03  0.80111625974E+03  0.83104620477E+03  0.00000000000E+00 0. -1.
<mgrwt>
<rscale>  4 0.28135528E+03</rscale>
<asrwt>0</asrwt>
<pdfrwt beam="1">  1       21 0.17124106E+00 0.28135528E+03</pdfrwt>
<pdfrwt beam="2">  1       21 0.31407929E-01 0.28135528E+03</pdfrwt>
<totfact> 0.18926214E+03</totfact>
</mgrwt>
</event>
<event>
 5    0  0.1972558E-002  0.3226246E+03  0.7546771E-02  0.1074448E+00
         21   -1    0    0  501  502  0.00000000000E+00  0.00000000000E+00  0.43695791675E+03  0.43695791675E+03  0.00000000000E+00 0. -1.
         21   -1    0    0  502  503 -0.00000000000E+00 -0.00000000000E+00 -0.45055017343E+03  0.45055017343E+03  0.00000000000E+00 0. -1.
         25    1    1    2    0    0  0.29259834859E+03 -0.60534865940E+02 -0.29033087377E+03  0.43496583757E+03  0.12500000000E+03 0.  0.
          2    1    1    2  501    0 -0.27935567126E+03  0.92008426600E+02  0.16832455095E+03  0.33887799587E+03  0.00000000000E+00 0. -1.
         -2    1    1    2    0  503 -0.13242677327E+02 -0.31473560660E+02  0.10841406613E+03  0.11366425673E+03  0.00000000000E+00 0.  1.
<mgrwt>
<rscale>  4 0.32262460E+03</rscale>
<asrwt>0</asrwt>
<pdfrwt beam="1">  1       21 0.67224295E-01 0.32262460E+03</pdfrwt>
<pdfrwt beam="2">  1       21 0.69315411E-01 0.32262460E+03</pdfrwt>
<totfact> 0.35279648E+03</totfact>
</mgrwt>
</event>
<event>
 5    0  0.1972558E-002  0.3397579E+03  0.7546771E-02  0.1066899E+00
         21   -1    0    0  501  502  0.00000000000E+00  0.00000000000E+00  0.16809423601E+03  0.16809423601E+03  0.00000000000E+00 0.  1.
         21   -1    0    0  502  503 -0.00000000000E+00 -0.00000000000E+00 -0.10720233828E+04  0.10720233828E+04  0.00000000000E+00 0. -1.
         25    1    1    2    0    0 -0.11972055971E+03  0.34107685316E+03 -0.55776135361E+03  0.67630552250E+03  0.12500000000E+03 0.  0.
          4    1    1    2  501    0  0.99989765867E+02 -0.39882796224E+02 -0.20291801014E+03  0.22970483136E+03  0.00000000000E+00 0. -1.
         -4    1    1    2    0  503  0.19730793848E+02 -0.30119405693E+03 -0.14324978307E+03  0.33410726497E+03  0.00000000000E+00 0.  1.
<mgrwt>
<rscale>  4 0.33975790E+03</rscale>
<asrwt>0</asrwt>
<pdfrwt beam="1">  1       21 0.25860651E-01 0.33975790E+03</pdfrwt>
<pdfrwt beam="2">  1       21 0.16492668E+00 0.33975790E+03</pdfrwt>
<totfact> 0.29705872E+03</totfact>
</mgrwt>
</event>
<event>
 5    0  0.1972558E-002  0.2294636E+03  0.7546771E-02  0.1127018E+00
         21   -1    0    0  501  502  0.00000000000E+00  0.00000000000E+00  0.78798759149E+03  0.78798759149E+03  0.00000000000E+00 0. -1.
         21   -1    0    0  502  503 -0.00000000000E+00 -0.00000000000E+00 -0.69209095031E+02  0.69209095031E+02  0.00000000000E+00 0. -1.
         25    1    1    2    0    0 -0.95974797556E+02  0.17937957309E+03  0.32830681965E+03  0.40595389004E+03  0.12500000000E+03 0.  0.
          3    1    1    2  501    0  0.91490375626E+02 -0.15952925143E+03  0.25581912658E+03  0.31506109950E+03  0.00000000000E+00 0. -1.
         -3    1    1    2    0  503  0.44844219298E+01 -0.19850321654E+02  0.13465255023E+03  0.13618169698E+03  0.00000000000E+00 0.  1.
<mgrwt>
<rscale>  4 0.22946355E+03</rscale>
<asrwt>0</asrwt>
<pdfrwt beam="1">  1       21 0.12122885E+00 0.22946355E+03</pdfrwt>
<pdfrwt beam="2">  1       21 0.10647554E-01 0.22946355E+03</pdfrwt>
<totfact> 0.36651336E+04</totfact>
</mgrwt>
</event>
<event>
 5    0  0.1972558E-002  0.3286744E+03  0.7546771E-02  0.1071725E+00
         21   -1    0    0  501  502  0.00000000000E+00  0.00000000000E+00  0.13334748390E+04  0.13334748390E+04  0.00000000000E+00 0.  1.
         21   -1    0    0  502  503 -0.00000000000E+00 -0.00000000000E+00 -0.96445449192E+02  0.96445449192E+02  0.00000000000E+00 0.  1.
         25    1    1    2    0    0  0.66557129206E+02 -0.27026044522E+03  0.69639997680E+03  0.76030815291E+03  0.12500000000E+03 0.  0.
          4    1    1    2  501    0 -0.12791087387E+03  0.29480713964E+03  0.39153518162E+03  0.50652960395E+03  0.00000000000E+00 0.  1.
         -4    1    1    2    0  503  0.61353744665E+02 -0.24546694413E+02  0.14909423142E+03  0.16308253136E+03  0.00000000000E+00 0. -1.
<mgrwt>
<rscale>  4 0.32867437E+03</rscale>
<asrwt>0</asrwt>
<pdfrwt beam="1">  1       21 0.20514996E+00 0.32867437E+03</pdfrwt>
<pdfrwt beam="2">  1       21 0.14837762E-01 0.32867437E+03</pdfrwt>
<totfact> 0.45135159E+03</totfact>
</mgrwt>
</event>
<event>
 5    0  0.1972558E-002  0.2635181E+03  0.7546771E-02  0.1105048E+00
         21   -1    0    0  503  502  0.00000000000E+00  0.00000000000E+00  0.82714554810E+03  0.82714554810E+03  0.00000000000E+00 0. -1.
         21   -1    0    0  501  503 -0.00000000000E+00 -0.00000000000E+00 -0.25111987132E+03  0.25111987132E+03  0.00000000000E+00 0.  1.
         25    1    1    2    0    0  0.43134360867E+02  0.22793904592E+03 -0.15539839040E+03  0.30592554892E+03  0.12500000000E+03 0.  0.
          1    1    1    2  501    0  0.65833946775E+01 -0.11059773222E+03  0.23482937532E+03  0.25965368277E+03  0.00000000000E+00 0.  1.
         -1    1    1    2    0  502 -0.49717755545E+02 -0.11734131370E+03  0.49659469186E+03  0.51268618774E+03  0.00000000000E+00 0. -1.
<mgrwt>
<rscale>  4 0.26351809E+03</rscale>
<asrwt>0</asrwt>
<pdfrwt beam="1">  1       21 0.12725316E+00 0.26351809E+03</pdfrwt>
<pdfrwt beam="2">  1       21 0.38633827E-01 0.26351809E+03</pdfrwt>
<totfact> 0.27895976E+03</totfact>
</mgrwt>
</event>
<event>
 5    0  0.1972558E-002  0.2491746E+03  0.7546771E-02  0.1113828E+00
         21   -1    0    0  503  502  0.00000000000E+00  0.00000000000E+00  0.38046313045E+03  0.38046313045E+03  0.00000000000E+00 0. -1.
         21   -1    0    0  501  503 -0.00000000000E+00 -0.00000000000E+00 -0.12858643138E+04  0.12858643138E+04  0.00000000000E+00 0.  1.
         25    1    1    2    0    0 -0.40783572763E+02  0.20974582570E+03 -0.11948591061E+04  0.12202335410E+04  0.12500000000E+03 0.  0.
          2    1    1    2  501    0  0.12501519129E+02  0.55086452875E+02  0.54651284821E+01  0.56750972680E+02  0.00000000000E+00 0.  1.
         -2    1    1    2    0  502  0.28282053634E+02 -0.26483227857E+03  0.28399279430E+03  0.38934293052E+03  0.00000000000E+00 0. -1.
<mgrwt>
<rscale>  4 0.24917462E+03</rscale>
<asrwt>0</asrwt>
<pdfrwt beam="1">  1       21 0.58532788E-01 0.24917462E+03</pdfrwt>
<pdfrwt beam="2">  1       21 0.19782528E+00 0.24917462E+03</pdfrwt>
<totfact> 0.35576095E+02</totfact>
</mgrwt>
</event>
<event>
 5    0  0.1972558E-002  0.2523862E+03  0.7546771E-02  0.1111806E+00
         21   -1    0    0  501  502  0.00000000000E+00  0.00000000000E+00  0.31627935186E+03  0.31627935186E+03  0.00000000000E+00 0. -1.
         21   -1    0    0  502  503 -0.00000000000E+00 -0.00000000000E+00 -0.89686146326E+03  0.89686146326E+03  0.00000000000E+00 0. -1.
         25    1    1    2    0    0 -0.19935150697E+03  0.10069927056E+03 -0.80245788302E+03  0.84228559316E+03  0.12500000000E+03 0.  0.
          4    1    1    2  501    0  0.21576590055E+02 -0.24752486608E+02  0.16657844211E+03  0.16978401635E+03  0.00000000000E+00 0. -1.
         -4    1    1    2    0  503  0.17777491692E+03 -0.75946783949E+02  0.55297329506E+02  0.20107120561E+03  0.00000000000E+00 0.  1.
<mgrwt>
<rscale>  4 0.25238621E+03</rscale>
<asrwt>0</asrwt>
<pdfrwt beam="1">  1       21 0.48658363E-01 0.25238621E+03</pdfrwt>
<pdfrwt beam="2">  1       21 0.13797868E+00 0.25238621E+03</pdfrwt>
<totfact> 0.14216303E+03</totfact>
</mgrwt>
</event>
<event>
 5    0  0.1972558E-002  0.2471303E+03  0.7546771E-02  0.1115132E+00
         21   -1    0    0  503  502  0.00000000000E+00  0.00000000000E+00  0.58234621931E+02  0.58234621931E+02  0.00000000000E+00 0. -1.
         21   -1    0    0  501  503 -0.00000000000E+00 -0.00000000000E+00 -0.97558057455E+03  0.97558057455E+03  0.00000000000E+00 0. -1.
         25    1    1    2    0    0  0.54570952637E+02  0.20608347512E+03 -0.44226045026E+03  0.50662381848E+03  0.12500000000E+03 0.  0.
          4    1    1    2  501    0  0.42389407969E+01 -0.73449649855E+02 -0.93642482261E+02  0.11908708648E+03  0.00000000000E+00 0.  1.
         -4    1    1    2    0  502 -0.58809893434E+02 -0.13263382527E+03 -0.38144302010E+03  0.40810429152E+03  0.00000000000E+00 0. -1.
<mgrwt>
<rscale>  4 0.24713030E+03</rscale>
<asrwt>0</asrwt>
<pdfrwt beam="1">  1       21 0.89591730E-02 0.24713030E+03</pdfrwt>
<pdfrwt beam="2">  1       21 0.15008931E+00 0.24713030E+03</pdfrwt>
<totfact> 0.28473222E+04</totfact>
</mgrwt>
</event>
<event>
 5    0  0.1972558E-002  0.2244242E+03  0.7546771E-02  0.1130627E+00
         21   -1    0    0  501  502  0.00000000000E+00  0.00000000000E+00  0.16846105178E+04  0.16846105178E+04  0.00000000000E+00 0.  1.
         21   -1    0    0  502  503 -0.00000000000E+00 -0.00000000000E+00 -0.41470505612E+02  0.41470505612E+02  0.00000000000E+00 0.  1.
         25    1    1    2    0    0  0.15131763098E+03  0.15027032862E+03  0.11248970870E+04  0.11517363646E+04  0.12500000000E+03 0.  0.
          4    1    1    2  501    0 -0.14291120276E+03 -0.10861564132E+03  0.28180443993E+03  0.33411781122E+03  0.00000000000E+00 0.  1.
         -4    1    1    2    0  503 -0.84064282128E+01 -0.41654687305E+02  0.23643848523E+03  0.24022684760E+03  0.00000000000E+00 0. -1.
<mgrwt>
<rscale>  4 0.22442425E+03</rscale>
<asrwt>0</asrwt>
<pdfrwt beam="1">  1       21 0.25917080E+00 0.22442425E+03</pdfrwt>
<pdfrwt beam="2">  1       21 0.63800791E-02 0.22442425E+03</pdfrwt>
<totfact> 0.10126608E+04</totfact>
</mgrwt>
</event>
<event>
 5    0  0.1972558E-002  0.3191815E+03  0.7546771E-02  0.1076027E+00
         21   -1    0    0  501  502  0.00000000000E+00  0.00000000000E+00  0.11165071643E+04  0.11165071643E+04  0.00000000000E+00 0. -1.
         21   -1    0    0  502  503 -0.00000000000E+00 -0.00000000000E+00 -0.11890453699E+03  0.11890453699E+03  0.00000000000E+00 0. -1.
         25    1    1    2    0    0 -0.14020316777E+03 -0.27189886301E+03  0.37432371293E+03  0.49932871139E+03  0.12500000000E+03 0.  0.
          1    1    1    2  501    0  0.42909061124E+01  0.22917635836E+02  0.31990057328E+03  0.32074913358E+03  0.00000000000E+00 0.  1.
         -1    1    1    2    0  503  0.13591226166E+03  0.24898122718E+03  0.30337834114E+03  0.41533385635E+03  0.00000000000E+00 0. -1.
<mgrwt>
<rscale>  4 0.31918150E+03</rscale>
<asrwt>0</asrwt>
<pdfrwt beam="1">  1       21 0.17177033E+00 0.31918150E+03</pdfrwt>
<pdfrwt beam="2">  1       21 0.18293006E-01 0.31918150E+03</pdfrwt>
<totfact> 0.51851446E+03</totfact>
</mgrwt>
</event>
<event>
 5    0  0.1972558E-002  0.2781561E+03  0.7546771E-02  0.1096700E+00
         21   -1    0    0  501  502  0.00000000000E+00  0.00000000000E+00  0.44637703604E+03  0.44637703604E+03  0.00000000000E+00 0. -1.
         21   -1    0    0  502  503 -0.00000000000E+00 -0.00000000000E+00 -0.33381723987E+03  0.33381723987E+03  0.00000000000E+00 0. -1.
         25    1    1    2    0    0 -0.25445302299E+03 -0.41313450245E+02 -0.20306805784E+03  0.35116203980E+03  0.12500000000E+03 0.  0.
          3    1    1    2  501    0  0.21644643265E+03  0.41831477407E+02  0.16961022251E+03  0.27814844650E+03  0.00000000000E+00 0. -1.
         -3    1    1    2    0  503  0.38006590337E+02 -0.51802716224E+00  0.14601763150E+03  0.15088378962E+03  0.00000000000E+00 0.  1.
<mgrwt>
<rscale>  4 0.27815606E+03</rscale>
<asrwt>0</asrwt>
<pdfrwt beam="1">  1       21 0.68673390E-01 0.27815606E+03</pdfrwt>
<pdfrwt beam="2">  1       21 0.51356499E-01 0.27815606E+03</pdfrwt>
<totfact> 0.65970116E+03</totfact>
</mgrwt>
</event>
<event>
 5    0  0.1972558E-002  0.3196018E+03  0.7546771E-02  0.1075833E+00
         21   -1    0    0  501  502  0.00000000000E+00  0.00000000000E+00  0.35739294266E+03  0.35739294266E+03  0.00000000000E+00 0. -1.
         21   -1    0    0  502  503 -0.00000000000E+00 -0.00000000000E+00 -0.73659021669E+03  0.73659021669E+03  0.00000000000E+00 0.  1.
         25    1    1    2    0    0 -0.27253758405E+03 -0.10957582945E+03 -0.55572496386E+03  0.64088909538E+03  0.12500000000E+03 0.  0.
          4    1    1    2  501    0  0.28284731635E+03  0.88541529891E+02  0.22433634241E+02  0.29722966680E+03  0.00000000000E+00 0. -1.
         -4    1    1    2    0  503 -0.10309732302E+02  0.21034299555E+02  0.15409405559E+03  0.15586439717E+03  0.00000000000E+00 0.  1.
<mgrwt>
<rscale>  4 0.31960183E+03</rscale>
<asrwt>0</asrwt>
<pdfrwt beam="1">  1       21 0.54983531E-01 0.31960183E+03</pdfrwt>
<pdfrwt beam="2">  1       21 0.11332157E+00 0.31960183E+03</pdfrwt>
<totfact> 0.17289731E+03</totfact>
</mgrwt>
</event>
<event>
 5    0  0.1972558E-002  0.2550964E+03  0.7546771E-02  0.1110126E+00
         21   -1    0    0  501  502  0.00000000000E+00  0.00000000000E+00  0.24269101414E+04  0.24269101414E+04  0.00000000000E+00 0. -1.
         21   -1    0    0  502  503 -0.00000000000E+00 -0.00000000000E+00 -0.74741870419E+03  0.74741870419E+03  0.00000000000E+00 0.  1.
         25    1    1    2    0    0 -0.17907776976E+03 -0.12451828964E+03 -0.67437792467E+03  0.71971121803E+03  0.12500000000E+03 0.  0.
          1    1    1    2  501    0  0.25547502382E+03  0.19764602016E+03  0.48473696869E+03  0.58249580762E+03  0.00000000000E+00 0.  1.
         -1    1    1    2    0  503 -0.76397254059E+02 -0.73127730524E+02  0.18691323932E+04  0.18721218199E+04  0.00000000000E+00 0. -1.
<mgrwt>
<rscale>  4 0.25509643E+03</rscale>
<asrwt>0</asrwt>
<pdfrwt beam="1">  1       21 0.37337079E+00 0.25509643E+03</pdfrwt>
<pdfrwt beam="2">  1       21 0.11498749E+00 0.25509643E+03</pdfrwt>
<totfact> 0.66223616E+00</totfact>
</mgrwt>
</event>
<event>
 5    0  0.1972558E-002  0.3322045E+03  0.7546771E-02  0.1070166E+00
         21   -1    0    0  501  502  0.00000000000E+00  0.00000000000E+00  0.60880515509E+03  0.60880515509E+03  0.00000000000E+00 0.  1.
         21   -1    0    0  502  503 -0.00000000000E+00 -0.00000000000E+00 -0.21841963412E+03  0.21841963412E+03  0.00000000000E+00 0.  1.
         25    1    1    2    0    0 -0.30671854412E+03 -0.25662153654E+02  0.10083208123E+02  0.33235746196E+03  0.12500000000E+03 0.  0.
          3    1    1    2  501    0  0.19988706257E+02 -0.90732121859E+01  0.58373177194E+02  0.62364247553E+02  0.00000000000E+00 0. -1.
         -3    1    1    2    0  503  0.28672983786E+03  0.34735365840E+02  0.32192913565E+03  0.43250307969E+03  0.00000000000E+00 0.  1.
<mgrwt>
<rscale>  4 0.33220447E+03</rscale>
<asrwt>0</asrwt>
<pdfrwt beam="1">  1       21 0.93662331E-01 0.33220447E+03</pdfrwt>
<pdfrwt beam="2">  1       21 0.33603021E-01 0.33220447E+03</pdfrwt>
<totfact> 0.75483520E+03</totfact>
</mgrwt>
</event>
<event>
 5    0  0.1972558E-002  0.2076219E+03  0.7546771E-02  0.1143463E+00
         21   -1    0    0  503  502  0.00000000000E+00  0.00000000000E+00  0.22239995021E+03  0.22239995021E+03  0.00000000000E+00 0. -1.
         21   -1    0    0  501  503 -0.00000000000E+00 -0.00000000000E+00 -0.50373560044E+03  0.50373560044E+03  0.00000000000E+00 0. -1.
         25    1    1    2    0    0 -0.13190344944E+03  0.16033963071E+03 -0.34342894837E+03  0.42032815719E+03  0.12500000000E+03 0.  0.
          2    1    1    2  501    0  0.13513857407E+02 -0.13034632203E+03 -0.49781837292E+02  0.14018209348E+03  0.00000000000E+00 0.  1.
         -2    1    1    2    0  502  0.11838959203E+03 -0.29993308683E+02  0.11187513543E+03  0.16562529998E+03  0.00000000000E+00 0. -1.
<mgrwt>
<rscale>  4 0.20762194E+03</rscale>
<asrwt>0</asrwt>
<pdfrwt beam="1">  1       21 0.34215377E-01 0.20762194E+03</pdfrwt>
<pdfrwt beam="2">  1       21 0.77497784E-01 0.20762194E+03</pdfrwt>
<totfact> 0.12040536E+04</totfact>
</mgrwt>
</event>
<event>
 5    0  0.1972558E-002  0.2552393E+03  0.7546771E-02  0.1110038E+00
         21   -1    0    0  501  502  0.00000000000E+00  0.00000000000E+00  0.31744218091E+03  0.31744218091E+03  0.00000000000E+00 0. -1.
         21   -1    0    0  502  503 -0.00000000000E+00 -0.00000000000E+00 -0.20994065404E+04  0.20994065404E+04  0.00000000000E+00 0.  1.
         25    1    1    2    0    0  0.29869371800E+03  0.24739052137E+02 -0.12975466659E+04  0.13375658145E+04  0.12500000000E+03 0.  0.
          2    1    1    2  501    0 -0.93007851613E+02 -0.10562364013E+03 -0.73315336118E+03  0.74653912478E+03  0.00000000000E+00 0.  1.
         -2    1    1    2    0  503 -0.20568586639E+03  0.80884587995E+02  0.24873566755E+03  0.33274378209E+03  0.00000000000E+00 0. -1.
<mgrwt>
<rscale>  4 0.25523926E+03</rscale>
<asrwt>0</asrwt>
<pdfrwt beam="1">  1       21 0.48837258E-01 0.25523926E+03</pdfrwt>
<pdfrwt beam="2">  1       21 0.32298562E+00 0.25523926E+03</pdfrwt>
<totfact> 0.91796592E+01</totfact>
</mgrwt>
</event>
<event>
 5    0  0.1972558E-002  0.3689049E+03  0.7546771E-02  0.1055112E+00
         21   -1    0    0  501  502  0.00000000000E+00  0.00000000000E+00  0.10307266479E+04  0.10307266479E+04  0.00000000000E+00 0.  1.
         21   -1    0    0  502  503 -0.00000000000E+00 -0.00000000000E+00 -0.29006960657E+03  0.29006960657E+03  0.00000000000E+00 0.  1.
         25    1    1    2    0    0  0.11502165140E+03  0.36456359393E+03  0.12613605118E+02  0.40239370937E+03  0.12500000000E+03 0.  0.
          2    1    1    2  501    0 -0.20704146333E+02 -0.74954814546E+02  0.56996270856E+03  0.57524288353E+03  0.00000000000E+00 0.  1.
         -2    1    1    2    0  503 -0.94317505068E+02 -0.28960877938E+03  0.15808072760E+03  0.34315966152E+03  0.00000000000E+00 0. -1.
<mgrwt>
<rscale>  4 0.36890492E+03</rscale>
<asrwt>0</asrwt>
<pdfrwt beam="1">  1       21 0.15857333E+00 0.36890492E+03</pdfrwt>
<pdfrwt beam="2">  1       21 0.44626094E-01 0.36890492E+03</pdfrwt>
<totfact> 0.10905943E+03</totfact>
</mgrwt>
</event>
<event>
 5    0  0.1972558E-002  0.2519013E+03  0.7546771E-02  0.1112109E+00
         21   -1    0    0  501  502  0.00000000000E+00  0.00000000000E+00  0.38932476754E+03  0.38932476754E+03  0.00000000000E+00 0.  1.
         21   -1    0    0  502  503 -0.00000000000E+00 -0.00000000000E+00 -0.22471533548E+03  0.22471533548E+03  0.00000000000E+00 0. -1.
         25    1    1    2    0    0  0.14591212446E+03  0.18245725678E+03 -0.30399256914E+02  0.26670229365E+03  0.12500000000E+03 0.  0.
          2    1    1    2  501    0 -0.38307710804E+01 -0.39156007103E+02  0.12923576718E+03  0.13509164007E+03  0.00000000000E+00 0. -1.
         -2    1    1    2    0  503 -0.14208135338E+03 -0.14330124968E+03  0.65772921793E+02  0.21224616929E+03  0.00000000000E+00 0.  1.
<mgrwt>
<rscale>  4 0.25190134E+03</rscale>
<asrwt>0</asrwt>
<pdfrwt beam="1">  1       21 0.59896118E-01 0.25190134E+03</pdfrwt>
<pdfrwt beam="2">  1       21 0.34571590E-01 0.25190134E+03</pdfrwt>
<totfact> 0.20310123E+04</totfact>
</mgrwt>
</event>
<event>
 5    0  0.1972558E-002  0.3997978E+03  0.7546771E-02  0.1043850E+00
         21   -1    0    0  501  502  0.00000000000E+00  0.00000000000E+00  0.15997517134E+04  0.15997517134E+04  0.00000000000E+00 0. -1.
         21   -1    0    0  502  503 -0.00000000000E+00 -0.00000000000E+00 -0.26947648864E+03  0.26947648864E+03  0.00000000000E+00 0. -1.
         25    1    1    2    0    0 -0.32451605445E+03 -0.19343966396E+03 -0.51956515659E+02  0.40131540303E+03  0.12500000000E+03 0.  0.
          1    1    1    2  501    0  0.30197558354E+03  0.25451334392E+03  0.92088776752E+03  0.10019982912E+04  0.00000000000E+00 0. -1.
         -1    1    1    2    0  503  0.22540470912E+02 -0.61073679955E+02  0.46134397291E+03  0.46591450778E+03  0.00000000000E+00 0.  1.
<mgrwt>
<rscale>  4 0.39979783E+03</rscale>
<asrwt>0</asrwt>
<pdfrwt beam="1">  1       21 0.24611564E+00 0.39979783E+03</pdfrwt>
<pdfrwt beam="2">  1       21 0.41457922E-01 0.39979783E+03</pdfrwt>
<totfact> 0.32528961E+02</totfact>
</mgrwt>
</event>
<event>
 5    0  0.1972558E-002  0.2328336E+03  0.7546771E-02  0.1124661E+00
         21   -1    0    0  501  502  0.00000000000E+00  0.00000000000E+00  0.12748126503E+03  0.12748126503E+03  0.00000000000E+00 0.  1.
         21   -1    0    0  502  503 -0.00000000000E+00 -0.00000000000E+00 -0.25240630745E+04  0.25240630745E+04  0.00000000000E+00 0. -1.
         25    1    1    2    0    0 -0.21480840512E+03  0.42401154473E+02 -0.33228201234E+03  0.41710531589E+03  0.12500000000E+03 0.  0.
          3    1    1    2  501    0  0.20694224355E+02 -0.59929169890E+02  0.68161087852E+02  0.93089689131E+02  0.00000000000E+00 0.  1.
         -3    1    1    2    0  503  0.19411418077E+03  0.17528015417E+02 -0.21324608850E+04  0.21413493345E+04  0.00000000000E+00 0. -1.
<mgrwt>
<rscale>  4 0.23283356E+03</rscale>
<asrwt>0</asrwt>
<pdfrwt beam="1">  1       21 0.19612504E-01 0.23283356E+03</pdfrwt>
<pdfrwt beam="2">  1       21 0.38831737E+00 0.23283356E+03</pdfrwt>
<totfact> 0.23129745E+02</totfact>
</mgrwt>
</event>
<event>
 5    0  0.1972558E-002  0.2475843E+03  0.7546771E-02  0.1114841E+00
         21   -1    0    0  501  502  0.00000000000E+00  0.00000000000E+00  0.41665391102E+03  0.41665391102E+03  0.00000000000E+00 0. -1.
         21   -1    0    0  502  503 -0.00000000000E+00 -0.00000000000E+00 -0.31143689047E+03  0.31143689047E+03  0.00000000000E+00 0. -1.
         25    1    1    2    0    0  0.23519984573E+03  0.47971769112E+02 -0.17410266976E+03  0.32180273100E+03  0.12500000000E+03 0.  0.
          4    1    1    2  501    0 -0.65804124762E+02 -0.37508866012E+02  0.20949508395E+03  0.22276734066E+03  0.00000000000E+00 0.  1.
         -4    1    1    2    0  503 -0.16939572097E+03 -0.10462903100E+02  0.69824606361E+02  0.18352072983E+03  0.00000000000E+00 0. -1.
<mgrwt>
<rscale>  4 0.24758429E+03</rscale>
<asrwt>0</asrwt>
<pdfrwt beam="1">  1       21 0.64100602E-01 0.24758429E+03</pdfrwt>
<pdfrwt beam="2">  1       21 0.47913368E-01 0.24758429E+03</pdfrwt>
<totfact> 0.90310669E+03</totfact>
</mgrwt>
</event>
<event>
 5    0  0.1972558E-002  0.3643724E+03  0.7546771E-02  0.1056866E+00
         21   -1    0    0  501  502  0.00000000000E+00  0.00000000000E+00  0.11886301535E+04  0.11886301535E+04  0.00000000000E+00 0.  1.
         21   -1    0    0  502  503 -0.00000000000E+00 -0.00000000000E+00 -0.20357953072E+03  0.20357953072E+03  0.00000000000E+00 0.  1.
         25    1    1    2    0    0  0.29511368330E+03 -0.16794678717E+03  0.13071677937E+03  0.38472078940E+03  0.12500000000E+03 0.  0.
          2    1    1    2  501    0 -0.80375330952E+01 -0.27092743795E+02  0.53537646453E+03  0.53612179351E+03  0.00000000000E+00 0. -1.
         -2    1    1    2    0  503 -0.28707615021E+03  0.19503953096E+03  0.31895737890E+03  0.47136710132E+03  0.00000000000E+00 0.  1.
<mgrwt>
<rscale>  4 0.36437242E+03</rscale>
<asrwt>0</asrwt>
<pdfrwt beam="1">  1       21 0.18286617E+00 0.36437242E+03</pdfrwt>
<pdfrwt beam="2">  1       21 0.31319929E-01 0.36437242E+03</pdfrwt>
<totfact> 0.14997679E+03</totfact>
</mgrwt>
</event>
<event>
 5    0  0.1972558E-002  0.3240712E+03  0.7546771E-02  0.1073791E+00
         21   -1    0    0  501  502  0.00000000000E+00  0.00000000000E+00  0.18880715687E+03  0.18880715687E+03  0.00000000000E+00 0. -1.
         21   -1    0    0  502  503 -0.00000000000E+00 -0.00000000000E+00 -0.73283571932E+03  0.73283571932E+03  0.00000000000E+00 0.  1.
         25    1    1    2    0    0  0.29634583174E+03 -0.39702428189E+02 -0.52079896750E+03  0.61339522280E+03  0.12500000000E+03 0.  0.
          2    1    1    2  501    0 -0.87486792969E+02 -0.15532120635E+02  0.10929597272E+02  0.89524531901E+02  0.00000000000E+00 0.  1.
         -2    1    1    2    0  503 -0.20885903877E+03  0.55234548824E+02 -0.34159192214E+02  0.21872312149E+03  0.00000000000E+00 0. -1.
<mgrwt>
<rscale>  4 0.32407119E+03</rscale>
<asrwt>0</asrwt>
<pdfrwt beam="1">  1       21 0.29047255E-01 0.32407119E+03</pdfrwt>
<pdfrwt beam="2">  1       21 0.11274396E+00 0.32407119E+03</pdfrwt>
<totfact> 0.64524724E+03</totfact>
</mgrwt>
</event>
<event>
 5    0  0.1972558E-002  0.3790115E+03  0.7546771E-02  0.1051300E+00
         21   -1    0    0  501  502  0.00000000000E+00  0.00000000000E+00  0.74883046299E+03  0.74883046299E+03  0.00000000000E+00 0.  1.
         21   -1    0    0  502  503 -0.00000000000E+00 -0.00000000000E+00 -0.55424031201E+03  0.55424031201E+03  0.00000000000E+00 0. -1.
         25    1    1    2    0    0 -0.34573366177E+03  0.65866894385E+02 -0.40069109740E+03  0.54776689220E+03  0.12500000000E+03 0.  0.
          3    1    1    2  501    0 -0.46763666427E+02  0.80252368714E+01  0.14915301550E+03  0.15651794452E+03  0.00000000000E+00 0. -1.
         -3    1    1    2    0  503  0.39249732820E+03 -0.73892131256E+02  0.44612823288E+03  0.59878593828E+03  0.00000000000E+00 0.  1.
<mgrwt>
<rscale>  4 0.37901149E+03</rscale>
<asrwt>0</asrwt>
<pdfrwt beam="1">  1       21 0.11520469E+00 0.37901149E+03</pdfrwt>
<pdfrwt beam="2">  1       21 0.85267741E-01 0.37901149E+03</pdfrwt>
<totfact> 0.60341444E+02</totfact>
</mgrwt>
</event>
<event>
 5    0  0.1972558E-002  0.2324108E+03  0.7546771E-02  0.1124954E+00
         21   -1    0    0  501  502  0.00000000000E+00  0.00000000000E+00  0.17337107224E+03  0.17337107224E+03  0.00000000000E+00 0. -1.
         21   -1    0    0  502  503 -0.00000000000E+00 -0.00000000000E+00 -0.78440790380E+03  0.78440790380E+03  0.00000000000E+00 0.  1.
         25    1    1    2    0    0  0.48136617965E+02 -0.21220776725E+03 -0.45889659611E+03  0.52302997657E+03  0.12500000000E+03 0.  0.
          4    1    1    2  501    0 -0.12963306164E+03  0.13630058794E+03 -0.23128530306E+03  0.29811989594E+03  0.00000000000E+00 0.  1.
         -4    1    1    2    0  503  0.81496443675E+02  0.75907179314E+02  0.79145067609E+02  0.13662910352E+03  0.00000000000E+00 0. -1.
<mgrwt>
<rscale>  4 0.23241075E+03</rscale>
<asrwt>0</asrwt>
<pdfrwt beam="1">  1       21 0.26672473E-01 0.23241075E+03</pdfrwt>
<pdfrwt beam="2">  1       21 0.12067814E+00 0.23241075E+03</pdfrwt>
<totfact> 0.67697563E+03</totfact>
</mgrwt>
</event>
<event>
 5    0  0.1972558E-002  0.3608709E+03  0.7546771E-02  0.1058240E+00
         21   -1    0    0  501  502  0.00000000000E+00  0.00000000000E+00  0.17910250354E+03  0.17910250354E+03  0.00000000000E+00 0.  1.
         21   -1    0    0  502  503 -0.00000000000E+00 -0.00000000000E+00 -0.19017357421E+04  0.19017357421E+04  0.00000000000E+00 0. -1.
         25    1    1    2    0    0  0.10399762818E+03 -0.31816780624E+03 -0.15907855947E+04  0.16304202121E+04  0.12500000000E+03 0.  0.
          1    1    1    2  501    0  0.49733736819E+01 -0.25093839047E+02  0.43030990665E+02  0.50060976434E+02  0.00000000000E+00 0. -1.
         -1    1    1    2    0  503 -0.10897100186E+03  0.34326164528E+03 -0.17487863446E+03  0.40035705709E+03  0.00000000000E+00 0.  1.
<mgrwt>
<rscale>  4 0.36087086E+03</rscale>
<asrwt>0</asrwt>
<pdfrwt beam="1">  1       21 0.27554232E-01 0.36087086E+03</pdfrwt>
<pdfrwt beam="2">  1       21 0.29257473E+00 0.36087086E+03</pdfrwt>
<totfact> 0.39869539E+02</totfact>
</mgrwt>
</event>
<event>
 5    0  0.1972558E-002  0.3547383E+03  0.7546771E-02  0.1060687E+00
         21   -1    0    0  501  502  0.00000000000E+00  0.00000000000E+00  0.36600345894E+03  0.36600345894E+03  0.00000000000E+00 0. -1.
         21   -1    0    0  502  503 -0.00000000000E+00 -0.00000000000E+00 -0.13073822556E+04  0.13073822556E+04  0.00000000000E+00 0.  1.
         25    1    1    2    0    0  0.29386760931E+03  0.15445426730E+03 -0.11973746809E+04  0.12488176083E+04  0.12500000000E+03 0.  0.
          2    1    1    2  501    0 -0.22481630998E+03 -0.13213596555E+03  0.16669302638E+03  0.30949774097E+03  0.00000000000E+00 0. -1.
         -2    1    1    2    0  503 -0.69051299329E+02 -0.22318301757E+02  0.89302857841E+02  0.11507036522E+03  0.00000000000E+00 0.  1.
<mgrwt>
<rscale>  4 0.35473834E+03</rscale>
<asrwt>0</asrwt>
<pdfrwt beam="1">  1       21 0.56308225E-01 0.35473834E+03</pdfrwt>
<pdfrwt beam="2">  1       21 0.20113573E+00 0.35473834E+03</pdfrwt>
<totfact> 0.33795643E+02</totfact>
</mgrwt>
</event>
<event>
 5    0  0.1972558E-002  0.2385435E+03  0.7546771E-02  0.1120767E+00
         21   -1    0    0  501  502  0.00000000000E+00  0.00000000000E+00  0.15574260245E+04  0.15574260245E+04  0.00000000000E+00 0. -1.
         21   -1    0    0  502  503 -0.00000000000E+00 -0.00000000000E+00 -0.44898504761E+02  0.44898504761E+02  0.00000000000E+00 0. -1.
         25    1    1    2    0    0 -0.17334606540E+03  0.11482547221E+03  0.40284178595E+03  0.47025551774E+03  0.12500000000E+03 0.  0.
          3    1    1    2  501    0  0.17179957995E+03 -0.87452887054E+02  0.10275923845E+04  0.10455186329E+04  0.00000000000E+00 0. -1.
         -3    1    1    2    0  503  0.15464854515E+01 -0.27372585161E+02  0.82093349294E+02  0.86550378589E+02  0.00000000000E+00 0.  1.
<mgrwt>
<rscale>  4 0.23854349E+03</rscale>
<asrwt>0</asrwt>
<pdfrwt beam="1">  1       21 0.23960396E+00 0.23854349E+03</pdfrwt>
<pdfrwt beam="2">  1       21 0.69074634E-02 0.23854349E+03</pdfrwt>
<totfact> 0.11408020E+04</totfact>
</mgrwt>
</event>
<event>
 5    0  0.1972558E-002  0.2637284E+03  0.7546771E-02  0.1104924E+00
         21   -1    0    0  503  502  0.00000000000E+00  0.00000000000E+00  0.98594023720E+03  0.98594023720E+03  0.00000000000E+00 0. -1.
         21   -1    0    0  501  503 -0.00000000000E+00 -0.00000000000E+00 -0.31488547610E+03  0.31488547610E+03  0.00000000000E+00 0.  1.
         25    1    1    2    0    0 -0.19480079157E+03  0.14281858378E+03 -0.22798220482E+03  0.35488784423E+03  0.12500000000E+03 0.  0.
          1    1    1    2  501    0  0.10494756089E+03 -0.14550943321E+03  0.39347327053E+03  0.43244444766E+03  0.00000000000E+00 0.  1.
         -1    1    1    2    0  502  0.89853230677E+02  0.26908494297E+01  0.50556369539E+03  0.51349342141E+03  0.00000000000E+00 0. -1.
<mgrwt>
<rscale>  4 0.26372840E+03</rscale>
<asrwt>0</asrwt>
<pdfrwt beam="1">  1       21 0.15168311E+00 0.26372840E+03</pdfrwt>
<pdfrwt beam="2">  1       21 0.48443920E-01 0.26372840E+03</pdfrwt>
<totfact> 0.11082544E+03</totfact>
</mgrwt>
</event>
<event>
 5    0  0.1972558E-002  0.2387726E+03  0.7546771E-02  0.1123000E+00
         21   -1    0    0  501  502  0.00000000000E+00  0.00000000000E+00  0.10307269458E+03  0.10307269458E+03  0.00000000000E+00 0.  1.
         21   -1    0    0  502  503 -0.00000000000E+00 -0.00000000000E+00 -0.17116247556E+04  0.17116247556E+04  0.00000000000E+00 0. -1.
         25    1    1    2    0    0 -0.17764900506E+03 -0.11542502953E+03 -0.36179549354E+03  0.43749638351E+03  0.12500000000E+03 0.  0.
          4    1    1    2  501    0 -0.25783181482E+02  0.25445758778E+03 -0.27866150818E+03  0.37824023129E+03  0.00000000000E+00 0.  1.
         -4    1    1    2    0  503  0.20343218654E+03 -0.13903255825E+03 -0.96809505929E+03  0.99896083536E+03  0.00000000000E+00 0. -1.
<mgrwt>
<rscale>  4 0.23524752E+03</rscale>
<asrwt>0</asrwt>
<pdfrwt beam="1">  1       21 0.15857340E-01 0.23877257E+03</pdfrwt>
<pdfrwt beam="2">  1       21 0.26332685E+00 0.23877257E+03</pdfrwt>
<totfact> 0.18740880E+03</totfact>
</mgrwt>
</event>
<event>
 5    0  0.1972558E-002  0.2560265E+03  0.7546771E-02  0.1109554E+00
         21   -1    0    0  503  502  0.00000000000E+00  0.00000000000E+00  0.25615185962E+03  0.25615185962E+03  0.00000000000E+00 0.  1.
         21   -1    0    0  501  503 -0.00000000000E+00 -0.00000000000E+00 -0.57057258126E+03  0.57057258126E+03  0.00000000000E+00 0.  1.
         25    1    1    2    0    0  0.10797698729E+03  0.20042920094E+03 -0.28254806825E+03  0.38378288816E+03  0.12500000000E+03 0.  0.
          1    1    1    2  501    0 -0.12389873347E+03 -0.18153894759E+03 -0.18533694722E+03  0.28750142548E+03  0.00000000000E+00 0. -1.
         -1    1    1    2    0  502  0.15921746185E+02 -0.18890253348E+02  0.15346429383E+03  0.15544012723E+03  0.00000000000E+00 0.  1.
<mgrwt>
<rscale>  4 0.25602648E+03</rscale>
<asrwt>0</asrwt>
<pdfrwt beam="1">  1       21 0.39407978E-01 0.25602648E+03</pdfrwt>
<pdfrwt beam="2">  1       21 0.87780397E-01 0.25602648E+03</pdfrwt>
<totfact> 0.66226038E+03</totfact>
</mgrwt>
</event>
<event>
 5    0  0.1972558E-002  0.2373982E+03  0.7546771E-02  0.1121538E+00
         21   -1    0    0  501  502  0.00000000000E+00  0.00000000000E+00  0.98965510045E+02  0.98965510045E+02  0.00000000000E+00 0.  1.
         21   -1    0    0  502  503 -0.00000000000E+00 -0.00000000000E+00 -0.20768247259E+04  0.20768247259E+04  0.00000000000E+00 0. -1.
         25    1    1    2    0    0 -0.16649525811E+03  0.12401893603E+03 -0.19050136984E+04  0.19203654753E+04  0.12500000000E+03 0.  0.
          4    1    1    2  501    0  0.13412435145E+03 -0.10072818062E+03 -0.11026942990E+03  0.20073578453E+03  0.00000000000E+00 0.  1.
         -4    1    1    2    0  503  0.32370906657E+02 -0.23290755412E+02  0.37423912471E+02  0.54688976130E+02  0.00000000000E+00 0. -1.
<mgrwt>
<rscale>  4 0.23739822E+03</rscale>
<asrwt>0</asrwt>
<pdfrwt beam="1">  1       21 0.15225463E-01 0.23739822E+03</pdfrwt>
<pdfrwt beam="2">  1       21 0.31951150E+00 0.23739822E+03</pdfrwt>
<totfact> 0.95004441E+02</totfact>
</mgrwt>
</event>
<event>
 5    0  0.1972558E-002  0.2443747E+03  0.7546771E-02  0.1116912E+00
         21   -1    0    0  501  502  0.00000000000E+00  0.00000000000E+00  0.11056152413E+04  0.11056152413E+04  0.00000000000E+00 0.  1.
         21   -1    0    0  502  503 -0.00000000000E+00 -0.00000000000E+00 -0.76855914843E+02  0.76855914843E+02  0.00000000000E+00 0. -1.
         25    1    1    2    0    0  0.65040920657E+02 -0.19965893036E+03  0.17500377413E+03  0.30057500028E+03  0.12500000000E+03 0.  0.
          2    1    1    2  501    0 -0.10025369080E+02  0.13389006936E+03  0.56090400556E+03  0.57674982631E+03  0.00000000000E+00 0.  1.
         -2    1    1    2    0  503 -0.55015551578E+02  0.65768861005E+02  0.29285154674E+03  0.30514632953E+03  0.00000000000E+00 0. -1.
<mgrwt>
<rscale>  4 0.24437473E+03</rscale>
<asrwt>0</asrwt>
<pdfrwt beam="1">  1       21 0.17009464E+00 0.24437473E+03</pdfrwt>
<pdfrwt beam="2">  1       21 0.11823988E-01 0.24437473E+03</pdfrwt>
<totfact> 0.12382831E+04</totfact>
</mgrwt>
</event>
<event>
 5    0  0.1972558E-002  0.2795667E+03  0.7546771E-02  0.1095926E+00
         21   -1    0    0  503  502  0.00000000000E+00  0.00000000000E+00  0.17835685112E+03  0.17835685112E+03  0.00000000000E+00 0. -1.
         21   -1    0    0  501  503 -0.00000000000E+00 -0.00000000000E+00 -0.16827626893E+04  0.16827626893E+04  0.00000000000E+00 0. -1.
         25    1    1    2    0    0 -0.88071497103E+02 -0.23390605647E+03 -0.15559248970E+04  0.15808212793E+04  0.12500000000E+03 0.  0.
          3    1    1    2  501    0  0.20486979304E+02 -0.94644832919E+01  0.26013070979E+00  0.22569014887E+02  0.00000000000E+00 0.  1.
         -3    1    1    2    0  502  0.67584517799E+02  0.24337053976E+03  0.51258928124E+02  0.25772924627E+03  0.00000000000E+00 0. -1.
<mgrwt>
<rscale>  4 0.27956668E+03</rscale>
<asrwt>0</asrwt>
<pdfrwt beam="1">  1       21 0.27439515E-01 0.27956668E+03</pdfrwt>
<pdfrwt beam="2">  1       21 0.25888658E+00 0.27956668E+03</pdfrwt>
<totfact> 0.68032582E+02</totfact>
</mgrwt>
</event>
<event>
 5    0  0.1972558E-002  0.2427696E+03  0.7546771E-02  0.1117961E+00
         21   -1    0    0  503  502  0.00000000000E+00  0.00000000000E+00  0.64736626841E+02  0.64736626841E+02  0.00000000000E+00 0.  1.
         21   -1    0    0  501  503 -0.00000000000E+00 -0.00000000000E+00 -0.16103451786E+04  0.16103451786E+04  0.00000000000E+00 0.  1.
         25    1    1    2    0    0  0.21807181578E+03 -0.13713808506E+02 -0.85847276859E+03  0.89461940500E+03  0.12500000000E+03 0.  0.
          3    1    1    2  501    0 -0.32563825945E+02  0.12031326800E+03 -0.42057794438E+03  0.43865874266E+03  0.00000000000E+00 0. -1.
         -3    1    1    2    0  502 -0.18550798984E+03 -0.10659945949E+03 -0.26655783881E+03  0.34180365780E+03  0.00000000000E+00 0.  1.
<mgrwt>
<rscale>  4 0.24276962E+03</rscale>
<asrwt>0</asrwt>
<pdfrwt beam="1">  1       21 0.99594818E-02 0.24276962E+03</pdfrwt>
<pdfrwt beam="2">  1       21 0.24774539E+00 0.24276962E+03</pdfrwt>
<totfact> 0.53490459E+03</totfact>
</mgrwt>
</event>
<event>
 5    0  0.1972558E-002  0.3049377E+03  0.7546771E-02  0.1082798E+00
         21   -1    0    0  501  502  0.00000000000E+00  0.00000000000E+00  0.11797982485E+04  0.11797982485E+04  0.00000000000E+00 0. -1.
         21   -1    0    0  502  503 -0.00000000000E+00 -0.00000000000E+00 -0.18692675027E+03  0.18692675027E+03  0.00000000000E+00 0. -1.
         25    1    1    2    0    0  0.75136185579E+02  0.29446926520E+03  0.71552114203E+02  0.33630685330E+03  0.12500000000E+03 0.  0.
          4    1    1    2  501    0  0.63307614751E+01 -0.24657166726E+03  0.24543838337E+03  0.34796216126E+03  0.00000000000E+00 0. -1.
         -4    1    1    2    0  503 -0.81466947054E+02 -0.47897597941E+02  0.67588100064E+03  0.68245598421E+03  0.00000000000E+00 0.  1.
<mgrwt>
<rscale>  4 0.30493768E+03</rscale>
<asrwt>0</asrwt>
<pdfrwt beam="1">  1       21 0.18150742E+00 0.30493768E+03</pdfrwt>
<pdfrwt beam="2">  1       21 0.28757962E-01 0.30493768E+03</pdfrwt>
<totfact> 0.18781959E+03</totfact>
</mgrwt>
</event>
<event>
 5    0  0.1972558E-002  0.3065776E+03  0.7546771E-02  0.1081998E+00
         21   -1    0    0  501  502  0.00000000000E+00  0.00000000000E+00  0.86542078507E+03  0.86542078507E+03  0.00000000000E+00 0.  1.
         21   -1    0    0  502  503 -0.00000000000E+00 -0.00000000000E+00 -0.17546402928E+03  0.17546402928E+03  0.00000000000E+00 0. -1.
         25    1    1    2    0    0 -0.30402996996E+02 -0.27883428104E+03  0.21067072078E+03  0.37239770556E+03  0.12500000000E+03 0.  0.
          1    1    1    2  501    0  0.76077121057E+02  0.27066556259E+03  0.11912483949E+03  0.30534947602E+03  0.00000000000E+00 0. -1.
         -1    1    1    2    0  503 -0.45674124060E+02  0.81687184531E+01  0.36016119553E+03  0.36313763277E+03  0.00000000000E+00 0.  1.
<mgrwt>
<rscale>  4 0.30657764E+03</rscale>
<asrwt>0</asrwt>
<pdfrwt beam="1">  1       21 0.13314166E+00 0.30657764E+03</pdfrwt>
<pdfrwt beam="2">  1       21 0.26994466E-01 0.30657764E+03</pdfrwt>
<totfact> 0.49353512E+03</totfact>
</mgrwt>
</event>
<event>
 5    0  0.1972558E-002  0.2440025E+03  0.7546771E-02  0.1117155E+00
         21   -1    0    0  503  502  0.00000000000E+00  0.00000000000E+00  0.86580211584E+03  0.86580211584E+03  0.00000000000E+00 0.  1.
         21   -1    0    0  501  503 -0.00000000000E+00 -0.00000000000E+00 -0.69416639350E+03  0.69416639350E+03  0.00000000000E+00 0.  1.
         25    1    1    2    0    0 -0.19428838332E+03  0.13217479659E+03 -0.62312676112E+03  0.67759140577E+03  0.12500000000E+03 0.  0.
          4    1    1    2  501    0  0.88409164878E+02 -0.84363605866E+02  0.55801476477E+02  0.13433987943E+03  0.00000000000E+00 0. -1.
         -4    1    1    2    0  502  0.10587921844E+03 -0.47811190720E+02  0.73896100698E+03  0.74803722414E+03  0.00000000000E+00 0.  1.
<mgrwt>
<rscale>  4 0.24400254E+03</rscale>
<asrwt>0</asrwt>
<pdfrwt beam="1">  1       21 0.13320032E+00 0.24400254E+03</pdfrwt>
<pdfrwt beam="2">  1       21 0.10679483E+00 0.24400254E+03</pdfrwt>
<totfact> 0.26950532E+02</totfact>
</mgrwt>
</event>
<event>
 5    0  0.1972558E-002  0.2108396E+03  0.7546771E-02  0.1140903E+00
         21   -1    0    0  503  502  0.00000000000E+00  0.00000000000E+00  0.55231619319E+02  0.55231619319E+02  0.00000000000E+00 0. -1.
         21   -1    0    0  501  503 -0.00000000000E+00 -0.00000000000E+00 -0.21756610427E+04  0.21756610427E+04  0.00000000000E+00 0. -1.
         25    1    1    2    0    0 -0.16968034359E+03  0.11269091320E+03 -0.97905229191E+03  0.10077991125E+04  0.12500000000E+03 0.  0.
          1    1    1    2  501    0  0.38154922052E+02 -0.26429221946E+02  0.20412599705E+02  0.50704793425E+02  0.00000000000E+00 0.  1.
         -1    1    1    2    0  502  0.13152542153E+03 -0.86261691250E+02 -0.11617897312E+04  0.11723887561E+04  0.00000000000E+00 0. -1.
<mgrwt>
<rscale>  4 0.21083957E+03</rscale>
<asrwt>0</asrwt>
<pdfrwt beam="1">  1       21 0.84971724E-02 0.21083957E+03</pdfrwt>
<pdfrwt beam="2">  1       21 0.33471707E+00 0.21083957E+03</pdfrwt>
<totfact> 0.22688742E+03</totfact>
</mgrwt>
</event>
<event>
 5    0  0.1972558E-002  0.2303386E+03  0.7546771E-02  0.1126402E+00
         21   -1    0    0  501  502  0.00000000000E+00  0.00000000000E+00  0.13023418799E+03  0.13023418799E+03  0.00000000000E+00 0. -1.
         21   -1    0    0  502  503 -0.00000000000E+00 -0.00000000000E+00 -0.12024677938E+04  0.12024677938E+04  0.00000000000E+00 0. -1.
         25    1    1    2    0    0 -0.60973384619E+02 -0.19119301853E+03 -0.98153813803E+03  0.10096111332E+04  0.12500000000E+03 0.  0.
          4    1    1    2  501    0  0.30162198631E+02  0.18729200374E+02  0.74353619621E+02  0.82395399894E+02  0.00000000000E+00 0. -1.
         -4    1    1    2    0  503  0.30811185989E+02  0.17246381815E+03 -0.16504908741E+03  0.24069544866E+03  0.00000000000E+00 0.  1.
<mgrwt>
<rscale>  4 0.23033864E+03</rscale>
<asrwt>0</asrwt>
<pdfrwt beam="1">  1       21 0.20036028E-01 0.23033864E+03</pdfrwt>
<pdfrwt beam="2">  1       21 0.18499505E+00 0.23033864E+03</pdfrwt>
<totfact> 0.37476753E+03</totfact>
</mgrwt>
</event>
<event>
 5    0  0.1972558E-002  0.2433218E+03  0.7546771E-02  0.1117600E+00
         21   -1    0    0  503  502  0.00000000000E+00  0.00000000000E+00  0.39454835204E+03  0.39454835204E+03  0.00000000000E+00 0. -1.
         21   -1    0    0  501  503 -0.00000000000E+00 -0.00000000000E+00 -0.13997333289E+04  0.13997333289E+04  0.00000000000E+00 0. -1.
         25    1    1    2    0    0  0.19380490312E+03 -0.77589545481E+02 -0.13582365188E+04  0.13798593838E+04  0.12500000000E+03 0.  0.
          3    1    1    2  501    0 -0.18638032765E+02 -0.82727914805E+01  0.50153634349E+02  0.54140579814E+02  0.00000000000E+00 0.  1.
         -3    1    1    2    0  502 -0.17516687035E+03  0.85862336961E+02  0.30289790762E+03  0.36028171730E+03  0.00000000000E+00 0. -1.
<mgrwt>
<rscale>  4 0.24332176E+03</rscale>
<asrwt>0</asrwt>
<pdfrwt beam="1">  1       21 0.60699747E-01 0.24332176E+03</pdfrwt>
<pdfrwt beam="2">  1       21 0.21534359E+00 0.24332176E+03</pdfrwt>
<totfact> 0.25564008E+02</totfact>
</mgrwt>
</event>
<event>
 5    0  0.1972558E-002  0.2544971E+03  0.7546771E-02  0.1110495E+00
         21   -1    0    0  501  502  0.00000000000E+00  0.00000000000E+00  0.15144966048E+04  0.15144966048E+04  0.00000000000E+00 0. -1.
         21   -1    0    0  502  503 -0.00000000000E+00 -0.00000000000E+00 -0.22438938230E+03  0.22438938230E+03  0.00000000000E+00 0. -1.
         25    1    1    2    0    0 -0.21085701133E+03  0.48559956920E+02 -0.99091313524E+02  0.26881747908E+03  0.12500000000E+03 0.  0.
          3    1    1    2  501    0 -0.41320090849E+02 -0.49116319307E+02  0.10254405818E+04  0.10274473950E+04  0.00000000000E+00 0. -1.
         -3    1    1    2    0  503  0.25217710218E+03  0.55636238690E+00  0.36375795420E+03  0.44262111297E+03  0.00000000000E+00 0.  1.
<mgrwt>
<rscale>  4 0.25449713E+03</rscale>
<asrwt>0</asrwt>
<pdfrwt beam="1">  1       21 0.23299947E+00 0.25449713E+03</pdfrwt>
<pdfrwt beam="2">  1       21 0.34521444E-01 0.25449713E+03</pdfrwt>
<totfact> 0.63398071E+02</totfact>
</mgrwt>
</event>
<event>
 5    0  0.1972558E-002  0.4043605E+03  0.7546771E-02  0.1042280E+00
         21   -1    0    0  501  502  0.00000000000E+00  0.00000000000E+00  0.14937891682E+04  0.14937891682E+04  0.00000000000E+00 0.  1.
         21   -1    0    0  502  503 -0.00000000000E+00 -0.00000000000E+00 -0.48377441276E+03  0.48377441276E+03  0.00000000000E+00 0. -1.
         25    1    1    2    0    0  0.14576856369E+03 -0.35585668389E+03 -0.36616398343E+03  0.54551215971E+03  0.12500000000E+03 0.  0.
          2    1    1    2  501    0 -0.15702426442E+03  0.29907058139E+03  0.11974463483E+04  0.12441774750E+04  0.00000000000E+00 0.  1.
         -2    1    1    2    0  503  0.11255700729E+02  0.56786102501E+02  0.17873239058E+03  0.18787394625E+03  0.00000000000E+00 0. -1.
<mgrwt>
<rscale>  4 0.40436055E+03</rscale>
<asrwt>0</asrwt>
<pdfrwt beam="1">  1       21 0.22981372E+00 0.40436055E+03</pdfrwt>
<pdfrwt beam="2">  1       21 0.74426833E-01 0.40436055E+03</pdfrwt>
<totfact> 0.11552389E+02</totfact>
</mgrwt>
</event>
<event>
 5    0  0.1972558E-002  0.2462093E+03  0.7546771E-02  0.1115724E+00
         21   -1    0    0  501  502  0.00000000000E+00  0.00000000000E+00  0.29999841771E+03  0.29999841771E+03  0.00000000000E+00 0.  1.
         21   -1    0    0  502  503 -0.00000000000E+00 -0.00000000000E+00 -0.66832644578E+03  0.66832644578E+03  0.00000000000E+00 0.  1.
         25    1    1    2    0    0  0.12737250319E+03  0.17092869732E+03 -0.59539968621E+03  0.64464421232E+03  0.12500000000E+03 0.  0.
          2    1    1    2  501    0 -0.24006582844E+02  0.42445653329E+01  0.42638628778E+02  0.49116036269E+02  0.00000000000E+00 0. -1.
         -2    1    1    2    0  503 -0.10336592035E+03 -0.17517326265E+03  0.18443302936E+03  0.27456461490E+03  0.00000000000E+00 0.  1.
<mgrwt>
<rscale>  4 0.24620926E+03</rscale>
<asrwt>0</asrwt>
<pdfrwt beam="1">  1       21 0.46153604E-01 0.24620926E+03</pdfrwt>
<pdfrwt beam="2">  1       21 0.10281945E+00 0.24620926E+03</pdfrwt>
<totfact> 0.33168265E+03</totfact>
</mgrwt>
</event>
<event>
 5    0  0.1972558E-002  0.2371067E+03  0.7546771E-02  0.1121735E+00
         21   -1    0    0  501  502  0.00000000000E+00  0.00000000000E+00  0.38796126028E+03  0.38796126028E+03  0.00000000000E+00 0. -1.
         21   -1    0    0  502  503 -0.00000000000E+00 -0.00000000000E+00 -0.68804222707E+03  0.68804222707E+03  0.00000000000E+00 0. -1.
         25    1    1    2    0    0  0.12619752492E+03 -0.17491416681E+03 -0.50556249840E+03  0.56368361768E+03  0.12500000000E+03 0.  0.
          2    1    1    2  501    0  0.44725024696E+02  0.95311189225E+02  0.28789743685E+03  0.30654442544E+03  0.00000000000E+00 0. -1.
         -2    1    1    2    0  503 -0.17092254962E+03  0.79602977590E+02 -0.82415905236E+02  0.20577544422E+03  0.00000000000E+00 0.  1.
<mgrwt>
<rscale>  4 0.23710673E+03</rscale>
<asrwt>0</asrwt>
<pdfrwt beam="1">  1       21 0.59686348E-01 0.23710673E+03</pdfrwt>
<pdfrwt beam="2">  1       21 0.10585265E+00 0.23710673E+03</pdfrwt>
<totfact> 0.18075298E+03</totfact>
</mgrwt>
</event>
<event>
 5    0  0.1972558E-002  0.2292322E+03  0.7546771E-02  0.1127181E+00
         21   -1    0    0  501  502  0.00000000000E+00  0.00000000000E+00  0.44904074624E+03  0.44904074624E+03  0.00000000000E+00 0.  1.
         21   -1    0    0  502  503 -0.00000000000E+00 -0.00000000000E+00 -0.52243530571E+03  0.52243530571E+03  0.00000000000E+00 0.  1.
         25    1    1    2    0    0 -0.20871453045E+02  0.21748372273E+03 -0.23877086009E+02  0.25284363239E+03  0.12500000000E+03 0.  0.
          4    1    1    2  501    0  0.53245844645E+01 -0.18690866850E+03 -0.36031732659E+03  0.40594553502E+03  0.00000000000E+00 0.  1.
         -4    1    1    2    0  503  0.15546868581E+02 -0.30575054234E+02  0.31079985313E+03  0.31268688455E+03  0.00000000000E+00 0. -1.
<mgrwt>
<rscale>  4 0.22923216E+03</rscale>
<asrwt>0</asrwt>
<pdfrwt beam="1">  1       21 0.69083192E-01 0.22923216E+03</pdfrwt>
<pdfrwt beam="2">  1       21 0.80374663E-01 0.22923216E+03</pdfrwt>
<totfact> 0.25189139E+03</totfact>
</mgrwt>
</event>
<event>
 5    0  0.1972558E-002  0.3842531E+03  0.7546771E-02  0.1049373E+00
         21   -1    0    0  501  502  0.00000000000E+00  0.00000000000E+00  0.30281116263E+03  0.30281116263E+03  0.00000000000E+00 0. -1.
         21   -1    0    0  502  503 -0.00000000000E+00 -0.00000000000E+00 -0.53534338605E+03  0.53534338605E+03  0.00000000000E+00 0. -1.
         25    1    1    2    0    0  0.30192052956E+03 -0.19878034873E+03 -0.11412555144E+03  0.39914818640E+03  0.12500000000E+03 0.  0.
          3    1    1    2  501    0 -0.32169034269E+03  0.17372866156E+03 -0.14899774048E+03  0.39479950746E+03  0.00000000000E+00 0. -1.
         -3    1    1    2    0  503  0.19769813123E+02  0.25051687173E+02  0.30591068505E+02  0.44206854824E+02  0.00000000000E+00 0.  1.
<mgrwt>
<rscale>  4 0.38425313E+03</rscale>
<asrwt>0</asrwt>
<pdfrwt beam="1">  1       21 0.46586334E-01 0.38425313E+03</pdfrwt>
<pdfrwt beam="2">  1       21 0.82360519E-01 0.38425313E+03</pdfrwt>
<totfact> 0.51161093E+03</totfact>
</mgrwt>
</event>
<event>
 5    0  0.1972558E-002  0.2295002E+03  0.7546771E-02  0.1126992E+00
         21   -1    0    0  501  502  0.00000000000E+00  0.00000000000E+00  0.24493289114E+03  0.24493289114E+03  0.00000000000E+00 0. -1.
         21   -1    0    0  502  503 -0.00000000000E+00 -0.00000000000E+00 -0.37447066489E+03  0.37447066489E+03  0.00000000000E+00 0. -1.
         25    1    1    2    0    0  0.17383972679E+03  0.10570646909E+03 -0.25210267151E+03  0.34723891660E+03  0.12500000000E+03 0.  0.
          2    1    1    2  501    0 -0.16437529624E+03 -0.31707142043E+02  0.95973642076E+02  0.19296507675E+03  0.00000000000E+00 0. -1.
         -2    1    1    2    0  503 -0.94644305542E+01 -0.73999327050E+02  0.26591255688E+02  0.79199562680E+02  0.00000000000E+00 0.  1.
<mgrwt>
<rscale>  4 0.22950020E+03</rscale>
<asrwt>0</asrwt>
<pdfrwt beam="1">  1       21 0.37681983E-01 0.22950020E+03</pdfrwt>
<pdfrwt beam="2">  1       21 0.57610872E-01 0.22950020E+03</pdfrwt>
<totfact> 0.18793392E+04</totfact>
</mgrwt>
</event>
<event>
 5    0  0.1972558E-002  0.3434466E+03  0.7546771E-02  0.1065337E+00
         21   -1    0    0  501  502  0.00000000000E+00  0.00000000000E+00  0.49392019928E+03  0.49392019928E+03  0.00000000000E+00 0. -1.
         21   -1    0    0  502  503 -0.00000000000E+00 -0.00000000000E+00 -0.56816249977E+03  0.56816249977E+03  0.00000000000E+00 0.  1.
         25    1    1    2    0    0 -0.32915927591E+03  0.59695337672E+02 -0.34402102244E+03  0.49586775065E+03  0.12500000000E+03 0.  0.
          3    1    1    2  501    0  0.27862087563E+03 -0.91331235905E+02  0.33821530370E+01  0.29322760093E+03  0.00000000000E+00 0.  1.
         -3    1    1    2    0  503  0.50538400280E+02  0.31635898233E+02  0.26639656890E+03  0.27298734747E+03  0.00000000000E+00 0. -1.
<mgrwt>
<rscale>  4 0.34344655E+03</rscale>
<asrwt>0</asrwt>
<pdfrwt beam="1">  1       21 0.75987723E-01 0.34344655E+03</pdfrwt>
<pdfrwt beam="2">  1       21 0.87409615E-01 0.34344655E+03</pdfrwt>
<totfact> 0.15617035E+03</totfact>
</mgrwt>
</event>
<event>
 5    0  0.1972558E-002  0.2999031E+03  0.7546771E-02  0.1085289E+00
         21   -1    0    0  501  502  0.00000000000E+00  0.00000000000E+00  0.20974216914E+03  0.20974216914E+03  0.00000000000E+00 0.  1.
         21   -1    0    0  502  503 -0.00000000000E+00 -0.00000000000E+00 -0.23370846047E+04  0.23370846047E+04  0.00000000000E+00 0. -1.
         25    1    1    2    0    0  0.21849267972E+03  0.15777674723E+03 -0.31492677069E+03  0.43293928437E+03  0.12500000000E+03 0.  0.
          4    1    1    2  501    0 -0.19094926386E+03 -0.19605625590E+03 -0.19496560057E+04  0.19687707376E+04  0.00000000000E+00 0. -1.
         -4    1    1    2    0  503 -0.27543415855E+02  0.38279508672E+02  0.13724034078E+03  0.14511675188E+03  0.00000000000E+00 0.  1.
<mgrwt>
<rscale>  4 0.29990308E+03</rscale>
<asrwt>0</asrwt>
<pdfrwt beam="1">  1       21 0.32268028E-01 0.29990308E+03</pdfrwt>
<pdfrwt beam="2">  1       21 0.35955146E+00 0.29990308E+03</pdfrwt>
<totfact> 0.12256940E+02</totfact>
</mgrwt>
</event>
<event>
 5    0  0.1972558E-002  0.2696401E+03  0.7546771E-02  0.1101486E+00
         21   -1    0    0  501  502  0.00000000000E+00  0.00000000000E+00  0.15909332046E+03  0.15909332046E+03  0.00000000000E+00 0. -1.
         21   -1    0    0  502  503 -0.00000000000E+00 -0.00000000000E+00 -0.69048660618E+03  0.69048660618E+03  0.00000000000E+00 0.  1.
         25    1    1    2    0    0  0.26611965134E+03 -0.65232720543E+02 -0.39750421073E+03  0.49870790470E+03  0.12500000000E+03 0.  0.
          1    1    1    2  501    0 -0.40027261581E+02  0.27974693606E+02 -0.11016740008E+03  0.12050568946E+03  0.00000000000E+00 0.  1.
         -1    1    1    2    0  503 -0.22609238976E+03  0.37258026936E+02 -0.23721674897E+02  0.23036633248E+03  0.00000000000E+00 0. -1.
<mgrwt>
<rscale>  4 0.26964006E+03</rscale>
<asrwt>0</asrwt>
<pdfrwt beam="1">  1       21 0.24475895E-01 0.26964006E+03</pdfrwt>
<pdfrwt beam="2">  1       21 0.10622871E+00 0.26964006E+03</pdfrwt>
<totfact> 0.10691504E+04</totfact>
</mgrwt>
</event>
<event>
 5    0  0.1972558E-002  0.4122116E+03  0.7546771E-02  0.1039631E+00
         21   -1    0    0  501  502  0.00000000000E+00  0.00000000000E+00  0.80661909757E+03  0.80661909757E+03  0.00000000000E+00 0. -1.
         21   -1    0    0  502  503 -0.00000000000E+00 -0.00000000000E+00 -0.24398751962E+03  0.24398751962E+03  0.00000000000E+00 0.  1.
         25    1    1    2    0    0  0.35439241319E+03 -0.22788814152E+03  0.27252844131E+03  0.51713029199E+03  0.12500000000E+03 0.  0.
          2    1    1    2  501    0 -0.32410269601E+03  0.18138443164E+03  0.18571098146E+03  0.41524864628E+03  0.00000000000E+00 0. -1.
         -2    1    1    2    0  503 -0.30289717177E+02  0.46503709878E+02  0.10439215518E+03  0.11822767892E+03  0.00000000000E+00 0.  1.
<mgrwt>
<rscale>  4 0.41221162E+03</rscale>
<asrwt>0</asrwt>
<pdfrwt beam="1">  1       21 0.12409524E+00 0.41221162E+03</pdfrwt>
<pdfrwt beam="2">  1       21 0.37536542E-01 0.41221162E+03</pdfrwt>
<totfact> 0.29220759E+03</totfact>
</mgrwt>
</event>
<event>
 5    0  0.1972558E-002  0.2264977E+03  0.7546771E-02  0.1129129E+00
         21   -1    0    0  503  502  0.00000000000E+00  0.00000000000E+00  0.13055829128E+03  0.13055829128E+03  0.00000000000E+00 0. -1.
         21   -1    0    0  501  503 -0.00000000000E+00 -0.00000000000E+00 -0.10670882284E+04  0.10670882284E+04  0.00000000000E+00 0.  1.
         25    1    1    2    0    0  0.42001484607E+02 -0.20492636176E+03 -0.89965378991E+03  0.93207343067E+03  0.12500000000E+03 0.  0.
          3    1    1    2  501    0 -0.41759785891E+02  0.13630518186E+03 -0.98552477210E+02  0.17330774098E+03  0.00000000000E+00 0.  1.
         -3    1    1    2    0  502 -0.24169871590E+00  0.68621179901E+02  0.61676330059E+02  0.92265347985E+02  0.00000000000E+00 0. -1.
<mgrwt>
<rscale>  4 0.22649766E+03</rscale>
<asrwt>0</asrwt>
<pdfrwt beam="1">  1       21 0.20085892E-01 0.22649766E+03</pdfrwt>
<pdfrwt beam="2">  1       21 0.16416741E+00 0.22649766E+03</pdfrwt>
<totfact> 0.52298126E+03</totfact>
</mgrwt>
</event>
<event>
 5    0  0.1972558E-002  0.2755976E+03  0.7546771E-02  0.1098118E+00
         21   -1    0    0  501  502  0.00000000000E+00  0.00000000000E+00  0.42025419543E+03  0.42025419543E+03  0.00000000000E+00 0.  1.
         21   -1    0    0  502  503 -0.00000000000E+00 -0.00000000000E+00 -0.26279265626E+03  0.26279265626E+03  0.00000000000E+00 0. -1.
         25    1    1    2    0    0  0.13035291456E+03  0.20817574321E+03 -0.12626934516E+03  0.30314677950E+03  0.12500000000E+03 0.  0.
          3    1    1    2  501    0 -0.12768711678E+02 -0.52571511094E+02  0.89939655705E+02  0.10495687422E+03  0.00000000000E+00 0. -1.
         -3    1    1    2    0  503 -0.11758420288E+03 -0.15560423212E+03  0.19379122863E+03  0.27494319798E+03  0.00000000000E+00 0.  1.
<mgrwt>
<rscale>  4 0.27559757E+03</rscale>
<asrwt>0</asrwt>
<pdfrwt beam="1">  1       21 0.64654492E-01 0.27559757E+03</pdfrwt>
<pdfrwt beam="2">  1       21 0.40429639E-01 0.27559757E+03</pdfrwt>
<totfact> 0.12398828E+04</totfact>
</mgrwt>
</event>
<event>
 5    0  0.1972558E-002  0.2994623E+03  0.7546771E-02  0.1085510E+00
         21   -1    0    0  501  502  0.00000000000E+00  0.00000000000E+00  0.28320227375E+03  0.28320227375E+03  0.00000000000E+00 0. -1.
         21   -1    0    0  502  503 -0.00000000000E+00 -0.00000000000E+00 -0.11967122535E+04  0.11967122535E+04  0.00000000000E+00 0.  1.
         25    1    1    2    0    0  0.24165015830E+03  0.12780228606E+03 -0.88045854870E+03  0.93035502864E+03  0.12500000000E+03 0.  0.
          3    1    1    2  501    0  0.39891849636E+02 -0.96713280291E+02  0.17099825340E+03  0.20046251749E+03  0.00000000000E+00 0. -1.
         -3    1    1    2    0  503 -0.28154200794E+03 -0.31089005772E+02 -0.20404968446E+03  0.34909698114E+03  0.00000000000E+00 0.  1.
<mgrwt>
<rscale>  4 0.29946235E+03</rscale>
<asrwt>0</asrwt>
<pdfrwt beam="1">  1       21 0.43569579E-01 0.29946235E+03</pdfrwt>
<pdfrwt beam="2">  1       21 0.18410958E+00 0.29946235E+03</pdfrwt>
<totfact> 0.78467872E+02</totfact>
</mgrwt>
</event>
<event>
 5    0  0.1972558E-002  0.2094029E+03  0.7546771E-02  0.1142040E+00
         21   -1    0    0  501  502  0.00000000000E+00  0.00000000000E+00  0.17445557785E+03  0.17445557785E+03  0.00000000000E+00 0. -1.
         21   -1    0    0  502  503 -0.00000000000E+00 -0.00000000000E+00 -0.89318098457E+03  0.89318098457E+03  0.00000000000E+00 0. -1.
         25    1    1    2    0    0 -0.17674309467E+03  0.16271759125E+03 -0.63470806709E+03  0.69006845055E+03  0.12500000000E+03 0.  0.
          2    1    1    2  501    0  0.11571493697E+03 -0.11450917556E+03  0.90676098940E+02  0.18634498342E+03  0.00000000000E+00 0.  1.
         -2    1    1    2    0  503  0.61028157698E+02 -0.48208415681E+02 -0.17469343857E+03  0.19122312845E+03  0.00000000000E+00 0. -1.
<mgrwt>
<rscale>  4 0.20940293E+03</rscale>
<asrwt>0</asrwt>
<pdfrwt beam="1">  1       21 0.26839320E-01 0.20940293E+03</pdfrwt>
<pdfrwt beam="2">  1       21 0.13741246E+00 0.20940293E+03</pdfrwt>
<totfact> 0.48963417E+03</totfact>
</mgrwt>
</event>
<event>
 5    0  0.1972558E-002  0.2471645E+03  0.7546771E-02  0.1115110E+00
         21   -1    0    0  501  502  0.00000000000E+00  0.00000000000E+00  0.13009789539E+03  0.13009789539E+03  0.00000000000E+00 0.  1.
         21   -1    0    0  502  503 -0.00000000000E+00 -0.00000000000E+00 -0.75307694953E+03  0.75307694953E+03  0.00000000000E+00 0.  1.
         25    1    1    2    0    0  0.58234456837E+02  0.23596698662E+03 -0.21498914623E+03  0.34773122341E+03  0.12500000000E+03 0.  0.
          1    1    1    2  501    0 -0.97619613217E+02 -0.17978717330E+03 -0.41869554818E+03  0.46600319595E+03  0.00000000000E+00 0.  1.
         -1    1    1    2    0  503  0.39385156380E+02 -0.56179813322E+02  0.10705640268E+02  0.69440425557E+02  0.00000000000E+00 0. -1.
<mgrwt>
<rscale>  4 0.24716454E+03</rscale>
<asrwt>0</asrwt>
<pdfrwt beam="1">  1       21 0.20015061E-01 0.24716454E+03</pdfrwt>
<pdfrwt beam="2">  1       21 0.11585799E+00 0.24716454E+03</pdfrwt>
<totfact> 0.12825232E+04</totfact>
</mgrwt>
</event>
<event>
 5    0  0.1972558E-002  0.2197390E+03  0.7546771E-02  0.1134078E+00
         21   -1    0    0  503  502  0.00000000000E+00  0.00000000000E+00  0.17896639846E+03  0.17896639846E+03  0.00000000000E+00 0.  1.
         21   -1    0    0  501  503 -0.00000000000E+00 -0.00000000000E+00 -0.62811698746E+03  0.62811698746E+03  0.00000000000E+00 0. -1.
         25    1    1    2    0    0 -0.20337228562E+03 -0.62141226469E+02 -0.40169707126E+03  0.47138875214E+03  0.12500000000E+03 0.  0.
          3    1    1    2  501    0  0.31002337255E+02  0.23063374442E+02 -0.13359881484E+03  0.13907446740E+03  0.00000000000E+00 0. -1.
         -3    1    1    2    0  502  0.17236994836E+03  0.39077852026E+02  0.86145297104E+02  0.19662016639E+03  0.00000000000E+00 0.  1.
<mgrwt>
<rscale>  4 0.21973902E+03</rscale>
<asrwt>0</asrwt>
<pdfrwt beam="1">  1       21 0.27533292E-01 0.21973902E+03</pdfrwt>
<pdfrwt beam="2">  1       21 0.96633382E-01 0.21973902E+03</pdfrwt>
<totfact> 0.11000458E+04</totfact>
</mgrwt>
</event>
<event>
 5    0  0.1972558E-002  0.3968865E+03  0.7546771E-02  0.1044863E+00
         21   -1    0    0  501  502  0.00000000000E+00  0.00000000000E+00  0.12326883039E+04  0.12326883039E+04  0.00000000000E+00 0.  1.
         21   -1    0    0  502  503 -0.00000000000E+00 -0.00000000000E+00 -0.97757913873E+03  0.97757913873E+03  0.00000000000E+00 0.  1.
         25    1    1    2    0    0  0.36738505038E+03  0.80909898214E+02 -0.88428366818E+03  0.96907212976E+03  0.12500000000E+03 0.  0.
          4    1    1    2  501    0  0.15231206078E+02 -0.26565145455E+02  0.44865213217E+03  0.44969593315E+03  0.00000000000E+00 0.  1.
         -4    1    1    2    0  503 -0.38261625646E+03 -0.54344752759E+02  0.69074070122E+03  0.79149937977E+03  0.00000000000E+00 0. -1.
<mgrwt>
<rscale>  4 0.39688648E+03</rscale>
<asrwt>0</asrwt>
<pdfrwt beam="1">  1       21 0.18964435E+00 0.39688648E+03</pdfrwt>
<pdfrwt beam="2">  1       21 0.15039679E+00 0.39688648E+03</pdfrwt>
<totfact> 0.37463835E+01</totfact>
</mgrwt>
</event>
<event>
 5    0  0.1972558E-002  0.2531441E+03  0.7546771E-02  0.1111334E+00
         21   -1    0    0  501  502  0.00000000000E+00  0.00000000000E+00  0.30145829660E+03  0.30145829660E+03  0.00000000000E+00 0. -1.
         21   -1    0    0  502  503 -0.00000000000E+00 -0.00000000000E+00 -0.94224413638E+03  0.94224413638E+03  0.00000000000E+00 0. -1.
         25    1    1    2    0    0 -0.51172926938E+02 -0.22534575886E+03 -0.81633685194E+03  0.85757229160E+03  0.12500000000E+03 0.  0.
          3    1    1    2  501    0 -0.24590103908E+02  0.18155385687E+03 -0.73646949739E+01  0.18335952358E+03  0.00000000000E+00 0.  1.
         -3    1    1    2    0  503  0.75763030846E+02  0.43791901987E+02  0.18291570714E+03  0.20277061780E+03  0.00000000000E+00 0. -1.
<mgrwt>
<rscale>  4 0.25314409E+03</rscale>
<asrwt>0</asrwt>
<pdfrwt beam="1">  1       21 0.46378199E-01 0.25314409E+03</pdfrwt>
<pdfrwt beam="2">  1       21 0.14496064E+00 0.25314409E+03</pdfrwt>
<totfact> 0.13799022E+03</totfact>
</mgrwt>
</event>
<event>
 5    0  0.1972558E-002  0.2490880E+03  0.7546771E-02  0.1113883E+00
         21   -1    0    0  501  502  0.00000000000E+00  0.00000000000E+00  0.48140567778E+03  0.48140567778E+03  0.00000000000E+00 0. -1.
         21   -1    0    0  502  503 -0.00000000000E+00 -0.00000000000E+00 -0.14428605776E+04  0.14428605776E+04  0.00000000000E+00 0.  1.
         25    1    1    2    0    0  0.10581409411E+03 -0.18697895460E+03 -0.13812793695E+04  0.14034655139E+04  0.12500000000E+03 0.  0.
          1    1    1    2  501    0 -0.96163469440E+01 -0.23028124584E+02  0.20124069867E+03  0.20278211817E+03  0.00000000000E+00 0.  1.
         -1    1    1    2    0  503 -0.96197747163E+02  0.21000707919E+03  0.21858377099E+03  0.31801862337E+03  0.00000000000E+00 0. -1.
<mgrwt>
<rscale>  4 0.24908803E+03</rscale>
<asrwt>0</asrwt>
<pdfrwt beam="1">  1       21 0.74062414E-01 0.24908803E+03</pdfrwt>
<pdfrwt beam="2">  1       21 0.22197854E+00 0.24908803E+03</pdfrwt>
<totfact> 0.14902943E+02</totfact>
</mgrwt>
</event>
<event>
 5    0  0.1972558E-002  0.2569639E+03  0.7546771E-02  0.1108981E+00
         21   -1    0    0  501  502  0.00000000000E+00  0.00000000000E+00  0.73305904507E+03  0.73305904507E+03  0.00000000000E+00 0. -1.
         21   -1    0    0  502  503 -0.00000000000E+00 -0.00000000000E+00 -0.20391368555E+03  0.20391368555E+03  0.00000000000E+00 0. -1.
         25    1    1    2    0    0 -0.20732687798E+03  0.92875235296E+02 -0.47233563457E+02  0.26356451427E+03  0.12500000000E+03 0.  0.
          2    1    1    2  501    0 -0.26308580783E+01 -0.28776604661E+02  0.37311036177E+03  0.37422767996E+03  0.00000000000E+00 0.  1.
         -2    1    1    2    0  503  0.20995773606E+03 -0.64098630635E+02  0.20326856121E+03  0.29918053639E+03  0.00000000000E+00 0. -1.
<mgrwt>
<rscale>  4 0.25696390E+03</rscale>
<asrwt>0</asrwt>
<pdfrwt beam="1">  1       21 0.11277831E+00 0.25696390E+03</pdfrwt>
<pdfrwt beam="2">  1       21 0.31371337E-01 0.25696390E+03</pdfrwt>
<totfact> 0.57404663E+03</totfact>
</mgrwt>
</event>
<event>
 5    0  0.1972558E-002  0.3758115E+03  0.7546771E-02  0.1052493E+00
         21   -1    0    0  501  502  0.00000000000E+00  0.00000000000E+00  0.13709804505E+04  0.13709804505E+04  0.00000000000E+00 0. -1.
         21   -1    0    0  502  503 -0.00000000000E+00 -0.00000000000E+00 -0.27188703428E+03  0.27188703428E+03  0.00000000000E+00 0. -1.
         25    1    1    2    0    0  0.52651923909E+02 -0.36112621338E+03 -0.26852126862E+02  0.38669161330E+03  0.12500000000E+03 0.  0.
          4    1    1    2  501    0 -0.71637613537E+02  0.32245466203E+03  0.35831833310E+03  0.48734072739E+03  0.00000000000E+00 0.  1.
         -4    1    1    2    0  503  0.18985689628E+02  0.38671551354E+02  0.76762720999E+03  0.76883514411E+03  0.00000000000E+00 0. -1.
<mgrwt>
<rscale>  4 0.37581147E+03</rscale>
<asrwt>0</asrwt>
<pdfrwt beam="1">  1       21 0.21092007E+00 0.37581147E+03</pdfrwt>
<pdfrwt beam="2">  1       21 0.41828775E-01 0.37581147E+03</pdfrwt>
<totfact> 0.53896927E+02</totfact>
</mgrwt>
</event>
<event>
 5    0  0.1972558E-002  0.2300339E+03  0.7546771E-02  0.1126616E+00
         21   -1    0    0  503  502  0.00000000000E+00  0.00000000000E+00  0.13130074561E+03  0.13130074561E+03  0.00000000000E+00 0.  1.
         21   -1    0    0  501  503 -0.00000000000E+00 -0.00000000000E+00 -0.55067440892E+03  0.55067440892E+03  0.00000000000E+00 0.  1.
         25    1    1    2    0    0 -0.20595553775E+03  0.80235031985E+02 -0.25086147288E+03  0.35694792682E+03  0.12500000000E+03 0.  0.
          3    1    1    2  501    0  0.67892430072E+02  0.42715407645E+02 -0.99236410063E+02  0.12760036518E+03  0.00000000000E+00 0. -1.
         -3    1    1    2    0  502  0.13806310767E+03 -0.12295043963E+03 -0.69275780371E+02  0.19742686254E+03  0.00000000000E+00 0.  1.
<mgrwt>
<rscale>  4 0.23003387E+03</rscale>
<asrwt>0</asrwt>
<pdfrwt beam="1">  1       21 0.20200115E-01 0.23003387E+03</pdfrwt>
<pdfrwt beam="2">  1       21 0.84719139E-01 0.23003387E+03</pdfrwt>
<totfact> 0.26801608E+04</totfact>
</mgrwt>
</event>
<event>
 5    0  0.1972558E-002  0.2392435E+03  0.7546771E-02  0.1120298E+00
         21   -1    0    0  501  502  0.00000000000E+00  0.00000000000E+00  0.87120801624E+03  0.87120801624E+03  0.00000000000E+00 0. -1.
         21   -1    0    0  502  503 -0.00000000000E+00 -0.00000000000E+00 -0.22732730685E+03  0.22732730685E+03  0.00000000000E+00 0. -1.
         25    1    1    2    0    0  0.20971136076E+03  0.49872639811E+01 -0.88120634320E+02  0.25960349348E+03  0.12500000000E+03 0.  0.
          1    1    1    2  501    0 -0.18164371797E+02  0.16386921989E+02  0.61072500274E+03  0.61121477779E+03  0.00000000000E+00 0.  1.
         -1    1    1    2    0  503 -0.19154698897E+03 -0.21374185971E+02  0.12127634098E+03  0.22771705182E+03  0.00000000000E+00 0. -1.
<mgrwt>
<rscale>  4 0.23924347E+03</rscale>
<asrwt>0</asrwt>
<pdfrwt beam="1">  1       21 0.13403200E+00 0.23924347E+03</pdfrwt>
<pdfrwt beam="2">  1       21 0.34973432E-01 0.23924347E+03</pdfrwt>
<totfact> 0.30358024E+03</totfact>
</mgrwt>
</event>
<event>
 5    0  0.1972558E-002  0.2551173E+03  0.7546771E-02  0.1110113E+00
         21   -1    0    0  501  502  0.00000000000E+00  0.00000000000E+00  0.65359103731E+03  0.65359103731E+03  0.00000000000E+00 0.  1.
         21   -1    0    0  502  503 -0.00000000000E+00 -0.00000000000E+00 -0.16190766157E+03  0.16190766157E+03  0.00000000000E+00 0. -1.
         25    1    1    2    0    0  0.11902346195E+02 -0.22207695732E+03 -0.19112384268E+02  0.25583221855E+03  0.12500000000E+03 0.  0.
          2    1    1    2  501    0 -0.65535526546E+01  0.20136282851E+03  0.49012811144E+03  0.52992028022E+03  0.00000000000E+00 0.  1.
         -2    1    1    2    0  503 -0.53487935404E+01  0.20714128800E+02  0.20667648557E+02  0.29746200113E+02  0.00000000000E+00 0. -1.
<mgrwt>
<rscale>  4 0.25511731E+03</rscale>
<asrwt>0</asrwt>
<pdfrwt beam="1">  1       21 0.10055247E+00 0.25511731E+03</pdfrwt>
<pdfrwt beam="2">  1       21 0.24908871E-01 0.25511731E+03</pdfrwt>
<totfact> 0.11894868E+04</totfact>
</mgrwt>
</event>
<event>
 5    0  0.1972558E-002  0.2575384E+03  0.7546771E-02  0.1108631E+00
         21   -1    0    0  501  502  0.00000000000E+00  0.00000000000E+00  0.61719694385E+03  0.61719694385E+03  0.00000000000E+00 0.  1.
         21   -1    0    0  502  503 -0.00000000000E+00 -0.00000000000E+00 -0.16527344061E+03  0.16527344061E+03  0.00000000000E+00 0. -1.
         25    1    1    2    0    0  0.18309323238E+03  0.13787499901E+03  0.58587755518E+02  0.26756339845E+03  0.12500000000E+03 0.  0.
          1    1    1    2  501    0 -0.12739413170E+03 -0.18736407213E+03  0.18135836232E+03  0.29021615375E+03  0.00000000000E+00 0.  1.
         -1    1    1    2    0  503 -0.55699100677E+02  0.49489073117E+02  0.21197738540E+03  0.22469083225E+03  0.00000000000E+00 0. -1.
<mgrwt>
<rscale>  4 0.25753843E+03</rscale>
<asrwt>0</asrwt>
<pdfrwt beam="1">  1       21 0.94953375E-01 0.25753843E+03</pdfrwt>
<pdfrwt beam="2">  1       21 0.25426683E-01 0.25753843E+03</pdfrwt>
<totfact> 0.13084311E+04</totfact>
</mgrwt>
</event>
<event>
 5    0  0.1972558E-002  0.2273595E+03  0.7546771E-02  0.1128512E+00
         21   -1    0    0  501  502  0.00000000000E+00  0.00000000000E+00  0.27656751602E+03  0.27656751602E+03  0.00000000000E+00 0.  1.
         21   -1    0    0  502  503 -0.00000000000E+00 -0.00000000000E+00 -0.25145965833E+03  0.25145965833E+03  0.00000000000E+00 0. -1.
         25    1    1    2    0    0  0.17632098486E+03 -0.99621963362E+02 -0.48378930168E+02  0.24285622531E+03  0.12500000000E+03 0.  0.
          2    1    1    2  501    0 -0.17899707036E+03  0.37433895401E+02 -0.75045919844E+01  0.18302340458E+03  0.00000000000E+00 0.  1.
         -2    1    1    2    0  503  0.26760855012E+01  0.62188067961E+02  0.80991379838E+02  0.10214754446E+03  0.00000000000E+00 0. -1.
<mgrwt>
<rscale>  4 0.22735951E+03</rscale>
<asrwt>0</asrwt>
<pdfrwt beam="1">  1       21 0.42548848E-01 0.22735951E+03</pdfrwt>
<pdfrwt beam="2">  1       21 0.38686101E-01 0.22735951E+03</pdfrwt>
<totfact> 0.33634013E+04</totfact>
</mgrwt>
</event>
<event>
 5    0  0.1972558E-002  0.2460564E+03  0.7546771E-02  0.1115823E+00
         21   -1    0    0  501  502  0.00000000000E+00  0.00000000000E+00  0.11187059960E+04  0.11187059960E+04  0.00000000000E+00 0. -1.
         21   -1    0    0  502  503 -0.00000000000E+00 -0.00000000000E+00 -0.22366950865E+04  0.22366950865E+04  0.00000000000E+00 0.  1.
         25    1    1    2    0    0  0.68381135572E+01 -0.21228953192E+03 -0.21889174925E+04  0.22027479188E+04  0.12500000000E+03 0.  0.
          3    1    1    2  501    0  0.11809053866E+02  0.16601077670E+02  0.87457023744E+03  0.87480749296E+03  0.00000000000E+00 0. -1.
         -3    1    1    2    0  503 -0.18647167423E+02  0.19568845425E+03  0.19635816451E+03  0.27784567074E+03  0.00000000000E+00 0.  1.
<mgrwt>
<rscale>  4 0.24605643E+03</rscale>
<asrwt>0</asrwt>
<pdfrwt beam="1">  1       21 0.17210862E+00 0.24605643E+03</pdfrwt>
<pdfrwt beam="2">  1       21 0.34410694E+00 0.24605643E+03</pdfrwt>
<totfact> 0.35128039E+00</totfact>
</mgrwt>
</event>
<event>
 5    0  0.1972558E-002  0.2519951E+03  0.7546771E-02  0.1112050E+00
         21   -1    0    0  501  502  0.00000000000E+00  0.00000000000E+00  0.51017948360E+03  0.51017948360E+03  0.00000000000E+00 0.  1.
         21   -1    0    0  502  503 -0.00000000000E+00 -0.00000000000E+00 -0.31035257360E+03  0.31035257360E+03  0.00000000000E+00 0. -1.
         25    1    1    2    0    0 -0.10450572153E+03 -0.20933932862E+03 -0.17225314973E+03  0.31629187143E+03  0.12500000000E+03 0.  0.
          2    1    1    2  501    0  0.10861878329E+03  0.15623014935E+03  0.78447860141E+02  0.20581536971E+03  0.00000000000E+00 0. -1.
         -2    1    1    2    0  503 -0.41130617596E+01  0.53109179270E+02  0.29363219960E+03  0.29842481606E+03  0.00000000000E+00 0.  1.
<mgrwt>
<rscale>  4 0.25199510E+03</rscale>
<asrwt>0</asrwt>
<pdfrwt beam="1">  1       21 0.78489151E-01 0.25199510E+03</pdfrwt>
<pdfrwt beam="2">  1       21 0.47746550E-01 0.25199510E+03</pdfrwt>
<totfact> 0.57815421E+03</totfact>
</mgrwt>
</event>
<event>
 5    0  0.1972558E-002  0.2344170E+03  0.7546771E-02  0.1123569E+00
         21   -1    0    0  501  502  0.00000000000E+00  0.00000000000E+00  0.37017283177E+03  0.37017283177E+03  0.00000000000E+00 0. -1.
         21   -1    0    0  502  503 -0.00000000000E+00 -0.00000000000E+00 -0.33180157276E+03  0.33180157276E+03  0.00000000000E+00 0. -1.
         25    1    1    2    0    0  0.15658537389E+03 -0.16869414110E+03 -0.20484203748E+03  0.33250857565E+03  0.12500000000E+03 0.  0.
          2    1    1    2  501    0 -0.86946583378E+02  0.12037706084E+03  0.47042009612E+02  0.15576679944E+03  0.00000000000E+00 0.  1.
         -2    1    1    2    0  503 -0.69638790515E+02  0.48317080259E+02  0.19617128688E+03  0.21369902945E+03  0.00000000000E+00 0. -1.
<mgrwt>
<rscale>  4 0.23441695E+03</rscale>
<asrwt>0</asrwt>
<pdfrwt beam="1">  1       21 0.56949666E-01 0.23441695E+03</pdfrwt>
<pdfrwt beam="2">  1       21 0.51046396E-01 0.23441695E+03</pdfrwt>
<totfact> 0.10291597E+04</totfact>
</mgrwt>
</event>
<event>
 5    0  0.1972558E-002  0.2502829E+03  0.7546771E-02  0.1113126E+00
         21   -1    0    0  503  502  0.00000000000E+00  0.00000000000E+00  0.70976822654E+03  0.70976822654E+03  0.00000000000E+00 0. -1.
         21   -1    0    0  501  503 -0.00000000000E+00 -0.00000000000E+00 -0.29357105211E+03  0.29357105211E+03  0.00000000000E+00 0. -1.
         25    1    1    2    0    0 -0.96364499136E+02  0.19214982101E+03 -0.21042524469E+03  0.32574753109E+03  0.12500000000E+03 0.  0.
          4    1    1    2  501    0 -0.86708525375E+01  0.18649914776E+02  0.75577232257E+02  0.78325736769E+02  0.00000000000E+00 0.  1.
         -4    1    1    2    0  502  0.10503535167E+03 -0.21079973579E+03  0.55104518687E+03  0.59926601079E+03  0.00000000000E+00 0. -1.
<mgrwt>
<rscale>  4 0.25028286E+03</rscale>
<asrwt>0</asrwt>
<pdfrwt beam="1">  1       21 0.10919511E+00 0.25028286E+03</pdfrwt>
<pdfrwt beam="2">  1       21 0.45164777E-01 0.25028286E+03</pdfrwt>
<totfact> 0.29900882E+03</totfact>
</mgrwt>
</event>
<event>
 5    0  0.1972558E-002  0.6205421E+03  0.7546771E-02  0.9863681E-01
         21   -1    0    0  501  502  0.00000000000E+00  0.00000000000E+00  0.39594946475E+03  0.39594946475E+03  0.00000000000E+00 0. -1.
         21   -1    0    0  502  503 -0.00000000000E+00 -0.00000000000E+00 -0.15693621112E+04  0.15693621112E+04  0.00000000000E+00 0.  1.
         25    1    1    2    0    0  0.43568384777E+03 -0.44164938455E+03 -0.78158710039E+03  0.10056729039E+04  0.12500000000E+03 0.  0.
          3    1    1    2  501    0  0.11260542815E+02  0.50444928754E+02  0.14815145913E+03  0.15690871710E+03  0.00000000000E+00 0. -1.
         -3    1    1    2    0  503 -0.44694439059E+03  0.39120445580E+03 -0.53997700523E+03  0.80272995502E+03  0.00000000000E+00 0.  1.
<mgrwt>
<rscale>  4 0.62054210E+03</rscale>
<asrwt>0</asrwt>
<pdfrwt beam="1">  1       21 0.60915302E-01 0.62054210E+03</pdfrwt>
<pdfrwt beam="2">  1       21 0.24144032E+00 0.62054210E+03</pdfrwt>
<totfact> 0.13687647E+02</totfact>
</mgrwt>
</event>
<event>
 5    0  0.1972558E-002  0.2369111E+03  0.7546771E-02  0.1121868E+00
         21   -1    0    0  501  502  0.00000000000E+00  0.00000000000E+00  0.36163414243E+03  0.36163414243E+03  0.00000000000E+00 0. -1.
         21   -1    0    0  502  503 -0.00000000000E+00 -0.00000000000E+00 -0.28754434562E+03  0.28754434562E+03  0.00000000000E+00 0.  1.
         25    1    1    2    0    0 -0.15884386680E+03  0.12357390986E+03 -0.19684955583E+03  0.30802050719E+03  0.12500000000E+03 0.  0.
          1    1    1    2  501    0  0.15136444759E+03 -0.97210151224E+02  0.23677906283E+03  0.29736397577E+03  0.00000000000E+00 0. -1.
         -1    1    1    2    0  503  0.74794192191E+01 -0.26363758640E+02  0.34160289809E+02  0.43794005084E+02  0.00000000000E+00 0.  1.
<mgrwt>
<rscale>  4 0.23691113E+03</rscale>
<asrwt>0</asrwt>
<pdfrwt beam="1">  1       21 0.55636022E-01 0.23691113E+03</pdfrwt>
<pdfrwt beam="2">  1       21 0.44237592E-01 0.23691113E+03</pdfrwt>
<totfact> 0.14549363E+04</totfact>
</mgrwt>
</event>
<event>
 5    0  0.1972558E-002  0.3331207E+03  0.7546771E-02  0.1069764E+00
         21   -1    0    0  501  502  0.00000000000E+00  0.00000000000E+00  0.50207837393E+03  0.50207837393E+03  0.00000000000E+00 0.  1.
         21   -1    0    0  502  503 -0.00000000000E+00 -0.00000000000E+00 -0.65109324753E+03  0.65109324753E+03  0.00000000000E+00 0.  1.
         25    1    1    2    0    0  0.27314088840E+03 -0.14781715871E+03 -0.54553334476E+03  0.64006834601E+03  0.12500000000E+03 0.  0.
          4    1    1    2  501    0 -0.24652511385E+03  0.16115114742E+03  0.34514852791E+03  0.45373101106E+03  0.00000000000E+00 0.  1.
         -4    1    1    2    0  503 -0.26615774550E+02 -0.13333988709E+02  0.51369943246E+02  0.59372264391E+02  0.00000000000E+00 0. -1.
<mgrwt>
<rscale>  4 0.33312070E+03</rscale>
<asrwt>0</asrwt>
<pdfrwt beam="1">  1       21 0.77242827E-01 0.33312070E+03</pdfrwt>
<pdfrwt beam="2">  1       21 0.10016819E+00 0.33312070E+03</pdfrwt>
<totfact> 0.10953231E+03</totfact>
</mgrwt>
</event>
<event>
 5    0  0.1972558E-002  0.3008338E+03  0.7546771E-02  0.1084825E+00
         21   -1    0    0  501  502  0.00000000000E+00  0.00000000000E+00  0.77975382893E+02  0.77975382893E+02  0.00000000000E+00 0. -1.
         21   -1    0    0  502  503 -0.00000000000E+00 -0.00000000000E+00 -0.29556452703E+04  0.29556452703E+04  0.00000000000E+00 0. -1.
         25    1    1    2    0    0 -0.26791872256E+03  0.93169188039E+02 -0.34622734430E+03  0.46471422772E+03  0.12500000000E+03 0.  0.
          1    1    1    2  501    0  0.27315446707E+01 -0.30230194388E+02 -0.88285387138E+01  0.31611217706E+02  0.00000000000E+00 0.  1.
         -1    1    1    2    0  503  0.26518717789E+03 -0.62938993651E+02 -0.25226140044E+04  0.25372952078E+04  0.00000000000E+00 0. -1.
<mgrwt>
<rscale>  4 0.30083383E+03</rscale>
<asrwt>0</asrwt>
<pdfrwt beam="1">  1       21 0.11996213E-01 0.30083383E+03</pdfrwt>
<pdfrwt beam="2">  1       21 0.45471466E+00 0.30083383E+03</pdfrwt>
<totfact> 0.19554290E+02</totfact>
</mgrwt>
</event>
<event>
 5    0  0.1972558E-002  0.2109050E+03  0.7546771E-02  0.1140851E+00
         21   -1    0    0  501  502  0.00000000000E+00  0.00000000000E+00  0.16761810549E+03  0.16761810549E+03  0.00000000000E+00 0. -1.
         21   -1    0    0  502  503 -0.00000000000E+00 -0.00000000000E+00 -0.12613484079E+04  0.12613484079E+04  0.00000000000E+00 0.  1.
         25    1    1    2    0    0 -0.15437766851E+02  0.20371055067E+03 -0.37235700175E+03  0.44273135178E+03  0.12500000000E+03 0.  0.
          2    1    1    2  501    0  0.12459794956E+03 -0.11790269302E+03  0.68160844733E+02  0.18458492574E+03  0.00000000000E+00 0. -1.
         -2    1    1    2    0  503 -0.10916018271E+03 -0.85807857643E+02 -0.78953414542E+03  0.80165023589E+03  0.00000000000E+00 0.  1.
<mgrwt>
<rscale>  4 0.21090501E+03</rscale>
<asrwt>0</asrwt>
<pdfrwt beam="1">  1       21 0.25787400E-01 0.21090501E+03</pdfrwt>
<pdfrwt beam="2">  1       21 0.19405361E+00 0.21090501E+03</pdfrwt>
<totfact> 0.20564765E+03</totfact>
</mgrwt>
</event>
<event>
 5    0  0.1972558E-002  0.2786889E+03  0.7546771E-02  0.1096407E+00
         21   -1    0    0  501  502  0.00000000000E+00  0.00000000000E+00  0.39886351279E+03  0.39886351279E+03  0.00000000000E+00 0. -1.
         21   -1    0    0  502  503 -0.00000000000E+00 -0.00000000000E+00 -0.68890334672E+03  0.68890334672E+03  0.00000000000E+00 0.  1.
         25    1    1    2    0    0 -0.52736108606E+02 -0.24475670945E+03 -0.59767160534E+03  0.65994188517E+03  0.12500000000E+03 0.  0.
          4    1    1    2  501    0  0.66583212717E+02  0.23012980865E+03  0.18271184310E+03  0.30129167041E+03  0.00000000000E+00 0. -1.
         -4    1    1    2    0  503 -0.13847104111E+02  0.14626900798E+02  0.12491992830E+03  0.12653330394E+03  0.00000000000E+00 0.  1.
<mgrwt>
<rscale>  4 0.27868892E+03</rscale>
<asrwt>0</asrwt>
<pdfrwt beam="1">  1       21 0.61363617E-01 0.27868892E+03</pdfrwt>
<pdfrwt beam="2">  1       21 0.10598513E+00 0.27868892E+03</pdfrwt>
<totfact> 0.16476322E+03</totfact>
</mgrwt>
</event>
<event>
 5    0  0.1972558E-002  0.1964250E+03  0.7546771E-02  0.1152791E+00
         21   -1    0    0  501  502  0.00000000000E+00  0.00000000000E+00  0.22486600981E+03  0.22486600981E+03  0.00000000000E+00 0. -1.
         21   -1    0    0  502  503 -0.00000000000E+00 -0.00000000000E+00 -0.65643165966E+03  0.65643165966E+03  0.00000000000E+00 0.  1.
         25    1    1    2    0    0  0.16001629643E+03  0.12642455236E+03 -0.42808403632E+03  0.49037671714E+03  0.12500000000E+03 0.  0.
          3    1    1    2  501    0 -0.76396049455E+02 -0.40777851315E+02  0.16376605877E+03  0.18525256148E+03  0.00000000000E+00 0. -1.
         -3    1    1    2    0  503 -0.83620246975E+02 -0.85646701044E+02 -0.16724767230E+03  0.20566839085E+03  0.00000000000E+00 0.  1.
<mgrwt>
<rscale>  4 0.19642504E+03</rscale>
<asrwt>0</asrwt>
<pdfrwt beam="1">  1       21 0.34594770E-01 0.19642504E+03</pdfrwt>
<pdfrwt beam="2">  1       21 0.10098949E+00 0.19642504E+03</pdfrwt>
<totfact> 0.64398879E+03</totfact>
</mgrwt>
</event>
<event>
 5    0  0.1972558E-002  0.2490804E+03  0.7546771E-02  0.1113887E+00
         21   -1    0    0  501  502  0.00000000000E+00  0.00000000000E+00  0.27740630423E+03  0.27740630423E+03  0.00000000000E+00 0. -1.
         21   -1    0    0  502  503 -0.00000000000E+00 -0.00000000000E+00 -0.27896068240E+03  0.27896068240E+03  0.00000000000E+00 0. -1.
         25    1    1    2    0    0  0.13207872531E+03  0.18105293749E+03 -0.12394708860E+03  0.28497865995E+03  0.12500000000E+03 0.  0.
          2    1    1    2  501    0 -0.11963660171E+03 -0.16082623703E+03  0.67375724500E+02  0.21146508752E+03  0.00000000000E+00 0. -1.
         -2    1    1    2    0  503 -0.12442123598E+02 -0.20226700460E+02  0.55016985927E+02  0.59923239162E+02  0.00000000000E+00 0.  1.
<mgrwt>
<rscale>  4 0.24908036E+03</rscale>
<asrwt>0</asrwt>
<pdfrwt beam="1">  1       21 0.42677893E-01 0.24908036E+03</pdfrwt>
<pdfrwt beam="2">  1       21 0.42917028E-01 0.24908036E+03</pdfrwt>
<totfact> 0.26787968E+04</totfact>
</mgrwt>
</event>
<event>
 5    0  0.1972558E-002  0.2630487E+03  0.7546771E-02  0.1105325E+00
         21   -1    0    0  501  502  0.00000000000E+00  0.00000000000E+00  0.35167453412E+03  0.35167453412E+03  0.00000000000E+00 0.  1.
         21   -1    0    0  502  503 -0.00000000000E+00 -0.00000000000E+00 -0.95620355193E+03  0.95620355193E+03  0.00000000000E+00 0.  1.
         25    1    1    2    0    0 -0.19831565351E+03 -0.12645669439E+03 -0.82923406026E+03  0.87096183652E+03  0.12500000000E+03 0.  0.
          3    1    1    2  501    0  0.16496682128E+03  0.13508464594E+03  0.37075235514E+01  0.21325022725E+03  0.00000000000E+00 0. -1.
         -3    1    1    2    0  503  0.33348832224E+02 -0.86279515466E+01  0.22099751890E+03  0.22366602227E+03  0.00000000000E+00 0.  1.
<mgrwt>
<rscale>  4 0.26304871E+03</rscale>
<asrwt>0</asrwt>
<pdfrwt beam="1">  1       21 0.54103774E-01 0.26304871E+03</pdfrwt>
<pdfrwt beam="2">  1       21 0.14710824E+00 0.26304871E+03</pdfrwt>
<totfact> 0.95291825E+02</totfact>
</mgrwt>
</event>
<event>
 5    0  0.1972558E-002  0.2361515E+03  0.7546771E-02  0.1122383E+00
         21   -1    0    0  501  502  0.00000000000E+00  0.00000000000E+00  0.25894839951E+03  0.25894839951E+03  0.00000000000E+00 0. -1.
         21   -1    0    0  502  503 -0.00000000000E+00 -0.00000000000E+00 -0.33489453661E+03  0.33489453661E+03  0.00000000000E+00 0.  1.
         25    1    1    2    0    0  0.19160215851E+03 -0.11819002628E+03 -0.92078704244E+02  0.27346619029E+03  0.12500000000E+03 0.  0.
          2    1    1    2  501    0 -0.11878015522E+03  0.15516717465E+03  0.85427695932E+02  0.21326853635E+03  0.00000000000E+00 0. -1.
         -2    1    1    2    0  503 -0.72822003291E+02 -0.36977148371E+02 -0.69295128788E+02  0.10710820948E+03  0.00000000000E+00 0.  1.
<mgrwt>
<rscale>  4 0.23615154E+03</rscale>
<asrwt>0</asrwt>
<pdfrwt beam="1">  1       21 0.39838216E-01 0.23615154E+03</pdfrwt>
<pdfrwt beam="2">  1       21 0.51522236E-01 0.23615154E+03</pdfrwt>
<totfact> 0.21216068E+04</totfact>
</mgrwt>
</event>
<event>
 5    0  0.1972558E-002  0.2296032E+03  0.7546771E-02  0.1126919E+00
         21   -1    0    0  501  502  0.00000000000E+00  0.00000000000E+00  0.14890427094E+04  0.14890427094E+04  0.00000000000E+00 0. -1.
         21   -1    0    0  502  503 -0.00000000000E+00 -0.00000000000E+00 -0.21170618578E+03  0.21170618578E+03  0.00000000000E+00 0. -1.
         25    1    1    2    0    0 -0.14082499601E+03  0.14318057517E+03 -0.13256720854E+03  0.27116677781E+03  0.12500000000E+03 0.  0.
          1    1    1    2  501    0  0.27584700153E+02 -0.11663458168E+03  0.74631723307E+03  0.75587958943E+03  0.00000000000E+00 0. -1.
         -1    1    1    2    0  503  0.11324029586E+03 -0.26545993490E+02  0.66358649905E+03  0.67370252790E+03  0.00000000000E+00 0.  1.
<mgrwt>
<rscale>  4 0.22960320E+03</rscale>
<asrwt>0</asrwt>
<pdfrwt beam="1">  1       21 0.22908349E+00 0.22960320E+03</pdfrwt>
<pdfrwt beam="2">  1       21 0.32570183E-01 0.22960320E+03</pdfrwt>
<totfact> 0.77051617E+02</totfact>
</mgrwt>
</event>
<event>
 5    0  0.1972558E-002  0.2747510E+03  0.7546771E-02  0.1098591E+00
         21   -1    0    0  501  502  0.00000000000E+00  0.00000000000E+00  0.12294340159E+04  0.12294340159E+04  0.00000000000E+00 0. -1.
         21   -1    0    0  502  503 -0.00000000000E+00 -0.00000000000E+00 -0.40094007697E+03  0.40094007697E+03  0.00000000000E+00 0. -1.
         25    1    1    2    0    0 -0.10924799129E+03  0.21802749160E+03 -0.33035340778E+03  0.42921962295E+03  0.12500000000E+03 0.  0.
          4    1    1    2  501    0 -0.47253142564E+02 -0.65405158821E+01  0.27019691993E+03  0.27437567926E+03  0.00000000000E+00 0.  1.
         -4    1    1    2    0  503  0.15650113386E+03 -0.21148697571E+03  0.88865042680E+03  0.92677879067E+03  0.00000000000E+00 0. -1.
<mgrwt>
<rscale>  4 0.27475100E+03</rscale>
<asrwt>0</asrwt>
<pdfrwt beam="1">  1       21 0.18914369E+00 0.27475100E+03</pdfrwt>
<pdfrwt beam="2">  1       21 0.61683089E-01 0.27475100E+03</pdfrwt>
<totfact> 0.35411094E+02</totfact>
</mgrwt>
</event>
<event>
 5    0  0.1972558E-002  0.2342680E+03  0.7546771E-02  0.1123671E+00
         21   -1    0    0  501  502  0.00000000000E+00  0.00000000000E+00  0.31539354771E+03  0.31539354771E+03  0.00000000000E+00 0. -1.
         21   -1    0    0  502  503 -0.00000000000E+00 -0.00000000000E+00 -0.35664152812E+03  0.35664152812E+03  0.00000000000E+00 0. -1.
         25    1    1    2    0    0  0.70567986032E+02 -0.20551719070E+03 -0.20345335167E+03  0.32285511090E+03  0.12500000000E+03 0.  0.
          3    1    1    2  501    0 -0.11218976260E+03  0.13541555862E+03  0.95410691498E+01  0.17611061396E+03  0.00000000000E+00 0.  1.
         -3    1    1    2    0  503  0.41621776573E+02  0.70101632083E+02  0.15266430211E+03  0.17306935097E+03  0.00000000000E+00 0. -1.
<mgrwt>
<rscale>  4 0.23426800E+03</rscale>
<asrwt>0</asrwt>
<pdfrwt beam="1">  1       21 0.48522084E-01 0.23426800E+03</pdfrwt>
<pdfrwt beam="2">  1       21 0.54867927E-01 0.23426800E+03</pdfrwt>
<totfact> 0.12391178E+04</totfact>
</mgrwt>
</event>
<event>
 5    0  0.1972558E-002  0.2483623E+03  0.7546771E-02  0.1114344E+00
         21   -1    0    0  501  502  0.00000000000E+00  0.00000000000E+00  0.14212592751E+03  0.14212592751E+03  0.00000000000E+00 0. -1.
         21   -1    0    0  502  503 -0.00000000000E+00 -0.00000000000E+00 -0.13930445123E+04  0.13930445123E+04  0.00000000000E+00 0.  1.
         25    1    1    2    0    0 -0.13935352363E+03 -0.16592111581E+03 -0.12507673383E+04  0.12755364188E+04  0.12500000000E+03 0.  0.
          2    1    1    2  501    0  0.35225739254E+02 -0.82303360536E+01  0.38772348441E+02  0.53027220756E+02  0.00000000000E+00 0.  1.
         -2    1    1    2    0  503  0.10412778437E+03  0.17415145186E+03 -0.38923594957E+02  0.20660680025E+03  0.00000000000E+00 0. -1.
<mgrwt>
<rscale>  4 0.24836233E+03</rscale>
<asrwt>0</asrwt>
<pdfrwt beam="1">  1       21 0.21865528E-01 0.24836233E+03</pdfrwt>
<pdfrwt beam="2">  1       21 0.21431453E+00 0.24836233E+03</pdfrwt>
<totfact> 0.20196911E+03</totfact>
</mgrwt>
</event>
<event>
 5    0  0.1972558E-002  0.2616122E+03  0.7546771E-02  0.1106178E+00
         21   -1    0    0  501  502  0.00000000000E+00  0.00000000000E+00  0.10107742787E+04  0.10107742787E+04  0.00000000000E+00 0. -1.
         21   -1    0    0  502  503 -0.00000000000E+00 -0.00000000000E+00 -0.44987855843E+03  0.44987855843E+03  0.00000000000E+00 0.  1.
         25    1    1    2    0    0 -0.19754702339E+03  0.10609077827E+03 -0.28482747860E+03  0.38344722225E+03  0.12500000000E+03 0.  0.
          4    1    1    2  501    0  0.21346021589E+03 -0.11918333072E+03  0.13631330725E+02  0.24485861894E+03  0.00000000000E+00 0.  1.
         -4    1    1    2    0  503 -0.15913192507E+02  0.13092552448E+02  0.83209186816E+03  0.83234699596E+03  0.00000000000E+00 0. -1.
<mgrwt>
<rscale>  4 0.26161216E+03</rscale>
<asrwt>0</asrwt>
<pdfrwt beam="1">  1       21 0.15550373E+00 0.26161216E+03</pdfrwt>
<pdfrwt beam="2">  1       21 0.69212086E-01 0.26161216E+03</pdfrwt>
<totfact> 0.48189127E+02</totfact>
</mgrwt>
</event>
<event>
 5    0  0.1972558E-002  0.3887219E+03  0.7546771E-02  0.1047756E+00
         21   -1    0    0  501  502  0.00000000000E+00  0.00000000000E+00  0.23520117938E+03  0.23520117938E+03  0.00000000000E+00 0. -1.
         21   -1    0    0  502  503 -0.00000000000E+00 -0.00000000000E+00 -0.10008432145E+04  0.10008432145E+04  0.00000000000E+00 0.  1.
         25    1    1    2    0    0  0.21006039034E+03 -0.31998560280E+03 -0.70926602998E+03  0.81559760598E+03  0.12500000000E+03 0.  0.
          3    1    1    2  501    0 -0.20398881831E+03  0.26501895644E+03 -0.10103708967E+03  0.34936367693E+03  0.00000000000E+00 0. -1.
         -3    1    1    2    0  503 -0.60715720275E+01  0.54966646363E+02  0.44661084510E+02  0.71083110996E+02  0.00000000000E+00 0.  1.
<mgrwt>
<rscale>  4 0.38872188E+03</rscale>
<asrwt>0</asrwt>
<pdfrwt beam="1">  1       21 0.36184797E-01 0.38872188E+03</pdfrwt>
<pdfrwt beam="2">  1       21 0.15397588E+00 0.38872188E+03</pdfrwt>
<totfact> 0.18006054E+03</totfact>
</mgrwt>
</event>
<event>
 5    0  0.1972558E-002  0.2679232E+03  0.7546771E-02  0.1102474E+00
         21   -1    0    0  501  502  0.00000000000E+00  0.00000000000E+00  0.25045511943E+03  0.25045511943E+03  0.00000000000E+00 0. -1.
         21   -1    0    0  502  503 -0.00000000000E+00 -0.00000000000E+00 -0.80628794220E+03  0.80628794220E+03  0.00000000000E+00 0.  1.
         25    1    1    2    0    0  0.23707872454E+03  0.34184660487E+02 -0.70728171284E+03  0.75713098864E+03  0.12500000000E+03 0.  0.
          1    1    1    2  501    0 -0.18429742292E+02 -0.10562859574E+02  0.55957817390E+02  0.59854045230E+02  0.00000000000E+00 0.  1.
         -1    1    1    2    0  503 -0.21864898225E+03 -0.23621800912E+02  0.95491072673E+02  0.23975802776E+03  0.00000000000E+00 0. -1.
<mgrwt>
<rscale>  4 0.26792316E+03</rscale>
<asrwt>0</asrwt>
<pdfrwt beam="1">  1       21 0.38531556E-01 0.26792316E+03</pdfrwt>
<pdfrwt beam="2">  1       21 0.12404430E+00 0.26792316E+03</pdfrwt>
<totfact> 0.29833945E+03</totfact>
</mgrwt>
</event>
<event>
 5    0  0.1972558E-002  0.2447114E+03  0.7546771E-02  0.1116693E+00
         21   -1    0    0  501  502  0.00000000000E+00  0.00000000000E+00  0.24203802100E+03  0.24203802100E+03  0.00000000000E+00 0. -1.
         21   -1    0    0  502  503 -0.00000000000E+00 -0.00000000000E+00 -0.78361546846E+03  0.78361546846E+03  0.00000000000E+00 0.  1.
         25    1    1    2    0    0 -0.14127630705E+03 -0.18111816945E+03 -0.59390349441E+03  0.64892923105E+03  0.12500000000E+03 0.  0.
          2    1    1    2  501    0  0.93536995837E+02  0.14946144525E+03 -0.10780000065E+03  0.20666091393E+03  0.00000000000E+00 0. -1.
         -2    1    1    2    0  503  0.47739311215E+02  0.31656724201E+02  0.16012604758E+03  0.17006334448E+03  0.00000000000E+00 0.  1.
<mgrwt>
<rscale>  4 0.24471144E+03</rscale>
<asrwt>0</asrwt>
<pdfrwt beam="1">  1       21 0.37236620E-01 0.24471144E+03</pdfrwt>
<pdfrwt beam="2">  1       21 0.12055622E+00 0.24471144E+03</pdfrwt>
<totfact> 0.34875512E+03</totfact>
</mgrwt>
</event>
<event>
 5    0  0.1972558E-002  0.3544599E+03  0.7546771E-02  0.1060799E+00
         21   -1    0    0  501  502  0.00000000000E+00  0.00000000000E+00  0.96891185989E+03  0.96891185989E+03  0.00000000000E+00 0. -1.
         21   -1    0    0  502  503 -0.00000000000E+00 -0.00000000000E+00 -0.16028682273E+03  0.16028682273E+03  0.00000000000E+00 0.  1.
         25    1    1    2    0    0  0.23999883075E+03 -0.24262605211E+03  0.26526474151E+03  0.44995246751E+03  0.12500000000E+03 0.  0.
          2    1    1    2  501    0 -0.71382385233E+01  0.20967786075E+02  0.22742365871E+03  0.22849972219E+03  0.00000000000E+00 0. -1.
         -2    1    1    2    0  503 -0.23286059223E+03  0.22165826604E+03  0.31593663695E+03  0.45074649292E+03  0.00000000000E+00 0.  1.
<mgrwt>
<rscale>  4 0.35445987E+03</rscale>
<asrwt>0</asrwt>
<pdfrwt beam="1">  1       21 0.14906336E+00 0.35445987E+03</pdfrwt>
<pdfrwt beam="2">  1       21 0.24659512E-01 0.35445987E+03</pdfrwt>
<totfact> 0.42653429E+03</totfact>
</mgrwt>
</event>
<event>
 5    0  0.1972558E-002  0.2187450E+03  0.7546771E-02  0.1134822E+00
         21   -1    0    0  501  502  0.00000000000E+00  0.00000000000E+00  0.14853146939E+04  0.14853146939E+04  0.00000000000E+00 0. -1.
         21   -1    0    0  502  503 -0.00000000000E+00 -0.00000000000E+00 -0.58545571335E+02  0.58545571335E+02  0.00000000000E+00 0.  1.
         25    1    1    2    0    0 -0.15111790487E+03  0.14013414364E+03  0.29415957151E+03  0.38030126597E+03  0.12500000000E+03 0.  0.
          1    1    1    2  501    0  0.31966635372E+02 -0.13333872365E+03  0.76103850428E+03  0.77329210910E+03  0.00000000000E+00 0.  1.
         -1    1    1    2    0  503  0.11915126950E+03 -0.67954199928E+01  0.37157104676E+03  0.39026689015E+03  0.00000000000E+00 0. -1.
<mgrwt>
<rscale>  4 0.21874502E+03</rscale>
<asrwt>0</asrwt>
<pdfrwt beam="1">  1       21 0.22850992E+00 0.21874502E+03</pdfrwt>
<pdfrwt beam="2">  1       21 0.90070121E-02 0.21874502E+03</pdfrwt>
<totfact> 0.85110104E+03</totfact>
</mgrwt>
</event>
<event>
 5    0  0.1972558E-002  0.2851394E+03  0.7546771E-02  0.1092915E+00
         21   -1    0    0  501  502  0.00000000000E+00  0.00000000000E+00  0.20600868660E+03  0.20600868660E+03  0.00000000000E+00 0.  1.
         21   -1    0    0  502  503 -0.00000000000E+00 -0.00000000000E+00 -0.13722997231E+04  0.13722997231E+04  0.00000000000E+00 0.  1.
         25    1    1    2    0    0 -0.25222802693E+03  0.69984693787E+02 -0.10775332725E+04  0.11158941654E+04  0.12500000000E+03 0.  0.
          2    1    1    2  501    0  0.22749976312E+03 -0.81212912691E+02 -0.22100556395E+03  0.32740668701E+03  0.00000000000E+00 0. -1.
         -2    1    1    2    0  503  0.24728263812E+02  0.11228218904E+02  0.13224779998E+03  0.13500755731E+03  0.00000000000E+00 0.  1.
<mgrwt>
<rscale>  4 0.28513942E+03</rscale>
<asrwt>0</asrwt>
<pdfrwt beam="1">  1       21 0.31693644E-01 0.28513942E+03</pdfrwt>
<pdfrwt beam="2">  1       21 0.21112304E+00 0.28513942E+03</pdfrwt>
<totfact> 0.10012688E+03</totfact>
</mgrwt>
</event>
<event>
 5    0  0.1972558E-002  0.2638005E+03  0.7546771E-02  0.1104881E+00
         21   -1    0    0  501  502  0.00000000000E+00  0.00000000000E+00  0.15269640431E+04  0.15269640431E+04  0.00000000000E+00 0. -1.
         21   -1    0    0  502  503 -0.00000000000E+00 -0.00000000000E+00 -0.13321681473E+03  0.13321681473E+03  0.00000000000E+00 0. -1.
         25    1    1    2    0    0 -0.23186201883E+03  0.24877470846E+02  0.25226111962E+02  0.26578231893E+03  0.12500000000E+03 0.  0.
          3    1    1    2  501    0  0.22729118651E+03  0.22325011844E+01  0.10309761445E+04  0.10557357994E+04  0.00000000000E+00 0. -1.
         -3    1    1    2    0  503  0.45708323161E+01 -0.27109972031E+02  0.33754497187E+03  0.33866273950E+03  0.00000000000E+00 0.  1.
<mgrwt>
<rscale>  4 0.26380050E+03</rscale>
<asrwt>0</asrwt>
<pdfrwt beam="1">  1       21 0.23491753E+00 0.26380050E+03</pdfrwt>
<pdfrwt beam="2">  1       21 0.20494896E-01 0.26380050E+03</pdfrwt>
<totfact> 0.16807312E+03</totfact>
</mgrwt>
</event>
<event>
 5    0  0.1972558E-002  0.2910222E+03  0.7546771E-02  0.1089817E+00
         21   -1    0    0  501  502  0.00000000000E+00  0.00000000000E+00  0.21415458551E+03  0.21415458551E+03  0.00000000000E+00 0. -1.
         21   -1    0    0  502  503 -0.00000000000E+00 -0.00000000000E+00 -0.56332350159E+03  0.56332350159E+03  0.00000000000E+00 0.  1.
         25    1    1    2    0    0  0.10429631026E+03 -0.23485633447E+03 -0.21230807153E+03  0.35599850479E+03  0.12500000000E+03 0.  0.
          1    1    1    2  501    0 -0.12663565955E+03  0.23666653515E+03 -0.21265143055E+03  0.34244455032E+03  0.00000000000E+00 0.  1.
         -1    1    1    2    0  503  0.22339349293E+02 -0.18102006783E+01  0.75790586008E+02  0.79035031985E+02  0.00000000000E+00 0. -1.
<mgrwt>
<rscale>  4 0.29102222E+03</rscale>
<asrwt>0</asrwt>
<pdfrwt beam="1">  1       21 0.32946860E-01 0.29102222E+03</pdfrwt>
<pdfrwt beam="2">  1       21 0.86665154E-01 0.29102222E+03</pdfrwt>
<totfact> 0.95977338E+03</totfact>
</mgrwt>
</event>
<event>
 5    0  0.1972558E-002  0.2484288E+03  0.7546771E-02  0.1114302E+00
         21   -1    0    0  501  502  0.00000000000E+00  0.00000000000E+00  0.10860505333E+03  0.10860505333E+03  0.00000000000E+00 0.  1.
         21   -1    0    0  502  503 -0.00000000000E+00 -0.00000000000E+00 -0.19782350380E+04  0.19782350380E+04  0.00000000000E+00 0.  1.
         25    1    1    2    0    0  0.15084515225E+03 -0.19145489805E+03 -0.13588705290E+04  0.13862046575E+04  0.12500000000E+03 0.  0.
          1    1    1    2  501    0 -0.10686497500E+03  0.15029915959E+03 -0.58014590481E+03  0.60875219188E+03  0.00000000000E+00 0. -1.
         -1    1    1    2    0  503 -0.43980177253E+02  0.41155738463E+02  0.69386449216E+02  0.91883241859E+02  0.00000000000E+00 0.  1.
<mgrwt>
<rscale>  4 0.24842879E+03</rscale>
<asrwt>0</asrwt>
<pdfrwt beam="1">  1       21 0.16708470E-01 0.24842879E+03</pdfrwt>
<pdfrwt beam="2">  1       21 0.30434385E+00 0.24842879E+03</pdfrwt>
<totfact> 0.97041102E+02</totfact>
</mgrwt>
</event>
<event>
 5    0  0.1972558E-002  0.4643787E+03  0.7546771E-02  0.1023519E+00
         21   -1    0    0  501  502  0.00000000000E+00  0.00000000000E+00  0.10186357664E+04  0.10186357664E+04  0.00000000000E+00 0.  1.
         21   -1    0    0  502  503 -0.00000000000E+00 -0.00000000000E+00 -0.53641998530E+03  0.53641998530E+03  0.00000000000E+00 0.  1.
         25    1    1    2    0    0 -0.25820064543E+02  0.45016842276E+03 -0.35478656441E+03  0.58721102754E+03  0.12500000000E+03 0.  0.
          4    1    1    2  501    0 -0.45597261158E+01 -0.42551622882E+03  0.65080086997E+03  0.77757740736E+03  0.00000000000E+00 0.  1.
         -4    1    1    2    0  503  0.30379790658E+02 -0.24652193939E+02  0.18620147551E+03  0.19026731677E+03  0.00000000000E+00 0. -1.
<mgrwt>
<rscale>  4 0.46437867E+03</rscale>
<asrwt>0</asrwt>
<pdfrwt beam="1">  1       21 0.15671320E+00 0.46437867E+03</pdfrwt>
<pdfrwt beam="2">  1       21 0.82526151E-01 0.46437867E+03</pdfrwt>
<totfact> 0.27835944E+02</totfact>
</mgrwt>
</event>
<event>
 5    0  0.1972558E-002  0.3806788E+03  0.7546771E-02  0.1050683E+00
         21   -1    0    0  501  502  0.00000000000E+00  0.00000000000E+00  0.76024637630E+03  0.76024637630E+03  0.00000000000E+00 0. -1.
         21   -1    0    0  502  503 -0.00000000000E+00 -0.00000000000E+00 -0.30352778609E+03  0.30352778609E+03  0.00000000000E+00 0. -1.
         25    1    1    2    0    0 -0.17591311486E+02  0.36285301828E+03 -0.47740381591E+02  0.38713810346E+03  0.12500000000E+03 0.  0.
          4    1    1    2  501    0  0.77155942869E+02 -0.11311312070E+02  0.17322599503E+03  0.18996902551E+03  0.00000000000E+00 0.  1.
         -4    1    1    2    0  503 -0.59564631383E+02 -0.35154170621E+03  0.33123297677E+03  0.48666703342E+03  0.00000000000E+00 0. -1.
<mgrwt>
<rscale>  4 0.38067879E+03</rscale>
<asrwt>0</asrwt>
<pdfrwt beam="1">  1       21 0.11696098E+00 0.38067879E+03</pdfrwt>
<pdfrwt beam="2">  1       21 0.46696583E-01 0.38067879E+03</pdfrwt>
<totfact> 0.21912377E+03</totfact>
</mgrwt>
</event>
<event>
 5    0  0.1972558E-002  0.2686328E+03  0.7546771E-02  0.1102065E+00
         21   -1    0    0  501  502  0.00000000000E+00  0.00000000000E+00  0.16638663583E+04  0.16638663583E+04  0.00000000000E+00 0.  1.
         21   -1    0    0  502  503 -0.00000000000E+00 -0.00000000000E+00 -0.45415549471E+03  0.45415549471E+03  0.00000000000E+00 0. -1.
         25    1    1    2    0    0 -0.10537675439E+03  0.23747574526E+03 -0.34046722877E+03  0.44614114786E+03  0.12500000000E+03 0.  0.
          1    1    1    2  501    0 -0.53132138907E+02 -0.12720982822E+03  0.14458521419E+04  0.14524096464E+04  0.00000000000E+00 0.  1.
         -1    1    1    2    0  503  0.15850889329E+03 -0.11026591705E+03  0.10432595047E+03  0.21947105881E+03  0.00000000000E+00 0. -1.
<mgrwt>
<rscale>  4 0.26863281E+03</rscale>
<asrwt>0</asrwt>
<pdfrwt beam="1">  1       21 0.25597944E+00 0.26863281E+03</pdfrwt>
<pdfrwt beam="2">  1       21 0.69870077E-01 0.26863281E+03</pdfrwt>
<totfact> 0.10338776E+02</totfact>
</mgrwt>
</event>
<event>
 5    0  0.1972558E-002  0.2419452E+03  0.7546771E-02  0.1118504E+00
         21   -1    0    0  501  502  0.00000000000E+00  0.00000000000E+00  0.87613968395E+03  0.87613968395E+03  0.00000000000E+00 0. -1.
         21   -1    0    0  502  503 -0.00000000000E+00 -0.00000000000E+00 -0.21492958384E+03  0.21492958384E+03  0.00000000000E+00 0.  1.
         25    1    1    2    0    0  0.17628645823E+03  0.11967269759E+03 -0.28081179539E+02  0.24862023761E+03  0.12500000000E+03 0.  0.
          1    1    1    2  501    0 -0.22292195556E+02  0.89381918162E+01  0.63383448470E+03  0.63428935609E+03  0.00000000000E+00 0. -1.
         -1    1    1    2    0  503 -0.15399426268E+03 -0.12861088941E+03  0.55456794939E+02  0.20815967409E+03  0.00000000000E+00 0.  1.
<mgrwt>
<rscale>  4 0.24194521E+03</rscale>
<asrwt>0</asrwt>
<pdfrwt beam="1">  1       21 0.13479072E+00 0.24194521E+03</pdfrwt>
<pdfrwt beam="2">  1       21 0.33066090E-01 0.24194521E+03</pdfrwt>
<totfact> 0.33387809E+03</totfact>
</mgrwt>
</event>
<event>
 5    0  0.1972558E-002  0.7233703E+03  0.7546771E-02  0.9678080E-01
         21   -1    0    0  501  502  0.00000000000E+00  0.00000000000E+00  0.82035896451E+03  0.82035896451E+03  0.00000000000E+00 0.  1.
         21   -1    0    0  502  503 -0.00000000000E+00 -0.00000000000E+00 -0.14138557010E+04  0.14138557010E+04  0.00000000000E+00 0. -1.
         25    1    1    2    0    0 -0.18078927361E+03  0.69375951443E+03 -0.10159064285E+04  0.12496711154E+04  0.12500000000E+03 0.  0.
          4    1    1    2  501    0 -0.91072724655E+01 -0.23958965090E+02  0.27082208011E+03  0.27203230230E+03  0.00000000000E+00 0. -1.
         -4    1    1    2    0  503  0.18989654607E+03 -0.66980054934E+03  0.15158761191E+03  0.71251124776E+03  0.00000000000E+00 0.  1.
<mgrwt>
<rscale>  4 0.72337026E+03</rscale>
<asrwt>0</asrwt>
<pdfrwt beam="1">  1       21 0.12620907E+00 0.72337026E+03</pdfrwt>
<pdfrwt beam="2">  1       21 0.21751626E+00 0.72337026E+03</pdfrwt>
<totfact> 0.32812611E+01</totfact>
</mgrwt>
</event>
<event>
 5    0  0.1972558E-002  0.2434748E+03  0.7546771E-02  0.1117499E+00
         21   -1    0    0  501  502  0.00000000000E+00  0.00000000000E+00  0.20762313957E+04  0.20762313957E+04  0.00000000000E+00 0. -1.
         21   -1    0    0  502  503 -0.00000000000E+00 -0.00000000000E+00 -0.29083832850E+03  0.29083832850E+03  0.00000000000E+00 0.  1.
         25    1    1    2    0    0  0.18910271777E+03 -0.90537405445E+02 -0.22743512244E+03  0.33362942701E+03  0.12500000000E+03 0.  0.
          1    1    1    2  501    0 -0.19076231614E+03  0.54119955868E+02  0.97435134837E+03  0.99432378074E+03  0.00000000000E+00 0.  1.
         -1    1    1    2    0  503  0.16595983678E+01  0.36417449577E+02  0.10384768413E+04  0.10391165165E+04  0.00000000000E+00 0. -1.
<mgrwt>
<rscale>  4 0.24347477E+03</rscale>
<asrwt>0</asrwt>
<pdfrwt beam="1">  1       21 0.31942021E+00 0.24347477E+03</pdfrwt>
<pdfrwt beam="2">  1       21 0.44744360E-01 0.24347477E+03</pdfrwt>
<totfact> 0.11729255E+02</totfact>
</mgrwt>
</event>
<event>
 5    0  0.1972558E-002  0.3244742E+03  0.7546771E-02  0.1073608E+00
         21   -1    0    0  501  502  0.00000000000E+00  0.00000000000E+00  0.81666749730E+03  0.81666749730E+03  0.00000000000E+00 0. -1.
         21   -1    0    0  502  503 -0.00000000000E+00 -0.00000000000E+00 -0.14301787344E+04  0.14301787344E+04  0.00000000000E+00 0.  1.
         25    1    1    2    0    0 -0.63377318641E+02  0.29385206790E+03 -0.11985542107E+04  0.12419834613E+04  0.12500000000E+03 0.  0.
          1    1    1    2  501    0  0.11811535655E+03 -0.27395752364E+03 -0.10204950731E+03  0.31530630211E+03  0.00000000000E+00 0.  1.
         -1    1    1    2    0  503 -0.54738037908E+02 -0.19894544263E+02  0.68709248086E+03  0.68955646827E+03  0.00000000000E+00 0. -1.
<mgrwt>
<rscale>  4 0.32447422E+03</rscale>
<asrwt>0</asrwt>
<pdfrwt beam="1">  1       21 0.12564115E+00 0.32447422E+03</pdfrwt>
<pdfrwt beam="2">  1       21 0.22002750E+00 0.32447422E+03</pdfrwt>
<totfact> 0.40334201E+01</totfact>
</mgrwt>
</event>
<event>
 5    0  0.1972558E-002  0.2941934E+03  0.7546771E-02  0.1088180E+00
         21   -1    0    0  501  502  0.00000000000E+00  0.00000000000E+00  0.14360481991E+04  0.14360481991E+04  0.00000000000E+00 0. -1.
         21   -1    0    0  502  503 -0.00000000000E+00 -0.00000000000E+00 -0.12969897116E+03  0.12969897116E+03  0.00000000000E+00 0. -1.
         25    1    1    2    0    0  0.30564892036E+02  0.25524640121E+03  0.11357477329E+03  0.30758603201E+03  0.12500000000E+03 0.  0.
          2    1    1    2  501    0 -0.78441636848E+00 -0.29921865301E+03  0.68351710494E+03  0.74614211137E+03  0.00000000000E+00 0. -1.
         -2    1    1    2    0  503 -0.29780475668E+02  0.43972251791E+02  0.50925734971E+03  0.51201902689E+03  0.00000000000E+00 0.  1.
<mgrwt>
<rscale>  4 0.29419337E+03</rscale>
<asrwt>0</asrwt>
<pdfrwt beam="1">  1       21 0.22093048E+00 0.29419337E+03</pdfrwt>
<pdfrwt beam="2">  1       21 0.19953689E-01 0.29419337E+03</pdfrwt>
<totfact> 0.21068628E+03</totfact>
</mgrwt>
</event>
<event>
 5    0  0.1972558E-002  0.3028222E+03  0.7546771E-02  0.1083838E+00
         21   -1    0    0  501  502  0.00000000000E+00  0.00000000000E+00  0.79617714332E+03  0.79617714332E+03  0.00000000000E+00 0. -1.
         21   -1    0    0  502  503 -0.00000000000E+00 -0.00000000000E+00 -0.31475545587E+03  0.31475545587E+03  0.00000000000E+00 0. -1.
         25    1    1    2    0    0  0.19043652595E+03  0.20509995339E+03 -0.10263298622E+03  0.32325004433E+03  0.12500000000E+03 0.  0.
          3    1    1    2  501    0 -0.17059422924E+03 -0.20873253528E+03  0.77181298799E+02  0.28040794428E+03  0.00000000000E+00 0.  1.
         -3    1    1    2    0  503 -0.19842296714E+02  0.36325818851E+01  0.50687337486E+03  0.50727461058E+03  0.00000000000E+00 0. -1.
<mgrwt>
<rscale>  4 0.30282221E+03</rscale>
<asrwt>0</asrwt>
<pdfrwt beam="1">  1       21 0.12248879E+00 0.30282221E+03</pdfrwt>
<pdfrwt beam="2">  1       21 0.48423917E-01 0.30282221E+03</pdfrwt>
<totfact> 0.18819751E+03</totfact>
</mgrwt>
</event>
<event>
 5    0  0.1972558E-002  0.2593029E+03  0.7546771E-02  0.1107563E+00
         21   -1    0    0  501  502  0.00000000000E+00  0.00000000000E+00  0.15112975925E+03  0.15112975925E+03  0.00000000000E+00 0. -1.
         21   -1    0    0  502  503 -0.00000000000E+00 -0.00000000000E+00 -0.53006677933E+03  0.53006677933E+03  0.00000000000E+00 0. -1.
         25    1    1    2    0    0  0.22012056498E+03 -0.11502051335E+03 -0.14283693086E+03  0.31258626079E+03  0.12500000000E+03 0.  0.
          4    1    1    2  501    0 -0.19503486534E+03  0.95496821001E+02 -0.25233780279E+03  0.33291531691E+03  0.00000000000E+00 0. -1.
         -4    1    1    2    0  503 -0.25085699642E+02  0.19523692353E+02  0.16237713569E+02  0.35694960871E+02  0.00000000000E+00 0.  1.
<mgrwt>
<rscale>  4 0.25930286E+03</rscale>
<asrwt>0</asrwt>
<pdfrwt beam="1">  1       21 0.23250732E-01 0.25930286E+03</pdfrwt>
<pdfrwt beam="2">  1       21 0.81548736E-01 0.25930286E+03</pdfrwt>
<totfact> 0.22100543E+04</totfact>
</mgrwt>
</event>
<event>
 5    0  0.1972558E-002  0.2796722E+03  0.7546771E-02  0.1095868E+00
         21   -1    0    0  501  502  0.00000000000E+00  0.00000000000E+00  0.17312126709E+03  0.17312126709E+03  0.00000000000E+00 0. -1.
         21   -1    0    0  502  503 -0.00000000000E+00 -0.00000000000E+00 -0.82322330271E+03  0.82322330271E+03  0.00000000000E+00 0.  1.
         25    1    1    2    0    0  0.11144769524E+03 -0.23766574912E+03 -0.63024953871E+03  0.69407858210E+03  0.12500000000E+03 0.  0.
          2    1    1    2  501    0 -0.11839151071E+03  0.18575937773E+03 -0.68606047136E+02  0.23071602876E+03  0.00000000000E+00 0.  1.
         -2    1    1    2    0  503  0.69438154605E+01  0.51906371390E+02  0.48753550232E+02  0.71549958939E+02  0.00000000000E+00 0. -1.
<mgrwt>
<rscale>  4 0.27967219E+03</rscale>
<asrwt>0</asrwt>
<pdfrwt beam="1">  1       21 0.26634041E-01 0.27967219E+03</pdfrwt>
<pdfrwt beam="2">  1       21 0.12664974E+00 0.27967219E+03</pdfrwt>
<totfact> 0.58408599E+03</totfact>
</mgrwt>
</event>
<event>
 5    0  0.1972558E-002  0.4281339E+03  0.7546771E-02  0.1034451E+00
         21   -1    0    0  503  502  0.00000000000E+00  0.00000000000E+00  0.17887688252E+04  0.17887688252E+04  0.00000000000E+00 0. -1.
         21   -1    0    0  501  503 -0.00000000000E+00 -0.00000000000E+00 -0.12473130847E+03  0.12473130847E+03  0.00000000000E+00 0. -1.
         25    1    1    2    0    0 -0.40938215674E+03 -0.89361950161E+01  0.42576270538E+03  0.60379838285E+03  0.12500000000E+03 0.  0.
          1    1    1    2  501    0  0.18319241083E+03  0.13715585593E+02  0.74014358213E+03  0.76260087781E+03  0.00000000000E+00 0. -1.
         -1    1    1    2    0  502  0.22618974591E+03 -0.47793905772E+01  0.49813122925E+03  0.54710087304E+03  0.00000000000E+00 0.  1.
<mgrwt>
<rscale>  4 0.42813386E+03</rscale>
<asrwt>0</asrwt>
<pdfrwt beam="1">  1       21 0.27519519E+00 0.42813386E+03</pdfrwt>
<pdfrwt beam="2">  1       21 0.19189433E-01 0.42813386E+03</pdfrwt>
<totfact> 0.97375389E+02</totfact>
</mgrwt>
</event>
<event>
 5    0  0.1972558E-002  0.2486149E+03  0.7546771E-02  0.1114183E+00
         21   -1    0    0  501  502  0.00000000000E+00  0.00000000000E+00  0.59159843356E+03  0.59159843356E+03  0.00000000000E+00 0. -1.
         21   -1    0    0  502  503 -0.00000000000E+00 -0.00000000000E+00 -0.42461821805E+03  0.42461821805E+03  0.00000000000E+00 0. -1.
         25    1    1    2    0    0  0.14294625074E+03 -0.16343613105E+03 -0.35441228759E+03  0.43402542452E+03  0.12500000000E+03 0.  0.
          4    1    1    2  501    0 -0.13151860759E+03  0.14646548425E+03  0.29360756440E+03  0.35348929841E+03  0.00000000000E+00 0. -1.
         -4    1    1    2    0  503 -0.11427643145E+02  0.16970646795E+02  0.22778493871E+03  0.22870192868E+03  0.00000000000E+00 0.  1.
<mgrwt>
<rscale>  4 0.24861494E+03</rscale>
<asrwt>0</asrwt>
<pdfrwt beam="1">  1       21 0.91015145E-01 0.24861494E+03</pdfrwt>
<pdfrwt beam="2">  1       21 0.65325879E-01 0.24861494E+03</pdfrwt>
<totfact> 0.21091504E+03</totfact>
</mgrwt>
</event>
<event>
 5    0  0.1972558E-002  0.2264879E+03  0.7546771E-02  0.1129136E+00
         21   -1    0    0  501  502  0.00000000000E+00  0.00000000000E+00  0.48545723405E+03  0.48545723405E+03  0.00000000000E+00 0. -1.
         21   -1    0    0  502  503 -0.00000000000E+00 -0.00000000000E+00 -0.47747031868E+03  0.47747031868E+03  0.00000000000E+00 0.  1.
         25    1    1    2    0    0  0.12257679654E+03  0.16941478289E+03 -0.32720390080E+03  0.40793851548E+03  0.12500000000E+03 0.  0.
          4    1    1    2  501    0 -0.59205441085E+02 -0.21235652997E+02  0.38201877712E+03  0.38716221831E+03  0.00000000000E+00 0. -1.
         -4    1    1    2    0  503 -0.63371355458E+02 -0.14817912989E+03 -0.46827960948E+02  0.16782681894E+03  0.00000000000E+00 0.  1.
<mgrwt>
<rscale>  4 0.22648790E+03</rscale>
<asrwt>0</asrwt>
<pdfrwt beam="1">  1       21 0.74685729E-01 0.22648790E+03</pdfrwt>
<pdfrwt beam="2">  1       21 0.73456972E-01 0.22648790E+03</pdfrwt>
<totfact> 0.25991995E+03</totfact>
</mgrwt>
</event>
<event>
 5    0  0.1972558E-002  0.2366478E+03  0.7546771E-02  0.1122046E+00
         21   -1    0    0  501  502  0.00000000000E+00  0.00000000000E+00  0.18526145900E+03  0.18526145900E+03  0.00000000000E+00 0. -1.
         21   -1    0    0  502  503 -0.00000000000E+00 -0.00000000000E+00 -0.62031144638E+03  0.62031144638E+03  0.00000000000E+00 0. -1.
         25    1    1    2    0    0  0.19799379053E+03 -0.40661290319E+02 -0.51327492234E+03  0.56562445803E+03  0.12500000000E+03 0.  0.
          1    1    1    2  501    0 -0.19617810520E+03  0.10486595365E+02  0.70742595836E+02  0.20880692639E+03  0.00000000000E+00 0. -1.
         -1    1    1    2    0  503 -0.18156853208E+01  0.30174694954E+02  0.74823391286E+01  0.31141520958E+02  0.00000000000E+00 0.  1.
<mgrwt>
<rscale>  4 0.23664777E+03</rscale>
<asrwt>0</asrwt>
<pdfrwt beam="1">  1       21 0.28501763E-01 0.23664777E+03</pdfrwt>
<pdfrwt beam="2">  1       21 0.95432530E-01 0.23664777E+03</pdfrwt>
<totfact> 0.10485149E+04</totfact>
</mgrwt>
</event>
<event>
 5    0  0.1972558E-002  0.2174034E+03  0.7546771E-02  0.1135834E+00
         21   -1    0    0  501  502  0.00000000000E+00  0.00000000000E+00  0.15638450918E+03  0.15638450918E+03  0.00000000000E+00 0.  1.
         21   -1    0    0  502  503 -0.00000000000E+00 -0.00000000000E+00 -0.10722937094E+04  0.10722937094E+04  0.00000000000E+00 0. -1.
         25    1    1    2    0    0  0.20582130154E+03  0.10264189580E+02 -0.68811286330E+03  0.72910361019E+03  0.12500000000E+03 0.  0.
          4    1    1    2  501    0 -0.14966166553E+03 -0.46155240300E+02 -0.33701348770E+03  0.37162751678E+03  0.00000000000E+00 0. -1.
         -4    1    1    2    0  503 -0.56159636012E+02  0.35891050720E+02  0.10921715076E+03  0.12794709164E+03  0.00000000000E+00 0.  1.
<mgrwt>
<rscale>  4 0.21740335E+03</rscale>
<asrwt>0</asrwt>
<pdfrwt beam="1">  1       21 0.24059155E-01 0.21740335E+03</pdfrwt>
<pdfrwt beam="2">  1       21 0.16496826E+00 0.21740335E+03</pdfrwt>
<totfact> 0.36947427E+03</totfact>
</mgrwt>
</event>
<event>
 5    0  0.1972558E-002  0.3226863E+03  0.7546771E-02  0.1074420E+00
         21   -1    0    0  501  502  0.00000000000E+00  0.00000000000E+00  0.12662774007E+03  0.12662774007E+03  0.00000000000E+00 0. -1.
         21   -1    0    0  502  503 -0.00000000000E+00 -0.00000000000E+00 -0.89781424810E+03  0.89781424810E+03  0.00000000000E+00 0.  1.
         25    1    1    2    0    0 -0.99710643371E+00 -0.30015379011E+03 -0.52401382180E+03  0.61669180097E+03  0.12500000000E+03 0.  0.
          4    1    1    2  501    0 -0.22182714383E+02  0.29325675654E+03 -0.24620404375E+03  0.38354664544E+03  0.00000000000E+00 0. -1.
         -4    1    1    2    0  503  0.23179820817E+02  0.68970335747E+01 -0.96864248045E+00  0.24203541755E+02  0.00000000000E+00 0.  1.
<mgrwt>
<rscale>  4 0.32268626E+03</rscale>
<asrwt>0</asrwt>
<pdfrwt beam="1">  1       21 0.19481191E-01 0.32268626E+03</pdfrwt>
<pdfrwt beam="2">  1       21 0.13812526E+00 0.32268626E+03</pdfrwt>
<totfact> 0.83113071E+03</totfact>
</mgrwt>
</event>
<event>
 5    0  0.1972558E-002  0.4702437E+03  0.7546771E-02  0.1021851E+00
         21   -1    0    0  501  502  0.00000000000E+00  0.00000000000E+00  0.16122585138E+04  0.16122585138E+04  0.00000000000E+00 0.  1.
         21   -1    0    0  502  503 -0.00000000000E+00 -0.00000000000E+00 -0.31203670044E+03  0.31203670044E+03  0.00000000000E+00 0.  1.
         25    1    1    2    0    0  0.33167830713E+03 -0.31664840966E+03 -0.46105969282E+02  0.47752222478E+03  0.12500000000E+03 0.  0.
          1    1    1    2  501    0  0.36726060136E+00  0.41395877013E+02  0.45185534513E+03  0.45374773436E+03  0.00000000000E+00 0. -1.
         -1    1    1    2    0  503 -0.33204556773E+03  0.27525253264E+03  0.89447243752E+03  0.99302525510E+03  0.00000000000E+00 0.  1.
<mgrwt>
<rscale>  4 0.47024365E+03</rscale>
<asrwt>0</asrwt>
<pdfrwt beam="1">  1       21 0.24803977E+00 0.47024365E+03</pdfrwt>
<pdfrwt beam="2">  1       21 0.48005647E-01 0.47024365E+03</pdfrwt>
<totfact> 0.22365717E+02</totfact>
</mgrwt>
</event>
<event>
 5    0  0.1972558E-002  0.2382779E+03  0.7546771E-02  0.1120945E+00
         21   -1    0    0  501  502  0.00000000000E+00  0.00000000000E+00  0.82278004448E+02  0.82278004448E+02  0.00000000000E+00 0.  1.
         21   -1    0    0  502  503 -0.00000000000E+00 -0.00000000000E+00 -0.10566244198E+04  0.10566244198E+04  0.00000000000E+00 0.  1.
         25    1    1    2    0    0 -0.16868246691E+03 -0.12249949587E+03 -0.77252263610E+03  0.80986179341E+03  0.12500000000E+03 0.  0.
          2    1    1    2  501    0  0.21968476148E+02 -0.22224854173E+01  0.23766465033E+02  0.32440688123E+02  0.00000000000E+00 0.  1.
         -2    1    1    2    0  503  0.14671399076E+03  0.12472198129E+03 -0.22559024427E+03  0.29659994271E+03  0.00000000000E+00 0. -1.
<mgrwt>
<rscale>  4 0.23827786E+03</rscale>
<asrwt>0</asrwt>
<pdfrwt beam="1">  1       21 0.12658154E-01 0.23827786E+03</pdfrwt>
<pdfrwt beam="2">  1       21 0.16255760E+00 0.23827786E+03</pdfrwt>
<totfact> 0.12456760E+04</totfact>
</mgrwt>
</event>
<event>
 5    0  0.1972558E-002  0.4456780E+03  0.7546771E-02  0.1029019E+00
         21   -1    0    0  501  502  0.00000000000E+00  0.00000000000E+00  0.28165390056E+04  0.28165390056E+04  0.00000000000E+00 0. -1.
         21   -1    0    0  502  503 -0.00000000000E+00 -0.00000000000E+00 -0.92979168023E+02  0.92979168023E+02  0.00000000000E+00 0. -1.
         25    1    1    2    0    0 -0.34940480985E+03 -0.25860214725E+03  0.76216389073E+03  0.88627173488E+03  0.12500000000E+03 0.  0.
          2    1    1    2  501    0  0.41491898980E+02 -0.22660880839E+02  0.53640452974E+03  0.53848390202E+03  0.00000000000E+00 0.  1.
         -2    1    1    2    0  503  0.30791291087E+03  0.28126302809E+03  0.14249914171E+04  0.14847625368E+04  0.00000000000E+00 0. -1.
<mgrwt>
<rscale>  4 0.44567798E+03</rscale>
<asrwt>0</asrwt>
<pdfrwt beam="1">  1       21 0.43331363E+00 0.44567798E+03</pdfrwt>
<pdfrwt beam="2">  1       21 0.14304490E-01 0.44567798E+03</pdfrwt>
<totfact> 0.17394118E+02</totfact>
</mgrwt>
</event>
<event>
 5    0  0.1972558E-002  0.2353443E+03  0.7546771E-02  0.1122934E+00
         21   -1    0    0  501  502  0.00000000000E+00  0.00000000000E+00  0.24350337791E+03  0.24350337791E+03  0.00000000000E+00 0.  1.
         21   -1    0    0  502  503 -0.00000000000E+00 -0.00000000000E+00 -0.29952934750E+03  0.29952934750E+03  0.00000000000E+00 0. -1.
         25    1    1    2    0    0  0.21687929342E+03 -0.60453017513E+02 -0.97720120914E+02  0.27543677546E+03  0.12500000000E+03 0.  0.
          3    1    1    2  501    0 -0.76595696945E+02 -0.43704166266E+02  0.98319177900E+00  0.88192525792E+02  0.00000000000E+00 0. -1.
         -3    1    1    2    0  503 -0.14028359648E+03  0.10415718378E+03  0.40710959547E+02  0.17940342416E+03  0.00000000000E+00 0.  1.
<mgrwt>
<rscale>  4 0.23534432E+03</rscale>
<asrwt>0</asrwt>
<pdfrwt beam="1">  1       21 0.37462058E-01 0.23534432E+03</pdfrwt>
<pdfrwt beam="2">  1       21 0.46081438E-01 0.23534432E+03</pdfrwt>
<totfact> 0.30337374E+04</totfact>
</mgrwt>
</event>
<event>
 5    0  0.1972558E-002  0.3242744E+03  0.7546771E-02  0.1073699E+00
         21   -1    0    0  501  502  0.00000000000E+00  0.00000000000E+00  0.25032524414E+03  0.25032524414E+03  0.00000000000E+00 0. -1.
         21   -1    0    0  502  503 -0.00000000000E+00 -0.00000000000E+00 -0.71274658461E+03  0.71274658461E+03  0.00000000000E+00 0. -1.
         25    1    1    2    0    0 -0.21512012668E+03  0.19422741767E+03 -0.43100518190E+03  0.53422039039E+03  0.12500000000E+03 0.  0.
          4    1    1    2  501    0  0.24065266600E+03 -0.21040276419E+03 -0.11519775226E+03  0.33978456551E+03  0.00000000000E+00 0. -1.
         -4    1    1    2    0  503 -0.25532539325E+02  0.16175346514E+02  0.83781593684E+02  0.89066872851E+02  0.00000000000E+00 0.  1.
<mgrwt>
<rscale>  4 0.32427439E+03</rscale>
<asrwt>0</asrwt>
<pdfrwt beam="1">  1       21 0.38511577E-01 0.32427439E+03</pdfrwt>
<pdfrwt beam="2">  1       21 0.10965332E+00 0.32427439E+03</pdfrwt>
<totfact> 0.39318518E+03</totfact>
</mgrwt>
</event>
<event>
 5    0  0.1972558E-002  0.6507020E+03  0.7546771E-02  0.9810132E-01
         21   -1    0    0  501  502  0.00000000000E+00  0.00000000000E+00  0.12372739177E+04  0.12372739177E+04  0.00000000000E+00 0.  1.
         21   -1    0    0  502  503 -0.00000000000E+00 -0.00000000000E+00 -0.42768331548E+03  0.42768331548E+03  0.00000000000E+00 0. -1.
         25    1    1    2    0    0  0.58722775142E+03  0.22401476806E+03  0.19102815420E+02  0.64109980963E+03  0.12500000000E+03 0.  0.
          3    1    1    2  501    0 -0.53529214772E+03 -0.16620823908E+03  0.74979152174E+03  0.93613577446E+03  0.00000000000E+00 0.  1.
         -3    1    1    2    0  503 -0.51935603697E+02 -0.57806528984E+02  0.40696265018E+02  0.87721649044E+02  0.00000000000E+00 0. -1.
<mgrwt>
<rscale>  4 0.64821607E+03</rscale>
<asrwt>0</asrwt>
<pdfrwt beam="1">  1       21 0.19034983E+00 0.65070199E+03</pdfrwt>
<pdfrwt beam="2">  1       21 0.65797434E-01 0.65070199E+03</pdfrwt>
<totfact> 0.24666657E+02</totfact>
</mgrwt>
</event>
<event>
 5    0  0.1972558E-002  0.2683052E+03  0.7546771E-02  0.1102254E+00
         21   -1    0    0  503  502  0.00000000000E+00  0.00000000000E+00  0.61307617519E+02  0.61307617519E+02  0.00000000000E+00 0. -1.
         21   -1    0    0  501  503 -0.00000000000E+00 -0.00000000000E+00 -0.22361192673E+04  0.22361192673E+04  0.00000000000E+00 0. -1.
         25    1    1    2    0    0 -0.23908544989E+03  0.86536106273E+02 -0.15962537763E+04  0.16212037097E+04  0.12500000000E+03 0.  0.
          3    1    1    2  501    0  0.59659927879E+02  0.67904317522E+02 -0.28562737262E+03  0.29958855005E+03  0.00000000000E+00 0.  1.
         -3    1    1    2    0  502  0.17942552201E+03 -0.15444042379E+03 -0.29293050084E+03  0.37663462503E+03  0.00000000000E+00 0. -1.
<mgrwt>
<rscale>  4 0.26830518E+03</rscale>
<asrwt>0</asrwt>
<pdfrwt beam="1">  1       21 0.94319411E-02 0.26830518E+03</pdfrwt>
<pdfrwt beam="2">  1       21 0.34401835E+00 0.26830518E+03</pdfrwt>
<totfact> 0.15608754E+03</totfact>
</mgrwt>
</event>
<event>
 5    0  0.1972558E-002  0.2284259E+03  0.7546771E-02  0.1127753E+00
         21   -1    0    0  501  502  0.00000000000E+00  0.00000000000E+00  0.99599380171E+03  0.99599380171E+03  0.00000000000E+00 0.  1.
         21   -1    0    0  502  503 -0.00000000000E+00 -0.00000000000E+00 -0.74017146951E+02  0.74017146951E+02  0.00000000000E+00 0. -1.
         25    1    1    2    0    0 -0.41495601516E+02 -0.19711718739E+03  0.60940184493E+03  0.65389041827E+03  0.12500000000E+03 0.  0.
          1    1    1    2  501    0  0.70843486578E+02  0.17519222530E+03  0.12871158198E+03  0.22864336144E+03  0.00000000000E+00 0.  1.
         -1    1    1    2    0  503 -0.29347885062E+02  0.21924962088E+02  0.18386322785E+03  0.18747716894E+03  0.00000000000E+00 0. -1.
<mgrwt>
<rscale>  4 0.22842592E+03</rscale>
<asrwt>0</asrwt>
<pdfrwt beam="1">  1       21 0.15322981E+00 0.22842592E+03</pdfrwt>
<pdfrwt beam="2">  1       21 0.11387254E-01 0.22842592E+03</pdfrwt>
<totfact> 0.17783226E+04</totfact>
</mgrwt>
</event>
<event>
 5    0  0.1972558E-002  0.2382266E+03  0.7546771E-02  0.1120980E+00
         21   -1    0    0  501  502  0.00000000000E+00  0.00000000000E+00  0.21923970701E+04  0.21923970701E+04  0.00000000000E+00 0.  1.
         21   -1    0    0  502  503 -0.00000000000E+00 -0.00000000000E+00 -0.10594058922E+03  0.10594058922E+03  0.00000000000E+00 0.  1.
         25    1    1    2    0    0 -0.19250724899E+03  0.81098486416E+02  0.49226274044E+02  0.24836310408E+03  0.12500000000E+03 0.  0.
          4    1    1    2  501    0  0.14289384960E+03 -0.67154643425E+02  0.10936586359E+04  0.11049966563E+04  0.00000000000E+00 0.  1.
         -4    1    1    2    0  503  0.49613399393E+02 -0.13943842991E+02  0.94357157086E+03  0.94497789894E+03  0.00000000000E+00 0. -1.
<mgrwt>
<rscale>  4 0.23822658E+03</rscale>
<asrwt>0</asrwt>
<pdfrwt beam="1">  1       21 0.33729182E+00 0.23822658E+03</pdfrwt>
<pdfrwt beam="2">  1       21 0.16298554E-01 0.23822658E+03</pdfrwt>
<totfact> 0.65838508E+02</totfact>
</mgrwt>
</event>
<event>
 5    0  0.1972558E-002  0.4144669E+03  0.7546771E-02  0.1038882E+00
         21   -1    0    0  501  502  0.00000000000E+00  0.00000000000E+00  0.12042805695E+04  0.12042805695E+04  0.00000000000E+00 0.  1.
         21   -1    0    0  502  503 -0.00000000000E+00 -0.00000000000E+00 -0.41929188792E+03  0.41929188792E+03  0.00000000000E+00 0. -1.
         25    1    1    2    0    0 -0.19197793961E+03  0.23016908190E+03  0.11546938679E+03  0.34466144961E+03  0.12500000000E+03 0.  0.
          1    1    1    2  501    0 -0.98448464576E+02  0.14499802868E+03  0.77358277405E+03  0.79318776894E+03  0.00000000000E+00 0. -1.
         -1    1    1    2    0  503  0.29042640419E+03 -0.37516711059E+03 -0.10406347921E+03  0.48572323891E+03  0.00000000000E+00 0.  1.
<mgrwt>
<rscale>  4 0.41446691E+03</rscale>
<asrwt>0</asrwt>
<pdfrwt beam="1">  1       21 0.18527393E+00 0.41446691E+03</pdfrwt>
<pdfrwt beam="2">  1       21 0.64506445E-01 0.41446691E+03</pdfrwt>
<totfact> 0.30973989E+02</totfact>
</mgrwt>
</event>
<event>
 5    0  0.1972558E-002  0.2429287E+03  0.7546771E-02  0.1117857E+00
         21   -1    0    0  501  502  0.00000000000E+00  0.00000000000E+00  0.64860007329E+03  0.64860007329E+03  0.00000000000E+00 0. -1.
         21   -1    0    0  502  503 -0.00000000000E+00 -0.00000000000E+00 -0.18139417368E+03  0.18139417368E+03  0.00000000000E+00 0.  1.
         25    1    1    2    0    0 -0.45839712216E+02 -0.20319472026E+03 -0.66761358975E+02  0.25193541357E+03  0.12500000000E+03 0.  0.
          4    1    1    2  501    0  0.39062206120E+02  0.14031140414E+03  0.27173133678E+03  0.30830352815E+03  0.00000000000E+00 0.  1.
         -4    1    1    2    0  503  0.67775060961E+01  0.62883316115E+02  0.26223592180E+03  0.26975530527E+03  0.00000000000E+00 0. -1.
<mgrwt>
<rscale>  4 0.24292874E+03</rscale>
<asrwt>0</asrwt>
<pdfrwt beam="1">  1       21 0.99784625E-01 0.24292874E+03</pdfrwt>
<pdfrwt beam="2">  1       21 0.27906796E-01 0.24292874E+03</pdfrwt>
<totfact> 0.97930129E+03</totfact>
</mgrwt>
</event>
<event>
 5    0  0.1972558E-002  0.4319934E+03  0.7546771E-02  0.1033232E+00
         21   -1    0    0  501  502  0.00000000000E+00  0.00000000000E+00  0.50060759542E+03  0.50060759542E+03  0.00000000000E+00 0.  1.
         21   -1    0    0  502  503 -0.00000000000E+00 -0.00000000000E+00 -0.62701123725E+03  0.62701123725E+03  0.00000000000E+00 0. -1.
         25    1    1    2    0    0  0.18930884107E+03  0.43494524262E+03 -0.23544070477E+03  0.54412546977E+03  0.12500000000E+03 0.  0.
          4    1    1    2  501    0 -0.10895814858E+03 -0.33985503978E+03 -0.71704658128E+02  0.36402593892E+03  0.00000000000E+00 0. -1.
         -4    1    1    2    0  503 -0.80350692484E+02 -0.95090202845E+02  0.18074172106E+03  0.21946742399E+03  0.00000000000E+00 0.  1.
<mgrwt>
<rscale>  4 0.43199341E+03</rscale>
<asrwt>0</asrwt>
<pdfrwt beam="1">  1       21 0.77016554E-01 0.43199341E+03</pdfrwt>
<pdfrwt beam="2">  1       21 0.96463266E-01 0.43199341E+03</pdfrwt>
<totfact> 0.11503730E+03</totfact>
</mgrwt>
</event>
<event>
 5    0  0.1972558E-002  0.2637104E+03  0.7546771E-02  0.1104934E+00
         21   -1    0    0  501  502  0.00000000000E+00  0.00000000000E+00  0.59667157599E+03  0.59667157599E+03  0.00000000000E+00 0.  1.
         21   -1    0    0  502  503 -0.00000000000E+00 -0.00000000000E+00 -0.40569772551E+03  0.40569772551E+03  0.00000000000E+00 0. -1.
         25    1    1    2    0    0  0.22187310419E+03 -0.98122397041E+02 -0.32120666351E+03  0.42149068774E+03  0.12500000000E+03 0.  0.
          1    1    1    2  501    0 -0.50261308423E+02  0.48902027221E+02  0.27625756464E+03  0.28501903342E+03  0.00000000000E+00 0.  1.
         -1    1    1    2    0  503 -0.17161179577E+03  0.49220369819E+02  0.23592294935E+03  0.29585958034E+03  0.00000000000E+00 0. -1.
<mgrwt>
<rscale>  4 0.26371044E+03</rscale>
<asrwt>0</asrwt>
<pdfrwt beam="1">  1       21 0.91795627E-01 0.26371044E+03</pdfrwt>
<pdfrwt beam="2">  1       21 0.62415035E-01 0.26371044E+03</pdfrwt>
<totfact> 0.22604736E+03</totfact>
</mgrwt>
</event>
<event>
 5    0  0.1972558E-002  0.2930259E+03  0.7546771E-02  0.1088780E+00
         21   -1    0    0  501  502  0.00000000000E+00  0.00000000000E+00  0.33089802104E+03  0.33089802104E+03  0.00000000000E+00 0. -1.
         21   -1    0    0  502  503 -0.00000000000E+00 -0.00000000000E+00 -0.80445812907E+03  0.80445812907E+03  0.00000000000E+00 0. -1.
         25    1    1    2    0    0 -0.23990796804E+03 -0.10660919284E+03 -0.67216908058E+03  0.73236440794E+03  0.12500000000E+03 0.  0.
          2    1    1    2  501    0  0.25351651470E+03  0.12206950870E+03  0.94431449210E+02  0.29679772031E+03  0.00000000000E+00 0. -1.
         -2    1    1    2    0  503 -0.13608546654E+02 -0.15460315858E+02  0.10417752335E+03  0.10619402186E+03  0.00000000000E+00 0.  1.
<mgrwt>
<rscale>  4 0.29302585E+03</rscale>
<asrwt>0</asrwt>
<pdfrwt beam="1">  1       21 0.50907389E-01 0.29302585E+03</pdfrwt>
<pdfrwt beam="2">  1       21 0.12376279E+00 0.29302585E+03</pdfrwt>
<totfact> 0.16599722E+03</totfact>
</mgrwt>
</event>
<event>
 5    0  0.1972558E-002  0.4031347E+03  0.7546771E-02  0.1042700E+00
         21   -1    0    0  501  502  0.00000000000E+00  0.00000000000E+00  0.62438479302E+03  0.62438479302E+03  0.00000000000E+00 0.  1.
         21   -1    0    0  502  503 -0.00000000000E+00 -0.00000000000E+00 -0.36394460243E+03  0.36394460243E+03  0.00000000000E+00 0.  1.
         25    1    1    2    0    0  0.11265414362E+03  0.37558490231E+03 -0.29524723964E+02  0.41261566165E+03  0.12500000000E+03 0.  0.
          4    1    1    2  501    0  0.22033254625E+01 -0.21679456907E+02  0.18890330298E+03  0.19015601850E+03  0.00000000000E+00 0. -1.
         -4    1    1    2    0  503 -0.11485746908E+03 -0.35390544540E+03  0.10106161157E+03  0.38555771529E+03  0.00000000000E+00 0.  1.
<mgrwt>
<rscale>  4 0.40313467E+03</rscale>
<asrwt>0</asrwt>
<pdfrwt beam="1">  1       21 0.96059199E-01 0.40313467E+03</pdfrwt>
<pdfrwt beam="2">  1       21 0.55991477E-01 0.40313467E+03</pdfrwt>
<totfact> 0.23895201E+03</totfact>
</mgrwt>
</event>
<event>
 5    0  0.1972558E-002  0.2800030E+03  0.7546771E-02  0.1095687E+00
         21   -1    0    0  503  502  0.00000000000E+00  0.00000000000E+00  0.15124942024E+04  0.15124942024E+04  0.00000000000E+00 0.  1.
         21   -1    0    0  501  503 -0.00000000000E+00 -0.00000000000E+00 -0.26225929929E+03  0.26225929929E+03  0.00000000000E+00 0. -1.
         25    1    1    2    0    0  0.68798792898E+01  0.24782698437E+03 -0.12345728863E+03  0.30386222048E+03  0.12500000000E+03 0.  0.
          1    1    1    2  501    0  0.62000107324E+02 -0.26166019136E+03  0.33385363063E+03  0.42868206836E+03  0.00000000000E+00 0. -1.
         -1    1    1    2    0  502 -0.68879986614E+02  0.13833206984E+02  0.10398385611E+04  0.10422092128E+04  0.00000000000E+00 0.  1.
<mgrwt>
<rscale>  4 0.28000300E+03</rscale>
<asrwt>0</asrwt>
<pdfrwt beam="1">  1       21 0.23269141E+00 0.28000300E+03</pdfrwt>
<pdfrwt beam="2">  1       21 0.40347585E-01 0.28000300E+03</pdfrwt>
<totfact> 0.45405058E+02</totfact>
</mgrwt>
</event>
<event>
 5    0  0.1972558E-002  0.2504692E+03  0.7546771E-02  0.1113009E+00
         21   -1    0    0  501  502  0.00000000000E+00  0.00000000000E+00  0.14885423434E+04  0.14885423434E+04  0.00000000000E+00 0. -1.
         21   -1    0    0  502  503 -0.00000000000E+00 -0.00000000000E+00 -0.61431051966E+02  0.61431051966E+02  0.00000000000E+00 0. -1.
         25    1    1    2    0    0  0.17947248235E+03 -0.13178476183E+03  0.30556980730E+03  0.39821539712E+03  0.12500000000E+03 0.  0.
          4    1    1    2  501    0 -0.15690837268E+03  0.13344676748E+03  0.70171350995E+03  0.73132081005E+03  0.00000000000E+00 0. -1.
         -4    1    1    2    0  503 -0.22564109665E+02 -0.16620056414E+01  0.41982797421E+03  0.42043718822E+03  0.00000000000E+00 0.  1.
<mgrwt>
<rscale>  4 0.25046920E+03</rscale>
<asrwt>0</asrwt>
<pdfrwt beam="1">  1       21 0.22900649E+00 0.25046920E+03</pdfrwt>
<pdfrwt beam="2">  1       21 0.94509322E-02 0.25046920E+03</pdfrwt>
<totfact> 0.75732215E+03</totfact>
</mgrwt>
</event>
<event>
 5    0  0.1972558E-002  0.3213697E+03  0.7546771E-02  0.1075021E+00
         21   -1    0    0  501  502  0.00000000000E+00  0.00000000000E+00  0.85473566799E+03  0.85473566799E+03  0.00000000000E+00 0.  1.
         21   -1    0    0  502  503 -0.00000000000E+00 -0.00000000000E+00 -0.63893927521E+03  0.63893927521E+03  0.00000000000E+00 0.  1.
         25    1    1    2    0    0 -0.20983108374E+03 -0.37152652021E+03 -0.46203848588E+02  0.44701323755E+03  0.12500000000E+03 0.  0.
          3    1    1    2  501    0  0.30465736302E+02  0.17347506786E+03  0.59453508022E+03  0.62007557755E+03  0.00000000000E+00 0.  1.
         -3    1    1    2    0  503  0.17936534744E+03  0.19805145235E+03 -0.33253483885E+03  0.42658612811E+03  0.00000000000E+00 0. -1.
<mgrwt>
<rscale>  4 0.32136970E+03</rscale>
<asrwt>0</asrwt>
<pdfrwt beam="1">  1       21 0.13149780E+00 0.32136970E+03</pdfrwt>
<pdfrwt beam="2">  1       21 0.98298349E-01 0.32136970E+03</pdfrwt>
<totfact> 0.31932099E+02</totfact>
</mgrwt>
</event>
<event>
 5    0  0.1972558E-002  0.2150139E+03  0.7546771E-02  0.1137656E+00
         21   -1    0    0  501  502  0.00000000000E+00  0.00000000000E+00  0.11763349230E+04  0.11763349230E+04  0.00000000000E+00 0.  1.
         21   -1    0    0  502  503 -0.00000000000E+00 -0.00000000000E+00 -0.46022586243E+03  0.46022586243E+03  0.00000000000E+00 0. -1.
         25    1    1    2    0    0  0.14117558634E+03  0.14825669637E+03 -0.11603316520E+03  0.26645691889E+03  0.12500000000E+03 0.  0.
          1    1    1    2  501    0 -0.28106351900E+02 -0.28192408946E+02  0.10754394171E+04  0.10761759702E+04  0.00000000000E+00 0.  1.
         -1    1    1    2    0  503 -0.11306923444E+03 -0.12006428742E+03 -0.24329719139E+03  0.29392789631E+03  0.00000000000E+00 0. -1.
<mgrwt>
<rscale>  4 0.21501391E+03</rscale>
<asrwt>0</asrwt>
<pdfrwt beam="1">  1       21 0.18097460E+00 0.21501391E+03</pdfrwt>
<pdfrwt beam="2">  1       21 0.70803979E-01 0.21501391E+03</pdfrwt>
<totfact> 0.31524188E+02</totfact>
</mgrwt>
</event>
<event>
 5    0  0.1972558E-002  0.2834669E+03  0.7546771E-02  0.1093810E+00
         21   -1    0    0  503  502  0.00000000000E+00  0.00000000000E+00  0.83423403316E+03  0.83423403316E+03  0.00000000000E+00 0. -1.
         21   -1    0    0  501  503 -0.00000000000E+00 -0.00000000000E+00 -0.10479372507E+03  0.10479372507E+03  0.00000000000E+00 0. -1.
         25    1    1    2    0    0  0.18970677056E+03 -0.16952826337E+03  0.19927223613E+03  0.34650095955E+03  0.12500000000E+03 0.  0.
          4    1    1    2  501    0 -0.52003869278E+02  0.11224259544E+02  0.83079284422E+02  0.98653707089E+02  0.00000000000E+00 0.  1.
         -4    1    1    2    0  502 -0.13770290128E+03  0.15830400383E+03  0.44708878754E+03  0.49387309159E+03  0.00000000000E+00 0. -1.
<mgrwt>
<rscale>  4 0.28346691E+03</rscale>
<asrwt>0</asrwt>
<pdfrwt beam="1">  1       21 0.12834369E+00 0.28346691E+03</pdfrwt>
<pdfrwt beam="2">  1       21 0.16122112E-01 0.28346691E+03</pdfrwt>
<totfact> 0.14564575E+04</totfact>
</mgrwt>
</event>
<event>
 5    0  0.1972558E-002  0.2978512E+03  0.7546771E-02  0.1086320E+00
         21   -1    0    0  501  502  0.00000000000E+00  0.00000000000E+00  0.23821436970E+03  0.23821436970E+03  0.00000000000E+00 0.  1.
         21   -1    0    0  502  503 -0.00000000000E+00 -0.00000000000E+00 -0.86476963932E+03  0.86476963932E+03  0.00000000000E+00 0.  1.
         25    1    1    2    0    0  0.21538193941E+03  0.16097486869E+03 -0.68401693540E+03  0.74552428269E+03  0.12500000000E+03 0.  0.
          3    1    1    2  501    0 -0.25100594609E+03 -0.12548653757E+03 -0.63176717087E+00  0.28062654047E+03  0.00000000000E+00 0.  1.
         -3    1    1    2    0  503  0.35624006685E+02 -0.35488331124E+02  0.58093432943E+02  0.76833185860E+02  0.00000000000E+00 0. -1.
<mgrwt>
<rscale>  4 0.29785122E+03</rscale>
<asrwt>0</asrwt>
<pdfrwt beam="1">  1       21 0.36648364E-01 0.29785122E+03</pdfrwt>
<pdfrwt beam="2">  1       21 0.13304148E+00 0.29785122E+03</pdfrwt>
<totfact> 0.27114640E+03</totfact>
</mgrwt>
</event>
<event>
 5    0  0.1972558E-002  0.2440240E+03  0.7546771E-02  0.1117141E+00
         21   -1    0    0  501  502  0.00000000000E+00  0.00000000000E+00  0.23482412039E+03  0.23482412039E+03  0.00000000000E+00 0.  1.
         21   -1    0    0  502  503 -0.00000000000E+00 -0.00000000000E+00 -0.70666225614E+03  0.70666225614E+03  0.00000000000E+00 0. -1.
         25    1    1    2    0    0 -0.20951362124E+03  0.61265451694E+02 -0.43739505289E+03  0.50456797892E+03  0.12500000000E+03 0.  0.
          2    1    1    2  501    0  0.17241698753E+03 -0.10572441499E+03 -0.18593922611E+03  0.27473380811E+03  0.00000000000E+00 0. -1.
         -2    1    1    2    0  503  0.37096633715E+02  0.44458963292E+02  0.15149614325E+03  0.16218458949E+03  0.00000000000E+00 0.  1.
<mgrwt>
<rscale>  4 0.24402403E+03</rscale>
<asrwt>0</asrwt>
<pdfrwt beam="1">  1       21 0.36126788E-01 0.24402403E+03</pdfrwt>
<pdfrwt beam="2">  1       21 0.10871727E+00 0.24402403E+03</pdfrwt>
<totfact> 0.47807745E+03</totfact>
</mgrwt>
</event>
<event>
 5    0  0.1972558E-002  0.2591549E+03  0.7546771E-02  0.1107652E+00
         21   -1    0    0  501  502  0.00000000000E+00  0.00000000000E+00  0.88531313725E+02  0.88531313725E+02  0.00000000000E+00 0.  1.
         21   -1    0    0  502  503 -0.00000000000E+00 -0.00000000000E+00 -0.83751020272E+03  0.83751020272E+03  0.00000000000E+00 0.  1.
         25    1    1    2    0    0 -0.11555299878E+03 -0.20525648173E+03 -0.51071686883E+03  0.57614185660E+03  0.12500000000E+03 0.  0.
          4    1    1    2  501    0  0.21468954373E+01  0.20888140520E+02  0.76004443177E+01  0.22331375422E+02  0.00000000000E+00 0.  1.
         -4    1    1    2    0  503  0.11340610334E+03  0.18436834122E+03 -0.24586246448E+03  0.32756828442E+03  0.00000000000E+00 0. -1.
<mgrwt>
<rscale>  4 0.25915493E+03</rscale>
<asrwt>0</asrwt>
<pdfrwt beam="1">  1       21 0.13620202E-01 0.25915493E+03</pdfrwt>
<pdfrwt beam="2">  1       21 0.12884773E+00 0.25915493E+03</pdfrwt>
<totfact> 0.19881307E+04</totfact>
</mgrwt>
</event>
<event>
 5    0  0.1972558E-002  0.2226400E+03  0.7546771E-02  0.1131930E+00
         21   -1    0    0  501  502  0.00000000000E+00  0.00000000000E+00  0.68575754776E+03  0.68575754776E+03  0.00000000000E+00 0.  1.
         21   -1    0    0  502  503 -0.00000000000E+00 -0.00000000000E+00 -0.18916654562E+03  0.18916654562E+03  0.00000000000E+00 0.  1.
         25    1    1    2    0    0  0.27061146901E+03 -0.12853994429E+02  0.18944552191E+03  0.35342665167E+03  0.12500000000E+03 0.  0.
          4    1    1    2  501    0 -0.11989541958E+03 -0.53561419628E+02  0.33004815774E+03  0.35521194200E+03  0.00000000000E+00 0. -1.
         -4    1    1    2    0  503 -0.15071604943E+03  0.66415414057E+02 -0.22902677516E+02  0.16628549972E+03  0.00000000000E+00 0.  1.
<mgrwt>
<rscale>  4 0.22264004E+03</rscale>
<asrwt>0</asrwt>
<pdfrwt beam="1">  1       21 0.10550116E+00 0.22264004E+03</pdfrwt>
<pdfrwt beam="2">  1       21 0.29102546E-01 0.22264004E+03</pdfrwt>
<totfact> 0.79938828E+03</totfact>
</mgrwt>
</event>
<event>
 5    0  0.1972558E-002  0.2614141E+03  0.7546771E-02  0.1106297E+00
         21   -1    0    0  501  502  0.00000000000E+00  0.00000000000E+00  0.19888348182E+04  0.19888348182E+04  0.00000000000E+00 0.  1.
         21   -1    0    0  502  503 -0.00000000000E+00 -0.00000000000E+00 -0.14955235781E+03  0.14955235781E+03  0.00000000000E+00 0.  1.
         25    1    1    2    0    0  0.23071622969E+03  0.25372015371E+02 -0.17084041595E+02  0.26417907238E+03  0.12500000000E+03 0.  0.
          3    1    1    2  501    0 -0.19177574883E+03 -0.28877252318E+02  0.17529857708E+04  0.17636810783E+04  0.00000000000E+00 0.  1.
         -3    1    1    2    0  503 -0.38940480859E+02  0.35052369468E+01  0.10338073125E+03  0.11052702533E+03  0.00000000000E+00 0. -1.
<mgrwt>
<rscale>  4 0.26141411E+03</rscale>
<asrwt>0</asrwt>
<pdfrwt beam="1">  1       21 0.30597457E+00 0.26141411E+03</pdfrwt>
<pdfrwt beam="2">  1       21 0.23008056E-01 0.26141411E+03</pdfrwt>
<totfact> 0.51371204E+02</totfact>
</mgrwt>
</event>
