<event>
 5    0  0.1781295E-001  0.2807927E+03  0.7546771E-02  0.1095257E+00
         21   -1    0    0  501  502  0.00000000000E+00  0.00000000000E+00  0.11246102856E+03  0.11246102856E+03  0.00000000000E+00 0. -1.
         21   -1    0    0  502  503 -0.00000000000E+00 -0.00000000000E+00 -0.11600171451E+04  0.11600171451E+04  0.00000000000E+00 0. -1.
         25    1    1    2    0    0  0.22240460765E+03  0.11728479095E+03 -0.11443638832E+03  0.30321645514E+03  0.12500000000E+03 0.  0.
          4    1    1    2  501    0 -0.21216700894E+03 -0.86978446602E+02 -0.84314059240E+03  0.87376549967E+03  0.00000000000E+00 0. -1.
         -4    1    1    2    0  503 -0.10237598716E+02 -0.30306344344E+02 -0.89979135807E+02  0.95496218855E+02  0.00000000000E+00 0.  1.
<mgrwt>
<rscale>  4 0.28079268E+03</rscale>
<asrwt>0</asrwt>
<pdfrwt beam="1">  1       21 0.17301695E-01 0.28079268E+03</pdfrwt>
<pdfrwt beam="2">  1       21 0.17846419E+00 0.28079268E+03</pdfrwt>
<totfact> 0.52741108E+03</totfact>
</mgrwt>
</event>
<event>
 5    0  0.1781295E-001  0.2518119E+03  0.7546771E-02  0.1112165E+00
         21   -1    0    0  501  502  0.00000000000E+00  0.00000000000E+00  0.20016907040E+03  0.20016907040E+03  0.00000000000E+00 0.  1.
         21   -1    0    0  502  503 -0.00000000000E+00 -0.00000000000E+00 -0.35388042199E+03  0.35388042199E+03  0.00000000000E+00 0.  1.
         25    1    1    2    0    0  0.23375642070E+03  0.28168427440E+01 -0.60605350590E+02  0.27193382898E+03  0.12500000000E+03 0.  0.
          1    1    1    2  501    0 -0.20689446289E+03 -0.22308831470E+02 -0.29236145989E+02  0.21013746684E+03  0.00000000000E+00 0.  1.
         -1    1    1    2    0  503 -0.26861957811E+02  0.19491988726E+02 -0.63869855017E+02  0.71978196573E+02  0.00000000000E+00 0. -1.
<mgrwt>
<rscale>  4 0.25181186E+03</rscale>
<asrwt>0</asrwt>
<pdfrwt beam="1">  1       21 0.30795242E-01 0.25181186E+03</pdfrwt>
<pdfrwt beam="2">  1       21 0.54443141E-01 0.25181186E+03</pdfrwt>
<totfact> 0.31340470E+04</totfact>
</mgrwt>
</event>
<event>
 5    0  0.1781295E-001  0.2829683E+03  0.7546771E-02  0.1094079E+00
         21   -1    0    0  501  502  0.00000000000E+00  0.00000000000E+00  0.64121667485E+03  0.64121667485E+03  0.00000000000E+00 0. -1.
         21   -1    0    0  502  503 -0.00000000000E+00 -0.00000000000E+00 -0.75129687642E+03  0.75129687642E+03  0.00000000000E+00 0.  1.
         25    1    1    2    0    0  0.75908971428E+02 -0.24224752395E+03  0.58359488251E+03  0.64857846225E+03  0.12500000000E+03 0.  0.
          4    1    1    2  501    0 -0.15435719837E+02  0.57472813781E+02 -0.28792888605E+03  0.29401433501E+03  0.00000000000E+00 0. -1.
         -4    1    1    2    0  503 -0.60473251592E+02  0.18477471017E+03 -0.40574619803E+03  0.44992075401E+03  0.00000000000E+00 0.  1.
<mgrwt>
<rscale>  4 0.28296826E+03</rscale>
<asrwt>0</asrwt>
<pdfrwt beam="1">  1       21 0.98648719E-01 0.28296826E+03</pdfrwt>
<pdfrwt beam="2">  1       21 0.11558414E+00 0.28296826E+03</pdfrwt>
<totfact> 0.45113391E+02</totfact>
</mgrwt>
</event>
<event>
 5    0  0.1781295E-001  0.2427691E+03  0.7546771E-02  0.1117962E+00
         21   -1    0    0  501  502  0.00000000000E+00  0.00000000000E+00  0.70966530370E+02  0.70966530370E+02  0.00000000000E+00 0. -1.
         21   -1    0    0  502  503 -0.00000000000E+00 -0.00000000000E+00 -0.15003068512E+04  0.15003068512E+04  0.00000000000E+00 0.  1.
         25    1    1    2    0    0 -0.19848118562E+03  0.62586396957E+02 -0.17558963556E+03  0.29961401544E+03  0.12500000000E+03 0.  0.
          3    1    1    2  501    0  0.10496370419E+03 -0.42727515774E+02 -0.79644788459E+03  0.80447016891E+03  0.00000000000E+00 0.  1.
         -3    1    1    2    0  503  0.93517481428E+02 -0.19858881182E+02 -0.45730280065E+03  0.46718919720E+03  0.00000000000E+00 0. -1.
<mgrwt>
<rscale>  4 0.24276910E+03</rscale>
<asrwt>0</asrwt>
<pdfrwt beam="1">  1       21 0.10917928E-01 0.24276910E+03</pdfrwt>
<pdfrwt beam="2">  1       21 0.23081644E+00 0.24276910E+03</pdfrwt>
<totfact> 0.57448705E+03</totfact>
</mgrwt>
</event>
<event>
 5    0  0.1781295E-001  0.3182818E+03  0.7546771E-02  0.1076443E+00
         21   -1    0    0  501  502  0.00000000000E+00  0.00000000000E+00  0.30292580049E+03  0.30292580049E+03  0.00000000000E+00 0.  1.
         21   -1    0    0  502  503 -0.00000000000E+00 -0.00000000000E+00 -0.34641217599E+03  0.34641217599E+03  0.00000000000E+00 0. -1.
         25    1    1    2    0    0 -0.29270837156E+03 -0.35561883632E+00  0.64230511997E+02  0.32469813045E+03  0.12500000000E+03 0.  0.
          4    1    1    2  501    0  0.25710172739E+03  0.17289187962E+02 -0.63488425212E+02  0.26538838404E+03  0.00000000000E+00 0. -1.
         -4    1    1    2    0  503  0.35606644163E+02 -0.16933569125E+02 -0.44228462288E+02  0.59251461993E+02  0.00000000000E+00 0.  1.
<mgrwt>
<rscale>  4 0.31828182E+03</rscale>
<asrwt>0</asrwt>
<pdfrwt beam="1">  1       21 0.46603970E-01 0.31828182E+03</pdfrwt>
<pdfrwt beam="2">  1       21 0.53294180E-01 0.31828182E+03</pdfrwt>
<totfact> 0.13782265E+04</totfact>
</mgrwt>
</event>
<event>
 5    0  0.1781295E-001  0.2390025E+03  0.7546771E-02  0.1120459E+00
         21   -1    0    0  501  502  0.00000000000E+00  0.00000000000E+00  0.18203039780E+03  0.18203039780E+03  0.00000000000E+00 0. -1.
         21   -1    0    0  502  503 -0.00000000000E+00 -0.00000000000E+00 -0.39905202045E+03  0.39905202045E+03  0.00000000000E+00 0. -1.
         25    1    1    2    0    0 -0.15208730796E+03  0.13552352461E+03 -0.27763456521E+03  0.36633744931E+03  0.12500000000E+03 0.  0.
          3    1    1    2  501    0  0.30188972286E+02 -0.12748235151E+02  0.13426599568E+02  0.35414193809E+02  0.00000000000E+00 0.  1.
         -3    1    1    2    0  503  0.12189833568E+03 -0.12277528946E+03  0.47186343001E+02  0.17933077513E+03  0.00000000000E+00 0. -1.
<mgrwt>
<rscale>  4 0.23900246E+03</rscale>
<asrwt>0</asrwt>
<pdfrwt beam="1">  1       21 0.28004677E-01 0.23900246E+03</pdfrwt>
<pdfrwt beam="2">  1       21 0.61392618E-01 0.23900246E+03</pdfrwt>
<totfact> 0.29327858E+04</totfact>
</mgrwt>
</event>
<event>
 5    0  0.1781295E-001  0.1766304E+03  0.7546771E-02  0.1171105E+00
         21   -1    0    0  501  502  0.00000000000E+00  0.00000000000E+00  0.27289348007E+03  0.27289348007E+03  0.00000000000E+00 0. -1.
         21   -1    0    0  502  503 -0.00000000000E+00 -0.00000000000E+00 -0.11344208610E+04  0.11344208610E+04  0.00000000000E+00 0. -1.
         25    1    1    2    0    0 -0.53658074485E+02  0.22352448865E+03  0.16332765363E+03  0.30845308950E+03  0.12500000000E+03 0.  0.
          4    1    1    2  501    0  0.28105554995E+02 -0.10314105047E+03 -0.53134339972E+02  0.11937862705E+03  0.00000000000E+00 0.  1.
         -4    1    1    2    0  503  0.25552519490E+02 -0.12038343818E+03 -0.97172069455E+03  0.97948262448E+03  0.00000000000E+00 0. -1.
<mgrwt>
<rscale>  4 0.17663039E+03</rscale>
<asrwt>0</asrwt>
<pdfrwt beam="1">  1       21 0.41983612E-01 0.17663039E+03</pdfrwt>
<pdfrwt beam="2">  1       21 0.17452629E+00 0.17663039E+03</pdfrwt>
<totfact> 0.11029679E+03</totfact>
</mgrwt>
</event>
<event>
 5    0  0.1781295E-001  0.2327609E+03  0.7546771E-02  0.1124711E+00
         21   -1    0    0  501  502  0.00000000000E+00  0.00000000000E+00  0.57601142715E+03  0.57601142715E+03  0.00000000000E+00 0. -1.
         21   -1    0    0  502  503 -0.00000000000E+00 -0.00000000000E+00 -0.17425511876E+03  0.17425511876E+03  0.00000000000E+00 0. -1.
         25    1    1    2    0    0 -0.59173126423E+02  0.20276623737E+03  0.41048329717E+03  0.47826472080E+03  0.12500000000E+03 0.  0.
          4    1    1    2  501    0  0.10993825336E+03 -0.12041039666E+03 -0.44240363971E+02  0.16894464472E+03  0.00000000000E+00 0. -1.
         -4    1    1    2    0  503 -0.50765126937E+02 -0.82355840713E+02  0.35513375195E+02  0.10305718039E+03  0.00000000000E+00 0.  1.
<mgrwt>
<rscale>  4 0.23276088E+03</rscale>
<asrwt>0</asrwt>
<pdfrwt beam="1">  1       21 0.88617142E-01 0.23276088E+03</pdfrwt>
<pdfrwt beam="2">  1       21 0.26808480E-01 0.23276088E+03</pdfrwt>
<totfact> 0.14073052E+04</totfact>
</mgrwt>
</event>
<event>
 5    0  0.1781295E-001  0.2760314E+03  0.7546771E-02  0.1097876E+00
         21   -1    0    0  501  502  0.00000000000E+00  0.00000000000E+00  0.44563508993E+03  0.44563508993E+03  0.00000000000E+00 0. -1.
         21   -1    0    0  502  503 -0.00000000000E+00 -0.00000000000E+00 -0.71149239248E+03  0.71149239248E+03  0.00000000000E+00 0. -1.
         25    1    1    2    0    0  0.19374510033E+03  0.15272444848E+03  0.37396919932E+03  0.46512351382E+03  0.12500000000E+03 0.  0.
          2    1    1    2  501    0 -0.20667501357E+02  0.12515581171E+02 -0.65961487591E+02  0.70247442869E+02  0.00000000000E+00 0.  1.
         -2    1    1    2    0  503 -0.17307759898E+03 -0.16524002965E+03 -0.57386501428E+03  0.62175652573E+03  0.00000000000E+00 0. -1.
<mgrwt>
<rscale>  4 0.27603142E+03</rscale>
<asrwt>0</asrwt>
<pdfrwt beam="1">  1       21 0.68559245E-01 0.27603142E+03</pdfrwt>
<pdfrwt beam="2">  1       21 0.10946037E+00 0.27603142E+03</pdfrwt>
<totfact> 0.11959777E+03</totfact>
</mgrwt>
</event>
<event>
 5    0  0.1781295E-001  0.1983713E+03  0.7546771E-02  0.1151120E+00
         21   -1    0    0  501  502  0.00000000000E+00  0.00000000000E+00  0.15275243380E+04  0.15275243380E+04  0.00000000000E+00 0.  1.
         21   -1    0    0  502  503 -0.00000000000E+00 -0.00000000000E+00 -0.40967727332E+02  0.40967727332E+02  0.00000000000E+00 0.  1.
         25    1    1    2    0    0  0.11522001176E+03 -0.17675140922E+03  0.72826426824E+03  0.76844684668E+03  0.12500000000E+03 0.  0.
          4    1    1    2  501    0 -0.12158157172E+03  0.56889079807E+02  0.36829115444E+03  0.39199084227E+03  0.00000000000E+00 0.  1.
         -4    1    1    2    0  503  0.63615599612E+01  0.11986232941E+03  0.39000118799E+03  0.40805437639E+03  0.00000000000E+00 0. -1.
<mgrwt>
<rscale>  4 0.19837126E+03</rscale>
<asrwt>0</asrwt>
<pdfrwt beam="1">  1       21 0.23500370E+00 0.19837126E+03</pdfrwt>
<pdfrwt beam="2">  1       21 0.63027284E-02 0.19837126E+03</pdfrwt>
<totfact> 0.14714591E+04</totfact>
</mgrwt>
</event>
<event>
 5    0  0.1781295E-001  0.2782289E+03  0.7546771E-02  0.1096660E+00
         21   -1    0    0  501  502  0.00000000000E+00  0.00000000000E+00  0.64154728015E+02  0.64154728015E+02  0.00000000000E+00 0. -1.
         21   -1    0    0  502  503 -0.00000000000E+00 -0.00000000000E+00 -0.11943362248E+04  0.11943362248E+04  0.00000000000E+00 0.  1.
         25    1    1    2    0    0 -0.24717533898E+03 -0.26280798706E+02 -0.44977652105E+03  0.52887640094E+03  0.12500000000E+03 0.  0.
          3    1    1    2  501    0  0.20097687160E+03  0.14250105999E+02 -0.62398621875E+03  0.65570844865E+03  0.00000000000E+00 0.  1.
         -3    1    1    2    0  503  0.46198467375E+02  0.12030692707E+02 -0.56418756978E+02  0.73906103224E+02  0.00000000000E+00 0. -1.
<mgrwt>
<rscale>  4 0.27822891E+03</rscale>
<asrwt>0</asrwt>
<pdfrwt beam="1">  1       21 0.98699579E-02 0.27822891E+03</pdfrwt>
<pdfrwt beam="2">  1       21 0.18374404E+00 0.27822891E+03</pdfrwt>
<totfact> 0.13471409E+04</totfact>
</mgrwt>
</event>
<event>
 5    0  0.1781295E-001  0.2051762E+03  0.7546771E-02  0.1145444E+00
         21   -1    0    0  501  502  0.00000000000E+00  0.00000000000E+00  0.12029356592E+03  0.12029356592E+03  0.00000000000E+00 0.  1.
         21   -1    0    0  502  503 -0.00000000000E+00 -0.00000000000E+00 -0.52777653254E+03  0.52777653254E+03  0.00000000000E+00 0.  1.
         25    1    1    2    0    0  0.19996486187E+03 -0.92124509606E+02 -0.17540662901E+03  0.30800220251E+03  0.12500000000E+03 0.  0.
          3    1    1    2  501    0 -0.66069294921E+02  0.38898331316E+02 -0.12863632314E+02  0.77741269265E+02  0.00000000000E+00 0. -1.
         -3    1    1    2    0  503 -0.13389556695E+03  0.53226178290E+02 -0.21921270530E+03  0.26232662668E+03  0.00000000000E+00 0.  1.
<mgrwt>
<rscale>  4 0.20517621E+03</rscale>
<asrwt>0</asrwt>
<pdfrwt beam="1">  1       21 0.18506703E-01 0.20517621E+03</pdfrwt>
<pdfrwt beam="2">  1       21 0.81196388E-01 0.20517621E+03</pdfrwt>
<totfact> 0.35228592E+04</totfact>
</mgrwt>
</event>
<event>
 5    0  0.1781295E-001  0.2404718E+03  0.7546771E-02  0.1119479E+00
         21   -1    0    0  501  502  0.00000000000E+00  0.00000000000E+00  0.33099896616E+03  0.33099896616E+03  0.00000000000E+00 0.  1.
         21   -1    0    0  502  503 -0.00000000000E+00 -0.00000000000E+00 -0.10210827460E+04  0.10210827460E+04  0.00000000000E+00 0.  1.
         25    1    1    2    0    0  0.17291751893E+03  0.11091076971E+03  0.27323860255E+03  0.36398626501E+03  0.12500000000E+03 0.  0.
          3    1    1    2  501    0 -0.99830572011E+02 -0.10281318984E+03 -0.70990380728E+03  0.72422379877E+03  0.00000000000E+00 0.  1.
         -3    1    1    2    0  503 -0.73086946915E+02 -0.80975798658E+01 -0.25341857512E+03  0.26387164839E+03  0.00000000000E+00 0. -1.
<mgrwt>
<rscale>  4 0.24047176E+03</rscale>
<asrwt>0</asrwt>
<pdfrwt beam="1">  1       21 0.50922918E-01 0.24047176E+03</pdfrwt>
<pdfrwt beam="2">  1       21 0.15708965E+00 0.24047176E+03</pdfrwt>
<totfact> 0.92579981E+02</totfact>
</mgrwt>
</event>
<event>
 5    0  0.1781295E-001  0.3796449E+03  0.7546771E-02  0.1051065E+00
         21   -1    0    0  501  502  0.00000000000E+00  0.00000000000E+00  0.80758772782E+03  0.80758772782E+03  0.00000000000E+00 0. -1.
         21   -1    0    0  502  503 -0.00000000000E+00 -0.00000000000E+00 -0.17827420813E+03  0.17827420813E+03  0.00000000000E+00 0.  1.
         25    1    1    2    0    0 -0.95985494193E+02 -0.34538677826E+03  0.38183574058E+03  0.53845034541E+03  0.12500000000E+03 0.  0.
          1    1    1    2  501    0 -0.18741861177E+02  0.54825188978E+02  0.21275719621E+02  0.61722888399E+02  0.00000000000E+00 0. -1.
         -1    1    1    2    0  503  0.11472735537E+03  0.29056158928E+03  0.22620205950E+03  0.38568870214E+03  0.00000000000E+00 0.  1.
<mgrwt>
<rscale>  4 0.37964489E+03</rscale>
<asrwt>0</asrwt>
<pdfrwt beam="1">  1       21 0.12424426E+00 0.37964489E+03</pdfrwt>
<pdfrwt beam="2">  1       21 0.27426802E-01 0.37964489E+03</pdfrwt>
<totfact> 0.55252941E+03</totfact>
</mgrwt>
</event>
<event>
 5    0  0.1781295E-001  0.1956605E+03  0.7546771E-02  0.1153453E+00
         21   -1    0    0  501  502  0.00000000000E+00  0.00000000000E+00  0.22688743320E+03  0.22688743320E+03  0.00000000000E+00 0.  1.
         21   -1    0    0  502  503 -0.00000000000E+00 -0.00000000000E+00 -0.55115463967E+03  0.55115463967E+03  0.00000000000E+00 0.  1.
         25    1    1    2    0    0 -0.21076800189E+03 -0.59603960451E+01  0.91492453399E+00  0.24512142711E+03  0.12500000000E+03 0.  0.
          3    1    1    2  501    0  0.87071010012E+02 -0.37658641424E+02 -0.37933615446E+03  0.39101848056E+03  0.00000000000E+00 0.  1.
         -3    1    1    2    0  503  0.12369699188E+03  0.43619037469E+02  0.54154023466E+02  0.14190216520E+03  0.00000000000E+00 0. -1.
<mgrwt>
<rscale>  4 0.19566053E+03</rscale>
<asrwt>0</asrwt>
<pdfrwt beam="1">  1       21 0.34905759E-01 0.19566053E+03</pdfrwt>
<pdfrwt beam="2">  1       21 0.84793021E-01 0.19566053E+03</pdfrwt>
<totfact> 0.95132109E+03</totfact>
</mgrwt>
</event>
<event>
 5    0  0.1781295E-001  0.1970829E+03  0.7546771E-02  0.1152224E+00
         21   -1    0    0  501  502  0.00000000000E+00  0.00000000000E+00  0.42735504630E+03  0.42735504630E+03  0.00000000000E+00 0. -1.
         21   -1    0    0  502  503 -0.00000000000E+00 -0.00000000000E+00 -0.29935124429E+03  0.29935124429E+03  0.00000000000E+00 0.  1.
         25    1    1    2    0    0 -0.11848193339E+02 -0.20328536483E+03  0.26891479040E+03  0.35972973707E+03  0.12500000000E+03 0.  0.
          1    1    1    2  501    0 -0.66903841745E+02  0.75561731196E+02  0.59086352314E+02  0.11694826331E+03  0.00000000000E+00 0.  1.
         -1    1    1    2    0  503  0.78752035084E+02  0.12772363363E+03 -0.19999734070E+03  0.25002829021E+03  0.00000000000E+00 0. -1.
<mgrwt>
<rscale>  4 0.19708288E+03</rscale>
<asrwt>0</asrwt>
<pdfrwt beam="1">  1       21 0.65746930E-01 0.19708288E+03</pdfrwt>
<pdfrwt beam="2">  1       21 0.46054038E-01 0.19708288E+03</pdfrwt>
<totfact> 0.95759224E+03</totfact>
</mgrwt>
</event>
<event>
 5    0  0.1781295E-001  0.3529828E+03  0.7546771E-02  0.1062121E+00
         21   -1    0    0  501  502  0.00000000000E+00  0.00000000000E+00  0.42235927663E+03  0.42235927663E+03  0.00000000000E+00 0.  1.
         21   -1    0    0  502  503 -0.00000000000E+00 -0.00000000000E+00 -0.31781679671E+03  0.31781679671E+03  0.00000000000E+00 0.  1.
         25    1    1    2    0    0 -0.19233158262E+03  0.25893702369E+03 -0.59384106898E+02  0.35098617075E+03  0.12500000000E+03 0.  0.
          2    1    1    2  501    0  0.16641092051E+03 -0.17344969190E+03  0.51902238236E+02  0.24590899215E+03  0.00000000000E+00 0.  1.
         -2    1    1    2    0  503  0.25920662108E+02 -0.85487331784E+02  0.11202434858E+03  0.14328091043E+03  0.00000000000E+00 0. -1.
<mgrwt>
<rscale>  4 0.35120522E+03</rscale>
<asrwt>0</asrwt>
<pdfrwt beam="1">  1       21 0.64978350E-01 0.35298280E+03</pdfrwt>
<pdfrwt beam="2">  1       21 0.48894892E-01 0.35298280E+03</pdfrwt>
<totfact> 0.79944655E+03</totfact>
</mgrwt>
</event>
<event>
 5    0  0.1781295E-001  0.4613945E+03  0.7546771E-02  0.1026533E+00
         21   -1    0    0  501  502  0.00000000000E+00  0.00000000000E+00  0.11517034541E+04  0.11517034541E+04  0.00000000000E+00 0.  1.
         21   -1    0    0  502  503 -0.00000000000E+00 -0.00000000000E+00 -0.36250861937E+03  0.36250861937E+03  0.00000000000E+00 0. -1.
         25    1    1    2    0    0 -0.12574768538E+03 -0.39455471332E+03  0.93509609804E+03  0.10302987988E+04  0.12500000000E+03 0.  0.
          1    1    1    2  501    0 -0.21320335061E+00  0.23524853521E+03 -0.24326399904E+01  0.23526120911E+03  0.00000000000E+00 0.  1.
         -1    1    1    2    0  503  0.12596088873E+03  0.15930617812E+03 -0.14346862329E+03  0.24865206563E+03  0.00000000000E+00 0. -1.
<mgrwt>
<rscale>  4 0.45401133E+03</rscale>
<asrwt>0</asrwt>
<pdfrwt beam="1">  1       21 0.17718515E+00 0.46139449E+03</pdfrwt>
<pdfrwt beam="2">  1       21 0.55770557E-01 0.46139449E+03</pdfrwt>
<totfact> 0.47406959E+02</totfact>
</mgrwt>
</event>
<event>
 5    0  0.1781295E-001  0.3320766E+03  0.7546771E-02  0.1070222E+00
         21   -1    0    0  501  502  0.00000000000E+00  0.00000000000E+00  0.59116406527E+03  0.59116406527E+03  0.00000000000E+00 0. -1.
         21   -1    0    0  502  503 -0.00000000000E+00 -0.00000000000E+00 -0.21194783168E+03  0.21194783168E+03  0.00000000000E+00 0.  1.
         25    1    1    2    0    0 -0.11996936327E+03 -0.28329701122E+03  0.35549891136E+03  0.48647129481E+03  0.12500000000E+03 0.  0.
          3    1    1    2  501    0  0.59922447589E+02  0.63377327583E+02 -0.18610752858E+01  0.87240179836E+02  0.00000000000E+00 0. -1.
         -3    1    1    2    0  503  0.60046915685E+02  0.21991968364E+03  0.25578397523E+02  0.22940042231E+03  0.00000000000E+00 0.  1.
<mgrwt>
<rscale>  4 0.33207656E+03</rscale>
<asrwt>0</asrwt>
<pdfrwt beam="1">  1       21 0.90948317E-01 0.33207656E+03</pdfrwt>
<pdfrwt beam="2">  1       21 0.32607359E-01 0.33207656E+03</pdfrwt>
<totfact> 0.85927575E+03</totfact>
</mgrwt>
</event>
<event>
 5    0  0.1781295E-001  0.2425717E+03  0.7546771E-02  0.1118091E+00
         21   -1    0    0  501  502  0.00000000000E+00  0.00000000000E+00  0.28248824226E+03  0.28248824226E+03  0.00000000000E+00 0. -1.
         21   -1    0    0  502  503 -0.00000000000E+00 -0.00000000000E+00 -0.19791102690E+03  0.19791102690E+03  0.00000000000E+00 0. -1.
         25    1    1    2    0    0  0.58410243721E+02  0.19951003050E+03  0.89965133766E+02  0.25871747937E+03  0.12500000000E+03 0.  0.
          1    1    1    2  501    0 -0.22866972315E+02 -0.12701996660E+03  0.31604848855E+02  0.13287526786E+03  0.00000000000E+00 0.  1.
         -1    1    1    2    0  503 -0.35543271406E+02 -0.72490063895E+02 -0.36992767258E+02  0.88806521918E+02  0.00000000000E+00 0. -1.
<mgrwt>
<rscale>  4 0.24257166E+03</rscale>
<asrwt>0</asrwt>
<pdfrwt beam="1">  1       21 0.43459729E-01 0.24257166E+03</pdfrwt>
<pdfrwt beam="2">  1       21 0.30447850E-01 0.24257166E+03</pdfrwt>
<totfact> 0.51520945E+04</totfact>
</mgrwt>
</event>
<event>
 5    0  0.1781295E-001  0.2460700E+03  0.7546771E-02  0.1115814E+00
         21   -1    0    0  501  502  0.00000000000E+00  0.00000000000E+00  0.99305932295E+02  0.99305932295E+02  0.00000000000E+00 0. -1.
         21   -1    0    0  502  503 -0.00000000000E+00 -0.00000000000E+00 -0.75534316633E+03  0.75534316633E+03  0.00000000000E+00 0. -1.
         25    1    1    2    0    0  0.68500647881E+02  0.21853981490E+03 -0.39832225604E+03  0.47616972721E+03  0.12500000000E+03 0.  0.
          1    1    1    2  501    0 -0.35413968987E+02 -0.19529296982E+03 -0.27100678749E+03  0.33591393560E+03  0.00000000000E+00 0. -1.
         -1    1    1    2    0  503 -0.33086678893E+02 -0.23246845079E+02  0.13291809496E+02  0.42565435814E+02  0.00000000000E+00 0.  1.
<mgrwt>
<rscale>  4 0.24607002E+03</rscale>
<asrwt>0</asrwt>
<pdfrwt beam="1">  1       21 0.15277836E-01 0.24607002E+03</pdfrwt>
<pdfrwt beam="2">  1       21 0.11620664E+00 0.24607002E+03</pdfrwt>
<totfact> 0.21025627E+04</totfact>
</mgrwt>
</event>
<event>
 5    0  0.1781295E-001  0.4461840E+03  0.7546771E-02  0.1029089E+00
         21   -1    0    0  501  502  0.00000000000E+00  0.00000000000E+00  0.11728850992E+04  0.11728850992E+04  0.00000000000E+00 0. -1.
         21   -1    0    0  502  503 -0.00000000000E+00 -0.00000000000E+00 -0.16911974218E+03  0.16911974218E+03  0.00000000000E+00 0. -1.
         25    1    1    2    0    0  0.30317885680E+03  0.29819517231E+03  0.46367117088E+03  0.64144659537E+03  0.12500000000E+03 0.  0.
          3    1    1    2  501    0 -0.13355471137E+03 -0.21865538919E+03  0.34893522230E+03  0.43290048454E+03  0.00000000000E+00 0. -1.
         -3    1    1    2    0  503 -0.16962414543E+03 -0.79539783128E+02  0.19115896380E+03  0.26765776143E+03  0.00000000000E+00 0.  1.
<mgrwt>
<rscale>  4 0.44544645E+03</rscale>
<asrwt>0</asrwt>
<pdfrwt beam="1">  1       21 0.18044386E+00 0.44618396E+03</pdfrwt>
<pdfrwt beam="2">  1       21 0.26018423E-01 0.44618396E+03</pdfrwt>
<totfact> 0.21621586E+03</totfact>
</mgrwt>
</event>
<event>
 5    0  0.1781295E-001  0.2376789E+03  0.7546771E-02  0.1121349E+00
         21   -1    0    0  501  502  0.00000000000E+00  0.00000000000E+00  0.60520362435E+02  0.60520362435E+02  0.00000000000E+00 0. -1.
         21   -1    0    0  502  503 -0.00000000000E+00 -0.00000000000E+00 -0.90583831252E+03  0.90583831252E+03  0.00000000000E+00 0. -1.
         25    1    1    2    0    0  0.14133016242E+03  0.14454073732E+03 -0.29654355047E+03  0.38003857288E+03  0.12500000000E+03 0.  0.
          1    1    1    2  501    0 -0.93710748517E+02 -0.87806947664E+02 -0.40031054492E+03  0.42040492008E+03  0.00000000000E+00 0. -1.
         -1    1    1    2    0  503 -0.47619413899E+02 -0.56733789652E+02 -0.14846385470E+03  0.16591518200E+03  0.00000000000E+00 0.  1.
<mgrwt>
<rscale>  4 0.23767886E+03</rscale>
<asrwt>0</asrwt>
<pdfrwt beam="1">  1       21 0.93108247E-02 0.23767886E+03</pdfrwt>
<pdfrwt beam="2">  1       21 0.13935974E+00 0.23767886E+03</pdfrwt>
<totfact> 0.32486669E+04</totfact>
</mgrwt>
</event>
<event>
 5    0  0.1781295E-001  0.2949741E+03  0.7546771E-02  0.1087780E+00
         21   -1    0    0  501  502  0.00000000000E+00  0.00000000000E+00  0.71439220830E+03  0.71439220830E+03  0.00000000000E+00 0.  1.
         21   -1    0    0  502  503 -0.00000000000E+00 -0.00000000000E+00 -0.16964948046E+03  0.16964948046E+03  0.00000000000E+00 0.  1.
         25    1    1    2    0    0  0.23717807322E+03  0.12300936507E+03  0.52902755003E+03  0.60570610943E+03  0.12500000000E+03 0.  0.
          2    1    1    2  501    0 -0.70460286569E+02 -0.74904397506E+02 -0.82614816296E+01  0.10316769275E+03  0.00000000000E+00 0.  1.
         -2    1    1    2    0  503 -0.16671778665E+03 -0.48104967569E+02  0.23976659442E+02  0.17516788657E+03  0.00000000000E+00 0. -1.
<mgrwt>
<rscale>  4 0.29497414E+03</rscale>
<asrwt>0</asrwt>
<pdfrwt beam="1">  1       21 0.10990649E+00 0.29497414E+03</pdfrwt>
<pdfrwt beam="2">  1       21 0.26099921E-01 0.29497414E+03</pdfrwt>
<totfact> 0.85828532E+03</totfact>
</mgrwt>
</event>
<event>
 5    0  0.1781295E-001  0.2507814E+03  0.7546771E-02  0.1112812E+00
         21   -1    0    0  501  502  0.00000000000E+00  0.00000000000E+00  0.48970196111E+03  0.48970196111E+03  0.00000000000E+00 0. -1.
         21   -1    0    0  502  503 -0.00000000000E+00 -0.00000000000E+00 -0.16700888450E+04  0.16700888450E+04  0.00000000000E+00 0.  1.
         25    1    1    2    0    0 -0.21045011804E+03  0.54562448270E+02  0.44944037356E+03  0.51467267494E+03  0.12500000000E+03 0.  0.
          1    1    1    2  501    0  0.15958369533E+03 -0.62384294109E+02 -0.13141814393E+04  0.13253043467E+04  0.00000000000E+00 0.  1.
         -1    1    1    2    0  503  0.50866422712E+02  0.78218458385E+01 -0.31564581813E+03  0.31981378446E+03  0.00000000000E+00 0. -1.
<mgrwt>
<rscale>  4 0.25078140E+03</rscale>
<asrwt>0</asrwt>
<pdfrwt beam="1">  1       21 0.75338763E-01 0.25078140E+03</pdfrwt>
<pdfrwt beam="2">  1       21 0.25693675E+00 0.25078140E+03</pdfrwt>
<totfact> 0.87997015E+01</totfact>
</mgrwt>
</event>
<event>
 5    0  0.1781295E-001  0.2431502E+03  0.7546771E-02  0.1117712E+00
         21   -1    0    0  501  502  0.00000000000E+00  0.00000000000E+00  0.16763353034E+03  0.16763353034E+03  0.00000000000E+00 0.  1.
         21   -1    0    0  502  503 -0.00000000000E+00 -0.00000000000E+00 -0.31919898003E+03  0.31919898003E+03  0.00000000000E+00 0.  1.
         25    1    1    2    0    0  0.48644294230E+01  0.20850261306E+03 -0.43793130664E+02  0.24706242251E+03  0.12500000000E+03 0.  0.
          3    1    1    2  501    0  0.18303332545E+02 -0.98811308454E+02 -0.36468110085E+02  0.10690467583E+03  0.00000000000E+00 0. -1.
         -3    1    1    2    0  503 -0.23167761968E+02 -0.10969130460E+03 -0.71304208943E+02  0.13286541203E+03  0.00000000000E+00 0.  1.
<mgrwt>
<rscale>  4 0.24315016E+03</rscale>
<asrwt>0</asrwt>
<pdfrwt beam="1">  1       21 0.25789774E-01 0.24315016E+03</pdfrwt>
<pdfrwt beam="2">  1       21 0.49107535E-01 0.24315016E+03</pdfrwt>
<totfact> 0.55219407E+04</totfact>
</mgrwt>
</event>
<event>
 5    0  0.1781295E-001  0.3015794E+03  0.7546771E-02  0.1084454E+00
         21   -1    0    0  501  502  0.00000000000E+00  0.00000000000E+00  0.10406458564E+03  0.10406458564E+03  0.00000000000E+00 0.  1.
         21   -1    0    0  502  503 -0.00000000000E+00 -0.00000000000E+00 -0.81826039704E+03  0.81826039704E+03  0.00000000000E+00 0.  1.
         25    1    1    2    0    0  0.15878827313E+03 -0.22385580481E+03 -0.36217667483E+03  0.47129829283E+03  0.12500000000E+03 0.  0.
          2    1    1    2  501    0 -0.59572424544E+02  0.11823981550E+03 -0.12752699241E+03  0.18382780401E+03  0.00000000000E+00 0.  1.
         -2    1    1    2    0  503 -0.99215848584E+02  0.10561598930E+03 -0.22449214416E+03  0.26719888584E+03  0.00000000000E+00 0. -1.
<mgrwt>
<rscale>  4 0.30157940E+03</rscale>
<asrwt>0</asrwt>
<pdfrwt beam="1">  1       21 0.16009936E-01 0.30157940E+03</pdfrwt>
<pdfrwt beam="2">  1       21 0.12588621E+00 0.30157940E+03</pdfrwt>
<totfact> 0.15370552E+04</totfact>
</mgrwt>
</event>
<event>
 5    0  0.1781295E-001  0.2434986E+03  0.7546771E-02  0.1117484E+00
         21   -1    0    0  501  502  0.00000000000E+00  0.00000000000E+00  0.99682965882E+03  0.99682965882E+03  0.00000000000E+00 0. -1.
         21   -1    0    0  502  503 -0.00000000000E+00 -0.00000000000E+00 -0.41028678533E+03  0.41028678533E+03  0.00000000000E+00 0. -1.
         25    1    1    2    0    0 -0.59343687192E+01 -0.21936281985E+03  0.75394585512E+03  0.79511924635E+03  0.12500000000E+03 0.  0.
          4    1    1    2  501    0  0.15197180475E+02  0.18808916836E+03  0.18135256357E+03  0.26171977736E+03  0.00000000000E+00 0.  1.
         -4    1    1    2    0  503 -0.92628117563E+01  0.31273651491E+02 -0.34875554519E+03  0.35027742043E+03  0.00000000000E+00 0. -1.
<mgrwt>
<rscale>  4 0.24349863E+03</rscale>
<asrwt>0</asrwt>
<pdfrwt beam="1">  1       21 0.15335841E+00 0.24349863E+03</pdfrwt>
<pdfrwt beam="2">  1       21 0.63121044E-01 0.24349863E+03</pdfrwt>
<totfact> 0.62219505E+02</totfact>
</mgrwt>
</event>
<event>
 5    0  0.1781295E-001  0.4145294E+03  0.7546771E-02  0.1038862E+00
         21   -1    0    0  501  502  0.00000000000E+00  0.00000000000E+00  0.31058089946E+03  0.31058089946E+03  0.00000000000E+00 0.  1.
         21   -1    0    0  502  503 -0.00000000000E+00 -0.00000000000E+00 -0.78040804269E+03  0.78040804269E+03  0.00000000000E+00 0.  1.
         25    1    1    2    0    0  0.50529963800E+02  0.39199028461E+03 -0.53478095513E+03  0.67662791137E+03  0.12500000000E+03 0.  0.
          4    1    1    2  501    0  0.14705571086E+02 -0.78862965796E+02  0.49231680911E+02  0.94124277423E+02  0.00000000000E+00 0. -1.
         -4    1    1    2    0  503 -0.65235534886E+02 -0.31312731882E+03  0.15722130989E+02  0.32023675336E+03  0.00000000000E+00 0.  1.
<mgrwt>
<rscale>  4 0.41452944E+03</rscale>
<asrwt>0</asrwt>
<pdfrwt beam="1">  1       21 0.47781677E-01 0.41452944E+03</pdfrwt>
<pdfrwt beam="2">  1       21 0.12006278E+00 0.41452944E+03</pdfrwt>
<totfact> 0.19257353E+03</totfact>
</mgrwt>
</event>
<event>
 5    0  0.1781295E-001  0.3160752E+03  0.7546771E-02  0.1077470E+00
         21   -1    0    0  501  502  0.00000000000E+00  0.00000000000E+00  0.64140278654E+03  0.64140278654E+03  0.00000000000E+00 0.  1.
         21   -1    0    0  502  503 -0.00000000000E+00 -0.00000000000E+00 -0.26253866880E+03  0.26253866880E+03  0.00000000000E+00 0. -1.
         25    1    1    2    0    0 -0.23286707512E+03 -0.17335355717E+03  0.48503779417E+03  0.57893453190E+03  0.12500000000E+03 0.  0.
          4    1    1    2  501    0  0.18246541290E+03  0.11961592522E+03 -0.12153875276E+03  0.24974640116E+03  0.00000000000E+00 0. -1.
         -4    1    1    2    0  503  0.50401662223E+02  0.53737631954E+02  0.15365076323E+02  0.75260522276E+02  0.00000000000E+00 0.  1.
<mgrwt>
<rscale>  4 0.31607520E+03</rscale>
<asrwt>0</asrwt>
<pdfrwt beam="1">  1       21 0.98677351E-01 0.31607520E+03</pdfrwt>
<pdfrwt beam="2">  1       21 0.40390565E-01 0.31607520E+03</pdfrwt>
<totfact> 0.46293169E+03</totfact>
</mgrwt>
</event>
<event>
 5    0  0.1781295E-001  0.2545525E+03  0.7546771E-02  0.1110461E+00
         21   -1    0    0  501  502  0.00000000000E+00  0.00000000000E+00  0.78040941186E+03  0.78040941186E+03  0.00000000000E+00 0.  1.
         21   -1    0    0  502  503 -0.00000000000E+00 -0.00000000000E+00 -0.81554562620E+02  0.81554562620E+02  0.00000000000E+00 0.  1.
         25    1    1    2    0    0 -0.11836764434E+03  0.18751289544E+03  0.49249562340E+03  0.55439058817E+03  0.12500000000E+03 0.  0.
          4    1    1    2  501    0  0.60500192222E+02 -0.11993399671E+03  0.92595668299E+02  0.16315144686E+03  0.00000000000E+00 0.  1.
         -4    1    1    2    0  503  0.57867452122E+02 -0.67578898729E+02  0.11376355753E+03  0.14442193944E+03  0.00000000000E+00 0. -1.
<mgrwt>
<rscale>  4 0.25455252E+03</rscale>
<asrwt>0</asrwt>
<pdfrwt beam="1">  1       21 0.12006298E+00 0.25455252E+03</pdfrwt>
<pdfrwt beam="2">  1       21 0.12546856E-01 0.25455252E+03</pdfrwt>
<totfact> 0.27634742E+04</totfact>
</mgrwt>
</event>
<event>
 5    0  0.1781295E-001  0.4130889E+03  0.7546771E-02  0.1039339E+00
         21   -1    0    0  501  502  0.00000000000E+00  0.00000000000E+00  0.45793962505E+03  0.45793962505E+03  0.00000000000E+00 0.  1.
         21   -1    0    0  502  503 -0.00000000000E+00 -0.00000000000E+00 -0.10072332925E+04  0.10072332925E+04  0.00000000000E+00 0. -1.
         25    1    1    2    0    0  0.42052007372E+03 -0.11529083727E+03  0.25503677223E+03  0.52038242164E+03  0.12500000000E+03 0.  0.
          3    1    1    2  501    0 -0.28340276618E+03 -0.54121447087E+01 -0.32179248466E+03  0.42883192789E+03  0.00000000000E+00 0.  1.
         -3    1    1    2    0  503 -0.13711730754E+03  0.12070298198E+03 -0.48253795504E+03  0.51595856805E+03  0.00000000000E+00 0. -1.
<mgrwt>
<rscale>  4 0.41308888E+03</rscale>
<asrwt>0</asrwt>
<pdfrwt beam="1">  1       21 0.70452251E-01 0.41308888E+03</pdfrwt>
<pdfrwt beam="2">  1       21 0.15495897E+00 0.41308888E+03</pdfrwt>
<totfact> 0.42298239E+02</totfact>
</mgrwt>
</event>
<event>
 5    0  0.1781295E-001  0.2863424E+03  0.7546771E-02  0.1092274E+00
         21   -1    0    0  501  502  0.00000000000E+00  0.00000000000E+00  0.10887194515E+04  0.10887194515E+04  0.00000000000E+00 0.  1.
         21   -1    0    0  502  503 -0.00000000000E+00 -0.00000000000E+00 -0.15141342798E+03  0.15141342798E+03  0.00000000000E+00 0.  1.
         25    1    1    2    0    0  0.69138120694E+02 -0.24921023380E+03  0.83987369434E+03  0.88763654883E+03  0.12500000000E+03 0.  0.
          1    1    1    2  501    0 -0.35981702813E+02  0.25523339315E+03  0.90595604005E+01  0.25791634991E+03  0.00000000000E+00 0.  1.
         -1    1    1    2    0  503 -0.33156417881E+02 -0.60231593506E+01  0.88372768738E+02  0.94579980703E+02  0.00000000000E+00 0. -1.
<mgrwt>
<rscale>  4 0.28634236E+03</rscale>
<asrwt>0</asrwt>
<pdfrwt beam="1">  1       21 0.16749530E+00 0.28634236E+03</pdfrwt>
<pdfrwt beam="2">  1       21 0.23294374E-01 0.28634236E+03</pdfrwt>
<totfact> 0.35876854E+03</totfact>
</mgrwt>
</event>
<event>
 5    0  0.1781295E-001  0.2502399E+03  0.7546771E-02  0.1113153E+00
         21   -1    0    0  501  502  0.00000000000E+00  0.00000000000E+00  0.22709356171E+03  0.22709356171E+03  0.00000000000E+00 0.  1.
         21   -1    0    0  502  503 -0.00000000000E+00 -0.00000000000E+00 -0.67380703108E+03  0.67380703108E+03  0.00000000000E+00 0.  1.
         25    1    1    2    0    0 -0.95682702256E+02  0.19452460581E+03  0.13006346553E+03  0.28202217438E+03  0.12500000000E+03 0.  0.
          2    1    1    2  501    0 -0.64684679387E+01 -0.24058022094E+02 -0.81355162437E+02  0.85084028816E+02  0.00000000000E+00 0. -1.
         -2    1    1    2    0  503  0.10215117020E+03 -0.17046658371E+03 -0.49542177246E+03  0.53379438959E+03  0.00000000000E+00 0.  1.
<mgrwt>
<rscale>  4 0.25023989E+03</rscale>
<asrwt>0</asrwt>
<pdfrwt beam="1">  1       21 0.34937471E-01 0.25023989E+03</pdfrwt>
<pdfrwt beam="2">  1       21 0.10366262E+00 0.25023989E+03</pdfrwt>
<totfact> 0.57147551E+03</totfact>
</mgrwt>
</event>
<event>
 5    0  0.1781295E-001  0.2415255E+03  0.7546771E-02  0.1118781E+00
         21   -1    0    0  501  502  0.00000000000E+00  0.00000000000E+00  0.10179867663E+03  0.10179867663E+03  0.00000000000E+00 0.  1.
         21   -1    0    0  502  503 -0.00000000000E+00 -0.00000000000E+00 -0.12265334617E+04  0.12265334617E+04  0.00000000000E+00 0.  1.
         25    1    1    2    0    0 -0.10682248669E+03 -0.18807534169E+03 -0.14257117740E+03  0.28763678214E+03  0.12500000000E+03 0.  0.
          1    1    1    2  501    0 -0.80143395106E+01  0.32862480990E+02 -0.68798040337E+03  0.68881144569E+03  0.00000000000E+00 0.  1.
         -1    1    1    2    0  503  0.11483682620E+03  0.15521286070E+03 -0.29418320425E+03  0.35188391046E+03  0.00000000000E+00 0. -1.
<mgrwt>
<rscale>  4 0.24152550E+03</rscale>
<asrwt>0</asrwt>
<pdfrwt beam="1">  1       21 0.15661333E-01 0.24152550E+03</pdfrwt>
<pdfrwt beam="2">  1       21 0.18869747E+00 0.24152550E+03</pdfrwt>
<totfact> 0.55430079E+03</totfact>
</mgrwt>
</event>
<event>
 5    0  0.2100618E-001  0.3066675E+03  0.7546771E-02  0.1081954E+00
         21   -1    0    0  501  502  0.00000000000E+00  0.00000000000E+00  0.43936548226E+03  0.43936548226E+03  0.00000000000E+00 0. -1.
         21   -1    0    0  502  503 -0.00000000000E+00 -0.00000000000E+00 -0.69920950391E+03  0.69920950391E+03  0.00000000000E+00 0. -1.
         25    1    1    2    0    0 -0.26035552653E+03 -0.10312590898E+03 -0.61297784108E+03  0.68540994080E+03  0.12500000000E+03 0.  0.
          3    1    1    2  501    0  0.49214032387E+02  0.23043979616E+01  0.49513626495E+02  0.69849341031E+02  0.00000000000E+00 0.  1.
         -3    1    1    2    0  503  0.21114149415E+03  0.10082151102E+03  0.30362019294E+03  0.38331570434E+03  0.00000000000E+00 0. -1.
<mgrwt>
<rscale>  4 0.30666750E+03</rscale>
<asrwt>0</asrwt>
<pdfrwt beam="1">  1       21 0.67594690E-01 0.30666750E+03</pdfrwt>
<pdfrwt beam="2">  1       21 0.10757069E+00 0.30666750E+03</pdfrwt>
<totfact> 0.12625241E+03</totfact>
</mgrwt>
</event>
<event>
 5    0  0.1781295E-001  0.2254072E+03  0.7546771E-02  0.1129915E+00
         21   -1    0    0  501  502  0.00000000000E+00  0.00000000000E+00  0.12442556481E+03  0.12442556481E+03  0.00000000000E+00 0. -1.
         21   -1    0    0  502  503 -0.00000000000E+00 -0.00000000000E+00 -0.11475706023E+04  0.11475706023E+04  0.00000000000E+00 0.  1.
         25    1    1    2    0    0  0.14728579380E+03  0.15109208428E+03 -0.32082056199E+02  0.24733819219E+03  0.12500000000E+03 0.  0.
          3    1    1    2  501    0 -0.12303038116E+03 -0.58097268092E+02 -0.33471860007E+03  0.36131469452E+03  0.00000000000E+00 0. -1.
         -3    1    1    2    0  503 -0.24255412638E+02 -0.92994816192E+02 -0.65634438122E+03  0.66334328039E+03  0.00000000000E+00 0.  1.
<mgrwt>
<rscale>  4 0.22540716E+03</rscale>
<asrwt>0</asrwt>
<pdfrwt beam="1">  1       21 0.19142394E-01 0.22540716E+03</pdfrwt>
<pdfrwt beam="2">  1       21 0.17654933E+00 0.22540716E+03</pdfrwt>
<totfact> 0.46809698E+03</totfact>
</mgrwt>
</event>
<event>
 5    0  0.1781295E-001  0.3106597E+03  0.7546771E-02  0.1080030E+00
         21   -1    0    0  501  502  0.00000000000E+00  0.00000000000E+00  0.13584224330E+04  0.13584224330E+04  0.00000000000E+00 0.  1.
         21   -1    0    0  502  503 -0.00000000000E+00 -0.00000000000E+00 -0.98236758733E+02  0.98236758733E+02  0.00000000000E+00 0.  1.
         25    1    1    2    0    0 -0.15799239529E+03 -0.23648006818E+03  0.24260594784E+03  0.39416629174E+03  0.12500000000E+03 0.  0.
          1    1    1    2  501    0  0.14613952094E+03  0.18447623949E+03  0.65473015322E+03  0.69574407367E+03  0.00000000000E+00 0.  1.
         -1    1    1    2    0  503  0.11852874341E+02  0.52003828689E+02  0.36284957319E+03  0.36674882630E+03  0.00000000000E+00 0. -1.
<mgrwt>
<rscale>  4 0.31065965E+03</rscale>
<asrwt>0</asrwt>
<pdfrwt beam="1">  1       21 0.20898805E+00 0.31065965E+03</pdfrwt>
<pdfrwt beam="2">  1       21 0.15113348E-01 0.31065965E+03</pdfrwt>
<totfact> 0.41643735E+03</totfact>
</mgrwt>
</event>
<event>
 5    0  0.1781295E-001  0.3640121E+03  0.7546771E-02  0.1057006E+00
         21   -1    0    0  501  502  0.00000000000E+00  0.00000000000E+00  0.57807206128E+03  0.57807206128E+03  0.00000000000E+00 0. -1.
         21   -1    0    0  502  503 -0.00000000000E+00 -0.00000000000E+00 -0.25400904979E+03  0.25400904979E+03  0.00000000000E+00 0. -1.
         25    1    1    2    0    0 -0.11486257400E+03  0.32200369352E+03  0.98432938082E+01  0.36414513587E+03  0.12500000000E+03 0.  0.
          1    1    1    2  501    0  0.10235322755E+03 -0.27902723800E+03  0.24339525682E+03  0.38415313844E+03  0.00000000000E+00 0. -1.
         -1    1    1    2    0  503  0.12509346443E+02 -0.42976455521E+02  0.70824460865E+02  0.83782836753E+02  0.00000000000E+00 0.  1.
<mgrwt>
<rscale>  4 0.36401207E+03</rscale>
<asrwt>0</asrwt>
<pdfrwt beam="1">  1       21 0.88934163E-01 0.36401207E+03</pdfrwt>
<pdfrwt beam="2">  1       21 0.39078316E-01 0.36401207E+03</pdfrwt>
<totfact> 0.62042222E+03</totfact>
</mgrwt>
</event>
<event>
 5    0  0.1781295E-001  0.3293254E+03  0.7546771E-02  0.1071436E+00
         21   -1    0    0  501  502  0.00000000000E+00  0.00000000000E+00  0.15309043649E+04  0.15309043649E+04  0.00000000000E+00 0.  1.
         21   -1    0    0  502  503 -0.00000000000E+00 -0.00000000000E+00 -0.10018937145E+03  0.10018937145E+03  0.00000000000E+00 0.  1.
         25    1    1    2    0    0  0.28406876840E+03 -0.11015981692E+03  0.27034108677E+03  0.42607458695E+03  0.12500000000E+03 0.  0.
          4    1    1    2  501    0 -0.13113773368E+03 -0.32814458244E+01  0.56070261737E+03  0.57584311944E+03  0.00000000000E+00 0.  1.
         -4    1    1    2    0  503 -0.15293103472E+03  0.11344126274E+03  0.59967128934E+03  0.62917603000E+03  0.00000000000E+00 0. -1.
<mgrwt>
<rscale>  4 0.32932545E+03</rscale>
<asrwt>0</asrwt>
<pdfrwt beam="1">  1       21 0.23552373E+00 0.32932545E+03</pdfrwt>
<pdfrwt beam="2">  1       21 0.15413751E-01 0.32932545E+03</pdfrwt>
<totfact> 0.27052746E+03</totfact>
</mgrwt>
</event>
<event>
 5    0  0.1781295E-001  0.2456655E+03  0.7546771E-02  0.1116075E+00
         21   -1    0    0  501  502  0.00000000000E+00  0.00000000000E+00  0.11658913470E+03  0.11658913470E+03  0.00000000000E+00 0. -1.
         21   -1    0    0  502  503 -0.00000000000E+00 -0.00000000000E+00 -0.68273589153E+03  0.68273589153E+03  0.00000000000E+00 0. -1.
         25    1    1    2    0    0  0.11181272289E+03 -0.17951173281E+03 -0.50160588126E+03  0.55853380142E+03  0.12500000000E+03 0.  0.
          4    1    1    2  501    0 -0.10242426026E+03  0.96799525302E+02 -0.70025826684E+02  0.15736738414E+03  0.00000000000E+00 0. -1.
         -4    1    1    2    0  503 -0.93884626319E+01  0.82712207509E+02  0.54849511131E+01  0.83423840659E+02  0.00000000000E+00 0.  1.
<mgrwt>
<rscale>  4 0.24566552E+03</rscale>
<asrwt>0</asrwt>
<pdfrwt beam="1">  1       21 0.17936790E-01 0.24566552E+03</pdfrwt>
<pdfrwt beam="2">  1       21 0.10503629E+00 0.24566552E+03</pdfrwt>
<totfact> 0.20012161E+04</totfact>
</mgrwt>
</event>
<event>
 5    0  0.1781295E-001  0.2901290E+03  0.7546771E-02  0.1090282E+00
         21   -1    0    0  501  502  0.00000000000E+00  0.00000000000E+00  0.26289458808E+03  0.26289458808E+03  0.00000000000E+00 0.  1.
         21   -1    0    0  502  503 -0.00000000000E+00 -0.00000000000E+00 -0.30700798707E+03  0.30700798707E+03  0.00000000000E+00 0.  1.
         25    1    1    2    0    0 -0.16710096661E+03 -0.20156165623E+03  0.10597525167E+02  0.29032247906E+03  0.12500000000E+03 0.  0.
          2    1    1    2  501    0  0.75674621041E+02  0.55691409555E+02  0.12470259477E+02  0.94782322927E+02  0.00000000000E+00 0. -1.
         -2    1    1    2    0  503  0.91426345572E+02  0.14587024668E+03 -0.67181183632E+02  0.18479777316E+03  0.00000000000E+00 0.  1.
<mgrwt>
<rscale>  4 0.29012900E+03</rscale>
<asrwt>0</asrwt>
<pdfrwt beam="1">  1       21 0.40445321E-01 0.29012900E+03</pdfrwt>
<pdfrwt beam="2">  1       21 0.47231998E-01 0.29012900E+03</pdfrwt>
<totfact> 0.24099387E+04</totfact>
</mgrwt>
</event>
<event>
 5    0  0.1781295E-001  0.2437703E+03  0.7546771E-02  0.1117306E+00
         21   -1    0    0  501  502  0.00000000000E+00  0.00000000000E+00  0.85955656016E+03  0.85955656016E+03  0.00000000000E+00 0.  1.
         21   -1    0    0  502  503 -0.00000000000E+00 -0.00000000000E+00 -0.81303984812E+02  0.81303984812E+02  0.00000000000E+00 0.  1.
         25    1    1    2    0    0 -0.20246382846E+03 -0.52984632692E+02  0.17385553674E+03  0.29941563218E+03  0.12500000000E+03 0.  0.
          4    1    1    2  501    0  0.68154782833E+02 -0.37820290821E+01  0.16825547547E+03  0.18157445633E+03  0.00000000000E+00 0.  1.
         -4    1    1    2    0  503  0.13430904563E+03  0.56766661774E+02  0.43614156315E+03  0.45987045647E+03  0.00000000000E+00 0. -1.
<mgrwt>
<rscale>  4 0.24377033E+03</rscale>
<asrwt>0</asrwt>
<pdfrwt beam="1">  1       21 0.13223946E+00 0.24377033E+03</pdfrwt>
<pdfrwt beam="2">  1       21 0.12508306E-01 0.24377033E+03</pdfrwt>
<totfact> 0.21883596E+04</totfact>
</mgrwt>
</event>
<event>
 5    0  0.1781295E-001  0.3190585E+03  0.7546771E-02  0.1076083E+00
         21   -1    0    0  501  502  0.00000000000E+00  0.00000000000E+00  0.13357037657E+04  0.13357037657E+04  0.00000000000E+00 0.  1.
         21   -1    0    0  502  503 -0.00000000000E+00 -0.00000000000E+00 -0.81239393567E+03  0.81239393567E+03  0.00000000000E+00 0.  1.
         25    1    1    2    0    0  0.10235563854E+03 -0.27513020719E+03  0.12871747616E+04  0.13261286418E+04  0.12500000000E+03 0.  0.
          1    1    1    2  501    0 -0.52748662234E+02  0.49667502957E+02 -0.16873289811E+03  0.18363026200E+03  0.00000000000E+00 0. -1.
         -1    1    1    2    0  503 -0.49606976308E+02  0.22546270423E+03 -0.59513203353E+03  0.63833879753E+03  0.00000000000E+00 0.  1.
<mgrwt>
<rscale>  4 0.31905847E+03</rscale>
<asrwt>0</asrwt>
<pdfrwt beam="1">  1       21 0.20549289E+00 0.31905847E+03</pdfrwt>
<pdfrwt beam="2">  1       21 0.12498368E+00 0.31905847E+03</pdfrwt>
<totfact> 0.50877256E+01</totfact>
</mgrwt>
</event>
<event>
 5    0  0.1781295E-001  0.2840960E+03  0.7546771E-02  0.1093473E+00
         21   -1    0    0  501  502  0.00000000000E+00  0.00000000000E+00  0.13809215118E+03  0.13809215118E+03  0.00000000000E+00 0.  1.
         21   -1    0    0  502  503 -0.00000000000E+00 -0.00000000000E+00 -0.54267790970E+03  0.54267790970E+03  0.00000000000E+00 0.  1.
         25    1    1    2    0    0  0.20905803460E+03  0.14621987834E+03 -0.24296250427E+03  0.37381986723E+03  0.12500000000E+03 0.  0.
          1    1    1    2  501    0 -0.13891743574E+03 -0.69991929667E+02 -0.11448354392E+03  0.19314089676E+03  0.00000000000E+00 0. -1.
         -1    1    1    2    0  503 -0.70140598859E+02 -0.76227948674E+02 -0.47139710329E+02  0.11380929688E+03  0.00000000000E+00 0.  1.
<mgrwt>
<rscale>  4 0.28409596E+03</rscale>
<asrwt>0</asrwt>
<pdfrwt beam="1">  1       21 0.21244946E-01 0.28409596E+03</pdfrwt>
<pdfrwt beam="2">  1       21 0.83488911E-01 0.28409596E+03</pdfrwt>
<totfact> 0.24591359E+04</totfact>
</mgrwt>
</event>
