<event>
 5    0  0.1283376E+001  0.4295474E+03  0.7546771E-02  0.1034003E+00
         21   -1    0    0  502  501  0.00000000000E+00  0.00000000000E+00  0.63249555767E+03  0.63249555767E+03  0.00000000000E+00 0. -1.
         21   -1    0    0  503  502 -0.00000000000E+00 -0.00000000000E+00 -0.13384080937E+04  0.13384080937E+04  0.00000000000E+00 0. -1.
         25    1    1    2    0    0 -0.39577783275E+03  0.11066104374E+03  0.52043602679E+03  0.67480709649E+03  0.12500000000E+03 0.  0.
         21    1    1    2  503  504  0.35144237858E+03 -0.69970466507E+02 -0.10177650148E+04  0.10790056705E+04  0.00000000000E+00 0. -1.
         21    1    1    2  504  501  0.44335454173E+02 -0.40690577232E+02 -0.20858354805E+03  0.21709088440E+03  0.00000000000E+00 0. -1.
<mgrwt>
<rscale>  4 0.42954739E+03</rscale>
<asrwt>0</asrwt>
<pdfrwt beam="1">  1       21 0.97307009E-01 0.42954739E+03</pdfrwt>
<pdfrwt beam="2">  1       21 0.20590894E+00 0.42954739E+03</pdfrwt>
<totfact> 0.86446586E+01</totfact>
</mgrwt>
</event>
<event>
 5    0  0.1283376E+001  0.2261293E+03  0.7546771E-02  0.1129394E+00
         21   -1    0    0  503  501  0.00000000000E+00  0.00000000000E+00  0.74897928417E+03  0.74897928417E+03  0.00000000000E+00 0. -1.
         21   -1    0    0  504  502 -0.00000000000E+00 -0.00000000000E+00 -0.95821853005E+02  0.95821853005E+02  0.00000000000E+00 0. -1.
         25    1    1    2    0    0 -0.63564212279E+02  0.19795659873E+03  0.47151349807E+03  0.53026144771E+03  0.12500000000E+03 0.  0.
         21    1    1    2  503  502 -0.13523711769E+02 -0.16259486130E+03  0.78660321639E+02  0.18112820294E+03  0.00000000000E+00 0. -1.
         21    1    1    2  504  501  0.77087924048E+02 -0.35361737433E+02  0.10298361146E+03  0.13341148653E+03  0.00000000000E+00 0. -1.
<mgrwt>
<rscale>  4 0.22612928E+03</rscale>
<asrwt>0</asrwt>
<pdfrwt beam="1">  1       21 0.11522758E+00 0.22612928E+03</pdfrwt>
<pdfrwt beam="2">  1       21 0.14741824E-01 0.22612928E+03</pdfrwt>
<totfact> 0.23159670E+04</totfact>
</mgrwt>
</event>
<event>
 5    0  0.1283376E+001  0.2654349E+03  0.7546771E-02  0.1103921E+00
         21   -1    0    0  504  501  0.00000000000E+00  0.00000000000E+00  0.12875200863E+04  0.12875200863E+04  0.00000000000E+00 0. -1.
         21   -1    0    0  501  502 -0.00000000000E+00 -0.00000000000E+00 -0.88249120737E+03  0.88249120737E+03  0.00000000000E+00 0.  1.
         25    1    1    2    0    0  0.10892631226E+03  0.23737044267E+03  0.52798153053E+03  0.60216207547E+03  0.12500000000E+03 0.  0.
         21    1    1    2  503  502 -0.30723579351E+02 -0.29675499947E+02 -0.82779353394E+03  0.82889487178E+03  0.00000000000E+00 0.  1.
         21    1    1    2  504  503 -0.78202732912E+02 -0.20769494272E+03  0.70484088230E+03  0.73895434638E+03  0.00000000000E+00 0. -1.
<mgrwt>
<rscale>  4 0.26543492E+03</rscale>
<asrwt>0</asrwt>
<pdfrwt beam="1">  1       21 0.19808001E+00 0.26543492E+03</pdfrwt>
<pdfrwt beam="2">  1       21 0.13576788E+00 0.26543492E+03</pdfrwt>
<totfact> 0.48564904E+01</totfact>
</mgrwt>
</event>
<event>
 5    0  0.1283376E+001  0.3337158E+03  0.7546771E-02  0.1069504E+00
         21   -1    0    0  503  501  0.00000000000E+00  0.00000000000E+00  0.93116151196E+03  0.93116151196E+03  0.00000000000E+00 0.  1.
         21   -1    0    0  504  502 -0.00000000000E+00 -0.00000000000E+00 -0.13031712313E+03  0.13031712313E+03  0.00000000000E+00 0.  1.
         25    1    1    2    0    0  0.25619895948E+03 -0.15807410630E+03  0.46978034541E+03  0.57179008635E+03  0.12500000000E+03 0.  0.
         21    1    1    2  503  502  0.29143410420E+02  0.11630768098E+02  0.40398684182E+01  0.31637535844E+02  0.00000000000E+00 0.  1.
         21    1    1    2  504  501 -0.28534236990E+03  0.14644333821E+03  0.32702417500E+03  0.45805101288E+03  0.00000000000E+00 0.  1.
<mgrwt>
<rscale>  4 0.33371575E+03</rscale>
<asrwt>0</asrwt>
<pdfrwt beam="1">  1       21 0.14325561E+00 0.33371575E+03</pdfrwt>
<pdfrwt beam="2">  1       21 0.20048789E-01 0.33371575E+03</pdfrwt>
<totfact> 0.71137916E+03</totfact>
</mgrwt>
</event>
<event>
 5    0  0.1283376E+001  0.4106674E+03  0.7546771E-02  0.1040147E+00
         21   -1    0    0  503  501  0.00000000000E+00  0.00000000000E+00  0.73633254208E+03  0.73633254208E+03  0.00000000000E+00 0.  1.
         21   -1    0    0  504  502 -0.00000000000E+00 -0.00000000000E+00 -0.11916551254E+04  0.11916551254E+04  0.00000000000E+00 0. -1.
         25    1    1    2    0    0  0.36805357172E+03 -0.12165212227E+03  0.60087260106E+03  0.72590326712E+03  0.12500000000E+03 0.  0.
         21    1    1    2  503  502 -0.39774380378E+03  0.15806577710E+03 -0.56581516779E+03  0.70945875668E+03  0.00000000000E+00 0. -1.
         21    1    1    2  504  501  0.29690232062E+02 -0.36413654839E+02 -0.49038001655E+03  0.49262564364E+03  0.00000000000E+00 0. -1.
<mgrwt>
<rscale>  4 0.41066743E+03</rscale>
<asrwt>0</asrwt>
<pdfrwt beam="1">  1       21 0.11328193E+00 0.41066743E+03</pdfrwt>
<pdfrwt beam="2">  1       21 0.18333155E+00 0.41066743E+03</pdfrwt>
<totfact> 0.85542162E+01</totfact>
</mgrwt>
</event>
<event>
 5    0  0.1283376E+001  0.2848967E+03  0.7546771E-02  0.1093044E+00
         21   -1    0    0  503  501  0.00000000000E+00  0.00000000000E+00  0.20063631928E+03  0.20063631928E+03  0.00000000000E+00 0. -1.
         21   -1    0    0  504  502 -0.00000000000E+00 -0.00000000000E+00 -0.10030747414E+04  0.10030747414E+04  0.00000000000E+00 0. -1.
         25    1    1    2    0    0  0.24129625441E+03  0.12728212707E+03 -0.45618142704E+03  0.54603215715E+03  0.12500000000E+03 0.  0.
         21    1    1    2  503  502 -0.23765434723E+03 -0.86673573113E+02  0.51234018776E+02  0.25810234736E+03  0.00000000000E+00 0. -1.
         21    1    1    2  504  501 -0.36419071751E+01 -0.40608553961E+02 -0.39749101388E+03  0.39957655619E+03  0.00000000000E+00 0. -1.
<mgrwt>
<rscale>  4 0.28489671E+03</rscale>
<asrwt>0</asrwt>
<pdfrwt beam="1">  1       21 0.30867127E-01 0.28489671E+03</pdfrwt>
<pdfrwt beam="2">  1       21 0.15431919E+00 0.28489671E+03</pdfrwt>
<totfact> 0.26025074E+03</totfact>
</mgrwt>
</event>
<event>
 5    0  0.1283376E+001  0.3785962E+03  0.7546771E-02  0.1051454E+00
         21   -1    0    0  503  501  0.00000000000E+00  0.00000000000E+00  0.29232118799E+04  0.29232118799E+04  0.00000000000E+00 0.  1.
         21   -1    0    0  504  502 -0.00000000000E+00 -0.00000000000E+00 -0.74085086713E+02  0.74085086713E+02  0.00000000000E+00 0.  1.
         25    1    1    2    0    0 -0.18555107467E+03  0.29607254495E+03  0.20158011310E+04  0.20496749384E+04  0.12500000000E+03 0.  0.
         21    1    1    2  503  502  0.25133021359E+03 -0.28836533406E+03  0.74216117688E+03  0.83493991078E+03  0.00000000000E+00 0.  1.
         21    1    1    2  504  501 -0.65779138919E+02 -0.77072108868E+01  0.91164485291E+02  0.11268211746E+03  0.00000000000E+00 0.  1.
<mgrwt>
<rscale>  4 0.37859620E+03</rscale>
<asrwt>0</asrwt>
<pdfrwt beam="1">  1       21 0.44972482E+00 0.37859620E+03</pdfrwt>
<pdfrwt beam="2">  1       21 0.11397708E-01 0.37859620E+03</pdfrwt>
<totfact> 0.21529072E+02</totfact>
</mgrwt>
</event>
<event>
 5    0  0.1283376E+001  0.2130442E+03  0.7546771E-02  0.1139178E+00
         21   -1    0    0  504  501  0.00000000000E+00  0.00000000000E+00  0.23776528001E+03  0.23776528001E+03  0.00000000000E+00 0. -1.
         21   -1    0    0  501  502 -0.00000000000E+00 -0.00000000000E+00 -0.37815320720E+03  0.37815320720E+03  0.00000000000E+00 0. -1.
         25    1    1    2    0    0 -0.21089790670E+03  0.10961175479E+03  0.22378619218E+02  0.26947813721E+03  0.12500000000E+03 0.  0.
         21    1    1    2  503  502  0.69328152318E+02 -0.10380729169E+03 -0.16229779714E+03  0.20475087660E+03  0.00000000000E+00 0. -1.
         21    1    1    2  504  503  0.14156975438E+03 -0.58044631030E+01 -0.46874926550E+00  0.14168947340E+03  0.00000000000E+00 0. -1.
<mgrwt>
<rscale>  4 0.21304421E+03</rscale>
<asrwt>0</asrwt>
<pdfrwt beam="1">  1       21 0.36579274E-01 0.21304421E+03</pdfrwt>
<pdfrwt beam="2">  1       21 0.58177417E-01 0.21304421E+03</pdfrwt>
<totfact> 0.19712009E+04</totfact>
</mgrwt>
</event>
<event>
 5    0  0.1283376E+001  0.3169854E+03  0.7546771E-02  0.1077045E+00
         21   -1    0    0  503  501  0.00000000000E+00  0.00000000000E+00  0.29457709426E+03  0.29457709426E+03  0.00000000000E+00 0. -1.
         21   -1    0    0  504  502 -0.00000000000E+00 -0.00000000000E+00 -0.51093203618E+03  0.51093203618E+03  0.00000000000E+00 0. -1.
         25    1    1    2    0    0 -0.74627235115E+02  0.25755652392E+03 -0.66469235973E+02  0.30322886829E+03  0.12500000000E+03 0.  0.
         21    1    1    2  503  502 -0.26913192293E+02  0.33898209956E+02 -0.18652117794E+03  0.19147730512E+03  0.00000000000E+00 0. -1.
         21    1    1    2  504  501  0.10154042741E+03 -0.29145473387E+03  0.36635471990E+02  0.31080295704E+03  0.00000000000E+00 0. -1.
<mgrwt>
<rscale>  4 0.31698543E+03</rscale>
<asrwt>0</asrwt>
<pdfrwt beam="1">  1       21 0.45319554E-01 0.31698543E+03</pdfrwt>
<pdfrwt beam="2">  1       21 0.78604927E-01 0.31698543E+03</pdfrwt>
<totfact> 0.62076966E+03</totfact>
</mgrwt>
</event>
<event>
 5    0  0.1283376E+001  0.4576068E+03  0.7546771E-02  0.1028233E+00
         21   -1    0    0  503  501  0.00000000000E+00  0.00000000000E+00  0.13738170293E+03  0.13738170293E+03  0.00000000000E+00 0.  1.
         21   -1    0    0  504  502 -0.00000000000E+00 -0.00000000000E+00 -0.14119419552E+04  0.14119419552E+04  0.00000000000E+00 0.  1.
         25    1    1    2    0    0 -0.39586205681E+03 -0.72782221755E+02 -0.56193943586E+03  0.70242789623E+03  0.12500000000E+03 0.  0.
         21    1    1    2  503  502  0.22221009813E+03  0.14725424082E+03 -0.37667113444E+03  0.46145669642E+03  0.00000000000E+00 0.  1.
         21    1    1    2  504  501  0.17365195868E+03 -0.74472019062E+02 -0.33594968194E+03  0.38543906545E+03  0.00000000000E+00 0.  1.
<mgrwt>
<rscale>  4 0.44828954E+03</rscale>
<asrwt>0</asrwt>
<pdfrwt beam="1">  1       21 0.21135648E-01 0.45760682E+03</pdfrwt>
<pdfrwt beam="2">  1       21 0.21722183E+00 0.45760682E+03</pdfrwt>
<totfact> 0.18228374E+03</totfact>
</mgrwt>
</event>
<event>
 5    0  0.1283376E+001  0.2249563E+03  0.7546771E-02  0.1130241E+00
         21   -1    0    0  504  501  0.00000000000E+00  0.00000000000E+00  0.77730371982E+03  0.77730371982E+03  0.00000000000E+00 0.  1.
         21   -1    0    0  501  502 -0.00000000000E+00 -0.00000000000E+00 -0.92414790795E+02  0.92414790795E+02  0.00000000000E+00 0.  1.
         25    1    1    2    0    0  0.11266835352E+03 -0.16990936866E+03  0.56854361018E+03  0.61679023024E+03  0.12500000000E+03 0.  0.
         21    1    1    2  503  502 -0.17716079066E+02  0.40560173462E+02 -0.13760086905E+02  0.46350049842E+02  0.00000000000E+00 0.  1.
         21    1    1    2  504  503 -0.94952274457E+02  0.12934919520E+03  0.13010540575E+03  0.20657823053E+03  0.00000000000E+00 0.  1.
<mgrwt>
<rscale>  4 0.22495629E+03</rscale>
<asrwt>0</asrwt>
<pdfrwt beam="1">  1       21 0.11958518E+00 0.22495629E+03</pdfrwt>
<pdfrwt beam="2">  1       21 0.14217661E-01 0.22495629E+03</pdfrwt>
<totfact> 0.22590089E+04</totfact>
</mgrwt>
</event>
<event>
 5    0  0.1283376E+001  0.2394529E+03  0.7546771E-02  0.1120158E+00
         21   -1    0    0  503  501  0.00000000000E+00  0.00000000000E+00  0.17167421986E+04  0.17167421986E+04  0.00000000000E+00 0. -1.
         21   -1    0    0  504  502 -0.00000000000E+00 -0.00000000000E+00 -0.59625732020E+02  0.59625732020E+02  0.00000000000E+00 0. -1.
         25    1    1    2    0    0 -0.16508927150E+03  0.12785975934E+03  0.14465368043E+04  0.14668661534E+04  0.12500000000E+03 0.  0.
         21    1    1    2  503  502  0.14371252306E+03 -0.12194842825E+03  0.21599822257E+03  0.28667043899E+03  0.00000000000E+00 0. -1.
         21    1    1    2  504  501  0.21376748442E+02 -0.59113310844E+01 -0.54185603480E+01  0.22831338230E+02  0.00000000000E+00 0. -1.
<mgrwt>
<rscale>  4 0.23945288E+03</rscale>
<asrwt>0</asrwt>
<pdfrwt beam="1">  1       21 0.26411415E+00 0.23945288E+03</pdfrwt>
<pdfrwt beam="2">  1       21 0.91731908E-02 0.23945288E+03</pdfrwt>
<totfact> 0.49631222E+03</totfact>
</mgrwt>
</event>
<event>
 5    0  0.1283376E+001  0.2384082E+03  0.7546771E-02  0.1120858E+00
         21   -1    0    0  504  501  0.00000000000E+00  0.00000000000E+00  0.57954219297E+03  0.57954219297E+03  0.00000000000E+00 0.  1.
         21   -1    0    0  501  502 -0.00000000000E+00 -0.00000000000E+00 -0.57422150308E+03  0.57422150308E+03  0.00000000000E+00 0. -1.
         25    1    1    2    0    0 -0.44585680738E+02  0.19890719634E+03  0.44547945333E+03  0.50559756627E+03  0.12500000000E+03 0.  0.
         21    1    1    2  503  502  0.44733377454E+02  0.51444442233E+01 -0.44181907167E+03  0.44410768115E+03  0.00000000000E+00 0. -1.
         21    1    1    2  504  503 -0.14769671591E+00 -0.20405164056E+03  0.16603082241E+01  0.20405844862E+03  0.00000000000E+00 0.  1.
<mgrwt>
<rscale>  4 0.23840819E+03</rscale>
<asrwt>0</asrwt>
<pdfrwt beam="1">  1       21 0.89160337E-01 0.23840819E+03</pdfrwt>
<pdfrwt beam="2">  1       21 0.88341770E-01 0.23840819E+03</pdfrwt>
<totfact> 0.11295517E+03</totfact>
</mgrwt>
</event>
<event>
 5    0  0.1283376E+001  0.3881647E+03  0.7546771E-02  0.1047957E+00
         21   -1    0    0  503  501  0.00000000000E+00  0.00000000000E+00  0.46926741243E+03  0.46926741243E+03  0.00000000000E+00 0. -1.
         21   -1    0    0  504  502 -0.00000000000E+00 -0.00000000000E+00 -0.14039623919E+04  0.14039623919E+04  0.00000000000E+00 0. -1.
         25    1    1    2    0    0 -0.18768134159E+02 -0.36670671685E+03  0.33573309875E+03  0.51299880374E+03  0.12500000000E+03 0.  0.
         21    1    1    2  503  502  0.22317766125E+02 -0.39833172001E+01 -0.54592382394E+03  0.54639433658E+03  0.00000000000E+00 0. -1.
         21    1    1    2  504  501 -0.35496319663E+01  0.37069003405E+03 -0.72450425430E+03  0.81383666404E+03  0.00000000000E+00 0. -1.
<mgrwt>
<rscale>  4 0.38816471E+03</rscale>
<asrwt>0</asrwt>
<pdfrwt beam="1">  1       21 0.72194988E-01 0.38816471E+03</pdfrwt>
<pdfrwt beam="2">  1       21 0.21599421E+00 0.38816471E+03</pdfrwt>
<totfact> 0.15303047E+02</totfact>
</mgrwt>
</event>
<event>
 5    0  0.1283376E+001  0.2494316E+03  0.7546771E-02  0.1113665E+00
         21   -1    0    0  503  501  0.00000000000E+00  0.00000000000E+00  0.16678958177E+03  0.16678958177E+03  0.00000000000E+00 0.  1.
         21   -1    0    0  504  502 -0.00000000000E+00 -0.00000000000E+00 -0.28742921730E+04  0.28742921730E+04  0.00000000000E+00 0.  1.
         25    1    1    2    0    0  0.15201719425E+03  0.19170211818E+03 -0.29876658295E+02  0.27636306586E+03  0.12500000000E+03 0.  0.
         21    1    1    2  503  502 -0.10997714926E+03 -0.81248496994E+01 -0.25105183083E+04  0.25129391482E+04  0.00000000000E+00 0.  1.
         21    1    1    2  504  501 -0.42040044995E+02 -0.18357726848E+03 -0.16710762468E+03  0.25177954070E+03  0.00000000000E+00 0. -1.
<mgrwt>
<rscale>  4 0.24943161E+03</rscale>
<asrwt>0</asrwt>
<pdfrwt beam="1">  1       21 0.25659939E-01 0.24943161E+03</pdfrwt>
<pdfrwt beam="2">  1       21 0.44219875E+00 0.24943161E+03</pdfrwt>
<totfact> 0.61368781E+01</totfact>
</mgrwt>
</event>
