<event>
 5    0  0.2159162E+000  0.2100787E+03  0.7546771E-02  0.1141504E+00
         21   -1    0    0  502  501  0.00000000000E+00  0.00000000000E+00  0.46382449951E+03  0.46382449951E+03  0.00000000000E+00 0. -1.
         21   -1    0    0  503  502 -0.00000000000E+00 -0.00000000000E+00 -0.15648926681E+03  0.15648926681E+03  0.00000000000E+00 0. -1.
         25    1    1    2    0    0 -0.11841535259E+03 -0.16831633298E+03  0.26456061721E+03  0.35772881329E+03  0.12500000000E+03 0.  0.
         21    1    1    2  503  504  0.83091284562E+02  0.13846480136E+03 -0.41254734210E+02  0.16666918096E+03  0.00000000000E+00 0. -1.
         21    1    1    2  504  501  0.35324068031E+02  0.29851531621E+02  0.84029349702E+02  0.95915772080E+02  0.00000000000E+00 0. -1.
<mgrwt>
<rscale>  4 0.21007875E+03</rscale>
<asrwt>0</asrwt>
<pdfrwt beam="1">  1       21 0.71357614E-01 0.21007875E+03</pdfrwt>
<pdfrwt beam="2">  1       21 0.24075272E-01 0.21007875E+03</pdfrwt>
<totfact> 0.28623875E+04</totfact>
</mgrwt>
</event>
<event>
 5    0  0.2444184E+000  0.2729600E+03  0.7546771E-02  0.1099597E+00
         21   -1    0    0  502  501  0.00000000000E+00  0.00000000000E+00  0.21632816366E+03  0.21632816366E+03  0.00000000000E+00 0. -1.
         21   -1    0    0  503  502 -0.00000000000E+00 -0.00000000000E+00 -0.34353259962E+03  0.34353259962E+03  0.00000000000E+00 0. -1.
         25    1    1    2    0    0 -0.24079597979E+03 -0.29990635680E+02 -0.10005139755E+02  0.27314326815E+03  0.12500000000E+03 0.  0.
         21    1    1    2  503  504  0.18423066102E+03  0.57333347453E+02 -0.60825403616E+02  0.20230615145E+03  0.00000000000E+00 0. -1.
         21    1    1    2  504  501  0.56565318770E+02 -0.27342711774E+02 -0.56373892589E+02  0.84411343671E+02  0.00000000000E+00 0. -1.
<mgrwt>
<rscale>  4 0.27295996E+03</rscale>
<asrwt>0</asrwt>
<pdfrwt beam="1">  1       21 0.33281256E-01 0.27295996E+03</pdfrwt>
<pdfrwt beam="2">  1       21 0.52851169E-01 0.27295996E+03</pdfrwt>
<totfact> 0.28372345E+04</totfact>
</mgrwt>
</event>
<event>
 5    0  0.2159162E+000  0.2479279E+03  0.7546771E-02  0.1114621E+00
         21   -1    0    0  502  501  0.00000000000E+00  0.00000000000E+00  0.31573407851E+03  0.31573407851E+03  0.00000000000E+00 0. -1.
         21   -1    0    0  503  502 -0.00000000000E+00 -0.00000000000E+00 -0.94688427493E+03  0.94688427493E+03  0.00000000000E+00 0.  1.
         25    1    1    2    0    0  0.19809269848E+03 -0.83452121089E+02  0.24827631957E+03  0.35138455368E+03  0.12500000000E+03 0.  0.
         21    1    1    2  503  504 -0.19523789062E+03  0.52867991700E+02 -0.81690716666E+03  0.84157600811E+03  0.00000000000E+00 0.  1.
         21    1    1    2  504  501 -0.28548078660E+01  0.30584129388E+02 -0.62519349320E+02  0.69657791652E+02  0.00000000000E+00 0. -1.
<mgrwt>
<rscale>  4 0.24792786E+03</rscale>
<asrwt>0</asrwt>
<pdfrwt beam="1">  1       21 0.48574474E-01 0.24792786E+03</pdfrwt>
<pdfrwt beam="2">  1       21 0.14567450E+00 0.24792786E+03</pdfrwt>
<totfact> 0.12420669E+03</totfact>
</mgrwt>
</event>
<event>
 5    0  0.2159162E+000  0.2725370E+03  0.7546771E-02  0.1099836E+00
         21   -1    0    0  502  501  0.00000000000E+00  0.00000000000E+00  0.22933010038E+03  0.22933010038E+03  0.00000000000E+00 0.  1.
         21   -1    0    0  503  502 -0.00000000000E+00 -0.00000000000E+00 -0.94287562245E+03  0.94287562245E+03  0.00000000000E+00 0.  1.
         25    1    1    2    0    0  0.89428522415E+02 -0.22506433254E+03  0.12329190720E+03  0.29912757944E+03  0.12500000000E+03 0.  0.
         21    1    1    2  503  504 -0.17394400280E+02  0.11066094552E+03 -0.32869531332E+03  0.34725929652E+03  0.00000000000E+00 0.  1.
         21    1    1    2  504  501 -0.72034122135E+02  0.11440338701E+03 -0.50814211596E+03  0.52581884687E+03  0.00000000000E+00 0.  1.
<mgrwt>
<rscale>  4 0.27253700E+03</rscale>
<asrwt>0</asrwt>
<pdfrwt beam="1">  1       21 0.35281554E-01 0.27253700E+03</pdfrwt>
<pdfrwt beam="2">  1       21 0.14505779E+00 0.27253700E+03</pdfrwt>
<totfact> 0.23723356E+03</totfact>
</mgrwt>
</event>
<event>
 5    0  0.2462501E+000  0.2409211E+03  0.7546771E-02  0.1119181E+00
         21   -1    0    0  502  501  0.00000000000E+00  0.00000000000E+00  0.40521846535E+03  0.40521846535E+03  0.00000000000E+00 0.  1.
         21   -1    0    0  503  502 -0.00000000000E+00 -0.00000000000E+00 -0.21644808898E+03  0.21644808898E+03  0.00000000000E+00 0.  1.
         25    1    1    2    0    0 -0.22465722900E+03 -0.93807291182E+02 -0.14070060533E+02  0.27403219706E+03  0.12500000000E+03 0.  0.
         21    1    1    2  503  504  0.15920973806E+03  0.11556897789E+03  0.19700876887E+03  0.27841764376E+03  0.00000000000E+00 0.  1.
         21    1    1    2  504  501  0.65447490937E+02 -0.21761686709E+02  0.58316680329E+01  0.69216713519E+02  0.00000000000E+00 0.  1.
<mgrwt>
<rscale>  4 0.24092107E+03</rscale>
<asrwt>0</asrwt>
<pdfrwt beam="1">  1       21 0.62341302E-01 0.24092107E+03</pdfrwt>
<pdfrwt beam="2">  1       21 0.33299706E-01 0.24092107E+03</pdfrwt>
<totfact> 0.20172142E+04</totfact>
</mgrwt>
</event>
<event>
 5    0  0.2159162E+000  0.2699045E+03  0.7546771E-02  0.1101334E+00
         21   -1    0    0  502  501  0.00000000000E+00  0.00000000000E+00  0.23576652193E+03  0.23576652193E+03  0.00000000000E+00 0.  1.
         21   -1    0    0  503  502 -0.00000000000E+00 -0.00000000000E+00 -0.33104001246E+03  0.33104001246E+03  0.00000000000E+00 0. -1.
         25    1    1    2    0    0  0.23865456649E+03  0.16353367243E+02  0.62545403503E+02  0.27705660474E+03  0.12500000000E+03 0.  0.
         21    1    1    2  503  504 -0.63931797335E+02  0.65595564237E+01 -0.24489283348E+02  0.68775195309E+02  0.00000000000E+00 0. -1.
         21    1    1    2  504  501 -0.17472276916E+03 -0.22912923666E+02 -0.13332961068E+03  0.22097473434E+03  0.00000000000E+00 0. -1.
<mgrwt>
<rscale>  4 0.26990449E+03</rscale>
<asrwt>0</asrwt>
<pdfrwt beam="1">  1       21 0.36271773E-01 0.26990449E+03</pdfrwt>
<pdfrwt beam="2">  1       21 0.50929232E-01 0.26990449E+03</pdfrwt>
<totfact> 0.25867094E+04</totfact>
</mgrwt>
</event>
<event>
 5    0  0.2159162E+000  0.2767393E+03  0.7546771E-02  0.1097483E+00
         21   -1    0    0  502  501  0.00000000000E+00  0.00000000000E+00  0.59634462707E+03  0.59634462707E+03  0.00000000000E+00 0. -1.
         21   -1    0    0  503  502 -0.00000000000E+00 -0.00000000000E+00 -0.13212635575E+04  0.13212635575E+04  0.00000000000E+00 0.  1.
         25    1    1    2    0    0 -0.21191721553E+03 -0.15232373659E+03  0.53577788689E+03  0.60892887191E+03  0.12500000000E+03 0.  0.
         21    1    1    2  503  504  0.21363233770E+03  0.12324080424E+03 -0.12549870282E+04  0.12789915999E+04  0.00000000000E+00 0.  1.
         21    1    1    2  504  501 -0.17151221669E+01  0.29082932348E+02 -0.57097890879E+01  0.29687712769E+02  0.00000000000E+00 0.  1.
<mgrwt>
<rscale>  4 0.27673925E+03</rscale>
<asrwt>0</asrwt>
<pdfrwt beam="1">  1       21 0.91745328E-01 0.27673925E+03</pdfrwt>
<pdfrwt beam="2">  1       21 0.20327131E+00 0.27673925E+03</pdfrwt>
<totfact> 0.11638481E+02</totfact>
</mgrwt>
</event>
<event>
 5    0  0.2159162E+000  0.3027332E+03  0.7546771E-02  0.1083882E+00
         21   -1    0    0  502  501  0.00000000000E+00  0.00000000000E+00  0.11897118556E+04  0.11897118556E+04  0.00000000000E+00 0. -1.
         21   -1    0    0  503  502 -0.00000000000E+00 -0.00000000000E+00 -0.12284335695E+03  0.12284335695E+03  0.00000000000E+00 0. -1.
         25    1    1    2    0    0  0.25842521904E+03 -0.96118775810E+02  0.96604623033E+03  0.10123698593E+04  0.12500000000E+03 0.  0.
         21    1    1    2  503  504 -0.21580310207E+03  0.53249663031E+02  0.80725396876E+02  0.23648064441E+03  0.00000000000E+00 0. -1.
         21    1    1    2  504  501 -0.42622116969E+02  0.42869112779E+02  0.20096871421E+02  0.63704708823E+02  0.00000000000E+00 0. -1.
<mgrwt>
<rscale>  4 0.30273324E+03</rscale>
<asrwt>0</asrwt>
<pdfrwt beam="1">  1       21 0.18303258E+00 0.30273324E+03</pdfrwt>
<pdfrwt beam="2">  1       21 0.18898979E-01 0.30273324E+03</pdfrwt>
<totfact> 0.41048775E+03</totfact>
</mgrwt>
</event>
<event>
 5    0  0.2159162E+000  0.3095204E+03  0.7546771E-02  0.1080576E+00
         21   -1    0    0  502  501  0.00000000000E+00  0.00000000000E+00  0.31843665549E+03  0.31843665549E+03  0.00000000000E+00 0.  1.
         21   -1    0    0  503  502 -0.00000000000E+00 -0.00000000000E+00 -0.45122461929E+03  0.45122461929E+03  0.00000000000E+00 0.  1.
         25    1    1    2    0    0  0.28113980896E+03  0.33738619449E+02  0.16399138268E+03  0.35027997405E+03  0.12500000000E+03 0.  0.
         21    1    1    2  503  504 -0.16362719849E+03 -0.62570819457E+02 -0.16930015661E+03  0.24362165454E+03  0.00000000000E+00 0.  1.
         21    1    1    2  504  501 -0.11751261048E+03  0.28832200008E+02 -0.12747918987E+03  0.17575964619E+03  0.00000000000E+00 0.  1.
<mgrwt>
<rscale>  4 0.30952041E+03</rscale>
<asrwt>0</asrwt>
<pdfrwt beam="1">  1       21 0.48990255E-01 0.30952041E+03</pdfrwt>
<pdfrwt beam="2">  1       21 0.69419172E-01 0.30952041E+03</pdfrwt>
<totfact> 0.70047048E+03</totfact>
</mgrwt>
</event>
<event>
 5    0  0.4932350E+000  0.2519176E+03  0.7546771E-02  0.1112099E+00
         21   -1    0    0  502  501  0.00000000000E+00  0.00000000000E+00  0.26736549829E+03  0.26736549829E+03  0.00000000000E+00 0.  1.
         21   -1    0    0  503  502 -0.00000000000E+00 -0.00000000000E+00 -0.27442375557E+03  0.27442375557E+03  0.00000000000E+00 0.  1.
         25    1    1    2    0    0 -0.19742910053E+03  0.94123393670E+02  0.12026857380E+03  0.27915406645E+03  0.12500000000E+03 0.  0.
         21    1    1    2  503  504  0.31412493409E+02 -0.11349470927E+02 -0.53305383829E+02  0.62904842243E+02  0.00000000000E+00 0.  1.
         21    1    1    2  504  501  0.16601660712E+03 -0.82773922744E+02 -0.74021447247E+02  0.19973034516E+03  0.00000000000E+00 0.  1.
<mgrwt>
<rscale>  4 0.25191757E+03</rscale>
<asrwt>0</asrwt>
<pdfrwt beam="1">  1       21 0.41133153E-01 0.25191757E+03</pdfrwt>
<pdfrwt beam="2">  1       21 0.42219039E-01 0.25191757E+03</pdfrwt>
<totfact> 0.29837510E+04</totfact>
</mgrwt>
</event>
<event>
 5    0  0.2159162E+000  0.2552112E+03  0.7546771E-02  0.1110055E+00
         21   -1    0    0  502  501  0.00000000000E+00  0.00000000000E+00  0.10362362150E+04  0.10362362150E+04  0.00000000000E+00 0. -1.
         21   -1    0    0  503  502 -0.00000000000E+00 -0.00000000000E+00 -0.60739649595E+02  0.60739649595E+02  0.00000000000E+00 0. -1.
         25    1    1    2    0    0 -0.13659908281E+03  0.17563725324E+03  0.64367446927E+03  0.69242297517E+03  0.12500000000E+03 0.  0.
         21    1    1    2  503  504  0.10188900373E+03 -0.79683749052E+02  0.18911387577E+03  0.22911771418E+03  0.00000000000E+00 0. -1.
         21    1    1    2  504  501  0.34710079088E+02 -0.95953504185E+02  0.14270822040E+03  0.17543517528E+03  0.00000000000E+00 0. -1.
<mgrwt>
<rscale>  4 0.25521120E+03</rscale>
<asrwt>0</asrwt>
<pdfrwt beam="1">  1       21 0.15942094E+00 0.25521120E+03</pdfrwt>
<pdfrwt beam="2">  1       21 0.93445622E-02 0.25521120E+03</pdfrwt>
<totfact> 0.22378767E+04</totfact>
</mgrwt>
</event>
<event>
 5    0  0.2159162E+000  0.4012757E+03  0.7546771E-02  0.1043339E+00
         21   -1    0    0  502  501  0.00000000000E+00  0.00000000000E+00  0.37106297731E+03  0.37106297731E+03  0.00000000000E+00 0.  1.
         21   -1    0    0  503  502 -0.00000000000E+00 -0.00000000000E+00 -0.91244946504E+03  0.91244946504E+03  0.00000000000E+00 0.  1.
         25    1    1    2    0    0 -0.36872381499E+03 -0.97159255612E+02 -0.74478116607E+03  0.84600304847E+03  0.12500000000E+03 0.  0.
         21    1    1    2  503  504  0.28913959492E+03  0.46542973716E+02  0.14810490344E+03  0.32818137695E+03  0.00000000000E+00 0.  1.
         21    1    1    2  504  501  0.79584220069E+02  0.50616281896E+02  0.55289774898E+02  0.10932801693E+03  0.00000000000E+00 0. -1.
<mgrwt>
<rscale>  4 0.40127568E+03</rscale>
<asrwt>0</asrwt>
<pdfrwt beam="1">  1       21 0.57086612E-01 0.40127568E+03</pdfrwt>
<pdfrwt beam="2">  1       21 0.14037684E+00 0.40127568E+03</pdfrwt>
<totfact> 0.88361799E+02</totfact>
</mgrwt>
</event>
<event>
 5    0  0.2159162E+000  0.3151915E+03  0.7546771E-02  0.1077884E+00
         21   -1    0    0  502  501  0.00000000000E+00  0.00000000000E+00  0.10790198267E+04  0.10790198267E+04  0.00000000000E+00 0. -1.
         21   -1    0    0  503  502 -0.00000000000E+00 -0.00000000000E+00 -0.17424263776E+03  0.17424263776E+03  0.00000000000E+00 0. -1.
         25    1    1    2    0    0  0.25458728806E+03 -0.15409549037E+03  0.82481476924E+03  0.88572259254E+03  0.12500000000E+03 0.  0.
         21    1    1    2  503  504 -0.26110280868E+02  0.15238905486E+02 -0.58945064549E+02  0.66245691499E+02  0.00000000000E+00 0. -1.
         21    1    1    2  504  501 -0.22847700719E+03  0.13885658489E+03  0.13890748430E+03  0.30129418045E+03  0.00000000000E+00 0. -1.
<mgrwt>
<rscale>  4 0.31519148E+03</rscale>
<asrwt>0</asrwt>
<pdfrwt beam="1">  1       21 0.16600305E+00 0.31519148E+03</pdfrwt>
<pdfrwt beam="2">  1       21 0.26806560E-01 0.31519148E+03</pdfrwt>
<totfact> 0.27578002E+03</totfact>
</mgrwt>
</event>
<event>
 5    0  0.2159162E+000  0.3745321E+03  0.7546771E-02  0.1052973E+00
         21   -1    0    0  502  501  0.00000000000E+00  0.00000000000E+00  0.20192568247E+03  0.20192568247E+03  0.00000000000E+00 0.  1.
         21   -1    0    0  503  502 -0.00000000000E+00 -0.00000000000E+00 -0.97326166952E+03  0.97326166952E+03  0.00000000000E+00 0.  1.
         25    1    1    2    0    0  0.11774701931E+03 -0.33284367052E+03 -0.68274200495E+02  0.38070413186E+03  0.12500000000E+03 0.  0.
         21    1    1    2  503  504  0.14844835580E+02  0.93650494782E+02 -0.21593546609E+03  0.23583661681E+03  0.00000000000E+00 0. -1.
         21    1    1    2  504  501 -0.13259185489E+03  0.23919317574E+03 -0.48712632047E+03  0.55864660332E+03  0.00000000000E+00 0.  1.
<mgrwt>
<rscale>  4 0.37453207E+03</rscale>
<asrwt>0</asrwt>
<pdfrwt beam="1">  1       21 0.31065489E-01 0.37453207E+03</pdfrwt>
<pdfrwt beam="2">  1       21 0.14973257E+00 0.37453207E+03</pdfrwt>
<totfact> 0.26553209E+03</totfact>
</mgrwt>
</event>
<event>
 5    0  0.7040854E+000  0.2830343E+03  0.7546771E-02  0.1094043E+00
         21   -1    0    0  502  501  0.00000000000E+00  0.00000000000E+00  0.21314007255E+03  0.21314007255E+03  0.00000000000E+00 0. -1.
         21   -1    0    0  503  502 -0.00000000000E+00 -0.00000000000E+00 -0.74000903615E+03  0.74000903615E+03  0.00000000000E+00 0.  1.
         25    1    1    2    0    0  0.17386995651E+03 -0.18758886495E+03  0.71003800222E+02  0.29340566402E+03  0.12500000000E+03 0.  0.
         21    1    1    2  503  504 -0.24425010275E+02 -0.63447458011E+01 -0.20187605952E+02  0.32316812347E+02  0.00000000000E+00 0.  1.
         21    1    1    2  504  501 -0.14944494624E+03  0.19393361075E+03 -0.57768515787E+03  0.62742663233E+03  0.00000000000E+00 0.  1.
<mgrwt>
<rscale>  4 0.28303426E+03</rscale>
<asrwt>0</asrwt>
<pdfrwt beam="1">  1       21 0.32790780E-01 0.28303426E+03</pdfrwt>
<pdfrwt beam="2">  1       21 0.11384754E+00 0.28303426E+03</pdfrwt>
<totfact> 0.50610375E+03</totfact>
</mgrwt>
</event>
<event>
 5    0  0.2159162E+000  0.2269232E+03  0.7546771E-02  0.1128824E+00
         21   -1    0    0  502  501  0.00000000000E+00  0.00000000000E+00  0.32036972060E+03  0.32036972060E+03  0.00000000000E+00 0. -1.
         21   -1    0    0  503  502 -0.00000000000E+00 -0.00000000000E+00 -0.65491020571E+03  0.65491020571E+03  0.00000000000E+00 0.  1.
         25    1    1    2    0    0  0.18218551672E+03  0.12184085169E+03  0.23718150139E+03  0.34629008107E+03  0.12500000000E+03 0.  0.
         21    1    1    2  503  504 -0.37374960432E+02 -0.21416104125E+01 -0.13167907083E+02  0.39684605824E+02  0.00000000000E+00 0.  1.
         21    1    1    2  504  501 -0.14481055628E+03 -0.11969924128E+03 -0.55855407941E+03  0.58930523942E+03  0.00000000000E+00 0.  1.
<mgrwt>
<rscale>  4 0.22692316E+03</rscale>
<asrwt>0</asrwt>
<pdfrwt beam="1">  1       21 0.49287650E-01 0.22692316E+03</pdfrwt>
<pdfrwt beam="2">  1       21 0.10075542E+00 0.22692316E+03</pdfrwt>
<totfact> 0.30792071E+03</totfact>
</mgrwt>
</event>
<event>
 5    0  0.4956231E+000  0.2382303E+03  0.7546771E-02  0.1120977E+00
         21   -1    0    0  502  501  0.00000000000E+00  0.00000000000E+00  0.15381325507E+04  0.15381325507E+04  0.00000000000E+00 0.  1.
         21   -1    0    0  503  502 -0.00000000000E+00 -0.00000000000E+00 -0.10625232990E+03  0.10625232990E+03  0.00000000000E+00 0. -1.
         25    1    1    2    0    0 -0.34017027019E+02  0.20217357075E+03  0.13739039461E+04  0.13947287779E+04  0.12500000000E+03 0.  0.
         21    1    1    2  503  504  0.48185086391E+02 -0.12214209685E+02  0.27308061745E+02  0.56716132670E+02  0.00000000000E+00 0.  1.
         21    1    1    2  504  501 -0.14168059372E+02 -0.18995936106E+03  0.30668213012E+02  0.19293997007E+03  0.00000000000E+00 0. -1.
<mgrwt>
<rscale>  4 0.23823035E+03</rscale>
<asrwt>0</asrwt>
<pdfrwt beam="1">  1       21 0.23663576E+00 0.23823035E+03</pdfrwt>
<pdfrwt beam="2">  1       21 0.16346513E-01 0.23823035E+03</pdfrwt>
<totfact> 0.25564602E+03</totfact>
</mgrwt>
</event>
