<event>
 5    0  0.1943430E+001  0.5859927E+03  0.7546771E-02  0.9934903E-01
         21   -1    0    0  502  501  0.00000000000E+00  0.00000000000E+00  0.14968520614E+04  0.14968520614E+04  0.00000000000E+00 0.  1.
         21   -1    0    0  503  502 -0.00000000000E+00 -0.00000000000E+00 -0.27655471474E+03  0.27655471474E+03  0.00000000000E+00 0.  1.
         25    1    1    2    0    0  0.38701656732E+03 -0.42187050697E+03  0.97627199002E+03  0.11386345096E+04  0.12500000000E+03 0.  0.
         21    1    1    2  503  504 -0.31351110082E+03  0.32444031922E+03  0.24358718464E+03  0.51272355865E+03  0.00000000000E+00 0.  1.
         21    1    1    2  504  501 -0.73505466501E+02  0.97430187754E+02  0.43817198959E+00  0.12204870784E+03  0.00000000000E+00 0.  1.
<mgrwt>
<rscale>  4 0.58599145E+03</rscale>
<asrwt>0</asrwt>
<pdfrwt beam="1">  1       21 0.23028493E+00 0.58599271E+03</pdfrwt>
<pdfrwt beam="2">  1       21 0.42546880E-01 0.58599271E+03</pdfrwt>
<totfact> 0.35294832E+02</totfact>
</mgrwt>
</event>
<event>
 5    0  0.1943430E+001  0.2249785E+03  0.7546771E-02  0.1130225E+00
         21   -1    0    0  504  501  0.00000000000E+00  0.00000000000E+00  0.89490385940E+02  0.89490385940E+02  0.00000000000E+00 0.  1.
         21   -1    0    0  501  502 -0.00000000000E+00 -0.00000000000E+00 -0.18891864755E+04  0.18891864755E+04  0.00000000000E+00 0.  1.
         25    1    1    2    0    0  0.59122358637E+02 -0.19994187920E+03 -0.10003876785E+03  0.26287822926E+03  0.12500000000E+03 0.  0.
         21    1    1    2  503  502 -0.61887031334E+02  0.17508471689E+03 -0.16477389957E+04  0.16581702146E+04  0.00000000000E+00 0.  1.
         21    1    1    2  504  503  0.27646726965E+01  0.24857162308E+02 -0.51918325976E+02  0.57628417515E+02  0.00000000000E+00 0.  1.
<mgrwt>
<rscale>  4 0.22497853E+03</rscale>
<asrwt>0</asrwt>
<pdfrwt beam="1">  1       21 0.13767753E-01 0.22497853E+03</pdfrwt>
<pdfrwt beam="2">  1       21 0.29064405E+00 0.22497853E+03</pdfrwt>
<totfact> 0.17044682E+03</totfact>
</mgrwt>
</event>
<event>
 5    0  0.1943430E+001  0.3217553E+03  0.7546771E-02  0.1074844E+00
         21   -1    0    0  504  501  0.00000000000E+00  0.00000000000E+00  0.47626513007E+02  0.47626513007E+02  0.00000000000E+00 0. -1.
         21   -1    0    0  501  502 -0.00000000000E+00 -0.00000000000E+00 -0.21075913280E+04  0.21075913280E+04  0.00000000000E+00 0. -1.
         25    1    1    2    0    0  0.16419613070E+03  0.24686255479E+03 -0.92870551406E+03  0.98286337918E+03  0.12500000000E+03 0.  0.
         21    1    1    2  503  502 -0.15579170413E+03 -0.22150137052E+03 -0.90857208273E+03  0.94807021983E+03  0.00000000000E+00 0. -1.
         21    1    1    2  504  503 -0.84044265691E+01 -0.25361184265E+02 -0.22268721820E+03  0.22428424199E+03  0.00000000000E+00 0.  1.
<mgrwt>
<rscale>  4 0.32175533E+03</rscale>
<asrwt>0</asrwt>
<pdfrwt beam="1">  1       21 0.73271568E-02 0.32175533E+03</pdfrwt>
<pdfrwt beam="2">  1       21 0.32424478E+00 0.32175533E+03</pdfrwt>
<totfact> 0.30521371E+03</totfact>
</mgrwt>
</event>
<event>
 5    0  0.1943430E+001  0.2349150E+03  0.7546771E-02  0.1123227E+00
         21   -1    0    0  503  501  0.00000000000E+00  0.00000000000E+00  0.28236194628E+03  0.28236194628E+03  0.00000000000E+00 0. -1.
         21   -1    0    0  504  502 -0.00000000000E+00 -0.00000000000E+00 -0.38898149946E+03  0.38898149946E+03  0.00000000000E+00 0.  1.
         25    1    1    2    0    0 -0.14429899530E+03  0.13853350219E+03  0.17366138009E+03  0.29291125996E+03  0.12500000000E+03 0.  0.
         21    1    1    2  503  502 -0.22308688870E+02 -0.31934550865E+02 -0.11253484208E+03  0.11908645524E+03  0.00000000000E+00 0. -1.
         21    1    1    2  504  501  0.16660768417E+03 -0.10659895133E+03 -0.16774609118E+03  0.25934573055E+03  0.00000000000E+00 0.  1.
<mgrwt>
<rscale>  4 0.23491498E+03</rscale>
<asrwt>0</asrwt>
<pdfrwt beam="1">  1       21 0.43440300E-01 0.23491498E+03</pdfrwt>
<pdfrwt beam="2">  1       21 0.59843307E-01 0.23491498E+03</pdfrwt>
<totfact> 0.12932527E+04</totfact>
</mgrwt>
</event>
<event>
 5    0  0.1943430E+001  0.2977691E+03  0.7546771E-02  0.1086361E+00
         21   -1    0    0  504  501  0.00000000000E+00  0.00000000000E+00  0.37830888931E+03  0.37830888931E+03  0.00000000000E+00 0.  1.
         21   -1    0    0  501  502 -0.00000000000E+00 -0.00000000000E+00 -0.23900985265E+03  0.23900985265E+03  0.00000000000E+00 0.  1.
         25    1    1    2    0    0  0.10629777632E+03  0.25130281802E+03  0.10320581722E+03  0.31737795182E+03  0.12500000000E+03 0.  0.
         21    1    1    2  503  502  0.21971347385E+02 -0.15792264193E+02 -0.78839957391E+01  0.28183206047E+02  0.00000000000E+00 0.  1.
         21    1    1    2  504  503 -0.12826912370E+03 -0.23551055382E+03  0.43977215182E+02  0.27175758409E+03  0.00000000000E+00 0.  1.
<mgrwt>
<rscale>  4 0.29776906E+03</rscale>
<asrwt>0</asrwt>
<pdfrwt beam="1">  1       21 0.58201368E-01 0.29776906E+03</pdfrwt>
<pdfrwt beam="2">  1       21 0.36770747E-01 0.29776906E+03</pdfrwt>
<totfact> 0.18713508E+04</totfact>
</mgrwt>
</event>
<event>
 5    0  0.1943430E+001  0.2402929E+03  0.7546771E-02  0.1119598E+00
         21   -1    0    0  503  501  0.00000000000E+00  0.00000000000E+00  0.22059669667E+03  0.22059669667E+03  0.00000000000E+00 0. -1.
         21   -1    0    0  504  502 -0.00000000000E+00 -0.00000000000E+00 -0.46288733744E+03  0.46288733744E+03  0.00000000000E+00 0.  1.
         25    1    1    2    0    0  0.63824042438E+02 -0.20361541169E+03  0.92979424254E+02  0.26420241786E+03  0.12500000000E+03 0.  0.
         21    1    1    2  503  502 -0.53066766542E+02  0.17743214994E+03 -0.16931565075E+03  0.25093034718E+03  0.00000000000E+00 0. -1.
         21    1    1    2  504  501 -0.10757275896E+02  0.26183261745E+02 -0.16595441428E+03  0.16835126907E+03  0.00000000000E+00 0.  1.
<mgrwt>
<rscale>  4 0.24029291E+03</rscale>
<asrwt>0</asrwt>
<pdfrwt beam="1">  1       21 0.33937954E-01 0.24029291E+03</pdfrwt>
<pdfrwt beam="2">  1       21 0.71213436E-01 0.24029291E+03</pdfrwt>
<totfact> 0.14503399E+04</totfact>
</mgrwt>
</event>
<event>
 5    0  0.1943430E+001  0.2501028E+03  0.7546771E-02  0.1113240E+00
         21   -1    0    0  503  501  0.00000000000E+00  0.00000000000E+00  0.41724614435E+02  0.41724614435E+02  0.00000000000E+00 0. -1.
         21   -1    0    0  504  502 -0.00000000000E+00 -0.00000000000E+00 -0.16772794959E+04  0.16772794959E+04  0.00000000000E+00 0. -1.
         25    1    1    2    0    0 -0.16260498588E+03 -0.13120321754E+03 -0.84560973515E+03  0.87996334577E+03  0.12500000000E+03 0.  0.
         21    1    1    2  503  502 -0.38212500476E+02  0.26390025232E+02 -0.67637175285E+02  0.82045207690E+02  0.00000000000E+00 0. -1.
         21    1    1    2  504  501  0.20081748635E+03  0.10481319231E+03 -0.72230797099E+03  0.75699555683E+03  0.00000000000E+00 0. -1.
<mgrwt>
<rscale>  4 0.25010278E+03</rscale>
<asrwt>0</asrwt>
<pdfrwt beam="1">  1       21 0.64191707E-02 0.25010278E+03</pdfrwt>
<pdfrwt beam="2">  1       21 0.25804303E+00 0.25010278E+03</pdfrwt>
<totfact> 0.99670771E+03</totfact>
</mgrwt>
</event>
<event>
 5    0  0.1943430E+001  0.2474198E+03  0.7546771E-02  0.1114946E+00
         21   -1    0    0  504  501  0.00000000000E+00  0.00000000000E+00  0.13419519649E+03  0.13419519649E+03  0.00000000000E+00 0. -1.
         21   -1    0    0  501  502 -0.00000000000E+00 -0.00000000000E+00 -0.10508815888E+04  0.10508815888E+04  0.00000000000E+00 0. -1.
         25    1    1    2    0    0  0.16772892154E+03  0.13458061974E+03 -0.16129600385E+02  0.24925909881E+03  0.12500000000E+03 0.  0.
         21    1    1    2  503  502 -0.35650159326E+02  0.26415178495E+02 -0.11929363119E+03  0.12727790836E+03  0.00000000000E+00 0. -1.
         21    1    1    2  504  503 -0.13207876222E+03 -0.16099579823E+03 -0.78126316074E+03  0.80853977812E+03  0.00000000000E+00 0. -1.
<mgrwt>
<rscale>  4 0.24741976E+03</rscale>
<asrwt>0</asrwt>
<pdfrwt beam="1">  1       21 0.20645415E-01 0.24741976E+03</pdfrwt>
<pdfrwt beam="2">  1       21 0.16167409E+00 0.24741976E+03</pdfrwt>
<totfact> 0.51020404E+03</totfact>
</mgrwt>
</event>
<event>
 5    0  0.1943430E+001  0.2570523E+03  0.7546771E-02  0.1108927E+00
         21   -1    0    0  503  501  0.00000000000E+00  0.00000000000E+00  0.55627427134E+03  0.55627427134E+03  0.00000000000E+00 0. -1.
         21   -1    0    0  504  502 -0.00000000000E+00 -0.00000000000E+00 -0.44494308691E+03  0.44494308691E+03  0.00000000000E+00 0. -1.
         25    1    1    2    0    0 -0.11932654194E+03 -0.19974414664E+03  0.39012714493E+03  0.47112709213E+03  0.12500000000E+03 0.  0.
         21    1    1    2  503  502  0.24498782136E+03  0.45344308826E+02 -0.18320668828E+03  0.30925689902E+03  0.00000000000E+00 0. -1.
         21    1    1    2  504  501 -0.12566127942E+03  0.15439983781E+03 -0.95589272215E+02  0.22083336710E+03  0.00000000000E+00 0. -1.
<mgrwt>
<rscale>  4 0.25705227E+03</rscale>
<asrwt>0</asrwt>
<pdfrwt beam="1">  1       21 0.85580658E-01 0.25705227E+03</pdfrwt>
<pdfrwt beam="2">  1       21 0.68452782E-01 0.25705227E+03</pdfrwt>
<totfact> 0.21824633E+03</totfact>
</mgrwt>
</event>
