<event>
 5    0  0.1856407E+000  0.2212940E+03  0.7546771E-02  0.1132922E+00
         21   -1    0    0  502  501  0.00000000000E+00  0.00000000000E+00  0.56644169134E+02  0.56644169134E+02  0.00000000000E+00 0. -1.
         21   -1    0    0  503  502 -0.00000000000E+00 -0.00000000000E+00 -0.10204516244E+04  0.10204516244E+04  0.00000000000E+00 0. -1.
         25    1    1    2    0    0 -0.20768871981E+03 -0.83303033795E+01 -0.39792429705E+03  0.46601796583E+03  0.12500000000E+03 0.  0.
         21    1    1    2  503  504  0.15858864003E+03  0.40754705046E+02 -0.33586461387E+03  0.37365270182E+03  0.00000000000E+00 0. -1.
         21    1    1    2  504  501  0.49100079783E+02 -0.32424401667E+02 -0.23001854435E+03  0.23742512589E+03  0.00000000000E+00 0. -1.
<mgrwt>
<rscale>  4 0.22129399E+03</rscale>
<asrwt>0</asrwt>
<pdfrwt beam="1">  1       21 0.87144875E-02 0.22129399E+03</pdfrwt>
<pdfrwt beam="2">  1       21 0.15699256E+00 0.22129399E+03</pdfrwt>
<totfact> 0.26888537E+04</totfact>
</mgrwt>
</event>
<event>
 5    0  0.1856407E+000  0.2472218E+03  0.7546771E-02  0.1115073E+00
         21   -1    0    0  502  501  0.00000000000E+00  0.00000000000E+00  0.57848363913E+03  0.57848363913E+03  0.00000000000E+00 0.  1.
         21   -1    0    0  503  502 -0.00000000000E+00 -0.00000000000E+00 -0.12901507697E+03  0.12901507697E+03  0.00000000000E+00 0.  1.
         25    1    1    2    0    0 -0.14232073762E+03  0.15886613930E+03  0.52184243429E+02  0.25266942402E+03  0.12500000000E+03 0.  0.
         21    1    1    2  503  504  0.13101911651E+03 -0.11018834639E+03  0.29783299893E+03  0.34352871179E+03  0.00000000000E+00 0.  1.
         21    1    1    2  504  501  0.11301621110E+02 -0.48677792919E+02  0.99451319793E+02  0.11130058029E+03  0.00000000000E+00 0.  1.
<mgrwt>
<rscale>  4 0.24722185E+03</rscale>
<asrwt>0</asrwt>
<pdfrwt beam="1">  1       21 0.88997481E-01 0.24722185E+03</pdfrwt>
<pdfrwt beam="2">  1       21 0.19848474E-01 0.24722185E+03</pdfrwt>
<totfact> 0.24511684E+04</totfact>
</mgrwt>
</event>
<event>
 5    0  0.1856407E+000  0.2661860E+03  0.7546771E-02  0.1103482E+00
         21   -1    0    0  502  501  0.00000000000E+00  0.00000000000E+00  0.11089511385E+03  0.11089511385E+03  0.00000000000E+00 0. -1.
         21   -1    0    0  503  502 -0.00000000000E+00 -0.00000000000E+00 -0.19385995354E+04  0.19385995354E+04  0.00000000000E+00 0. -1.
         25    1    1    2    0    0 -0.18294706505E+03 -0.14962725270E+03 -0.73921564615E+02  0.27739383749E+03  0.12500000000E+03 0.  0.
         21    1    1    2  503  504  0.15821912458E+03  0.15771847645E+03 -0.16523664285E+04  0.16674001389E+04  0.00000000000E+00 0. -1.
         21    1    1    2  504  501  0.24727940467E+02 -0.80912237505E+01 -0.10141642842E+03  0.10470067285E+03  0.00000000000E+00 0. -1.
<mgrwt>
<rscale>  4 0.26618603E+03</rscale>
<asrwt>0</asrwt>
<pdfrwt beam="1">  1       21 0.17060788E-01 0.26618603E+03</pdfrwt>
<pdfrwt beam="2">  1       21 0.29824606E+00 0.26618603E+03</pdfrwt>
<totfact> 0.99552107E+02</totfact>
</mgrwt>
</event>
<event>
 5    0  0.1856407E+000  0.2723773E+03  0.7546771E-02  0.1099927E+00
         21   -1    0    0  502  501  0.00000000000E+00  0.00000000000E+00  0.34288628616E+03  0.34288628616E+03  0.00000000000E+00 0.  1.
         21   -1    0    0  503  502 -0.00000000000E+00 -0.00000000000E+00 -0.20455118828E+03  0.20455118828E+03  0.00000000000E+00 0.  1.
         25    1    1    2    0    0 -0.21411012453E+03 -0.11278846391E+03  0.21480047776E+02  0.27322294097E+03  0.12500000000E+03 0.  0.
         21    1    1    2  503  504  0.16001602157E+03  0.67025821723E+02  0.10379648503E+03  0.20216651118E+03  0.00000000000E+00 0.  1.
         21    1    1    2  504  501  0.54094102959E+02  0.45762642183E+02  0.13058565073E+02  0.72048022292E+02  0.00000000000E+00 0.  1.
<mgrwt>
<rscale>  4 0.27237728E+03</rscale>
<asrwt>0</asrwt>
<pdfrwt beam="1">  1       21 0.52751736E-01 0.27237728E+03</pdfrwt>
<pdfrwt beam="2">  1       21 0.31469414E-01 0.27237728E+03</pdfrwt>
<totfact> 0.31836962E+04</totfact>
</mgrwt>
</event>
<event>
 5    0  0.2317143E+000  0.2363446E+03  0.7546771E-02  0.1122252E+00
         21   -1    0    0  502  501  0.00000000000E+00  0.00000000000E+00  0.67710507762E+03  0.67710507762E+03  0.00000000000E+00 0. -1.
         21   -1    0    0  503  502 -0.00000000000E+00 -0.00000000000E+00 -0.13400775823E+03  0.13400775823E+03  0.00000000000E+00 0. -1.
         25    1    1    2    0    0  0.24407904848E+03  0.55068991722E+02  0.40698344869E+03  0.49382962980E+03  0.12500000000E+03 0.  0.
         21    1    1    2  503  504 -0.55329317327E+02 -0.64980546720E+02  0.87268538238E+02  0.12206392823E+03  0.00000000000E+00 0. -1.
         21    1    1    2  504  501 -0.18874973116E+03  0.99115549980E+01  0.48845332457E+02  0.19521927783E+03  0.00000000000E+00 0. -1.
<mgrwt>
<rscale>  4 0.23634457E+03</rscale>
<asrwt>0</asrwt>
<pdfrwt beam="1">  1       21 0.10417001E+00 0.23634457E+03</pdfrwt>
<pdfrwt beam="2">  1       21 0.20616579E-01 0.23634457E+03</pdfrwt>
<totfact> 0.15812354E+04</totfact>
</mgrwt>
</event>
<event>
 5    0  0.2675756E+000  0.2378214E+03  0.7546771E-02  0.1121253E+00
         21   -1    0    0  502  501  0.00000000000E+00  0.00000000000E+00  0.90038883094E+02  0.90038883094E+02  0.00000000000E+00 0.  1.
         21   -1    0    0  503  502 -0.00000000000E+00 -0.00000000000E+00 -0.69301363144E+03  0.69301363144E+03  0.00000000000E+00 0.  1.
         25    1    1    2    0    0  0.34008182917E+02 -0.21659966264E+03 -0.34029542310E+03  0.42367197847E+03  0.12500000000E+03 0.  0.
         21    1    1    2  503  504 -0.50104425440E+02  0.18704123336E+03 -0.15955786497E+03  0.25090553740E+03  0.00000000000E+00 0.  1.
         21    1    1    2  504  501  0.16096242523E+02  0.29558429279E+02 -0.10312146028E+03  0.10847499866E+03  0.00000000000E+00 0.  1.
<mgrwt>
<rscale>  4 0.23782142E+03</rscale>
<asrwt>0</asrwt>
<pdfrwt beam="1">  1       21 0.13852137E-01 0.23782142E+03</pdfrwt>
<pdfrwt beam="2">  1       21 0.10661748E+00 0.23782142E+03</pdfrwt>
<totfact> 0.31157211E+04</totfact>
</mgrwt>
</event>
<event>
 5    0  0.3096135E+000  0.2406911E+03  0.7546771E-02  0.1119333E+00
         21   -1    0    0  502  501  0.00000000000E+00  0.00000000000E+00  0.32144978468E+03  0.32144978468E+03  0.00000000000E+00 0.  1.
         21   -1    0    0  503  502 -0.00000000000E+00 -0.00000000000E+00 -0.19535055576E+03  0.19535055576E+03  0.00000000000E+00 0.  1.
         25    1    1    2    0    0  0.77398669768E+02 -0.19056924335E+03  0.17999498751E+03  0.30055013911E+03  0.12500000000E+03 0.  0.
         21    1    1    2  503  504 -0.16475694325E+02  0.12193804234E+02 -0.12093618014E+01  0.20532898509E+02  0.00000000000E+00 0.  1.
         21    1    1    2  504  501 -0.60922975443E+02  0.17837543912E+03 -0.52686396794E+02  0.19571730282E+03  0.00000000000E+00 0.  1.
<mgrwt>
<rscale>  4 0.24069107E+03</rscale>
<asrwt>0</asrwt>
<pdfrwt beam="1">  1       21 0.49453813E-01 0.24069107E+03</pdfrwt>
<pdfrwt beam="2">  1       21 0.30053932E-01 0.24069107E+03</pdfrwt>
<totfact> 0.40460947E+04</totfact>
</mgrwt>
</event>
<event>
 5    0  0.1856407E+000  0.4637608E+03  0.7546771E-02  0.1023696E+00
         21   -1    0    0  502  501  0.00000000000E+00  0.00000000000E+00  0.10780129052E+04  0.10780129052E+04  0.00000000000E+00 0.  1.
         21   -1    0    0  503  502 -0.00000000000E+00 -0.00000000000E+00 -0.41053297681E+03  0.41053297681E+03  0.00000000000E+00 0.  1.
         25    1    1    2    0    0 -0.28071425656E+03 -0.26120408530E+03  0.74349973017E+03  0.84583977015E+03  0.12500000000E+03 0.  0.
         21    1    1    2  503  504  0.24565319374E+03  0.39147812299E+03 -0.15366805378E+03  0.48704669501E+03  0.00000000000E+00 0.  1.
         21    1    1    2  504  501  0.35061062821E+02 -0.13027403769E+03  0.77648252042E+02  0.15565941689E+03  0.00000000000E+00 0. -1.
<mgrwt>
<rscale>  4 0.46376076E+03</rscale>
<asrwt>0</asrwt>
<pdfrwt beam="1">  1       21 0.16584814E+00 0.46376076E+03</pdfrwt>
<pdfrwt beam="2">  1       21 0.63158920E-01 0.46376076E+03</pdfrwt>
<totfact> 0.43580747E+02</totfact>
</mgrwt>
</event>
<event>
 5    0  0.1856407E+000  0.2980930E+03  0.7546771E-02  0.1086198E+00
         21   -1    0    0  502  501  0.00000000000E+00  0.00000000000E+00  0.90422329448E+03  0.90422329448E+03  0.00000000000E+00 0.  1.
         21   -1    0    0  503  502 -0.00000000000E+00 -0.00000000000E+00 -0.27875091820E+03  0.27875091820E+03  0.00000000000E+00 0.  1.
         25    1    1    2    0    0  0.23303398684E+03 -0.13758497299E+03  0.79702438220E+03  0.85094496276E+03  0.12500000000E+03 0.  0.
         21    1    1    2  503  504 -0.42387649945E+02 -0.25840564140E+01 -0.52125218304E+01  0.42785051119E+02  0.00000000000E+00 0.  1.
         21    1    1    2  504  501 -0.19064633689E+03  0.14016902941E+03 -0.16633948409E+03  0.28924419881E+03  0.00000000000E+00 0.  1.
<mgrwt>
<rscale>  4 0.29809305E+03</rscale>
<asrwt>0</asrwt>
<pdfrwt beam="1">  1       21 0.13911128E+00 0.29809305E+03</pdfrwt>
<pdfrwt beam="2">  1       21 0.42884757E-01 0.29809305E+03</pdfrwt>
<totfact> 0.17527172E+03</totfact>
</mgrwt>
</event>
<event>
 5    0  0.8672224E+000  0.2912288E+03  0.7546771E-02  0.1089709E+00
         21   -1    0    0  502  501  0.00000000000E+00  0.00000000000E+00  0.24878088724E+04  0.24878088724E+04  0.00000000000E+00 0.  1.
         21   -1    0    0  503  502 -0.00000000000E+00 -0.00000000000E+00 -0.37896196995E+02  0.37896196995E+02  0.00000000000E+00 0.  1.
         25    1    1    2    0    0  0.90335390742E+02  0.24703999107E+03  0.18048649319E+04  0.18282099612E+04  0.12500000000E+03 0.  0.
         21    1    1    2  503  504 -0.78499883287E+01 -0.19860541978E+02  0.82623584868E+02  0.85338855282E+02  0.00000000000E+00 0. -1.
         21    1    1    2  504  501 -0.82485402413E+02 -0.22717944909E+03  0.56242415863E+03  0.61215625286E+03  0.00000000000E+00 0.  1.
<mgrwt>
<rscale>  4 0.29122884E+03</rscale>
<asrwt>0</asrwt>
<pdfrwt beam="1">  1       21 0.38273970E+00 0.29122884E+03</pdfrwt>
<pdfrwt beam="2">  1       21 0.58301861E-02 0.29122884E+03</pdfrwt>
<totfact> 0.20578733E+03</totfact>
</mgrwt>
</event>
