<event>
 4    0  0.1495377E-001  0.3043051E+03  0.7546771E-02  0.1083108E+00
         21   -1    0    0  503  501  0.00000000000E+00  0.00000000000E+00  0.90656119714E+03  0.90656119714E+03  0.00000000000E+00 0. -1.
         21   -1    0    0  501  502 -0.00000000000E+00 -0.00000000000E+00 -0.15398529419E+03  0.15398529419E+03  0.00000000000E+00 0. -1.
         25    1    1    2    0    0  0.19153514909E+03  0.20072590235E+03  0.54222060404E+02  0.30909809616E+03  0.12500000000E+03 0.  0.
         21    1    1    2  503  502 -0.19153514909E+03 -0.20072590235E+03  0.69835384255E+03  0.75144839517E+03  0.00000000000E+00 0. -1.
<mgrwt>
<rscale>  3 0.30430511E+03</rscale>
<asrwt>0</asrwt>
<pdfrwt beam="1">  1       21 0.13947095E+00 0.30430511E+03</pdfrwt>
<pdfrwt beam="2">  1       21 0.23690046E-01 0.30430511E+03</pdfrwt>
<totfact> 0.56361029E+03</totfact>
</mgrwt>
</event>
<event>
 4    0  0.1495377E-001  0.2904226E+03  0.7546771E-02  0.1090129E+00
         21   -1    0    0  502  501  0.00000000000E+00  0.00000000000E+00  0.16274703036E+03  0.16274703036E+03  0.00000000000E+00 0.  1.
         21   -1    0    0  503  502 -0.00000000000E+00 -0.00000000000E+00 -0.49226605477E+03  0.49226605477E+03  0.00000000000E+00 0.  1.
         25    1    1    2    0    0 -0.24511367360E+03  0.92949348169E+02 -0.24386159174E+03  0.37922786058E+03  0.12500000000E+03 0.  0.
         21    1    1    2  503  501  0.24511367360E+03 -0.92949348169E+02 -0.85657432662E+02  0.27578522455E+03  0.00000000000E+00 0.  1.
<mgrwt>
<rscale>  3 0.29042261E+03</rscale>
<asrwt>0</asrwt>
<pdfrwt beam="1">  1       21 0.25038005E-01 0.29042261E+03</pdfrwt>
<pdfrwt beam="2">  1       21 0.75733239E-01 0.29042261E+03</pdfrwt>
<totfact> 0.22382784E+04</totfact>
</mgrwt>
</event>
<event>
 4    0  0.1495377E-001  0.2518531E+03  0.7546771E-02  0.1112139E+00
         21   -1    0    0  502  501  0.00000000000E+00  0.00000000000E+00  0.71326167231E+03  0.71326167231E+03  0.00000000000E+00 0.  1.
         21   -1    0    0  503  502 -0.00000000000E+00 -0.00000000000E+00 -0.15340161543E+03  0.15340161543E+03  0.00000000000E+00 0.  1.
         25    1    1    2    0    0 -0.18703084142E+03 -0.11324506227E+03 -0.14323153913E+02  0.25226004937E+03  0.12500000000E+03 0.  0.
         21    1    1    2  503  501  0.18703084142E+03  0.11324506227E+03  0.57418321079E+03  0.61440323838E+03  0.00000000000E+00 0.  1.
<mgrwt>
<rscale>  3 0.25185309E+03</rscale>
<asrwt>0</asrwt>
<pdfrwt beam="1">  1       21 0.10973256E+00 0.25185309E+03</pdfrwt>
<pdfrwt beam="2">  1       21 0.23600249E-01 0.25185309E+03</pdfrwt>
<totfact> 0.10694746E+04</totfact>
</mgrwt>
</event>
<event>
 4    0  0.1495377E-001  0.3510662E+03  0.7546771E-02  0.1062178E+00
         21   -1    0    0  503  501  0.00000000000E+00  0.00000000000E+00  0.18163933315E+03  0.18163933315E+03  0.00000000000E+00 0.  1.
         21   -1    0    0  501  502 -0.00000000000E+00 -0.00000000000E+00 -0.74828549752E+03  0.74828549752E+03  0.00000000000E+00 0.  1.
         25    1    1    2    0    0  0.13956061699E+03  0.29689281273E+03 -0.47245950106E+03  0.58861319065E+03  0.12500000000E+03 0.  0.
         21    1    1    2  503  502 -0.13956061699E+03 -0.29689281273E+03 -0.94186663309E+02  0.34131164002E+03  0.00000000000E+00 0.  1.
<mgrwt>
<rscale>  3 0.35106624E+03</rscale>
<asrwt>0</asrwt>
<pdfrwt beam="1">  1       21 0.27944512E-01 0.35106624E+03</pdfrwt>
<pdfrwt beam="2">  1       21 0.11512085E+00 0.35106624E+03</pdfrwt>
<totfact> 0.65325827E+03</totfact>
</mgrwt>
</event>
<event>
 4    0  0.1495377E-001  0.3233803E+03  0.7546771E-02  0.1074104E+00
         21   -1    0    0  502  501  0.00000000000E+00  0.00000000000E+00  0.15007976805E+03  0.15007976805E+03  0.00000000000E+00 0. -1.
         21   -1    0    0  503  502 -0.00000000000E+00 -0.00000000000E+00 -0.16077088211E+04  0.16077088211E+04  0.00000000000E+00 0.  1.
         25    1    1    2    0    0 -0.27259568471E+03  0.12100170891E+03 -0.14209664612E+04  0.14572990443E+04  0.12500000000E+03 0.  0.
         21    1    1    2  503  501  0.27259568471E+03 -0.12100170891E+03 -0.36662591865E+02  0.30048954478E+03  0.00000000000E+00 0. -1.
<mgrwt>
<rscale>  3 0.32338030E+03</rscale>
<asrwt>0</asrwt>
<pdfrwt beam="1">  1       21 0.23089196E-01 0.32338030E+03</pdfrwt>
<pdfrwt beam="2">  1       21 0.24733981E+00 0.32338030E+03</pdfrwt>
<totfact> 0.10759927E+03</totfact>
</mgrwt>
</event>
<event>
 4    0  0.1495377E-001  0.3235249E+03  0.7546771E-02  0.1074038E+00
         21   -1    0    0  503  501  0.00000000000E+00  0.00000000000E+00  0.75591554945E+03  0.75591554945E+03  0.00000000000E+00 0. -1.
         21   -1    0    0  501  502 -0.00000000000E+00 -0.00000000000E+00 -0.12801470966E+03  0.12801470966E+03  0.00000000000E+00 0. -1.
         25    1    1    2    0    0 -0.23158115717E+03  0.18818480073E+03  0.33852264785E+03  0.46825840589E+03  0.12500000000E+03 0.  0.
         21    1    1    2  503  502  0.23158115717E+03 -0.18818480073E+03  0.28937819194E+03  0.41567185321E+03  0.00000000000E+00 0. -1.
<mgrwt>
<rscale>  3 0.32352489E+03</rscale>
<asrwt>0</asrwt>
<pdfrwt beam="1">  1       21 0.11629470E+00 0.32352489E+03</pdfrwt>
<pdfrwt beam="2">  1       21 0.19694571E-01 0.32352489E+03</pdfrwt>
<totfact> 0.12626166E+04</totfact>
</mgrwt>
</event>
<event>
 4    0  0.1495377E-001  0.4728167E+03  0.7546771E-02  0.1021128E+00
         21   -1    0    0  502  501  0.00000000000E+00  0.00000000000E+00  0.28274395862E+03  0.28274395862E+03  0.00000000000E+00 0. -1.
         21   -1    0    0  503  502 -0.00000000000E+00 -0.00000000000E+00 -0.83800209712E+03  0.83800209712E+03  0.00000000000E+00 0. -1.
         25    1    1    2    0    0 -0.62379451731E+02  0.45170720594E+03 -0.45006846196E+03  0.65277654397E+03  0.12500000000E+03 0.  0.
         21    1    1    2  503  501  0.62379451731E+02 -0.45170720594E+03 -0.10518967655E+03  0.46796951178E+03  0.00000000000E+00 0. -1.
<mgrwt>
<rscale>  3 0.47281666E+03</rscale>
<asrwt>0</asrwt>
<pdfrwt beam="1">  1       21 0.43499071E-01 0.47281666E+03</pdfrwt>
<pdfrwt beam="2">  1       21 0.12892340E+00 0.47281666E+03</pdfrwt>
<totfact> 0.19090089E+03</totfact>
</mgrwt>
</event>
<event>
 4    0  0.1495377E-001  0.4293541E+03  0.7546771E-02  0.1034064E+00
         21   -1    0    0  503  501  0.00000000000E+00  0.00000000000E+00  0.62756517583E+03  0.62756517583E+03  0.00000000000E+00 0. -1.
         21   -1    0    0  501  502 -0.00000000000E+00 -0.00000000000E+00 -0.93179694164E+03  0.93179694164E+03  0.00000000000E+00 0. -1.
         25    1    1    2    0    0 -0.26426982777E+03 -0.31445409618E+03 -0.80460099896E+03  0.91199105698E+03  0.12500000000E+03 0.  0.
         21    1    1    2  503  502  0.26426982777E+03  0.31445409618E+03  0.50036923315E+03  0.64737106049E+03  0.00000000000E+00 0. -1.
<mgrwt>
<rscale>  3 0.42935407E+03</rscale>
<asrwt>0</asrwt>
<pdfrwt beam="1">  1       21 0.96548489E-01 0.42935407E+03</pdfrwt>
<pdfrwt beam="2">  1       21 0.14335338E+00 0.42935407E+03</pdfrwt>
<totfact> 0.24900547E+02</totfact>
</mgrwt>
</event>
<event>
 4    0  0.1495377E-001  0.2487259E+03  0.7546771E-02  0.1114113E+00
         21   -1    0    0  502  501  0.00000000000E+00  0.00000000000E+00  0.27411694131E+02  0.27411694131E+02  0.00000000000E+00 0. -1.
         21   -1    0    0  503  502 -0.00000000000E+00 -0.00000000000E+00 -0.20997330595E+04  0.20997330595E+04  0.00000000000E+00 0. -1.
         25    1    1    2    0    0 -0.10373887833E+03  0.18835551950E+03 -0.83427179325E+03  0.87055957959E+03  0.12500000000E+03 0.  0.
         21    1    1    2  503  501  0.10373887833E+03 -0.18835551950E+03 -0.12380495721E+04  0.12565851741E+04  0.00000000000E+00 0. -1.
<mgrwt>
<rscale>  3 0.24872587E+03</rscale>
<asrwt>0</asrwt>
<pdfrwt beam="1">  1       21 0.42171826E-02 0.24872587E+03</pdfrwt>
<pdfrwt beam="2">  1       21 0.32303594E+00 0.24872587E+03</pdfrwt>
<totfact> 0.85125889E+03</totfact>
</mgrwt>
</event>
<event>
 4    0  0.1495377E-001  0.2843571E+03  0.7546771E-02  0.1093333E+00
         21   -1    0    0  503  501  0.00000000000E+00  0.00000000000E+00  0.21486246121E+03  0.21486246121E+03  0.00000000000E+00 0.  1.
         21   -1    0    0  501  502 -0.00000000000E+00 -0.00000000000E+00 -0.87484217252E+03  0.87484217252E+03  0.00000000000E+00 0. -1.
         25    1    1    2    0    0 -0.15859841536E+02  0.25491648581E+03 -0.76302728638E+03  0.81429085042E+03  0.12500000000E+03 0.  0.
         21    1    1    2  503  502  0.15859841536E+02 -0.25491648581E+03  0.10304757506E+03  0.27541378331E+03  0.00000000000E+00 0.  1.
<mgrwt>
<rscale>  3 0.28435708E+03</rscale>
<asrwt>0</asrwt>
<pdfrwt beam="1">  1       21 0.33055764E-01 0.28435708E+03</pdfrwt>
<pdfrwt beam="2">  1       21 0.13459110E+00 0.28435708E+03</pdfrwt>
<totfact> 0.32617158E+03</totfact>
</mgrwt>
</event>
<event>
 4    0  0.1495377E-001  0.3098186E+03  0.7546771E-02  0.1080433E+00
         21   -1    0    0  503  501  0.00000000000E+00  0.00000000000E+00  0.19827194273E+04  0.19827194273E+04  0.00000000000E+00 0.  1.
         21   -1    0    0  501  502 -0.00000000000E+00 -0.00000000000E+00 -0.21094183284E+03  0.21094183284E+03  0.00000000000E+00 0.  1.
         25    1    1    2    0    0  0.27197119425E+03  0.79964082191E+02 -0.80266334553E+02  0.32004729245E+03  0.12500000000E+03 0.  0.
         21    1    1    2  503  502 -0.27197119425E+03 -0.79964082191E+02  0.18520439290E+04  0.18736139677E+04  0.00000000000E+00 0.  1.
<mgrwt>
<rscale>  3 0.30981863E+03</rscale>
<asrwt>0</asrwt>
<pdfrwt beam="1">  1       21 0.30503375E+00 0.30981863E+03</pdfrwt>
<pdfrwt beam="2">  1       21 0.32452591E-01 0.30981863E+03</pdfrwt>
<totfact> 0.25398567E+02</totfact>
</mgrwt>
</event>
<event>
 4    0  0.1495377E-001  0.2660691E+03  0.7546771E-02  0.1103551E+00
         21   -1    0    0  503  501  0.00000000000E+00  0.00000000000E+00  0.77486569990E+03  0.77486569990E+03  0.00000000000E+00 0. -1.
         21   -1    0    0  501  502 -0.00000000000E+00 -0.00000000000E+00 -0.17766526096E+03  0.17766526096E+03  0.00000000000E+00 0.  1.
         25    1    1    2    0    0 -0.60751348452E+02 -0.22688553626E+03 -0.43984012086E+02  0.26968011833E+03  0.12500000000E+03 0.  0.
         21    1    1    2  503  502  0.60751348452E+02  0.22688553626E+03  0.64118445103E+03  0.68285084253E+03  0.00000000000E+00 0. -1.
<mgrwt>
<rscale>  3 0.26606911E+03</rscale>
<asrwt>0</asrwt>
<pdfrwt beam="1">  1       21 0.11921011E+00 0.26606911E+03</pdfrwt>
<pdfrwt beam="2">  1       21 0.27333117E-01 0.26606911E+03</pdfrwt>
<totfact> 0.65212149E+03</totfact>
</mgrwt>
</event>
<event>
 4    0  0.1495377E-001  0.3126513E+03  0.7546771E-02  0.1079082E+00
         21   -1    0    0  502  501  0.00000000000E+00  0.00000000000E+00  0.30824686238E+04  0.30824686238E+04  0.00000000000E+00 0.  1.
         21   -1    0    0  503  502 -0.00000000000E+00 -0.00000000000E+00 -0.30606068649E+02  0.30606068649E+02  0.00000000000E+00 0.  1.
         25    1    1    2    0    0  0.27999110554E+03  0.61080217908E+02  0.12466928436E+04  0.12852991319E+04  0.12500000000E+03 0.  0.
         21    1    1    2  503  501 -0.27999110554E+03 -0.61080217908E+02  0.18051697115E+04  0.18277755605E+04  0.00000000000E+00 0.  1.
<mgrwt>
<rscale>  3 0.31265126E+03</rscale>
<asrwt>0</asrwt>
<pdfrwt beam="1">  1       21 0.47422570E+00 0.31265126E+03</pdfrwt>
<pdfrwt beam="2">  1       21 0.47086284E-02 0.31265126E+03</pdfrwt>
<totfact> 0.73318306E+02</totfact>
</mgrwt>
</event>
<event>
 4    0  0.1495377E-001  0.5309486E+03  0.7546771E-02  0.1006002E+00
         21   -1    0    0  503  501  0.00000000000E+00  0.00000000000E+00  0.15908298725E+03  0.15908298725E+03  0.00000000000E+00 0. -1.
         21   -1    0    0  501  502 -0.00000000000E+00 -0.00000000000E+00 -0.18380014318E+04  0.18380014318E+04  0.00000000000E+00 0. -1.
         25    1    1    2    0    0  0.60732684126E+02  0.51243824087E+03 -0.11008441834E+04  0.12221965168E+04  0.12500000000E+03 0.  0.
         21    1    1    2  503  502 -0.60732684126E+02 -0.51243824087E+03 -0.57807426119E+03  0.77488790226E+03  0.00000000000E+00 0. -1.
<mgrwt>
<rscale>  3 0.53094859E+03</rscale>
<asrwt>0</asrwt>
<pdfrwt beam="1">  1       21 0.24474305E-01 0.53094859E+03</pdfrwt>
<pdfrwt beam="2">  1       21 0.28276946E+00 0.53094859E+03</pdfrwt>
<totfact> 0.52158548E+02</totfact>
</mgrwt>
</event>
<event>
 4    0  0.1495377E-001  0.2383876E+03  0.7546771E-02  0.1120872E+00
         21   -1    0    0  502  501  0.00000000000E+00  0.00000000000E+00  0.65622787197E+03  0.65622787197E+03  0.00000000000E+00 0.  1.
         21   -1    0    0  503  502 -0.00000000000E+00 -0.00000000000E+00 -0.82306944391E+02  0.82306944391E+02  0.00000000000E+00 0.  1.
         25    1    1    2    0    0 -0.20263871824E+03  0.11881662653E+02  0.19227551564E+03  0.30626540443E+03  0.12500000000E+03 0.  0.
         21    1    1    2  503  501  0.20263871824E+03 -0.11881662653E+02  0.38164541194E+03  0.43226941193E+03  0.00000000000E+00 0.  1.
<mgrwt>
<rscale>  3 0.23838755E+03</rscale>
<asrwt>0</asrwt>
<pdfrwt beam="1">  1       21 0.10095813E+00 0.23838755E+03</pdfrwt>
<pdfrwt beam="2">  1       21 0.12662607E-01 0.23838755E+03</pdfrwt>
<totfact> 0.41803093E+04</totfact>
</mgrwt>
</event>
<event>
 4    0  0.1495377E-001  0.2609200E+03  0.7546771E-02  0.1106592E+00
         21   -1    0    0  503  501  0.00000000000E+00  0.00000000000E+00  0.84387300162E+02  0.84387300162E+02  0.00000000000E+00 0.  1.
         21   -1    0    0  501  502 -0.00000000000E+00 -0.00000000000E+00 -0.83160981745E+03  0.83160981745E+03  0.00000000000E+00 0.  1.
         25    1    1    2    0    0 -0.15760504527E+03  0.16617722696E+03 -0.56839891138E+03  0.62542509025E+03  0.12500000000E+03 0.  0.
         21    1    1    2  503  502  0.15760504527E+03 -0.16617722696E+03 -0.17882360590E+03  0.29057202736E+03  0.00000000000E+00 0.  1.
<mgrwt>
<rscale>  3 0.26091995E+03</rscale>
<asrwt>0</asrwt>
<pdfrwt beam="1">  1       21 0.12982661E-01 0.26091995E+03</pdfrwt>
<pdfrwt beam="2">  1       21 0.12793997E+00 0.26091995E+03</pdfrwt>
<totfact> 0.22064116E+04</totfact>
</mgrwt>
</event>
<event>
 4    0  0.1495377E-001  0.2711654E+03  0.7546771E-02  0.1100614E+00
         21   -1    0    0  502  501  0.00000000000E+00  0.00000000000E+00  0.79678488876E+02  0.79678488876E+02  0.00000000000E+00 0. -1.
         21   -1    0    0  503  502 -0.00000000000E+00 -0.00000000000E+00 -0.20588858757E+04  0.20588858757E+04  0.00000000000E+00 0. -1.
         25    1    1    2    0    0 -0.20578853348E+03 -0.12472670806E+03 -0.18414065243E+04  0.18612653384E+04  0.12500000000E+03 0.  0.
         21    1    1    2  503  501  0.20578853348E+03  0.12472670806E+03 -0.13780086257E+03  0.27729902621E+03  0.00000000000E+00 0. -1.
<mgrwt>
<rscale>  3 0.27116540E+03</rscale>
<asrwt>0</asrwt>
<pdfrwt beam="1">  1       21 0.12258228E-01 0.27116540E+03</pdfrwt>
<pdfrwt beam="2">  1       21 0.31675169E+00 0.27116540E+03</pdfrwt>
<totfact> 0.14126079E+03</totfact>
</mgrwt>
</event>
<event>
 4    0  0.1495377E-001  0.2525422E+03  0.7546771E-02  0.1111709E+00
         21   -1    0    0  503  501  0.00000000000E+00  0.00000000000E+00  0.13750682369E+04  0.13750682369E+04  0.00000000000E+00 0. -1.
         21   -1    0    0  501  502 -0.00000000000E+00 -0.00000000000E+00 -0.42666733670E+02  0.42666733670E+02  0.00000000000E+00 0. -1.
         25    1    1    2    0    0  0.16244249846E+03  0.14752956641E+03  0.55120761868E+03  0.60630633937E+03  0.12500000000E+03 0.  0.
         21    1    1    2  503  502 -0.16244249846E+03 -0.14752956641E+03  0.78119388459E+03  0.81142863123E+03  0.00000000000E+00 0. -1.
<mgrwt>
<rscale>  3 0.25254215E+03</rscale>
<asrwt>0</asrwt>
<pdfrwt beam="1">  1       21 0.21154893E+00 0.25254215E+03</pdfrwt>
<pdfrwt beam="2">  1       21 0.65641139E-02 0.25254215E+03</pdfrwt>
<totfact> 0.18378214E+04</totfact>
</mgrwt>
</event>
<event>
 4    0  0.1495377E-001  0.2497273E+03  0.7546771E-02  0.1113477E+00
         21   -1    0    0  503  501  0.00000000000E+00  0.00000000000E+00  0.31760417365E+03  0.31760417365E+03  0.00000000000E+00 0.  1.
         21   -1    0    0  501  502 -0.00000000000E+00 -0.00000000000E+00 -0.18214163111E+03  0.18214163111E+03  0.00000000000E+00 0.  1.
         25    1    1    2    0    0  0.12106828096E+03  0.17911227930E+03  0.10305584773E+02  0.24993987743E+03  0.12500000000E+03 0.  0.
         21    1    1    2  503  502 -0.12106828096E+03 -0.17911227930E+03  0.12515695777E+03  0.24980592733E+03  0.00000000000E+00 0.  1.
<mgrwt>
<rscale>  3 0.24972733E+03</rscale>
<asrwt>0</asrwt>
<pdfrwt beam="1">  1       21 0.48862181E-01 0.24972733E+03</pdfrwt>
<pdfrwt beam="2">  1       21 0.28021789E-01 0.24972733E+03</pdfrwt>
<totfact> 0.47394590E+04</totfact>
</mgrwt>
</event>
<event>
 4    0  0.1495377E-001  0.2874125E+03  0.7546771E-02  0.1091708E+00
         21   -1    0    0  502  501  0.00000000000E+00  0.00000000000E+00  0.51177679396E+03  0.51177679396E+03  0.00000000000E+00 0. -1.
         21   -1    0    0  503  502 -0.00000000000E+00 -0.00000000000E+00 -0.19059625109E+03  0.19059625109E+03  0.00000000000E+00 0. -1.
         25    1    1    2    0    0  0.90755892485E+02  0.24237231240E+03 -0.31600675856E+01  0.28742991470E+03  0.12500000000E+03 0.  0.
         21    1    1    2  503  501 -0.90755892485E+02 -0.24237231240E+03  0.32434061046E+03  0.41494313035E+03  0.00000000000E+00 0. -1.
<mgrwt>
<rscale>  3 0.28741254E+03</rscale>
<asrwt>0</asrwt>
<pdfrwt beam="1">  1       21 0.78734891E-01 0.28741254E+03</pdfrwt>
<pdfrwt beam="2">  1       21 0.29322500E-01 0.28741254E+03</pdfrwt>
<totfact> 0.15092018E+04</totfact>
</mgrwt>
</event>
<event>
 4    0  0.1495377E-001  0.2765295E+03  0.7546771E-02  0.1097600E+00
         21   -1    0    0  503  501  0.00000000000E+00  0.00000000000E+00  0.24360482783E+03  0.24360482783E+03  0.00000000000E+00 0. -1.
         21   -1    0    0  501  502 -0.00000000000E+00 -0.00000000000E+00 -0.28788369373E+03  0.28788369373E+03  0.00000000000E+00 0. -1.
         25    1    1    2    0    0 -0.13548987215E+03  0.20612141611E+03 -0.64642625704E+02  0.28398452897E+03  0.12500000000E+03 0.  0.
         21    1    1    2  503  502  0.13548987215E+03 -0.20612141611E+03  0.20363759807E+02  0.24750399259E+03  0.00000000000E+00 0. -1.
<mgrwt>
<rscale>  3 0.27652946E+03</rscale>
<asrwt>0</asrwt>
<pdfrwt beam="1">  1       21 0.37477666E-01 0.27652946E+03</pdfrwt>
<pdfrwt beam="2">  1       21 0.44289799E-01 0.27652946E+03</pdfrwt>
<totfact> 0.32328925E+04</totfact>
</mgrwt>
</event>
<event>
 4    0  0.1495377E-001  0.3096309E+03  0.7546771E-02  0.1080523E+00
         21   -1    0    0  503  501  0.00000000000E+00  0.00000000000E+00  0.42915321280E+03  0.42915321280E+03  0.00000000000E+00 0.  1.
         21   -1    0    0  501  502 -0.00000000000E+00 -0.00000000000E+00 -0.40459986938E+03  0.40459986938E+03  0.00000000000E+00 0.  1.
         25    1    1    2    0    0  0.89129211987E+00  0.28327631638E+03 -0.28025903306E+03  0.41763188508E+03  0.12500000000E+03 0.  0.
         21    1    1    2  503  502 -0.89129211987E+00 -0.28327631638E+03  0.30481237647E+03  0.41612119710E+03  0.00000000000E+00 0.  1.
<mgrwt>
<rscale>  3 0.30963085E+03</rscale>
<asrwt>0</asrwt>
<pdfrwt beam="1">  1       21 0.66023571E-01 0.30963085E+03</pdfrwt>
<pdfrwt beam="2">  1       21 0.62246134E-01 0.30963085E+03</pdfrwt>
<totfact> 0.46859996E+03</totfact>
</mgrwt>
</event>
<event>
 4    0  0.1495377E-001  0.2375821E+03  0.7546771E-02  0.1121414E+00
         21   -1    0    0  502  501  0.00000000000E+00  0.00000000000E+00  0.54627434592E+03  0.54627434592E+03  0.00000000000E+00 0. -1.
         21   -1    0    0  503  502 -0.00000000000E+00 -0.00000000000E+00 -0.10339310770E+03  0.10339310770E+03  0.00000000000E+00 0.  1.
         25    1    1    2    0    0  0.14681804232E+03  0.13879735170E+03  0.11360237003E+03  0.26334528829E+03  0.12500000000E+03 0.  0.
         21    1    1    2  503  501 -0.14681804232E+03 -0.13879735170E+03  0.32927886819E+03  0.38632216533E+03  0.00000000000E+00 0. -1.
<mgrwt>
<rscale>  3 0.23758208E+03</rscale>
<asrwt>0</asrwt>
<pdfrwt beam="1">  1       21 0.84042205E-01 0.23758208E+03</pdfrwt>
<pdfrwt beam="2">  1       21 0.15906632E-01 0.23758208E+03</pdfrwt>
<totfact> 0.42399172E+04</totfact>
</mgrwt>
</event>
<event>
 4    0  0.1495377E-001  0.2595247E+03  0.7546771E-02  0.1107429E+00
         21   -1    0    0  502  501  0.00000000000E+00  0.00000000000E+00  0.84640853830E+03  0.84640853830E+03  0.00000000000E+00 0. -1.
         21   -1    0    0  503  502 -0.00000000000E+00 -0.00000000000E+00 -0.17865604429E+03  0.17865604429E+03  0.00000000000E+00 0. -1.
         25    1    1    2    0    0 -0.15242709497E+03 -0.16880181126E+03 -0.56788320915E+02  0.26566517302E+03  0.12500000000E+03 0.  0.
         21    1    1    2  503  501  0.15242709497E+03  0.16880181126E+03  0.72454081492E+03  0.75939940957E+03  0.00000000000E+00 0. -1.
<mgrwt>
<rscale>  3 0.25952470E+03</rscale>
<asrwt>0</asrwt>
<pdfrwt beam="1">  1       21 0.13021670E+00 0.25952470E+03</pdfrwt>
<pdfrwt beam="2">  1       21 0.27485546E-01 0.25952470E+03</pdfrwt>
<totfact> 0.51810913E+03</totfact>
</mgrwt>
</event>
<event>
 4    0  0.1495377E-001  0.2534072E+03  0.7546771E-02  0.1111170E+00
         21   -1    0    0  503  501  0.00000000000E+00  0.00000000000E+00  0.26738657592E+03  0.26738657592E+03  0.00000000000E+00 0. -1.
         21   -1    0    0  501  502 -0.00000000000E+00 -0.00000000000E+00 -0.21004370339E+03  0.21004370339E+03  0.00000000000E+00 0. -1.
         25    1    1    2    0    0 -0.19260402977E+03  0.10720959303E+03  0.24981244560E+02  0.25463556644E+03  0.12500000000E+03 0.  0.
         21    1    1    2  503  502  0.19260402977E+03 -0.10720959303E+03  0.32361627965E+02  0.22279471287E+03  0.00000000000E+00 0. -1.
<mgrwt>
<rscale>  3 0.25340720E+03</rscale>
<asrwt>0</asrwt>
<pdfrwt beam="1">  1       21 0.41136396E-01 0.25340720E+03</pdfrwt>
<pdfrwt beam="2">  1       21 0.32314416E-01 0.25340720E+03</pdfrwt>
<totfact> 0.51060289E+04</totfact>
</mgrwt>
</event>
<event>
 4    0  0.1495377E-001  0.2661745E+03  0.7546771E-02  0.1103489E+00
         21   -1    0    0  503  501  0.00000000000E+00  0.00000000000E+00  0.53763825034E+03  0.53763825034E+03  0.00000000000E+00 0. -1.
         21   -1    0    0  501  502 -0.00000000000E+00 -0.00000000000E+00 -0.16026372466E+03  0.16026372466E+03  0.00000000000E+00 0.  1.
         25    1    1    2    0    0 -0.20869384736E+03  0.10803129457E+03  0.15763950869E+02  0.26664092836E+03  0.12500000000E+03 0.  0.
         21    1    1    2  503  502  0.20869384736E+03 -0.10803129457E+03  0.36161057481E+03  0.43126104664E+03  0.00000000000E+00 0. -1.
<mgrwt>
<rscale>  3 0.26617453E+03</rscale>
<asrwt>0</asrwt>
<pdfrwt beam="1">  1       21 0.82713576E-01 0.26617453E+03</pdfrwt>
<pdfrwt beam="2">  1       21 0.24655958E-01 0.26617453E+03</pdfrwt>
<totfact> 0.19059674E+04</totfact>
</mgrwt>
</event>
<event>
 4    0  0.1495377E-001  0.4209377E+03  0.7546771E-02  0.1036762E+00
         21   -1    0    0  502  501  0.00000000000E+00  0.00000000000E+00  0.83220617537E+03  0.83220617537E+03  0.00000000000E+00 0.  1.
         21   -1    0    0  503  502 -0.00000000000E+00 -0.00000000000E+00 -0.49235446264E+03  0.49235446264E+03  0.00000000000E+00 0.  1.
         25    1    1    2    0    0  0.21839120613E+03  0.33744452951E+03 -0.33574398466E+03  0.53843528176E+03  0.12500000000E+03 0.  0.
         21    1    1    2  503  501 -0.21839120613E+03 -0.33744452951E+03  0.67559569738E+03  0.78612535625E+03  0.00000000000E+00 0.  1.
<mgrwt>
<rscale>  3 0.42093768E+03</rscale>
<asrwt>0</asrwt>
<pdfrwt beam="1">  1       21 0.12803172E+00 0.42093768E+03</pdfrwt>
<pdfrwt beam="2">  1       21 0.75746841E-01 0.42093768E+03</pdfrwt>
<totfact> 0.59358840E+02</totfact>
</mgrwt>
</event>
<event>
 4    0  0.1495377E-001  0.2872628E+03  0.7546771E-02  0.1091787E+00
         21   -1    0    0  502  501  0.00000000000E+00  0.00000000000E+00  0.84882163829E+03  0.84882163829E+03  0.00000000000E+00 0. -1.
         21   -1    0    0  503  502 -0.00000000000E+00 -0.00000000000E+00 -0.92540795494E+02  0.92540795494E+02  0.00000000000E+00 0. -1.
         25    1    1    2    0    0 -0.22173657365E+03  0.13314574598E+03  0.29023439679E+03  0.40835756739E+03  0.12500000000E+03 0.  0.
         21    1    1    2  503  501  0.22173657365E+03 -0.13314574598E+03  0.46604644600E+03  0.53300486639E+03  0.00000000000E+00 0. -1.
<mgrwt>
<rscale>  3 0.28726277E+03</rscale>
<asrwt>0</asrwt>
<pdfrwt beam="1">  1       21 0.13058794E+00 0.28726277E+03</pdfrwt>
<pdfrwt beam="2">  1       21 0.14237046E-01 0.28726277E+03</pdfrwt>
<totfact> 0.17482379E+04</totfact>
</mgrwt>
</event>
<event>
 4    0  0.1495377E-001  0.2601090E+03  0.7546771E-02  0.1107078E+00
         21   -1    0    0  503  501  0.00000000000E+00  0.00000000000E+00  0.19709593186E+03  0.19709593186E+03  0.00000000000E+00 0.  1.
         21   -1    0    0  501  502 -0.00000000000E+00 -0.00000000000E+00 -0.33352258232E+03  0.33352258232E+03  0.00000000000E+00 0. -1.
         25    1    1    2    0    0 -0.21503677539E+03  0.76097654089E+02 -0.15324439991E+03  0.30189487215E+03  0.12500000000E+03 0.  0.
         21    1    1    2  503  502  0.21503677539E+03 -0.76097654089E+02  0.16817749446E+02  0.22872364203E+03  0.00000000000E+00 0.  1.
<mgrwt>
<rscale>  3 0.26010895E+03</rscale>
<asrwt>0</asrwt>
<pdfrwt beam="1">  1       21 0.30322451E-01 0.26010895E+03</pdfrwt>
<pdfrwt beam="2">  1       21 0.51311167E-01 0.26010895E+03</pdfrwt>
<totfact> 0.36499634E+04</totfact>
</mgrwt>
</event>
<event>
 4    0  0.1495377E-001  0.2360001E+03  0.7546771E-02  0.1122486E+00
         21   -1    0    0  502  501  0.00000000000E+00  0.00000000000E+00  0.59584643525E+03  0.59584643525E+03  0.00000000000E+00 0.  1.
         21   -1    0    0  503  502 -0.00000000000E+00 -0.00000000000E+00 -0.81736441301E+02  0.81736441301E+02  0.00000000000E+00 0.  1.
         25    1    1    2    0    0  0.16410973160E+02  0.19950371122E+03  0.22601846267E+03  0.32677269821E+03  0.12500000000E+03 0.  0.
         21    1    1    2  503  501 -0.16410973160E+02 -0.19950371122E+03  0.28809153128E+03  0.35081017834E+03  0.00000000000E+00 0.  1.
<mgrwt>
<rscale>  3 0.23600011E+03</rscale>
<asrwt>0</asrwt>
<pdfrwt beam="1">  1       21 0.91668679E-01 0.23600011E+03</pdfrwt>
<pdfrwt beam="2">  1       21 0.12574838E-01 0.23600011E+03</pdfrwt>
<totfact> 0.53232320E+04</totfact>
</mgrwt>
</event>
<event>
 4    0  0.1495377E-001  0.3060708E+03  0.7546771E-02  0.1082245E+00
         21   -1    0    0  503  501  0.00000000000E+00  0.00000000000E+00  0.83370466753E+02  0.83370466753E+02  0.00000000000E+00 0.  1.
         21   -1    0    0  501  502 -0.00000000000E+00 -0.00000000000E+00 -0.12971300849E+04  0.12971300849E+04  0.00000000000E+00 0.  1.
         25    1    1    2    0    0 -0.24755743181E+03 -0.12949761217E+03 -0.94306456066E+03  0.99148881949E+03  0.12500000000E+03 0.  0.
         21    1    1    2  503  502  0.24755743181E+03  0.12949761217E+03 -0.27069505745E+03  0.38901173213E+03  0.00000000000E+00 0.  1.
<mgrwt>
<rscale>  3 0.30607077E+03</rscale>
<asrwt>0</asrwt>
<pdfrwt beam="1">  1       21 0.12826227E-01 0.30607077E+03</pdfrwt>
<pdfrwt beam="2">  1       21 0.19955845E+00 0.30607077E+03</pdfrwt>
<totfact> 0.64909665E+03</totfact>
</mgrwt>
</event>
<event>
 4    0  0.1495377E-001  0.3538786E+03  0.7546771E-02  0.1061034E+00
         21   -1    0    0  503  501  0.00000000000E+00  0.00000000000E+00  0.23189299926E+03  0.23189299926E+03  0.00000000000E+00 0.  1.
         21   -1    0    0  501  502 -0.00000000000E+00 -0.00000000000E+00 -0.50595423489E+03  0.50595423489E+03  0.00000000000E+00 0.  1.
         25    1    1    2    0    0  0.83562131633E+02  0.32034732685E+03 -0.13480157012E+03  0.37868390905E+03  0.12500000000E+03 0.  0.
         21    1    1    2  503  502 -0.83562131633E+02 -0.32034732685E+03 -0.13925966551E+03  0.35916332511E+03  0.00000000000E+00 0.  1.
<mgrwt>
<rscale>  3 0.35387857E+03</rscale>
<asrwt>0</asrwt>
<pdfrwt beam="1">  1       21 0.35675846E-01 0.35387857E+03</pdfrwt>
<pdfrwt beam="2">  1       21 0.77839112E-01 0.35387857E+03</pdfrwt>
<totfact> 0.10204084E+04</totfact>
</mgrwt>
</event>
<event>
 4    0  0.1495377E-001  0.2579157E+03  0.7546771E-02  0.1108402E+00
         21   -1    0    0  502  501  0.00000000000E+00  0.00000000000E+00  0.45784056472E+02  0.45784056472E+02  0.00000000000E+00 0.  1.
         21   -1    0    0  503  502 -0.00000000000E+00 -0.00000000000E+00 -0.13875415405E+04  0.13875415405E+04  0.00000000000E+00 0.  1.
         25    1    1    2    0    0  0.93285133986E+01 -0.22540734082E+03 -0.50988097758E+03  0.57140099909E+03  0.12500000000E+03 0.  0.
         21    1    1    2  503  501 -0.93285133986E+01  0.22540734082E+03 -0.83187650646E+03  0.86192459790E+03  0.00000000000E+00 0.  1.
<mgrwt>
<rscale>  3 0.25791567E+03</rscale>
<asrwt>0</asrwt>
<pdfrwt beam="1">  1       21 0.70437018E-02 0.25791567E+03</pdfrwt>
<pdfrwt beam="2">  1       21 0.21346790E+00 0.25791567E+03</pdfrwt>
<totfact> 0.15760645E+04</totfact>
</mgrwt>
</event>
<event>
 4    0  0.1495377E-001  0.3739707E+03  0.7546771E-02  0.1053185E+00
         21   -1    0    0  502  501  0.00000000000E+00  0.00000000000E+00  0.33520177517E+03  0.33520177517E+03  0.00000000000E+00 0.  1.
         21   -1    0    0  503  502 -0.00000000000E+00 -0.00000000000E+00 -0.45313646213E+03  0.45313646213E+03  0.00000000000E+00 0.  1.
         25    1    1    2    0    0  0.32213955464E+03 -0.14302176471E+03 -0.20333937488E+03  0.42567713025E+03  0.12500000000E+03 0.  0.
         21    1    1    2  503  501 -0.32213955464E+03  0.14302176471E+03  0.85404687926E+02  0.36266110704E+03  0.00000000000E+00 0.  1.
<mgrwt>
<rscale>  3 0.37397074E+03</rscale>
<asrwt>0</asrwt>
<pdfrwt beam="1">  1       21 0.51569504E-01 0.37397074E+03</pdfrwt>
<pdfrwt beam="2">  1       21 0.69713301E-01 0.37397074E+03</pdfrwt>
<totfact> 0.60571303E+03</totfact>
</mgrwt>
</event>
<event>
 4    0  0.1495377E-001  0.2977594E+03  0.7546771E-02  0.1086366E+00
         21   -1    0    0  502  501  0.00000000000E+00  0.00000000000E+00  0.26063990895E+03  0.26063990895E+03  0.00000000000E+00 0.  1.
         21   -1    0    0  503  502 -0.00000000000E+00 -0.00000000000E+00 -0.30947540846E+03  0.30947540846E+03  0.00000000000E+00 0.  1.
         25    1    1    2    0    0 -0.26868631534E+02 -0.26891210784E+03 -0.27239517849E+02  0.29900273650E+03  0.12500000000E+03 0.  0.
         21    1    1    2  503  501  0.26868631534E+02  0.26891210784E+03 -0.21595981660E+02  0.27111258091E+03  0.00000000000E+00 0.  1.
<mgrwt>
<rscale>  3 0.29775937E+03</rscale>
<asrwt>0</asrwt>
<pdfrwt beam="1">  1       21 0.40098447E-01 0.29775937E+03</pdfrwt>
<pdfrwt beam="2">  1       21 0.47611602E-01 0.29775937E+03</pdfrwt>
<totfact> 0.24048648E+04</totfact>
</mgrwt>
</event>
<event>
 4    0  0.1495377E-001  0.2631212E+03  0.7546771E-02  0.1105282E+00
         21   -1    0    0  502  501  0.00000000000E+00  0.00000000000E+00  0.73309352207E+03  0.73309352207E+03  0.00000000000E+00 0. -1.
         21   -1    0    0  503  502 -0.00000000000E+00 -0.00000000000E+00 -0.19161235854E+03  0.19161235854E+03  0.00000000000E+00 0. -1.
         25    1    1    2    0    0 -0.22277941291E+03 -0.63064234408E+02 -0.68810839426E+02  0.27197002795E+03  0.12500000000E+03 0.  0.
         21    1    1    2  503  501  0.22277941291E+03  0.63064234408E+02  0.61029200295E+03  0.65273585266E+03  0.00000000000E+00 0. -1.
<mgrwt>
<rscale>  3 0.26312120E+03</rscale>
<asrwt>0</asrwt>
<pdfrwt beam="1">  1       21 0.11278362E+00 0.26312120E+03</pdfrwt>
<pdfrwt beam="2">  1       21 0.29478825E-01 0.26312120E+03</pdfrwt>
<totfact> 0.64631501E+03</totfact>
</mgrwt>
</event>
<event>
 4    0  0.1495377E-001  0.2554405E+03  0.7546771E-02  0.1109914E+00
         21   -1    0    0  503  501  0.00000000000E+00  0.00000000000E+00  0.32961258859E+03  0.32961258859E+03  0.00000000000E+00 0.  1.
         21   -1    0    0  501  502 -0.00000000000E+00 -0.00000000000E+00 -0.17482686489E+03  0.17482686489E+03  0.00000000000E+00 0.  1.
         25    1    1    2    0    0  0.21822566004E+03  0.44748420706E+02  0.60287143802E+02  0.26245837682E+03  0.12500000000E+03 0.  0.
         21    1    1    2  503  502 -0.21822566004E+03 -0.44748420706E+02  0.94498579902E+02  0.24198107666E+03  0.00000000000E+00 0.  1.
<mgrwt>
<rscale>  3 0.25544052E+03</rscale>
<asrwt>0</asrwt>
<pdfrwt beam="1">  1       21 0.50709629E-01 0.25544052E+03</pdfrwt>
<pdfrwt beam="2">  1       21 0.26896441E-01 0.25544052E+03</pdfrwt>
<totfact> 0.47370067E+04</totfact>
</mgrwt>
</event>
<event>
 4    0  0.1495377E-001  0.3411837E+03  0.7546771E-02  0.1066293E+00
         21   -1    0    0  502  501  0.00000000000E+00  0.00000000000E+00  0.91750794681E+03  0.91750794681E+03  0.00000000000E+00 0.  1.
         21   -1    0    0  503  502 -0.00000000000E+00 -0.00000000000E+00 -0.23908692550E+03  0.23908692550E+03  0.00000000000E+00 0.  1.
         25    1    1    2    0    0 -0.30560335114E+03 -0.85953073480E+02 -0.65819747073E+02  0.34747457198E+03  0.12500000000E+03 0.  0.
         21    1    1    2  503  501  0.30560335114E+03  0.85953073480E+02  0.74424076838E+03  0.80912030032E+03  0.00000000000E+00 0.  1.
<mgrwt>
<rscale>  3 0.34118373E+03</rscale>
<asrwt>0</asrwt>
<pdfrwt beam="1">  1       21 0.14115507E+00 0.34118373E+03</pdfrwt>
<pdfrwt beam="2">  1       21 0.36782604E-01 0.34118373E+03</pdfrwt>
<totfact> 0.22516391E+03</totfact>
</mgrwt>
</event>
<event>
 4    0  0.1495377E-001  0.5159882E+03  0.7546771E-02  0.1009688E+00
         21   -1    0    0  503  501  0.00000000000E+00  0.00000000000E+00  0.86329065285E+03  0.86329065285E+03  0.00000000000E+00 0.  1.
         21   -1    0    0  501  502 -0.00000000000E+00 -0.00000000000E+00 -0.29935215558E+03  0.29935215558E+03  0.00000000000E+00 0.  1.
         25    1    1    2    0    0  0.15070833646E+03  0.47739481320E+03  0.29476209198E+03  0.59424616214E+03  0.12500000000E+03 0.  0.
         21    1    1    2  503  502 -0.15070833646E+03 -0.47739481320E+03  0.26917640529E+03  0.56839664629E+03  0.00000000000E+00 0.  1.
<mgrwt>
<rscale>  3 0.51598819E+03</rscale>
<asrwt>0</asrwt>
<pdfrwt beam="1">  1       21 0.13281395E+00 0.51598819E+03</pdfrwt>
<pdfrwt beam="2">  1       21 0.46054178E-01 0.51598819E+03</pdfrwt>
<totfact> 0.15433931E+03</totfact>
</mgrwt>
</event>
<event>
 4    0  0.1495377E-001  0.5091058E+03  0.7546771E-02  0.1011429E+00
         21   -1    0    0  502  501  0.00000000000E+00  0.00000000000E+00  0.19625273864E+04  0.19625273864E+04  0.00000000000E+00 0.  1.
         21   -1    0    0  503  502 -0.00000000000E+00 -0.00000000000E+00 -0.13890758168E+03  0.13890758168E+03  0.00000000000E+00 0.  1.
         25    1    1    2    0    0 -0.12504115293E+03 -0.47741854896E+03  0.12185045637E+04  0.13205840120E+04  0.12500000000E+03 0.  0.
         21    1    1    2  503  501  0.12504115293E+03  0.47741854896E+03  0.60511524101E+03  0.78085095615E+03  0.00000000000E+00 0.  1.
<mgrwt>
<rscale>  3 0.50910584E+03</rscale>
<asrwt>0</asrwt>
<pdfrwt beam="1">  1       21 0.30192727E+00 0.50910584E+03</pdfrwt>
<pdfrwt beam="2">  1       21 0.21370399E-01 0.50910584E+03</pdfrwt>
<totfact> 0.52447355E+02</totfact>
</mgrwt>
</event>
<event>
 4    0  0.1495377E-001  0.2512653E+03  0.7546771E-02  0.1112508E+00
         21   -1    0    0  503  501  0.00000000000E+00  0.00000000000E+00  0.12034319916E+04  0.12034319916E+04  0.00000000000E+00 0.  1.
         21   -1    0    0  501  502 -0.00000000000E+00 -0.00000000000E+00 -0.97296020692E+02  0.97296020692E+02  0.00000000000E+00 0.  1.
         25    1    1    2    0    0  0.10446924581E+03  0.19129936660E+03  0.98655992497E+02  0.26993939289E+03  0.12500000000E+03 0.  0.
         21    1    1    2  503  502 -0.10446924581E+03 -0.19129936660E+03  0.10074799784E+04  0.10307886194E+04  0.00000000000E+00 0.  1.
<mgrwt>
<rscale>  3 0.25126534E+03</rscale>
<asrwt>0</asrwt>
<pdfrwt beam="1">  1       21 0.18514337E+00 0.25126534E+03</pdfrwt>
<pdfrwt beam="2">  1       21 0.14968619E-01 0.25126534E+03</pdfrwt>
<totfact> 0.63201890E+03</totfact>
</mgrwt>
</event>
<event>
 4    0  0.1495377E-001  0.2812613E+03  0.7546771E-02  0.1095002E+00
         21   -1    0    0  502  501  0.00000000000E+00  0.00000000000E+00  0.49430316930E+03  0.49430316930E+03  0.00000000000E+00 0.  1.
         21   -1    0    0  503  502 -0.00000000000E+00 -0.00000000000E+00 -0.14883056276E+03  0.14883056276E+03  0.00000000000E+00 0. -1.
         25    1    1    2    0    0 -0.30013432603E+02  0.25016412404E+03  0.12287380036E+03  0.30692974099E+03  0.12500000000E+03 0.  0.
         21    1    1    2  503  501  0.30013432603E+02 -0.25016412404E+03  0.22259880618E+03  0.33620399106E+03  0.00000000000E+00 0.  1.
<mgrwt>
<rscale>  3 0.28126126E+03</rscale>
<asrwt>0</asrwt>
<pdfrwt beam="1">  1       21 0.76046641E-01 0.28126126E+03</pdfrwt>
<pdfrwt beam="2">  1       21 0.22897010E-01 0.28126126E+03</pdfrwt>
<totfact> 0.26420543E+04</totfact>
</mgrwt>
</event>
<event>
 4    0  0.1495377E-001  0.2480009E+03  0.7546771E-02  0.1114575E+00
         21   -1    0    0  502  501  0.00000000000E+00  0.00000000000E+00  0.18732391908E+04  0.18732391908E+04  0.00000000000E+00 0. -1.
         21   -1    0    0  503  502 -0.00000000000E+00 -0.00000000000E+00 -0.28513748546E+02  0.28513748546E+02  0.00000000000E+00 0.  1.
         25    1    1    2    0    0  0.20648646921E+03  0.56945271436E+02  0.10005628086E+04  0.10308396382E+04  0.12500000000E+03 0.  0.
         21    1    1    2  503  501 -0.20648646921E+03 -0.56945271436E+02  0.84416263374E+03  0.87091330114E+03  0.00000000000E+00 0. -1.
<mgrwt>
<rscale>  3 0.24800086E+03</rscale>
<asrwt>0</asrwt>
<pdfrwt beam="1">  1       21 0.28819055E+00 0.24800086E+03</pdfrwt>
<pdfrwt beam="2">  1       21 0.43867320E-02 0.24800086E+03</pdfrwt>
<totfact> 0.12737561E+04</totfact>
</mgrwt>
</event>
<event>
 4    0  0.1495377E-001  0.2813449E+03  0.7546771E-02  0.1094957E+00
         21   -1    0    0  503  501  0.00000000000E+00  0.00000000000E+00  0.13274526088E+03  0.13274526088E+03  0.00000000000E+00 0. -1.
         21   -1    0    0  501  502 -0.00000000000E+00 -0.00000000000E+00 -0.54355029603E+03  0.54355029603E+03  0.00000000000E+00 0. -1.
         25    1    1    2    0    0  0.49585265308E+02  0.24712602095E+03 -0.17626400633E+03  0.33199995285E+03  0.12500000000E+03 0.  0.
         21    1    1    2  503  502 -0.49585265308E+02 -0.24712602095E+03 -0.23454102883E+03  0.34429560406E+03  0.00000000000E+00 0. -1.
<mgrwt>
<rscale>  3 0.28134493E+03</rscale>
<asrwt>0</asrwt>
<pdfrwt beam="1">  1       21 0.20422348E-01 0.28134493E+03</pdfrwt>
<pdfrwt beam="2">  1       21 0.83623122E-01 0.28134493E+03</pdfrwt>
<totfact> 0.26430675E+04</totfact>
</mgrwt>
</event>
<event>
 4    0  0.1495377E-001  0.2650038E+03  0.7546771E-02  0.1104174E+00
         21   -1    0    0  502  501  0.00000000000E+00  0.00000000000E+00  0.98046819917E+02  0.98046819917E+02  0.00000000000E+00 0.  1.
         21   -1    0    0  503  502 -0.00000000000E+00 -0.00000000000E+00 -0.10285580318E+04  0.10285580318E+04  0.00000000000E+00 0. -1.
         25    1    1    2    0    0  0.16830540540E+03  0.16209651267E+03 -0.83170434834E+03  0.87290269329E+03  0.12500000000E+03 0.  0.
         21    1    1    2  503  501 -0.16830540540E+03 -0.16209651267E+03 -0.98806863543E+02  0.25370215843E+03  0.00000000000E+00 0.  1.
<mgrwt>
<rscale>  3 0.26500375E+03</rscale>
<asrwt>0</asrwt>
<pdfrwt beam="1">  1       21 0.15084127E-01 0.26500375E+03</pdfrwt>
<pdfrwt beam="2">  1       21 0.15823969E+00 0.26500375E+03</pdfrwt>
<totfact> 0.95882260E+03</totfact>
</mgrwt>
</event>
<event>
 4    0  0.1495377E-001  0.2577359E+03  0.7546771E-02  0.1108511E+00
         21   -1    0    0  502  501  0.00000000000E+00  0.00000000000E+00  0.12111270619E+04  0.12111270619E+04  0.00000000000E+00 0.  1.
         21   -1    0    0  503  502 -0.00000000000E+00 -0.00000000000E+00 -0.66497781479E+02  0.66497781479E+02  0.00000000000E+00 0.  1.
         25    1    1    2    0    0 -0.18506621291E+01  0.22538710587E+03  0.26535180902E+03  0.36991803821E+03  0.12500000000E+03 0.  0.
         21    1    1    2  503  501  0.18506621291E+01 -0.22538710587E+03  0.87927747141E+03  0.90770680518E+03  0.00000000000E+00 0.  1.
<mgrwt>
<rscale>  3 0.25773586E+03</rscale>
<asrwt>0</asrwt>
<pdfrwt beam="1">  1       21 0.18632722E+00 0.25773586E+03</pdfrwt>
<pdfrwt beam="2">  1       21 0.10230429E-01 0.25773586E+03</pdfrwt>
<totfact> 0.12283644E+04</totfact>
</mgrwt>
</event>
<event>
 4    0  0.1495377E-001  0.2548341E+03  0.7546771E-02  0.1110287E+00
         21   -1    0    0  502  501  0.00000000000E+00  0.00000000000E+00  0.12089284114E+04  0.12089284114E+04  0.00000000000E+00 0. -1.
         21   -1    0    0  503  502 -0.00000000000E+00 -0.00000000000E+00 -0.67759894707E+02  0.67759894707E+02  0.00000000000E+00 0. -1.
         25    1    1    2    0    0  0.20339835081E+03  0.89131951496E+02  0.95026361260E+03  0.98384009236E+03  0.12500000000E+03 0.  0.
         21    1    1    2  503  501 -0.20339835081E+03 -0.89131951496E+02  0.19090490408E+03  0.29284821374E+03  0.00000000000E+00 0. -1.
<mgrwt>
<rscale>  3 0.25483405E+03</rscale>
<asrwt>0</asrwt>
<pdfrwt beam="1">  1       21 0.18598897E+00 0.25483405E+03</pdfrwt>
<pdfrwt beam="2">  1       21 0.10424600E-01 0.25483405E+03</pdfrwt>
<totfact> 0.11962804E+04</totfact>
</mgrwt>
</event>
<event>
 4    0  0.1495377E-001  0.2924863E+03  0.7546771E-02  0.1089058E+00
         21   -1    0    0  503  501  0.00000000000E+00  0.00000000000E+00  0.56945625682E+03  0.56945625682E+03  0.00000000000E+00 0.  1.
         21   -1    0    0  501  502 -0.00000000000E+00 -0.00000000000E+00 -0.22080530157E+03  0.22080530157E+03  0.00000000000E+00 0.  1.
         25    1    1    2    0    0  0.16524498402E+03 -0.20643971999E+03 -0.64708433649E+02  0.29955874902E+03  0.12500000000E+03 0.  0.
         21    1    1    2  503  502 -0.16524498402E+03  0.20643971999E+03  0.41335938890E+03  0.49070280937E+03  0.00000000000E+00 0.  1.
<mgrwt>
<rscale>  3 0.29248635E+03</rscale>
<asrwt>0</asrwt>
<pdfrwt beam="1">  1       21 0.87608655E-01 0.29248635E+03</pdfrwt>
<pdfrwt beam="2">  1       21 0.33970047E-01 0.29248635E+03</pdfrwt>
<totfact> 0.87993531E+03</totfact>
</mgrwt>
</event>
<event>
 4    0  0.1495377E-001  0.2602157E+03  0.7546771E-02  0.1107014E+00
         21   -1    0    0  502  501  0.00000000000E+00  0.00000000000E+00  0.19937961225E+03  0.19937961225E+03  0.00000000000E+00 0. -1.
         21   -1    0    0  503  502 -0.00000000000E+00 -0.00000000000E+00 -0.35944463912E+03  0.35944463912E+03  0.00000000000E+00 0. -1.
         25    1    1    2    0    0  0.22818016533E+03  0.45868817243E+01 -0.19863036340E+03  0.32736256444E+03  0.12500000000E+03 0.  0.
         21    1    1    2  503  501 -0.22818016533E+03 -0.45868817243E+01  0.38565336522E+02  0.23146168693E+03  0.00000000000E+00 0. -1.
<mgrwt>
<rscale>  3 0.26021573E+03</rscale>
<asrwt>0</asrwt>
<pdfrwt beam="1">  1       21 0.30673787E-01 0.26021573E+03</pdfrwt>
<pdfrwt beam="2">  1       21 0.55299175E-01 0.26021573E+03</pdfrwt>
<totfact> 0.30442800E+04</totfact>
</mgrwt>
</event>
<event>
 4    0  0.1495377E-001  0.2360702E+03  0.7546771E-02  0.1122439E+00
         21   -1    0    0  502  501  0.00000000000E+00  0.00000000000E+00  0.20373864677E+03  0.20373864677E+03  0.00000000000E+00 0.  1.
         21   -1    0    0  503  502 -0.00000000000E+00 -0.00000000000E+00 -0.38575074953E+03  0.38575074953E+03  0.00000000000E+00 0.  1.
         25    1    1    2    0    0 -0.51686795170E+02 -0.19347510415E+03 -0.28025321628E+03  0.36643008332E+03  0.12500000000E+03 0.  0.
         21    1    1    2  503  501  0.51686795170E+02  0.19347510415E+03  0.98241113522E+02  0.22305931298E+03  0.00000000000E+00 0.  1.
<mgrwt>
<rscale>  3 0.23607020E+03</rscale>
<asrwt>0</asrwt>
<pdfrwt beam="1">  1       21 0.31344408E-01 0.23607020E+03</pdfrwt>
<pdfrwt beam="2">  1       21 0.59346268E-01 0.23607020E+03</pdfrwt>
<totfact> 0.25350583E+04</totfact>
</mgrwt>
</event>
<event>
 4    0  0.1495377E-001  0.2682175E+03  0.7546771E-02  0.1102304E+00
         21   -1    0    0  502  501  0.00000000000E+00  0.00000000000E+00  0.11674244452E+03  0.11674244452E+03  0.00000000000E+00 0.  1.
         21   -1    0    0  503  502 -0.00000000000E+00 -0.00000000000E+00 -0.94123960596E+03  0.94123960596E+03  0.00000000000E+00 0. -1.
         25    1    1    2    0    0 -0.22480672593E+03 -0.76010110454E+02 -0.76877201888E+03  0.81421804078E+03  0.12500000000E+03 0.  0.
         21    1    1    2  503  501  0.22480672593E+03  0.76010110454E+02 -0.55725142569E+02  0.24376400970E+03  0.00000000000E+00 0.  1.
<mgrwt>
<rscale>  3 0.26821745E+03</rscale>
<asrwt>0</asrwt>
<pdfrwt beam="1">  1       21 0.17960376E-01 0.26821745E+03</pdfrwt>
<pdfrwt beam="2">  1       21 0.14480609E+00 0.26821745E+03</pdfrwt>
<totfact> 0.87882859E+03</totfact>
</mgrwt>
</event>
<event>
 4    0  0.1495377E-001  0.5392389E+03  0.7546771E-02  0.1004016E+00
         21   -1    0    0  503  501  0.00000000000E+00  0.00000000000E+00  0.73556738851E+03  0.73556738851E+03  0.00000000000E+00 0.  1.
         21   -1    0    0  501  502 -0.00000000000E+00 -0.00000000000E+00 -0.16857561948E+04  0.16857561948E+04  0.00000000000E+00 0.  1.
         25    1    1    2    0    0  0.35338621749E+03  0.38764902787E+03 -0.15401897449E+04  0.16318587678E+04  0.12500000000E+03 0.  0.
         21    1    1    2  503  502 -0.35338621749E+03 -0.38764902787E+03  0.59000093860E+03  0.78946481560E+03  0.00000000000E+00 0.  1.
<mgrwt>
<rscale>  3 0.53923890E+03</rscale>
<asrwt>0</asrwt>
<pdfrwt beam="1">  1       21 0.11316421E+00 0.53923890E+03</pdfrwt>
<pdfrwt beam="2">  1       21 0.25934711E+00 0.53923890E+03</pdfrwt>
<totfact> 0.25704209E+01</totfact>
</mgrwt>
</event>
<event>
 4    0  0.1495377E-001  0.2616005E+03  0.7546771E-02  0.1106185E+00
         21   -1    0    0  502  501  0.00000000000E+00  0.00000000000E+00  0.35781873273E+03  0.35781873273E+03  0.00000000000E+00 0.  1.
         21   -1    0    0  503  502 -0.00000000000E+00 -0.00000000000E+00 -0.22715849646E+03  0.22715849646E+03  0.00000000000E+00 0.  1.
         25    1    1    2    0    0 -0.12054303257E+03  0.19565070755E+03 -0.79657294683E+02  0.27345951558E+03  0.12500000000E+03 0.  0.
         21    1    1    2  503  501  0.12054303257E+03 -0.19565070755E+03  0.21031753095E+03  0.31151771361E+03  0.00000000000E+00 0.  1.
<mgrwt>
<rscale>  3 0.26160050E+03</rscale>
<asrwt>0</asrwt>
<pdfrwt beam="1">  1       21 0.55049036E-01 0.26160050E+03</pdfrwt>
<pdfrwt beam="2">  1       21 0.34947461E-01 0.26160050E+03</pdfrwt>
<totfact> 0.23717429E+04</totfact>
</mgrwt>
</event>
<event>
 4    0  0.1495377E-001  0.4307449E+03  0.7546771E-02  0.1033625E+00
         21   -1    0    0  503  501  0.00000000000E+00  0.00000000000E+00  0.83749141909E+03  0.83749141909E+03  0.00000000000E+00 0. -1.
         21   -1    0    0  501  502 -0.00000000000E+00 -0.00000000000E+00 -0.21479326120E+03  0.21479326120E+03  0.00000000000E+00 0. -1.
         25    1    1    2    0    0 -0.27562975226E+03 -0.30650357191E+03  0.25935037963E+03  0.50279600171E+03  0.12500000000E+03 0.  0.
         21    1    1    2  503  502  0.27562975226E+03  0.30650357191E+03  0.36334777826E+03  0.54948867858E+03  0.00000000000E+00 0. -1.
<mgrwt>
<rscale>  3 0.43074494E+03</rscale>
<asrwt>0</asrwt>
<pdfrwt beam="1">  1       21 0.12884483E+00 0.43074494E+03</pdfrwt>
<pdfrwt beam="2">  1       21 0.33045118E-01 0.43074494E+03</pdfrwt>
<totfact> 0.34083511E+03</totfact>
</mgrwt>
</event>
<event>
 4    0  0.1495377E-001  0.2578932E+03  0.7546771E-02  0.1108416E+00
         21   -1    0    0  502  501  0.00000000000E+00  0.00000000000E+00  0.12381839699E+04  0.12381839699E+04  0.00000000000E+00 0. -1.
         21   -1    0    0  503  502 -0.00000000000E+00 -0.00000000000E+00 -0.21869809660E+03  0.21869809660E+03  0.00000000000E+00 0.  1.
         25    1    1    2    0    0  0.20956315822E+03 -0.83469536097E+02 -0.12766549500E+03  0.28776267888E+03  0.12500000000E+03 0.  0.
         21    1    1    2  503  501 -0.20956315822E+03  0.83469536097E+02  0.11471513683E+04  0.11691193876E+04  0.00000000000E+00 0. -1.
<mgrwt>
<rscale>  3 0.25789316E+03</rscale>
<asrwt>0</asrwt>
<pdfrwt beam="1">  1       21 0.19048984E+00 0.25789316E+03</pdfrwt>
<pdfrwt beam="2">  1       21 0.33645862E-01 0.25789316E+03</pdfrwt>
<totfact> 0.12385111E+03</totfact>
</mgrwt>
</event>
<event>
 4    0  0.1495377E-001  0.2454161E+03  0.7546771E-02  0.1116237E+00
         21   -1    0    0  503  501  0.00000000000E+00  0.00000000000E+00  0.37345122141E+03  0.37345122141E+03  0.00000000000E+00 0.  1.
         21   -1    0    0  501  502 -0.00000000000E+00 -0.00000000000E+00 -0.21304209013E+03  0.21304209013E+03  0.00000000000E+00 0. -1.
         25    1    1    2    0    0 -0.13598059642E+03 -0.16159616877E+03 -0.87747919964E+02  0.26063142907E+03  0.12500000000E+03 0.  0.
         21    1    1    2  503  502  0.13598059642E+03  0.16159616877E+03  0.24815705125E+03  0.32586188247E+03  0.00000000000E+00 0.  1.
<mgrwt>
<rscale>  3 0.24541606E+03</rscale>
<asrwt>0</asrwt>
<pdfrwt beam="1">  1       21 0.57454034E-01 0.24541606E+03</pdfrwt>
<pdfrwt beam="2">  1       21 0.32775706E-01 0.24541606E+03</pdfrwt>
<totfact> 0.24775205E+04</totfact>
</mgrwt>
</event>
<event>
 4    0  0.1495377E-001  0.3001258E+03  0.7546771E-02  0.1085178E+00
         21   -1    0    0  502  501  0.00000000000E+00  0.00000000000E+00  0.22285885616E+03  0.22285885616E+03  0.00000000000E+00 0.  1.
         21   -1    0    0  503  502 -0.00000000000E+00 -0.00000000000E+00 -0.36848764079E+03  0.36848764079E+03  0.00000000000E+00 0.  1.
         25    1    1    2    0    0 -0.24863973903E+03  0.11237784223E+03 -0.69469484457E+02  0.30806088444E+03  0.12500000000E+03 0.  0.
         21    1    1    2  503  501  0.24863973903E+03 -0.11237784223E+03 -0.76159300174E+02  0.28328561251E+03  0.00000000000E+00 0.  1.
<mgrwt>
<rscale>  3 0.30012581E+03</rscale>
<asrwt>0</asrwt>
<pdfrwt beam="1">  1       21 0.34285978E-01 0.30012581E+03</pdfrwt>
<pdfrwt beam="2">  1       21 0.56690406E-01 0.30012581E+03</pdfrwt>
<totfact> 0.22772891E+04</totfact>
</mgrwt>
</event>
<event>
 4    0  0.1495377E-001  0.2734608E+03  0.7546771E-02  0.1099315E+00
         21   -1    0    0  503  501  0.00000000000E+00  0.00000000000E+00  0.20294845563E+03  0.20294845563E+03  0.00000000000E+00 0.  1.
         21   -1    0    0  501  502 -0.00000000000E+00 -0.00000000000E+00 -0.37624026466E+03  0.37624026466E+03  0.00000000000E+00 0.  1.
         25    1    1    2    0    0  0.11000349117E+03 -0.21692178816E+03 -0.19370241574E+03  0.33511409417E+03  0.12500000000E+03 0.  0.
         21    1    1    2  503  502 -0.11000349117E+03  0.21692178816E+03  0.20410606721E+02  0.24407462612E+03  0.00000000000E+00 0.  1.
<mgrwt>
<rscale>  3 0.27346084E+03</rscale>
<asrwt>0</asrwt>
<pdfrwt beam="1">  1       21 0.31222840E-01 0.27346084E+03</pdfrwt>
<pdfrwt beam="2">  1       21 0.57883117E-01 0.27346084E+03</pdfrwt>
<totfact> 0.26508109E+04</totfact>
</mgrwt>
</event>
<event>
 4    0  0.1495377E-001  0.2424725E+03  0.7546771E-02  0.1118157E+00
         21   -1    0    0  503  501  0.00000000000E+00  0.00000000000E+00  0.65955711982E+03  0.65955711982E+03  0.00000000000E+00 0.  1.
         21   -1    0    0  501  502 -0.00000000000E+00 -0.00000000000E+00 -0.94095312398E+02  0.94095312398E+02  0.00000000000E+00 0.  1.
         25    1    1    2    0    0  0.11678564927E+03 -0.17184011704E+03  0.46151037768E+03  0.52132978277E+03  0.12500000000E+03 0.  0.
         21    1    1    2  503  502 -0.11678564927E+03  0.17184011704E+03  0.10395142974E+03  0.23232264944E+03  0.00000000000E+00 0.  1.
<mgrwt>
<rscale>  3 0.24247250E+03</rscale>
<asrwt>0</asrwt>
<pdfrwt beam="1">  1       21 0.10147032E+00 0.24247250E+03</pdfrwt>
<pdfrwt beam="2">  1       21 0.14476202E-01 0.24247250E+03</pdfrwt>
<totfact> 0.32328473E+04</totfact>
</mgrwt>
</event>
<event>
 4    0  0.1495377E-001  0.3101420E+03  0.7546771E-02  0.1080278E+00
         21   -1    0    0  503  501  0.00000000000E+00  0.00000000000E+00  0.13397830949E+04  0.13397830949E+04  0.00000000000E+00 0. -1.
         21   -1    0    0  501  502 -0.00000000000E+00 -0.00000000000E+00 -0.17048154780E+03  0.17048154780E+03  0.00000000000E+00 0. -1.
         25    1    1    2    0    0 -0.27767929437E+03 -0.58798561189E+02  0.32438404026E+01  0.31015896540E+03  0.12500000000E+03 0.  0.
         21    1    1    2  503  502  0.27767929437E+03  0.58798561189E+02  0.11660577067E+04  0.12001056773E+04  0.00000000000E+00 0. -1.
<mgrwt>
<rscale>  3 0.31014200E+03</rscale>
<asrwt>0</asrwt>
<pdfrwt beam="1">  1       21 0.20612047E+00 0.31014200E+03</pdfrwt>
<pdfrwt beam="2">  1       21 0.26227931E-01 0.31014200E+03</pdfrwt>
<totfact> 0.15347987E+03</totfact>
</mgrwt>
</event>
<event>
 4    0  0.1495377E-001  0.3147788E+03  0.7546771E-02  0.1078078E+00
         21   -1    0    0  503  501  0.00000000000E+00  0.00000000000E+00  0.94474046194E+03  0.94474046194E+03  0.00000000000E+00 0. -1.
         21   -1    0    0  501  502 -0.00000000000E+00 -0.00000000000E+00 -0.10423416850E+03  0.10423416850E+03  0.00000000000E+00 0. -1.
         25    1    1    2    0    0 -0.14805561815E+03 -0.24807308245E+03  0.29357498921E+03  0.43043233451E+03  0.12500000000E+03 0.  0.
         21    1    1    2  503  502  0.14805561815E+03  0.24807308245E+03  0.54693130422E+03  0.61854229592E+03  0.00000000000E+00 0. -1.
<mgrwt>
<rscale>  3 0.31477884E+03</rscale>
<asrwt>0</asrwt>
<pdfrwt beam="1">  1       21 0.14534468E+00 0.31477884E+03</pdfrwt>
<pdfrwt beam="2">  1       21 0.16036027E-01 0.31477884E+03</pdfrwt>
<totfact> 0.10488183E+04</totfact>
</mgrwt>
</event>
<event>
 4    0  0.1495377E-001  0.2525005E+03  0.7546771E-02  0.1111735E+00
         21   -1    0    0  503  501  0.00000000000E+00  0.00000000000E+00  0.21539188751E+03  0.21539188751E+03  0.00000000000E+00 0. -1.
         21   -1    0    0  501  502 -0.00000000000E+00 -0.00000000000E+00 -0.29331033015E+03  0.29331033015E+03  0.00000000000E+00 0. -1.
         25    1    1    2    0    0  0.81091768206E+02  0.20385192719E+03 -0.12885395603E+03  0.28347808570E+03  0.12500000000E+03 0.  0.
         21    1    1    2  503  502 -0.81091768206E+02 -0.20385192719E+03  0.50935513394E+02  0.22522413195E+03  0.00000000000E+00 0. -1.
<mgrwt>
<rscale>  3 0.25250046E+03</rscale>
<asrwt>0</asrwt>
<pdfrwt beam="1">  1       21 0.33137214E-01 0.25250046E+03</pdfrwt>
<pdfrwt beam="2">  1       21 0.45124666E-01 0.25250046E+03</pdfrwt>
<totfact> 0.40180707E+04</totfact>
</mgrwt>
</event>
<event>
 4    0  0.1495377E-001  0.2717772E+03  0.7546771E-02  0.1100267E+00
         21   -1    0    0  503  501  0.00000000000E+00  0.00000000000E+00  0.78487301097E+03  0.78487301097E+03  0.00000000000E+00 0. -1.
         21   -1    0    0  501  502 -0.00000000000E+00 -0.00000000000E+00 -0.18658380259E+03  0.18658380259E+03  0.00000000000E+00 0. -1.
         25    1    1    2    0    0 -0.60932307526E+02 -0.23350613120E+03 -0.52998766940E+02  0.27689660292E+03  0.12500000000E+03 0.  0.
         21    1    1    2  503  502  0.60932307526E+02  0.23350613120E+03  0.65128797532E+03  0.69456021065E+03  0.00000000000E+00 0. -1.
<mgrwt>
<rscale>  3 0.27177722E+03</rscale>
<asrwt>0</asrwt>
<pdfrwt beam="1">  1       21 0.12074969E+00 0.27177722E+03</pdfrwt>
<pdfrwt beam="2">  1       21 0.28705201E-01 0.27177722E+03</pdfrwt>
<totfact> 0.57207931E+03</totfact>
</mgrwt>
</event>
<event>
 4    0  0.1495377E-001  0.3199288E+03  0.7546771E-02  0.1075682E+00
         21   -1    0    0  502  501  0.00000000000E+00  0.00000000000E+00  0.59591019991E+03  0.59591019991E+03  0.00000000000E+00 0.  1.
         21   -1    0    0  503  502 -0.00000000000E+00 -0.00000000000E+00 -0.15843029128E+03  0.15843029128E+03  0.00000000000E+00 0.  1.
         25    1    1    2    0    0  0.29406395547E+03 -0.15994410755E+02  0.23450454347E+03  0.39666965096E+03  0.12500000000E+03 0.  0.
         21    1    1    2  503  501 -0.29406395547E+03  0.15994410755E+02  0.20297536516E+03  0.35767084022E+03  0.00000000000E+00 0.  1.
<mgrwt>
<rscale>  3 0.31992879E+03</rscale>
<asrwt>0</asrwt>
<pdfrwt beam="1">  1       21 0.91678491E-01 0.31992879E+03</pdfrwt>
<pdfrwt beam="2">  1       21 0.24373891E-01 0.31992879E+03</pdfrwt>
<totfact> 0.14988447E+04</totfact>
</mgrwt>
</event>
<event>
 4    0  0.1495377E-001  0.2747647E+03  0.7546771E-02  0.1098583E+00
         21   -1    0    0  503  501  0.00000000000E+00  0.00000000000E+00  0.21807693886E+03  0.21807693886E+03  0.00000000000E+00 0. -1.
         21   -1    0    0  501  502 -0.00000000000E+00 -0.00000000000E+00 -0.31560773172E+03  0.31560773172E+03  0.00000000000E+00 0. -1.
         25    1    1    2    0    0  0.13529361808E+03  0.20387808649E+03 -0.89116352415E+02  0.28885526049E+03  0.12500000000E+03 0.  0.
         21    1    1    2  503  502 -0.13529361808E+03 -0.20387808649E+03 -0.84144404463E+01  0.24482941010E+03  0.00000000000E+00 0. -1.
<mgrwt>
<rscale>  3 0.27476469E+03</rscale>
<asrwt>0</asrwt>
<pdfrwt beam="1">  1       21 0.33550298E-01 0.27476469E+03</pdfrwt>
<pdfrwt beam="2">  1       21 0.48555036E-01 0.27476469E+03</pdfrwt>
<totfact> 0.33359298E+04</totfact>
</mgrwt>
</event>
<event>
 4    0  0.1495377E-001  0.4991997E+03  0.7546771E-02  0.1013988E+00
         21   -1    0    0  503  501  0.00000000000E+00  0.00000000000E+00  0.96387039278E+03  0.96387039278E+03  0.00000000000E+00 0. -1.
         21   -1    0    0  501  502 -0.00000000000E+00 -0.00000000000E+00 -0.34329601054E+03  0.34329601054E+03  0.00000000000E+00 0.  1.
         25    1    1    2    0    0  0.28934865491E+02 -0.48242936825E+03 -0.26060660521E+02  0.49987946529E+03  0.12500000000E+03 0.  0.
         21    1    1    2  503  502 -0.28934865491E+02  0.48242936825E+03  0.64663504276E+03  0.80728693803E+03  0.00000000000E+00 0. -1.
<mgrwt>
<rscale>  3 0.49919968E+03</rscale>
<asrwt>0</asrwt>
<pdfrwt beam="1">  1       21 0.14828775E+00 0.49919968E+03</pdfrwt>
<pdfrwt beam="2">  1       21 0.52814771E-01 0.49919968E+03</pdfrwt>
<totfact> 0.86438694E+02</totfact>
</mgrwt>
</event>
<event>
 4    0  0.1495377E-001  0.3076062E+03  0.7546771E-02  0.1081499E+00
         21   -1    0    0  503  501  0.00000000000E+00  0.00000000000E+00  0.50118985882E+03  0.50118985882E+03  0.00000000000E+00 0. -1.
         21   -1    0    0  501  502 -0.00000000000E+00 -0.00000000000E+00 -0.17516119345E+03  0.17516119345E+03  0.00000000000E+00 0. -1.
         25    1    1    2    0    0  0.13074801883E+03  0.24880021310E+03  0.13149963902E+03  0.33453511853E+03  0.12500000000E+03 0.  0.
         21    1    1    2  503  502 -0.13074801883E+03 -0.24880021310E+03  0.19452902636E+03  0.34181593374E+03  0.00000000000E+00 0. -1.
<mgrwt>
<rscale>  3 0.30760623E+03</rscale>
<asrwt>0</asrwt>
<pdfrwt beam="1">  1       21 0.77106131E-01 0.30760623E+03</pdfrwt>
<pdfrwt beam="2">  1       21 0.26947876E-01 0.30760623E+03</pdfrwt>
<totfact> 0.18510331E+04</totfact>
</mgrwt>
</event>
<event>
 4    0  0.1495377E-001  0.2491681E+03  0.7546771E-02  0.1113832E+00
         21   -1    0    0  503  501  0.00000000000E+00  0.00000000000E+00  0.22993622108E+03  0.22993622108E+03  0.00000000000E+00 0.  1.
         21   -1    0    0  501  502 -0.00000000000E+00 -0.00000000000E+00 -0.26130713336E+03  0.26130713336E+03  0.00000000000E+00 0. -1.
         25    1    1    2    0    0 -0.14974567797E+03  0.15503535195E+03 -0.94747142671E+02  0.26657409752E+03  0.12500000000E+03 0.  0.
         21    1    1    2  503  502  0.14974567797E+03 -0.15503535195E+03  0.63376230385E+02  0.22466925692E+03  0.00000000000E+00 0.  1.
<mgrwt>
<rscale>  3 0.24916807E+03</rscale>
<asrwt>0</asrwt>
<pdfrwt beam="1">  1       21 0.35374803E-01 0.24916807E+03</pdfrwt>
<pdfrwt beam="2">  1       21 0.40201097E-01 0.24916807E+03</pdfrwt>
<totfact> 0.44771075E+04</totfact>
</mgrwt>
</event>
<event>
 4    0  0.1495377E-001  0.2561858E+03  0.7546771E-02  0.1109457E+00
         21   -1    0    0  502  501  0.00000000000E+00  0.00000000000E+00  0.57536012905E+03  0.57536012905E+03  0.00000000000E+00 0. -1.
         21   -1    0    0  503  502 -0.00000000000E+00 -0.00000000000E+00 -0.10010516141E+03  0.10010516141E+03  0.00000000000E+00 0. -1.
         25    1    1    2    0    0  0.17559905086E+03 -0.13845985681E+03  0.24453861310E+03  0.35416139246E+03  0.12500000000E+03 0.  0.
         21    1    1    2  503  501 -0.17559905086E+03  0.13845985681E+03  0.23071635455E+03  0.32130389800E+03  0.00000000000E+00 0. -1.
<mgrwt>
<rscale>  3 0.25618579E+03</rscale>
<asrwt>0</asrwt>
<pdfrwt beam="1">  1       21 0.88516941E-01 0.25618579E+03</pdfrwt>
<pdfrwt beam="2">  1       21 0.15400794E-01 0.25618579E+03</pdfrwt>
<totfact> 0.39594311E+04</totfact>
</mgrwt>
</event>
<event>
 4    0  0.1495377E-001  0.2998548E+03  0.7546771E-02  0.1085313E+00
         21   -1    0    0  503  501  0.00000000000E+00  0.00000000000E+00  0.23744734840E+03  0.23744734840E+03  0.00000000000E+00 0.  1.
         21   -1    0    0  501  502 -0.00000000000E+00 -0.00000000000E+00 -0.77683215896E+03  0.77683215896E+03  0.00000000000E+00 0. -1.
         25    1    1    2    0    0  0.11722758226E+03  0.24606018904E+03 -0.65333523606E+03  0.71886010694E+03  0.12500000000E+03 0.  0.
         21    1    1    2  503  502 -0.11722758226E+03 -0.24606018904E+03  0.11395042550E+03  0.29541940042E+03  0.00000000000E+00 0.  1.
<mgrwt>
<rscale>  3 0.29985484E+03</rscale>
<asrwt>0</asrwt>
<pdfrwt beam="1">  1       21 0.36530361E-01 0.29985484E+03</pdfrwt>
<pdfrwt beam="2">  1       21 0.11951264E+00 0.29985484E+03</pdfrwt>
<totfact> 0.35811607E+03</totfact>
</mgrwt>
</event>
<event>
 4    0  0.1495377E-001  0.2420709E+03  0.7546771E-02  0.1118421E+00
         21   -1    0    0  502  501  0.00000000000E+00  0.00000000000E+00  0.39177398388E+02  0.39177398388E+02  0.00000000000E+00 0. -1.
         21   -1    0    0  503  502 -0.00000000000E+00 -0.00000000000E+00 -0.19272743149E+04  0.19272743149E+04  0.00000000000E+00 0. -1.
         25    1    1    2    0    0  0.13943777184E+03 -0.15339632121E+03 -0.15577654672E+04  0.15764617263E+04  0.12500000000E+03 0.  0.
         21    1    1    2  503  501 -0.13943777184E+03  0.15339632121E+03 -0.33033144934E+03  0.38998998705E+03  0.00000000000E+00 0. -1.
<mgrwt>
<rscale>  3 0.24207091E+03</rscale>
<asrwt>0</asrwt>
<pdfrwt beam="1">  1       21 0.60272917E-02 0.24207091E+03</pdfrwt>
<pdfrwt beam="2">  1       21 0.29650376E+00 0.24207091E+03</pdfrwt>
<totfact> 0.66560590E+03</totfact>
</mgrwt>
</event>
<event>
 4    0  0.1495377E-001  0.2656979E+03  0.7546771E-02  0.1103767E+00
         21   -1    0    0  503  501  0.00000000000E+00  0.00000000000E+00  0.19931105497E+03  0.19931105497E+03  0.00000000000E+00 0. -1.
         21   -1    0    0  501  502 -0.00000000000E+00 -0.00000000000E+00 -0.32286708944E+03  0.32286708944E+03  0.00000000000E+00 0. -1.
         25    1    1    2    0    0 -0.10553100968E+03 -0.20936469220E+03 -0.10925787255E+03  0.28728496490E+03  0.12500000000E+03 0.  0.
         21    1    1    2  503  502  0.10553100968E+03  0.20936469220E+03 -0.14298161915E+02  0.23489317951E+03  0.00000000000E+00 0. -1.
<mgrwt>
<rscale>  3 0.26569789E+03</rscale>
<asrwt>0</asrwt>
<pdfrwt beam="1">  1       21 0.30663240E-01 0.26569789E+03</pdfrwt>
<pdfrwt beam="2">  1       21 0.49671859E-01 0.26569789E+03</pdfrwt>
<totfact> 0.38145150E+04</totfact>
</mgrwt>
</event>
<event>
 4    0  0.1495377E-001  0.2742471E+03  0.7546771E-02  0.1098873E+00
         21   -1    0    0  502  501  0.00000000000E+00  0.00000000000E+00  0.32062381729E+03  0.32062381729E+03  0.00000000000E+00 0.  1.
         21   -1    0    0  503  502 -0.00000000000E+00 -0.00000000000E+00 -0.26794706307E+03  0.26794706307E+03  0.00000000000E+00 0.  1.
         25    1    1    2    0    0  0.22022889885E+03  0.10528854224E+03 -0.10972215037E+03  0.29538177888E+03  0.12500000000E+03 0.  0.
         21    1    1    2  503  501 -0.22022889885E+03 -0.10528854224E+03  0.16239890458E+03  0.29318910148E+03  0.00000000000E+00 0.  1.
<mgrwt>
<rscale>  3 0.27424705E+03</rscale>
<asrwt>0</asrwt>
<pdfrwt beam="1">  1       21 0.49326741E-01 0.27424705E+03</pdfrwt>
<pdfrwt beam="2">  1       21 0.41222625E-01 0.27424705E+03</pdfrwt>
<totfact> 0.21305220E+04</totfact>
</mgrwt>
</event>
<event>
 4    0  0.1495377E-001  0.2414776E+03  0.7546771E-02  0.1118812E+00
         21   -1    0    0  502  501  0.00000000000E+00  0.00000000000E+00  0.32220924470E+03  0.32220924470E+03  0.00000000000E+00 0. -1.
         21   -1    0    0  503  502 -0.00000000000E+00 -0.00000000000E+00 -0.25810611779E+03  0.25810611779E+03  0.00000000000E+00 0. -1.
         25    1    1    2    0    0 -0.19197893682E+03  0.76357680791E+02 -0.14880117846E+03  0.28364273005E+03  0.12500000000E+03 0.  0.
         21    1    1    2  503  501  0.19197893682E+03 -0.76357680791E+02  0.21290430536E+03  0.29667263244E+03  0.00000000000E+00 0. -1.
<mgrwt>
<rscale>  3 0.24147755E+03</rscale>
<asrwt>0</asrwt>
<pdfrwt beam="1">  1       21 0.49570653E-01 0.24147755E+03</pdfrwt>
<pdfrwt beam="2">  1       21 0.39708634E-01 0.24147755E+03</pdfrwt>
<totfact> 0.23100014E+04</totfact>
</mgrwt>
</event>
<event>
 4    0  0.1495377E-001  0.3378922E+03  0.7546771E-02  0.1067697E+00
         21   -1    0    0  502  501  0.00000000000E+00  0.00000000000E+00  0.34211723580E+03  0.34211723580E+03  0.00000000000E+00 0. -1.
         21   -1    0    0  503  502 -0.00000000000E+00 -0.00000000000E+00 -0.47895302809E+03  0.47895302809E+03  0.00000000000E+00 0. -1.
         25    1    1    2    0    0  0.27089856814E+03 -0.15861945453E+03 -0.31343712364E+03  0.46088392904E+03  0.12500000000E+03 0.  0.
         21    1    1    2  503  501 -0.27089856814E+03  0.15861945453E+03  0.17660133135E+03  0.36018633485E+03  0.00000000000E+00 0. -1.
<mgrwt>
<rscale>  3 0.33789224E+03</rscale>
<asrwt>0</asrwt>
<pdfrwt beam="1">  1       21 0.52633421E-01 0.33789224E+03</pdfrwt>
<pdfrwt beam="2">  1       21 0.73685081E-01 0.33789224E+03</pdfrwt>
<totfact> 0.51967597E+03</totfact>
</mgrwt>
</event>
<event>
 4    0  0.1495377E-001  0.2515254E+03  0.7546771E-02  0.1112345E+00
         21   -1    0    0  502  501  0.00000000000E+00  0.00000000000E+00  0.83831063356E+03  0.83831063356E+03  0.00000000000E+00 0. -1.
         21   -1    0    0  503  502 -0.00000000000E+00 -0.00000000000E+00 -0.66540437897E+02  0.66540437897E+02  0.00000000000E+00 0. -1.
         25    1    1    2    0    0 -0.21797121044E+03  0.11339162221E+02  0.36588496477E+03  0.44400093764E+03  0.12500000000E+03 0.  0.
         21    1    1    2  503  501  0.21797121044E+03 -0.11339162221E+02  0.40588523089E+03  0.46085013381E+03  0.00000000000E+00 0. -1.
<mgrwt>
<rscale>  3 0.25152540E+03</rscale>
<asrwt>0</asrwt>
<pdfrwt beam="1">  1       21 0.12897086E+00 0.25152540E+03</pdfrwt>
<pdfrwt beam="2">  1       21 0.10236991E-01 0.25152540E+03</pdfrwt>
<totfact> 0.33272474E+04</totfact>
</mgrwt>
</event>
<event>
 4    0  0.1495377E-001  0.3192494E+03  0.7546771E-02  0.1075995E+00
         21   -1    0    0  502  501  0.00000000000E+00  0.00000000000E+00  0.11691335479E+04  0.11691335479E+04  0.00000000000E+00 0.  1.
         21   -1    0    0  503  502 -0.00000000000E+00 -0.00000000000E+00 -0.10443886499E+03  0.10443886499E+03  0.00000000000E+00 0.  1.
         25    1    1    2    0    0  0.27323269207E+03  0.10788445023E+03  0.24378700956E+03  0.40168677430E+03  0.12500000000E+03 0.  0.
         21    1    1    2  503  501 -0.27323269207E+03 -0.10788445023E+03  0.82090767339E+03  0.87188563863E+03  0.00000000000E+00 0.  1.
<mgrwt>
<rscale>  3 0.31924937E+03</rscale>
<asrwt>0</asrwt>
<pdfrwt beam="1">  1       21 0.17986669E+00 0.31924937E+03</pdfrwt>
<pdfrwt beam="2">  1       21 0.16067519E-01 0.31924937E+03</pdfrwt>
<totfact> 0.57888088E+03</totfact>
</mgrwt>
</event>
<event>
 4    0  0.1495377E-001  0.3104581E+03  0.7546771E-02  0.1080127E+00
         21   -1    0    0  503  501  0.00000000000E+00  0.00000000000E+00  0.64882094470E+02  0.64882094470E+02  0.00000000000E+00 0.  1.
         21   -1    0    0  501  502 -0.00000000000E+00 -0.00000000000E+00 -0.14144209662E+04  0.14144209662E+04  0.00000000000E+00 0.  1.
         25    1    1    2    0    0  0.61670249477E+02 -0.27740945111E+03 -0.84512838151E+03  0.90034782416E+03  0.12500000000E+03 0.  0.
         21    1    1    2  503  502 -0.61670249477E+02  0.27740945111E+03 -0.50441049022E+03  0.57895523651E+03  0.00000000000E+00 0.  1.
<mgrwt>
<rscale>  3 0.31045809E+03</rscale>
<asrwt>0</asrwt>
<pdfrwt beam="1">  1       21 0.99818618E-02 0.31045809E+03</pdfrwt>
<pdfrwt beam="2">  1       21 0.21760320E+00 0.31045809E+03</pdfrwt>
<totfact> 0.77838804E+03</totfact>
</mgrwt>
</event>
<event>
 4    0  0.1495377E-001  0.2687868E+03  0.7546771E-02  0.1101976E+00
         21   -1    0    0  502  501  0.00000000000E+00  0.00000000000E+00  0.99951927871E+03  0.99951927871E+03  0.00000000000E+00 0. -1.
         21   -1    0    0  503  502 -0.00000000000E+00 -0.00000000000E+00 -0.33526977075E+03  0.33526977075E+03  0.00000000000E+00 0. -1.
         25    1    1    2    0    0  0.23071191640E+03 -0.58252539640E+02 -0.26386426171E+03  0.37665726510E+03  0.12500000000E+03 0.  0.
         21    1    1    2  503  501 -0.23071191640E+03  0.58252539640E+02  0.92811376967E+03  0.95813178436E+03  0.00000000000E+00 0. -1.
<mgrwt>
<rscale>  3 0.26878681E+03</rscale>
<asrwt>0</asrwt>
<pdfrwt beam="1">  1       21 0.15377220E+00 0.26878681E+03</pdfrwt>
<pdfrwt beam="2">  1       21 0.51579965E-01 0.26878681E+03</pdfrwt>
<totfact> 0.93278081E+02</totfact>
</mgrwt>
</event>
<event>
 4    0  0.1495377E-001  0.2425584E+03  0.7546771E-02  0.1118100E+00
         21   -1    0    0  502  501  0.00000000000E+00  0.00000000000E+00  0.40170449605E+03  0.40170449605E+03  0.00000000000E+00 0.  1.
         21   -1    0    0  503  502 -0.00000000000E+00 -0.00000000000E+00 -0.22839665699E+03  0.22839665699E+03  0.00000000000E+00 0.  1.
         25    1    1    2    0    0  0.20153236262E+03  0.50934144958E+02 -0.11998722454E+03  0.27061321911E+03  0.12500000000E+03 0.  0.
         21    1    1    2  503  501 -0.20153236262E+03 -0.50934144958E+02  0.29329506360E+03  0.35948793392E+03  0.00000000000E+00 0.  1.
<mgrwt>
<rscale>  3 0.24255841E+03</rscale>
<asrwt>0</asrwt>
<pdfrwt beam="1">  1       21 0.61800692E-01 0.24255841E+03</pdfrwt>
<pdfrwt beam="2">  1       21 0.35137947E-01 0.24255841E+03</pdfrwt>
<totfact> 0.18457304E+04</totfact>
</mgrwt>
</event>
<event>
 4    0  0.1495377E-001  0.2435697E+03  0.7546771E-02  0.1117437E+00
         21   -1    0    0  502  501  0.00000000000E+00  0.00000000000E+00  0.69818023223E+03  0.69818023223E+03  0.00000000000E+00 0. -1.
         21   -1    0    0  503  502 -0.00000000000E+00 -0.00000000000E+00 -0.32034149137E+03  0.32034149137E+03  0.00000000000E+00 0.  1.
         25    1    1    2    0    0  0.61028778230E+02 -0.19994169603E+03 -0.25464973870E+03  0.35238144531E+03  0.12500000000E+03 0.  0.
         21    1    1    2  503  501 -0.61028778230E+02  0.19994169603E+03  0.63248847956E+03  0.66614027829E+03  0.00000000000E+00 0. -1.
<mgrwt>
<rscale>  3 0.24356969E+03</rscale>
<asrwt>0</asrwt>
<pdfrwt beam="1">  1       21 0.10741234E+00 0.24356969E+03</pdfrwt>
<pdfrwt beam="2">  1       21 0.49283307E-01 0.24356969E+03</pdfrwt>
<totfact> 0.26076534E+03</totfact>
</mgrwt>
</event>
<event>
 4    0  0.1495377E-001  0.2814405E+03  0.7546771E-02  0.1094905E+00
         21   -1    0    0  503  501  0.00000000000E+00  0.00000000000E+00  0.29305120268E+03  0.29305120268E+03  0.00000000000E+00 0. -1.
         21   -1    0    0  501  502 -0.00000000000E+00 -0.00000000000E+00 -0.50731567490E+03  0.50731567490E+03  0.00000000000E+00 0. -1.
         25    1    1    2    0    0  0.23533741671E+03  0.90554150775E+02 -0.39864986592E+03  0.48798613661E+03  0.12500000000E+03 0.  0.
         21    1    1    2  503  502 -0.23533741671E+03 -0.90554150775E+02  0.18438539369E+03  0.31238074097E+03  0.00000000000E+00 0. -1.
<mgrwt>
<rscale>  3 0.28144050E+03</rscale>
<asrwt>0</asrwt>
<pdfrwt beam="1">  1       21 0.45084801E-01 0.28144050E+03</pdfrwt>
<pdfrwt beam="2">  1       21 0.78048564E-01 0.28144050E+03</pdfrwt>
<totfact> 0.64893448E+03</totfact>
</mgrwt>
</event>
<event>
 4    0  0.1495377E-001  0.2556504E+03  0.7546771E-02  0.1109785E+00
         21   -1    0    0  503  501  0.00000000000E+00  0.00000000000E+00  0.47809138961E+03  0.47809138961E+03  0.00000000000E+00 0. -1.
         21   -1    0    0  501  502 -0.00000000000E+00 -0.00000000000E+00 -0.15421275204E+03  0.15421275204E+03  0.00000000000E+00 0. -1.
         25    1    1    2    0    0  0.12642976928E+03  0.18370536618E+03  0.21455717975E+02  0.25654920767E+03  0.12500000000E+03 0.  0.
         21    1    1    2  503  502 -0.12642976928E+03 -0.18370536618E+03  0.30242291959E+03  0.37575493399E+03  0.00000000000E+00 0. -1.
<mgrwt>
<rscale>  3 0.25565044E+03</rscale>
<asrwt>0</asrwt>
<pdfrwt beam="1">  1       21 0.73552521E-01 0.25565044E+03</pdfrwt>
<pdfrwt beam="2">  1       21 0.23725039E-01 0.25565044E+03</pdfrwt>
<totfact> 0.26905097E+04</totfact>
</mgrwt>
</event>
<event>
 4    0  0.1495377E-001  0.2361664E+03  0.7546771E-02  0.1122373E+00
         21   -1    0    0  503  501  0.00000000000E+00  0.00000000000E+00  0.87809109986E+03  0.87809109986E+03  0.00000000000E+00 0.  1.
         21   -1    0    0  501  502 -0.00000000000E+00 -0.00000000000E+00 -0.21571190155E+03  0.21571190155E+03  0.00000000000E+00 0.  1.
         25    1    1    2    0    0  0.65489863507E-01  0.20037360044E+03 -0.13473021173E+03  0.27189485835E+03  0.12500000000E+03 0.  0.
         21    1    1    2  503  502 -0.65489863507E-01 -0.20037360044E+03  0.79710941004E+03  0.82190814306E+03  0.00000000000E+00 0.  1.
<mgrwt>
<rscale>  3 0.23616643E+03</rscale>
<asrwt>0</asrwt>
<pdfrwt beam="1">  1       21 0.13509094E+00 0.23616643E+03</pdfrwt>
<pdfrwt beam="2">  1       21 0.33186447E-01 0.23616643E+03</pdfrwt>
<totfact> 0.33096202E+03</totfact>
</mgrwt>
</event>
<event>
 4    0  0.1495377E-001  0.2404844E+03  0.7546771E-02  0.1119471E+00
         21   -1    0    0  503  501  0.00000000000E+00  0.00000000000E+00  0.55405019894E+02  0.55405019894E+02  0.00000000000E+00 0.  1.
         21   -1    0    0  501  502 -0.00000000000E+00 -0.00000000000E+00 -0.10591249910E+04  0.10591249910E+04  0.00000000000E+00 0.  1.
         25    1    1    2    0    0  0.16291157958E+03  0.12517013128E+03 -0.75254342962E+03  0.79003440304E+03  0.12500000000E+03 0.  0.
         21    1    1    2  503  502 -0.16291157958E+03 -0.12517013128E+03 -0.25117654152E+03  0.32449560789E+03  0.00000000000E+00 0.  1.
<mgrwt>
<rscale>  3 0.24048440E+03</rscale>
<asrwt>0</asrwt>
<pdfrwt beam="1">  1       21 0.85238499E-02 0.24048440E+03</pdfrwt>
<pdfrwt beam="2">  1       21 0.16294229E+00 0.24048440E+03</pdfrwt>
<totfact> 0.24989354E+04</totfact>
</mgrwt>
</event>
<event>
 4    0  0.1495377E-001  0.2854456E+03  0.7546771E-02  0.1092751E+00
         21   -1    0    0  503  501  0.00000000000E+00  0.00000000000E+00  0.98067360401E+02  0.98067360401E+02  0.00000000000E+00 0.  1.
         21   -1    0    0  501  502 -0.00000000000E+00 -0.00000000000E+00 -0.94899867071E+03  0.94899867071E+03  0.00000000000E+00 0.  1.
         25    1    1    2    0    0  0.22457882236E+03  0.12417143100E+03 -0.68335477106E+03  0.74057608310E+03  0.12500000000E+03 0.  0.
         21    1    1    2  503  502 -0.22457882236E+03 -0.12417143100E+03 -0.16757653925E+03  0.30648994801E+03  0.00000000000E+00 0.  1.
<mgrwt>
<rscale>  3 0.28544560E+03</rscale>
<asrwt>0</asrwt>
<pdfrwt beam="1">  1       21 0.15087286E-01 0.28544560E+03</pdfrwt>
<pdfrwt beam="2">  1       21 0.14599980E+00 0.28544560E+03</pdfrwt>
<totfact> 0.11763111E+04</totfact>
</mgrwt>
</event>
<event>
 4    0  0.1495377E-001  0.2458161E+03  0.7546771E-02  0.1115978E+00
         21   -1    0    0  503  501  0.00000000000E+00  0.00000000000E+00  0.16712089600E+03  0.16712089600E+03  0.00000000000E+00 0. -1.
         21   -1    0    0  501  502 -0.00000000000E+00 -0.00000000000E+00 -0.32612997239E+03  0.32612997239E+03  0.00000000000E+00 0. -1.
         25    1    1    2    0    0  0.13286016210E+03 -0.16476879802E+03 -0.13441322974E+03  0.28016512239E+03  0.12500000000E+03 0.  0.
         21    1    1    2  503  502 -0.13286016210E+03  0.16476879802E+03 -0.24595846650E+02  0.21308574600E+03  0.00000000000E+00 0. -1.
<mgrwt>
<rscale>  3 0.24581615E+03</rscale>
<asrwt>0</asrwt>
<pdfrwt beam="1">  1       21 0.25710907E-01 0.24581615E+03</pdfrwt>
<pdfrwt beam="2">  1       21 0.50173842E-01 0.24581615E+03</pdfrwt>
<totfact> 0.53045581E+04</totfact>
</mgrwt>
</event>
<event>
 4    0  0.1495377E-001  0.3093775E+03  0.7546771E-02  0.1080645E+00
         21   -1    0    0  502  501  0.00000000000E+00  0.00000000000E+00  0.72835093439E+03  0.72835093439E+03  0.00000000000E+00 0. -1.
         21   -1    0    0  503  502 -0.00000000000E+00 -0.00000000000E+00 -0.22072037319E+03  0.22072037319E+03  0.00000000000E+00 0.  1.
         25    1    1    2    0    0 -0.12288197828E+03  0.25493023872E+03 -0.59689370759E+02  0.31508289097E+03  0.12500000000E+03 0.  0.
         21    1    1    2  503  501  0.12288197828E+03 -0.25493023872E+03  0.56731993196E+03  0.63398841661E+03  0.00000000000E+00 0. -1.
<mgrwt>
<rscale>  3 0.30937745E+03</rscale>
<asrwt>0</asrwt>
<pdfrwt beam="1">  1       21 0.11205399E+00 0.30937745E+03</pdfrwt>
<pdfrwt beam="2">  1       21 0.33956981E-01 0.30937745E+03</pdfrwt>
<totfact> 0.48410674E+03</totfact>
</mgrwt>
</event>
<event>
 4    0  0.1495377E-001  0.2709549E+03  0.7546771E-02  0.1100734E+00
         21   -1    0    0  503  501  0.00000000000E+00  0.00000000000E+00  0.11939513945E+04  0.11939513945E+04  0.00000000000E+00 0. -1.
         21   -1    0    0  501  502 -0.00000000000E+00 -0.00000000000E+00 -0.59355494925E+02  0.59355494925E+02  0.00000000000E+00 0. -1.
         25    1    1    2    0    0  0.59850732316E+02 -0.23282924709E+03  0.42432790371E+03  0.50345877520E+03  0.12500000000E+03 0.  0.
         21    1    1    2  503  502 -0.59850732316E+02  0.23282924709E+03  0.71026799583E+03  0.74984811419E+03  0.00000000000E+00 0. -1.
<mgrwt>
<rscale>  3 0.27095492E+03</rscale>
<asrwt>0</asrwt>
<pdfrwt beam="1">  1       21 0.18368481E+00 0.27095492E+03</pdfrwt>
<pdfrwt beam="2">  1       21 0.91316155E-02 0.27095492E+03</pdfrwt>
<totfact> 0.15542172E+04</totfact>
</mgrwt>
</event>
<event>
 4    0  0.1495377E-001  0.2997121E+03  0.7546771E-02  0.1085385E+00
         21   -1    0    0  502  501  0.00000000000E+00  0.00000000000E+00  0.46369475095E+03  0.46369475095E+03  0.00000000000E+00 0. -1.
         21   -1    0    0  503  502 -0.00000000000E+00 -0.00000000000E+00 -0.23203827140E+03  0.23203827140E+03  0.00000000000E+00 0.  1.
         25    1    1    2    0    0  0.17326252496E+03  0.21019613644E+03 -0.50052561438E+02  0.30386276053E+03  0.12500000000E+03 0.  0.
         21    1    1    2  503  501 -0.17326252496E+03 -0.21019613644E+03  0.28170904098E+03  0.39187026182E+03  0.00000000000E+00 0. -1.
<mgrwt>
<rscale>  3 0.29971206E+03</rscale>
<asrwt>0</asrwt>
<pdfrwt beam="1">  1       21 0.71337654E-01 0.29971206E+03</pdfrwt>
<pdfrwt beam="2">  1       21 0.35698196E-01 0.29971206E+03</pdfrwt>
<totfact> 0.12689133E+04</totfact>
</mgrwt>
</event>
<event>
 4    0  0.1495377E-001  0.2536514E+03  0.7546771E-02  0.1111019E+00
         21   -1    0    0  502  501  0.00000000000E+00  0.00000000000E+00  0.12168802462E+03  0.12168802462E+03  0.00000000000E+00 0. -1.
         21   -1    0    0  503  502 -0.00000000000E+00 -0.00000000000E+00 -0.67434288429E+03  0.67434288429E+03  0.00000000000E+00 0. -1.
         25    1    1    2    0    0 -0.24594672153E+02  0.21933789539E+03 -0.51230524351E+03  0.57166045235E+03  0.12500000000E+03 0.  0.
         21    1    1    2  503  501  0.24594672153E+02 -0.21933789539E+03 -0.40349616166E+02  0.22437045656E+03  0.00000000000E+00 0. -1.
<mgrwt>
<rscale>  3 0.25365136E+03</rscale>
<asrwt>0</asrwt>
<pdfrwt beam="1">  1       21 0.18721235E-01 0.25365136E+03</pdfrwt>
<pdfrwt beam="2">  1       21 0.10374506E+00 0.25365136E+03</pdfrwt>
<totfact> 0.18962961E+04</totfact>
</mgrwt>
</event>
<event>
 4    0  0.1495377E-001  0.3044748E+03  0.7546771E-02  0.1083025E+00
         21   -1    0    0  503  501  0.00000000000E+00  0.00000000000E+00  0.11104602455E+03  0.11104602455E+03  0.00000000000E+00 0.  1.
         21   -1    0    0  501  502 -0.00000000000E+00 -0.00000000000E+00 -0.76612544369E+03  0.76612544369E+03  0.00000000000E+00 0.  1.
         25    1    1    2    0    0 -0.15084826852E+03 -0.23307657402E+03 -0.37119409107E+03  0.48009368119E+03  0.12500000000E+03 0.  0.
         21    1    1    2  503  502  0.15084826852E+03  0.23307657402E+03 -0.28388532807E+03  0.39707778705E+03  0.00000000000E+00 0.  1.
<mgrwt>
<rscale>  3 0.30447478E+03</rscale>
<asrwt>0</asrwt>
<pdfrwt beam="1">  1       21 0.17084003E-01 0.30447478E+03</pdfrwt>
<pdfrwt beam="2">  1       21 0.11786546E+00 0.30447478E+03</pdfrwt>
<totfact> 0.16069931E+04</totfact>
</mgrwt>
</event>
<event>
 4    0  0.1495377E-001  0.2520849E+03  0.7546771E-02  0.1111994E+00
         21   -1    0    0  502  501  0.00000000000E+00  0.00000000000E+00  0.14100718161E+03  0.14100718161E+03  0.00000000000E+00 0.  1.
         21   -1    0    0  503  502 -0.00000000000E+00 -0.00000000000E+00 -0.62997684918E+03  0.62997684918E+03  0.00000000000E+00 0.  1.
         25    1    1    2    0    0 -0.29222333112E+02  0.21695131945E+03 -0.49114800721E+03  0.55206266379E+03  0.12500000000E+03 0.  0.
         21    1    1    2  503  501  0.29222333112E+02 -0.21695131945E+03  0.21783396408E+01  0.21892136700E+03  0.00000000000E+00 0.  1.
<mgrwt>
<rscale>  3 0.25208495E+03</rscale>
<asrwt>0</asrwt>
<pdfrwt beam="1">  1       21 0.21693413E-01 0.25208495E+03</pdfrwt>
<pdfrwt beam="2">  1       21 0.96919514E-01 0.25208495E+03</pdfrwt>
<totfact> 0.16928086E+04</totfact>
</mgrwt>
</event>
<event>
 4    0  0.1495377E-001  0.2703883E+03  0.7546771E-02  0.1101058E+00
         21   -1    0    0  503  501  0.00000000000E+00  0.00000000000E+00  0.14604825711E+03  0.14604825711E+03  0.00000000000E+00 0. -1.
         21   -1    0    0  501  502 -0.00000000000E+00 -0.00000000000E+00 -0.57947997165E+03  0.57947997165E+03  0.00000000000E+00 0. -1.
         25    1    1    2    0    0  0.23179562839E+03  0.61282926868E+02 -0.40091584757E+03  0.48357349731E+03  0.12500000000E+03 0.  0.
         21    1    1    2  503  502 -0.23179562839E+03 -0.61282926868E+02 -0.32515866975E+02  0.24195473145E+03  0.00000000000E+00 0. -1.
<mgrwt>
<rscale>  3 0.27038826E+03</rscale>
<asrwt>0</asrwt>
<pdfrwt beam="1">  1       21 0.22468962E-01 0.27038826E+03</pdfrwt>
<pdfrwt beam="2">  1       21 0.89150766E-01 0.27038826E+03</pdfrwt>
<totfact> 0.19103202E+04</totfact>
</mgrwt>
</event>
<event>
 4    0  0.1495377E-001  0.3346411E+03  0.7546771E-02  0.1069102E+00
         21   -1    0    0  502  501  0.00000000000E+00  0.00000000000E+00  0.29163201096E+03  0.29163201096E+03  0.00000000000E+00 0. -1.
         21   -1    0    0  503  502 -0.00000000000E+00 -0.00000000000E+00 -0.67786996859E+03  0.67786996859E+03  0.00000000000E+00 0. -1.
         25    1    1    2    0    0  0.27983039218E+03  0.13436758144E+03 -0.53047723912E+03  0.62720873443E+03  0.12500000000E+03 0.  0.
         21    1    1    2  503  501 -0.27983039218E+03 -0.13436758144E+03  0.14423928149E+03  0.34229324512E+03  0.00000000000E+00 0. -1.
<mgrwt>
<rscale>  3 0.33464114E+03</rscale>
<asrwt>0</asrwt>
<pdfrwt beam="1">  1       21 0.44866464E-01 0.33464114E+03</pdfrwt>
<pdfrwt beam="2">  1       21 0.10428769E+00 0.33464114E+03</pdfrwt>
<totfact> 0.32302151E+03</totfact>
</mgrwt>
</event>
<event>
 4    0  0.1495377E-001  0.3336943E+03  0.7546771E-02  0.1069514E+00
         21   -1    0    0  503  501  0.00000000000E+00  0.00000000000E+00  0.65120925859E+03  0.65120925859E+03  0.00000000000E+00 0.  1.
         21   -1    0    0  501  502 -0.00000000000E+00 -0.00000000000E+00 -0.44354326119E+03  0.44354326119E+03  0.00000000000E+00 0.  1.
         25    1    1    2    0    0 -0.28225917784E+03 -0.12671470962E+03 -0.33325048122E+03  0.47160125567E+03  0.12500000000E+03 0.  0.
         21    1    1    2  503  502  0.28225917784E+03  0.12671470962E+03  0.54091647863E+03  0.62315126411E+03  0.00000000000E+00 0.  1.
<mgrwt>
<rscale>  3 0.33369426E+03</rscale>
<asrwt>0</asrwt>
<pdfrwt beam="1">  1       21 0.10018604E+00 0.33369426E+03</pdfrwt>
<pdfrwt beam="2">  1       21 0.68237425E-01 0.33369426E+03</pdfrwt>
<totfact> 0.14468016E+03</totfact>
</mgrwt>
</event>
<event>
 4    0  0.1495377E-001  0.3589760E+03  0.7546771E-02  0.1058990E+00
         21   -1    0    0  503  501  0.00000000000E+00  0.00000000000E+00  0.94521432024E+03  0.94521432024E+03  0.00000000000E+00 0. -1.
         21   -1    0    0  501  502 -0.00000000000E+00 -0.00000000000E+00 -0.15734828931E+03  0.15734828931E+03  0.00000000000E+00 0. -1.
         25    1    1    2    0    0  0.17169253615E+03 -0.28941391171E+03  0.16602715272E+03  0.39551075169E+03  0.12500000000E+03 0.  0.
         21    1    1    2  503  502 -0.17169253615E+03  0.28941391171E+03  0.62183887821E+03  0.70705185787E+03  0.00000000000E+00 0. -1.
<mgrwt>
<rscale>  3 0.35897596E+03</rscale>
<asrwt>0</asrwt>
<pdfrwt beam="1">  1       21 0.14541758E+00 0.35897596E+03</pdfrwt>
<pdfrwt beam="2">  1       21 0.24207430E-01 0.35897596E+03</pdfrwt>
<totfact> 0.47140399E+03</totfact>
</mgrwt>
</event>
<event>
 4    0  0.1495377E-001  0.2767317E+03  0.7546771E-02  0.1097488E+00
         21   -1    0    0  502  501  0.00000000000E+00  0.00000000000E+00  0.72025105906E+03  0.72025105906E+03  0.00000000000E+00 0. -1.
         21   -1    0    0  503  502 -0.00000000000E+00 -0.00000000000E+00 -0.68374989144E+03  0.68374989144E+03  0.00000000000E+00 0. -1.
         25    1    1    2    0    0  0.16884572394E+03  0.18012928511E+03 -0.63277377410E+03  0.69063962168E+03  0.12500000000E+03 0.  0.
         21    1    1    2  503  501 -0.16884572394E+03 -0.18012928511E+03  0.66927494172E+03  0.71336132882E+03  0.00000000000E+00 0. -1.
<mgrwt>
<rscale>  3 0.27673171E+03</rscale>
<asrwt>0</asrwt>
<pdfrwt beam="1">  1       21 0.11080786E+00 0.27673171E+03</pdfrwt>
<pdfrwt beam="2">  1       21 0.10519229E+00 0.27673171E+03</pdfrwt>
<totfact> 0.43077032E+02</totfact>
</mgrwt>
</event>
<event>
 4    0  0.1495377E-001  0.2545703E+03  0.7546771E-02  0.1110450E+00
         21   -1    0    0  503  501  0.00000000000E+00  0.00000000000E+00  0.73911853742E+03  0.73911853742E+03  0.00000000000E+00 0. -1.
         21   -1    0    0  501  502 -0.00000000000E+00 -0.00000000000E+00 -0.26105413331E+03  0.26105413331E+03  0.00000000000E+00 0.  1.
         25    1    1    2    0    0  0.19721046858E+03  0.10143498004E+03 -0.17603143940E+03  0.30950459084E+03  0.12500000000E+03 0.  0.
         21    1    1    2  503  502 -0.19721046858E+03 -0.10143498004E+03  0.65409584350E+03  0.69066807989E+03  0.00000000000E+00 0. -1.
<mgrwt>
<rscale>  3 0.25457027E+03</rscale>
<asrwt>0</asrwt>
<pdfrwt beam="1">  1       21 0.11371054E+00 0.25457027E+03</pdfrwt>
<pdfrwt beam="2">  1       21 0.40162175E-01 0.25457027E+03</pdfrwt>
<totfact> 0.34355773E+03</totfact>
</mgrwt>
</event>
<event>
 4    0  0.1495377E-001  0.2971229E+03  0.7546771E-02  0.1086688E+00
         21   -1    0    0  503  501  0.00000000000E+00  0.00000000000E+00  0.10504576589E+04  0.10504576589E+04  0.00000000000E+00 0.  1.
         21   -1    0    0  501  502 -0.00000000000E+00 -0.00000000000E+00 -0.73365626186E+03  0.73365626186E+03  0.00000000000E+00 0. -1.
         25    1    1    2    0    0 -0.15018125783E+03  0.22383618238E+03 -0.68501007547E+03  0.74667318838E+03  0.12500000000E+03 0.  0.
         21    1    1    2  503  502  0.15018125783E+03 -0.22383618238E+03  0.10018114725E+04  0.10374407324E+04  0.00000000000E+00 0.  1.
<mgrwt>
<rscale>  3 0.29712295E+03</rscale>
<asrwt>0</asrwt>
<pdfrwt beam="1">  1       21 0.16160887E+00 0.29712295E+03</pdfrwt>
<pdfrwt beam="2">  1       21 0.11287019E+00 0.29712295E+03</pdfrwt>
<totfact> 0.13430852E+02</totfact>
</mgrwt>
</event>
<event>
 4    0  0.1495377E-001  0.3012678E+03  0.7546771E-02  0.1084609E+00
         21   -1    0    0  503  501  0.00000000000E+00  0.00000000000E+00  0.97139562434E+03  0.97139562434E+03  0.00000000000E+00 0.  1.
         21   -1    0    0  501  502 -0.00000000000E+00 -0.00000000000E+00 -0.89430965801E+02  0.89430965801E+02  0.00000000000E+00 0.  1.
         25    1    1    2    0    0  0.17227417719E+03 -0.21321095134E+03  0.34559987912E+03  0.45847745675E+03  0.12500000000E+03 0.  0.
         21    1    1    2  503  502 -0.17227417719E+03  0.21321095134E+03  0.53636477942E+03  0.60234913339E+03  0.00000000000E+00 0.  1.
<mgrwt>
<rscale>  3 0.30126782E+03</rscale>
<asrwt>0</asrwt>
<pdfrwt beam="1">  1       21 0.14944547E+00 0.30126782E+03</pdfrwt>
<pdfrwt beam="2">  1       21 0.13758611E-01 0.30126782E+03</pdfrwt>
<totfact> 0.12988974E+04</totfact>
</mgrwt>
</event>
<event>
 4    0  0.1495377E-001  0.2421203E+03  0.7546771E-02  0.1118388E+00
         21   -1    0    0  502  501  0.00000000000E+00  0.00000000000E+00  0.70538425987E+03  0.70538425987E+03  0.00000000000E+00 0.  1.
         21   -1    0    0  503  502 -0.00000000000E+00 -0.00000000000E+00 -0.84331548993E+02  0.84331548993E+02  0.00000000000E+00 0.  1.
         25    1    1    2    0    0  0.12350779174E+03  0.16656248201E+03  0.48393102904E+03  0.54112057427E+03  0.12500000000E+03 0.  0.
         21    1    1    2  503  501 -0.12350779174E+03 -0.16656248201E+03  0.13712168184E+03  0.24859523460E+03  0.00000000000E+00 0.  1.
<mgrwt>
<rscale>  3 0.24212029E+03</rscale>
<asrwt>0</asrwt>
<pdfrwt beam="1">  1       21 0.10852065E+00 0.24212029E+03</pdfrwt>
<pdfrwt beam="2">  1       21 0.12974085E-01 0.24212029E+03</pdfrwt>
<totfact> 0.33543787E+04</totfact>
</mgrwt>
</event>
<event>
 4    0  0.1495377E-001  0.3496553E+03  0.7546771E-02  0.1062757E+00
         21   -1    0    0  503  501  0.00000000000E+00  0.00000000000E+00  0.61227910534E+03  0.61227910534E+03  0.00000000000E+00 0.  1.
         21   -1    0    0  501  502 -0.00000000000E+00 -0.00000000000E+00 -0.41271969676E+03  0.41271969676E+03  0.00000000000E+00 0.  1.
         25    1    1    2    0    0 -0.41386905850E+01  0.32652215358E+03 -0.27783885840E+03  0.44660192205E+03  0.12500000000E+03 0.  0.
         21    1    1    2  503  502  0.41386905850E+01 -0.32652215358E+03  0.47739826698E+03  0.57839688005E+03  0.00000000000E+00 0.  1.
<mgrwt>
<rscale>  3 0.34965532E+03</rscale>
<asrwt>0</asrwt>
<pdfrwt beam="1">  1       21 0.94196786E-01 0.34965532E+03</pdfrwt>
<pdfrwt beam="2">  1       21 0.63495338E-01 0.34965532E+03</pdfrwt>
<totfact> 0.19501174E+03</totfact>
</mgrwt>
</event>
<event>
 4    0  0.1495377E-001  0.2591569E+03  0.7546771E-02  0.1107651E+00
         21   -1    0    0  502  501  0.00000000000E+00  0.00000000000E+00  0.46771439794E+02  0.46771439794E+02  0.00000000000E+00 0. -1.
         21   -1    0    0  503  502 -0.00000000000E+00 -0.00000000000E+00 -0.13152833628E+04  0.13152833628E+04  0.00000000000E+00 0. -1.
         25    1    1    2    0    0  0.72084648846E+02  0.21526982499E+03 -0.80949077499E+03  0.84996329859E+03  0.12500000000E+03 0.  0.
         21    1    1    2  503  501 -0.72084648846E+02 -0.21526982499E+03 -0.45902114804E+03  0.51209150403E+03  0.00000000000E+00 0. -1.
<mgrwt>
<rscale>  3 0.25915689E+03</rscale>
<asrwt>0</asrwt>
<pdfrwt beam="1">  1       21 0.71956049E-02 0.25915689E+03</pdfrwt>
<pdfrwt beam="2">  1       21 0.20235132E+00 0.25915689E+03</pdfrwt>
<totfact> 0.17869732E+04</totfact>
</mgrwt>
</event>
<event>
 4    0  0.1495377E-001  0.2612738E+03  0.7546771E-02  0.1106380E+00
         21   -1    0    0  502  501  0.00000000000E+00  0.00000000000E+00  0.32876126695E+03  0.32876126695E+03  0.00000000000E+00 0.  1.
         21   -1    0    0  503  502 -0.00000000000E+00 -0.00000000000E+00 -0.52995094102E+03  0.52995094102E+03  0.00000000000E+00 0.  1.
         25    1    1    2    0    0  0.21670785971E+03 -0.75343738498E+02 -0.44994784581E+03  0.52030475622E+03  0.12500000000E+03 0.  0.
         21    1    1    2  503  501 -0.21670785971E+03  0.75343738498E+02  0.24875817174E+03  0.33840745175E+03  0.00000000000E+00 0.  1.
<mgrwt>
<rscale>  3 0.26127376E+03</rscale>
<asrwt>0</asrwt>
<pdfrwt beam="1">  1       21 0.50578657E-01 0.26127376E+03</pdfrwt>
<pdfrwt beam="2">  1       21 0.81530913E-01 0.26127376E+03</pdfrwt>
<totfact> 0.46730950E+03</totfact>
</mgrwt>
</event>
<event>
 4    0  0.1495377E-001  0.3534244E+03  0.7546771E-02  0.1061218E+00
         21   -1    0    0  503  501  0.00000000000E+00  0.00000000000E+00  0.21297388966E+03  0.21297388966E+03  0.00000000000E+00 0.  1.
         21   -1    0    0  501  502 -0.00000000000E+00 -0.00000000000E+00 -0.64272960447E+03  0.64272960447E+03  0.00000000000E+00 0.  1.
         25    1    1    2    0    0  0.25031749707E+02  0.32963199298E+03 -0.57877523604E+02  0.35813216419E+03  0.12500000000E+03 0.  0.
         21    1    1    2  503  502 -0.25031749707E+02 -0.32963199298E+03 -0.37187819121E+03  0.49757132995E+03  0.00000000000E+00 0.  1.
<mgrwt>
<rscale>  3 0.35342445E+03</rscale>
<asrwt>0</asrwt>
<pdfrwt beam="1">  1       21 0.32765214E-01 0.35342445E+03</pdfrwt>
<pdfrwt beam="2">  1       21 0.98881476E-01 0.35342445E+03</pdfrwt>
<totfact> 0.69133749E+03</totfact>
</mgrwt>
</event>
<event>
 4    0  0.1495377E-001  0.2763157E+03  0.7546771E-02  0.1097718E+00
         21   -1    0    0  503  501  0.00000000000E+00  0.00000000000E+00  0.40883070229E+03  0.40883070229E+03  0.00000000000E+00 0.  1.
         21   -1    0    0  501  502 -0.00000000000E+00 -0.00000000000E+00 -0.17749058174E+03  0.17749058174E+03  0.00000000000E+00 0. -1.
         25    1    1    2    0    0 -0.20140696166E+03 -0.14198800476E+03  0.51065488086E+02  0.28099473621E+03  0.12500000000E+03 0.  0.
         21    1    1    2  503  502  0.20140696166E+03  0.14198800476E+03  0.18027463246E+03  0.30532654783E+03  0.00000000000E+00 0.  1.
<mgrwt>
<rscale>  3 0.27631568E+03</rscale>
<asrwt>0</asrwt>
<pdfrwt beam="1">  1       21 0.62897031E-01 0.27631568E+03</pdfrwt>
<pdfrwt beam="2">  1       21 0.27306244E-01 0.27631568E+03</pdfrwt>
<totfact> 0.28753600E+04</totfact>
</mgrwt>
</event>
<event>
 4    0  0.1495377E-001  0.2733053E+03  0.7546771E-02  0.1099403E+00
         21   -1    0    0  503  501  0.00000000000E+00  0.00000000000E+00  0.51655162805E+03  0.51655162805E+03  0.00000000000E+00 0. -1.
         21   -1    0    0  501  502 -0.00000000000E+00 -0.00000000000E+00 -0.17974634664E+03  0.17974634664E+03  0.00000000000E+00 0. -1.
         25    1    1    2    0    0 -0.22556584879E+03  0.90503360266E+02 -0.92018958871E+01  0.27346020780E+03  0.12500000000E+03 0.  0.
         21    1    1    2  503  502  0.22556584879E+03 -0.90503360266E+02  0.34600717731E+03  0.42283776689E+03  0.00000000000E+00 0. -1.
<mgrwt>
<rscale>  3 0.27330534E+03</rscale>
<asrwt>0</asrwt>
<pdfrwt beam="1">  1       21 0.79469481E-01 0.27330534E+03</pdfrwt>
<pdfrwt beam="2">  1       21 0.27653284E-01 0.27330534E+03</pdfrwt>
<totfact> 0.16675766E+04</totfact>
</mgrwt>
</event>
<event>
 4    0  0.1495377E-001  0.3525917E+03  0.7546771E-02  0.1061556E+00
         21   -1    0    0  503  501  0.00000000000E+00  0.00000000000E+00  0.16034302202E+04  0.16034302202E+04  0.00000000000E+00 0. -1.
         21   -1    0    0  501  502 -0.00000000000E+00 -0.00000000000E+00 -0.74970220889E+02  0.74970220889E+02  0.00000000000E+00 0. -1.
         25    1    1    2    0    0  0.29200720341E+03  0.15306099924E+03  0.63930715013E+03  0.73009212332E+03  0.12500000000E+03 0.  0.
         21    1    1    2  503  502 -0.29200720341E+03 -0.15306099924E+03  0.88915284921E+03  0.94830831780E+03  0.00000000000E+00 0. -1.
<mgrwt>
<rscale>  3 0.35259166E+03</rscale>
<asrwt>0</asrwt>
<pdfrwt beam="1">  1       21 0.24668155E+00 0.35259166E+03</pdfrwt>
<pdfrwt beam="2">  1       21 0.11533881E-01 0.35259166E+03</pdfrwt>
<totfact> 0.38731902E+03</totfact>
</mgrwt>
</event>
<event>
 4    0  0.1495377E-001  0.2603016E+03  0.7546771E-02  0.1106962E+00
         21   -1    0    0  503  501  0.00000000000E+00  0.00000000000E+00  0.18742780777E+03  0.18742780777E+03  0.00000000000E+00 0.  1.
         21   -1    0    0  501  502 -0.00000000000E+00 -0.00000000000E+00 -0.33736184061E+03  0.33736184061E+03  0.00000000000E+00 0.  1.
         25    1    1    2    0    0 -0.20716268157E+03  0.95997573587E+02 -0.14157781580E+03  0.29631265362E+03  0.12500000000E+03 0.  0.
         21    1    1    2  503  502  0.20716268157E+03 -0.95997573587E+02 -0.83562170361E+01  0.22847699475E+03  0.00000000000E+00 0.  1.
<mgrwt>
<rscale>  3 0.26030158E+03</rscale>
<asrwt>0</asrwt>
<pdfrwt beam="1">  1       21 0.28835048E-01 0.26030158E+03</pdfrwt>
<pdfrwt beam="2">  1       21 0.51901821E-01 0.26030158E+03</pdfrwt>
<totfact> 0.39316276E+04</totfact>
</mgrwt>
</event>
<event>
 4    0  0.1495377E-001  0.3024375E+03  0.7546771E-02  0.1084028E+00
         21   -1    0    0  503  501  0.00000000000E+00  0.00000000000E+00  0.47055699973E+03  0.47055699973E+03  0.00000000000E+00 0.  1.
         21   -1    0    0  501  502 -0.00000000000E+00 -0.00000000000E+00 -0.39696770412E+03  0.39696770412E+03  0.00000000000E+00 0.  1.
         25    1    1    2    0    0  0.27143204619E+03  0.46562836773E+02 -0.28487937237E+03  0.41548129954E+03  0.12500000000E+03 0.  0.
         21    1    1    2  503  502 -0.27143204619E+03 -0.46562836773E+02  0.35846866798E+03  0.45204340432E+03  0.00000000000E+00 0.  1.
<mgrwt>
<rscale>  3 0.30243752E+03</rscale>
<asrwt>0</asrwt>
<pdfrwt beam="1">  1       21 0.72393384E-01 0.30243752E+03</pdfrwt>
<pdfrwt beam="2">  1       21 0.61071955E-01 0.30243752E+03</pdfrwt>
<totfact> 0.39937602E+03</totfact>
</mgrwt>
</event>
<event>
 4    0  0.1495377E-001  0.3200668E+03  0.7546771E-02  0.1075619E+00
         21   -1    0    0  502  501  0.00000000000E+00  0.00000000000E+00  0.95023154572E+03  0.95023154572E+03  0.00000000000E+00 0.  1.
         21   -1    0    0  503  502 -0.00000000000E+00 -0.00000000000E+00 -0.12904746397E+03  0.12904746397E+03  0.00000000000E+00 0.  1.
         25    1    1    2    0    0 -0.31489996122E+02 -0.29296099255E+03  0.16525798695E+03  0.36021238910E+03  0.12500000000E+03 0.  0.
         21    1    1    2  503  501  0.31489996122E+02  0.29296099255E+03  0.65592609480E+03  0.71906662059E+03  0.00000000000E+00 0.  1.
<mgrwt>
<rscale>  3 0.32006681E+03</rscale>
<asrwt>0</asrwt>
<pdfrwt beam="1">  1       21 0.14618946E+00 0.32006681E+03</pdfrwt>
<pdfrwt beam="2">  1       21 0.19853457E-01 0.32006681E+03</pdfrwt>
<totfact> 0.69113139E+03</totfact>
</mgrwt>
</event>
<event>
 4    0  0.1495377E-001  0.2604109E+03  0.7546771E-02  0.1106897E+00
         21   -1    0    0  502  501  0.00000000000E+00  0.00000000000E+00  0.47871256270E+03  0.47871256270E+03  0.00000000000E+00 0.  1.
         21   -1    0    0  503  502 -0.00000000000E+00 -0.00000000000E+00 -0.12838644510E+03  0.12838644510E+03  0.00000000000E+00 0.  1.
         25    1    1    2    0    0  0.21871969891E+03  0.65958572178E+02  0.13570575375E+03  0.29364926619E+03  0.12500000000E+03 0.  0.
         21    1    1    2  503  501 -0.21871969891E+03 -0.65958572178E+02  0.21462036385E+03  0.31344974160E+03  0.00000000000E+00 0.  1.
<mgrwt>
<rscale>  3 0.26041091E+03</rscale>
<asrwt>0</asrwt>
<pdfrwt beam="1">  1       21 0.73648085E-01 0.26041091E+03</pdfrwt>
<pdfrwt beam="2">  1       21 0.19751761E-01 0.26041091E+03</pdfrwt>
<totfact> 0.37890738E+04</totfact>
</mgrwt>
</event>
<event>
 4    0  0.1495377E-001  0.3254064E+03  0.7546771E-02  0.1073188E+00
         21   -1    0    0  503  501  0.00000000000E+00  0.00000000000E+00  0.14611694322E+03  0.14611694322E+03  0.00000000000E+00 0. -1.
         21   -1    0    0  501  502 -0.00000000000E+00 -0.00000000000E+00 -0.67953433620E+03  0.67953433620E+03  0.00000000000E+00 0. -1.
         25    1    1    2    0    0 -0.21061376676E+03  0.21425720613E+03 -0.32566419063E+03  0.46037644834E+03  0.12500000000E+03 0.  0.
         21    1    1    2  503  502  0.21061376676E+03 -0.21425720613E+03 -0.20775320235E+03  0.36527483108E+03  0.00000000000E+00 0. -1.
<mgrwt>
<rscale>  3 0.32540638E+03</rscale>
<asrwt>0</asrwt>
<pdfrwt beam="1">  1       21 0.22479529E-01 0.32540638E+03</pdfrwt>
<pdfrwt beam="2">  1       21 0.10454375E+00 0.32540638E+03</pdfrwt>
<totfact> 0.12752755E+04</totfact>
</mgrwt>
</event>
<event>
 4    0  0.1495377E-001  0.3133350E+03  0.7546771E-02  0.1078758E+00
         21   -1    0    0  502  501  0.00000000000E+00  0.00000000000E+00  0.33819222981E+03  0.33819222981E+03  0.00000000000E+00 0. -1.
         21   -1    0    0  503  502 -0.00000000000E+00 -0.00000000000E+00 -0.30440917952E+03  0.30440917952E+03  0.00000000000E+00 0. -1.
         25    1    1    2    0    0 -0.19477911979E+03  0.21122245009E+03 -0.95454233448E+02  0.32755204107E+03  0.12500000000E+03 0.  0.
         21    1    1    2  503  501  0.19477911979E+03 -0.21122245009E+03  0.12923728374E+03  0.31504936825E+03  0.00000000000E+00 0. -1.
<mgrwt>
<rscale>  3 0.31333501E+03</rscale>
<asrwt>0</asrwt>
<pdfrwt beam="1">  1       21 0.52029573E-01 0.31333501E+03</pdfrwt>
<pdfrwt beam="2">  1       21 0.46832182E-01 0.31333501E+03</pdfrwt>
<totfact> 0.14385885E+04</totfact>
</mgrwt>
</event>
<event>
 4    0  0.1495377E-001  0.2526424E+03  0.7546771E-02  0.1111646E+00
         21   -1    0    0  503  501  0.00000000000E+00  0.00000000000E+00  0.12628616078E+04  0.12628616078E+04  0.00000000000E+00 0. -1.
         21   -1    0    0  501  502 -0.00000000000E+00 -0.00000000000E+00 -0.55083747757E+02  0.55083747757E+02  0.00000000000E+00 0.  1.
         25    1    1    2    0    0 -0.19632096529E+03 -0.98291806040E+02  0.34464673868E+03  0.42732841589E+03  0.12500000000E+03 0.  0.
         21    1    1    2  503  502  0.19632096529E+03  0.98291806040E+02  0.86313112133E+03  0.89061693963E+03  0.00000000000E+00 0. -1.
<mgrwt>
<rscale>  3 0.25264244E+03</rscale>
<asrwt>0</asrwt>
<pdfrwt beam="1">  1       21 0.19428638E+00 0.25264244E+03</pdfrwt>
<pdfrwt beam="2">  1       21 0.84744237E-02 0.25264244E+03</pdfrwt>
<totfact> 0.15214858E+04</totfact>
</mgrwt>
</event>
<event>
 4    0  0.1495377E-001  0.2391697E+03  0.7546771E-02  0.1120347E+00
         21   -1    0    0  502  501  0.00000000000E+00  0.00000000000E+00  0.70814717588E+03  0.70814717588E+03  0.00000000000E+00 0. -1.
         21   -1    0    0  503  502 -0.00000000000E+00 -0.00000000000E+00 -0.88929099936E+02  0.88929099936E+02  0.00000000000E+00 0. -1.
         25    1    1    2    0    0 -0.14794621311E+03  0.14031765179E+03  0.14206435976E+03  0.27818053075E+03  0.12500000000E+03 0.  0.
         21    1    1    2  503  501  0.14794621311E+03 -0.14031765179E+03  0.47715371618E+03  0.51889574506E+03  0.00000000000E+00 0. -1.
<mgrwt>
<rscale>  3 0.23916966E+03</rscale>
<asrwt>0</asrwt>
<pdfrwt beam="1">  1       21 0.10894572E+00 0.23916966E+03</pdfrwt>
<pdfrwt beam="2">  1       21 0.13681400E-01 0.23916966E+03</pdfrwt>
<totfact> 0.30219570E+04</totfact>
</mgrwt>
</event>
<event>
 4    0  0.1495377E-001  0.2530900E+03  0.7546771E-02  0.1111367E+00
         21   -1    0    0  503  501  0.00000000000E+00  0.00000000000E+00  0.49135374913E+03  0.49135374913E+03  0.00000000000E+00 0. -1.
         21   -1    0    0  501  502 -0.00000000000E+00 -0.00000000000E+00 -0.16378136166E+03  0.16378136166E+03  0.00000000000E+00 0.  1.
         25    1    1    2    0    0  0.10103934175E+03 -0.19550095030E+03 -0.87162356127E+01  0.25324008946E+03  0.12500000000E+03 0.  0.
         21    1    1    2  503  502 -0.10103934175E+03  0.19550095030E+03  0.33628862308E+03  0.40189502132E+03  0.00000000000E+00 0. -1.
<mgrwt>
<rscale>  3 0.25309004E+03</rscale>
<asrwt>0</asrwt>
<pdfrwt beam="1">  1       21 0.75592884E-01 0.25309004E+03</pdfrwt>
<pdfrwt beam="2">  1       21 0.25197133E-01 0.25309004E+03</pdfrwt>
<totfact> 0.22569279E+04</totfact>
</mgrwt>
</event>
<event>
 4    0  0.1495377E-001  0.2472685E+03  0.7546771E-02  0.1115043E+00
         21   -1    0    0  503  501  0.00000000000E+00  0.00000000000E+00  0.10647870854E+03  0.10647870854E+03  0.00000000000E+00 0.  1.
         21   -1    0    0  501  502 -0.00000000000E+00 -0.00000000000E+00 -0.53257979093E+03  0.53257979093E+03  0.00000000000E+00 0.  1.
         25    1    1    2    0    0  0.13352273863E+03  0.16639829774E+03 -0.14668037086E+03  0.28750103725E+03  0.12500000000E+03 0.  0.
         21    1    1    2  503  502 -0.13352273863E+03 -0.16639829774E+03 -0.27942071152E+03  0.35155746222E+03  0.00000000000E+00 0.  1.
<mgrwt>
<rscale>  3 0.24726851E+03</rscale>
<asrwt>0</asrwt>
<pdfrwt beam="1">  1       21 0.16381340E-01 0.24726851E+03</pdfrwt>
<pdfrwt beam="2">  1       21 0.81935351E-01 0.24726851E+03</pdfrwt>
<totfact> 0.42392015E+04</totfact>
</mgrwt>
</event>
<event>
 4    0  0.1495377E-001  0.2637757E+03  0.7546771E-02  0.1104896E+00
         21   -1    0    0  503  501  0.00000000000E+00  0.00000000000E+00  0.73424932251E+03  0.73424932251E+03  0.00000000000E+00 0.  1.
         21   -1    0    0  501  502 -0.00000000000E+00 -0.00000000000E+00 -0.67077197637E+03  0.67077197637E+03  0.00000000000E+00 0. -1.
         25    1    1    2    0    0 -0.23139775831E+03  0.20191415110E+02 -0.62501858952E+03  0.67839947895E+03  0.12500000000E+03 0.  0.
         21    1    1    2  503  502  0.23139775831E+03 -0.20191415110E+02  0.68849593565E+03  0.72662181994E+03  0.00000000000E+00 0.  1.
<mgrwt>
<rscale>  3 0.26377569E+03</rscale>
<asrwt>0</asrwt>
<pdfrwt beam="1">  1       21 0.11296143E+00 0.26377569E+03</pdfrwt>
<pdfrwt beam="2">  1       21 0.10319569E+00 0.26377569E+03</pdfrwt>
<totfact> 0.43502393E+02</totfact>
</mgrwt>
</event>
<event>
 4    0  0.1495377E-001  0.4392447E+03  0.7546771E-02  0.1030979E+00
         21   -1    0    0  503  501  0.00000000000E+00  0.00000000000E+00  0.30106868038E+03  0.30106868038E+03  0.00000000000E+00 0.  1.
         21   -1    0    0  501  502 -0.00000000000E+00 -0.00000000000E+00 -0.65916674746E+03  0.65916674746E+03  0.00000000000E+00 0. -1.
         25    1    1    2    0    0 -0.42096563259E+03 -0.99413463143E+01 -0.30736872450E+03  0.53610766362E+03  0.12500000000E+03 0.  0.
         21    1    1    2  503  502  0.42096563259E+03  0.99413463143E+01 -0.50729342582E+02  0.42412776422E+03  0.00000000000E+00 0.  1.
<mgrwt>
<rscale>  3 0.43924469E+03</rscale>
<asrwt>0</asrwt>
<pdfrwt beam="1">  1       21 0.46318259E-01 0.43924469E+03</pdfrwt>
<pdfrwt beam="2">  1       21 0.10141027E+00 0.43924469E+03</pdfrwt>
<totfact> 0.30960601E+03</totfact>
</mgrwt>
</event>
<event>
 4    0  0.1495377E-001  0.2923168E+03  0.7546771E-02  0.1089146E+00
         21   -1    0    0  502  501  0.00000000000E+00  0.00000000000E+00  0.16334672837E+04  0.16334672837E+04  0.00000000000E+00 0.  1.
         21   -1    0    0  503  502 -0.00000000000E+00 -0.00000000000E+00 -0.12768900792E+03  0.12768900792E+03  0.00000000000E+00 0.  1.
         25    1    1    2    0    0  0.18626969040E+03 -0.18742393848E+03  0.69091268309E+02  0.30037099333E+03  0.12500000000E+03 0.  0.
         21    1    1    2  503  501 -0.18626969040E+03  0.18742393848E+03  0.14366870075E+04  0.14607852983E+04  0.00000000000E+00 0.  1.
<mgrwt>
<rscale>  3 0.29231683E+03</rscale>
<asrwt>0</asrwt>
<pdfrwt beam="1">  1       21 0.25130264E+00 0.29231683E+03</pdfrwt>
<pdfrwt beam="2">  1       21 0.19644464E-01 0.29231683E+03</pdfrwt>
<totfact> 0.14163766E+03</totfact>
</mgrwt>
</event>
<event>
 4    0  0.1495377E-001  0.2410604E+03  0.7546771E-02  0.1119088E+00
         21   -1    0    0  502  501  0.00000000000E+00  0.00000000000E+00  0.31211477522E+03  0.31211477522E+03  0.00000000000E+00 0.  1.
         21   -1    0    0  503  502 -0.00000000000E+00 -0.00000000000E+00 -0.25357973643E+03  0.25357973643E+03  0.00000000000E+00 0.  1.
         25    1    1    2    0    0 -0.57653229940E+02 -0.19789188688E+03 -0.14062242382E+03  0.27907841174E+03  0.12500000000E+03 0.  0.
         21    1    1    2  503  501  0.57653229940E+02  0.19789188688E+03  0.19915746261E+03  0.28661609991E+03  0.00000000000E+00 0.  1.
<mgrwt>
<rscale>  3 0.24106035E+03</rscale>
<asrwt>0</asrwt>
<pdfrwt beam="1">  1       21 0.48017658E-01 0.24106035E+03</pdfrwt>
<pdfrwt beam="2">  1       21 0.39012267E-01 0.24106035E+03</pdfrwt>
<totfact> 0.25594703E+04</totfact>
</mgrwt>
</event>
<event>
 4    0  0.1495377E-001  0.2523582E+03  0.7546771E-02  0.1111824E+00
         21   -1    0    0  502  501  0.00000000000E+00  0.00000000000E+00  0.12697219169E+03  0.12697219169E+03  0.00000000000E+00 0.  1.
         21   -1    0    0  503  502 -0.00000000000E+00 -0.00000000000E+00 -0.52952781541E+03  0.52952781541E+03  0.00000000000E+00 0.  1.
         25    1    1    2    0    0 -0.21292305325E+03 -0.52186535750E+02 -0.34925713821E+03  0.43088886004E+03  0.12500000000E+03 0.  0.
         21    1    1    2  503  501  0.21292305325E+03  0.52186535750E+02 -0.53298485510E+02  0.22561114706E+03  0.00000000000E+00 0.  1.
<mgrwt>
<rscale>  3 0.25235820E+03</rscale>
<asrwt>0</asrwt>
<pdfrwt beam="1">  1       21 0.19534183E-01 0.25235820E+03</pdfrwt>
<pdfrwt beam="2">  1       21 0.81465820E-01 0.25235820E+03</pdfrwt>
<totfact> 0.30894195E+04</totfact>
</mgrwt>
</event>
<event>
 4    0  0.1495377E-001  0.2434969E+03  0.7546771E-02  0.1117485E+00
         21   -1    0    0  503  501  0.00000000000E+00  0.00000000000E+00  0.25688083204E+03  0.25688083204E+03  0.00000000000E+00 0. -1.
         21   -1    0    0  501  502 -0.00000000000E+00 -0.00000000000E+00 -0.29352278185E+03  0.29352278185E+03  0.00000000000E+00 0. -1.
         25    1    1    2    0    0  0.24711526140E+02  0.20749717405E+03 -0.17493612811E+03  0.29982225681E+03  0.12500000000E+03 0.  0.
         21    1    1    2  503  502 -0.24711526140E+02 -0.20749717405E+03  0.13829417830E+03  0.25058135708E+03  0.00000000000E+00 0. -1.
<mgrwt>
<rscale>  3 0.24349689E+03</rscale>
<asrwt>0</asrwt>
<pdfrwt beam="1">  1       21 0.39520128E-01 0.24349689E+03</pdfrwt>
<pdfrwt beam="2">  1       21 0.45157351E-01 0.24349689E+03</pdfrwt>
<totfact> 0.28290182E+04</totfact>
</mgrwt>
</event>
<event>
 4    0  0.1495377E-001  0.2484832E+03  0.7546771E-02  0.1114267E+00
         21   -1    0    0  502  501  0.00000000000E+00  0.00000000000E+00  0.44347183632E+02  0.44347183632E+02  0.00000000000E+00 0.  1.
         21   -1    0    0  503  502 -0.00000000000E+00 -0.00000000000E+00 -0.21388414617E+04  0.21388414617E+04  0.00000000000E+00 0.  1.
         25    1    1    2    0    0 -0.20669556898E+03 -0.58273665345E+02 -0.18087650548E+04  0.18257532423E+04  0.12500000000E+03 0.  0.
         21    1    1    2  503  501  0.20669556898E+03  0.58273665345E+02 -0.28572922327E+03  0.35743540303E+03  0.00000000000E+00 0.  1.
<mgrwt>
<rscale>  3 0.24848315E+03</rscale>
<asrwt>0</asrwt>
<pdfrwt beam="1">  1       21 0.68226439E-02 0.24848315E+03</pdfrwt>
<pdfrwt beam="2">  1       21 0.32905252E+00 0.24848315E+03</pdfrwt>
<totfact> 0.34448113E+03</totfact>
</mgrwt>
</event>
<event>
 4    0  0.1495377E-001  0.2440467E+03  0.7546771E-02  0.1117126E+00
         21   -1    0    0  502  501  0.00000000000E+00  0.00000000000E+00  0.19020021623E+03  0.19020021623E+03  0.00000000000E+00 0.  1.
         21   -1    0    0  503  502 -0.00000000000E+00 -0.00000000000E+00 -0.29206878869E+03  0.29206878869E+03  0.00000000000E+00 0.  1.
         25    1    1    2    0    0  0.19722259333E+03 -0.70971978510E+02 -0.11986483818E+03  0.27189400965E+03  0.12500000000E+03 0.  0.
         21    1    1    2  503  501 -0.19722259333E+03  0.70971978510E+02  0.17996265718E+02  0.21037499527E+03  0.00000000000E+00 0.  1.
<mgrwt>
<rscale>  3 0.24404666E+03</rscale>
<asrwt>0</asrwt>
<pdfrwt beam="1">  1       21 0.29261572E-01 0.24404666E+03</pdfrwt>
<pdfrwt beam="2">  1       21 0.44933660E-01 0.24404666E+03</pdfrwt>
<totfact> 0.51962835E+04</totfact>
</mgrwt>
</event>
<event>
 4    0  0.1495377E-001  0.2417974E+03  0.7546771E-02  0.1118601E+00
         21   -1    0    0  503  501  0.00000000000E+00  0.00000000000E+00  0.12765876070E+03  0.12765876070E+03  0.00000000000E+00 0. -1.
         21   -1    0    0  501  502 -0.00000000000E+00 -0.00000000000E+00 -0.40254191849E+03  0.40254191849E+03  0.00000000000E+00 0. -1.
         25    1    1    2    0    0 -0.17964087588E+03  0.10281109015E+03 -0.11033070696E+03  0.26577966334E+03  0.12500000000E+03 0.  0.
         21    1    1    2  503  502  0.17964087588E+03 -0.10281109015E+03 -0.16455245083E+03  0.26442101585E+03  0.00000000000E+00 0. -1.
<mgrwt>
<rscale>  3 0.24179736E+03</rscale>
<asrwt>0</asrwt>
<pdfrwt beam="1">  1       21 0.19639809E-01 0.24179736E+03</pdfrwt>
<pdfrwt beam="2">  1       21 0.61929526E-01 0.24179736E+03</pdfrwt>
<totfact> 0.56556976E+04</totfact>
</mgrwt>
</event>
<event>
 4    0  0.1495377E-001  0.2385971E+03  0.7546771E-02  0.1120731E+00
         21   -1    0    0  503  501  0.00000000000E+00  0.00000000000E+00  0.74201712996E+03  0.74201712996E+03  0.00000000000E+00 0. -1.
         21   -1    0    0  501  502 -0.00000000000E+00 -0.00000000000E+00 -0.22239757431E+03  0.22239757431E+03  0.00000000000E+00 0. -1.
         25    1    1    2    0    0 -0.84614846600E+02 -0.18478072206E+03 -0.13832683987E+03  0.27579503646E+03  0.12500000000E+03 0.  0.
         21    1    1    2  503  502  0.84614846600E+02  0.18478072206E+03  0.65794639552E+03  0.68861966781E+03  0.00000000000E+00 0. -1.
<mgrwt>
<rscale>  3 0.23859712E+03</rscale>
<asrwt>0</asrwt>
<pdfrwt beam="1">  1       21 0.11415648E+00 0.23859712E+03</pdfrwt>
<pdfrwt beam="2">  1       21 0.34215012E-01 0.23859712E+03</pdfrwt>
<totfact> 0.47469830E+03</totfact>
</mgrwt>
</event>
<event>
 4    0  0.1495377E-001  0.2988226E+03  0.7546771E-02  0.1085831E+00
         21   -1    0    0  503  501  0.00000000000E+00  0.00000000000E+00  0.13397067348E+04  0.13397067348E+04  0.00000000000E+00 0.  1.
         21   -1    0    0  501  502 -0.00000000000E+00 -0.00000000000E+00 -0.17249623667E+03  0.17249623667E+03  0.00000000000E+00 0.  1.
         25    1    1    2    0    0 -0.27036010589E+03 -0.23987076314E+02 -0.15035117502E+02  0.29920063744E+03  0.12500000000E+03 0.  0.
         21    1    1    2  503  502  0.27036010589E+03  0.23987076314E+02  0.11822456156E+04  0.12130023340E+04  0.00000000000E+00 0.  1.
<mgrwt>
<rscale>  3 0.29882263E+03</rscale>
<asrwt>0</asrwt>
<pdfrwt beam="1">  1       21 0.20610872E+00 0.29882263E+03</pdfrwt>
<pdfrwt beam="2">  1       21 0.26537883E-01 0.29882263E+03</pdfrwt>
<totfact> 0.15120493E+03</totfact>
</mgrwt>
</event>
<event>
 4    0  0.1495377E-001  0.2821834E+03  0.7546771E-02  0.1094502E+00
         21   -1    0    0  503  501  0.00000000000E+00  0.00000000000E+00  0.24205467684E+03  0.24205467684E+03  0.00000000000E+00 0.  1.
         21   -1    0    0  501  502 -0.00000000000E+00 -0.00000000000E+00 -0.57301827222E+03  0.57301827222E+03  0.00000000000E+00 0. -1.
         25    1    1    2    0    0 -0.36725688050E+02  0.25030723871E+03 -0.45338086385E+03  0.53402406090E+03  0.12500000000E+03 0.  0.
         21    1    1    2  503  502  0.36725688050E+02 -0.25030723871E+03  0.12241726847E+03  0.28104888816E+03  0.00000000000E+00 0.  1.
<mgrwt>
<rscale>  3 0.28218343E+03</rscale>
<asrwt>0</asrwt>
<pdfrwt beam="1">  1       21 0.37239182E-01 0.28218343E+03</pdfrwt>
<pdfrwt beam="2">  1       21 0.88156656E-01 0.28218343E+03</pdfrwt>
<totfact> 0.72481335E+03</totfact>
</mgrwt>
</event>
<event>
 4    0  0.1495377E-001  0.2657189E+03  0.7546771E-02  0.1103755E+00
         21   -1    0    0  503  501  0.00000000000E+00  0.00000000000E+00  0.53406661051E+03  0.53406661051E+03  0.00000000000E+00 0. -1.
         21   -1    0    0  501  502 -0.00000000000E+00 -0.00000000000E+00 -0.12354504365E+03  0.12354504365E+03  0.00000000000E+00 0. -1.
         25    1    1    2    0    0 -0.11967833133E+03 -0.20163982291E+03  0.14257022013E+03  0.30155064059E+03  0.12500000000E+03 0.  0.
         21    1    1    2  503  502  0.11967833133E+03  0.20163982291E+03  0.26795134674E+03  0.35606101358E+03  0.00000000000E+00 0. -1.
<mgrwt>
<rscale>  3 0.26571888E+03</rscale>
<asrwt>0</asrwt>
<pdfrwt beam="1">  1       21 0.82164093E-01 0.26571888E+03</pdfrwt>
<pdfrwt beam="2">  1       21 0.19006930E-01 0.26571888E+03</pdfrwt>
<totfact> 0.31707774E+04</totfact>
</mgrwt>
</event>
<event>
 4    0  0.1495377E-001  0.2553902E+03  0.7546771E-02  0.1109945E+00
         21   -1    0    0  503  501  0.00000000000E+00  0.00000000000E+00  0.68848140091E+03  0.68848140091E+03  0.00000000000E+00 0.  1.
         21   -1    0    0  501  502 -0.00000000000E+00 -0.00000000000E+00 -0.11337118136E+03  0.11337118136E+03  0.00000000000E+00 0. -1.
         25    1    1    2    0    0  0.17832999729E+03 -0.13340750771E+03  0.94792149101E+02  0.27241457849E+03  0.12500000000E+03 0.  0.
         21    1    1    2  503  502 -0.17832999729E+03  0.13340750771E+03  0.48031807045E+03  0.52943800378E+03  0.00000000000E+00 0.  1.
<mgrwt>
<rscale>  3 0.25539019E+03</rscale>
<asrwt>0</asrwt>
<pdfrwt beam="1">  1       21 0.10592021E+00 0.25539019E+03</pdfrwt>
<pdfrwt beam="2">  1       21 0.17441721E-01 0.25539019E+03</pdfrwt>
<totfact> 0.20556750E+04</totfact>
</mgrwt>
</event>
<event>
 4    0  0.1495377E-001  0.2584062E+03  0.7546771E-02  0.1108105E+00
         21   -1    0    0  502  501  0.00000000000E+00  0.00000000000E+00  0.15862074537E+03  0.15862074537E+03  0.00000000000E+00 0.  1.
         21   -1    0    0  503  502 -0.00000000000E+00 -0.00000000000E+00 -0.40782505934E+03  0.40782505934E+03  0.00000000000E+00 0.  1.
         25    1    1    2    0    0 -0.22580637434E+03  0.12658473735E+02 -0.21812358567E+03  0.33815921439E+03  0.12500000000E+03 0.  0.
         21    1    1    2  503  501  0.22580637434E+03 -0.12658473735E+02 -0.31080728293E+02  0.22828659032E+03  0.00000000000E+00 0.  1.
<mgrwt>
<rscale>  3 0.25840618E+03</rscale>
<asrwt>0</asrwt>
<pdfrwt beam="1">  1       21 0.24403192E-01 0.25840618E+03</pdfrwt>
<pdfrwt beam="2">  1       21 0.62742316E-01 0.25840618E+03</pdfrwt>
<totfact> 0.36178443E+04</totfact>
</mgrwt>
</event>
<event>
 4    0  0.1495377E-001  0.3882731E+03  0.7546771E-02  0.1047918E+00
         21   -1    0    0  502  501  0.00000000000E+00  0.00000000000E+00  0.35628391405E+03  0.35628391405E+03  0.00000000000E+00 0. -1.
         21   -1    0    0  503  502 -0.00000000000E+00 -0.00000000000E+00 -0.84522443306E+03  0.84522443306E+03  0.00000000000E+00 0. -1.
         25    1    1    2    0    0 -0.13645712859E+02  0.36734836934E+03 -0.68313365981E+03  0.78576563115E+03  0.12500000000E+03 0.  0.
         21    1    1    2  503  501  0.13645712859E+02 -0.36734836934E+03  0.19419314080E+03  0.41574271596E+03  0.00000000000E+00 0. -1.
<mgrwt>
<rscale>  3 0.38827314E+03</rscale>
<asrwt>0</asrwt>
<pdfrwt beam="1">  1       21 0.54812911E-01 0.38827314E+03</pdfrwt>
<pdfrwt beam="2">  1       21 0.13003453E+00 0.38827314E+03</pdfrwt>
<totfact> 0.11858453E+03</totfact>
</mgrwt>
</event>
<event>
 4    0  0.1495377E-001  0.4372498E+03  0.7546771E-02  0.1031594E+00
         21   -1    0    0  502  501  0.00000000000E+00  0.00000000000E+00  0.54276997345E+03  0.54276997345E+03  0.00000000000E+00 0. -1.
         21   -1    0    0  503  502 -0.00000000000E+00 -0.00000000000E+00 -0.43517619091E+03  0.43517619091E+03  0.00000000000E+00 0. -1.
         25    1    1    2    0    0  0.46086396499E+02  0.41645934968E+03 -0.17669703677E+03  0.47160278697E+03  0.12500000000E+03 0.  0.
         21    1    1    2  503  501 -0.46086396499E+02 -0.41645934968E+03  0.28429081931E+03  0.50634337739E+03  0.00000000000E+00 0. -1.
<mgrwt>
<rscale>  3 0.43724975E+03</rscale>
<asrwt>0</asrwt>
<pdfrwt beam="1">  1       21 0.83503073E-01 0.43724975E+03</pdfrwt>
<pdfrwt beam="2">  1       21 0.66950183E-01 0.43724975E+03</pdfrwt>
<totfact> 0.22165594E+03</totfact>
</mgrwt>
</event>
<event>
 4    0  0.1495377E-001  0.2430360E+03  0.7546771E-02  0.1117787E+00
         21   -1    0    0  503  501  0.00000000000E+00  0.00000000000E+00  0.51953684326E+03  0.51953684326E+03  0.00000000000E+00 0.  1.
         21   -1    0    0  501  502 -0.00000000000E+00 -0.00000000000E+00 -0.13559472766E+03  0.13559472766E+03  0.00000000000E+00 0.  1.
         25    1    1    2    0    0  0.82427156075E+02 -0.19143478974E+03  0.37455349949E+03  0.44649394034E+03  0.12500000000E+03 0.  0.
         21    1    1    2  503  502 -0.82427156075E+02  0.19143478974E+03  0.93886161144E+01  0.20863763058E+03  0.00000000000E+00 0.  1.
<mgrwt>
<rscale>  3 0.24303604E+03</rscale>
<asrwt>0</asrwt>
<pdfrwt beam="1">  1       21 0.79928744E-01 0.24303604E+03</pdfrwt>
<pdfrwt beam="2">  1       21 0.20860728E-01 0.24303604E+03</pdfrwt>
<totfact> 0.28635859E+04</totfact>
</mgrwt>
</event>
<event>
 4    0  0.1495377E-001  0.4310981E+03  0.7546771E-02  0.1033514E+00
         21   -1    0    0  502  501  0.00000000000E+00  0.00000000000E+00  0.70153453475E+02  0.70153453475E+02  0.00000000000E+00 0.  1.
         21   -1    0    0  503  502 -0.00000000000E+00 -0.00000000000E+00 -0.26225866256E+04  0.26225866256E+04  0.00000000000E+00 0. -1.
         25    1    1    2    0    0 -0.39409347064E+03  0.12211006867E+03 -0.10594998189E+04  0.11438467549E+04  0.12500000000E+03 0.  0.
         21    1    1    2  503  501  0.39409347064E+03 -0.12211006867E+03 -0.14929333532E+04  0.15488933242E+04  0.00000000000E+00 0.  1.
<mgrwt>
<rscale>  3 0.43109805E+03</rscale>
<asrwt>0</asrwt>
<pdfrwt beam="1">  1       21 0.10792841E-01 0.43109805E+03</pdfrwt>
<pdfrwt beam="2">  1       21 0.40347481E+00 0.43109805E+03</pdfrwt>
<totfact> 0.46042312E+02</totfact>
</mgrwt>
</event>
<event>
 4    0  0.1495377E-001  0.4168963E+03  0.7546771E-02  0.1038081E+00
         21   -1    0    0  503  501  0.00000000000E+00  0.00000000000E+00  0.71389966141E+03  0.71389966141E+03  0.00000000000E+00 0. -1.
         21   -1    0    0  501  502 -0.00000000000E+00 -0.00000000000E+00 -0.59691214280E+03  0.59691214280E+03  0.00000000000E+00 0.  1.
         25    1    1    2    0    0 -0.31200929379E+03 -0.24663278063E+03 -0.45309327286E+03  0.61570775682E+03  0.12500000000E+03 0.  0.
         21    1    1    2  503  502  0.31200929379E+03  0.24663278063E+03  0.57008079147E+03  0.69510404739E+03  0.00000000000E+00 0. -1.
<mgrwt>
<rscale>  3 0.41689630E+03</rscale>
<asrwt>0</asrwt>
<pdfrwt beam="1">  1       21 0.10983072E+00 0.41689630E+03</pdfrwt>
<pdfrwt beam="2">  1       21 0.91832638E-01 0.41689630E+03</pdfrwt>
<totfact> 0.55963898E+02</totfact>
</mgrwt>
</event>
<event>
 4    0  0.1495377E-001  0.3534431E+03  0.7546771E-02  0.1061211E+00
         21   -1    0    0  502  501  0.00000000000E+00  0.00000000000E+00  0.16111493304E+04  0.16111493304E+04  0.00000000000E+00 0.  1.
         21   -1    0    0  503  502 -0.00000000000E+00 -0.00000000000E+00 -0.92648354787E+02  0.92648354787E+02  0.00000000000E+00 0.  1.
         25    1    1    2    0    0  0.29168133843E+03  0.15562458660E+03  0.38306571621E+03  0.52121143318E+03  0.12500000000E+03 0.  0.
         21    1    1    2  503  501 -0.29168133843E+03 -0.15562458660E+03  0.11354352594E+04  0.11825862520E+04  0.00000000000E+00 0.  1.
<mgrwt>
<rscale>  3 0.35344309E+03</rscale>
<asrwt>0</asrwt>
<pdfrwt beam="1">  1       21 0.24786911E+00 0.35344309E+03</pdfrwt>
<pdfrwt beam="2">  1       21 0.14253594E-01 0.35344309E+03</pdfrwt>
<totfact> 0.25883300E+03</totfact>
</mgrwt>
</event>
<event>
 4    0  0.1495377E-001  0.2858559E+03  0.7546771E-02  0.1092533E+00
         21   -1    0    0  502  501  0.00000000000E+00  0.00000000000E+00  0.15293914962E+03  0.15293914962E+03  0.00000000000E+00 0. -1.
         21   -1    0    0  503  502 -0.00000000000E+00 -0.00000000000E+00 -0.48912409758E+03  0.48912409758E+03  0.00000000000E+00 0. -1.
         25    1    1    2    0    0 -0.25188731922E+03 -0.51394466202E+02 -0.21595963999E+03  0.35826272321E+03  0.12500000000E+03 0.  0.
         21    1    1    2  503  501  0.25188731922E+03  0.51394466202E+02 -0.12022530796E+03  0.28380052398E+03  0.00000000000E+00 0. -1.
<mgrwt>
<rscale>  3 0.28585593E+03</rscale>
<asrwt>0</asrwt>
<pdfrwt beam="1">  1       21 0.23529100E-01 0.28585593E+03</pdfrwt>
<pdfrwt beam="2">  1       21 0.75249862E-01 0.28585593E+03</pdfrwt>
<totfact> 0.25636619E+04</totfact>
</mgrwt>
</event>
<event>
 4    0  0.1495377E-001  0.2714002E+03  0.7546771E-02  0.1100481E+00
         21   -1    0    0  502  501  0.00000000000E+00  0.00000000000E+00  0.45790388095E+02  0.45790388095E+02  0.00000000000E+00 0.  1.
         21   -1    0    0  503  502 -0.00000000000E+00 -0.00000000000E+00 -0.16873932857E+04  0.16873932857E+04  0.00000000000E+00 0.  1.
         25    1    1    2    0    0  0.22178257252E+03 -0.94050807321E+02 -0.11983374337E+04  0.12286865625E+04  0.12500000000E+03 0.  0.
         21    1    1    2  503  501 -0.22178257252E+03  0.94050807321E+02 -0.44326546395E+03  0.50449711135E+03  0.00000000000E+00 0.  1.
<mgrwt>
<rscale>  3 0.27140019E+03</rscale>
<asrwt>0</asrwt>
<pdfrwt beam="1">  1       21 0.70446742E-02 0.27140019E+03</pdfrwt>
<pdfrwt beam="2">  1       21 0.25959900E+00 0.27140019E+03</pdfrwt>
<totfact> 0.81738706E+03</totfact>
</mgrwt>
</event>
<event>
 4    0  0.1495377E-001  0.3022861E+03  0.7546771E-02  0.1084103E+00
         21   -1    0    0  502  501  0.00000000000E+00  0.00000000000E+00  0.49079950164E+03  0.49079950164E+03  0.00000000000E+00 0. -1.
         21   -1    0    0  503  502 -0.00000000000E+00 -0.00000000000E+00 -0.18998730082E+03  0.18998730082E+03  0.00000000000E+00 0.  1.
         25    1    1    2    0    0  0.10020077787E+03 -0.25634294200E+03  0.46102430551E+02  0.30578151334E+03  0.12500000000E+03 0.  0.
         21    1    1    2  503  501 -0.10020077787E+03  0.25634294200E+03  0.25470977026E+03  0.37500528912E+03  0.00000000000E+00 0. -1.
<mgrwt>
<rscale>  3 0.30228612E+03</rscale>
<asrwt>0</asrwt>
<pdfrwt beam="1">  1       21 0.75507615E-01 0.30228612E+03</pdfrwt>
<pdfrwt beam="2">  1       21 0.29228816E-01 0.30228612E+03</pdfrwt>
<totfact> 0.16595148E+04</totfact>
</mgrwt>
</event>
<event>
 4    0  0.1495377E-001  0.2522733E+03  0.7546771E-02  0.1111876E+00
         21   -1    0    0  502  501  0.00000000000E+00  0.00000000000E+00  0.44560048163E+03  0.44560048163E+03  0.00000000000E+00 0. -1.
         21   -1    0    0  503  502 -0.00000000000E+00 -0.00000000000E+00 -0.20345287385E+03  0.20345287385E+03  0.00000000000E+00 0. -1.
         25    1    1    2    0    0  0.20743350789E+03  0.70627052170E+02 -0.75344111763E+02  0.26328421121E+03  0.12500000000E+03 0.  0.
         21    1    1    2  503  501 -0.20743350789E+03 -0.70627052170E+02  0.31749171954E+03  0.38576914427E+03  0.00000000000E+00 0. -1.
<mgrwt>
<rscale>  3 0.25227335E+03</rscale>
<asrwt>0</asrwt>
<pdfrwt beam="1">  1       21 0.68553920E-01 0.25227335E+03</pdfrwt>
<pdfrwt beam="2">  1       21 0.31300442E-01 0.25227335E+03</pdfrwt>
<totfact> 0.18409412E+04</totfact>
</mgrwt>
</event>
<event>
 4    0  0.1495377E-001  0.2773903E+03  0.7546771E-02  0.1097123E+00
         21   -1    0    0  502  501  0.00000000000E+00  0.00000000000E+00  0.26345826583E+04  0.26345826583E+04  0.00000000000E+00 0.  1.
         21   -1    0    0  503  502 -0.00000000000E+00 -0.00000000000E+00 -0.31672009964E+03  0.31672009964E+03  0.00000000000E+00 0.  1.
         25    1    1    2    0    0  0.24302768637E+03  0.47517763261E+02 -0.24886057787E+03  0.37266202031E+03  0.12500000000E+03 0.  0.
         21    1    1    2  503  501 -0.24302768637E+03 -0.47517763261E+02  0.25667231365E+04  0.25786407376E+04  0.00000000000E+00 0.  1.
<mgrwt>
<rscale>  3 0.27739033E+03</rscale>
<asrwt>0</asrwt>
<pdfrwt beam="1">  1       21 0.40532039E+00 0.27739033E+03</pdfrwt>
<pdfrwt beam="2">  1       21 0.48726171E-01 0.27739033E+03</pdfrwt>
<totfact> 0.28253087E+01</totfact>
</mgrwt>
</event>
<event>
 4    0  0.1495377E-001  0.2524322E+03  0.7546771E-02  0.1111777E+00
         21   -1    0    0  503  501  0.00000000000E+00  0.00000000000E+00  0.15878748645E+03  0.15878748645E+03  0.00000000000E+00 0.  1.
         21   -1    0    0  501  502 -0.00000000000E+00 -0.00000000000E+00 -0.37605403871E+03  0.37605403871E+03  0.00000000000E+00 0.  1.
         25    1    1    2    0    0  0.14011174721E+03  0.16871785270E+03 -0.18545943131E+03  0.31323667759E+03  0.12500000000E+03 0.  0.
         21    1    1    2  503  502 -0.14011174721E+03 -0.16871785270E+03 -0.31807120951E+02  0.22160484757E+03  0.00000000000E+00 0.  1.
<mgrwt>
<rscale>  3 0.25243220E+03</rscale>
<asrwt>0</asrwt>
<pdfrwt beam="1">  1       21 0.24428844E-01 0.25243220E+03</pdfrwt>
<pdfrwt beam="2">  1       21 0.57854466E-01 0.25243220E+03</pdfrwt>
<totfact> 0.43138834E+04</totfact>
</mgrwt>
</event>
<event>
 4    0  0.1495377E-001  0.4117389E+03  0.7546771E-02  0.1039789E+00
         21   -1    0    0  502  501  0.00000000000E+00  0.00000000000E+00  0.81291202710E+03  0.81291202710E+03  0.00000000000E+00 0.  1.
         21   -1    0    0  503  502 -0.00000000000E+00 -0.00000000000E+00 -0.23740245559E+03  0.23740245559E+03  0.00000000000E+00 0.  1.
         25    1    1    2    0    0  0.36620926020E+03  0.14069375702E+03  0.81917065977E+02  0.41980871980E+03  0.12500000000E+03 0.  0.
         21    1    1    2  503  501 -0.36620926020E+03 -0.14069375702E+03  0.49359250553E+03  0.63050576289E+03  0.00000000000E+00 0.  1.
<mgrwt>
<rscale>  3 0.41173894E+03</rscale>
<asrwt>0</asrwt>
<pdfrwt beam="1">  1       21 0.12506339E+00 0.41173894E+03</pdfrwt>
<pdfrwt beam="2">  1       21 0.36523455E-01 0.41173894E+03</pdfrwt>
<totfact> 0.30289673E+03</totfact>
</mgrwt>
</event>
<event>
 4    0  0.1495377E-001  0.5028316E+03  0.7546771E-02  0.1013042E+00
         21   -1    0    0  503  501  0.00000000000E+00  0.00000000000E+00  0.81017252687E+03  0.81017252687E+03  0.00000000000E+00 0. -1.
         21   -1    0    0  501  502 -0.00000000000E+00 -0.00000000000E+00 -0.33499600050E+03  0.33499600050E+03  0.00000000000E+00 0. -1.
         25    1    1    2    0    0  0.11188984783E+03 -0.47402037742E+03  0.62314132099E+02  0.50667811016E+03  0.12500000000E+03 0.  0.
         21    1    1    2  503  502 -0.11188984783E+03  0.47402037742E+03  0.41286239427E+03  0.63849041720E+03  0.00000000000E+00 0. -1.
<mgrwt>
<rscale>  3 0.50283164E+03</rscale>
<asrwt>0</asrwt>
<pdfrwt beam="1">  1       21 0.12464193E+00 0.50283164E+03</pdfrwt>
<pdfrwt beam="2">  1       21 0.51537847E-01 0.50283164E+03</pdfrwt>
<totfact> 0.14398029E+03</totfact>
</mgrwt>
</event>
<event>
 4    0  0.1495377E-001  0.2527610E+03  0.7546771E-02  0.1111572E+00
         21   -1    0    0  503  501  0.00000000000E+00  0.00000000000E+00  0.29179522546E+03  0.29179522546E+03  0.00000000000E+00 0. -1.
         21   -1    0    0  501  502 -0.00000000000E+00 -0.00000000000E+00 -0.86549903778E+03  0.86549903778E+03  0.00000000000E+00 0. -1.
         25    1    1    2    0    0 -0.60289085577E+00  0.21968786413E+03 -0.80174610524E+03  0.84064554860E+03  0.12500000000E+03 0.  0.
         21    1    1    2  503  502  0.60289085577E+00 -0.21968786413E+03  0.22804229292E+03  0.31664871464E+03  0.00000000000E+00 0. -1.
<mgrwt>
<rscale>  3 0.25276100E+03</rscale>
<asrwt>0</asrwt>
<pdfrwt beam="1">  1       21 0.44891574E-01 0.25276100E+03</pdfrwt>
<pdfrwt beam="2">  1       21 0.13315370E+00 0.25276100E+03</pdfrwt>
<totfact> 0.18416786E+03</totfact>
</mgrwt>
</event>
<event>
 4    0  0.1495377E-001  0.2426748E+03  0.7546771E-02  0.1118024E+00
         21   -1    0    0  503  501  0.00000000000E+00  0.00000000000E+00  0.15350797758E+03  0.15350797758E+03  0.00000000000E+00 0.  1.
         21   -1    0    0  501  502 -0.00000000000E+00 -0.00000000000E+00 -0.19360515451E+04  0.19360515451E+04  0.00000000000E+00 0.  1.
         25    1    1    2    0    0  0.14980110637E+03 -0.14431105378E+03 -0.18538543399E+04  0.18696702825E+04  0.12500000000E+03 0.  0.
         21    1    1    2  503  502 -0.14980110637E+03  0.14431105378E+03  0.71310772345E+02  0.21988924022E+03  0.00000000000E+00 0.  1.
<mgrwt>
<rscale>  3 0.24267479E+03</rscale>
<asrwt>0</asrwt>
<pdfrwt beam="1">  1       21 0.23616612E-01 0.24267479E+03</pdfrwt>
<pdfrwt beam="2">  1       21 0.29785408E+00 0.24267479E+03</pdfrwt>
<totfact> 0.55636290E+02</totfact>
</mgrwt>
</event>
<event>
 4    0  0.1495377E-001  0.3291785E+03  0.7546771E-02  0.1071501E+00
         21   -1    0    0  503  501  0.00000000000E+00  0.00000000000E+00  0.12473394483E+03  0.12473394483E+03  0.00000000000E+00 0.  1.
         21   -1    0    0  501  502 -0.00000000000E+00 -0.00000000000E+00 -0.10549312753E+04  0.10549312753E+04  0.00000000000E+00 0.  1.
         25    1    1    2    0    0  0.29534575823E+03  0.74191403115E+02 -0.76591307638E+03  0.83365539750E+03  0.12500000000E+03 0.  0.
         21    1    1    2  503  502 -0.29534575823E+03 -0.74191403115E+02 -0.16428425405E+03  0.34600982259E+03  0.00000000000E+00 0.  1.
<mgrwt>
<rscale>  3 0.32917849E+03</rscale>
<asrwt>0</asrwt>
<pdfrwt beam="1">  1       21 0.19189838E-01 0.32917849E+03</pdfrwt>
<pdfrwt beam="2">  1       21 0.16229711E+00 0.32917849E+03</pdfrwt>
<totfact> 0.55245936E+03</totfact>
</mgrwt>
</event>
<event>
 4    0  0.1495377E-001  0.2579908E+03  0.7546771E-02  0.1108356E+00
         21   -1    0    0  502  501  0.00000000000E+00  0.00000000000E+00  0.18218002626E+03  0.18218002626E+03  0.00000000000E+00 0.  1.
         21   -1    0    0  503  502 -0.00000000000E+00 -0.00000000000E+00 -0.36266159812E+03  0.36266159812E+03  0.00000000000E+00 0. -1.
         25    1    1    2    0    0  0.56794796776E+02 -0.21842299249E+03 -0.18768989473E+03  0.31904035665E+03  0.12500000000E+03 0.  0.
         21    1    1    2  503  501 -0.56794796776E+02  0.21842299249E+03  0.72083228696E+01  0.22580126773E+03  0.00000000000E+00 0.  1.
<mgrwt>
<rscale>  3 0.25799080E+03</rscale>
<asrwt>0</asrwt>
<pdfrwt beam="1">  1       21 0.28027697E-01 0.25799080E+03</pdfrwt>
<pdfrwt beam="2">  1       21 0.55794092E-01 0.25799080E+03</pdfrwt>
<totfact> 0.35672527E+04</totfact>
</mgrwt>
</event>
<event>
 4    0  0.1495377E-001  0.2523546E+03  0.7546771E-02  0.1111826E+00
         21   -1    0    0  503  501  0.00000000000E+00  0.00000000000E+00  0.14763442467E+03  0.14763442467E+03  0.00000000000E+00 0.  1.
         21   -1    0    0  501  502 -0.00000000000E+00 -0.00000000000E+00 -0.73225046004E+03  0.73225046004E+03  0.00000000000E+00 0. -1.
         25    1    1    2    0    0 -0.45714640712E+02  0.21440152733E+03 -0.60909412479E+03  0.65930152142E+03  0.12500000000E+03 0.  0.
         21    1    1    2  503  502  0.45714640712E+02 -0.21440152733E+03  0.24478089417E+02  0.22058336328E+03  0.00000000000E+00 0.  1.
<mgrwt>
<rscale>  3 0.25235460E+03</rscale>
<asrwt>0</asrwt>
<pdfrwt beam="1">  1       21 0.22712988E-01 0.25235460E+03</pdfrwt>
<pdfrwt beam="2">  1       21 0.11265392E+00 0.25235460E+03</pdfrwt>
<totfact> 0.10786531E+04</totfact>
</mgrwt>
</event>
<event>
 4    0  0.1495377E-001  0.3077277E+03  0.7546771E-02  0.1081440E+00
         21   -1    0    0  502  501  0.00000000000E+00  0.00000000000E+00  0.89228221986E+03  0.89228221986E+03  0.00000000000E+00 0.  1.
         21   -1    0    0  503  502 -0.00000000000E+00 -0.00000000000E+00 -0.10432051609E+03  0.10432051609E+03  0.00000000000E+00 0.  1.
         25    1    1    2    0    0  0.27211040355E+03  0.70903398137E+02  0.28022736025E+03  0.41620155817E+03  0.12500000000E+03 0.  0.
         21    1    1    2  503  501 -0.27211040355E+03 -0.70903398137E+02  0.50773434352E+03  0.58040117779E+03  0.00000000000E+00 0.  1.
<mgrwt>
<rscale>  3 0.30772774E+03</rscale>
<asrwt>0</asrwt>
<pdfrwt beam="1">  1       21 0.13727418E+00 0.30772774E+03</pdfrwt>
<pdfrwt beam="2">  1       21 0.16049311E-01 0.30772774E+03</pdfrwt>
<totfact> 0.12213709E+04</totfact>
</mgrwt>
</event>
<event>
 4    0  0.1495377E-001  0.3814517E+03  0.7546771E-02  0.1050399E+00
         21   -1    0    0  502  501  0.00000000000E+00  0.00000000000E+00  0.80247359847E+03  0.80247359847E+03  0.00000000000E+00 0.  1.
         21   -1    0    0  503  502 -0.00000000000E+00 -0.00000000000E+00 -0.18874660823E+03  0.18874660823E+03  0.00000000000E+00 0. -1.
         25    1    1    2    0    0  0.23542933129E+03  0.27286149339E+03  0.16478984114E+03  0.41552503697E+03  0.12500000000E+03 0.  0.
         21    1    1    2  503  501 -0.23542933129E+03 -0.27286149339E+03  0.44893714910E+03  0.57569516973E+03  0.00000000000E+00 0.  1.
<mgrwt>
<rscale>  3 0.38145165E+03</rscale>
<asrwt>0</asrwt>
<pdfrwt beam="1">  1       21 0.12345748E+00 0.38145165E+03</pdfrwt>
<pdfrwt beam="2">  1       21 0.29037940E-01 0.38145165E+03</pdfrwt>
<totfact> 0.50157706E+03</totfact>
</mgrwt>
</event>
<event>
 4    0  0.1495377E-001  0.2577086E+03  0.7546771E-02  0.1108528E+00
         21   -1    0    0  503  501  0.00000000000E+00  0.00000000000E+00  0.99329814261E+02  0.99329814261E+02  0.00000000000E+00 0.  1.
         21   -1    0    0  501  502 -0.00000000000E+00 -0.00000000000E+00 -0.67786346916E+03  0.67786346916E+03  0.00000000000E+00 0.  1.
         25    1    1    2    0    0  0.12368755562E+03 -0.18838822029E+03 -0.44778452364E+03  0.51664757095E+03  0.12500000000E+03 0.  0.
         21    1    1    2  503  502 -0.12368755562E+03  0.18838822029E+03 -0.13074913126E+03  0.26054571247E+03  0.00000000000E+00 0.  1.
<mgrwt>
<rscale>  3 0.25770862E+03</rscale>
<asrwt>0</asrwt>
<pdfrwt beam="1">  1       21 0.15281510E-01 0.25770862E+03</pdfrwt>
<pdfrwt beam="2">  1       21 0.10428668E+00 0.25770862E+03</pdfrwt>
<totfact> 0.27215777E+04</totfact>
</mgrwt>
</event>
<event>
 4    0  0.1495377E-001  0.2418463E+03  0.7546771E-02  0.1118569E+00
         21   -1    0    0  503  501  0.00000000000E+00  0.00000000000E+00  0.68781756410E+03  0.68781756410E+03  0.00000000000E+00 0. -1.
         21   -1    0    0  501  502 -0.00000000000E+00 -0.00000000000E+00 -0.53087291954E+03  0.53087291954E+03  0.00000000000E+00 0. -1.
         25    1    1    2    0    0  0.15818591914E+03  0.13357330171E+03 -0.48620775009E+03  0.54303553125E+03  0.12500000000E+03 0.  0.
         21    1    1    2  503  502 -0.15818591914E+03 -0.13357330171E+03  0.64315239466E+03  0.67565495240E+03  0.00000000000E+00 0. -1.
<mgrwt>
<rscale>  3 0.24184626E+03</rscale>
<asrwt>0</asrwt>
<pdfrwt beam="1">  1       21 0.10581809E+00 0.24184626E+03</pdfrwt>
<pdfrwt beam="2">  1       21 0.81672757E-01 0.24184626E+03</pdfrwt>
<totfact> 0.89897892E+02</totfact>
</mgrwt>
</event>
<event>
 4    0  0.1495377E-001  0.3196556E+03  0.7546771E-02  0.1075808E+00
         21   -1    0    0  502  501  0.00000000000E+00  0.00000000000E+00  0.12642582713E+03  0.12642582713E+03  0.00000000000E+00 0. -1.
         21   -1    0    0  503  502 -0.00000000000E+00 -0.00000000000E+00 -0.77313327396E+03  0.77313327396E+03  0.00000000000E+00 0. -1.
         25    1    1    2    0    0  0.23762055978E+03  0.17346812426E+03 -0.42178695957E+03  0.52922959085E+03  0.12500000000E+03 0.  0.
         21    1    1    2  503  501 -0.23762055978E+03 -0.17346812426E+03 -0.22492048726E+03  0.37032951024E+03  0.00000000000E+00 0. -1.
<mgrwt>
<rscale>  3 0.31965563E+03</rscale>
<asrwt>0</asrwt>
<pdfrwt beam="1">  1       21 0.19450127E-01 0.31965563E+03</pdfrwt>
<pdfrwt beam="2">  1       21 0.11894358E+00 0.31965563E+03</pdfrwt>
<totfact> 0.12241634E+04</totfact>
</mgrwt>
</event>
<event>
 4    0  0.1495377E-001  0.2383538E+03  0.7546771E-02  0.1120894E+00
         21   -1    0    0  502  501  0.00000000000E+00  0.00000000000E+00  0.96489082949E+02  0.96489082949E+02  0.00000000000E+00 0. -1.
         21   -1    0    0  503  502 -0.00000000000E+00 -0.00000000000E+00 -0.13874038829E+04  0.13874038829E+04  0.00000000000E+00 0. -1.
         25    1    1    2    0    0  0.44684219065E+02  0.19796685156E+03 -0.12554429752E+04  0.12778691708E+04  0.12500000000E+03 0.  0.
         21    1    1    2  503  501 -0.44684219065E+02 -0.19796685156E+03 -0.35471824701E+02  0.20602379498E+03  0.00000000000E+00 0. -1.
<mgrwt>
<rscale>  3 0.23835384E+03</rscale>
<asrwt>0</asrwt>
<pdfrwt beam="1">  1       21 0.14844474E-01 0.23835384E+03</pdfrwt>
<pdfrwt beam="2">  1       21 0.21344675E+00 0.23835384E+03</pdfrwt>
<totfact> 0.42380891E+03</totfact>
</mgrwt>
</event>
<event>
 4    0  0.1495377E-001  0.2427003E+03  0.7546771E-02  0.1118007E+00
         21   -1    0    0  503  501  0.00000000000E+00  0.00000000000E+00  0.37311055330E+02  0.37311055330E+02  0.00000000000E+00 0.  1.
         21   -1    0    0  501  502 -0.00000000000E+00 -0.00000000000E+00 -0.14172647145E+04  0.14172647145E+04  0.00000000000E+00 0. -1.
         25    1    1    2    0    0 -0.17682180306E+03  0.10960151133E+03 -0.88509338216E+03  0.91776562175E+03  0.12500000000E+03 0.  0.
         21    1    1    2  503  502  0.17682180306E+03 -0.10960151133E+03 -0.49486027704E+03  0.53681014811E+03  0.00000000000E+00 0.  1.
<mgrwt>
<rscale>  3 0.24270031E+03</rscale>
<asrwt>0</asrwt>
<pdfrwt beam="1">  1       21 0.57401625E-02 0.24270031E+03</pdfrwt>
<pdfrwt beam="2">  1       21 0.21804072E+00 0.24270031E+03</pdfrwt>
<totfact> 0.21213002E+04</totfact>
</mgrwt>
</event>
<event>
 4    0  0.1495377E-001  0.2406943E+03  0.7546771E-02  0.1119331E+00
         21   -1    0    0  502  501  0.00000000000E+00  0.00000000000E+00  0.19440149891E+04  0.19440149891E+04  0.00000000000E+00 0. -1.
         21   -1    0    0  503  502 -0.00000000000E+00 -0.00000000000E+00 -0.50333970182E+02  0.50333970182E+02  0.00000000000E+00 0. -1.
         25    1    1    2    0    0  0.20013102453E+03 -0.47500704993E+02  0.28706705488E+03  0.37462145954E+03  0.12500000000E+03 0.  0.
         21    1    1    2  503  501 -0.20013102453E+03  0.47500704993E+02  0.16066139640E+04  0.16197274997E+04  0.00000000000E+00 0. -1.
<mgrwt>
<rscale>  3 0.24069430E+03</rscale>
<asrwt>0</asrwt>
<pdfrwt beam="1">  1       21 0.29907917E+00 0.24069430E+03</pdfrwt>
<pdfrwt beam="2">  1       21 0.77436892E-02 0.24069430E+03</pdfrwt>
<totfact> 0.41696724E+03</totfact>
</mgrwt>
</event>
<event>
 4    0  0.1495377E-001  0.4888754E+03  0.7546771E-02  0.1016724E+00
         21   -1    0    0  503  501  0.00000000000E+00  0.00000000000E+00  0.10051560851E+04  0.10051560851E+04  0.00000000000E+00 0. -1.
         21   -1    0    0  501  502 -0.00000000000E+00 -0.00000000000E+00 -0.23865442652E+03  0.23865442652E+03  0.00000000000E+00 0.  1.
         25    1    1    2    0    0  0.20090079377E+03  0.42780020856E+03  0.27063534789E+03  0.55878675621E+03  0.12500000000E+03 0.  0.
         21    1    1    2  503  502 -0.20090079377E+03 -0.42780020856E+03  0.49586631068E+03  0.68502375539E+03  0.00000000000E+00 0. -1.
<mgrwt>
<rscale>  3 0.48887539E+03</rscale>
<asrwt>0</asrwt>
<pdfrwt beam="1">  1       21 0.15463940E+00 0.48887539E+03</pdfrwt>
<pdfrwt beam="2">  1       21 0.36716066E-01 0.48887539E+03</pdfrwt>
<totfact> 0.16564442E+03</totfact>
</mgrwt>
</event>
<event>
 4    0  0.1495377E-001  0.2822323E+03  0.7546771E-02  0.1094476E+00
         21   -1    0    0  502  501  0.00000000000E+00  0.00000000000E+00  0.39006598153E+03  0.39006598153E+03  0.00000000000E+00 0.  1.
         21   -1    0    0  503  502 -0.00000000000E+00 -0.00000000000E+00 -0.23238312897E+03  0.23238312897E+03  0.00000000000E+00 0.  1.
         25    1    1    2    0    0 -0.21283020702E+03 -0.13686992527E+03 -0.60138715676E+02  0.28856842964E+03  0.12500000000E+03 0.  0.
         21    1    1    2  503  501  0.21283020702E+03  0.13686992527E+03  0.21782156824E+03  0.33388068086E+03  0.00000000000E+00 0.  1.
<mgrwt>
<rscale>  3 0.28223230E+03</rscale>
<asrwt>0</asrwt>
<pdfrwt beam="1">  1       21 0.60010151E-01 0.28223230E+03</pdfrwt>
<pdfrwt beam="2">  1       21 0.35751251E-01 0.28223230E+03</pdfrwt>
<totfact> 0.18654328E+04</totfact>
</mgrwt>
</event>
<event>
 4    0  0.1495377E-001  0.2387599E+03  0.7546771E-02  0.1120622E+00
         21   -1    0    0  503  501  0.00000000000E+00  0.00000000000E+00  0.10863671737E+03  0.10863671737E+03  0.00000000000E+00 0.  1.
         21   -1    0    0  501  502 -0.00000000000E+00 -0.00000000000E+00 -0.53427535368E+03  0.53427535368E+03  0.00000000000E+00 0. -1.
         25    1    1    2    0    0  0.43902628301E+02 -0.19862997516E+03 -0.35450239749E+03  0.42740877112E+03  0.12500000000E+03 0.  0.
         21    1    1    2  503  502 -0.43902628301E+02  0.19862997516E+03 -0.71136238825E+02  0.21550329993E+03  0.00000000000E+00 0.  1.
<mgrwt>
<rscale>  3 0.23875994E+03</rscale>
<asrwt>0</asrwt>
<pdfrwt beam="1">  1       21 0.16713341E-01 0.23875994E+03</pdfrwt>
<pdfrwt beam="2">  1       21 0.82196209E-01 0.23875994E+03</pdfrwt>
<totfact> 0.40704516E+04</totfact>
</mgrwt>
</event>
<event>
 4    0  0.1495377E-001  0.3035751E+03  0.7546771E-02  0.1083467E+00
         21   -1    0    0  502  501  0.00000000000E+00  0.00000000000E+00  0.86255472906E+03  0.86255472906E+03  0.00000000000E+00 0.  1.
         21   -1    0    0  503  502 -0.00000000000E+00 -0.00000000000E+00 -0.11178953343E+03  0.11178953343E+03  0.00000000000E+00 0.  1.
         25    1    1    2    0    0  0.65594002790E+02 -0.26875683981E+03  0.21703541996E+03  0.37317849036E+03  0.12500000000E+03 0.  0.
         21    1    1    2  503  501 -0.65594002790E+02  0.26875683981E+03  0.53372977567E+03  0.60116577214E+03  0.00000000000E+00 0.  1.
<mgrwt>
<rscale>  3 0.30357505E+03</rscale>
<asrwt>0</asrwt>
<pdfrwt beam="1">  1       21 0.13270072E+00 0.30357505E+03</pdfrwt>
<pdfrwt beam="2">  1       21 0.17198390E-01 0.30357505E+03</pdfrwt>
<totfact> 0.11749565E+04</totfact>
</mgrwt>
</event>
<event>
 4    0  0.1495377E-001  0.2551348E+03  0.7546771E-02  0.1110102E+00
         21   -1    0    0  502  501  0.00000000000E+00  0.00000000000E+00  0.82894832341E+02  0.82894832341E+02  0.00000000000E+00 0.  1.
         21   -1    0    0  503  502 -0.00000000000E+00 -0.00000000000E+00 -0.69002919646E+03  0.69002919646E+03  0.00000000000E+00 0.  1.
         25    1    1    2    0    0  0.19806371716E+03 -0.10119053843E+03 -0.34629766884E+03  0.43013467260E+03  0.12500000000E+03 0.  0.
         21    1    1    2  503  501 -0.19806371716E+03  0.10119053843E+03 -0.26083669528E+03  0.34278935621E+03  0.00000000000E+00 0.  1.
<mgrwt>
<rscale>  3 0.25513479E+03</rscale>
<asrwt>0</asrwt>
<pdfrwt beam="1">  1       21 0.12753051E-01 0.25513479E+03</pdfrwt>
<pdfrwt beam="2">  1       21 0.10615834E+00 0.25513479E+03</pdfrwt>
<totfact> 0.36288545E+04</totfact>
</mgrwt>
</event>
<event>
 4    0  0.1495377E-001  0.2471670E+03  0.7546771E-02  0.1115108E+00
         21   -1    0    0  503  501  0.00000000000E+00  0.00000000000E+00  0.17850355433E+03  0.17850355433E+03  0.00000000000E+00 0.  1.
         21   -1    0    0  501  502 -0.00000000000E+00 -0.00000000000E+00 -0.33780272256E+03  0.33780272256E+03  0.00000000000E+00 0.  1.
         25    1    1    2    0    0  0.12430791719E+03  0.17324571970E+03 -0.17446536543E+03  0.30253876017E+03  0.12500000000E+03 0.  0.
         21    1    1    2  503  502 -0.12430791719E+03 -0.17324571970E+03  0.15166197198E+02  0.21376751673E+03  0.00000000000E+00 0.  1.
<mgrwt>
<rscale>  3 0.24716702E+03</rscale>
<asrwt>0</asrwt>
<pdfrwt beam="1">  1       21 0.27462086E-01 0.24716702E+03</pdfrwt>
<pdfrwt beam="2">  1       21 0.51969649E-01 0.24716702E+03</pdfrwt>
<totfact> 0.43346901E+04</totfact>
</mgrwt>
</event>
<event>
 4    0  0.1495377E-001  0.2392072E+03  0.7546771E-02  0.1120322E+00
         21   -1    0    0  503  501  0.00000000000E+00  0.00000000000E+00  0.46851565839E+02  0.46851565839E+02  0.00000000000E+00 0.  1.
         21   -1    0    0  501  502 -0.00000000000E+00 -0.00000000000E+00 -0.10962356505E+04  0.10962356505E+04  0.00000000000E+00 0.  1.
         25    1    1    2    0    0  0.43676854487E+02  0.19921701054E+03 -0.44497519940E+03  0.50519601442E+03  0.12500000000E+03 0.  0.
         21    1    1    2  503  502 -0.43676854487E+02 -0.19921701054E+03 -0.60440888531E+03  0.63789120197E+03  0.00000000000E+00 0.  1.
<mgrwt>
<rscale>  3 0.23920720E+03</rscale>
<asrwt>0</asrwt>
<pdfrwt beam="1">  1       21 0.72079336E-02 0.23920720E+03</pdfrwt>
<pdfrwt beam="2">  1       21 0.16865163E+00 0.23920720E+03</pdfrwt>
<totfact> 0.30487346E+04</totfact>
</mgrwt>
</event>
<event>
 4    0  0.1495377E-001  0.2385393E+03  0.7546771E-02  0.1120770E+00
         21   -1    0    0  502  501  0.00000000000E+00  0.00000000000E+00  0.33535628921E+03  0.33535628921E+03  0.00000000000E+00 0.  1.
         21   -1    0    0  503  502 -0.00000000000E+00 -0.00000000000E+00 -0.18516988029E+03  0.18516988029E+03  0.00000000000E+00 0.  1.
         25    1    1    2    0    0  0.63831918094E+02  0.19287685843E+03 -0.40427746483E+02  0.24194089975E+03  0.12500000000E+03 0.  0.
         21    1    1    2  503  501 -0.63831918094E+02 -0.19287685843E+03  0.19061415540E+03  0.27858526975E+03  0.00000000000E+00 0.  1.
<mgrwt>
<rscale>  3 0.23853930E+03</rscale>
<asrwt>0</asrwt>
<pdfrwt beam="1">  1       21 0.51593275E-01 0.23853930E+03</pdfrwt>
<pdfrwt beam="2">  1       21 0.28487674E-01 0.23853930E+03</pdfrwt>
<totfact> 0.41136774E+04</totfact>
</mgrwt>
</event>
<event>
 4    0  0.1495377E-001  0.2718955E+03  0.7546771E-02  0.1100200E+00
         21   -1    0    0  502  501  0.00000000000E+00  0.00000000000E+00  0.33051677767E+03  0.33051677767E+03  0.00000000000E+00 0. -1.
         21   -1    0    0  503  502 -0.00000000000E+00 -0.00000000000E+00 -0.19934977338E+03  0.19934977338E+03  0.00000000000E+00 0. -1.
         25    1    1    2    0    0  0.19404146522E+03 -0.14370131533E+03  0.67079531723E+02  0.28004789203E+03  0.12500000000E+03 0.  0.
         21    1    1    2  503  501 -0.19404146522E+03  0.14370131533E+03  0.64087472567E+02  0.24981865902E+03  0.00000000000E+00 0. -1.
<mgrwt>
<rscale>  3 0.27189549E+03</rscale>
<asrwt>0</asrwt>
<pdfrwt beam="1">  1       21 0.50848735E-01 0.27189549E+03</pdfrwt>
<pdfrwt beam="2">  1       21 0.30669196E-01 0.27189549E+03</pdfrwt>
<totfact> 0.36209236E+04</totfact>
</mgrwt>
</event>
<event>
 4    0  0.1495377E-001  0.5140552E+03  0.7546771E-02  0.1010174E+00
         21   -1    0    0  502  501  0.00000000000E+00  0.00000000000E+00  0.47046508966E+03  0.47046508966E+03  0.00000000000E+00 0.  1.
         21   -1    0    0  503  502 -0.00000000000E+00 -0.00000000000E+00 -0.87225783329E+03  0.87225783329E+03  0.00000000000E+00 0. -1.
         25    1    1    2    0    0  0.11279185274E+03  0.48570130999E+03 -0.61403372481E+03  0.80080595638E+03  0.12500000000E+03 0.  0.
         21    1    1    2  503  501 -0.11279185274E+03 -0.48570130999E+03  0.21224098117E+03  0.54191696657E+03  0.00000000000E+00 0.  1.
<mgrwt>
<rscale>  3 0.51405522E+03</rscale>
<asrwt>0</asrwt>
<pdfrwt beam="1">  1       21 0.72379245E-01 0.51405522E+03</pdfrwt>
<pdfrwt beam="2">  1       21 0.13419351E+00 0.51405522E+03</pdfrwt>
<totfact> 0.55957055E+02</totfact>
</mgrwt>
</event>
<event>
 4    0  0.1495377E-001  0.2385877E+03  0.7546771E-02  0.1120737E+00
         21   -1    0    0  502  501  0.00000000000E+00  0.00000000000E+00  0.16000547761E+03  0.16000547761E+03  0.00000000000E+00 0.  1.
         21   -1    0    0  503  502 -0.00000000000E+00 -0.00000000000E+00 -0.12241994607E+04  0.12241994607E+04  0.00000000000E+00 0.  1.
         25    1    1    2    0    0  0.69667106582E+02 -0.19090728064E+03 -0.11419558382E+04  0.11666135743E+04  0.12500000000E+03 0.  0.
         21    1    1    2  503  501 -0.69667106582E+02  0.19090728064E+03  0.77761855112E+02  0.21759136392E+03  0.00000000000E+00 0.  1.
<mgrwt>
<rscale>  3 0.23858771E+03</rscale>
<asrwt>0</asrwt>
<pdfrwt beam="1">  1       21 0.24616227E-01 0.23858771E+03</pdfrwt>
<pdfrwt beam="2">  1       21 0.18833838E+00 0.23858771E+03</pdfrwt>
<totfact> 0.23929407E+03</totfact>
</mgrwt>
</event>
<event>
 4    0  0.1495377E-001  0.2493622E+03  0.7546771E-02  0.1113709E+00
         21   -1    0    0  502  501  0.00000000000E+00  0.00000000000E+00  0.14468552808E+03  0.14468552808E+03  0.00000000000E+00 0. -1.
         21   -1    0    0  503  502 -0.00000000000E+00 -0.00000000000E+00 -0.93034545585E+03  0.93034545585E+03  0.00000000000E+00 0. -1.
         25    1    1    2    0    0 -0.21574562537E+03 -0.32166199141E+01 -0.81952240161E+03  0.85662038748E+03  0.12500000000E+03 0.  0.
         21    1    1    2  503  501  0.21574562537E+03  0.32166199141E+01  0.33862473838E+02  0.21841059645E+03  0.00000000000E+00 0. -1.
<mgrwt>
<rscale>  3 0.24936223E+03</rscale>
<asrwt>0</asrwt>
<pdfrwt beam="1">  1       21 0.22259313E-01 0.24936223E+03</pdfrwt>
<pdfrwt beam="2">  1       21 0.14313007E+00 0.24936223E+03</pdfrwt>
<totfact> 0.61217060E+03</totfact>
</mgrwt>
</event>
<event>
 4    0  0.1495377E-001  0.3119371E+03  0.7546771E-02  0.1079421E+00
         21   -1    0    0  503  501  0.00000000000E+00  0.00000000000E+00  0.12696404026E+03  0.12696404026E+03  0.00000000000E+00 0. -1.
         21   -1    0    0  501  502 -0.00000000000E+00 -0.00000000000E+00 -0.70382390361E+03  0.70382390361E+03  0.00000000000E+00 0. -1.
         25    1    1    2    0    0 -0.27695857042E+03  0.70524417211E+02 -0.29237812343E+03  0.42753913296E+03  0.12500000000E+03 0.  0.
         21    1    1    2  503  502  0.27695857042E+03 -0.70524417211E+02 -0.28448173991E+03  0.40324881091E+03  0.00000000000E+00 0. -1.
<mgrwt>
<rscale>  3 0.31193708E+03</rscale>
<asrwt>0</asrwt>
<pdfrwt beam="1">  1       21 0.19532929E-01 0.31193708E+03</pdfrwt>
<pdfrwt beam="2">  1       21 0.10828060E+00 0.31193708E+03</pdfrwt>
<totfact> 0.15367023E+04</totfact>
</mgrwt>
</event>
<event>
 4    0  0.1495377E-001  0.2687839E+03  0.7546771E-02  0.1101978E+00
         21   -1    0    0  502  501  0.00000000000E+00  0.00000000000E+00  0.52178634495E+03  0.52178634495E+03  0.00000000000E+00 0. -1.
         21   -1    0    0  503  502 -0.00000000000E+00 -0.00000000000E+00 -0.14504463631E+03  0.14504463631E+03  0.00000000000E+00 0. -1.
         25    1    1    2    0    0 -0.48756031822E+02  0.23290052359E+03  0.68398726664E+02  0.27735030257E+03  0.12500000000E+03 0.  0.
         21    1    1    2  503  501  0.48756031822E+02 -0.23290052359E+03  0.30834298198E+03  0.38948067868E+03  0.00000000000E+00 0. -1.
<mgrwt>
<rscale>  3 0.26878394E+03</rscale>
<asrwt>0</asrwt>
<pdfrwt beam="1">  1       21 0.80274821E-01 0.26878394E+03</pdfrwt>
<pdfrwt beam="2">  1       21 0.22314560E-01 0.26878394E+03</pdfrwt>
<totfact> 0.24670815E+04</totfact>
</mgrwt>
</event>
<event>
 4    0  0.1495377E-001  0.2444844E+03  0.7546771E-02  0.1116841E+00
         21   -1    0    0  502  501  0.00000000000E+00  0.00000000000E+00  0.65684836587E+02  0.65684836587E+02  0.00000000000E+00 0.  1.
         21   -1    0    0  503  502 -0.00000000000E+00 -0.00000000000E+00 -0.15584193655E+04  0.15584193655E+04  0.00000000000E+00 0.  1.
         25    1    1    2    0    0  0.62479288928E+02  0.20060897204E+03 -0.13455182311E+04  0.13675496084E+04  0.12500000000E+03 0.  0.
         21    1    1    2  503  501 -0.62479288928E+02 -0.20060897204E+03 -0.14721629785E+03  0.25655459373E+03  0.00000000000E+00 0.  1.
<mgrwt>
<rscale>  3 0.24448440E+03</rscale>
<asrwt>0</asrwt>
<pdfrwt beam="1">  1       21 0.10105359E-01 0.24448440E+03</pdfrwt>
<pdfrwt beam="2">  1       21 0.23975685E+00 0.24448440E+03</pdfrwt>
<totfact> 0.58122636E+03</totfact>
</mgrwt>
</event>
<event>
 4    0  0.1495377E-001  0.2824790E+03  0.7546771E-02  0.1094343E+00
         21   -1    0    0  502  501  0.00000000000E+00  0.00000000000E+00  0.41739868481E+03  0.41739868481E+03  0.00000000000E+00 0. -1.
         21   -1    0    0  503  502 -0.00000000000E+00 -0.00000000000E+00 -0.19575324265E+03  0.19575324265E+03  0.00000000000E+00 0. -1.
         25    1    1    2    0    0 -0.14770396767E+03 -0.20579819672E+03  0.93410251910E+01  0.28263335718E+03  0.12500000000E+03 0.  0.
         21    1    1    2  503  501  0.14770396767E+03  0.20579819672E+03  0.21230441696E+03  0.33051857028E+03  0.00000000000E+00 0. -1.
<mgrwt>
<rscale>  3 0.28247895E+03</rscale>
<asrwt>0</asrwt>
<pdfrwt beam="1">  1       21 0.64215182E-01 0.28247895E+03</pdfrwt>
<pdfrwt beam="2">  1       21 0.30115884E-01 0.28247895E+03</pdfrwt>
<totfact> 0.22629169E+04</totfact>
</mgrwt>
</event>
<event>
 4    0  0.1495377E-001  0.3272423E+03  0.7546771E-02  0.1072364E+00
         21   -1    0    0  503  501  0.00000000000E+00  0.00000000000E+00  0.12028899944E+03  0.12028899944E+03  0.00000000000E+00 0. -1.
         21   -1    0    0  501  502 -0.00000000000E+00 -0.00000000000E+00 -0.11353162513E+04  0.11353162513E+04  0.00000000000E+00 0. -1.
         25    1    1    2    0    0 -0.19171329794E+03 -0.23389859324E+03 -0.85058175937E+03  0.91135990141E+03  0.12500000000E+03 0.  0.
         21    1    1    2  503  502  0.19171329794E+03  0.23389859324E+03 -0.16444549249E+03  0.34424534932E+03  0.00000000000E+00 0. -1.
<mgrwt>
<rscale>  3 0.32724233E+03</rscale>
<asrwt>0</asrwt>
<pdfrwt beam="1">  1       21 0.18506000E-01 0.32724233E+03</pdfrwt>
<pdfrwt beam="2">  1       21 0.17466404E+00 0.32724233E+03</pdfrwt>
<totfact> 0.48185664E+03</totfact>
</mgrwt>
</event>
<event>
 4    0  0.1495377E-001  0.2699601E+03  0.7546771E-02  0.1101302E+00
         21   -1    0    0  502  501  0.00000000000E+00  0.00000000000E+00  0.29069894064E+03  0.29069894064E+03  0.00000000000E+00 0. -1.
         21   -1    0    0  503  502 -0.00000000000E+00 -0.00000000000E+00 -0.18289041733E+04  0.18289041733E+04  0.00000000000E+00 0. -1.
         25    1    1    2    0    0 -0.20988129155E+03 -0.11490556747E+03 -0.17676192015E+04  0.17881152333E+04  0.12500000000E+03 0.  0.
         21    1    1    2  503  501  0.20988129155E+03  0.11490556747E+03  0.22941396879E+03  0.33148788071E+03  0.00000000000E+00 0. -1.
<mgrwt>
<rscale>  3 0.26996008E+03</rscale>
<asrwt>0</asrwt>
<pdfrwt beam="1">  1       21 0.44722915E-01 0.26996008E+03</pdfrwt>
<pdfrwt beam="2">  1       21 0.28136987E+00 0.26996008E+03</pdfrwt>
<totfact> 0.19004249E+02</totfact>
</mgrwt>
</event>
<event>
 4    0  0.1495377E-001  0.2741396E+03  0.7546771E-02  0.1098934E+00
         21   -1    0    0  503  501  0.00000000000E+00  0.00000000000E+00  0.53711902320E+02  0.53711902320E+02  0.00000000000E+00 0. -1.
         21   -1    0    0  501  502 -0.00000000000E+00 -0.00000000000E+00 -0.12532655638E+04  0.12532655638E+04  0.00000000000E+00 0. -1.
         25    1    1    2    0    0 -0.15822050342E+03  0.18572506749E+03 -0.67037264497E+03  0.72425962991E+03  0.12500000000E+03 0.  0.
         21    1    1    2  503  502  0.15822050342E+03 -0.18572506749E+03 -0.52918101646E+03  0.58271783616E+03  0.00000000000E+00 0. -1.
<mgrwt>
<rscale>  3 0.27413961E+03</rscale>
<asrwt>0</asrwt>
<pdfrwt beam="1">  1       21 0.82633698E-02 0.27413961E+03</pdfrwt>
<pdfrwt beam="2">  1       21 0.19281008E+00 0.27413961E+03</pdfrwt>
<totfact> 0.16063013E+04</totfact>
</mgrwt>
</event>
<event>
 4    0  0.1495377E-001  0.2551225E+03  0.7546771E-02  0.1110110E+00
         21   -1    0    0  502  501  0.00000000000E+00  0.00000000000E+00  0.62823700747E+03  0.62823700747E+03  0.00000000000E+00 0.  1.
         21   -1    0    0  503  502 -0.00000000000E+00 -0.00000000000E+00 -0.92180462447E+02  0.92180462447E+02  0.00000000000E+00 0.  1.
         25    1    1    2    0    0 -0.65319102117E+02 -0.21259323192E+03  0.24121004398E+03  0.35109792462E+03  0.12500000000E+03 0.  0.
         21    1    1    2  503  501  0.65319102117E+02  0.21259323192E+03  0.29484650105E+03  0.36931954530E+03  0.00000000000E+00 0.  1.
<mgrwt>
<rscale>  3 0.25512246E+03</rscale>
<asrwt>0</asrwt>
<pdfrwt beam="1">  1       21 0.96651844E-01 0.25512246E+03</pdfrwt>
<pdfrwt beam="2">  1       21 0.14181610E-01 0.25512246E+03</pdfrwt>
<totfact> 0.37478788E+04</totfact>
</mgrwt>
</event>
<event>
 4    0  0.1495377E-001  0.2476479E+03  0.7546771E-02  0.1114800E+00
         21   -1    0    0  503  501  0.00000000000E+00  0.00000000000E+00  0.80597690609E+02  0.80597690609E+02  0.00000000000E+00 0.  1.
         21   -1    0    0  501  502 -0.00000000000E+00 -0.00000000000E+00 -0.89020810219E+03  0.89020810219E+03  0.00000000000E+00 0.  1.
         25    1    1    2    0    0 -0.36315186458E+01 -0.21375519243E+03 -0.67295335896E+03  0.71707439890E+03  0.12500000000E+03 0.  0.
         21    1    1    2  503  502  0.36315186458E+01  0.21375519243E+03 -0.13665705262E+03  0.25373139390E+03  0.00000000000E+00 0.  1.
<mgrwt>
<rscale>  3 0.24764788E+03</rscale>
<asrwt>0</asrwt>
<pdfrwt beam="1">  1       21 0.12399645E-01 0.24764788E+03</pdfrwt>
<pdfrwt beam="2">  1       21 0.13695509E+00 0.24764788E+03</pdfrwt>
<totfact> 0.20278514E+04</totfact>
</mgrwt>
</event>
<event>
 4    0  0.1495377E-001  0.2560941E+03  0.7546771E-02  0.1109513E+00
         21   -1    0    0  503  501  0.00000000000E+00  0.00000000000E+00  0.47628287216E+03  0.47628287216E+03  0.00000000000E+00 0. -1.
         21   -1    0    0  501  502 -0.00000000000E+00 -0.00000000000E+00 -0.12257318194E+03  0.12257318194E+03  0.00000000000E+00 0. -1.
         25    1    1    2    0    0  0.20909822117E+03  0.78975393127E+02  0.22522454315E+03  0.34104292054E+03  0.12500000000E+03 0.  0.
         21    1    1    2  503  502 -0.20909822117E+03 -0.78975393127E+02  0.12848514707E+03  0.25781313356E+03  0.00000000000E+00 0. -1.
<mgrwt>
<rscale>  3 0.25609408E+03</rscale>
<asrwt>0</asrwt>
<pdfrwt beam="1">  1       21 0.73274287E-01 0.25609408E+03</pdfrwt>
<pdfrwt beam="2">  1       21 0.18857413E-01 0.25609408E+03</pdfrwt>
<totfact> 0.41876892E+04</totfact>
</mgrwt>
</event>
<event>
 4    0  0.1495377E-001  0.3593468E+03  0.7546771E-02  0.1058843E+00
         21   -1    0    0  502  501  0.00000000000E+00  0.00000000000E+00  0.44262922861E+03  0.44262922861E+03  0.00000000000E+00 0.  1.
         21   -1    0    0  503  502 -0.00000000000E+00 -0.00000000000E+00 -0.46109222044E+03  0.46109222044E+03  0.00000000000E+00 0.  1.
         25    1    1    2    0    0 -0.16871800278E+03  0.29161511146E+03 -0.29730506491E+03  0.46639086538E+03  0.12500000000E+03 0.  0.
         21    1    1    2  503  501  0.16871800278E+03 -0.29161511146E+03  0.27884207308E+03  0.43733058367E+03  0.00000000000E+00 0.  1.
<mgrwt>
<rscale>  3 0.35934682E+03</rscale>
<asrwt>0</asrwt>
<pdfrwt beam="1">  1       21 0.68096805E-01 0.35934682E+03</pdfrwt>
<pdfrwt beam="2">  1       21 0.70937264E-01 0.35934682E+03</pdfrwt>
<totfact> 0.31996262E+03</totfact>
</mgrwt>
</event>
<event>
 4    0  0.1495377E-001  0.2512026E+03  0.7546771E-02  0.1112547E+00
         21   -1    0    0  502  501  0.00000000000E+00  0.00000000000E+00  0.32026698573E+03  0.32026698573E+03  0.00000000000E+00 0. -1.
         21   -1    0    0  503  502 -0.00000000000E+00 -0.00000000000E+00 -0.17187660986E+03  0.17187660986E+03  0.00000000000E+00 0. -1.
         25    1    1    2    0    0  0.21643982714E+03  0.25130394563E+02  0.73401926366E+02  0.26170704671E+03  0.12500000000E+03 0.  0.
         21    1    1    2  503  501 -0.21643982714E+03 -0.25130394563E+02  0.74988449512E+02  0.23043654888E+03  0.00000000000E+00 0. -1.
<mgrwt>
<rscale>  3 0.25120258E+03</rscale>
<asrwt>0</asrwt>
<pdfrwt beam="1">  1       21 0.49271844E-01 0.25120258E+03</pdfrwt>
<pdfrwt beam="2">  1       21 0.26442556E-01 0.25120258E+03</pdfrwt>
<totfact> 0.52088630E+04</totfact>
</mgrwt>
</event>
<event>
 4    0  0.1495377E-001  0.3491978E+03  0.7546771E-02  0.1062945E+00
         21   -1    0    0  503  501  0.00000000000E+00  0.00000000000E+00  0.28402903386E+03  0.28402903386E+03  0.00000000000E+00 0.  1.
         21   -1    0    0  501  502 -0.00000000000E+00 -0.00000000000E+00 -0.40166493974E+03  0.40166493974E+03  0.00000000000E+00 0.  1.
         25    1    1    2    0    0 -0.32572659534E+03 -0.14706718063E+02 -0.70549464313E+02  0.35625318158E+03  0.12500000000E+03 0.  0.
         21    1    1    2  503  502  0.32572659534E+03  0.14706718063E+02 -0.47086441564E+02  0.32944079202E+03  0.00000000000E+00 0.  1.
<mgrwt>
<rscale>  3 0.34919780E+03</rscale>
<asrwt>0</asrwt>
<pdfrwt beam="1">  1       21 0.43696775E-01 0.34919780E+03</pdfrwt>
<pdfrwt beam="2">  1       21 0.61794605E-01 0.34919780E+03</pdfrwt>
<totfact> 0.11311045E+04</totfact>
</mgrwt>
</event>
<event>
 4    0  0.1495377E-001  0.2389243E+03  0.7546771E-02  0.1120511E+00
         21   -1    0    0  503  501  0.00000000000E+00  0.00000000000E+00  0.52444305817E+03  0.52444305817E+03  0.00000000000E+00 0.  1.
         21   -1    0    0  501  502 -0.00000000000E+00 -0.00000000000E+00 -0.14704979720E+03  0.14704979720E+03  0.00000000000E+00 0. -1.
         25    1    1    2    0    0 -0.15477229011E+03  0.13230788272E+03 -0.42132802568E+01  0.23896148088E+03  0.12500000000E+03 0.  0.
         21    1    1    2  503  502  0.15477229011E+03 -0.13230788272E+03  0.38160654123E+03  0.43253137449E+03  0.00000000000E+00 0.  1.
<mgrwt>
<rscale>  3 0.23892433E+03</rscale>
<asrwt>0</asrwt>
<pdfrwt beam="1">  1       21 0.80683546E-01 0.23892433E+03</pdfrwt>
<pdfrwt beam="2">  1       21 0.22623046E-01 0.23892433E+03</pdfrwt>
<totfact> 0.24088705E+04</totfact>
</mgrwt>
</event>
<event>
 4    0  0.1495377E-001  0.2503641E+03  0.7546771E-02  0.1113075E+00
         21   -1    0    0  503  501  0.00000000000E+00  0.00000000000E+00  0.23220408573E+02  0.23220408573E+02  0.00000000000E+00 0.  1.
         21   -1    0    0  501  502 -0.00000000000E+00 -0.00000000000E+00 -0.35509346100E+04  0.35509346100E+04  0.00000000000E+00 0.  1.
         25    1    1    2    0    0  0.65156070682E+02  0.20691026877E+03 -0.28845214387E+04  0.28953663158E+04  0.12500000000E+03 0.  0.
         21    1    1    2  503  502 -0.65156070682E+02 -0.20691026877E+03 -0.64319276278E+03  0.67878870274E+03  0.00000000000E+00 0.  1.
<mgrwt>
<rscale>  3 0.25036408E+03</rscale>
<asrwt>0</asrwt>
<pdfrwt beam="1">  1       21 0.35723719E-02 0.25036408E+03</pdfrwt>
<pdfrwt beam="2">  1       21 0.54629743E+00 0.25036408E+03</pdfrwt>
<totfact> 0.38103085E+02</totfact>
</mgrwt>
</event>
<event>
 4    0  0.1495377E-001  0.3123890E+03  0.7546771E-02  0.1079206E+00
         21   -1    0    0  502  501  0.00000000000E+00  0.00000000000E+00  0.24387017454E+03  0.24387017454E+03  0.00000000000E+00 0.  1.
         21   -1    0    0  503  502 -0.00000000000E+00 -0.00000000000E+00 -0.37825935225E+03  0.37825935225E+03  0.00000000000E+00 0.  1.
         25    1    1    2    0    0  0.22740339535E+03 -0.17392412892E+03 -0.12263526809E+03  0.33559844430E+03  0.12500000000E+03 0.  0.
         21    1    1    2  503  501 -0.22740339535E+03  0.17392412892E+03 -0.11753909623E+02  0.28653108248E+03  0.00000000000E+00 0.  1.
<mgrwt>
<rscale>  3 0.31238903E+03</rscale>
<asrwt>0</asrwt>
<pdfrwt beam="1">  1       21 0.37518488E-01 0.31238903E+03</pdfrwt>
<pdfrwt beam="2">  1       21 0.58193747E-01 0.31238903E+03</pdfrwt>
<totfact> 0.17868193E+04</totfact>
</mgrwt>
</event>
<event>
 4    0  0.1495377E-001  0.3294545E+03  0.7546771E-02  0.1071378E+00
         21   -1    0    0  503  501  0.00000000000E+00  0.00000000000E+00  0.97111836837E+03  0.97111836837E+03  0.00000000000E+00 0.  1.
         21   -1    0    0  501  502 -0.00000000000E+00 -0.00000000000E+00 -0.10412860647E+03  0.10412860647E+03  0.00000000000E+00 0.  1.
         25    1    1    2    0    0 -0.84572780528E+02  0.29285272775E+03  0.41079610858E+03  0.52658685721E+03  0.12500000000E+03 0.  0.
         21    1    1    2  503  502  0.84572780528E+02 -0.29285272775E+03  0.45619365332E+03  0.54866011763E+03  0.00000000000E+00 0.  1.
<mgrwt>
<rscale>  3 0.32945451E+03</rscale>
<asrwt>0</asrwt>
<pdfrwt beam="1">  1       21 0.14940282E+00 0.32945451E+03</pdfrwt>
<pdfrwt beam="2">  1       21 0.16019786E-01 0.32945451E+03</pdfrwt>
<totfact> 0.96972210E+03</totfact>
</mgrwt>
</event>
<event>
 4    0  0.1495377E-001  0.3911079E+03  0.7546771E-02  0.1046903E+00
         21   -1    0    0  502  501  0.00000000000E+00  0.00000000000E+00  0.64395147944E+03  0.64395147944E+03  0.00000000000E+00 0.  1.
         21   -1    0    0  503  502 -0.00000000000E+00 -0.00000000000E+00 -0.23386566039E+03  0.23386566039E+03  0.00000000000E+00 0.  1.
         25    1    1    2    0    0  0.26453507415E+03 -0.25954111366E+03  0.29459319891E+03  0.48964328646E+03  0.12500000000E+03 0.  0.
         21    1    1    2  503  501 -0.26453507415E+03  0.25954111366E+03  0.11549262013E+03  0.38817385337E+03  0.00000000000E+00 0.  1.
<mgrwt>
<rscale>  3 0.39110791E+03</rscale>
<asrwt>0</asrwt>
<pdfrwt beam="1">  1       21 0.99069458E-01 0.39110791E+03</pdfrwt>
<pdfrwt beam="2">  1       21 0.35979333E-01 0.39110791E+03</pdfrwt>
<totfact> 0.56170788E+03</totfact>
</mgrwt>
</event>
<event>
 4    0  0.1495377E-001  0.2752076E+03  0.7546771E-02  0.1098336E+00
         21   -1    0    0  503  501  0.00000000000E+00  0.00000000000E+00  0.48482189651E+03  0.48482189651E+03  0.00000000000E+00 0.  1.
         21   -1    0    0  501  502 -0.00000000000E+00 -0.00000000000E+00 -0.47500345761E+03  0.47500345761E+03  0.00000000000E+00 0. -1.
         25    1    1    2    0    0  0.88117153508E+02 -0.22880037905E+03 -0.39805662339E+03  0.48393007927E+03  0.12500000000E+03 0.  0.
         21    1    1    2  503  502 -0.88117153508E+02  0.22880037905E+03  0.40787506229E+03  0.47589527486E+03  0.00000000000E+00 0.  1.
<mgrwt>
<rscale>  3 0.27520764E+03</rscale>
<asrwt>0</asrwt>
<pdfrwt beam="1">  1       21 0.74587984E-01 0.27520764E+03</pdfrwt>
<pdfrwt beam="2">  1       21 0.73077455E-01 0.27520764E+03</pdfrwt>
<totfact> 0.25507647E+03</totfact>
</mgrwt>
</event>
<event>
 4    0  0.1495377E-001  0.2674523E+03  0.7546771E-02  0.1102747E+00
         21   -1    0    0  503  501  0.00000000000E+00  0.00000000000E+00  0.73695126180E+02  0.73695126180E+02  0.00000000000E+00 0. -1.
         21   -1    0    0  501  502 -0.00000000000E+00 -0.00000000000E+00 -0.10921299349E+04  0.10921299349E+04  0.00000000000E+00 0. -1.
         25    1    1    2    0    0 -0.35605957190E+02 -0.23374763934E+03 -0.26637961996E+03  0.37747694634E+03  0.12500000000E+03 0.  0.
         21    1    1    2  503  502  0.35605957190E+02  0.23374763934E+03 -0.75205518872E+03  0.78834811470E+03  0.00000000000E+00 0. -1.
<mgrwt>
<rscale>  3 0.26745232E+03</rscale>
<asrwt>0</asrwt>
<pdfrwt beam="1">  1       21 0.11337711E-01 0.26745232E+03</pdfrwt>
<pdfrwt beam="2">  1       21 0.16802000E+00 0.26745232E+03</pdfrwt>
<totfact> 0.13630688E+04</totfact>
</mgrwt>
</event>
<event>
 4    0  0.1495377E-001  0.2822879E+03  0.7546771E-02  0.1094446E+00
         21   -1    0    0  503  501  0.00000000000E+00  0.00000000000E+00  0.48117565281E+03  0.48117565281E+03  0.00000000000E+00 0. -1.
         21   -1    0    0  501  502 -0.00000000000E+00 -0.00000000000E+00 -0.73206036217E+03  0.73206036217E+03  0.00000000000E+00 0.  1.
         25    1    1    2    0    0  0.94393310112E+02 -0.23484324796E+03 -0.66807824660E+03  0.72526890991E+03  0.12500000000E+03 0.  0.
         21    1    1    2  503  502 -0.94393310112E+02  0.23484324796E+03  0.41719353724E+03  0.48796710506E+03  0.00000000000E+00 0. -1.
<mgrwt>
<rscale>  3 0.28228788E+03</rscale>
<asrwt>0</asrwt>
<pdfrwt beam="1">  1       21 0.74027024E-01 0.28228788E+03</pdfrwt>
<pdfrwt beam="2">  1       21 0.11262467E+00 0.28228788E+03</pdfrwt>
<totfact> 0.93550900E+02</totfact>
</mgrwt>
</event>
<event>
 4    0  0.1495377E-001  0.3059418E+03  0.7546771E-02  0.1082308E+00
         21   -1    0    0  503  501  0.00000000000E+00  0.00000000000E+00  0.10454677018E+04  0.10454677018E+04  0.00000000000E+00 0.  1.
         21   -1    0    0  501  502 -0.00000000000E+00 -0.00000000000E+00 -0.98678643674E+02  0.98678643674E+02  0.00000000000E+00 0.  1.
         25    1    1    2    0    0  0.42543447051E+02 -0.27598088318E+03  0.25553312975E+03  0.39861958453E+03  0.12500000000E+03 0.  0.
         21    1    1    2  503  502 -0.42543447051E+02  0.27598088318E+03  0.69125592833E+03  0.74552676090E+03  0.00000000000E+00 0.  1.
<mgrwt>
<rscale>  3 0.30594181E+03</rscale>
<asrwt>0</asrwt>
<pdfrwt beam="1">  1       21 0.16084118E+00 0.30594181E+03</pdfrwt>
<pdfrwt beam="2">  1       21 0.15181331E-01 0.30594181E+03</pdfrwt>
<totfact> 0.88643286E+03</totfact>
</mgrwt>
</event>
<event>
 4    0  0.1495377E-001  0.2777521E+03  0.7546771E-02  0.1096923E+00
         21   -1    0    0  503  501  0.00000000000E+00  0.00000000000E+00  0.44298047335E+03  0.44298047335E+03  0.00000000000E+00 0.  1.
         21   -1    0    0  501  502 -0.00000000000E+00 -0.00000000000E+00 -0.16493300332E+03  0.16493300332E+03  0.00000000000E+00 0.  1.
         25    1    1    2    0    0 -0.34187822717E+02  0.24566727686E+03  0.75896213213E+02  0.28793480741E+03  0.12500000000E+03 0.  0.
         21    1    1    2  503  502  0.34187822717E+02 -0.24566727686E+03  0.20215125682E+03  0.31997866925E+03  0.00000000000E+00 0.  1.
<mgrwt>
<rscale>  3 0.27775208E+03</rscale>
<asrwt>0</asrwt>
<pdfrwt beam="1">  1       21 0.68150842E-01 0.27775208E+03</pdfrwt>
<pdfrwt beam="2">  1       21 0.25374308E-01 0.27775208E+03</pdfrwt>
<totfact> 0.27765140E+04</totfact>
</mgrwt>
</event>
<event>
 4    0  0.1495377E-001  0.2691494E+03  0.7546771E-02  0.1101767E+00
         21   -1    0    0  503  501  0.00000000000E+00  0.00000000000E+00  0.37361704133E+03  0.37361704133E+03  0.00000000000E+00 0.  1.
         21   -1    0    0  501  502 -0.00000000000E+00 -0.00000000000E+00 -0.22499158645E+03  0.22499158645E+03  0.00000000000E+00 0. -1.
         25    1    1    2    0    0  0.22005205227E+03 -0.91616113579E+02 -0.66808527508E+02  0.27731714214E+03  0.12500000000E+03 0.  0.
         21    1    1    2  503  502 -0.22005205227E+03  0.91616113579E+02  0.21543398239E+03  0.32129148564E+03  0.00000000000E+00 0.  1.
<mgrwt>
<rscale>  3 0.26914943E+03</rscale>
<asrwt>0</asrwt>
<pdfrwt beam="1">  1       21 0.57479545E-01 0.26914943E+03</pdfrwt>
<pdfrwt beam="2">  1       21 0.34614090E-01 0.26914943E+03</pdfrwt>
<totfact> 0.21967402E+04</totfact>
</mgrwt>
</event>
<event>
 4    0  0.1495377E-001  0.3070646E+03  0.7546771E-02  0.1081761E+00
         21   -1    0    0  502  501  0.00000000000E+00  0.00000000000E+00  0.42190318963E+03  0.42190318963E+03  0.00000000000E+00 0.  1.
         21   -1    0    0  503  502 -0.00000000000E+00 -0.00000000000E+00 -0.96602538166E+03  0.96602538166E+03  0.00000000000E+00 0.  1.
         25    1    1    2    0    0  0.28045634926E+03  0.28141079907E+01 -0.89066360242E+03  0.94210951365E+03  0.12500000000E+03 0.  0.
         21    1    1    2  503  501 -0.28045634926E+03 -0.28141079907E+01  0.34654141038E+03  0.44581905764E+03  0.00000000000E+00 0.  1.
<mgrwt>
<rscale>  3 0.30706462E+03</rscale>
<asrwt>0</asrwt>
<pdfrwt beam="1">  1       21 0.64908184E-01 0.30706462E+03</pdfrwt>
<pdfrwt beam="2">  1       21 0.14861929E+00 0.30706462E+03</pdfrwt>
<totfact> 0.60560729E+02</totfact>
</mgrwt>
</event>
<event>
 4    0  0.1495377E-001  0.2568679E+03  0.7546771E-02  0.1109040E+00
         21   -1    0    0  503  501  0.00000000000E+00  0.00000000000E+00  0.19047366949E+03  0.19047366949E+03  0.00000000000E+00 0. -1.
         21   -1    0    0  501  502 -0.00000000000E+00 -0.00000000000E+00 -0.54133087309E+03  0.54133087309E+03  0.00000000000E+00 0.  1.
         25    1    1    2    0    0 -0.16653271616E+03  0.15040938319E+03 -0.42403809601E+03  0.49577155523E+03  0.12500000000E+03 0.  0.
         21    1    1    2  503  502  0.16653271616E+03 -0.15040938319E+03  0.73180892409E+02  0.23603298735E+03  0.00000000000E+00 0. -1.
<mgrwt>
<rscale>  3 0.25686792E+03</rscale>
<asrwt>0</asrwt>
<pdfrwt beam="1">  1       21 0.29303642E-01 0.25686792E+03</pdfrwt>
<pdfrwt beam="2">  1       21 0.83281671E-01 0.25686792E+03</pdfrwt>
<totfact> 0.13485431E+04</totfact>
</mgrwt>
</event>
<event>
 4    0  0.1495377E-001  0.2843960E+03  0.7546771E-02  0.1093312E+00
         21   -1    0    0  503  501  0.00000000000E+00  0.00000000000E+00  0.24222223269E+03  0.24222223269E+03  0.00000000000E+00 0. -1.
         21   -1    0    0  501  502 -0.00000000000E+00 -0.00000000000E+00 -0.32566603907E+03  0.32566603907E+03  0.00000000000E+00 0. -1.
         25    1    1    2    0    0  0.14182586585E+03  0.21246533207E+03 -0.12215236049E+03  0.30951945453E+03  0.12500000000E+03 0.  0.
         21    1    1    2  503  502 -0.14182586585E+03 -0.21246533207E+03  0.38708554108E+02  0.25836881723E+03  0.00000000000E+00 0. -1.
<mgrwt>
<rscale>  3 0.28439602E+03</rscale>
<asrwt>0</asrwt>
<pdfrwt beam="1">  1       21 0.37264959E-01 0.28439602E+03</pdfrwt>
<pdfrwt beam="2">  1       21 0.50102468E-01 0.28439602E+03</pdfrwt>
<totfact> 0.25205560E+04</totfact>
</mgrwt>
</event>
<event>
 4    0  0.1495377E-001  0.3401745E+03  0.7546771E-02  0.1066722E+00
         21   -1    0    0  502  501  0.00000000000E+00  0.00000000000E+00  0.51572769416E+03  0.51572769416E+03  0.00000000000E+00 0. -1.
         21   -1    0    0  503  502 -0.00000000000E+00 -0.00000000000E+00 -0.21109302857E+03  0.21109302857E+03  0.00000000000E+00 0. -1.
         25    1    1    2    0    0 -0.21028295518E+03 -0.23637839499E+03  0.12124437154E+03  0.36113552094E+03  0.12500000000E+03 0.  0.
         21    1    1    2  503  501  0.21028295518E+03  0.23637839499E+03  0.18339029405E+03  0.36568520179E+03  0.00000000000E+00 0. -1.
<mgrwt>
<rscale>  3 0.34017447E+03</rscale>
<asrwt>0</asrwt>
<pdfrwt beam="1">  1       21 0.79342722E-01 0.34017447E+03</pdfrwt>
<pdfrwt beam="2">  1       21 0.32475851E-01 0.34017447E+03</pdfrwt>
<totfact> 0.11854666E+04</totfact>
</mgrwt>
</event>
<event>
 4    0  0.1495377E-001  0.2395358E+03  0.7546771E-02  0.1120102E+00
         21   -1    0    0  503  501  0.00000000000E+00  0.00000000000E+00  0.27318993065E+03  0.27318993065E+03  0.00000000000E+00 0.  1.
         21   -1    0    0  501  502 -0.00000000000E+00 -0.00000000000E+00 -0.21813731245E+03  0.21813731245E+03  0.00000000000E+00 0. -1.
         25    1    1    2    0    0  0.19502883153E+03 -0.60960387796E+02 -0.72722352269E+02  0.25033168902E+03  0.12500000000E+03 0.  0.
         21    1    1    2  503  502 -0.19502883153E+03  0.60960387796E+02  0.12777497047E+03  0.24099555408E+03  0.00000000000E+00 0.  1.
<mgrwt>
<rscale>  3 0.23953583E+03</rscale>
<asrwt>0</asrwt>
<pdfrwt beam="1">  1       21 0.42029220E-01 0.23953583E+03</pdfrwt>
<pdfrwt beam="2">  1       21 0.33559586E-01 0.23953583E+03</pdfrwt>
<totfact> 0.45593406E+04</totfact>
</mgrwt>
</event>
<event>
 4    0  0.1495377E-001  0.2359781E+03  0.7546771E-02  0.1122501E+00
         21   -1    0    0  503  501  0.00000000000E+00  0.00000000000E+00  0.59393496176E+03  0.59393496176E+03  0.00000000000E+00 0.  1.
         21   -1    0    0  501  502 -0.00000000000E+00 -0.00000000000E+00 -0.12028977177E+03  0.12028977177E+03  0.00000000000E+00 0.  1.
         25    1    1    2    0    0 -0.43770715510E+02  0.19530685214E+03  0.45581985658E+03  0.51328099876E+03  0.12500000000E+03 0.  0.
         21    1    1    2  503  502  0.43770715510E+02 -0.19530685214E+03  0.17825333412E+02  0.20094373477E+03  0.00000000000E+00 0.  1.
<mgrwt>
<rscale>  3 0.23597805E+03</rscale>
<asrwt>0</asrwt>
<pdfrwt beam="1">  1       21 0.91374608E-01 0.23597805E+03</pdfrwt>
<pdfrwt beam="2">  1       21 0.18506119E-01 0.23597805E+03</pdfrwt>
<totfact> 0.26420306E+04</totfact>
</mgrwt>
</event>
<event>
 4    0  0.1495377E-001  0.2830316E+03  0.7546771E-02  0.1094045E+00
         21   -1    0    0  502  501  0.00000000000E+00  0.00000000000E+00  0.56089089495E+03  0.56089089495E+03  0.00000000000E+00 0. -1.
         21   -1    0    0  503  502 -0.00000000000E+00 -0.00000000000E+00 -0.13263803561E+03  0.13263803561E+03  0.00000000000E+00 0. -1.
         25    1    1    2    0    0  0.40417484813E+02  0.25069569451E+03  0.28642241804E+03  0.40267195815E+03  0.12500000000E+03 0.  0.
         21    1    1    2  503  501 -0.40417484813E+02 -0.25069569451E+03  0.14183044129E+03  0.29085697241E+03  0.00000000000E+00 0. -1.
<mgrwt>
<rscale>  3 0.28303163E+03</rscale>
<asrwt>0</asrwt>
<pdfrwt beam="1">  1       21 0.86290906E-01 0.28303163E+03</pdfrwt>
<pdfrwt beam="2">  1       21 0.20405852E-01 0.28303163E+03</pdfrwt>
<totfact> 0.24600446E+04</totfact>
</mgrwt>
</event>
<event>
 4    0  0.1495377E-001  0.2501047E+03  0.7546771E-02  0.1113239E+00
         21   -1    0    0  503  501  0.00000000000E+00  0.00000000000E+00  0.20706061018E+03  0.20706061018E+03  0.00000000000E+00 0.  1.
         21   -1    0    0  501  502 -0.00000000000E+00 -0.00000000000E+00 -0.26752301927E+03  0.26752301927E+03  0.00000000000E+00 0.  1.
         25    1    1    2    0    0  0.21605077347E+03  0.15793885607E+02 -0.16321877876E+01  0.25011007092E+03  0.12500000000E+03 0.  0.
         21    1    1    2  503  502 -0.21605077347E+03 -0.15793885607E+02 -0.58830221307E+02  0.22447355853E+03  0.00000000000E+00 0.  1.
<mgrwt>
<rscale>  3 0.25010475E+03</rscale>
<asrwt>0</asrwt>
<pdfrwt beam="1">  1       21 0.31855479E-01 0.25010475E+03</pdfrwt>
<pdfrwt beam="2">  1       21 0.41157387E-01 0.25010475E+03</pdfrwt>
<totfact> 0.52537134E+04</totfact>
</mgrwt>
</event>
<event>
 4    0  0.1495377E-001  0.3616803E+03  0.7546771E-02  0.1057921E+00
         21   -1    0    0  502  501  0.00000000000E+00  0.00000000000E+00  0.15720226256E+04  0.15720226256E+04  0.00000000000E+00 0. -1.
         21   -1    0    0  503  502 -0.00000000000E+00 -0.00000000000E+00 -0.41902250732E+03  0.41902250732E+03  0.00000000000E+00 0.  1.
         25    1    1    2    0    0  0.81803506266E+02  0.32938700834E+03 -0.31787877503E+03  0.48151794413E+03  0.12500000000E+03 0.  0.
         21    1    1    2  503  501 -0.81803506266E+02 -0.32938700834E+03  0.14708788933E+04  0.15095271887E+04  0.00000000000E+00 0. -1.
<mgrwt>
<rscale>  3 0.36168027E+03</rscale>
<asrwt>0</asrwt>
<pdfrwt beam="1">  1       21 0.24184963E+00 0.36168027E+03</pdfrwt>
<pdfrwt beam="2">  1       21 0.64465002E-01 0.36168027E+03</pdfrwt>
<totfact> 0.13833869E+02</totfact>
</mgrwt>
</event>
<event>
 4    0  0.1495377E-001  0.2530215E+03  0.7546771E-02  0.1111410E+00
         21   -1    0    0  503  501  0.00000000000E+00  0.00000000000E+00  0.11889412434E+03  0.11889412434E+03  0.00000000000E+00 0.  1.
         21   -1    0    0  501  502 -0.00000000000E+00 -0.00000000000E+00 -0.47109855266E+03  0.47109855266E+03  0.00000000000E+00 0.  1.
         25    1    1    2    0    0  0.91401337612E+02  0.20010167313E+03 -0.17752507664E+03  0.30908742605E+03  0.12500000000E+03 0.  0.
         21    1    1    2  503  502 -0.91401337612E+02 -0.20010167313E+03 -0.17467935169E+03  0.28090525095E+03  0.00000000000E+00 0.  1.
<mgrwt>
<rscale>  3 0.25302151E+03</rscale>
<asrwt>0</asrwt>
<pdfrwt beam="1">  1       21 0.18291404E-01 0.25302151E+03</pdfrwt>
<pdfrwt beam="2">  1       21 0.72476699E-01 0.25302151E+03</pdfrwt>
<totfact> 0.45483162E+04</totfact>
</mgrwt>
</event>
<event>
 4    0  0.1495377E-001  0.2999219E+03  0.7546771E-02  0.1085280E+00
         21   -1    0    0  502  501  0.00000000000E+00  0.00000000000E+00  0.39716027460E+03  0.39716027460E+03  0.00000000000E+00 0.  1.
         21   -1    0    0  503  502 -0.00000000000E+00 -0.00000000000E+00 -0.22212241830E+03  0.22212241830E+03  0.00000000000E+00 0.  1.
         25    1    1    2    0    0 -0.19225531677E+03  0.19330299367E+03  0.89732530356E+01  0.30005611718E+03  0.12500000000E+03 0.  0.
         21    1    1    2  503  501  0.19225531677E+03 -0.19330299367E+03  0.16606460327E+03  0.31922657572E+03  0.00000000000E+00 0.  1.
<mgrwt>
<rscale>  3 0.29992191E+03</rscale>
<asrwt>0</asrwt>
<pdfrwt beam="1">  1       21 0.61101581E-01 0.29992191E+03</pdfrwt>
<pdfrwt beam="2">  1       21 0.34172680E-01 0.29992191E+03</pdfrwt>
<totfact> 0.19494091E+04</totfact>
</mgrwt>
</event>
<event>
 4    0  0.1495377E-001  0.2661660E+03  0.7546771E-02  0.1103494E+00
         21   -1    0    0  503  501  0.00000000000E+00  0.00000000000E+00  0.28937542368E+03  0.28937542368E+03  0.00000000000E+00 0.  1.
         21   -1    0    0  501  502 -0.00000000000E+00 -0.00000000000E+00 -0.11311039445E+04  0.11311039445E+04  0.00000000000E+00 0.  1.
         25    1    1    2    0    0 -0.77338049018E+02  0.22189670764E+03 -0.10641428596E+04  0.10969249511E+04  0.12500000000E+03 0.  0.
         21    1    1    2  503  502  0.77338049018E+02 -0.22189670764E+03  0.22241433882E+03  0.32355441706E+03  0.00000000000E+00 0.  1.
<mgrwt>
<rscale>  3 0.26616597E+03</rscale>
<asrwt>0</asrwt>
<pdfrwt beam="1">  1       21 0.44519297E-01 0.26616597E+03</pdfrwt>
<pdfrwt beam="2">  1       21 0.17401599E+00 0.26616597E+03</pdfrwt>
<totfact> 0.90439114E+02</totfact>
</mgrwt>
</event>
<event>
 4    0  0.1495377E-001  0.2500545E+03  0.7546771E-02  0.1113270E+00
         21   -1    0    0  502  501  0.00000000000E+00  0.00000000000E+00  0.17520518530E+04  0.17520518530E+04  0.00000000000E+00 0. -1.
         21   -1    0    0  503  502 -0.00000000000E+00 -0.00000000000E+00 -0.47768848616E+02  0.47768848616E+02  0.00000000000E+00 0. -1.
         25    1    1    2    0    0  0.10928350818E+03  0.18697420747E+03  0.36071728398E+03  0.43891251791E+03  0.12500000000E+03 0.  0.
         21    1    1    2  503  501 -0.10928350818E+03 -0.18697420747E+03  0.13435657204E+04  0.13609081837E+04  0.00000000000E+00 0. -1.
<mgrwt>
<rscale>  3 0.25005447E+03</rscale>
<asrwt>0</asrwt>
<pdfrwt beam="1">  1       21 0.26954639E+00 0.25005447E+03</pdfrwt>
<pdfrwt beam="2">  1       21 0.73490549E-02 0.25005447E+03</pdfrwt>
<totfact> 0.67419115E+03</totfact>
</mgrwt>
</event>
<event>
 4    0  0.1495377E-001  0.2885370E+03  0.7546771E-02  0.1091115E+00
         21   -1    0    0  503  501  0.00000000000E+00  0.00000000000E+00  0.49971163807E+03  0.49971163807E+03  0.00000000000E+00 0.  1.
         21   -1    0    0  501  502 -0.00000000000E+00 -0.00000000000E+00 -0.15121706593E+03  0.15121706593E+03  0.00000000000E+00 0.  1.
         25    1    1    2    0    0  0.55889234873E+02 -0.25397828042E+03  0.20462498808E+03  0.35373006551E+03  0.12500000000E+03 0.  0.
         21    1    1    2  503  502 -0.55889234873E+02  0.25397828042E+03  0.14386958406E+03  0.29719863849E+03  0.00000000000E+00 0.  1.
<mgrwt>
<rscale>  3 0.28853695E+03</rscale>
<asrwt>0</asrwt>
<pdfrwt beam="1">  1       21 0.76878713E-01 0.28853695E+03</pdfrwt>
<pdfrwt beam="2">  1       21 0.23264164E-01 0.28853695E+03</pdfrwt>
<totfact> 0.24932657E+04</totfact>
</mgrwt>
</event>
<event>
 4    0  0.1495377E-001  0.3002543E+03  0.7546771E-02  0.1085114E+00
         21   -1    0    0  503  501  0.00000000000E+00  0.00000000000E+00  0.10572867207E+04  0.10572867207E+04  0.00000000000E+00 0.  1.
         21   -1    0    0  501  502 -0.00000000000E+00 -0.00000000000E+00 -0.77713926437E+02  0.77713926437E+02  0.00000000000E+00 0.  1.
         25    1    1    2    0    0  0.22414951418E+03  0.15583532142E+03  0.51977270359E+03  0.60026353838E+03  0.12500000000E+03 0.  0.
         21    1    1    2  503  502 -0.22414951418E+03 -0.15583532142E+03  0.45980009071E+03  0.53473710880E+03  0.00000000000E+00 0.  1.
<mgrwt>
<rscale>  3 0.30025431E+03</rscale>
<asrwt>0</asrwt>
<pdfrwt beam="1">  1       21 0.16265948E+00 0.30025431E+03</pdfrwt>
<pdfrwt beam="2">  1       21 0.11955989E-01 0.30025431E+03</pdfrwt>
<totfact> 0.13323103E+04</totfact>
</mgrwt>
</event>
<event>
 4    0  0.1495377E-001  0.3356280E+03  0.7546771E-02  0.1068673E+00
         21   -1    0    0  503  501  0.00000000000E+00  0.00000000000E+00  0.19017475297E+04  0.19017475297E+04  0.00000000000E+00 0.  1.
         21   -1    0    0  501  502 -0.00000000000E+00 -0.00000000000E+00 -0.62403246941E+02  0.62403246941E+02  0.00000000000E+00 0.  1.
         25    1    1    2    0    0  0.30141027963E+03  0.78568400171E+02  0.61299371354E+03  0.69886153350E+03  0.12500000000E+03 0.  0.
         21    1    1    2  503  502 -0.30141027963E+03 -0.78568400171E+02  0.12263505692E+04  0.12652892431E+04  0.00000000000E+00 0.  1.
<mgrwt>
<rscale>  3 0.33562799E+03</rscale>
<asrwt>0</asrwt>
<pdfrwt beam="1">  1       21 0.29257650E+00 0.33562799E+03</pdfrwt>
<pdfrwt beam="2">  1       21 0.96005010E-02 0.33562799E+03</pdfrwt>
<totfact> 0.28895316E+03</totfact>
</mgrwt>
</event>
<event>
 4    0  0.1495377E-001  0.2809466E+03  0.7546771E-02  0.1095173E+00
         21   -1    0    0  502  501  0.00000000000E+00  0.00000000000E+00  0.22746604541E+03  0.22746604541E+03  0.00000000000E+00 0.  1.
         21   -1    0    0  503  502 -0.00000000000E+00 -0.00000000000E+00 -0.35300913449E+03  0.35300913449E+03  0.00000000000E+00 0.  1.
         25    1    1    2    0    0  0.20354717907E+03 -0.14790047204E+03 -0.16496583979E+03  0.32579860656E+03  0.12500000000E+03 0.  0.
         21    1    1    2  503  501 -0.20354717907E+03  0.14790047204E+03  0.39422750713E+02  0.25467657335E+03  0.00000000000E+00 0.  1.
<mgrwt>
<rscale>  3 0.28094662E+03</rscale>
<asrwt>0</asrwt>
<pdfrwt beam="1">  1       21 0.34994777E-01 0.28094662E+03</pdfrwt>
<pdfrwt beam="2">  1       21 0.54309097E-01 0.28094662E+03</pdfrwt>
<totfact> 0.24144668E+04</totfact>
</mgrwt>
</event>
<event>
 4    0  0.1495377E-001  0.2902101E+03  0.7546771E-02  0.1090239E+00
         21   -1    0    0  503  501  0.00000000000E+00  0.00000000000E+00  0.98423921133E+03  0.98423921133E+03  0.00000000000E+00 0. -1.
         21   -1    0    0  501  502 -0.00000000000E+00 -0.00000000000E+00 -0.19283000606E+03  0.19283000606E+03  0.00000000000E+00 0. -1.
         25    1    1    2    0    0 -0.20672015425E+03  0.16082194089E+03 -0.51201209984E+02  0.29469218304E+03  0.12500000000E+03 0.  0.
         21    1    1    2  503  502  0.20672015425E+03 -0.16082194089E+03  0.84261041525E+03  0.88237703434E+03  0.00000000000E+00 0. -1.
<mgrwt>
<rscale>  3 0.29021013E+03</rscale>
<asrwt>0</asrwt>
<pdfrwt beam="1">  1       21 0.15142141E+00 0.29021013E+03</pdfrwt>
<pdfrwt beam="2">  1       21 0.29666155E-01 0.29021013E+03</pdfrwt>
<totfact> 0.29515084E+03</totfact>
</mgrwt>
</event>
<event>
 4    0  0.1495377E-001  0.3825945E+03  0.7546771E-02  0.1049979E+00
         21   -1    0    0  503  501  0.00000000000E+00  0.00000000000E+00  0.41081874119E+03  0.41081874119E+03  0.00000000000E+00 0.  1.
         21   -1    0    0  501  502 -0.00000000000E+00 -0.00000000000E+00 -0.51915192142E+03  0.51915192142E+03  0.00000000000E+00 0.  1.
         25    1    1    2    0    0  0.25716982003E+03 -0.25419927381E+03 -0.33049767972E+03  0.50557620933E+03  0.12500000000E+03 0.  0.
         21    1    1    2  503  502 -0.25716982003E+03  0.25419927381E+03  0.22216449950E+03  0.42439445328E+03  0.00000000000E+00 0.  1.
<mgrwt>
<rscale>  3 0.38259455E+03</rscale>
<asrwt>0</asrwt>
<pdfrwt beam="1">  1       21 0.63202883E-01 0.38259455E+03</pdfrwt>
<pdfrwt beam="2">  1       21 0.79869526E-01 0.38259455E+03</pdfrwt>
<totfact> 0.28538520E+03</totfact>
</mgrwt>
</event>
<event>
 4    0  0.1495377E-001  0.3308709E+03  0.7546771E-02  0.1070752E+00
         21   -1    0    0  503  501  0.00000000000E+00  0.00000000000E+00  0.18675240658E+04  0.18675240658E+04  0.00000000000E+00 0.  1.
         21   -1    0    0  501  502 -0.00000000000E+00 -0.00000000000E+00 -0.23066800985E+03  0.23066800985E+03  0.00000000000E+00 0.  1.
         25    1    1    2    0    0  0.29706841759E+03  0.74839169673E+02 -0.91185055078E+02  0.34320585705E+03  0.12500000000E+03 0.  0.
         21    1    1    2  503  502 -0.29706841759E+03 -0.74839169673E+02  0.17280411110E+04  0.17549862186E+04  0.00000000000E+00 0.  1.
<mgrwt>
<rscale>  3 0.33087089E+03</rscale>
<asrwt>0</asrwt>
<pdfrwt beam="1">  1       21 0.28731139E+00 0.33087089E+03</pdfrwt>
<pdfrwt beam="2">  1       21 0.35487387E-01 0.33087089E+03</pdfrwt>
<totfact> 0.26537601E+02</totfact>
</mgrwt>
</event>
<event>
 4    0  0.1495377E-001  0.2422448E+03  0.7546771E-02  0.1118306E+00
         21   -1    0    0  502  501  0.00000000000E+00  0.00000000000E+00  0.33659663897E+03  0.33659663897E+03  0.00000000000E+00 0. -1.
         21   -1    0    0  503  502 -0.00000000000E+00 -0.00000000000E+00 -0.15053324573E+03  0.15053324573E+03  0.00000000000E+00 0. -1.
         25    1    1    2    0    0 -0.63980818844E+02  0.19739306374E+03  0.89379949425E+02  0.25820794363E+03  0.12500000000E+03 0.  0.
         21    1    1    2  503  501  0.63980818844E+02 -0.19739306374E+03  0.96683443822E+02  0.22892194107E+03  0.00000000000E+00 0. -1.
<mgrwt>
<rscale>  3 0.24224485E+03</rscale>
<asrwt>0</asrwt>
<pdfrwt beam="1">  1       21 0.51784098E-01 0.24224485E+03</pdfrwt>
<pdfrwt beam="2">  1       21 0.23158961E-01 0.24224485E+03</pdfrwt>
<totfact> 0.60721556E+04</totfact>
</mgrwt>
</event>
<event>
 4    0  0.1495377E-001  0.2372689E+03  0.7546771E-02  0.1121626E+00
         21   -1    0    0  503  501  0.00000000000E+00  0.00000000000E+00  0.13875882052E+03  0.13875882052E+03  0.00000000000E+00 0.  1.
         21   -1    0    0  501  502 -0.00000000000E+00 -0.00000000000E+00 -0.41713451093E+03  0.41713451093E+03  0.00000000000E+00 0.  1.
         25    1    1    2    0    0 -0.49878674664E+02  0.19540633810E+03 -0.26213394885E+03  0.35356855954E+03  0.12500000000E+03 0.  0.
         21    1    1    2  503  502  0.49878674664E+02 -0.19540633810E+03 -0.16241741565E+02  0.20232477190E+03  0.00000000000E+00 0.  1.
<mgrwt>
<rscale>  3 0.23726888E+03</rscale>
<asrwt>0</asrwt>
<pdfrwt beam="1">  1       21 0.21347511E-01 0.23726888E+03</pdfrwt>
<pdfrwt beam="2">  1       21 0.64174540E-01 0.23726888E+03</pdfrwt>
<totfact> 0.44821828E+04</totfact>
</mgrwt>
</event>
<event>
 4    0  0.1495377E-001  0.2455065E+03  0.7546771E-02  0.1116178E+00
         21   -1    0    0  503  501  0.00000000000E+00  0.00000000000E+00  0.56861177927E+03  0.56861177927E+03  0.00000000000E+00 0. -1.
         21   -1    0    0  501  502 -0.00000000000E+00 -0.00000000000E+00 -0.15391292867E+03  0.15391292867E+03  0.00000000000E+00 0. -1.
         25    1    1    2    0    0  0.20169322238E+03  0.62994256729E+02 -0.12606071716E+02  0.24582991148E+03  0.12500000000E+03 0.  0.
         21    1    1    2  503  502 -0.20169322238E+03 -0.62994256729E+02  0.42730492232E+03  0.47669479646E+03  0.00000000000E+00 0. -1.
<mgrwt>
<rscale>  3 0.24550648E+03</rscale>
<asrwt>0</asrwt>
<pdfrwt beam="1">  1       21 0.87478734E-01 0.24550648E+03</pdfrwt>
<pdfrwt beam="2">  1       21 0.23678912E-01 0.24550648E+03</pdfrwt>
<totfact> 0.18280920E+04</totfact>
</mgrwt>
</event>
<event>
 4    0  0.1495377E-001  0.2738139E+03  0.7546771E-02  0.1099116E+00
         21   -1    0    0  502  501  0.00000000000E+00  0.00000000000E+00  0.16749554499E+04  0.16749554499E+04  0.00000000000E+00 0.  1.
         21   -1    0    0  503  502 -0.00000000000E+00 -0.00000000000E+00 -0.42640310758E+02  0.42640310758E+02  0.00000000000E+00 0.  1.
         25    1    1    2    0    0 -0.16474892447E+03 -0.17946264849E+03  0.64588206851E+03  0.70152526451E+03  0.12500000000E+03 0.  0.
         21    1    1    2  503  501  0.16474892447E+03  0.17946264849E+03  0.98643307066E+03  0.10160704962E+04  0.00000000000E+00 0.  1.
<mgrwt>
<rscale>  3 0.27381390E+03</rscale>
<asrwt>0</asrwt>
<pdfrwt beam="1">  1       21 0.25768540E+00 0.27381390E+03</pdfrwt>
<pdfrwt beam="2">  1       21 0.65600491E-02 0.27381390E+03</pdfrwt>
<totfact> 0.94806306E+03</totfact>
</mgrwt>
</event>
<event>
 4    0  0.1495377E-001  0.2532490E+03  0.7546771E-02  0.1111269E+00
         21   -1    0    0  502  501  0.00000000000E+00  0.00000000000E+00  0.12487029882E+03  0.12487029882E+03  0.00000000000E+00 0.  1.
         21   -1    0    0  503  502 -0.00000000000E+00 -0.00000000000E+00 -0.45324032017E+03  0.45324032017E+03  0.00000000000E+00 0.  1.
         25    1    1    2    0    0 -0.32361806343E+02  0.21785955570E+03 -0.14719637288E+03  0.29291951917E+03  0.12500000000E+03 0.  0.
         21    1    1    2  503  501  0.32361806343E+02 -0.21785955570E+03 -0.18117364847E+03  0.28519109983E+03  0.00000000000E+00 0.  1.
<mgrwt>
<rscale>  3 0.25324903E+03</rscale>
<asrwt>0</asrwt>
<pdfrwt beam="1">  1       21 0.19210814E-01 0.25324903E+03</pdfrwt>
<pdfrwt beam="2">  1       21 0.69729283E-01 0.25324903E+03</pdfrwt>
<totfact> 0.45226851E+04</totfact>
</mgrwt>
</event>
<event>
 4    0  0.1495377E-001  0.3244469E+03  0.7546771E-02  0.1073621E+00
         21   -1    0    0  503  501  0.00000000000E+00  0.00000000000E+00  0.18392420440E+03  0.18392420440E+03  0.00000000000E+00 0.  1.
         21   -1    0    0  501  502 -0.00000000000E+00 -0.00000000000E+00 -0.70117652298E+03  0.70117652298E+03  0.00000000000E+00 0.  1.
         25    1    1    2    0    0  0.98363389296E+02  0.28278160035E+03 -0.48562319837E+03  0.58403397216E+03  0.12500000000E+03 0.  0.
         21    1    1    2  503  502 -0.98363389296E+02 -0.28278160035E+03 -0.31629120205E+02  0.30106675522E+03  0.00000000000E+00 0.  1.
<mgrwt>
<rscale>  3 0.32444690E+03</rscale>
<asrwt>0</asrwt>
<pdfrwt beam="1">  1       21 0.28296032E-01 0.32444690E+03</pdfrwt>
<pdfrwt beam="2">  1       21 0.10787331E+00 0.32444690E+03</pdfrwt>
<totfact> 0.75711238E+03</totfact>
</mgrwt>
</event>
<event>
 4    0  0.1495377E-001  0.3244590E+03  0.7546771E-02  0.1073615E+00
         21   -1    0    0  503  501  0.00000000000E+00  0.00000000000E+00  0.19202551488E+03  0.19202551488E+03  0.00000000000E+00 0. -1.
         21   -1    0    0  501  502 -0.00000000000E+00 -0.00000000000E+00 -0.53200847738E+03  0.53200847738E+03  0.00000000000E+00 0.  1.
         25    1    1    2    0    0 -0.21330589845E+03  0.21011724054E+03 -0.97633599994E+02  0.33883031289E+03  0.12500000000E+03 0.  0.
         21    1    1    2  503  502  0.21330589845E+03 -0.21011724054E+03 -0.24234936251E+03  0.38520367936E+03  0.00000000000E+00 0. -1.
<mgrwt>
<rscale>  3 0.32445903E+03</rscale>
<asrwt>0</asrwt>
<pdfrwt beam="1">  1       21 0.29542387E-01 0.32445903E+03</pdfrwt>
<pdfrwt beam="2">  1       21 0.81847457E-01 0.32445903E+03</pdfrwt>
<totfact> 0.13398553E+04</totfact>
</mgrwt>
</event>
<event>
 4    0  0.1495377E-001  0.2553900E+03  0.7546771E-02  0.1109945E+00
         21   -1    0    0  503  501  0.00000000000E+00  0.00000000000E+00  0.21895241846E+03  0.21895241846E+03  0.00000000000E+00 0.  1.
         21   -1    0    0  501  502 -0.00000000000E+00 -0.00000000000E+00 -0.26100500275E+03  0.26100500275E+03  0.00000000000E+00 0.  1.
         25    1    1    2    0    0 -0.22000102921E+03  0.34620935744E+02 -0.20690108920E+02  0.25622674070E+03  0.12500000000E+03 0.  0.
         21    1    1    2  503  502  0.22000102921E+03 -0.34620935744E+02 -0.21362475372E+02  0.22373068050E+03  0.00000000000E+00 0.  1.
<mgrwt>
<rscale>  3 0.25539002E+03</rscale>
<asrwt>0</asrwt>
<pdfrwt beam="1">  1       21 0.33684987E-01 0.25539002E+03</pdfrwt>
<pdfrwt beam="2">  1       21 0.40154616E-01 0.25539002E+03</pdfrwt>
<totfact> 0.49357066E+04</totfact>
</mgrwt>
</event>
<event>
 4    0  0.1495377E-001  0.3344969E+03  0.7546771E-02  0.1069164E+00
         21   -1    0    0  503  501  0.00000000000E+00  0.00000000000E+00  0.40844393887E+03  0.40844393887E+03  0.00000000000E+00 0.  1.
         21   -1    0    0  501  502 -0.00000000000E+00 -0.00000000000E+00 -0.31831362340E+03  0.31831362340E+03  0.00000000000E+00 0.  1.
         25    1    1    2    0    0  0.44546911176E+01 -0.31023104729E+03 -0.11625223842E+03  0.35412247869E+03  0.12500000000E+03 0.  0.
         21    1    1    2  503  502 -0.44546911176E+01  0.31023104729E+03  0.20638255388E+03  0.37263508359E+03  0.00000000000E+00 0.  1.
<mgrwt>
<rscale>  3 0.33449686E+03</rscale>
<asrwt>0</asrwt>
<pdfrwt beam="1">  1       21 0.62837529E-01 0.33449686E+03</pdfrwt>
<pdfrwt beam="2">  1       21 0.48971326E-01 0.33449686E+03</pdfrwt>
<totfact> 0.86421739E+03</totfact>
</mgrwt>
</event>
<event>
 4    0  0.1495377E-001  0.2496103E+03  0.7546771E-02  0.1113551E+00
         21   -1    0    0  502  501  0.00000000000E+00  0.00000000000E+00  0.54084940850E+02  0.54084940850E+02  0.00000000000E+00 0.  1.
         21   -1    0    0  503  502 -0.00000000000E+00 -0.00000000000E+00 -0.12100432601E+04  0.12100432601E+04  0.00000000000E+00 0.  1.
         25    1    1    2    0    0 -0.40716374321E+02 -0.21218499362E+03 -0.87378346952E+03  0.90873695108E+03  0.12500000000E+03 0.  0.
         21    1    1    2  503  501  0.40716374321E+02  0.21218499362E+03 -0.28217484970E+03  0.35539124984E+03  0.00000000000E+00 0.  1.
<mgrwt>
<rscale>  3 0.24961029E+03</rscale>
<asrwt>0</asrwt>
<pdfrwt beam="1">  1       21 0.83207604E-02 0.24961029E+03</pdfrwt>
<pdfrwt beam="2">  1       21 0.18616050E+00 0.24961029E+03</pdfrwt>
<totfact> 0.17832648E+04</totfact>
</mgrwt>
</event>
<event>
 4    0  0.1495377E-001  0.3063652E+03  0.7546771E-02  0.1082101E+00
         21   -1    0    0  503  501  0.00000000000E+00  0.00000000000E+00  0.20536782572E+04  0.20536782572E+04  0.00000000000E+00 0. -1.
         21   -1    0    0  501  502 -0.00000000000E+00 -0.00000000000E+00 -0.61185415702E+02  0.61185415702E+02  0.00000000000E+00 0. -1.
         25    1    1    2    0    0  0.16391181710E+03  0.22664405206E+03  0.43262533256E+03  0.53011724032E+03  0.12500000000E+03 0.  0.
         21    1    1    2  503  502 -0.16391181710E+03 -0.22664405206E+03  0.15598675089E+04  0.15847464326E+04  0.00000000000E+00 0. -1.
<mgrwt>
<rscale>  3 0.30636516E+03</rscale>
<asrwt>0</asrwt>
<pdfrwt beam="1">  1       21 0.31595045E+00 0.30636516E+03</pdfrwt>
<pdfrwt beam="2">  1       21 0.94131424E-02 0.30636516E+03</pdfrwt>
<totfact> 0.22236587E+03</totfact>
</mgrwt>
</event>
<event>
 4    0  0.1495377E-001  0.3940950E+03  0.7546771E-02  0.1045844E+00
         21   -1    0    0  503  501  0.00000000000E+00  0.00000000000E+00  0.11579794822E+03  0.11579794822E+03  0.00000000000E+00 0. -1.
         21   -1    0    0  501  502 -0.00000000000E+00 -0.00000000000E+00 -0.13425567889E+04  0.13425567889E+04  0.00000000000E+00 0. -1.
         25    1    1    2    0    0  0.37017717985E+03 -0.51523925723E+02 -0.79487293333E+03  0.88720563543E+03  0.12500000000E+03 0.  0.
         21    1    1    2  503  502 -0.37017717985E+03  0.51523925723E+02 -0.43188590736E+03  0.57114910170E+03  0.00000000000E+00 0. -1.
<mgrwt>
<rscale>  3 0.39409499E+03</rscale>
<asrwt>0</asrwt>
<pdfrwt beam="1">  1       21 0.17815068E-01 0.39409499E+03</pdfrwt>
<pdfrwt beam="2">  1       21 0.20654721E+00 0.39409499E+03</pdfrwt>
<totfact> 0.30422588E+03</totfact>
</mgrwt>
</event>
<event>
 4    0  0.1495377E-001  0.2580905E+03  0.7546771E-02  0.1108296E+00
         21   -1    0    0  502  501  0.00000000000E+00  0.00000000000E+00  0.31326728252E+03  0.31326728252E+03  0.00000000000E+00 0. -1.
         21   -1    0    0  503  502 -0.00000000000E+00 -0.00000000000E+00 -0.19116181456E+03  0.19116181456E+03  0.00000000000E+00 0. -1.
         25    1    1    2    0    0  0.22243679037E+03 -0.38827340394E+02  0.10278232314E+03  0.27780369692E+03  0.12500000000E+03 0.  0.
         21    1    1    2  503  501 -0.22243679037E+03  0.38827340394E+02  0.19323144815E+02  0.22662540016E+03  0.00000000000E+00 0. -1.
<mgrwt>
<rscale>  3 0.25809046E+03</rscale>
<asrwt>0</asrwt>
<pdfrwt beam="1">  1       21 0.48194967E-01 0.25809046E+03</pdfrwt>
<pdfrwt beam="2">  1       21 0.29409510E-01 0.25809046E+03</pdfrwt>
<totfact> 0.44237756E+04</totfact>
</mgrwt>
</event>
<event>
 4    0  0.1495377E-001  0.4243287E+03  0.7546771E-02  0.1035667E+00
         21   -1    0    0  503  501  0.00000000000E+00  0.00000000000E+00  0.13493421374E+04  0.13493421374E+04  0.00000000000E+00 0.  1.
         21   -1    0    0  501  502 -0.00000000000E+00 -0.00000000000E+00 -0.20654249320E+03  0.20654249320E+03  0.00000000000E+00 0. -1.
         25    1    1    2    0    0 -0.31869264786E+03 -0.25072858890E+03  0.98486673774E+02  0.43560814272E+03  0.12500000000E+03 0.  0.
         21    1    1    2  503  502  0.31869264786E+03  0.25072858890E+03  0.10443129704E+04  0.11202764879E+04  0.00000000000E+00 0.  1.
<mgrwt>
<rscale>  3 0.42432868E+03</rscale>
<asrwt>0</asrwt>
<pdfrwt beam="1">  1       21 0.20759109E+00 0.42432868E+03</pdfrwt>
<pdfrwt beam="2">  1       21 0.31775769E-01 0.42432868E+03</pdfrwt>
<totfact> 0.96359351E+02</totfact>
</mgrwt>
</event>
<event>
 4    0  0.1572057E-001  0.2386189E+03  0.7546771E-02  0.1120716E+00
         21   -1    0    0  503  501  0.00000000000E+00  0.00000000000E+00  0.78749723160E+03  0.78749723160E+03  0.00000000000E+00 0. -1.
         21   -1    0    0  501  502 -0.00000000000E+00 -0.00000000000E+00 -0.44117239299E+03  0.44117239299E+03  0.00000000000E+00 0.  1.
         25    1    1    2    0    0 -0.18807359110E+03 -0.77086404743E+02 -0.39417832336E+03  0.46077710454E+03  0.12500000000E+03 0.  0.
         21    1    1    2  503  502  0.18807359110E+03  0.77086404743E+02  0.74050316197E+03  0.76789252005E+03  0.00000000000E+00 0. -1.
<mgrwt>
<rscale>  3 0.23861892E+03</rscale>
<asrwt>0</asrwt>
<pdfrwt beam="1">  1       21 0.12115342E+00 0.23861892E+03</pdfrwt>
<pdfrwt beam="2">  1       21 0.67872676E-01 0.23861892E+03</pdfrwt>
<totfact> 0.97957869E+02</totfact>
</mgrwt>
</event>
<event>
 4    0  0.1495377E-001  0.2541801E+03  0.7546771E-02  0.1110691E+00
         21   -1    0    0  502  501  0.00000000000E+00  0.00000000000E+00  0.45036756167E+03  0.45036756167E+03  0.00000000000E+00 0. -1.
         21   -1    0    0  503  502 -0.00000000000E+00 -0.00000000000E+00 -0.26446024721E+03  0.26446024721E+03  0.00000000000E+00 0. -1.
         25    1    1    2    0    0  0.20928238418E+03  0.71996048085E+02 -0.16277735214E+03  0.30183441427E+03  0.12500000000E+03 0.  0.
         21    1    1    2  503  501 -0.20928238418E+03 -0.71996048085E+02  0.34868466660E+03  0.41299339461E+03  0.00000000000E+00 0. -1.
<mgrwt>
<rscale>  3 0.25418015E+03</rscale>
<asrwt>0</asrwt>
<pdfrwt beam="1">  1       21 0.69287317E-01 0.25418015E+03</pdfrwt>
<pdfrwt beam="2">  1       21 0.40686192E-01 0.25418015E+03</pdfrwt>
<totfact> 0.10621760E+04</totfact>
</mgrwt>
</event>
<event>
 4    0  0.1495377E-001  0.2764277E+03  0.7546771E-02  0.1097656E+00
         21   -1    0    0  502  501  0.00000000000E+00  0.00000000000E+00  0.14179318332E+04  0.14179318332E+04  0.00000000000E+00 0. -1.
         21   -1    0    0  503  502 -0.00000000000E+00 -0.00000000000E+00 -0.48905959211E+02  0.48905959211E+02  0.00000000000E+00 0.  1.
         25    1    1    2    0    0  0.23941362616E+03 -0.58893110892E+02  0.63652795381E+03  0.69395973866E+03  0.12500000000E+03 0.  0.
         21    1    1    2  503  501 -0.23941362616E+03  0.58893110892E+02  0.73249792021E+03  0.77287805378E+03  0.00000000000E+00 0. -1.
<mgrwt>
<rscale>  3 0.27642772E+03</rscale>
<asrwt>0</asrwt>
<pdfrwt beam="1">  1       21 0.21814333E+00 0.27642772E+03</pdfrwt>
<pdfrwt beam="2">  1       21 0.75239948E-02 0.27642772E+03</pdfrwt>
<totfact> 0.12977976E+04</totfact>
</mgrwt>
</event>
<event>
 4    0  0.1495377E-001  0.2560342E+03  0.7546771E-02  0.1109550E+00
         21   -1    0    0  503  501  0.00000000000E+00  0.00000000000E+00  0.58082358674E+02  0.58082358674E+02  0.00000000000E+00 0.  1.
         21   -1    0    0  501  502 -0.00000000000E+00 -0.00000000000E+00 -0.11510787603E+04  0.11510787603E+04  0.00000000000E+00 0.  1.
         25    1    1    2    0    0 -0.22173123053E+03 -0.27636428444E+02 -0.80445487062E+03  0.84421629316E+03  0.12500000000E+03 0.  0.
         21    1    1    2  503  502  0.22173123053E+03  0.27636428444E+02 -0.28854153097E+03  0.36494482578E+03  0.00000000000E+00 0.  1.
<mgrwt>
<rscale>  3 0.25603420E+03</rscale>
<asrwt>0</asrwt>
<pdfrwt beam="1">  1       21 0.89357483E-02 0.25603420E+03</pdfrwt>
<pdfrwt beam="2">  1       21 0.17708902E+00 0.25603420E+03</pdfrwt>
<totfact> 0.18082411E+04</totfact>
</mgrwt>
</event>
<event>
 4    0  0.1495377E-001  0.2433869E+03  0.7546771E-02  0.1117557E+00
         21   -1    0    0  502  501  0.00000000000E+00  0.00000000000E+00  0.15661300151E+03  0.15661300151E+03  0.00000000000E+00 0.  1.
         21   -1    0    0  503  502 -0.00000000000E+00 -0.00000000000E+00 -0.39561551258E+03  0.39561551258E+03  0.00000000000E+00 0.  1.
         25    1    1    2    0    0 -0.10674162306E+03  0.17949484954E+03 -0.24220825701E+03  0.34336862825E+03  0.12500000000E+03 0.  0.
         21    1    1    2  503  501  0.10674162306E+03 -0.17949484954E+03  0.32057459391E+01  0.20885988584E+03  0.00000000000E+00 0.  1.
<mgrwt>
<rscale>  3 0.24338688E+03</rscale>
<asrwt>0</asrwt>
<pdfrwt beam="1">  1       21 0.24094308E-01 0.24338688E+03</pdfrwt>
<pdfrwt beam="2">  1       21 0.60863925E-01 0.24338688E+03</pdfrwt>
<totfact> 0.39853219E+04</totfact>
</mgrwt>
</event>
<event>
 4    0  0.1495377E-001  0.3586658E+03  0.7546771E-02  0.1059113E+00
         21   -1    0    0  502  501  0.00000000000E+00  0.00000000000E+00  0.37083697132E+03  0.37083697132E+03  0.00000000000E+00 0.  1.
         21   -1    0    0  503  502 -0.00000000000E+00 -0.00000000000E+00 -0.45500172308E+03  0.45500172308E+03  0.00000000000E+00 0. -1.
         25    1    1    2    0    0  0.21543600545E+03 -0.25807646627E+03 -0.26327689531E+03  0.44492230613E+03  0.12500000000E+03 0.  0.
         21    1    1    2  503  501 -0.21543600545E+03  0.25807646627E+03  0.17911214355E+03  0.38091638827E+03  0.00000000000E+00 0.  1.
<mgrwt>
<rscale>  3 0.35866577E+03</rscale>
<asrwt>0</asrwt>
<pdfrwt beam="1">  1       21 0.57051842E-01 0.35866577E+03</pdfrwt>
<pdfrwt beam="2">  1       21 0.70000265E-01 0.35866577E+03</pdfrwt>
<totfact> 0.48626441E+03</totfact>
</mgrwt>
</event>
<event>
 4    0  0.1495377E-001  0.2797914E+03  0.7546771E-02  0.1095803E+00
         21   -1    0    0  502  501  0.00000000000E+00  0.00000000000E+00  0.13404391198E+04  0.13404391198E+04  0.00000000000E+00 0. -1.
         21   -1    0    0  503  502 -0.00000000000E+00 -0.00000000000E+00 -0.54158996930E+02  0.54158996930E+02  0.00000000000E+00 0. -1.
         25    1    1    2    0    0  0.23718170117E+03  0.80019130431E+02  0.80283641675E+03  0.85019382065E+03  0.12500000000E+03 0.  0.
         21    1    1    2  503  501 -0.23718170117E+03 -0.80019130431E+02  0.48344370611E+03  0.54440429608E+03  0.00000000000E+00 0. -1.
<mgrwt>
<rscale>  3 0.27979139E+03</rscale>
<asrwt>0</asrwt>
<pdfrwt beam="1">  1       21 0.20622138E+00 0.27979139E+03</pdfrwt>
<pdfrwt beam="2">  1       21 0.83321544E-02 0.27979139E+03</pdfrwt>
<totfact> 0.12892903E+04</totfact>
</mgrwt>
</event>
<event>
 4    0  0.1495377E-001  0.2399076E+03  0.7546771E-02  0.1119854E+00
         21   -1    0    0  502  501  0.00000000000E+00  0.00000000000E+00  0.68399604523E+02  0.68399604523E+02  0.00000000000E+00 0. -1.
         21   -1    0    0  503  502 -0.00000000000E+00 -0.00000000000E+00 -0.77293905963E+03  0.77293905963E+03  0.00000000000E+00 0. -1.
         25    1    1    2    0    0 -0.15267968265E+03 -0.13645354387E+03 -0.48519929290E+03  0.54127073537E+03  0.12500000000E+03 0.  0.
         21    1    1    2  503  501  0.15267968265E+03  0.13645354387E+03 -0.21934016221E+03  0.30006792879E+03  0.00000000000E+00 0. -1.
<mgrwt>
<rscale>  3 0.23990760E+03</rscale>
<asrwt>0</asrwt>
<pdfrwt beam="1">  1       21 0.10523016E-01 0.23990760E+03</pdfrwt>
<pdfrwt beam="2">  1       21 0.11891370E+00 0.23990760E+03</pdfrwt>
<totfact> 0.39076174E+04</totfact>
</mgrwt>
</event>
<event>
 4    0  0.1495377E-001  0.2532810E+03  0.7546771E-02  0.1111249E+00
         21   -1    0    0  502  501  0.00000000000E+00  0.00000000000E+00  0.36296026856E+02  0.36296026856E+02  0.00000000000E+00 0.  1.
         21   -1    0    0  503  502 -0.00000000000E+00 -0.00000000000E+00 -0.15679451908E+04  0.15679451908E+04  0.00000000000E+00 0.  1.
         25    1    1    2    0    0 -0.12811717121E+02  0.21991387158E+03 -0.91581437915E+03  0.95019325827E+03  0.12500000000E+03 0.  0.
         21    1    1    2  503  501  0.12811717121E+02 -0.21991387158E+03 -0.61583478479E+03  0.65404795938E+03  0.00000000000E+00 0.  1.
<mgrwt>
<rscale>  3 0.25328097E+03</rscale>
<asrwt>0</asrwt>
<pdfrwt beam="1">  1       21 0.55840047E-02 0.25328097E+03</pdfrwt>
<pdfrwt beam="2">  1       21 0.24122231E+00 0.25328097E+03</pdfrwt>
<totfact> 0.15930493E+04</totfact>
</mgrwt>
</event>
<event>
 4    0  0.1495377E-001  0.2422966E+03  0.7546771E-02  0.1118272E+00
         21   -1    0    0  503  501  0.00000000000E+00  0.00000000000E+00  0.13458825099E+03  0.13458825099E+03  0.00000000000E+00 0. -1.
         21   -1    0    0  501  502 -0.00000000000E+00 -0.00000000000E+00 -0.47421278214E+03  0.47421278214E+03  0.00000000000E+00 0. -1.
         25    1    1    2    0    0 -0.23366422742E+02  0.20624412481E+03 -0.31846829898E+03  0.40016207490E+03  0.12500000000E+03 0.  0.
         21    1    1    2  503  502  0.23366422742E+02 -0.20624412481E+03 -0.21156232172E+02  0.20863895823E+03  0.00000000000E+00 0. -1.
<mgrwt>
<rscale>  3 0.24229657E+03</rscale>
<asrwt>0</asrwt>
<pdfrwt beam="1">  1       21 0.20705885E-01 0.24229657E+03</pdfrwt>
<pdfrwt beam="2">  1       21 0.72955813E-01 0.24229657E+03</pdfrwt>
<totfact> 0.35687738E+04</totfact>
</mgrwt>
</event>
<event>
 4    0  0.1495377E-001  0.2721133E+03  0.7546771E-02  0.1100076E+00
         21   -1    0    0  502  501  0.00000000000E+00  0.00000000000E+00  0.94977629282E+03  0.94977629282E+03  0.00000000000E+00 0.  1.
         21   -1    0    0  503  502 -0.00000000000E+00 -0.00000000000E+00 -0.49684553868E+03  0.49684553868E+03  0.00000000000E+00 0. -1.
         25    1    1    2    0    0 -0.22433058750E+03  0.89980272352E+02 -0.44231858037E+03  0.51931819576E+03  0.12500000000E+03 0.  0.
         21    1    1    2  503  501  0.22433058750E+03 -0.89980272352E+02  0.89524933452E+03  0.92730363574E+03  0.00000000000E+00 0.  1.
<mgrwt>
<rscale>  3 0.27211333E+03</rscale>
<asrwt>0</asrwt>
<pdfrwt beam="1">  1       21 0.14611943E+00 0.27211333E+03</pdfrwt>
<pdfrwt beam="2">  1       21 0.76437775E-01 0.27211333E+03</pdfrwt>
<totfact> 0.45156104E+02</totfact>
</mgrwt>
</event>
<event>
 4    0  0.1495377E-001  0.2368573E+03  0.7546771E-02  0.1121904E+00
         21   -1    0    0  503  501  0.00000000000E+00  0.00000000000E+00  0.15488655843E+04  0.15488655843E+04  0.00000000000E+00 0.  1.
         21   -1    0    0  501  502 -0.00000000000E+00 -0.00000000000E+00 -0.30981677279E+02  0.30981677279E+02  0.00000000000E+00 0.  1.
         25    1    1    2    0    0  0.20118720097E+03 -0.33037116690E+00  0.80650898266E+03  0.84057012681E+03  0.12500000000E+03 0.  0.
         21    1    1    2  503  502 -0.20118720097E+03  0.33037116690E+00  0.71137492439E+03  0.73927713480E+03  0.00000000000E+00 0.  1.
<mgrwt>
<rscale>  3 0.23685734E+03</rscale>
<asrwt>0</asrwt>
<pdfrwt beam="1">  1       21 0.23828695E+00 0.23685734E+03</pdfrwt>
<pdfrwt beam="2">  1       21 0.47664131E-02 0.23685734E+03</pdfrwt>
<totfact> 0.21985982E+04</totfact>
</mgrwt>
</event>
<event>
 4    0  0.1495377E-001  0.3741579E+03  0.7546771E-02  0.1053114E+00
         21   -1    0    0  503  501  0.00000000000E+00  0.00000000000E+00  0.76080187779E+03  0.76080187779E+03  0.00000000000E+00 0. -1.
         21   -1    0    0  501  502 -0.00000000000E+00 -0.00000000000E+00 -0.19454658194E+03  0.19454658194E+03  0.00000000000E+00 0. -1.
         25    1    1    2    0    0 -0.33717046349E+03  0.10336946287E+03  0.44732208135E+03  0.58317339768E+03  0.12500000000E+03 0.  0.
         21    1    1    2  503  502  0.33717046349E+03 -0.10336946287E+03  0.11893321450E+03  0.37217506205E+03  0.00000000000E+00 0. -1.
<mgrwt>
<rscale>  3 0.37415794E+03</rscale>
<asrwt>0</asrwt>
<pdfrwt beam="1">  1       21 0.11704644E+00 0.37415794E+03</pdfrwt>
<pdfrwt beam="2">  1       21 0.29930244E-01 0.37415794E+03</pdfrwt>
<totfact> 0.54233366E+03</totfact>
</mgrwt>
</event>
<event>
 4    0  0.1495377E-001  0.2881241E+03  0.7546771E-02  0.1091333E+00
         21   -1    0    0  502  501  0.00000000000E+00  0.00000000000E+00  0.70354928303E+02  0.70354928303E+02  0.00000000000E+00 0.  1.
         21   -1    0    0  503  502 -0.00000000000E+00 -0.00000000000E+00 -0.14050260447E+04  0.14050260447E+04  0.00000000000E+00 0.  1.
         25    1    1    2    0    0 -0.19242074580E+03  0.17425492472E+03 -0.10556910565E+04  0.10943030334E+04  0.12500000000E+03 0.  0.
         21    1    1    2  503  501  0.19242074580E+03 -0.17425492472E+03 -0.27898005988E+03  0.38107793955E+03  0.00000000000E+00 0.  1.
<mgrwt>
<rscale>  3 0.28812414E+03</rscale>
<asrwt>0</asrwt>
<pdfrwt beam="1">  1       21 0.10823835E-01 0.28812414E+03</pdfrwt>
<pdfrwt beam="2">  1       21 0.21615786E+00 0.28812414E+03</pdfrwt>
<totfact> 0.69681247E+03</totfact>
</mgrwt>
</event>
<event>
 4    0  0.1495377E-001  0.2488911E+03  0.7546771E-02  0.1114008E+00
         21   -1    0    0  502  501  0.00000000000E+00  0.00000000000E+00  0.11258856097E+04  0.11258856097E+04  0.00000000000E+00 0.  1.
         21   -1    0    0  503  502 -0.00000000000E+00 -0.00000000000E+00 -0.47835137414E+02  0.47835137414E+02  0.00000000000E+00 0.  1.
         25    1    1    2    0    0  0.54106102969E+02 -0.20831305897E+03  0.57197167171E+03  0.62377751976E+03  0.12500000000E+03 0.  0.
         21    1    1    2  503  501 -0.54106102969E+02  0.20831305897E+03  0.50607880053E+03  0.54994322731E+03  0.00000000000E+00 0.  1.
<mgrwt>
<rscale>  3 0.24889114E+03</rscale>
<asrwt>0</asrwt>
<pdfrwt beam="1">  1       21 0.17321315E+00 0.24889114E+03</pdfrwt>
<pdfrwt beam="2">  1       21 0.73592527E-02 0.24889114E+03</pdfrwt>
<totfact> 0.27156162E+04</totfact>
</mgrwt>
</event>
<event>
 4    0  0.1495377E-001  0.2723368E+03  0.7546771E-02  0.1099950E+00
         21   -1    0    0  502  501  0.00000000000E+00  0.00000000000E+00  0.27779958919E+03  0.27779958919E+03  0.00000000000E+00 0.  1.
         21   -1    0    0  503  502 -0.00000000000E+00 -0.00000000000E+00 -0.69832651325E+03  0.69832651325E+03  0.00000000000E+00 0. -1.
         25    1    1    2    0    0 -0.12169027717E+03  0.20912634664E+03 -0.61050895845E+03  0.66849722570E+03  0.12500000000E+03 0.  0.
         21    1    1    2  503  501  0.12169027717E+03 -0.20912634664E+03  0.18998203439E+03  0.30762887675E+03  0.00000000000E+00 0.  1.
<mgrwt>
<rscale>  3 0.27233684E+03</rscale>
<asrwt>0</asrwt>
<pdfrwt beam="1">  1       21 0.42738399E-01 0.27233684E+03</pdfrwt>
<pdfrwt beam="2">  1       21 0.10743485E+00 0.27233684E+03</pdfrwt>
<totfact> 0.34368275E+03</totfact>
</mgrwt>
</event>
<event>
 4    0  0.1495377E-001  0.3521291E+03  0.7546771E-02  0.1061745E+00
         21   -1    0    0  502  501  0.00000000000E+00  0.00000000000E+00  0.45991607440E+03  0.45991607440E+03  0.00000000000E+00 0.  1.
         21   -1    0    0  503  502 -0.00000000000E+00 -0.00000000000E+00 -0.14603310233E+04  0.14603310233E+04  0.00000000000E+00 0.  1.
         25    1    1    2    0    0  0.19656483051E+03 -0.26406851593E+03 -0.13762740058E+04  0.14206072831E+04  0.12500000000E+03 0.  0.
         21    1    1    2  503  501 -0.19656483051E+03  0.26406851593E+03  0.37585905691E+03  0.49963981462E+03  0.00000000000E+00 0.  1.
<mgrwt>
<rscale>  3 0.35212912E+03</rscale>
<asrwt>0</asrwt>
<pdfrwt beam="1">  1       21 0.70756319E-01 0.35212912E+03</pdfrwt>
<pdfrwt beam="2">  1       21 0.22466631E+00 0.35212912E+03</pdfrwt>
<totfact> 0.14471858E+02</totfact>
</mgrwt>
</event>
<event>
 4    0  0.1495377E-001  0.3334705E+03  0.7546771E-02  0.1069612E+00
         21   -1    0    0  502  501  0.00000000000E+00  0.00000000000E+00  0.12984408137E+04  0.12984408137E+04  0.00000000000E+00 0.  1.
         21   -1    0    0  503  502 -0.00000000000E+00 -0.00000000000E+00 -0.47928771345E+03  0.47928771345E+03  0.00000000000E+00 0.  1.
         25    1    1    2    0    0  0.25977931034E+03  0.16760752644E+03 -0.39954906195E+03  0.52042485135E+03  0.12500000000E+03 0.  0.
         21    1    1    2  503  501 -0.25977931034E+03 -0.16760752644E+03  0.12187021622E+04  0.12573036758E+04  0.00000000000E+00 0.  1.
<mgrwt>
<rscale>  3 0.33347050E+03</rscale>
<asrwt>0</asrwt>
<pdfrwt beam="1">  1       21 0.19976012E+00 0.33347050E+03</pdfrwt>
<pdfrwt beam="2">  1       21 0.73736572E-01 0.33347050E+03</pdfrwt>
<totfact> 0.19325009E+02</totfact>
</mgrwt>
</event>
<event>
 4    0  0.1495377E-001  0.4295922E+03  0.7546771E-02  0.1033989E+00
         21   -1    0    0  502  501  0.00000000000E+00  0.00000000000E+00  0.14203325978E+03  0.14203325978E+03  0.00000000000E+00 0.  1.
         21   -1    0    0  503  502 -0.00000000000E+00 -0.00000000000E+00 -0.12454508825E+04  0.12454508825E+04  0.00000000000E+00 0.  1.
         25    1    1    2    0    0  0.17825383149E+03  0.37033777318E+03 -0.58969465989E+03  0.72958158323E+03  0.12500000000E+03 0.  0.
         21    1    1    2  503  501 -0.17825383149E+03 -0.37033777318E+03 -0.51372296285E+03  0.65790255908E+03  0.00000000000E+00 0.  1.
<mgrwt>
<rscale>  3 0.42959224E+03</rscale>
<asrwt>0</asrwt>
<pdfrwt beam="1">  1       21 0.21851270E-01 0.42959224E+03</pdfrwt>
<pdfrwt beam="2">  1       21 0.19160784E+00 0.42959224E+03</pdfrwt>
<totfact> 0.25555098E+03</totfact>
</mgrwt>
</event>
<event>
 4    0  0.1495377E-001  0.2925643E+03  0.7546771E-02  0.1089018E+00
         21   -1    0    0  503  501  0.00000000000E+00  0.00000000000E+00  0.10827856341E+04  0.10827856341E+04  0.00000000000E+00 0. -1.
         21   -1    0    0  501  502 -0.00000000000E+00 -0.00000000000E+00 -0.47213720128E+03  0.47213720128E+03  0.00000000000E+00 0.  1.
         25    1    1    2    0    0 -0.17415432144E+02  0.26394238019E+03 -0.40824540965E+03  0.50225311531E+03  0.12500000000E+03 0.  0.
         21    1    1    2  503  502  0.17415432144E+02 -0.26394238019E+03  0.10188938425E+04  0.10526697201E+04  0.00000000000E+00 0. -1.
<mgrwt>
<rscale>  3 0.29256431E+03</rscale>
<asrwt>0</asrwt>
<pdfrwt beam="1">  1       21 0.16658241E+00 0.29256431E+03</pdfrwt>
<pdfrwt beam="2">  1       21 0.72636493E-01 0.29256431E+03</pdfrwt>
<totfact> 0.34927072E+02</totfact>
</mgrwt>
</event>
<event>
 4    0  0.1495377E-001  0.2691329E+03  0.7546771E-02  0.1101777E+00
         21   -1    0    0  502  501  0.00000000000E+00  0.00000000000E+00  0.14062520860E+03  0.14062520860E+03  0.00000000000E+00 0.  1.
         21   -1    0    0  503  502 -0.00000000000E+00 -0.00000000000E+00 -0.19560694774E+04  0.19560694774E+04  0.00000000000E+00 0. -1.
         25    1    1    2    0    0  0.20695454936E+03 -0.11822579147E+03 -0.18377108414E+04  0.18573135599E+04  0.12500000000E+03 0.  0.
         21    1    1    2  503  501 -0.20695454936E+03  0.11822579147E+03  0.22266572599E+02  0.23938112609E+03  0.00000000000E+00 0.  1.
<mgrwt>
<rscale>  3 0.26913291E+03</rscale>
<asrwt>0</asrwt>
<pdfrwt beam="1">  1       21 0.21634647E-01 0.26913291E+03</pdfrwt>
<pdfrwt beam="2">  1       21 0.30093377E+00 0.26913291E+03</pdfrwt>
<totfact> 0.61322193E+02</totfact>
</mgrwt>
</event>
<event>
 4    0  0.1495377E-001  0.2581023E+03  0.7546771E-02  0.1108289E+00
         21   -1    0    0  503  501  0.00000000000E+00  0.00000000000E+00  0.93484892639E+03  0.93484892639E+03  0.00000000000E+00 0.  1.
         21   -1    0    0  501  502 -0.00000000000E+00 -0.00000000000E+00 -0.64107283364E+02  0.64107283364E+02  0.00000000000E+00 0. -1.
         25    1    1    2    0    0 -0.21820239163E+03  0.58133664691E+02  0.53956694492E+03  0.59812147155E+03  0.12500000000E+03 0.  0.
         21    1    1    2  503  502  0.21820239163E+03 -0.58133664691E+02  0.33117469811E+03  0.40083473820E+03  0.00000000000E+00 0.  1.
<mgrwt>
<rscale>  3 0.25810232E+03</rscale>
<asrwt>0</asrwt>
<pdfrwt beam="1">  1       21 0.14382290E+00 0.25810232E+03</pdfrwt>
<pdfrwt beam="2">  1       21 0.98626597E-02 0.25810232E+03</pdfrwt>
<totfact> 0.26740217E+04</totfact>
</mgrwt>
</event>
<event>
 4    0  0.1495377E-001  0.2498638E+03  0.7546771E-02  0.1113391E+00
         21   -1    0    0  503  501  0.00000000000E+00  0.00000000000E+00  0.46640232996E+02  0.46640232996E+02  0.00000000000E+00 0.  1.
         21   -1    0    0  501  502 -0.00000000000E+00 -0.00000000000E+00 -0.12444757074E+04  0.12444757074E+04  0.00000000000E+00 0. -1.
         25    1    1    2    0    0  0.13750128887E+03 -0.16703394062E+03 -0.80190850593E+03  0.83993404124E+03  0.12500000000E+03 0.  0.
         21    1    1    2  503  502 -0.13750128887E+03  0.16703394062E+03 -0.39592696849E+03  0.45118189917E+03  0.00000000000E+00 0.  1.
<mgrwt>
<rscale>  3 0.24986385E+03</rscale>
<asrwt>0</asrwt>
<pdfrwt beam="1">  1       21 0.71754211E-02 0.24986385E+03</pdfrwt>
<pdfrwt beam="2">  1       21 0.19145778E+00 0.24986385E+03</pdfrwt>
<totfact> 0.21285642E+04</totfact>
</mgrwt>
</event>
<event>
 4    0  0.1495377E-001  0.2871676E+03  0.7546771E-02  0.1091837E+00
         21   -1    0    0  502  501  0.00000000000E+00  0.00000000000E+00  0.25543759127E+03  0.25543759127E+03  0.00000000000E+00 0.  1.
         21   -1    0    0  503  502 -0.00000000000E+00 -0.00000000000E+00 -0.30938038680E+03  0.30938038680E+03  0.00000000000E+00 0.  1.
         25    1    1    2    0    0  0.10154174870E+03  0.23775931897E+03 -0.96199997439E+02  0.30285253836E+03  0.12500000000E+03 0.  0.
         21    1    1    2  503  501 -0.10154174870E+03 -0.23775931897E+03  0.42257201907E+02  0.26196543970E+03  0.00000000000E+00 0.  1.
<mgrwt>
<rscale>  3 0.28716758E+03</rscale>
<asrwt>0</asrwt>
<pdfrwt beam="1">  1       21 0.39298091E-01 0.28716758E+03</pdfrwt>
<pdfrwt beam="2">  1       21 0.47596982E-01 0.28716758E+03</pdfrwt>
<totfact> 0.25177561E+04</totfact>
</mgrwt>
</event>
<event>
 4    0  0.1495377E-001  0.3653649E+03  0.7546771E-02  0.1056480E+00
         21   -1    0    0  502  501  0.00000000000E+00  0.00000000000E+00  0.21801162899E+03  0.21801162899E+03  0.00000000000E+00 0.  1.
         21   -1    0    0  503  502 -0.00000000000E+00 -0.00000000000E+00 -0.63744023673E+03  0.63744023673E+03  0.00000000000E+00 0.  1.
         25    1    1    2    0    0 -0.18121664453E+03  0.29159396828E+03 -0.34842839406E+03  0.50487014210E+03  0.12500000000E+03 0.  0.
         21    1    1    2  503  501  0.18121664453E+03 -0.29159396828E+03 -0.71000213683E+02  0.35058172362E+03  0.00000000000E+00 0.  1.
<mgrwt>
<rscale>  3 0.36536491E+03</rscale>
<asrwt>0</asrwt>
<pdfrwt beam="1">  1       21 0.33540251E-01 0.36536491E+03</pdfrwt>
<pdfrwt beam="2">  1       21 0.98067728E-01 0.36536491E+03</pdfrwt>
<totfact> 0.66973974E+03</totfact>
</mgrwt>
</event>
<event>
 4    0  0.1495377E-001  0.4128388E+03  0.7546771E-02  0.1039423E+00
         21   -1    0    0  502  501  0.00000000000E+00  0.00000000000E+00  0.96081965375E+03  0.96081965375E+03  0.00000000000E+00 0. -1.
         21   -1    0    0  503  502 -0.00000000000E+00 -0.00000000000E+00 -0.18662316960E+03  0.18662316960E+03  0.00000000000E+00 0. -1.
         25    1    1    2    0    0  0.37037151067E+03  0.13280006261E+03  0.22006170496E+03  0.46782803094E+03  0.12500000000E+03 0.  0.
         21    1    1    2  503  501 -0.37037151067E+03 -0.13280006261E+03  0.55413477919E+03  0.67961479240E+03  0.00000000000E+00 0. -1.
<mgrwt>
<rscale>  3 0.41283885E+03</rscale>
<asrwt>0</asrwt>
<pdfrwt beam="1">  1       21 0.14781841E+00 0.41283885E+03</pdfrwt>
<pdfrwt beam="2">  1       21 0.28711257E-01 0.41283885E+03</pdfrwt>
<totfact> 0.31595588E+03</totfact>
</mgrwt>
</event>
<event>
 4    0  0.1495377E-001  0.2844721E+03  0.7546771E-02  0.1093271E+00
         21   -1    0    0  502  501  0.00000000000E+00  0.00000000000E+00  0.15171333393E+03  0.15171333393E+03  0.00000000000E+00 0. -1.
         21   -1    0    0  503  502 -0.00000000000E+00 -0.00000000000E+00 -0.10443667985E+04  0.10443667985E+04  0.00000000000E+00 0. -1.
         25    1    1    2    0    0 -0.62965516614E+02  0.24765851856E+03 -0.89646123242E+03  0.94051429513E+03  0.12500000000E+03 0.  0.
         21    1    1    2  503  501  0.62965516614E+02 -0.24765851856E+03  0.38077678678E+01  0.25556583729E+03  0.00000000000E+00 0. -1.
<mgrwt>
<rscale>  3 0.28447214E+03</rscale>
<asrwt>0</asrwt>
<pdfrwt beam="1">  1       21 0.23340512E-01 0.28447214E+03</pdfrwt>
<pdfrwt beam="2">  1       21 0.16067182E+00 0.28447214E+03</pdfrwt>
<totfact> 0.40139367E+03</totfact>
</mgrwt>
</event>
<event>
 4    0  0.1495377E-001  0.2627067E+03  0.7546771E-02  0.1105528E+00
         21   -1    0    0  503  501  0.00000000000E+00  0.00000000000E+00  0.19851875784E+03  0.19851875784E+03  0.00000000000E+00 0. -1.
         21   -1    0    0  501  502 -0.00000000000E+00 -0.00000000000E+00 -0.37418826607E+03  0.37418826607E+03  0.00000000000E+00 0. -1.
         25    1    1    2    0    0 -0.13445502782E+03  0.18791402117E+03 -0.21355843870E+03  0.33855876979E+03  0.12500000000E+03 0.  0.
         21    1    1    2  503  502  0.13445502782E+03 -0.18791402117E+03  0.37888930481E+02  0.23414825412E+03  0.00000000000E+00 0. -1.
<mgrwt>
<rscale>  3 0.26270674E+03</rscale>
<asrwt>0</asrwt>
<pdfrwt beam="1">  1       21 0.30541347E-01 0.26270674E+03</pdfrwt>
<pdfrwt beam="2">  1       21 0.57567425E-01 0.26270674E+03</pdfrwt>
<totfact> 0.28141653E+04</totfact>
</mgrwt>
</event>
<event>
 4    0  0.1495377E-001  0.7665993E+03  0.7546771E-02  0.9609663E-01
         21   -1    0    0  503  501  0.00000000000E+00  0.00000000000E+00  0.14446606986E+04  0.14446606986E+04  0.00000000000E+00 0. -1.
         21   -1    0    0  501  502 -0.00000000000E+00 -0.00000000000E+00 -0.54856407485E+03  0.54856407485E+03  0.00000000000E+00 0. -1.
         25    1    1    2    0    0  0.56623341351E+03 -0.50142716883E+03 -0.65991373715E+02  0.76943443231E+03  0.12500000000E+03 0.  0.
         21    1    1    2  503  502 -0.56623341351E+03  0.50142716883E+03  0.96208799748E+03  0.12237903412E+04  0.00000000000E+00 0. -1.
<mgrwt>
<rscale>  3 0.76659930E+03</rscale>
<asrwt>0</asrwt>
<pdfrwt beam="1">  1       21 0.22225549E+00 0.76659930E+03</pdfrwt>
<pdfrwt beam="2">  1       21 0.84394474E-01 0.76659930E+03</pdfrwt>
<totfact> 0.81679836E+01</totfact>
</mgrwt>
</event>
<event>
 4    0  0.1495377E-001  0.3008769E+03  0.7546771E-02  0.1084803E+00
         21   -1    0    0  502  501  0.00000000000E+00  0.00000000000E+00  0.51881231853E+03  0.51881231853E+03  0.00000000000E+00 0.  1.
         21   -1    0    0  503  502 -0.00000000000E+00 -0.00000000000E+00 -0.16003121810E+03  0.16003121810E+03  0.00000000000E+00 0.  1.
         25    1    1    2    0    0  0.27255674500E+03 -0.24793712511E+02  0.21405301201E+03  0.36925004994E+03  0.12500000000E+03 0.  0.
         21    1    1    2  503  501 -0.27255674500E+03  0.24793712511E+02  0.14472808842E+03  0.30959348669E+03  0.00000000000E+00 0.  1.
<mgrwt>
<rscale>  3 0.30087690E+03</rscale>
<asrwt>0</asrwt>
<pdfrwt beam="1">  1       21 0.79817279E-01 0.30087690E+03</pdfrwt>
<pdfrwt beam="2">  1       21 0.24620188E-01 0.30087690E+03</pdfrwt>
<totfact> 0.20432085E+04</totfact>
</mgrwt>
</event>
<event>
 4    0  0.1617257E-001  0.2445441E+03  0.7546771E-02  0.1116802E+00
         21   -1    0    0  502  501  0.00000000000E+00  0.00000000000E+00  0.66269143296E+03  0.66269143296E+03  0.00000000000E+00 0.  1.
         21   -1    0    0  503  502 -0.00000000000E+00 -0.00000000000E+00 -0.34837420025E+03  0.34837420025E+03  0.00000000000E+00 0. -1.
         25    1    1    2    0    0 -0.20084383279E+03 -0.61956169454E+02 -0.28524994186E+03  0.37572508757E+03  0.12500000000E+03 0.  0.
         21    1    1    2  503  501  0.20084383279E+03  0.61956169454E+02  0.59956717457E+03  0.63534054563E+03  0.00000000000E+00 0.  1.
<mgrwt>
<rscale>  3 0.24454409E+03</rscale>
<asrwt>0</asrwt>
<pdfrwt beam="1">  1       21 0.10195253E+00 0.24454409E+03</pdfrwt>
<pdfrwt beam="2">  1       21 0.53596031E-01 0.24454409E+03</pdfrwt>
<totfact> 0.24772676E+03</totfact>
</mgrwt>
</event>
<event>
 4    0  0.1495377E-001  0.2477334E+03  0.7546771E-02  0.1114746E+00
         21   -1    0    0  503  501  0.00000000000E+00  0.00000000000E+00  0.55124856090E+03  0.55124856090E+03  0.00000000000E+00 0. -1.
         21   -1    0    0  501  502 -0.00000000000E+00 -0.00000000000E+00 -0.10027843460E+03  0.10027843460E+03  0.00000000000E+00 0.  1.
         25    1    1    2    0    0 -0.17777044389E+03  0.11893057756E+03  0.17953141307E+03  0.30594663142E+03  0.12500000000E+03 0.  0.
         21    1    1    2  503  502  0.17777044389E+03 -0.11893057756E+03  0.27143871322E+03  0.34558036408E+03  0.00000000000E+00 0. -1.
<mgrwt>
<rscale>  3 0.24773335E+03</rscale>
<asrwt>0</asrwt>
<pdfrwt beam="1">  1       21 0.84807469E-01 0.24773335E+03</pdfrwt>
<pdfrwt beam="2">  1       21 0.15427452E-01 0.24773335E+03</pdfrwt>
<totfact> 0.43733422E+04</totfact>
</mgrwt>
</event>
<event>
 4    0  0.1495377E-001  0.2935733E+03  0.7546771E-02  0.1088498E+00
         21   -1    0    0  502  501  0.00000000000E+00  0.00000000000E+00  0.57781121312E+03  0.57781121312E+03  0.00000000000E+00 0. -1.
         21   -1    0    0  503  502 -0.00000000000E+00 -0.00000000000E+00 -0.16093008716E+03  0.16093008716E+03  0.00000000000E+00 0. -1.
         25    1    1    2    0    0 -0.24244393769E+03  0.10854120470E+03  0.69942978294E+02  0.30179011954E+03  0.12500000000E+03 0.  0.
         21    1    1    2  503  501  0.24244393769E+03 -0.10854120470E+03  0.34693814767E+03  0.43695118074E+03  0.00000000000E+00 0. -1.
<mgrwt>
<rscale>  3 0.29357325E+03</rscale>
<asrwt>0</asrwt>
<pdfrwt beam="1">  1       21 0.88894032E-01 0.29357325E+03</pdfrwt>
<pdfrwt beam="2">  1       21 0.24758475E-01 0.29357325E+03</pdfrwt>
<totfact> 0.15807230E+04</totfact>
</mgrwt>
</event>
<event>
 4    0  0.1495377E-001  0.2788329E+03  0.7546771E-02  0.1096328E+00
         21   -1    0    0  503  501  0.00000000000E+00  0.00000000000E+00  0.34726643014E+03  0.34726643014E+03  0.00000000000E+00 0. -1.
         21   -1    0    0  501  502 -0.00000000000E+00 -0.00000000000E+00 -0.31207454368E+03  0.31207454368E+03  0.00000000000E+00 0.  1.
         25    1    1    2    0    0  0.24923103187E+03 -0.25841145115E+01 -0.17846436455E+03  0.33105485091E+03  0.12500000000E+03 0.  0.
         21    1    1    2  503  502 -0.24923103187E+03  0.25841145115E+01  0.21365625102E+03  0.32828612291E+03  0.00000000000E+00 0. -1.
<mgrwt>
<rscale>  3 0.27883290E+03</rscale>
<asrwt>0</asrwt>
<pdfrwt beam="1">  1       21 0.53425605E-01 0.27883290E+03</pdfrwt>
<pdfrwt beam="2">  1       21 0.48011468E-01 0.27883290E+03</pdfrwt>
<totfact> 0.13103899E+04</totfact>
</mgrwt>
</event>
<event>
 4    0  0.1495377E-001  0.2515385E+03  0.7546771E-02  0.1112336E+00
         21   -1    0    0  503  501  0.00000000000E+00  0.00000000000E+00  0.48200043721E+03  0.48200043721E+03  0.00000000000E+00 0. -1.
         21   -1    0    0  501  502 -0.00000000000E+00 -0.00000000000E+00 -0.42564582510E+03  0.42564582510E+03  0.00000000000E+00 0. -1.
         25    1    1    2    0    0  0.19120736720E+03  0.10529186075E+03 -0.35904429680E+03  0.43838845819E+03  0.12500000000E+03 0.  0.
         21    1    1    2  503  502 -0.19120736720E+03 -0.10529186075E+03  0.41539890891E+03  0.46925780413E+03  0.00000000000E+00 0. -1.
<mgrwt>
<rscale>  3 0.25153853E+03</rscale>
<asrwt>0</asrwt>
<pdfrwt beam="1">  1       21 0.74153914E-01 0.25153853E+03</pdfrwt>
<pdfrwt beam="2">  1       21 0.65483973E-01 0.25153853E+03</pdfrwt>
<totfact> 0.33466864E+03</totfact>
</mgrwt>
</event>
<event>
 4    0  0.1495377E-001  0.2404454E+03  0.7546771E-02  0.1119496E+00
         21   -1    0    0  502  501  0.00000000000E+00  0.00000000000E+00  0.13897496679E+03  0.13897496679E+03  0.00000000000E+00 0.  1.
         21   -1    0    0  503  502 -0.00000000000E+00 -0.00000000000E+00 -0.50259096092E+03  0.50259096092E+03  0.00000000000E+00 0.  1.
         25    1    1    2    0    0 -0.18994561179E+01 -0.20539082169E+03 -0.36390505139E+03  0.43616611972E+03  0.12500000000E+03 0.  0.
         21    1    1    2  503  501  0.18994561179E+01  0.20539082169E+03  0.28905725853E+00  0.20539980799E+03  0.00000000000E+00 0.  1.
<mgrwt>
<rscale>  3 0.24044541E+03</rscale>
<asrwt>0</asrwt>
<pdfrwt beam="1">  1       21 0.21380764E-01 0.24044541E+03</pdfrwt>
<pdfrwt beam="2">  1       21 0.77321687E-01 0.24044541E+03</pdfrwt>
<totfact> 0.29504578E+04</totfact>
</mgrwt>
</event>
<event>
 4    0  0.1495377E-001  0.2457328E+03  0.7546771E-02  0.1116032E+00
         21   -1    0    0  502  501  0.00000000000E+00  0.00000000000E+00  0.20649214313E+04  0.20649214313E+04  0.00000000000E+00 0.  1.
         21   -1    0    0  503  502 -0.00000000000E+00 -0.00000000000E+00 -0.35388636350E+02  0.35388636350E+02  0.00000000000E+00 0.  1.
         25    1    1    2    0    0 -0.75903580440E+02 -0.19747974312E+03  0.50992978599E+03  0.56605034149E+03  0.12500000000E+03 0.  0.
         21    1    1    2  503  501  0.75903580440E+02  0.19747974312E+03  0.15196030089E+04  0.15342597261E+04  0.00000000000E+00 0.  1.
<mgrwt>
<rscale>  3 0.24573279E+03</rscale>
<asrwt>0</asrwt>
<pdfrwt beam="1">  1       21 0.31768013E+00 0.24573279E+03</pdfrwt>
<pdfrwt beam="2">  1       21 0.54444072E-02 0.24573279E+03</pdfrwt>
<totfact> 0.59421657E+03</totfact>
</mgrwt>
</event>
<event>
 4    0  0.1495377E-001  0.2462197E+03  0.7546771E-02  0.1115717E+00
         21   -1    0    0  503  501  0.00000000000E+00  0.00000000000E+00  0.99701800605E+02  0.99701800605E+02  0.00000000000E+00 0.  1.
         21   -1    0    0  501  502 -0.00000000000E+00 -0.00000000000E+00 -0.10122361546E+04  0.10122361546E+04  0.00000000000E+00 0.  1.
         25    1    1    2    0    0  0.12738166424E+03 -0.16962614309E+03 -0.85839324449E+03  0.89300788294E+03  0.12500000000E+03 0.  0.
         21    1    1    2  503  502 -0.12738166424E+03  0.16962614309E+03 -0.54141109502E+02  0.21893007226E+03  0.00000000000E+00 0.  1.
<mgrwt>
<rscale>  3 0.24621965E+03</rscale>
<asrwt>0</asrwt>
<pdfrwt beam="1">  1       21 0.15338739E-01 0.24621965E+03</pdfrwt>
<pdfrwt beam="2">  1       21 0.15572864E+00 0.24621965E+03</pdfrwt>
<totfact> 0.98199557E+03</totfact>
</mgrwt>
</event>
<event>
 4    0  0.1495377E-001  0.2482781E+03  0.7546771E-02  0.1114398E+00
         21   -1    0    0  503  501  0.00000000000E+00  0.00000000000E+00  0.12834974211E+03  0.12834974211E+03  0.00000000000E+00 0.  1.
         21   -1    0    0  501  502 -0.00000000000E+00 -0.00000000000E+00 -0.72279489444E+03  0.72279489444E+03  0.00000000000E+00 0. -1.
         25    1    1    2    0    0  0.14701396577E+03 -0.15621754495E+03 -0.58604161777E+03  0.63646430005E+03  0.12500000000E+03 0.  0.
         21    1    1    2  503  502 -0.14701396577E+03  0.15621754495E+03 -0.84035345568E+01  0.21468033649E+03  0.00000000000E+00 0.  1.
<mgrwt>
<rscale>  3 0.24827813E+03</rscale>
<asrwt>0</asrwt>
<pdfrwt beam="1">  1       21 0.19746114E-01 0.24827813E+03</pdfrwt>
<pdfrwt beam="2">  1       21 0.11119922E+00 0.24827813E+03</pdfrwt>
<totfact> 0.14539123E+04</totfact>
</mgrwt>
</event>
<event>
 4    0  0.1495377E-001  0.2609734E+03  0.7546771E-02  0.1106560E+00
         21   -1    0    0  502  501  0.00000000000E+00  0.00000000000E+00  0.15110306158E+04  0.15110306158E+04  0.00000000000E+00 0. -1.
         21   -1    0    0  503  502 -0.00000000000E+00 -0.00000000000E+00 -0.13394571900E+03  0.13394571900E+03  0.00000000000E+00 0. -1.
         25    1    1    2    0    0  0.17156014495E+03  0.15181969824E+03  0.12476097391E+02  0.26127142422E+03  0.12500000000E+03 0.  0.
         21    1    1    2  503  501 -0.17156014495E+03 -0.15181969824E+03  0.13646087994E+04  0.13837049105E+04  0.00000000000E+00 0. -1.
<mgrwt>
<rscale>  3 0.26097338E+03</rscale>
<asrwt>0</asrwt>
<pdfrwt beam="1">  1       21 0.23246624E+00 0.26097338E+03</pdfrwt>
<pdfrwt beam="2">  1       21 0.20607035E-01 0.26097338E+03</pdfrwt>
<totfact> 0.17258822E+03</totfact>
</mgrwt>
</event>
<event>
 4    0  0.1495377E-001  0.3717728E+03  0.7546771E-02  0.1054017E+00
         21   -1    0    0  502  501  0.00000000000E+00  0.00000000000E+00  0.33886917597E+03  0.33886917597E+03  0.00000000000E+00 0. -1.
         21   -1    0    0  503  502 -0.00000000000E+00 -0.00000000000E+00 -0.40204215134E+03  0.40204215134E+03  0.00000000000E+00 0. -1.
         25    1    1    2    0    0  0.34931179671E+03 -0.23901084240E+02 -0.10990508937E+03  0.38767785830E+03  0.12500000000E+03 0.  0.
         21    1    1    2  503  501 -0.34931179671E+03  0.23901084240E+02  0.46732114011E+02  0.35323346901E+03  0.00000000000E+00 0. -1.
<mgrwt>
<rscale>  3 0.37177277E+03</rscale>
<asrwt>0</asrwt>
<pdfrwt beam="1">  1       21 0.52133719E-01 0.37177277E+03</pdfrwt>
<pdfrwt beam="2">  1       21 0.61852639E-01 0.37177277E+03</pdfrwt>
<totfact> 0.77221399E+03</totfact>
</mgrwt>
</event>
<event>
 4    0  0.1495377E-001  0.3117861E+03  0.7546771E-02  0.1079493E+00
         21   -1    0    0  503  501  0.00000000000E+00  0.00000000000E+00  0.16831333451E+04  0.16831333451E+04  0.00000000000E+00 0.  1.
         21   -1    0    0  501  502 -0.00000000000E+00 -0.00000000000E+00 -0.28937210682E+03  0.28937210682E+03  0.00000000000E+00 0.  1.
         25    1    1    2    0    0 -0.13832445527E+03 -0.24990386772E+03 -0.18872018522E+03  0.36445288631E+03  0.12500000000E+03 0.  0.
         21    1    1    2  503  502  0.13832445527E+03  0.24990386772E+03  0.15824814235E+04  0.16080525656E+04  0.00000000000E+00 0.  1.
<mgrwt>
<rscale>  3 0.31178614E+03</rscale>
<asrwt>0</asrwt>
<pdfrwt beam="1">  1       21 0.25894359E+00 0.31178614E+03</pdfrwt>
<pdfrwt beam="2">  1       21 0.44518787E-01 0.31178614E+03</pdfrwt>
<totfact> 0.25032560E+02</totfact>
</mgrwt>
</event>
<event>
 4    0  0.1495377E-001  0.2375056E+03  0.7546771E-02  0.1121466E+00
         21   -1    0    0  502  501  0.00000000000E+00  0.00000000000E+00  0.76769554071E+02  0.76769554071E+02  0.00000000000E+00 0. -1.
         21   -1    0    0  503  502 -0.00000000000E+00 -0.00000000000E+00 -0.64170654163E+03  0.64170654163E+03  0.00000000000E+00 0. -1.
         25    1    1    2    0    0  0.16960882738E+03 -0.10962105707E+03 -0.35545217408E+03  0.42749874683E+03  0.12500000000E+03 0.  0.
         21    1    1    2  503  501 -0.16960882738E+03  0.10962105707E+03 -0.20948481348E+03  0.29097734887E+03  0.00000000000E+00 0. -1.
<mgrwt>
<rscale>  3 0.23750564E+03</rscale>
<asrwt>0</asrwt>
<pdfrwt beam="1">  1       21 0.11810701E-01 0.23750564E+03</pdfrwt>
<pdfrwt beam="2">  1       21 0.98724082E-01 0.23750564E+03</pdfrwt>
<totfact> 0.50005802E+04</totfact>
</mgrwt>
</event>
<event>
 4    0  0.1495377E-001  0.2549736E+03  0.7546771E-02  0.1110201E+00
         21   -1    0    0  502  501  0.00000000000E+00  0.00000000000E+00  0.10838140178E+04  0.10838140178E+04  0.00000000000E+00 0.  1.
         21   -1    0    0  503  502 -0.00000000000E+00 -0.00000000000E+00 -0.82403145986E+02  0.82403145986E+02  0.00000000000E+00 0.  1.
         25    1    1    2    0    0  0.18562499906E+03  0.12218787254E+03  0.17203348211E+03  0.30758256686E+03  0.12500000000E+03 0.  0.
         21    1    1    2  503  501 -0.18562499906E+03 -0.12218787254E+03  0.82937738968E+03  0.85863459689E+03  0.00000000000E+00 0.  1.
<mgrwt>
<rscale>  3 0.25497356E+03</rscale>
<asrwt>0</asrwt>
<pdfrwt beam="1">  1       21 0.16674061E+00 0.25497356E+03</pdfrwt>
<pdfrwt beam="2">  1       21 0.12677408E-01 0.25497356E+03</pdfrwt>
<totfact> 0.11467445E+04</totfact>
</mgrwt>
</event>
<event>
 4    0  0.1495377E-001  0.3193487E+03  0.7546771E-02  0.1075949E+00
         21   -1    0    0  502  501  0.00000000000E+00  0.00000000000E+00  0.43163708913E+03  0.43163708913E+03  0.00000000000E+00 0.  1.
         21   -1    0    0  503  502 -0.00000000000E+00 -0.00000000000E+00 -0.30011247892E+03  0.30011247892E+03  0.00000000000E+00 0.  1.
         25    1    1    2    0    0  0.23573824188E+03 -0.17545969100E+03 -0.12375153174E+03  0.34248804863E+03  0.12500000000E+03 0.  0.
         21    1    1    2  503  501 -0.23573824188E+03  0.17545969100E+03  0.25527614195E+03  0.38926151941E+03  0.00000000000E+00 0.  1.
<mgrwt>
<rscale>  3 0.31934875E+03</rscale>
<asrwt>0</asrwt>
<pdfrwt beam="1">  1       21 0.66405706E-01 0.31934875E+03</pdfrwt>
<pdfrwt beam="2">  1       21 0.46171150E-01 0.31934875E+03</pdfrwt>
<totfact> 0.87132965E+03</totfact>
</mgrwt>
</event>
<event>
 4    0  0.1495377E-001  0.2427463E+03  0.7546771E-02  0.1117977E+00
         21   -1    0    0  502  501  0.00000000000E+00  0.00000000000E+00  0.21352050310E+03  0.21352050310E+03  0.00000000000E+00 0.  1.
         21   -1    0    0  503  502 -0.00000000000E+00 -0.00000000000E+00 -0.67174794577E+03  0.67174794577E+03  0.00000000000E+00 0.  1.
         25    1    1    2    0    0 -0.80857518381E+02 -0.19173638143E+03 -0.59067119518E+03  0.63860648216E+03  0.12500000000E+03 0.  0.
         21    1    1    2  503  501  0.80857518381E+02  0.19173638143E+03  0.13244375251E+03  0.24666196671E+03  0.00000000000E+00 0.  1.
<mgrwt>
<rscale>  3 0.24274632E+03</rscale>
<asrwt>0</asrwt>
<pdfrwt beam="1">  1       21 0.32849308E-01 0.24274632E+03</pdfrwt>
<pdfrwt beam="2">  1       21 0.10334584E+00 0.24274632E+03</pdfrwt>
<totfact> 0.65379150E+03</totfact>
</mgrwt>
</event>
<event>
 4    0  0.1495377E-001  0.2721434E+03  0.7546771E-02  0.1100059E+00
         21   -1    0    0  502  501  0.00000000000E+00  0.00000000000E+00  0.90364906780E+03  0.90364906780E+03  0.00000000000E+00 0.  1.
         21   -1    0    0  503  502 -0.00000000000E+00 -0.00000000000E+00 -0.16682478114E+03  0.16682478114E+03  0.00000000000E+00 0.  1.
         25    1    1    2    0    0 -0.22330213130E+03  0.92591497832E+02 -0.23008116999E+02  0.27311426320E+03  0.12500000000E+03 0.  0.
         21    1    1    2  503  501  0.22330213130E+03 -0.92591497832E+02  0.75983240366E+03  0.79735958574E+03  0.00000000000E+00 0.  1.
<mgrwt>
<rscale>  3 0.27214339E+03</rscale>
<asrwt>0</asrwt>
<pdfrwt beam="1">  1       21 0.13902293E+00 0.27214339E+03</pdfrwt>
<pdfrwt beam="2">  1       21 0.25665351E-01 0.27214339E+03</pdfrwt>
<totfact> 0.49600176E+03</totfact>
</mgrwt>
</event>
<event>
 4    0  0.1495377E-001  0.3113267E+03  0.7546771E-02  0.1079712E+00
         21   -1    0    0  503  501  0.00000000000E+00  0.00000000000E+00  0.23164298452E+03  0.23164298452E+03  0.00000000000E+00 0.  1.
         21   -1    0    0  501  502 -0.00000000000E+00 -0.00000000000E+00 -0.85774659224E+03  0.85774659224E+03  0.00000000000E+00 0.  1.
         25    1    1    2    0    0  0.19709736329E+03 -0.20603865192E+03 -0.72385708723E+03  0.78796787970E+03  0.12500000000E+03 0.  0.
         21    1    1    2  503  502 -0.19709736329E+03  0.20603865192E+03  0.97753479515E+02  0.30142169706E+03  0.00000000000E+00 0.  1.
<mgrwt>
<rscale>  3 0.31132667E+03</rscale>
<asrwt>0</asrwt>
<pdfrwt beam="1">  1       21 0.35637381E-01 0.31132667E+03</pdfrwt>
<pdfrwt beam="2">  1       21 0.13196102E+00 0.31132667E+03</pdfrwt>
<totfact> 0.29072086E+03</totfact>
</mgrwt>
</event>
<event>
 4    0  0.1495377E-001  0.2661939E+03  0.7546771E-02  0.1103478E+00
         21   -1    0    0  503  501  0.00000000000E+00  0.00000000000E+00  0.34336200868E+03  0.34336200868E+03  0.00000000000E+00 0. -1.
         21   -1    0    0  501  502 -0.00000000000E+00 -0.00000000000E+00 -0.40001476012E+03  0.40001476012E+03  0.00000000000E+00 0. -1.
         25    1    1    2    0    0 -0.90651622338E+02  0.21683281832E+03 -0.30271743204E+03  0.40310920530E+03  0.12500000000E+03 0.  0.
         21    1    1    2  503  502  0.90651622338E+02 -0.21683281832E+03  0.24606468060E+03  0.34026756350E+03  0.00000000000E+00 0. -1.
<mgrwt>
<rscale>  3 0.26619389E+03</rscale>
<asrwt>0</asrwt>
<pdfrwt beam="1">  1       21 0.52824924E-01 0.26619389E+03</pdfrwt>
<pdfrwt beam="2">  1       21 0.61540732E-01 0.26619389E+03</pdfrwt>
<totfact> 0.79578596E+03</totfact>
</mgrwt>
</event>
<event>
 4    0  0.1495377E-001  0.2483641E+03  0.7546771E-02  0.1114343E+00
         21   -1    0    0  502  501  0.00000000000E+00  0.00000000000E+00  0.85279120592E+03  0.85279120592E+03  0.00000000000E+00 0. -1.
         21   -1    0    0  503  502 -0.00000000000E+00 -0.00000000000E+00 -0.14390341682E+03  0.14390341682E+03  0.00000000000E+00 0. -1.
         25    1    1    2    0    0  0.62092151694E+02  0.20543684364E+03 -0.78771154028E+01  0.24848899568E+03  0.12500000000E+03 0.  0.
         21    1    1    2  503  501 -0.62092151694E+02 -0.20543684364E+03  0.71676490451E+03  0.74820562706E+03  0.00000000000E+00 0. -1.
<mgrwt>
<rscale>  3 0.24836411E+03</rscale>
<asrwt>0</asrwt>
<pdfrwt beam="1">  1       21 0.13119864E+00 0.24836411E+03</pdfrwt>
<pdfrwt beam="2">  1       21 0.22138988E-01 0.24836411E+03</pdfrwt>
<totfact> 0.77515394E+03</totfact>
</mgrwt>
</event>
<event>
 4    0  0.1495377E-001  0.3216900E+03  0.7546771E-02  0.1074874E+00
         21   -1    0    0  502  501  0.00000000000E+00  0.00000000000E+00  0.15501847165E+04  0.15501847165E+04  0.00000000000E+00 0. -1.
         21   -1    0    0  503  502 -0.00000000000E+00 -0.00000000000E+00 -0.94343595671E+02  0.94343595671E+02  0.00000000000E+00 0.  1.
         25    1    1    2    0    0 -0.29610226657E+03  0.13523927798E+02  0.26331096818E+03  0.41571277928E+03  0.12500000000E+03 0.  0.
         21    1    1    2  503  501  0.29610226657E+03 -0.13523927798E+02  0.11925301527E+04  0.12288155329E+04  0.00000000000E+00 0. -1.
<mgrwt>
<rscale>  3 0.32168999E+03</rscale>
<asrwt>0</asrwt>
<pdfrwt beam="1">  1       21 0.23848994E+00 0.32168999E+03</pdfrwt>
<pdfrwt beam="2">  1       21 0.14514400E-01 0.32168999E+03</pdfrwt>
<totfact> 0.29121610E+03</totfact>
</mgrwt>
</event>
<event>
 4    0  0.1495377E-001  0.2471009E+03  0.7546771E-02  0.1115151E+00
         21   -1    0    0  502  501  0.00000000000E+00  0.00000000000E+00  0.34704021336E+03  0.34704021336E+03  0.00000000000E+00 0. -1.
         21   -1    0    0  503  502 -0.00000000000E+00 -0.00000000000E+00 -0.16377561508E+03  0.16377561508E+03  0.00000000000E+00 0. -1.
         25    1    1    2    0    0  0.76746965388E+02  0.19885608215E+03  0.31379825272E+02  0.24908539005E+03  0.12500000000E+03 0.  0.
         21    1    1    2  503  501 -0.76746965388E+02 -0.19885608215E+03  0.15188477301E+03  0.26173043838E+03  0.00000000000E+00 0. -1.
<mgrwt>
<rscale>  3 0.24710087E+03</rscale>
<asrwt>0</asrwt>
<pdfrwt beam="1">  1       21 0.53390802E-01 0.24710087E+03</pdfrwt>
<pdfrwt beam="2">  1       21 0.25196249E-01 0.24710087E+03</pdfrwt>
<totfact> 0.48351010E+04</totfact>
</mgrwt>
</event>
<event>
 4    0  0.1495377E-001  0.2608079E+03  0.7546771E-02  0.1106659E+00
         21   -1    0    0  503  501  0.00000000000E+00  0.00000000000E+00  0.10897692028E+03  0.10897692028E+03  0.00000000000E+00 0.  1.
         21   -1    0    0  501  502 -0.00000000000E+00 -0.00000000000E+00 -0.60468072213E+03  0.60468072213E+03  0.00000000000E+00 0.  1.
         25    1    1    2    0    0 -0.12389803323E+03 -0.19247092560E+03 -0.36949231442E+03  0.45226690157E+03  0.12500000000E+03 0.  0.
         21    1    1    2  503  502  0.12389803323E+03  0.19247092560E+03 -0.12621148743E+03  0.26139074085E+03  0.00000000000E+00 0.  1.
<mgrwt>
<rscale>  3 0.26080794E+03</rscale>
<asrwt>0</asrwt>
<pdfrwt beam="1">  1       21 0.16765680E-01 0.26080794E+03</pdfrwt>
<pdfrwt beam="2">  1       21 0.93027806E-01 0.26080794E+03</pdfrwt>
<totfact> 0.30082634E+04</totfact>
</mgrwt>
</event>
<event>
 4    0  0.1495377E-001  0.2363494E+03  0.7546771E-02  0.1122249E+00
         21   -1    0    0  503  501  0.00000000000E+00  0.00000000000E+00  0.10510660881E+04  0.10510660881E+04  0.00000000000E+00 0.  1.
         21   -1    0    0  501  502 -0.00000000000E+00 -0.00000000000E+00 -0.10631491293E+03  0.10631491293E+03  0.00000000000E+00 0. -1.
         25    1    1    2    0    0  0.16052464815E+03 -0.12028240510E+03  0.51513862757E+02  0.24189811428E+03  0.12500000000E+03 0.  0.
         21    1    1    2  503  502 -0.16052464815E+03  0.12028240510E+03  0.89323731237E+03  0.91548288671E+03  0.00000000000E+00 0.  1.
<mgrwt>
<rscale>  3 0.23634936E+03</rscale>
<asrwt>0</asrwt>
<pdfrwt beam="1">  1       21 0.16170247E+00 0.23634936E+03</pdfrwt>
<pdfrwt beam="2">  1       21 0.16356141E-01 0.23634936E+03</pdfrwt>
<totfact> 0.79285454E+03</totfact>
</mgrwt>
</event>
<event>
 4    0  0.1495377E-001  0.4932765E+03  0.7546771E-02  0.1015549E+00
         21   -1    0    0  502  501  0.00000000000E+00  0.00000000000E+00  0.28063982128E+03  0.28063982128E+03  0.00000000000E+00 0.  1.
         21   -1    0    0  503  502 -0.00000000000E+00 -0.00000000000E+00 -0.93766464123E+03  0.93766464123E+03  0.00000000000E+00 0.  1.
         25    1    1    2    0    0  0.28769480679E+03  0.38069460345E+03 -0.53100714764E+03  0.72476911758E+03  0.12500000000E+03 0.  0.
         21    1    1    2  503  501 -0.28769480679E+03 -0.38069460345E+03 -0.12601767231E+03  0.49353534492E+03  0.00000000000E+00 0.  1.
<mgrwt>
<rscale>  3 0.49327648E+03</rscale>
<asrwt>0</asrwt>
<pdfrwt beam="1">  1       21 0.43175357E-01 0.49327648E+03</pdfrwt>
<pdfrwt beam="2">  1       21 0.14425610E+00 0.49327648E+03</pdfrwt>
<totfact> 0.14301592E+03</totfact>
</mgrwt>
</event>
<event>
 4    0  0.1495377E-001  0.2468400E+03  0.7546771E-02  0.1115318E+00
         21   -1    0    0  502  501  0.00000000000E+00  0.00000000000E+00  0.13373816167E+03  0.13373816167E+03  0.00000000000E+00 0.  1.
         21   -1    0    0  503  502 -0.00000000000E+00 -0.00000000000E+00 -0.55994005360E+03  0.55994005360E+03  0.00000000000E+00 0.  1.
         25    1    1    2    0    0  0.93631601544E+01  0.21264368248E+03 -0.41208830105E+03  0.48036108536E+03  0.12500000000E+03 0.  0.
         21    1    1    2  503  501 -0.93631601544E+01 -0.21264368248E+03 -0.14113590879E+02  0.21331712991E+03  0.00000000000E+00 0.  1.
<mgrwt>
<rscale>  3 0.24684004E+03</rscale>
<asrwt>0</asrwt>
<pdfrwt beam="1">  1       21 0.20575102E-01 0.24684004E+03</pdfrwt>
<pdfrwt beam="2">  1       21 0.86144624E-01 0.24684004E+03</pdfrwt>
<totfact> 0.24710330E+04</totfact>
</mgrwt>
</event>
<event>
 4    0  0.1495377E-001  0.2463325E+03  0.7546771E-02  0.1115645E+00
         21   -1    0    0  503  501  0.00000000000E+00  0.00000000000E+00  0.87731192383E+03  0.87731192383E+03  0.00000000000E+00 0. -1.
         21   -1    0    0  501  502 -0.00000000000E+00 -0.00000000000E+00 -0.63669006544E+02  0.63669006544E+02  0.00000000000E+00 0. -1.
         25    1    1    2    0    0 -0.19636886460E+03  0.80585024638E+02  0.32154627004E+03  0.40505762671E+03  0.12500000000E+03 0.  0.
         21    1    1    2  503  502  0.19636886460E+03 -0.80585024638E+02  0.49209664724E+03  0.53592330366E+03  0.00000000000E+00 0. -1.
<mgrwt>
<rscale>  3 0.24633245E+03</rscale>
<asrwt>0</asrwt>
<pdfrwt beam="1">  1       21 0.13497106E+00 0.24633245E+03</pdfrwt>
<pdfrwt beam="2">  1       21 0.97952324E-02 0.24633245E+03</pdfrwt>
<totfact> 0.32119620E+04</totfact>
</mgrwt>
</event>
<event>
 4    0  0.1495377E-001  0.2405955E+03  0.7546771E-02  0.1119397E+00
         21   -1    0    0  502  501  0.00000000000E+00  0.00000000000E+00  0.13664138522E+04  0.13664138522E+04  0.00000000000E+00 0. -1.
         21   -1    0    0  503  502 -0.00000000000E+00 -0.00000000000E+00 -0.36438025596E+02  0.36438025596E+02  0.00000000000E+00 0. -1.
         25    1    1    2    0    0 -0.16161623406E+03  0.12704877110E+03  0.70235128624E+03  0.74241735340E+03  0.12500000000E+03 0.  0.
         21    1    1    2  503  501  0.16161623406E+03 -0.12704877110E+03  0.62762454041E+03  0.66043452444E+03  0.00000000000E+00 0. -1.
<mgrwt>
<rscale>  3 0.24059551E+03</rscale>
<asrwt>0</asrwt>
<pdfrwt beam="1">  1       21 0.21021748E+00 0.24059551E+03</pdfrwt>
<pdfrwt beam="2">  1       21 0.56058511E-02 0.24059551E+03</pdfrwt>
<totfact> 0.24773650E+04</totfact>
</mgrwt>
</event>
<event>
 4    0  0.1495377E-001  0.3387762E+03  0.7546771E-02  0.1067318E+00
         21   -1    0    0  503  501  0.00000000000E+00  0.00000000000E+00  0.73263465022E+03  0.73263465022E+03  0.00000000000E+00 0. -1.
         21   -1    0    0  501  502 -0.00000000000E+00 -0.00000000000E+00 -0.18550517731E+03  0.18550517731E+03  0.00000000000E+00 0. -1.
         25    1    1    2    0    0 -0.31400896198E+03 -0.23295547535E+02  0.49371637506E+03  0.59876971345E+03  0.12500000000E+03 0.  0.
         21    1    1    2  503  502  0.31400896198E+03  0.23295547535E+02  0.53413097849E+02  0.31937011407E+03  0.00000000000E+00 0. -1.
<mgrwt>
<rscale>  3 0.33877620E+03</rscale>
<asrwt>0</asrwt>
<pdfrwt beam="1">  1       21 0.11271302E+00 0.33877620E+03</pdfrwt>
<pdfrwt beam="2">  1       21 0.28539258E-01 0.33877620E+03</pdfrwt>
<totfact> 0.66400042E+03</totfact>
</mgrwt>
</event>
<event>
 4    0  0.1495377E-001  0.2641759E+03  0.7546771E-02  0.1104660E+00
         21   -1    0    0  502  501  0.00000000000E+00  0.00000000000E+00  0.10359627207E+04  0.10359627207E+04  0.00000000000E+00 0. -1.
         21   -1    0    0  503  502 -0.00000000000E+00 -0.00000000000E+00 -0.33755832116E+03  0.33755832116E+03  0.00000000000E+00 0.  1.
         25    1    1    2    0    0  0.66790817787E+02  0.22294149053E+03 -0.26988249010E+03  0.37765788751E+03  0.12500000000E+03 0.  0.
         21    1    1    2  503  501 -0.66790817787E+02 -0.22294149053E+03  0.96828688964E+03  0.99586315435E+03  0.00000000000E+00 0. -1.
<mgrwt>
<rscale>  3 0.26417593E+03</rscale>
<asrwt>0</asrwt>
<pdfrwt beam="1">  1       21 0.15937888E+00 0.26417593E+03</pdfrwt>
<pdfrwt beam="2">  1       21 0.51932050E-01 0.26417593E+03</pdfrwt>
<totfact> 0.83745827E+02</totfact>
</mgrwt>
</event>
<event>
 4    0  0.1495377E-001  0.2443206E+03  0.7546771E-02  0.1116948E+00
         21   -1    0    0  503  501  0.00000000000E+00  0.00000000000E+00  0.11346780045E+04  0.11346780045E+04  0.00000000000E+00 0. -1.
         21   -1    0    0  501  502 -0.00000000000E+00 -0.00000000000E+00 -0.74543966679E+02  0.74543966679E+02  0.00000000000E+00 0. -1.
         25    1    1    2    0    0  0.20972314052E+03 -0.91516332139E+01  0.17756163585E+03  0.30202761892E+03  0.12500000000E+03 0.  0.
         21    1    1    2  503  502 -0.20972314052E+03  0.91516332139E+01  0.88257240201E+03  0.90719435230E+03  0.00000000000E+00 0. -1.
<mgrwt>
<rscale>  3 0.24432058E+03</rscale>
<asrwt>0</asrwt>
<pdfrwt beam="1">  1       21 0.17456583E+00 0.24432058E+03</pdfrwt>
<pdfrwt beam="2">  1       21 0.11468303E-01 0.24432058E+03</pdfrwt>
<totfact> 0.12165892E+04</totfact>
</mgrwt>
</event>
<event>
 4    0  0.1495377E-001  0.2445768E+03  0.7546771E-02  0.1116781E+00
         21   -1    0    0  502  501  0.00000000000E+00  0.00000000000E+00  0.72099510227E+03  0.72099510227E+03  0.00000000000E+00 0. -1.
         21   -1    0    0  503  502 -0.00000000000E+00 -0.00000000000E+00 -0.74055517856E+02  0.74055517856E+02  0.00000000000E+00 0. -1.
         25    1    1    2    0    0 -0.12316454369E+03 -0.17036226225E+03  0.41752542968E+03  0.48388561629E+03  0.12500000000E+03 0.  0.
         21    1    1    2  503  501  0.12316454369E+03  0.17036226225E+03  0.22941415473E+03  0.31116500384E+03  0.00000000000E+00 0. -1.
<mgrwt>
<rscale>  3 0.24457679E+03</rscale>
<asrwt>0</asrwt>
<pdfrwt beam="1">  1       21 0.11092232E+00 0.24457679E+03</pdfrwt>
<pdfrwt beam="2">  1       21 0.11393157E-01 0.24457679E+03</pdfrwt>
<totfact> 0.40138641E+04</totfact>
</mgrwt>
</event>
<event>
 4    0  0.1495377E-001  0.3043225E+03  0.7546771E-02  0.1083100E+00
         21   -1    0    0  503  501  0.00000000000E+00  0.00000000000E+00  0.67996683301E+03  0.67996683301E+03  0.00000000000E+00 0. -1.
         21   -1    0    0  501  502 -0.00000000000E+00 -0.00000000000E+00 -0.24295223475E+03  0.24295223475E+03  0.00000000000E+00 0. -1.
         25    1    1    2    0    0  0.33645831913E+02 -0.27541812780E+03 -0.98437316166E+02  0.31984698269E+03  0.12500000000E+03 0.  0.
         21    1    1    2  503  502 -0.33645831913E+02  0.27541812780E+03  0.53545191442E+03  0.60307208506E+03  0.00000000000E+00 0. -1.
<mgrwt>
<rscale>  3 0.30432251E+03</rscale>
<asrwt>0</asrwt>
<pdfrwt beam="1">  1       21 0.10461028E+00 0.30432251E+03</pdfrwt>
<pdfrwt beam="2">  1       21 0.37377267E-01 0.30432251E+03</pdfrwt>
<totfact> 0.47348688E+03</totfact>
</mgrwt>
</event>
<event>
 4    0  0.1495377E-001  0.3613125E+03  0.7546771E-02  0.1058065E+00
         21   -1    0    0  502  501  0.00000000000E+00  0.00000000000E+00  0.13618826368E+04  0.13618826368E+04  0.00000000000E+00 0. -1.
         21   -1    0    0  503  502 -0.00000000000E+00 -0.00000000000E+00 -0.90044761652E+02  0.90044761652E+02  0.00000000000E+00 0. -1.
         25    1    1    2    0    0  0.19531913733E+03  0.27707791482E+03  0.66558230169E+03  0.75732855262E+03  0.12500000000E+03 0.  0.
         21    1    1    2  503  501 -0.19531913733E+03 -0.27707791482E+03  0.60625557348E+03  0.69459884585E+03  0.00000000000E+00 0. -1.
<mgrwt>
<rscale>  3 0.36131252E+03</rscale>
<asrwt>0</asrwt>
<pdfrwt beam="1">  1       21 0.20952039E+00 0.36131252E+03</pdfrwt>
<pdfrwt beam="2">  1       21 0.13853041E-01 0.36131252E+03</pdfrwt>
<totfact> 0.47161691E+03</totfact>
</mgrwt>
</event>
<event>
 4    0  0.1495377E-001  0.2442255E+03  0.7546771E-02  0.1117010E+00
         21   -1    0    0  502  501  0.00000000000E+00  0.00000000000E+00  0.13080374763E+04  0.13080374763E+04  0.00000000000E+00 0.  1.
         21   -1    0    0  503  502 -0.00000000000E+00 -0.00000000000E+00 -0.68647853742E+02  0.68647853742E+02  0.00000000000E+00 0.  1.
         25    1    1    2    0    0 -0.17572479647E+03 -0.11463806227E+03  0.19809742081E+03  0.31446570170E+03  0.12500000000E+03 0.  0.
         21    1    1    2  503  501  0.17572479647E+03  0.11463806227E+03  0.10412922018E+04  0.10622196284E+04  0.00000000000E+00 0.  1.
<mgrwt>
<rscale>  3 0.24422549E+03</rscale>
<asrwt>0</asrwt>
<pdfrwt beam="1">  1       21 0.20123652E+00 0.24422549E+03</pdfrwt>
<pdfrwt beam="2">  1       21 0.10561209E-01 0.24422549E+03</pdfrwt>
<totfact> 0.93316511E+03</totfact>
</mgrwt>
</event>
<event>
 4    0  0.1495377E-001  0.2431502E+03  0.7546771E-02  0.1117712E+00
         21   -1    0    0  502  501  0.00000000000E+00  0.00000000000E+00  0.46091530189E+03  0.46091530189E+03  0.00000000000E+00 0.  1.
         21   -1    0    0  503  502 -0.00000000000E+00 -0.00000000000E+00 -0.16197354348E+03  0.16197354348E+03  0.00000000000E+00 0.  1.
         25    1    1    2    0    0 -0.18981928539E+03  0.86404006843E+02 -0.17633464844E+02  0.24378874582E+03  0.12500000000E+03 0.  0.
         21    1    1    2  503  501  0.18981928539E+03 -0.86404006843E+02  0.31657522325E+03  0.37910009956E+03  0.00000000000E+00 0.  1.
<mgrwt>
<rscale>  3 0.24315019E+03</rscale>
<asrwt>0</asrwt>
<pdfrwt beam="1">  1       21 0.70910046E-01 0.24315019E+03</pdfrwt>
<pdfrwt beam="2">  1       21 0.24919007E-01 0.24315019E+03</pdfrwt>
<totfact> 0.26726975E+04</totfact>
</mgrwt>
</event>
<event>
 4    0  0.1495377E-001  0.2909967E+03  0.7546771E-02  0.1089830E+00
         21   -1    0    0  502  501  0.00000000000E+00  0.00000000000E+00  0.24014746011E+03  0.24014746011E+03  0.00000000000E+00 0. -1.
         21   -1    0    0  503  502 -0.00000000000E+00 -0.00000000000E+00 -0.35258094520E+03  0.35258094520E+03  0.00000000000E+00 0. -1.
         25    1    1    2    0    0  0.16952472277E+03  0.20078704439E+03 -0.14982179723E+03  0.32730053430E+03  0.12500000000E+03 0.  0.
         21    1    1    2  503  501 -0.16952472277E+03 -0.20078704439E+03  0.37388312140E+02  0.26542787101E+03  0.00000000000E+00 0. -1.
<mgrwt>
<rscale>  3 0.29099668E+03</rscale>
<asrwt>0</asrwt>
<pdfrwt beam="1">  1       21 0.36945763E-01 0.29099668E+03</pdfrwt>
<pdfrwt beam="2">  1       21 0.54243222E-01 0.29099668E+03</pdfrwt>
<totfact> 0.21617735E+04</totfact>
</mgrwt>
</event>
<event>
 4    0  0.1495377E-001  0.2369202E+03  0.7546771E-02  0.1121862E+00
         21   -1    0    0  502  501  0.00000000000E+00  0.00000000000E+00  0.28881808627E+03  0.28881808627E+03  0.00000000000E+00 0. -1.
         21   -1    0    0  503  502 -0.00000000000E+00 -0.00000000000E+00 -0.33720895452E+03  0.33720895452E+03  0.00000000000E+00 0.  1.
         25    1    1    2    0    0 -0.13766156289E+03  0.14681786935E+03 -0.24771013219E+03  0.34277033455E+03  0.12500000000E+03 0.  0.
         21    1    1    2  503  501  0.13766156289E+03 -0.14681786935E+03  0.19931926394E+03  0.28325670625E+03  0.00000000000E+00 0. -1.
<mgrwt>
<rscale>  3 0.23692022E+03</rscale>
<asrwt>0</asrwt>
<pdfrwt beam="1">  1       21 0.44433552E-01 0.23692022E+03</pdfrwt>
<pdfrwt beam="2">  1       21 0.51878300E-01 0.23692022E+03</pdfrwt>
<totfact> 0.16720155E+04</totfact>
</mgrwt>
</event>
<event>
 4    0  0.1495377E-001  0.3453255E+03  0.7546771E-02  0.1064550E+00
         21   -1    0    0  503  501  0.00000000000E+00  0.00000000000E+00  0.55641906821E+03  0.55641906821E+03  0.00000000000E+00 0. -1.
         21   -1    0    0  501  502 -0.00000000000E+00 -0.00000000000E+00 -0.79967737657E+03  0.79967737657E+03  0.00000000000E+00 0.  1.
         25    1    1    2    0    0  0.19538948583E+03 -0.25582742616E+03 -0.70975961722E+03  0.78930883524E+03  0.12500000000E+03 0.  0.
         21    1    1    2  503  502 -0.19538948583E+03  0.25582742616E+03  0.46650130887E+03  0.56678760953E+03  0.00000000000E+00 0. -1.
<mgrwt>
<rscale>  3 0.34532553E+03</rscale>
<asrwt>0</asrwt>
<pdfrwt beam="1">  1       21 0.85602934E-01 0.34532553E+03</pdfrwt>
<pdfrwt beam="2">  1       21 0.12302729E+00 0.34532553E+03</pdfrwt>
<totfact> 0.51655495E+02</totfact>
</mgrwt>
</event>
<event>
 4    0  0.1495377E-001  0.3732798E+03  0.7546771E-02  0.1053446E+00
         21   -1    0    0  503  501  0.00000000000E+00  0.00000000000E+00  0.11512744917E+03  0.11512744917E+03  0.00000000000E+00 0. -1.
         21   -1    0    0  501  502 -0.00000000000E+00 -0.00000000000E+00 -0.13466083520E+04  0.13466083520E+04  0.00000000000E+00 0. -1.
         25    1    1    2    0    0 -0.14578259447E+03 -0.32009417488E+03 -0.91644060943E+03  0.98954597480E+03  0.12500000000E+03 0.  0.
         21    1    1    2  503  502  0.14578259447E+03  0.32009417488E+03 -0.31504029335E+03  0.47218982632E+03  0.00000000000E+00 0. -1.
<mgrwt>
<rscale>  3 0.37327985E+03</rscale>
<asrwt>0</asrwt>
<pdfrwt beam="1">  1       21 0.17711913E-01 0.37327985E+03</pdfrwt>
<pdfrwt beam="2">  1       21 0.20717054E+00 0.37327985E+03</pdfrwt>
<totfact> 0.30784744E+03</totfact>
</mgrwt>
</event>
<event>
 4    0  0.1495377E-001  0.2397485E+03  0.7546771E-02  0.1119960E+00
         21   -1    0    0  502  501  0.00000000000E+00  0.00000000000E+00  0.14122365085E+03  0.14122365085E+03  0.00000000000E+00 0. -1.
         21   -1    0    0  503  502 -0.00000000000E+00 -0.00000000000E+00 -0.80209078708E+03  0.80209078708E+03  0.00000000000E+00 0. -1.
         25    1    1    2    0    0  0.20341032018E+03 -0.21876522106E+02 -0.69564174326E+03  0.73579669443E+03  0.12500000000E+03 0.  0.
         21    1    1    2  503  501 -0.20341032018E+03  0.21876522106E+02  0.34774607023E+02  0.20751774350E+03  0.00000000000E+00 0. -1.
<mgrwt>
<rscale>  3 0.23974849E+03</rscale>
<asrwt>0</asrwt>
<pdfrwt beam="1">  1       21 0.21726716E-01 0.23974849E+03</pdfrwt>
<pdfrwt beam="2">  1       21 0.12339858E+00 0.23974849E+03</pdfrwt>
<totfact> 0.94304004E+03</totfact>
</mgrwt>
</event>
<event>
 4    0  0.1495377E-001  0.3087706E+03  0.7546771E-02  0.1080937E+00
         21   -1    0    0  503  501  0.00000000000E+00  0.00000000000E+00  0.25460559219E+03  0.25460559219E+03  0.00000000000E+00 0.  1.
         21   -1    0    0  501  502 -0.00000000000E+00 -0.00000000000E+00 -0.16223700557E+04  0.16223700557E+04  0.00000000000E+00 0.  1.
         25    1    1    2    0    0 -0.26614804542E+03 -0.94231184122E+02 -0.15235413462E+04  0.15545152079E+04  0.12500000000E+03 0.  0.
         21    1    1    2  503  502  0.26614804542E+03  0.94231184122E+02  0.15577688269E+03  0.32246043993E+03  0.00000000000E+00 0.  1.
<mgrwt>
<rscale>  3 0.30877062E+03</rscale>
<asrwt>0</asrwt>
<pdfrwt beam="1">  1       21 0.39170091E-01 0.30877062E+03</pdfrwt>
<pdfrwt beam="2">  1       21 0.24959539E+00 0.30877062E+03</pdfrwt>
<totfact> 0.37160152E+02</totfact>
</mgrwt>
</event>
<event>
 4    0  0.1495377E-001  0.2445213E+03  0.7546771E-02  0.1116817E+00
         21   -1    0    0  503  501  0.00000000000E+00  0.00000000000E+00  0.28426957104E+03  0.28426957104E+03  0.00000000000E+00 0. -1.
         21   -1    0    0  501  502 -0.00000000000E+00 -0.00000000000E+00 -0.42826419122E+03  0.42826419122E+03  0.00000000000E+00 0. -1.
         25    1    1    2    0    0  0.18518195113E+03 -0.99364423506E+02 -0.34424347337E+03  0.42224899365E+03  0.12500000000E+03 0.  0.
         21    1    1    2  503  502 -0.18518195113E+03  0.99364423506E+02  0.20024885319E+03  0.29028476861E+03  0.00000000000E+00 0. -1.
<mgrwt>
<rscale>  3 0.24452125E+03</rscale>
<asrwt>0</asrwt>
<pdfrwt beam="1">  1       21 0.43733780E-01 0.24452125E+03</pdfrwt>
<pdfrwt beam="2">  1       21 0.65886798E-01 0.24452125E+03</pdfrwt>
<totfact> 0.10290570E+04</totfact>
</mgrwt>
</event>
<event>
 4    0  0.1495377E-001  0.2573912E+03  0.7546771E-02  0.1108721E+00
         21   -1    0    0  502  501  0.00000000000E+00  0.00000000000E+00  0.35353233363E+03  0.35353233363E+03  0.00000000000E+00 0. -1.
         21   -1    0    0  503  502 -0.00000000000E+00 -0.00000000000E+00 -0.23542650840E+03  0.23542650840E+03  0.00000000000E+00 0. -1.
         25    1    1    2    0    0 -0.22308237870E+03 -0.29316835696E+02 -0.99491928162E+02  0.27595084401E+03  0.12500000000E+03 0.  0.
         21    1    1    2  503  501  0.22308237870E+03  0.29316835696E+02  0.21759775339E+03  0.31300799802E+03  0.00000000000E+00 0. -1.
<mgrwt>
<rscale>  3 0.25739119E+03</rscale>
<asrwt>0</asrwt>
<pdfrwt beam="1">  1       21 0.54389590E-01 0.25739119E+03</pdfrwt>
<pdfrwt beam="2">  1       21 0.36219463E-01 0.25739119E+03</pdfrwt>
<totfact> 0.22695205E+04</totfact>
</mgrwt>
</event>
<event>
 4    0  0.1495377E-001  0.2718578E+03  0.7546771E-02  0.1100221E+00
         21   -1    0    0  503  501  0.00000000000E+00  0.00000000000E+00  0.23063220950E+03  0.23063220950E+03  0.00000000000E+00 0. -1.
         21   -1    0    0  501  502 -0.00000000000E+00 -0.00000000000E+00 -0.54405578959E+03  0.54405578959E+03  0.00000000000E+00 0. -1.
         25    1    1    2    0    0  0.24140417831E+03 -0.23867720289E+01 -0.42833096289E+03  0.50732049806E+03  0.12500000000E+03 0.  0.
         21    1    1    2  503  502 -0.24140417831E+03  0.23867720289E+01  0.11490738279E+03  0.26736750103E+03  0.00000000000E+00 0. -1.
<mgrwt>
<rscale>  3 0.27185782E+03</rscale>
<asrwt>0</asrwt>
<pdfrwt beam="1">  1       21 0.35481879E-01 0.27185782E+03</pdfrwt>
<pdfrwt beam="2">  1       21 0.83700890E-01 0.27185782E+03</pdfrwt>
<totfact> 0.90562500E+03</totfact>
</mgrwt>
</event>
<event>
 4    0  0.1495377E-001  0.2823007E+03  0.7546771E-02  0.1094439E+00
         21   -1    0    0  502  501  0.00000000000E+00  0.00000000000E+00  0.31936961684E+03  0.31936961684E+03  0.00000000000E+00 0. -1.
         21   -1    0    0  503  502 -0.00000000000E+00 -0.00000000000E+00 -0.23104990370E+03  0.23104990370E+03  0.00000000000E+00 0. -1.
         25    1    1    2    0    0 -0.10633121900E+03 -0.22970057016E+03 -0.10548799086E+00  0.28230071058E+03  0.12500000000E+03 0.  0.
         21    1    1    2  503  501  0.10633121900E+03  0.22970057016E+03  0.88425201130E+02  0.26811880997E+03  0.00000000000E+00 0. -1.
<mgrwt>
<rscale>  3 0.28230069E+03</rscale>
<asrwt>0</asrwt>
<pdfrwt beam="1">  1       21 0.49133787E-01 0.28230069E+03</pdfrwt>
<pdfrwt beam="2">  1       21 0.35546139E-01 0.28230069E+03</pdfrwt>
<totfact> 0.28904563E+04</totfact>
</mgrwt>
</event>
<event>
 4    0  0.1495377E-001  0.2975278E+03  0.7546771E-02  0.1086483E+00
         21   -1    0    0  502  501  0.00000000000E+00  0.00000000000E+00  0.39557142136E+03  0.39557142136E+03  0.00000000000E+00 0.  1.
         21   -1    0    0  503  502 -0.00000000000E+00 -0.00000000000E+00 -0.20861710363E+03  0.20861710363E+03  0.00000000000E+00 0.  1.
         25    1    1    2    0    0 -0.23190828428E+02 -0.26899805337E+03  0.14490317689E+03  0.33093760426E+03  0.12500000000E+03 0.  0.
         21    1    1    2  503  501  0.23190828428E+02  0.26899805337E+03  0.42051140835E+02  0.27325092074E+03  0.00000000000E+00 0.  1.
<mgrwt>
<rscale>  3 0.29752776E+03</rscale>
<asrwt>0</asrwt>
<pdfrwt beam="1">  1       21 0.60857141E-01 0.29752776E+03</pdfrwt>
<pdfrwt beam="2">  1       21 0.32094939E-01 0.29752776E+03</pdfrwt>
<totfact> 0.22303729E+04</totfact>
</mgrwt>
</event>
<event>
 4    0  0.1495377E-001  0.3456145E+03  0.7546771E-02  0.1064430E+00
         21   -1    0    0  502  501  0.00000000000E+00  0.00000000000E+00  0.77138444647E+03  0.77138444647E+03  0.00000000000E+00 0. -1.
         21   -1    0    0  503  502 -0.00000000000E+00 -0.00000000000E+00 -0.32644856146E+03  0.32644856146E+03  0.00000000000E+00 0. -1.
         25    1    1    2    0    0  0.31695037050E+03  0.58024406986E+02 -0.18371987357E+03  0.39141073198E+03  0.12500000000E+03 0.  0.
         21    1    1    2  503  501 -0.31695037050E+03 -0.58024406986E+02  0.62865575858E+03  0.70642227595E+03  0.00000000000E+00 0. -1.
<mgrwt>
<rscale>  3 0.34561448E+03</rscale>
<asrwt>0</asrwt>
<pdfrwt beam="1">  1       21 0.11867453E+00 0.34561448E+03</pdfrwt>
<pdfrwt beam="2">  1       21 0.50222856E-01 0.34561448E+03</pdfrwt>
<totfact> 0.18433106E+03</totfact>
</mgrwt>
</event>
<event>
 4    0  0.1495377E-001  0.2378971E+03  0.7546771E-02  0.1121202E+00
         21   -1    0    0  503  501  0.00000000000E+00  0.00000000000E+00  0.22330308668E+03  0.22330308668E+03  0.00000000000E+00 0. -1.
         21   -1    0    0  501  502 -0.00000000000E+00 -0.00000000000E+00 -0.22374571492E+03  0.22374571492E+03  0.00000000000E+00 0. -1.
         25    1    1    2    0    0 -0.13730022153E+03 -0.14872356713E+03  0.38309548791E+02  0.24096197165E+03  0.12500000000E+03 0.  0.
         21    1    1    2  503  502  0.13730022153E+03  0.14872356713E+03 -0.38752177027E+02  0.20608682995E+03  0.00000000000E+00 0. -1.
<mgrwt>
<rscale>  3 0.23789714E+03</rscale>
<asrwt>0</asrwt>
<pdfrwt beam="1">  1       21 0.34354321E-01 0.23789714E+03</pdfrwt>
<pdfrwt beam="2">  1       21 0.34422417E-01 0.23789714E+03</pdfrwt>
<totfact> 0.65145672E+04</totfact>
</mgrwt>
</event>
<event>
 4    0  0.1495377E-001  0.2490338E+03  0.7546771E-02  0.1113917E+00
         21   -1    0    0  503  501  0.00000000000E+00  0.00000000000E+00  0.35116501652E+03  0.35116501652E+03  0.00000000000E+00 0. -1.
         21   -1    0    0  501  502 -0.00000000000E+00 -0.00000000000E+00 -0.48774990395E+03  0.48774990395E+03  0.00000000000E+00 0.  1.
         25    1    1    2    0    0 -0.47006822335E+02 -0.21019795381E+03 -0.41677179121E+03  0.48550648511E+03  0.12500000000E+03 0.  0.
         21    1    1    2  503  502  0.47006822335E+02  0.21019795381E+03  0.28018690378E+03  0.35340843536E+03  0.00000000000E+00 0. -1.
<mgrwt>
<rscale>  3 0.24903378E+03</rscale>
<asrwt>0</asrwt>
<pdfrwt beam="1">  1       21 0.54025387E-01 0.24903378E+03</pdfrwt>
<pdfrwt beam="2">  1       21 0.75038447E-01 0.24903378E+03</pdfrwt>
<totfact> 0.49435332E+03</totfact>
</mgrwt>
</event>
<event>
 4    0  0.1495377E-001  0.2465577E+03  0.7546771E-02  0.1115500E+00
         21   -1    0    0  502  501  0.00000000000E+00  0.00000000000E+00  0.53513976383E+03  0.53513976383E+03  0.00000000000E+00 0. -1.
         21   -1    0    0  503  502 -0.00000000000E+00 -0.00000000000E+00 -0.32804036636E+03  0.32804036636E+03  0.00000000000E+00 0.  1.
         25    1    1    2    0    0  0.21193042721E+03 -0.15848480235E+02 -0.25490657371E+03  0.35463790213E+03  0.12500000000E+03 0.  0.
         21    1    1    2  503  501 -0.21193042721E+03  0.15848480235E+02  0.46200597118E+03  0.50854222805E+03  0.00000000000E+00 0. -1.
<mgrwt>
<rscale>  3 0.24655766E+03</rscale>
<asrwt>0</asrwt>
<pdfrwt beam="1">  1       21 0.82329194E-01 0.24655766E+03</pdfrwt>
<pdfrwt beam="2">  1       21 0.50467749E-01 0.24655766E+03</pdfrwt>
<totfact> 0.46329920E+03</totfact>
</mgrwt>
</event>
<event>
 4    0  0.1495377E-001  0.2700781E+03  0.7546771E-02  0.1101235E+00
         21   -1    0    0  502  501  0.00000000000E+00  0.00000000000E+00  0.20893377890E+04  0.20893377890E+04  0.00000000000E+00 0. -1.
         21   -1    0    0  503  502 -0.00000000000E+00 -0.00000000000E+00 -0.56025621881E+02  0.56025621881E+02  0.00000000000E+00 0. -1.
         25    1    1    2    0    0 -0.20514954644E+03 -0.12341330298E+03  0.33524128578E+03  0.43049843141E+03  0.12500000000E+03 0.  0.
         21    1    1    2  503  501  0.20514954644E+03  0.12341330298E+03  0.16980708813E+04  0.17148649794E+04  0.00000000000E+00 0. -1.
<mgrwt>
<rscale>  3 0.27007810E+03</rscale>
<asrwt>0</asrwt>
<pdfrwt beam="1">  1       21 0.32143652E+00 0.27007810E+03</pdfrwt>
<pdfrwt beam="2">  1       21 0.86193280E-02 0.27007810E+03</pdfrwt>
<totfact> 0.24871369E+03</totfact>
</mgrwt>
</event>
<event>
 4    0  0.1495377E-001  0.3011096E+03  0.7546771E-02  0.1084687E+00
         21   -1    0    0  503  501  0.00000000000E+00  0.00000000000E+00  0.70004359360E+02  0.70004359360E+02  0.00000000000E+00 0. -1.
         21   -1    0    0  501  502 -0.00000000000E+00 -0.00000000000E+00 -0.25780581622E+04  0.25780581622E+04  0.00000000000E+00 0. -1.
         25    1    1    2    0    0  0.21181171145E+03  0.17371758337E+03 -0.22553702641E+04  0.22753817324E+04  0.12500000000E+03 0.  0.
         21    1    1    2  503  502 -0.21181171145E+03 -0.17371758337E+03 -0.25268353876E+03  0.37268078920E+03  0.00000000000E+00 0. -1.
<mgrwt>
<rscale>  3 0.30110961E+03</rscale>
<asrwt>0</asrwt>
<pdfrwt beam="1">  1       21 0.10769901E-01 0.30110961E+03</pdfrwt>
<pdfrwt beam="2">  1       21 0.39662435E+00 0.30110961E+03</pdfrwt>
<totfact> 0.56774259E+02</totfact>
</mgrwt>
</event>
<event>
 4    0  0.1495377E-001  0.3493188E+03  0.7546771E-02  0.1062895E+00
         21   -1    0    0  502  501  0.00000000000E+00  0.00000000000E+00  0.45079402645E+03  0.45079402645E+03  0.00000000000E+00 0.  1.
         21   -1    0    0  503  502 -0.00000000000E+00 -0.00000000000E+00 -0.26096975878E+03  0.26096975878E+03  0.00000000000E+00 0. -1.
         25    1    1    2    0    0  0.20662457848E+03 -0.25239830821E+03  0.36136579003E+02  0.35118296479E+03  0.12500000000E+03 0.  0.
         21    1    1    2  503  501 -0.20662457848E+03  0.25239830821E+03  0.15368768867E+03  0.36058082044E+03  0.00000000000E+00 0.  1.
<mgrwt>
<rscale>  3 0.34931880E+03</rscale>
<asrwt>0</asrwt>
<pdfrwt beam="1">  1       21 0.69352927E-01 0.34931880E+03</pdfrwt>
<pdfrwt beam="2">  1       21 0.40149194E-01 0.34931880E+03</pdfrwt>
<totfact> 0.10434361E+04</totfact>
</mgrwt>
</event>
<event>
 4    0  0.1495377E-001  0.2600946E+03  0.7546771E-02  0.1107086E+00
         21   -1    0    0  503  501  0.00000000000E+00  0.00000000000E+00  0.52826779104E+03  0.52826779104E+03  0.00000000000E+00 0.  1.
         21   -1    0    0  501  502 -0.00000000000E+00 -0.00000000000E+00 -0.11647757371E+03  0.11647757371E+03  0.00000000000E+00 0.  1.
         25    1    1    2    0    0 -0.43366716104E+02  0.22392745835E+03  0.16168548147E+03  0.30625377318E+03  0.12500000000E+03 0.  0.
         21    1    1    2  503  502  0.43366716104E+02 -0.22392745835E+03  0.25010473586E+03  0.33849159157E+03  0.00000000000E+00 0.  1.
<mgrwt>
<rscale>  3 0.26009456E+03</rscale>
<asrwt>0</asrwt>
<pdfrwt beam="1">  1       21 0.81271967E-01 0.26009456E+03</pdfrwt>
<pdfrwt beam="2">  1       21 0.17919627E-01 0.26009456E+03</pdfrwt>
<totfact> 0.36374335E+04</totfact>
</mgrwt>
</event>
<event>
 4    0  0.1495377E-001  0.2404543E+03  0.7546771E-02  0.1119491E+00
         21   -1    0    0  503  501  0.00000000000E+00  0.00000000000E+00  0.78342086525E+03  0.78342086525E+03  0.00000000000E+00 0. -1.
         21   -1    0    0  501  502 -0.00000000000E+00 -0.00000000000E+00 -0.19526853670E+03  0.19526853670E+03  0.00000000000E+00 0. -1.
         25    1    1    2    0    0  0.12501185010E+03 -0.16298868216E+03 -0.10008550425E+03  0.26045226307E+03  0.12500000000E+03 0.  0.
         21    1    1    2  503  502 -0.12501185010E+03  0.16298868216E+03  0.68823783279E+03  0.71823713888E+03  0.00000000000E+00 0. -1.
<mgrwt>
<rscale>  3 0.24045431E+03</rscale>
<asrwt>0</asrwt>
<pdfrwt beam="1">  1       21 0.12052628E+00 0.24045431E+03</pdfrwt>
<pdfrwt beam="2">  1       21 0.30041314E-01 0.24045431E+03</pdfrwt>
<totfact> 0.53598591E+03</totfact>
</mgrwt>
</event>
<event>
 4    0  0.1495377E-001  0.3677230E+03  0.7546771E-02  0.1055567E+00
         21   -1    0    0  503  501  0.00000000000E+00  0.00000000000E+00  0.28876830069E+03  0.28876830069E+03  0.00000000000E+00 0. -1.
         21   -1    0    0  501  502 -0.00000000000E+00 -0.00000000000E+00 -0.44823943422E+03  0.44823943422E+03  0.00000000000E+00 0. -1.
         25    1    1    2    0    0 -0.27590194266E+03  0.20850262861E+03 -0.12960743657E+03  0.38989526250E+03  0.12500000000E+03 0.  0.
         21    1    1    2  503  502  0.27590194266E+03 -0.20850262861E+03 -0.29863696957E+02  0.34711247240E+03  0.00000000000E+00 0. -1.
<mgrwt>
<rscale>  3 0.36772303E+03</rscale>
<asrwt>0</asrwt>
<pdfrwt beam="1">  1       21 0.44425893E-01 0.36772303E+03</pdfrwt>
<pdfrwt beam="2">  1       21 0.68959912E-01 0.36772303E+03</pdfrwt>
<totfact> 0.85143780E+03</totfact>
</mgrwt>
</event>
<event>
 4    0  0.1495377E-001  0.2376579E+03  0.7546771E-02  0.1121363E+00
         21   -1    0    0  503  501  0.00000000000E+00  0.00000000000E+00  0.73355428322E+02  0.73355428322E+02  0.00000000000E+00 0.  1.
         21   -1    0    0  501  502 -0.00000000000E+00 -0.00000000000E+00 -0.85840681958E+03  0.85840681958E+03  0.00000000000E+00 0. -1.
         25    1    1    2    0    0  0.18211484694E+03 -0.87695148585E+02 -0.64076345730E+03  0.68341719672E+03  0.12500000000E+03 0.  0.
         21    1    1    2  503  502 -0.18211484694E+03  0.87695148585E+02 -0.14428793396E+03  0.24834505119E+03  0.00000000000E+00 0.  1.
<mgrwt>
<rscale>  3 0.23765786E+03</rscale>
<asrwt>0</asrwt>
<pdfrwt beam="1">  1       21 0.11285450E-01 0.23765786E+03</pdfrwt>
<pdfrwt beam="2">  1       21 0.13206259E+00 0.23765786E+03</pdfrwt>
<totfact> 0.26501498E+04</totfact>
</mgrwt>
</event>
<event>
 4    0  0.1495377E-001  0.2659993E+03  0.7546771E-02  0.1103591E+00
         21   -1    0    0  502  501  0.00000000000E+00  0.00000000000E+00  0.17776178632E+03  0.17776178632E+03  0.00000000000E+00 0.  1.
         21   -1    0    0  503  502 -0.00000000000E+00 -0.00000000000E+00 -0.42113627014E+03  0.42113627014E+03  0.00000000000E+00 0.  1.
         25    1    1    2    0    0 -0.19438764450E+03 -0.13169680043E+03 -0.75356261815E+01  0.26610597370E+03  0.12500000000E+03 0.  0.
         21    1    1    2  503  501  0.19438764450E+03  0.13169680043E+03 -0.23583885764E+03  0.33279208276E+03  0.00000000000E+00 0.  1.
<mgrwt>
<rscale>  3 0.26599925E+03</rscale>
<asrwt>0</asrwt>
<pdfrwt beam="1">  1       21 0.27347967E-01 0.26599925E+03</pdfrwt>
<pdfrwt beam="2">  1       21 0.64790195E-01 0.26599925E+03</pdfrwt>
<totfact> 0.26982519E+04</totfact>
</mgrwt>
</event>
<event>
 4    0  0.1495377E-001  0.2639217E+03  0.7546771E-02  0.1104810E+00
         21   -1    0    0  503  501  0.00000000000E+00  0.00000000000E+00  0.36478157316E+03  0.36478157316E+03  0.00000000000E+00 0. -1.
         21   -1    0    0  501  502 -0.00000000000E+00 -0.00000000000E+00 -0.21807912566E+03  0.21807912566E+03  0.00000000000E+00 0. -1.
         25    1    1    2    0    0  0.15799024690E+02  0.23190523303E+03 -0.61291783858E+02  0.27094525103E+03  0.12500000000E+03 0.  0.
         21    1    1    2  503  502 -0.15799024690E+02 -0.23190523303E+03  0.20799423136E+03  0.31191544779E+03  0.00000000000E+00 0. -1.
<mgrwt>
<rscale>  3 0.26392167E+03</rscale>
<asrwt>0</asrwt>
<pdfrwt beam="1">  1       21 0.56120242E-01 0.26392167E+03</pdfrwt>
<pdfrwt beam="2">  1       21 0.33550635E-01 0.26392167E+03</pdfrwt>
<totfact> 0.24664879E+04</totfact>
</mgrwt>
</event>
<event>
 4    0  0.1495377E-001  0.3046136E+03  0.7546771E-02  0.1082957E+00
         21   -1    0    0  502  501  0.00000000000E+00  0.00000000000E+00  0.80648743154E+03  0.80648743154E+03  0.00000000000E+00 0.  1.
         21   -1    0    0  503  502 -0.00000000000E+00 -0.00000000000E+00 -0.46558680632E+03  0.46558680632E+03  0.00000000000E+00 0. -1.
         25    1    1    2    0    0 -0.26142380033E+03  0.93925618306E+02 -0.38727181813E+03  0.49271582710E+03  0.12500000000E+03 0.  0.
         21    1    1    2  503  501  0.26142380033E+03 -0.93925618306E+02  0.72817244336E+03  0.77935841076E+03  0.00000000000E+00 0.  1.
<mgrwt>
<rscale>  3 0.30461357E+03</rscale>
<asrwt>0</asrwt>
<pdfrwt beam="1">  1       21 0.12407499E+00 0.30461357E+03</pdfrwt>
<pdfrwt beam="2">  1       21 0.71628740E-01 0.30461357E+03</pdfrwt>
<totfact> 0.77926744E+02</totfact>
</mgrwt>
</event>
<event>
 4    0  0.1495377E-001  0.2596334E+03  0.7546771E-02  0.1107364E+00
         21   -1    0    0  503  501  0.00000000000E+00  0.00000000000E+00  0.29605291955E+02  0.29605291955E+02  0.00000000000E+00 0. -1.
         21   -1    0    0  501  502 -0.00000000000E+00 -0.00000000000E+00 -0.34651406527E+04  0.34651406527E+04  0.00000000000E+00 0. -1.
         25    1    1    2    0    0  0.90795380871E+02 -0.20866414880E+03 -0.29162849103E+04  0.29278195310E+04  0.12500000000E+03 0.  0.
         21    1    1    2  503  502 -0.90795380871E+02  0.20866414880E+03 -0.51925045037E+03  0.56692641356E+03  0.00000000000E+00 0. -1.
<mgrwt>
<rscale>  3 0.25963345E+03</rscale>
<asrwt>0</asrwt>
<pdfrwt beam="1">  1       21 0.45546585E-02 0.25963345E+03</pdfrwt>
<pdfrwt beam="2">  1       21 0.53309877E+00 0.25963345E+03</pdfrwt>
<totfact> 0.31295149E+02</totfact>
</mgrwt>
</event>
<event>
 4    0  0.1495377E-001  0.3020827E+03  0.7546771E-02  0.1084204E+00
         21   -1    0    0  502  501  0.00000000000E+00  0.00000000000E+00  0.13611866555E+03  0.13611866555E+03  0.00000000000E+00 0. -1.
         21   -1    0    0  503  502 -0.00000000000E+00 -0.00000000000E+00 -0.63071625611E+03  0.63071625611E+03  0.00000000000E+00 0. -1.
         25    1    1    2    0    0 -0.13948885839E+03 -0.23700599636E+03 -0.32512723733E+03  0.44380367775E+03  0.12500000000E+03 0.  0.
         21    1    1    2  503  501  0.13948885839E+03  0.23700599636E+03 -0.16947035323E+03  0.32303124392E+03  0.00000000000E+00 0. -1.
<mgrwt>
<rscale>  3 0.30208274E+03</rscale>
<asrwt>0</asrwt>
<pdfrwt beam="1">  1       21 0.20941334E-01 0.30208274E+03</pdfrwt>
<pdfrwt beam="2">  1       21 0.97033268E-01 0.30208274E+03</pdfrwt>
<totfact> 0.17639077E+04</totfact>
</mgrwt>
</event>
<event>
 4    0  0.1514102E-001  0.2519817E+03  0.7546771E-02  0.1112059E+00
         21   -1    0    0  503  501  0.00000000000E+00  0.00000000000E+00  0.69218202335E+03  0.69218202335E+03  0.00000000000E+00 0.  1.
         21   -1    0    0  501  502 -0.00000000000E+00 -0.00000000000E+00 -0.41743140645E+03  0.41743140645E+03  0.00000000000E+00 0. -1.
         25    1    1    2    0    0  0.15183521189E+03 -0.15753040778E+03 -0.35931296687E+03  0.43886281354E+03  0.12500000000E+03 0.  0.
         21    1    1    2  503  502 -0.15183521189E+03  0.15753040778E+03  0.63406358377E+03  0.67075061626E+03  0.00000000000E+00 0.  1.
<mgrwt>
<rscale>  3 0.25198167E+03</rscale>
<asrwt>0</asrwt>
<pdfrwt beam="1">  1       21 0.10648954E+00 0.25198167E+03</pdfrwt>
<pdfrwt beam="2">  1       21 0.64220216E-01 0.25198167E+03</pdfrwt>
<totfact> 0.15026921E+03</totfact>
</mgrwt>
</event>
<event>
 4    0  0.1495377E-001  0.2559675E+03  0.7546771E-02  0.1109591E+00
         21   -1    0    0  502  501  0.00000000000E+00  0.00000000000E+00  0.24242641464E+04  0.24242641464E+04  0.00000000000E+00 0. -1.
         21   -1    0    0  503  502 -0.00000000000E+00 -0.00000000000E+00 -0.55229063913E+02  0.55229063913E+02  0.00000000000E+00 0. -1.
         25    1    1    2    0    0  0.16866114609E+03  0.14645058448E+03  0.28321204773E+03  0.38174391924E+03  0.12500000000E+03 0.  0.
         21    1    1    2  503  501 -0.16866114609E+03 -0.14645058448E+03  0.20858230348E+04  0.20977492911E+04  0.00000000000E+00 0. -1.
<mgrwt>
<rscale>  3 0.25596749E+03</rscale>
<asrwt>0</asrwt>
<pdfrwt beam="1">  1       21 0.37296363E+00 0.25596749E+03</pdfrwt>
<pdfrwt beam="2">  1       21 0.84967810E-02 0.25596749E+03</pdfrwt>
<totfact> 0.12714525E+03</totfact>
</mgrwt>
</event>
<event>
 4    0  0.1495377E-001  0.2679203E+03  0.7546771E-02  0.1102476E+00
         21   -1    0    0  502  501  0.00000000000E+00  0.00000000000E+00  0.20514643571E+03  0.20514643571E+03  0.00000000000E+00 0.  1.
         21   -1    0    0  503  502 -0.00000000000E+00 -0.00000000000E+00 -0.36614782701E+03  0.36614782701E+03  0.00000000000E+00 0. -1.
         25    1    1    2    0    0 -0.51058138643E+02 -0.23140733667E+03 -0.19571560545E+03  0.33179193361E+03  0.12500000000E+03 0.  0.
         21    1    1    2  503  501  0.51058138643E+02  0.23140733667E+03  0.34714214146E+02  0.23950232911E+03  0.00000000000E+00 0.  1.
<mgrwt>
<rscale>  3 0.26792030E+03</rscale>
<asrwt>0</asrwt>
<pdfrwt beam="1">  1       21 0.31560990E-01 0.26792030E+03</pdfrwt>
<pdfrwt beam="2">  1       21 0.56330434E-01 0.26792030E+03</pdfrwt>
<totfact> 0.27574095E+04</totfact>
</mgrwt>
</event>
<event>
 4    0  0.1495377E-001  0.2426365E+03  0.7546771E-02  0.1118049E+00
         21   -1    0    0  502  501  0.00000000000E+00  0.00000000000E+00  0.22861175793E+03  0.22861175793E+03  0.00000000000E+00 0.  1.
         21   -1    0    0  503  502 -0.00000000000E+00 -0.00000000000E+00 -0.22706144872E+03  0.22706144872E+03  0.00000000000E+00 0.  1.
         25    1    1    2    0    0  0.87410620731E+02  0.18869782204E+03 -0.32973297710E+02  0.24486674543E+03  0.12500000000E+03 0.  0.
         21    1    1    2  503  501 -0.87410620731E+02 -0.18869782204E+03  0.34523606918E+02  0.21080646122E+03  0.00000000000E+00 0.  1.
<mgrwt>
<rscale>  3 0.24263653E+03</rscale>
<asrwt>0</asrwt>
<pdfrwt beam="1">  1       21 0.35171040E-01 0.24263653E+03</pdfrwt>
<pdfrwt beam="2">  1       21 0.34932531E-01 0.24263653E+03</pdfrwt>
<totfact> 0.60257628E+04</totfact>
</mgrwt>
</event>
<event>
 4    0  0.1495377E-001  0.3310528E+03  0.7546771E-02  0.1070672E+00
         21   -1    0    0  502  501  0.00000000000E+00  0.00000000000E+00  0.70638587446E+03  0.70638587446E+03  0.00000000000E+00 0.  1.
         21   -1    0    0  503  502 -0.00000000000E+00 -0.00000000000E+00 -0.25911419339E+03  0.25911419339E+03  0.00000000000E+00 0. -1.
         25    1    1    2    0    0  0.30421593238E+03 -0.37731029765E+02 -0.93396667645E+02  0.34397514685E+03  0.12500000000E+03 0.  0.
         21    1    1    2  503  501 -0.30421593238E+03  0.37731029765E+02  0.54066834872E+03  0.62152492101E+03  0.00000000000E+00 0.  1.
<mgrwt>
<rscale>  3 0.33105281E+03</rscale>
<asrwt>0</asrwt>
<pdfrwt beam="1">  1       21 0.10867475E+00 0.33105281E+03</pdfrwt>
<pdfrwt beam="2">  1       21 0.39863722E-01 0.33105281E+03</pdfrwt>
<totfact> 0.37336697E+03</totfact>
</mgrwt>
</event>
<event>
 4    0  0.1495377E-001  0.2753114E+03  0.7546771E-02  0.1098278E+00
         21   -1    0    0  503  501  0.00000000000E+00  0.00000000000E+00  0.19328865891E+03  0.19328865891E+03  0.00000000000E+00 0. -1.
         21   -1    0    0  501  502 -0.00000000000E+00 -0.00000000000E+00 -0.74154095874E+03  0.74154095874E+03  0.00000000000E+00 0. -1.
         25    1    1    2    0    0  0.22874188273E+02  0.24422971392E+03 -0.62073223803E+03  0.67904704769E+03  0.12500000000E+03 0.  0.
         21    1    1    2  503  502 -0.22874188273E+02 -0.24422971392E+03  0.72479938197E+02  0.25578256995E+03  0.00000000000E+00 0. -1.
<mgrwt>
<rscale>  3 0.27531143E+03</rscale>
<asrwt>0</asrwt>
<pdfrwt beam="1">  1       21 0.29736717E-01 0.27531143E+03</pdfrwt>
<pdfrwt beam="2">  1       21 0.11408322E+00 0.27531143E+03</pdfrwt>
<totfact> 0.61344417E+03</totfact>
</mgrwt>
</event>
<event>
 4    0  0.1495377E-001  0.2370713E+03  0.7546771E-02  0.1121759E+00
         21   -1    0    0  503  501  0.00000000000E+00  0.00000000000E+00  0.38220840224E+03  0.38220840224E+03  0.00000000000E+00 0. -1.
         21   -1    0    0  501  502 -0.00000000000E+00 -0.00000000000E+00 -0.22820937409E+03  0.22820937409E+03  0.00000000000E+00 0. -1.
         25    1    1    2    0    0 -0.18095549039E+03  0.88503790162E+02 -0.12365920813E+03  0.26738438648E+03  0.12500000000E+03 0.  0.
         21    1    1    2  503  502  0.18095549039E+03 -0.88503790162E+02  0.27765823628E+03  0.34303338985E+03  0.00000000000E+00 0. -1.
<mgrwt>
<rscale>  3 0.23707132E+03</rscale>
<asrwt>0</asrwt>
<pdfrwt beam="1">  1       21 0.58801293E-01 0.23707132E+03</pdfrwt>
<pdfrwt beam="2">  1       21 0.35109134E-01 0.23707132E+03</pdfrwt>
<totfact> 0.20642850E+04</totfact>
</mgrwt>
</event>
<event>
 4    0  0.1495377E-001  0.2693505E+03  0.7546771E-02  0.1101652E+00
         21   -1    0    0  502  501  0.00000000000E+00  0.00000000000E+00  0.82884496506E+03  0.82884496506E+03  0.00000000000E+00 0. -1.
         21   -1    0    0  503  502 -0.00000000000E+00 -0.00000000000E+00 -0.26365839484E+03  0.26365839484E+03  0.00000000000E+00 0.  1.
         25    1    1    2    0    0 -0.22905199762E+03 -0.66782248520E+02 -0.17071319232E+03  0.31889289795E+03  0.12500000000E+03 0.  0.
         21    1    1    2  503  501  0.22905199762E+03  0.66782248520E+02  0.73589976254E+03  0.77361046195E+03  0.00000000000E+00 0. -1.
<mgrwt>
<rscale>  3 0.26935049E+03</rscale>
<asrwt>0</asrwt>
<pdfrwt beam="1">  1       21 0.12751461E+00 0.26935049E+03</pdfrwt>
<pdfrwt beam="2">  1       21 0.40562830E-01 0.26935049E+03</pdfrwt>
<totfact> 0.25036858E+03</totfact>
</mgrwt>
</event>
<event>
 4    0  0.1495377E-001  0.2535584E+03  0.7546771E-02  0.1111076E+00
         21   -1    0    0  503  501  0.00000000000E+00  0.00000000000E+00  0.18610472632E+02  0.18610472632E+02  0.00000000000E+00 0. -1.
         21   -1    0    0  501  502 -0.00000000000E+00 -0.00000000000E+00 -0.30213555820E+04  0.30213555820E+04  0.00000000000E+00 0. -1.
         25    1    1    2    0    0 -0.16458868573E+03 -0.14689265389E+03 -0.15764132320E+04  0.15966748464E+04  0.12500000000E+03 0.  0.
         21    1    1    2  503  502  0.16458868573E+03  0.14689265389E+03 -0.14263318774E+04  0.14432912082E+04  0.00000000000E+00 0. -1.
<mgrwt>
<rscale>  3 0.25355845E+03</rscale>
<asrwt>0</asrwt>
<pdfrwt beam="1">  1       21 0.28631485E-02 0.25355845E+03</pdfrwt>
<pdfrwt beam="2">  1       21 0.46482413E+00 0.25355845E+03</pdfrwt>
<totfact> 0.20896835E+03</totfact>
</mgrwt>
</event>
<event>
 4    0  0.1495377E-001  0.2789297E+03  0.7546771E-02  0.1096275E+00
         21   -1    0    0  503  501  0.00000000000E+00  0.00000000000E+00  0.22031843398E+03  0.22031843398E+03  0.00000000000E+00 0.  1.
         21   -1    0    0  501  502 -0.00000000000E+00 -0.00000000000E+00 -0.34373104320E+03  0.34373104320E+03  0.00000000000E+00 0.  1.
         25    1    1    2    0    0  0.53335944952E+02 -0.24358167961E+03 -0.14389109271E+03  0.31385729914E+03  0.12500000000E+03 0.  0.
         21    1    1    2  503  502 -0.53335944952E+02  0.24358167961E+03  0.20478483482E+02  0.25019217804E+03  0.00000000000E+00 0.  1.
<mgrwt>
<rscale>  3 0.27892966E+03</rscale>
<asrwt>0</asrwt>
<pdfrwt beam="1">  1       21 0.33895144E-01 0.27892966E+03</pdfrwt>
<pdfrwt beam="2">  1       21 0.52881699E-01 0.27892966E+03</pdfrwt>
<totfact> 0.27257958E+04</totfact>
</mgrwt>
</event>
<event>
 4    0  0.1495377E-001  0.2702960E+03  0.7546771E-02  0.1101110E+00
         21   -1    0    0  502  501  0.00000000000E+00  0.00000000000E+00  0.18562201266E+03  0.18562201266E+03  0.00000000000E+00 0. -1.
         21   -1    0    0  503  502 -0.00000000000E+00 -0.00000000000E+00 -0.51422610484E+03  0.51422610484E+03  0.00000000000E+00 0. -1.
         25    1    1    2    0    0  0.20891890398E+03  0.11742151183E+03 -0.36838739098E+03  0.45691267187E+03  0.12500000000E+03 0.  0.
         21    1    1    2  503  501 -0.20891890398E+03 -0.11742151183E+03  0.39783298806E+02  0.24293544563E+03  0.00000000000E+00 0. -1.
<mgrwt>
<rscale>  3 0.27029599E+03</rscale>
<asrwt>0</asrwt>
<pdfrwt beam="1">  1       21 0.28557233E-01 0.27029599E+03</pdfrwt>
<pdfrwt beam="2">  1       21 0.79111709E-01 0.27029599E+03</pdfrwt>
<totfact> 0.15845653E+04</totfact>
</mgrwt>
</event>
<event>
 4    0  0.1495377E-001  0.2668291E+03  0.7546771E-02  0.1103108E+00
         21   -1    0    0  502  501  0.00000000000E+00  0.00000000000E+00  0.64509824742E+03  0.64509824742E+03  0.00000000000E+00 0.  1.
         21   -1    0    0  503  502 -0.00000000000E+00 -0.00000000000E+00 -0.32056361011E+03  0.32056361011E+03  0.00000000000E+00 0.  1.
         25    1    1    2    0    0  0.23374347186E+03 -0.30606777768E+02 -0.23685271236E+03  0.35678704129E+03  0.12500000000E+03 0.  0.
         21    1    1    2  503  501 -0.23374347186E+03  0.30606777768E+02  0.56138734967E+03  0.60887481624E+03  0.00000000000E+00 0.  1.
<mgrwt>
<rscale>  3 0.26682913E+03</rscale>
<asrwt>0</asrwt>
<pdfrwt beam="1">  1       21 0.99245884E-01 0.26682913E+03</pdfrwt>
<pdfrwt beam="2">  1       21 0.49317479E-01 0.26682913E+03</pdfrwt>
<totfact> 0.31025798E+03</totfact>
</mgrwt>
</event>
<event>
 4    0  0.1495377E-001  0.2378287E+03  0.7546771E-02  0.1121248E+00
         21   -1    0    0  502  501  0.00000000000E+00  0.00000000000E+00  0.51168691818E+02  0.51168691818E+02  0.00000000000E+00 0.  1.
         21   -1    0    0  503  502 -0.00000000000E+00 -0.00000000000E+00 -0.13601185296E+04  0.13601185296E+04  0.00000000000E+00 0.  1.
         25    1    1    2    0    0 -0.38799846128E+02  0.19857511181E+03 -0.10794247189E+04  0.11053145375E+04  0.12500000000E+03 0.  0.
         21    1    1    2  503  501  0.38799846128E+02 -0.19857511181E+03 -0.22952511888E+03  0.30597268389E+03  0.00000000000E+00 0.  1.
<mgrwt>
<rscale>  3 0.23782873E+03</rscale>
<asrwt>0</asrwt>
<pdfrwt beam="1">  1       21 0.78721070E-02 0.23782873E+03</pdfrwt>
<pdfrwt beam="2">  1       21 0.20924899E+00 0.23782873E+03</pdfrwt>
<totfact> 0.13988154E+04</totfact>
</mgrwt>
</event>
<event>
 4    0  0.1495377E-001  0.3344572E+03  0.7546771E-02  0.1069182E+00
         21   -1    0    0  502  501  0.00000000000E+00  0.00000000000E+00  0.81983041321E+03  0.81983041321E+03  0.00000000000E+00 0. -1.
         21   -1    0    0  503  502 -0.00000000000E+00 -0.00000000000E+00 -0.35454860612E+03  0.35454860612E+03  0.00000000000E+00 0.  1.
         25    1    1    2    0    0 -0.21528213038E+03 -0.22336126244E+03 -0.23479725564E+03  0.40864581299E+03  0.12500000000E+03 0.  0.
         21    1    1    2  503  501  0.21528213038E+03  0.22336126244E+03  0.70007906273E+03  0.76573320634E+03  0.00000000000E+00 0. -1.
<mgrwt>
<rscale>  3 0.33445725E+03</rscale>
<asrwt>0</asrwt>
<pdfrwt beam="1">  1       21 0.12612775E+00 0.33445725E+03</pdfrwt>
<pdfrwt beam="2">  1       21 0.54545940E-01 0.33445725E+03</pdfrwt>
<totfact> 0.13327215E+03</totfact>
</mgrwt>
</event>
<event>
 4    0  0.1495377E-001  0.2820396E+03  0.7546771E-02  0.1094580E+00
         21   -1    0    0  502  501  0.00000000000E+00  0.00000000000E+00  0.43082047320E+03  0.43082047320E+03  0.00000000000E+00 0.  1.
         21   -1    0    0  503  502 -0.00000000000E+00 -0.00000000000E+00 -0.41602032113E+03  0.41602032113E+03  0.00000000000E+00 0.  1.
         25    1    1    2    0    0 -0.50624120260E+02 -0.24770653348E+03 -0.32048474938E+03  0.42691545166E+03  0.12500000000E+03 0.  0.
         21    1    1    2  503  501  0.50624120260E+02  0.24770653348E+03  0.33528490145E+03  0.41992534267E+03  0.00000000000E+00 0.  1.
<mgrwt>
<rscale>  3 0.28203959E+03</rscale>
<asrwt>0</asrwt>
<pdfrwt beam="1">  1       21 0.66280073E-01 0.28203959E+03</pdfrwt>
<pdfrwt beam="2">  1       21 0.64003126E-01 0.28203959E+03</pdfrwt>
<totfact> 0.44345311E+03</totfact>
</mgrwt>
</event>
<event>
 4    0  0.1495377E-001  0.2392672E+03  0.7546771E-02  0.1120282E+00
         21   -1    0    0  502  501  0.00000000000E+00  0.00000000000E+00  0.40018960563E+03  0.40018960563E+03  0.00000000000E+00 0. -1.
         21   -1    0    0  503  502 -0.00000000000E+00 -0.00000000000E+00 -0.13288274061E+03  0.13288274061E+03  0.00000000000E+00 0. -1.
         25    1    1    2    0    0  0.19048265811E+03  0.73076212650E+02  0.70106701680E+02  0.24932654395E+03  0.12500000000E+03 0.  0.
         21    1    1    2  503  501 -0.19048265811E+03 -0.73076212650E+02  0.19720016333E+03  0.28374580229E+03  0.00000000000E+00 0. -1.
<mgrwt>
<rscale>  3 0.23926716E+03</rscale>
<asrwt>0</asrwt>
<pdfrwt beam="1">  1       21 0.61567631E-01 0.23926716E+03</pdfrwt>
<pdfrwt beam="2">  1       21 0.20443499E-01 0.23926716E+03</pdfrwt>
<totfact> 0.53178945E+04</totfact>
</mgrwt>
</event>
<event>
 4    0  0.1495377E-001  0.2951338E+03  0.7546771E-02  0.1087699E+00
         21   -1    0    0  503  501  0.00000000000E+00  0.00000000000E+00  0.53577237686E+03  0.53577237686E+03  0.00000000000E+00 0.  1.
         21   -1    0    0  501  502 -0.00000000000E+00 -0.00000000000E+00 -0.14810108061E+03  0.14810108061E+03  0.00000000000E+00 0.  1.
         25    1    1    2    0    0  0.95318211108E+02 -0.24978673744E+03  0.18421197683E+03  0.34790519970E+03  0.12500000000E+03 0.  0.
         21    1    1    2  503  502 -0.95318211108E+02  0.24978673744E+03  0.20345931943E+03  0.33596825777E+03  0.00000000000E+00 0.  1.
<mgrwt>
<rscale>  3 0.29513383E+03</rscale>
<asrwt>0</asrwt>
<pdfrwt beam="1">  1       21 0.82426518E-01 0.29513383E+03</pdfrwt>
<pdfrwt beam="2">  1       21 0.22784782E-01 0.29513383E+03</pdfrwt>
<totfact> 0.22070671E+04</totfact>
</mgrwt>
</event>
<event>
 4    0  0.1495377E-001  0.2568602E+03  0.7546771E-02  0.1109045E+00
         21   -1    0    0  502  501  0.00000000000E+00  0.00000000000E+00  0.35509460367E+03  0.35509460367E+03  0.00000000000E+00 0.  1.
         21   -1    0    0  503  502 -0.00000000000E+00 -0.00000000000E+00 -0.18243157146E+03  0.18243157146E+03  0.00000000000E+00 0.  1.
         25    1    1    2    0    0  0.10103411914E+03  0.20036030375E+03  0.41322981766E+01  0.25689340287E+03  0.12500000000E+03 0.  0.
         21    1    1    2  503  501 -0.10103411914E+03 -0.20036030375E+03  0.16853073404E+03  0.28063277226E+03  0.00000000000E+00 0.  1.
<mgrwt>
<rscale>  3 0.25686017E+03</rscale>
<asrwt>0</asrwt>
<pdfrwt beam="1">  1       21 0.54629939E-01 0.25686017E+03</pdfrwt>
<pdfrwt beam="2">  1       21 0.28066396E-01 0.25686017E+03</pdfrwt>
<totfact> 0.37230150E+04</totfact>
</mgrwt>
</event>
<event>
 4    0  0.1495377E-001  0.3074116E+03  0.7546771E-02  0.1081593E+00
         21   -1    0    0  503  501  0.00000000000E+00  0.00000000000E+00  0.81632402134E+02  0.81632402134E+02  0.00000000000E+00 0.  1.
         21   -1    0    0  501  502 -0.00000000000E+00 -0.00000000000E+00 -0.11497446531E+04  0.11497446531E+04  0.00000000000E+00 0. -1.
         25    1    1    2    0    0 -0.93494578877E+02 -0.26483137891E+03 -0.72833897044E+03  0.79055648210E+03  0.12500000000E+03 0.  0.
         21    1    1    2  503  502  0.93494578877E+02  0.26483137891E+03 -0.33977328052E+03  0.44082057312E+03  0.00000000000E+00 0.  1.
<mgrwt>
<rscale>  3 0.30741161E+03</rscale>
<asrwt>0</asrwt>
<pdfrwt beam="1">  1       21 0.12558831E-01 0.30741161E+03</pdfrwt>
<pdfrwt beam="2">  1       21 0.17688380E+00 0.30741161E+03</pdfrwt>
<totfact> 0.95997759E+03</totfact>
</mgrwt>
</event>
<event>
 4    0  0.1495377E-001  0.3058476E+03  0.7546771E-02  0.1082353E+00
         21   -1    0    0  503  501  0.00000000000E+00  0.00000000000E+00  0.78373046192E+03  0.78373046192E+03  0.00000000000E+00 0.  1.
         21   -1    0    0  501  502 -0.00000000000E+00 -0.00000000000E+00 -0.31821840598E+03  0.31821840598E+03  0.00000000000E+00 0.  1.
         25    1    1    2    0    0  0.22566447161E+03 -0.16429632102E+03 -0.21002228863E+03  0.37101495465E+03  0.12500000000E+03 0.  0.
         21    1    1    2  503  502 -0.22566447161E+03  0.16429632102E+03  0.67553434457E+03  0.73093391325E+03  0.00000000000E+00 0.  1.
<mgrwt>
<rscale>  3 0.30584757E+03</rscale>
<asrwt>0</asrwt>
<pdfrwt beam="1">  1       21 0.12057392E+00 0.30584757E+03</pdfrwt>
<pdfrwt beam="2">  1       21 0.48956678E-01 0.30584757E+03</pdfrwt>
<totfact> 0.19104522E+03</totfact>
</mgrwt>
</event>
<event>
 4    0  0.1495377E-001  0.2780019E+03  0.7546771E-02  0.1096785E+00
         21   -1    0    0  503  501  0.00000000000E+00  0.00000000000E+00  0.15399268006E+03  0.15399268006E+03  0.00000000000E+00 0. -1.
         21   -1    0    0  501  502 -0.00000000000E+00 -0.00000000000E+00 -0.47726668255E+03  0.47726668255E+03  0.00000000000E+00 0. -1.
         25    1    1    2    0    0 -0.20917584705E+03 -0.13381141762E+03 -0.24595501727E+03  0.37118580387E+03  0.12500000000E+03 0.  0.
         21    1    1    2  503  502  0.20917584705E+03  0.13381141762E+03 -0.77318985222E+02  0.26007355873E+03  0.00000000000E+00 0. -1.
<mgrwt>
<rscale>  3 0.27800185E+03</rscale>
<asrwt>0</asrwt>
<pdfrwt beam="1">  1       21 0.23691182E-01 0.27800185E+03</pdfrwt>
<pdfrwt beam="2">  1       21 0.73425643E-01 0.27800185E+03</pdfrwt>
<totfact> 0.26824522E+04</totfact>
</mgrwt>
</event>
<event>
 4    0  0.1495377E-001  0.3293751E+03  0.7546771E-02  0.1071414E+00
         21   -1    0    0  502  501  0.00000000000E+00  0.00000000000E+00  0.35844471341E+03  0.35844471341E+03  0.00000000000E+00 0. -1.
         21   -1    0    0  503  502 -0.00000000000E+00 -0.00000000000E+00 -0.32251722002E+03  0.32251722002E+03  0.00000000000E+00 0. -1.
         25    1    1    2    0    0 -0.30154857804E+03  0.43947476383E+02 -0.10432433798E+03  0.34550179898E+03  0.12500000000E+03 0.  0.
         21    1    1    2  503  501  0.30154857804E+03 -0.43947476383E+02  0.14025183137E+03  0.33546013445E+03  0.00000000000E+00 0. -1.
<mgrwt>
<rscale>  3 0.32937505E+03</rscale>
<asrwt>0</asrwt>
<pdfrwt beam="1">  1       21 0.55145341E-01 0.32937505E+03</pdfrwt>
<pdfrwt beam="2">  1       21 0.49618034E-01 0.32937505E+03</pdfrwt>
<totfact> 0.11182522E+04</totfact>
</mgrwt>
</event>
<event>
 4    0  0.1495377E-001  0.2449750E+03  0.7546771E-02  0.1116522E+00
         21   -1    0    0  503  501  0.00000000000E+00  0.00000000000E+00  0.26574843854E+03  0.26574843854E+03  0.00000000000E+00 0.  1.
         21   -1    0    0  501  502 -0.00000000000E+00 -0.00000000000E+00 -0.24687447134E+03  0.24687447134E+03  0.00000000000E+00 0.  1.
         25    1    1    2    0    0 -0.64508667930E+02 -0.20056512545E+03 -0.10686584856E+03  0.26726961551E+03  0.12500000000E+03 0.  0.
         21    1    1    2  503  502  0.64508667930E+02  0.20056512545E+03  0.12573981576E+03  0.24535329436E+03  0.00000000000E+00 0.  1.
<mgrwt>
<rscale>  3 0.24497497E+03</rscale>
<asrwt>0</asrwt>
<pdfrwt beam="1">  1       21 0.40884375E-01 0.24497497E+03</pdfrwt>
<pdfrwt beam="2">  1       21 0.37980688E-01 0.24497497E+03</pdfrwt>
<totfact> 0.37570914E+04</totfact>
</mgrwt>
</event>
<event>
 4    0  0.1495377E-001  0.2440008E+03  0.7546771E-02  0.1117156E+00
         21   -1    0    0  503  501  0.00000000000E+00  0.00000000000E+00  0.92192115123E+03  0.92192115123E+03  0.00000000000E+00 0.  1.
         21   -1    0    0  501  502 -0.00000000000E+00 -0.00000000000E+00 -0.70501195377E+02  0.70501195377E+02  0.00000000000E+00 0.  1.
         25    1    1    2    0    0 -0.19480149242E+03 -0.77225310363E+02  0.22508691614E+03  0.33196459122E+03  0.12500000000E+03 0.  0.
         21    1    1    2  503  502  0.19480149242E+03  0.77225310363E+02  0.62633303971E+03  0.66045775538E+03  0.00000000000E+00 0.  1.
<mgrwt>
<rscale>  3 0.24400076E+03</rscale>
<asrwt>0</asrwt>
<pdfrwt beam="1">  1       21 0.14183401E+00 0.24400076E+03</pdfrwt>
<pdfrwt beam="2">  1       21 0.10846338E-01 0.24400076E+03</pdfrwt>
<totfact> 0.23582754E+04</totfact>
</mgrwt>
</event>
<event>
 4    0  0.1495377E-001  0.3252350E+03  0.7546771E-02  0.1073265E+00
         21   -1    0    0  502  501  0.00000000000E+00  0.00000000000E+00  0.59883131152E+03  0.59883131152E+03  0.00000000000E+00 0.  1.
         21   -1    0    0  503  502 -0.00000000000E+00 -0.00000000000E+00 -0.16400649189E+03  0.16400649189E+03  0.00000000000E+00 0.  1.
         25    1    1    2    0    0  0.23040186065E+03 -0.19253002298E+03  0.20164936053E+03  0.38267517785E+03  0.12500000000E+03 0.  0.
         21    1    1    2  503  501 -0.23040186065E+03  0.19253002298E+03  0.23317545910E+03  0.38016262555E+03  0.00000000000E+00 0.  1.
<mgrwt>
<rscale>  3 0.32523503E+03</rscale>
<asrwt>0</asrwt>
<pdfrwt beam="1">  1       21 0.92127893E-01 0.32523503E+03</pdfrwt>
<pdfrwt beam="2">  1       21 0.25231768E-01 0.32523503E+03</pdfrwt>
<totfact> 0.13829944E+04</totfact>
</mgrwt>
</event>
<event>
 4    0  0.1495377E-001  0.3105946E+03  0.7546771E-02  0.1080061E+00
         21   -1    0    0  503  501  0.00000000000E+00  0.00000000000E+00  0.20030089322E+04  0.20030089322E+04  0.00000000000E+00 0.  1.
         21   -1    0    0  501  502 -0.00000000000E+00 -0.00000000000E+00 -0.44629826627E+02  0.44629826627E+02  0.00000000000E+00 0.  1.
         25    1    1    2    0    0 -0.27250550473E+03  0.81146483746E+02  0.91878582057E+03  0.96986410698E+03  0.12500000000E+03 0.  0.
         21    1    1    2  503  502  0.27250550473E+03 -0.81146483746E+02  0.10395932850E+04  0.10777746519E+04  0.00000000000E+00 0.  1.
<mgrwt>
<rscale>  3 0.31059459E+03</rscale>
<asrwt>0</asrwt>
<pdfrwt beam="1">  1       21 0.30815515E+00 0.31059459E+03</pdfrwt>
<pdfrwt beam="2">  1       21 0.68661287E-02 0.31059459E+03</pdfrwt>
<totfact> 0.42945683E+03</totfact>
</mgrwt>
</event>
<event>
 4    0  0.1495377E-001  0.2520141E+03  0.7546771E-02  0.1112039E+00
         21   -1    0    0  502  501  0.00000000000E+00  0.00000000000E+00  0.10832051696E+03  0.10832051696E+03  0.00000000000E+00 0.  1.
         21   -1    0    0  503  502 -0.00000000000E+00 -0.00000000000E+00 -0.15132677862E+04  0.15132677862E+04  0.00000000000E+00 0.  1.
         25    1    1    2    0    0  0.21203086407E+03 -0.54120568435E+02 -0.13782914210E+04  0.14011418074E+04  0.12500000000E+03 0.  0.
         21    1    1    2  503  501 -0.21203086407E+03  0.54120568435E+02 -0.26655848246E+02  0.22044649576E+03  0.00000000000E+00 0.  1.
<mgrwt>
<rscale>  3 0.25201413E+03</rscale>
<asrwt>0</asrwt>
<pdfrwt beam="1">  1       21 0.16664697E-01 0.25201413E+03</pdfrwt>
<pdfrwt beam="2">  1       21 0.23281040E+00 0.25201413E+03</pdfrwt>
<totfact> 0.25722337E+03</totfact>
</mgrwt>
</event>
<event>
 4    0  0.1495377E-001  0.3670300E+03  0.7546771E-02  0.1055834E+00
         21   -1    0    0  503  501  0.00000000000E+00  0.00000000000E+00  0.46137527809E+03  0.46137527809E+03  0.00000000000E+00 0.  1.
         21   -1    0    0  501  502 -0.00000000000E+00 -0.00000000000E+00 -0.29995369785E+03  0.29995369785E+03  0.00000000000E+00 0.  1.
         25    1    1    2    0    0 -0.24199667030E+03 -0.24601550680E+03 -0.27234127930E+02  0.36803901389E+03  0.12500000000E+03 0.  0.
         21    1    1    2  503  502  0.24199667030E+03  0.24601550680E+03  0.18865570817E+03  0.39328996205E+03  0.00000000000E+00 0.  1.
<mgrwt>
<rscale>  3 0.36703000E+03</rscale>
<asrwt>0</asrwt>
<pdfrwt beam="1">  1       21 0.70980812E-01 0.36703000E+03</pdfrwt>
<pdfrwt beam="2">  1       21 0.46146723E-01 0.36703000E+03</pdfrwt>
<totfact> 0.73740484E+03</totfact>
</mgrwt>
</event>
<event>
 4    0  0.1495377E-001  0.3035918E+03  0.7546771E-02  0.1083459E+00
         21   -1    0    0  502  501  0.00000000000E+00  0.00000000000E+00  0.20253351368E+03  0.20253351368E+03  0.00000000000E+00 0.  1.
         21   -1    0    0  503  502 -0.00000000000E+00 -0.00000000000E+00 -0.43607640597E+03  0.43607640597E+03  0.00000000000E+00 0. -1.
         25    1    1    2    0    0 -0.24481493131E+03  0.12887454552E+03 -0.19104547925E+03  0.35870095375E+03  0.12500000000E+03 0.  0.
         21    1    1    2  503  501  0.24481493131E+03 -0.12887454552E+03 -0.42497413048E+02  0.27990896590E+03  0.00000000000E+00 0.  1.
<mgrwt>
<rscale>  3 0.30359183E+03</rscale>
<asrwt>0</asrwt>
<pdfrwt beam="1">  1       21 0.31159002E-01 0.30359183E+03</pdfrwt>
<pdfrwt beam="2">  1       21 0.67088677E-01 0.30359183E+03</pdfrwt>
<totfact> 0.19049669E+04</totfact>
</mgrwt>
</event>
<event>
 4    0  0.1495377E-001  0.2644438E+03  0.7546771E-02  0.1104502E+00
         21   -1    0    0  503  501  0.00000000000E+00  0.00000000000E+00  0.10137927733E+03  0.10137927733E+03  0.00000000000E+00 0.  1.
         21   -1    0    0  501  502 -0.00000000000E+00 -0.00000000000E+00 -0.67702047518E+03  0.67702047518E+03  0.00000000000E+00 0.  1.
         25    1    1    2    0    0 -0.23166600016E+03  0.25227114167E+02 -0.42616504725E+03  0.50154480400E+03  0.12500000000E+03 0.  0.
         21    1    1    2  503  502  0.23166600016E+03 -0.25227114167E+02 -0.14947615059E+03  0.27685494851E+03  0.00000000000E+00 0.  1.
<mgrwt>
<rscale>  3 0.26444384E+03</rscale>
<asrwt>0</asrwt>
<pdfrwt beam="1">  1       21 0.15596812E-01 0.26444384E+03</pdfrwt>
<pdfrwt beam="2">  1       21 0.10415699E+00 0.26444384E+03</pdfrwt>
<totfact> 0.26211881E+04</totfact>
</mgrwt>
</event>
<event>
 4    0  0.1495377E-001  0.2522089E+03  0.7546771E-02  0.1111917E+00
         21   -1    0    0  503  501  0.00000000000E+00  0.00000000000E+00  0.10368604672E+04  0.10368604672E+04  0.00000000000E+00 0.  1.
         21   -1    0    0  501  502 -0.00000000000E+00 -0.00000000000E+00 -0.61744782037E+02  0.61744782037E+02  0.00000000000E+00 0.  1.
         25    1    1    2    0    0 -0.18027865804E+03 -0.12443443931E+03  0.31759901800E+03  0.40555944135E+03  0.12500000000E+03 0.  0.
         21    1    1    2  503  502  0.18027865804E+03  0.12443443931E+03  0.65751666714E+03  0.69304580786E+03  0.00000000000E+00 0.  1.
<mgrwt>
<rscale>  3 0.25220889E+03</rscale>
<asrwt>0</asrwt>
<pdfrwt beam="1">  1       21 0.15951698E+00 0.25220889E+03</pdfrwt>
<pdfrwt beam="2">  1       21 0.94991980E-02 0.25220889E+03</pdfrwt>
<totfact> 0.21736845E+04</totfact>
</mgrwt>
</event>
<event>
 4    0  0.1495377E-001  0.2383522E+03  0.7546771E-02  0.1120895E+00
         21   -1    0    0  503  501  0.00000000000E+00  0.00000000000E+00  0.10424485613E+03  0.10424485613E+03  0.00000000000E+00 0. -1.
         21   -1    0    0  501  502 -0.00000000000E+00 -0.00000000000E+00 -0.57070781815E+03  0.57070781815E+03  0.00000000000E+00 0. -1.
         25    1    1    2    0    0 -0.19132360025E+03 -0.67690893667E+02 -0.39200306384E+03  0.45877900906E+03  0.12500000000E+03 0.  0.
         21    1    1    2  503  502  0.19132360025E+03  0.67690893667E+02 -0.74459898181E+02  0.21617366522E+03  0.00000000000E+00 0. -1.
<mgrwt>
<rscale>  3 0.23835221E+03</rscale>
<asrwt>0</asrwt>
<pdfrwt beam="1">  1       21 0.16037670E-01 0.23835221E+03</pdfrwt>
<pdfrwt beam="2">  1       21 0.87801204E-01 0.23835221E+03</pdfrwt>
<totfact> 0.37742425E+04</totfact>
</mgrwt>
</event>
<event>
 4    0  0.1495377E-001  0.3629522E+03  0.7546771E-02  0.1057421E+00
         21   -1    0    0  503  501  0.00000000000E+00  0.00000000000E+00  0.16968431321E+04  0.16968431321E+04  0.00000000000E+00 0.  1.
         21   -1    0    0  501  502 -0.00000000000E+00 -0.00000000000E+00 -0.81763498681E+02  0.81763498681E+02  0.00000000000E+00 0. -1.
         25    1    1    2    0    0 -0.18249917056E+03  0.28775571397E+03  0.53856692337E+03  0.64945256110E+03  0.12500000000E+03 0.  0.
         21    1    1    2  503  502  0.18249917056E+03 -0.28775571397E+03  0.10765127101E+04  0.11291540697E+04  0.00000000000E+00 0.  1.
<mgrwt>
<rscale>  3 0.36295220E+03</rscale>
<asrwt>0</asrwt>
<pdfrwt beam="1">  1       21 0.26105276E+00 0.36295220E+03</pdfrwt>
<pdfrwt beam="2">  1       21 0.12579001E-01 0.36295220E+03</pdfrwt>
<totfact> 0.26923393E+03</totfact>
</mgrwt>
</event>
<event>
 4    0  0.1495377E-001  0.2423080E+03  0.7546771E-02  0.1118265E+00
         21   -1    0    0  502  501  0.00000000000E+00  0.00000000000E+00  0.18904886717E+03  0.18904886717E+03  0.00000000000E+00 0.  1.
         21   -1    0    0  503  502 -0.00000000000E+00 -0.00000000000E+00 -0.96122469006E+03  0.96122469006E+03  0.00000000000E+00 0.  1.
         25    1    1    2    0    0  0.88708486920E+02  0.18766715412E+03 -0.88252729326E+03  0.91518718289E+03  0.12500000000E+03 0.  0.
         21    1    1    2  503  501 -0.88708486920E+02 -0.18766715412E+03  0.11035147037E+03  0.23508637434E+03  0.00000000000E+00 0.  1.
<mgrwt>
<rscale>  3 0.24230798E+03</rscale>
<asrwt>0</asrwt>
<pdfrwt beam="1">  1       21 0.29084441E-01 0.24230798E+03</pdfrwt>
<pdfrwt beam="2">  1       21 0.14788072E+00 0.24230798E+03</pdfrwt>
<totfact> 0.33732944E+03</totfact>
</mgrwt>
</event>
<event>
 4    0  0.1495377E-001  0.3334796E+03  0.7546771E-02  0.1069608E+00
         21   -1    0    0  503  501  0.00000000000E+00  0.00000000000E+00  0.58091597616E+03  0.58091597616E+03  0.00000000000E+00 0. -1.
         21   -1    0    0  501  502 -0.00000000000E+00 -0.00000000000E+00 -0.18403812368E+03  0.18403812368E+03  0.00000000000E+00 0. -1.
         25    1    1    2    0    0 -0.22408150640E+03 -0.21300492404E+03  0.13494783136E+03  0.35974926875E+03  0.12500000000E+03 0.  0.
         21    1    1    2  503  502  0.22408150640E+03  0.21300492404E+03  0.26193002113E+03  0.40520483109E+03  0.00000000000E+00 0. -1.
<mgrwt>
<rscale>  3 0.33347956E+03</rscale>
<asrwt>0</asrwt>
<pdfrwt beam="1">  1       21 0.89371688E-01 0.33347956E+03</pdfrwt>
<pdfrwt beam="2">  1       21 0.28313558E-01 0.33347956E+03</pdfrwt>
<totfact> 0.11829602E+04</totfact>
</mgrwt>
</event>
<event>
 4    0  0.1495377E-001  0.2964875E+03  0.7546771E-02  0.1087010E+00
         21   -1    0    0  503  501  0.00000000000E+00  0.00000000000E+00  0.31026324205E+03  0.31026324205E+03  0.00000000000E+00 0. -1.
         21   -1    0    0  501  502 -0.00000000000E+00 -0.00000000000E+00 -0.93358317835E+03  0.93358317835E+03  0.00000000000E+00 0. -1.
         25    1    1    2    0    0  0.23587390972E+03 -0.12900908689E+03 -0.84492695770E+03  0.89543643529E+03  0.12500000000E+03 0.  0.
         21    1    1    2  503  502 -0.23587390972E+03  0.12900908689E+03  0.22160702140E+03  0.34840998511E+03  0.00000000000E+00 0. -1.
<mgrwt>
<rscale>  3 0.29648751E+03</rscale>
<asrwt>0</asrwt>
<pdfrwt beam="1">  1       21 0.47732807E-01 0.29648751E+03</pdfrwt>
<pdfrwt beam="2">  1       21 0.14362818E+00 0.29648751E+03</pdfrwt>
<totfact> 0.12912598E+03</totfact>
</mgrwt>
</event>
<event>
 4    0  0.1495377E-001  0.2430714E+03  0.7546771E-02  0.1117763E+00
         21   -1    0    0  502  501  0.00000000000E+00  0.00000000000E+00  0.70078192637E+02  0.70078192637E+02  0.00000000000E+00 0.  1.
         21   -1    0    0  503  502 -0.00000000000E+00 -0.00000000000E+00 -0.72978809164E+03  0.72978809164E+03  0.00000000000E+00 0.  1.
         25    1    1    2    0    0 -0.19126603465E+03 -0.82921750065E+02 -0.33203353368E+03  0.41149724195E+03  0.12500000000E+03 0.  0.
         21    1    1    2  503  501  0.19126603465E+03  0.82921750065E+02 -0.32767636532E+03  0.38836904232E+03  0.00000000000E+00 0.  1.
<mgrwt>
<rscale>  3 0.24307141E+03</rscale>
<asrwt>0</asrwt>
<pdfrwt beam="1">  1       21 0.10781260E-01 0.24307141E+03</pdfrwt>
<pdfrwt beam="2">  1       21 0.11227510E+00 0.24307141E+03</pdfrwt>
<totfact> 0.43040012E+04</totfact>
</mgrwt>
</event>
<event>
 4    0  0.1495377E-001  0.3022974E+03  0.7546771E-02  0.1084098E+00
         21   -1    0    0  502  501  0.00000000000E+00  0.00000000000E+00  0.76823656488E+03  0.76823656488E+03  0.00000000000E+00 0.  1.
         21   -1    0    0  503  502 -0.00000000000E+00 -0.00000000000E+00 -0.20519408880E+03  0.20519408880E+03  0.00000000000E+00 0.  1.
         25    1    1    2    0    0 -0.27515593214E+03  0.69221455006E+01 -0.45343419599E+02  0.30567912717E+03  0.12500000000E+03 0.  0.
         21    1    1    2  503  501  0.27515593214E+03 -0.69221455006E+01  0.60838589568E+03  0.66775152650E+03  0.00000000000E+00 0.  1.
<mgrwt>
<rscale>  3 0.30229738E+03</rscale>
<asrwt>0</asrwt>
<pdfrwt beam="1">  1       21 0.11819024E+00 0.30229738E+03</pdfrwt>
<pdfrwt beam="2">  1       21 0.31568322E-01 0.30229738E+03</pdfrwt>
<totfact> 0.49237883E+03</totfact>
</mgrwt>
</event>
<event>
 4    0  0.1495377E-001  0.2989833E+03  0.7546771E-02  0.1085750E+00
         21   -1    0    0  503  501  0.00000000000E+00  0.00000000000E+00  0.37256355107E+03  0.37256355107E+03  0.00000000000E+00 0. -1.
         21   -1    0    0  501  502 -0.00000000000E+00 -0.00000000000E+00 -0.24825561701E+03  0.24825561701E+03  0.00000000000E+00 0. -1.
         25    1    1    2    0    0 -0.11343007946E+03  0.24677846829E+03  0.17220407220E+03  0.34502932892E+03  0.12500000000E+03 0.  0.
         21    1    1    2  503  502  0.11343007946E+03 -0.24677846829E+03 -0.47896138147E+02  0.27578983916E+03  0.00000000000E+00 0. -1.
<mgrwt>
<rscale>  3 0.29898327E+03</rscale>
<asrwt>0</asrwt>
<pdfrwt beam="1">  1       21 0.57317469E-01 0.29898327E+03</pdfrwt>
<pdfrwt beam="2">  1       21 0.38193172E-01 0.29898327E+03</pdfrwt>
<totfact> 0.17903406E+04</totfact>
</mgrwt>
</event>
<event>
 4    0  0.1495377E-001  0.2532424E+03  0.7546771E-02  0.1111273E+00
         21   -1    0    0  502  501  0.00000000000E+00  0.00000000000E+00  0.33158625819E+03  0.33158625819E+03  0.00000000000E+00 0. -1.
         21   -1    0    0  503  502 -0.00000000000E+00 -0.00000000000E+00 -0.48699644424E+03  0.48699644424E+03  0.00000000000E+00 0. -1.
         25    1    1    2    0    0 -0.20103648538E+03  0.89950213281E+02 -0.41002744296E+03  0.48192760172E+03  0.12500000000E+03 0.  0.
         21    1    1    2  503  501  0.20103648538E+03 -0.89950213281E+02  0.25461725690E+03  0.33665510071E+03  0.00000000000E+00 0. -1.
<mgrwt>
<rscale>  3 0.25324239E+03</rscale>
<asrwt>0</asrwt>
<pdfrwt beam="1">  1       21 0.51013270E-01 0.25324239E+03</pdfrwt>
<pdfrwt beam="2">  1       21 0.74922530E-01 0.25324239E+03</pdfrwt>
<totfact> 0.55861670E+03</totfact>
</mgrwt>
</event>
<event>
 4    0  0.1495377E-001  0.2404428E+03  0.7546771E-02  0.1119498E+00
         21   -1    0    0  502  501  0.00000000000E+00  0.00000000000E+00  0.53840976089E+03  0.53840976089E+03  0.00000000000E+00 0.  1.
         21   -1    0    0  503  502 -0.00000000000E+00 -0.00000000000E+00 -0.98703152108E+02  0.98703152108E+02  0.00000000000E+00 0.  1.
         25    1    1    2    0    0 -0.16354484375E+03  0.12426102804E+03  0.31693982647E+03  0.39782354456E+03  0.12500000000E+03 0.  0.
         21    1    1    2  503  501  0.16354484375E+03 -0.12426102804E+03  0.12276678231E+03  0.23928936844E+03  0.00000000000E+00 0.  1.
<mgrwt>
<rscale>  3 0.24044276E+03</rscale>
<asrwt>0</asrwt>
<pdfrwt beam="1">  1       21 0.82832269E-01 0.24044276E+03</pdfrwt>
<pdfrwt beam="2">  1       21 0.15185101E-01 0.24044276E+03</pdfrwt>
<totfact> 0.47671870E+04</totfact>
</mgrwt>
</event>
<event>
 4    0  0.1495377E-001  0.3644108E+03  0.7546771E-02  0.1056851E+00
         21   -1    0    0  503  501  0.00000000000E+00  0.00000000000E+00  0.29430413779E+03  0.29430413779E+03  0.00000000000E+00 0.  1.
         21   -1    0    0  501  502 -0.00000000000E+00 -0.00000000000E+00 -0.13346611486E+04  0.13346611486E+04  0.00000000000E+00 0. -1.
         25    1    1    2    0    0  0.19722280877E+03 -0.27977388820E+03 -0.11979345509E+04  0.12521351577E+04  0.12500000000E+03 0.  0.
         21    1    1    2  503  502 -0.19722280877E+03  0.27977388820E+03  0.15757754005E+03  0.37683012877E+03  0.00000000000E+00 0.  1.
<mgrwt>
<rscale>  3 0.36441085E+03</rscale>
<asrwt>0</asrwt>
<pdfrwt beam="1">  1       21 0.45277559E-01 0.36441085E+03</pdfrwt>
<pdfrwt beam="2">  1       21 0.20533249E+00 0.36441085E+03</pdfrwt>
<totfact> 0.50052066E+02</totfact>
</mgrwt>
</event>
<event>
 4    0  0.1495377E-001  0.3414863E+03  0.7546771E-02  0.1066165E+00
         21   -1    0    0  503  501  0.00000000000E+00  0.00000000000E+00  0.13515060654E+04  0.13515060654E+04  0.00000000000E+00 0. -1.
         21   -1    0    0  501  502 -0.00000000000E+00 -0.00000000000E+00 -0.95498657068E+02  0.95498657068E+02  0.00000000000E+00 0. -1.
         25    1    1    2    0    0  0.21312280732E+03 -0.23572557480E+03  0.35947841085E+03  0.49582013421E+03  0.12500000000E+03 0.  0.
         21    1    1    2  503  502 -0.21312280732E+03  0.23572557480E+03  0.89652899744E+03  0.95118458822E+03  0.00000000000E+00 0. -1.
<mgrwt>
<rscale>  3 0.34148628E+03</rscale>
<asrwt>0</asrwt>
<pdfrwt beam="1">  1       21 0.20792400E+00 0.34148628E+03</pdfrwt>
<pdfrwt beam="2">  1       21 0.14692102E-01 0.34148628E+03</pdfrwt>
<totfact> 0.43788705E+03</totfact>
</mgrwt>
</event>
<event>
 4    0  0.1495377E-001  0.2607892E+03  0.7546771E-02  0.1106670E+00
         21   -1    0    0  503  501  0.00000000000E+00  0.00000000000E+00  0.27265332408E+03  0.27265332408E+03  0.00000000000E+00 0.  1.
         21   -1    0    0  501  502 -0.00000000000E+00 -0.00000000000E+00 -0.33207696907E+03  0.33207696907E+03  0.00000000000E+00 0.  1.
         25    1    1    2    0    0  0.40602601540E+02  0.22524975302E+03 -0.20651971338E+03  0.33265810452E+03  0.12500000000E+03 0.  0.
         21    1    1    2  503  502 -0.40602601540E+02 -0.22524975302E+03  0.14709606840E+03  0.27207218863E+03  0.00000000000E+00 0.  1.
<mgrwt>
<rscale>  3 0.26078923E+03</rscale>
<asrwt>0</asrwt>
<pdfrwt beam="1">  1       21 0.41946665E-01 0.26078923E+03</pdfrwt>
<pdfrwt beam="2">  1       21 0.51088765E-01 0.26078923E+03</pdfrwt>
<totfact> 0.19211567E+04</totfact>
</mgrwt>
</event>
<event>
 4    0  0.1495377E-001  0.3181128E+03  0.7546771E-02  0.1076521E+00
         21   -1    0    0  502  501  0.00000000000E+00  0.00000000000E+00  0.48759397866E+03  0.48759397866E+03  0.00000000000E+00 0.  1.
         21   -1    0    0  503  502 -0.00000000000E+00 -0.00000000000E+00 -0.26042096732E+03  0.26042096732E+03  0.00000000000E+00 0.  1.
         25    1    1    2    0    0  0.15263035612E+03  0.24954910863E+03 -0.75642853788E+02  0.32698260589E+03  0.12500000000E+03 0.  0.
         21    1    1    2  503  501 -0.15263035612E+03 -0.24954910863E+03  0.30281586512E+03  0.42103234009E+03  0.00000000000E+00 0.  1.
<mgrwt>
<rscale>  3 0.31811285E+03</rscale>
<asrwt>0</asrwt>
<pdfrwt beam="1">  1       21 0.75014458E-01 0.31811285E+03</pdfrwt>
<pdfrwt beam="2">  1       21 0.40064764E-01 0.31811285E+03</pdfrwt>
<totfact> 0.88971971E+03</totfact>
</mgrwt>
</event>
<event>
 4    0  0.1495377E-001  0.2736130E+03  0.7546771E-02  0.1099229E+00
         21   -1    0    0  503  501  0.00000000000E+00  0.00000000000E+00  0.14065216189E+04  0.14065216189E+04  0.00000000000E+00 0. -1.
         21   -1    0    0  501  502 -0.00000000000E+00 -0.00000000000E+00 -0.49812218530E+02  0.49812218530E+02  0.00000000000E+00 0. -1.
         25    1    1    2    0    0  0.17720621900E+03 -0.16684429590E+03  0.55987213071E+03  0.62315396643E+03  0.12500000000E+03 0.  0.
         21    1    1    2  503  502 -0.17720621900E+03  0.16684429590E+03  0.79683726967E+03  0.83317987102E+03  0.00000000000E+00 0. -1.
<mgrwt>
<rscale>  3 0.27361298E+03</rscale>
<asrwt>0</asrwt>
<pdfrwt beam="1">  1       21 0.21638791E+00 0.27361298E+03</pdfrwt>
<pdfrwt beam="2">  1       21 0.76634193E-02 0.27361298E+03</pdfrwt>
<totfact> 0.12913512E+04</totfact>
</mgrwt>
</event>
<event>
 4    0  0.1495377E-001  0.2725726E+03  0.7546771E-02  0.1099816E+00
         21   -1    0    0  502  501  0.00000000000E+00  0.00000000000E+00  0.32010551369E+03  0.32010551369E+03  0.00000000000E+00 0.  1.
         21   -1    0    0  503  502 -0.00000000000E+00 -0.00000000000E+00 -0.31668916697E+03  0.31668916697E+03  0.00000000000E+00 0.  1.
         25    1    1    2    0    0 -0.91114670433E+02  0.22443027876E+03 -0.18542147470E+03  0.32966188204E+03  0.12500000000E+03 0.  0.
         21    1    1    2  503  501  0.91114670433E+02 -0.22443027876E+03  0.18883782142E+03  0.30713279862E+03  0.00000000000E+00 0.  1.
<mgrwt>
<rscale>  3 0.27257262E+03</rscale>
<asrwt>0</asrwt>
<pdfrwt beam="1">  1       21 0.49247002E-01 0.27257262E+03</pdfrwt>
<pdfrwt beam="2">  1       21 0.48721410E-01 0.27257262E+03</pdfrwt>
<totfact> 0.15136241E+04</totfact>
</mgrwt>
</event>
<event>
 4    0  0.1495377E-001  0.2906284E+03  0.7546771E-02  0.1090021E+00
         21   -1    0    0  502  501  0.00000000000E+00  0.00000000000E+00  0.22044459460E+03  0.22044459460E+03  0.00000000000E+00 0. -1.
         21   -1    0    0  503  502 -0.00000000000E+00 -0.00000000000E+00 -0.36098823326E+03  0.36098823326E+03  0.00000000000E+00 0. -1.
         25    1    1    2    0    0 -0.22050647647E+03 -0.14218570214E+03 -0.13126003374E+03  0.31889508700E+03  0.12500000000E+03 0.  0.
         21    1    1    2  503  501  0.22050647647E+03  0.14218570214E+03 -0.92836049226E+01  0.26253774086E+03  0.00000000000E+00 0. -1.
<mgrwt>
<rscale>  3 0.29062842E+03</rscale>
<asrwt>0</asrwt>
<pdfrwt beam="1">  1       21 0.33914553E-01 0.29062842E+03</pdfrwt>
<pdfrwt beam="2">  1       21 0.55536651E-01 0.29062842E+03</pdfrwt>
<totfact> 0.24413778E+04</totfact>
</mgrwt>
</event>
<event>
 4    0  0.1495377E-001  0.3606380E+03  0.7546771E-02  0.1058332E+00
         21   -1    0    0  502  501  0.00000000000E+00  0.00000000000E+00  0.22828221820E+04  0.22828221820E+04  0.00000000000E+00 0. -1.
         21   -1    0    0  503  502 -0.00000000000E+00 -0.00000000000E+00 -0.80245391071E+02  0.80245391071E+02  0.00000000000E+00 0. -1.
         25    1    1    2    0    0 -0.32126924203E+03 -0.10592842396E+03  0.44283677438E+03  0.57110784062E+03  0.12500000000E+03 0.  0.
         21    1    1    2  503  501  0.32126924203E+03  0.10592842396E+03  0.17597400166E+04  0.17919597325E+04  0.00000000000E+00 0. -1.
<mgrwt>
<rscale>  3 0.36063799E+03</rscale>
<asrwt>0</asrwt>
<pdfrwt beam="1">  1       21 0.35120336E+00 0.36063799E+03</pdfrwt>
<pdfrwt beam="2">  1       21 0.12345447E-01 0.36063799E+03</pdfrwt>
<totfact> 0.80500609E+02</totfact>
</mgrwt>
</event>
<event>
 4    0  0.1495377E-001  0.4237883E+03  0.7546771E-02  0.1035840E+00
         21   -1    0    0  503  501  0.00000000000E+00  0.00000000000E+00  0.17998944250E+03  0.17998944250E+03  0.00000000000E+00 0. -1.
         21   -1    0    0  501  502 -0.00000000000E+00 -0.00000000000E+00 -0.95417164337E+03  0.95417164337E+03  0.00000000000E+00 0. -1.
         25    1    1    2    0    0  0.15900237401E+03 -0.37241070808E+03 -0.38664705835E+03  0.57366578961E+03  0.12500000000E+03 0.  0.
         21    1    1    2  503  502 -0.15900237401E+03  0.37241070808E+03 -0.38753514252E+03  0.56049529626E+03  0.00000000000E+00 0. -1.
<mgrwt>
<rscale>  3 0.42378826E+03</rscale>
<asrwt>0</asrwt>
<pdfrwt beam="1">  1       21 0.27690684E-01 0.42378826E+03</pdfrwt>
<pdfrwt beam="2">  1       21 0.14679564E+00 0.42378826E+03</pdfrwt>
<totfact> 0.34421194E+03</totfact>
</mgrwt>
</event>
<event>
 4    0  0.1495377E-001  0.2782144E+03  0.7546771E-02  0.1096668E+00
         21   -1    0    0  502  501  0.00000000000E+00  0.00000000000E+00  0.96803051792E+03  0.96803051792E+03  0.00000000000E+00 0.  1.
         21   -1    0    0  503  502 -0.00000000000E+00 -0.00000000000E+00 -0.37857304407E+03  0.37857304407E+03  0.00000000000E+00 0.  1.
         25    1    1    2    0    0  0.22149534084E+03 -0.11277437883E+03 -0.30818321292E+03  0.41518687270E+03  0.12500000000E+03 0.  0.
         21    1    1    2  503  501 -0.22149534084E+03  0.11277437883E+03  0.89764068677E+03  0.93141668929E+03  0.00000000000E+00 0.  1.
<mgrwt>
<rscale>  3 0.27821439E+03</rscale>
<asrwt>0</asrwt>
<pdfrwt beam="1">  1       21 0.14892777E+00 0.27821439E+03</pdfrwt>
<pdfrwt beam="2">  1       21 0.58242007E-01 0.27821439E+03</pdfrwt>
<totfact> 0.77853532E+02</totfact>
</mgrwt>
</event>
<event>
 4    0  0.1495377E-001  0.3273403E+03  0.7546771E-02  0.1072320E+00
         21   -1    0    0  502  501  0.00000000000E+00  0.00000000000E+00  0.53377066908E+02  0.53377066908E+02  0.00000000000E+00 0.  1.
         21   -1    0    0  503  502 -0.00000000000E+00 -0.00000000000E+00 -0.20715347088E+04  0.20715347088E+04  0.00000000000E+00 0.  1.
         25    1    1    2    0    0 -0.93659305660E+02 -0.28767101285E+03 -0.13854425689E+04  0.14235879983E+04  0.12500000000E+03 0.  0.
         21    1    1    2  503  501  0.93659305660E+02  0.28767101285E+03 -0.63271507299E+03  0.70132377741E+03  0.00000000000E+00 0.  1.
<mgrwt>
<rscale>  3 0.32734031E+03</rscale>
<asrwt>0</asrwt>
<pdfrwt beam="1">  1       21 0.82118551E-02 0.32734031E+03</pdfrwt>
<pdfrwt beam="2">  1       21 0.31869770E+00 0.32734031E+03</pdfrwt>
<totfact> 0.26840894E+03</totfact>
</mgrwt>
</event>
<event>
 4    0  0.1495377E-001  0.3888679E+03  0.7546771E-02  0.1047704E+00
         21   -1    0    0  503  501  0.00000000000E+00  0.00000000000E+00  0.21049556164E+03  0.21049556164E+03  0.00000000000E+00 0. -1.
         21   -1    0    0  501  502 -0.00000000000E+00 -0.00000000000E+00 -0.13173546188E+04  0.13173546188E+04  0.00000000000E+00 0. -1.
         25    1    1    2    0    0 -0.16682427593E+03  0.32827258997E+03 -0.10921635951E+04  0.11593271975E+04  0.12500000000E+03 0.  0.
         21    1    1    2  503  502  0.16682427593E+03 -0.32827258997E+03 -0.14695462071E+02  0.36852298296E+03  0.00000000000E+00 0. -1.
<mgrwt>
<rscale>  3 0.38886789E+03</rscale>
<asrwt>0</asrwt>
<pdfrwt beam="1">  1       21 0.32383933E-01 0.38886789E+03</pdfrwt>
<pdfrwt beam="2">  1       21 0.20266994E+00 0.38886789E+03</pdfrwt>
<totfact> 0.10179365E+03</totfact>
</mgrwt>
</event>
<event>
 4    0  0.1495377E-001  0.2838734E+03  0.7546771E-02  0.1093592E+00
         21   -1    0    0  503  501  0.00000000000E+00  0.00000000000E+00  0.36279697520E+03  0.36279697520E+03  0.00000000000E+00 0.  1.
         21   -1    0    0  501  502 -0.00000000000E+00 -0.00000000000E+00 -0.14522441599E+04  0.14522441599E+04  0.00000000000E+00 0. -1.
         25    1    1    2    0    0 -0.56336705469E+02 -0.24856649971E+03 -0.13913080694E+04  0.14199726311E+04  0.12500000000E+03 0.  0.
         21    1    1    2  503  502  0.56336705469E+02  0.24856649971E+03  0.30186088468E+03  0.39506850401E+03  0.00000000000E+00 0.  1.
<mgrwt>
<rscale>  3 0.28387344E+03</rscale>
<asrwt>0</asrwt>
<pdfrwt beam="1">  1       21 0.55814919E-01 0.28387344E+03</pdfrwt>
<pdfrwt beam="2">  1       21 0.22342218E+00 0.28387344E+03</pdfrwt>
<totfact> 0.26203111E+02</totfact>
</mgrwt>
</event>
<event>
 4    0  0.1495377E-001  0.2385172E+03  0.7546771E-02  0.1120785E+00
         21   -1    0    0  502  501  0.00000000000E+00  0.00000000000E+00  0.61694747306E+03  0.61694747306E+03  0.00000000000E+00 0. -1.
         21   -1    0    0  503  502 -0.00000000000E+00 -0.00000000000E+00 -0.91779475844E+02  0.91779475844E+02  0.00000000000E+00 0. -1.
         25    1    1    2    0    0 -0.18569300492E+03  0.82362441697E+02  0.14905324631E+03  0.28126026046E+03  0.12500000000E+03 0.  0.
         21    1    1    2  503  501  0.18569300492E+03 -0.82362441697E+02  0.37611475090E+03  0.42746668844E+03  0.00000000000E+00 0. -1.
<mgrwt>
<rscale>  3 0.23851722E+03</rscale>
<asrwt>0</asrwt>
<pdfrwt beam="1">  1       21 0.94914993E-01 0.23851722E+03</pdfrwt>
<pdfrwt beam="2">  1       21 0.14119920E-01 0.23851722E+03</pdfrwt>
<totfact> 0.39720123E+04</totfact>
</mgrwt>
</event>
<event>
 4    0  0.1495377E-001  0.2713865E+03  0.7546771E-02  0.1100489E+00
         21   -1    0    0  503  501  0.00000000000E+00  0.00000000000E+00  0.19829016949E+04  0.19829016949E+04  0.00000000000E+00 0.  1.
         21   -1    0    0  501  502 -0.00000000000E+00 -0.00000000000E+00 -0.45214740366E+02  0.45214740366E+02  0.00000000000E+00 0.  1.
         25    1    1    2    0    0 -0.76869990695E+02  0.22829068194E+03  0.48652150940E+03  0.55709407647E+03  0.12500000000E+03 0.  0.
         21    1    1    2  503  502  0.76869990695E+02 -0.22829068194E+03  0.14511654451E+04  0.14710223588E+04  0.00000000000E+00 0.  1.
<mgrwt>
<rscale>  3 0.27138650E+03</rscale>
<asrwt>0</asrwt>
<pdfrwt beam="1">  1       21 0.30506173E+00 0.27138650E+03</pdfrwt>
<pdfrwt beam="2">  1       21 0.69561154E-02 0.27138650E+03</pdfrwt>
<totfact> 0.45130254E+03</totfact>
</mgrwt>
</event>
<event>
 4    0  0.1495377E-001  0.2865853E+03  0.7546771E-02  0.1092146E+00
         21   -1    0    0  502  501  0.00000000000E+00  0.00000000000E+00  0.25867933493E+03  0.25867933493E+03  0.00000000000E+00 0. -1.
         21   -1    0    0  503  502 -0.00000000000E+00 -0.00000000000E+00 -0.28756500965E+03  0.28756500965E+03  0.00000000000E+00 0. -1.
         25    1    1    2    0    0  0.91754019365E+01  0.25772454939E+03 -0.31765930839E+02  0.28834043373E+03  0.12500000000E+03 0.  0.
         21    1    1    2  503  501 -0.91754019365E+01 -0.25772454939E+03  0.28802561261E+01  0.25790391086E+03  0.00000000000E+00 0. -1.
<mgrwt>
<rscale>  3 0.28658530E+03</rscale>
<asrwt>0</asrwt>
<pdfrwt beam="1">  1       21 0.39796820E-01 0.28658530E+03</pdfrwt>
<pdfrwt beam="2">  1       21 0.44240771E-01 0.28658530E+03</pdfrwt>
<totfact> 0.28575558E+04</totfact>
</mgrwt>
</event>
<event>
 4    0  0.1495377E-001  0.2823687E+03  0.7546771E-02  0.1094402E+00
         21   -1    0    0  502  501  0.00000000000E+00  0.00000000000E+00  0.47508618193E+03  0.47508618193E+03  0.00000000000E+00 0. -1.
         21   -1    0    0  503  502 -0.00000000000E+00 -0.00000000000E+00 -0.16468938651E+03  0.16468938651E+03  0.00000000000E+00 0. -1.
         25    1    1    2    0    0  0.17596557985E+02 -0.25258152247E+03  0.70624550092E+02  0.29106681608E+03  0.12500000000E+03 0.  0.
         21    1    1    2  503  501 -0.17596557985E+02  0.25258152247E+03  0.23977224532E+03  0.34870875236E+03  0.00000000000E+00 0. -1.
<mgrwt>
<rscale>  3 0.28236867E+03</rscale>
<asrwt>0</asrwt>
<pdfrwt beam="1">  1       21 0.73090181E-01 0.28236867E+03</pdfrwt>
<pdfrwt beam="2">  1       21 0.25336829E-01 0.28236867E+03</pdfrwt>
<totfact> 0.23776986E+04</totfact>
</mgrwt>
</event>
<event>
 4    0  0.1495377E-001  0.3030775E+03  0.7546771E-02  0.1083712E+00
         21   -1    0    0  502  501  0.00000000000E+00  0.00000000000E+00  0.33059010575E+03  0.33059010575E+03  0.00000000000E+00 0.  1.
         21   -1    0    0  503  502 -0.00000000000E+00 -0.00000000000E+00 -0.53668765645E+03  0.53668765645E+03  0.00000000000E+00 0.  1.
         25    1    1    2    0    0  0.15488526699E+03 -0.22856406947E+03 -0.42005590195E+03  0.51797967195E+03  0.12500000000E+03 0.  0.
         21    1    1    2  503  501 -0.15488526699E+03  0.22856406947E+03  0.21395835126E+03  0.34929809026E+03  0.00000000000E+00 0.  1.
<mgrwt>
<rscale>  3 0.30307751E+03</rscale>
<asrwt>0</asrwt>
<pdfrwt beam="1">  1       21 0.50860017E-01 0.30307751E+03</pdfrwt>
<pdfrwt beam="2">  1       21 0.82567331E-01 0.30307751E+03</pdfrwt>
<totfact> 0.43841912E+03</totfact>
</mgrwt>
</event>
<event>
 4    0  0.1495377E-001  0.2889825E+03  0.7546771E-02  0.1090882E+00
         21   -1    0    0  503  501  0.00000000000E+00  0.00000000000E+00  0.17601798857E+03  0.17601798857E+03  0.00000000000E+00 0. -1.
         21   -1    0    0  501  502 -0.00000000000E+00 -0.00000000000E+00 -0.69166085810E+03  0.69166085810E+03  0.00000000000E+00 0. -1.
         25    1    1    2    0    0  0.24319067542E+03 -0.93510351605E+02  0.10787484763E+01  0.28898452236E+03  0.12500000000E+03 0.  0.
         21    1    1    2  503  502 -0.24319067542E+03  0.93510351605E+02 -0.51672161800E+03  0.57869432430E+03  0.00000000000E+00 0. -1.
<mgrwt>
<rscale>  3 0.28898251E+03</rscale>
<asrwt>0</asrwt>
<pdfrwt beam="1">  1       21 0.27079691E-01 0.28898251E+03</pdfrwt>
<pdfrwt beam="2">  1       21 0.10640936E+00 0.28898251E+03</pdfrwt>
<totfact> 0.86730346E+03</totfact>
</mgrwt>
</event>
<event>
 4    0  0.1495377E-001  0.2810330E+03  0.7546771E-02  0.1095126E+00
         21   -1    0    0  503  501  0.00000000000E+00  0.00000000000E+00  0.42967247485E+03  0.42967247485E+03  0.00000000000E+00 0.  1.
         21   -1    0    0  501  502 -0.00000000000E+00 -0.00000000000E+00 -0.16544866208E+03  0.16544866208E+03  0.00000000000E+00 0.  1.
         25    1    1    2    0    0  0.19677447570E+03  0.15695327157E+03  0.12633925395E+03  0.30812518695E+03  0.12500000000E+03 0.  0.
         21    1    1    2  503  502 -0.19677447570E+03 -0.15695327157E+03  0.13788455882E+03  0.28699594998E+03  0.00000000000E+00 0.  1.
<mgrwt>
<rscale>  3 0.28103296E+03</rscale>
<asrwt>0</asrwt>
<pdfrwt beam="1">  1       21 0.66103457E-01 0.28103296E+03</pdfrwt>
<pdfrwt beam="2">  1       21 0.25453641E-01 0.28103296E+03</pdfrwt>
<totfact> 0.29483550E+04</totfact>
</mgrwt>
</event>
<event>
 4    0  0.1495377E-001  0.2846991E+03  0.7546771E-02  0.1093150E+00
         21   -1    0    0  502  501  0.00000000000E+00  0.00000000000E+00  0.63999579693E+02  0.63999579693E+02  0.00000000000E+00 0.  1.
         21   -1    0    0  503  502 -0.00000000000E+00 -0.00000000000E+00 -0.12078703528E+04  0.12078703528E+04  0.00000000000E+00 0.  1.
         25    1    1    2    0    0 -0.12278439820E+03  0.22439382760E+03 -0.75011304740E+03  0.80232361438E+03  0.12500000000E+03 0.  0.
         21    1    1    2  503  501  0.12278439820E+03 -0.22439382760E+03 -0.39375772572E+03  0.46954631813E+03  0.00000000000E+00 0.  1.
<mgrwt>
<rscale>  3 0.28469914E+03</rscale>
<asrwt>0</asrwt>
<pdfrwt beam="1">  1       21 0.98460898E-02 0.28469914E+03</pdfrwt>
<pdfrwt beam="2">  1       21 0.18582620E+00 0.28469914E+03</pdfrwt>
<totfact> 0.13048791E+04</totfact>
</mgrwt>
</event>
<event>
 4    0  0.1495377E-001  0.3759177E+03  0.7546771E-02  0.1052453E+00
         21   -1    0    0  503  501  0.00000000000E+00  0.00000000000E+00  0.19895115293E+04  0.19895115293E+04  0.00000000000E+00 0. -1.
         21   -1    0    0  501  502 -0.00000000000E+00 -0.00000000000E+00 -0.18611913402E+03  0.18611913402E+03  0.00000000000E+00 0.  1.
         25    1    1    2    0    0  0.34847383360E+03  0.65230934672E+02  0.41245151120E+02  0.37817357131E+03  0.12500000000E+03 0.  0.
         21    1    1    2  503  502 -0.34847383360E+03 -0.65230934672E+02  0.17621472442E+04  0.17974570920E+04  0.00000000000E+00 0. -1.
<mgrwt>
<rscale>  3 0.37591766E+03</rscale>
<asrwt>0</asrwt>
<pdfrwt beam="1">  1       21 0.30607868E+00 0.37591766E+03</pdfrwt>
<pdfrwt beam="2">  1       21 0.28633714E-01 0.37591766E+03</pdfrwt>
<totfact> 0.30384871E+02</totfact>
</mgrwt>
</event>
<event>
 4    0  0.1495377E-001  0.3417961E+03  0.7546771E-02  0.1066034E+00
         21   -1    0    0  502  501  0.00000000000E+00  0.00000000000E+00  0.28418032783E+03  0.28418032783E+03  0.00000000000E+00 0. -1.
         21   -1    0    0  503  502 -0.00000000000E+00 -0.00000000000E+00 -0.39093336559E+03  0.39093336559E+03  0.00000000000E+00 0. -1.
         25    1    1    2    0    0 -0.23063598479E+03  0.21910406429E+03 -0.75267218117E+01  0.34187892595E+03  0.12500000000E+03 0.  0.
         21    1    1    2  503  501  0.23063598479E+03 -0.21910406429E+03 -0.99226315954E+02  0.33323476746E+03  0.00000000000E+00 0. -1.
<mgrwt>
<rscale>  3 0.34179606E+03</rscale>
<asrwt>0</asrwt>
<pdfrwt beam="1">  1       21 0.43720050E-01 0.34179606E+03</pdfrwt>
<pdfrwt beam="2">  1       21 0.60143595E-01 0.34179606E+03</pdfrwt>
<totfact> 0.12020497E+04</totfact>
</mgrwt>
</event>
<event>
 4    0  0.1495377E-001  0.2894863E+03  0.7546771E-02  0.1090618E+00
         21   -1    0    0  503  501  0.00000000000E+00  0.00000000000E+00  0.84992032715E+03  0.84992032715E+03  0.00000000000E+00 0.  1.
         21   -1    0    0  501  502 -0.00000000000E+00 -0.00000000000E+00 -0.16302507872E+03  0.16302507872E+03  0.00000000000E+00 0. -1.
         25    1    1    2    0    0  0.16537421140E+03  0.20206107874E+03  0.12487090789E+02  0.28975547755E+03  0.12500000000E+03 0.  0.
         21    1    1    2  503  502 -0.16537421140E+03 -0.20206107874E+03  0.67440815764E+03  0.72318992832E+03  0.00000000000E+00 0.  1.
<mgrwt>
<rscale>  3 0.28948629E+03</rscale>
<asrwt>0</asrwt>
<pdfrwt beam="1">  1       21 0.13075697E+00 0.28948629E+03</pdfrwt>
<pdfrwt beam="2">  1       21 0.25080782E-01 0.28948629E+03</pdfrwt>
<totfact> 0.60151661E+03</totfact>
</mgrwt>
</event>
<event>
 4    0  0.1495377E-001  0.2833078E+03  0.7546771E-02  0.1093896E+00
         21   -1    0    0  502  501  0.00000000000E+00  0.00000000000E+00  0.23220547693E+03  0.23220547693E+03  0.00000000000E+00 0.  1.
         21   -1    0    0  503  502 -0.00000000000E+00 -0.00000000000E+00 -0.10847172768E+04  0.10847172768E+04  0.00000000000E+00 0.  1.
         25    1    1    2    0    0  0.24010950716E+03  0.83580574267E+02 -0.98870983965E+03  0.10284991176E+04  0.12500000000E+03 0.  0.
         21    1    1    2  503  501 -0.24010950716E+03 -0.83580574267E+02  0.13619803982E+03  0.28842363612E+03  0.00000000000E+00 0.  1.
<mgrwt>
<rscale>  3 0.28330776E+03</rscale>
<asrwt>0</asrwt>
<pdfrwt beam="1">  1       21 0.35723920E-01 0.28330776E+03</pdfrwt>
<pdfrwt beam="2">  1       21 0.16687958E+00 0.28330776E+03</pdfrwt>
<totfact> 0.15715809E+03</totfact>
</mgrwt>
</event>
<event>
 4    0  0.1495377E-001  0.3314569E+03  0.7546771E-02  0.1070494E+00
         21   -1    0    0  502  501  0.00000000000E+00  0.00000000000E+00  0.38844351387E+03  0.38844351387E+03  0.00000000000E+00 0. -1.
         21   -1    0    0  503  502 -0.00000000000E+00 -0.00000000000E+00 -0.31525188552E+03  0.31525188552E+03  0.00000000000E+00 0. -1.
         25    1    1    2    0    0 -0.16496480930E+03  0.25889236382E+03 -0.10630467976E+03  0.34808666922E+03  0.12500000000E+03 0.  0.
         21    1    1    2  503  501  0.16496480930E+03 -0.25889236382E+03  0.17949630811E+03  0.35560873017E+03  0.00000000000E+00 0. -1.
<mgrwt>
<rscale>  3 0.33145685E+03</rscale>
<asrwt>0</asrwt>
<pdfrwt beam="1">  1       21 0.59760541E-01 0.33145685E+03</pdfrwt>
<pdfrwt beam="2">  1       21 0.48500290E-01 0.33145685E+03</pdfrwt>
<totfact> 0.98545138E+03</totfact>
</mgrwt>
</event>
<event>
 4    0  0.1495377E-001  0.2383053E+03  0.7546771E-02  0.1120927E+00
         21   -1    0    0  503  501  0.00000000000E+00  0.00000000000E+00  0.23296067443E+03  0.23296067443E+03  0.00000000000E+00 0.  1.
         21   -1    0    0  501  502 -0.00000000000E+00 -0.00000000000E+00 -0.90556690337E+03  0.90556690337E+03  0.00000000000E+00 0.  1.
         25    1    1    2    0    0 -0.18528732974E+03  0.82662232604E+02 -0.84146722915E+03  0.87456076804E+03  0.12500000000E+03 0.  0.
         21    1    1    2  503  502  0.18528732974E+03 -0.82662232604E+02  0.16886100021E+03  0.26396680976E+03  0.00000000000E+00 0.  1.
<mgrwt>
<rscale>  3 0.23830535E+03</rscale>
<asrwt>0</asrwt>
<pdfrwt beam="1">  1       21 0.35840104E-01 0.23830535E+03</pdfrwt>
<pdfrwt beam="2">  1       21 0.13931799E+00 0.23830535E+03</pdfrwt>
<totfact> 0.26181585E+03</totfact>
</mgrwt>
</event>
<event>
 4    0  0.1495377E-001  0.2923702E+03  0.7546771E-02  0.1089118E+00
         21   -1    0    0  502  501  0.00000000000E+00  0.00000000000E+00  0.18886478956E+04  0.18886478956E+04  0.00000000000E+00 0. -1.
         21   -1    0    0  503  502 -0.00000000000E+00 -0.00000000000E+00 -0.82697314970E+02  0.82697314970E+02  0.00000000000E+00 0. -1.
         25    1    1    2    0    0  0.15213429244E+02  0.26386339632E+03  0.22625354334E+03  0.36969041944E+03  0.12500000000E+03 0.  0.
         21    1    1    2  503  501 -0.15213429244E+02 -0.26386339632E+03  0.15796970372E+04  0.16016547911E+04  0.00000000000E+00 0. -1.
<mgrwt>
<rscale>  3 0.29237021E+03</rscale>
<asrwt>0</asrwt>
<pdfrwt beam="1">  1       21 0.29056118E+00 0.29237021E+03</pdfrwt>
<pdfrwt beam="2">  1       21 0.12722665E-01 0.29237021E+03</pdfrwt>
<totfact> 0.18482688E+03</totfact>
</mgrwt>
</event>
<event>
 4    0  0.1495377E-001  0.2606312E+03  0.7546771E-02  0.1106765E+00
         21   -1    0    0  503  501  0.00000000000E+00  0.00000000000E+00  0.26353745905E+04  0.26353745905E+04  0.00000000000E+00 0. -1.
         21   -1    0    0  501  502 -0.00000000000E+00 -0.00000000000E+00 -0.33655251702E+02  0.33655251702E+02  0.00000000000E+00 0. -1.
         25    1    1    2    0    0 -0.19061446216E+03 -0.12637156909E+03  0.59835861972E+03  0.65265740205E+03  0.12500000000E+03 0.  0.
         21    1    1    2  503  502  0.19061446216E+03  0.12637156909E+03  0.20033607191E+04  0.20163724402E+04  0.00000000000E+00 0. -1.
<mgrwt>
<rscale>  3 0.26063125E+03</rscale>
<asrwt>0</asrwt>
<pdfrwt beam="1">  1       21 0.40544208E+00 0.26063125E+03</pdfrwt>
<pdfrwt beam="2">  1       21 0.51777331E-02 0.26063125E+03</pdfrwt>
<totfact> 0.18746338E+03</totfact>
</mgrwt>
</event>
<event>
 4    0  0.1495377E-001  0.2558499E+03  0.7546771E-02  0.1109663E+00
         21   -1    0    0  502  501  0.00000000000E+00  0.00000000000E+00  0.30340874384E+02  0.30340874384E+02  0.00000000000E+00 0.  1.
         21   -1    0    0  503  502 -0.00000000000E+00 -0.00000000000E+00 -0.22540680384E+04  0.22540680384E+04  0.00000000000E+00 0.  1.
         25    1    1    2    0    0 -0.20567062635E+03  0.86797219160E+02 -0.16327603209E+04  0.16526843102E+04  0.12500000000E+03 0.  0.
         21    1    1    2  503  501  0.20567062635E+03 -0.86797219160E+02 -0.59096684310E+03  0.63172460253E+03  0.00000000000E+00 0.  1.
<mgrwt>
<rscale>  3 0.25584989E+03</rscale>
<asrwt>0</asrwt>
<pdfrwt beam="1">  1       21 0.46678260E-02 0.25584989E+03</pdfrwt>
<pdfrwt beam="2">  1       21 0.34677976E+00 0.25584989E+03</pdfrwt>
<totfact> 0.51517325E+03</totfact>
</mgrwt>
</event>
<event>
 4    0  0.1495377E-001  0.2459243E+03  0.7546771E-02  0.1115908E+00
         21   -1    0    0  503  501  0.00000000000E+00  0.00000000000E+00  0.28019341111E+03  0.28019341111E+03  0.00000000000E+00 0. -1.
         21   -1    0    0  501  502 -0.00000000000E+00 -0.00000000000E+00 -0.30418075517E+03  0.30418075517E+03  0.00000000000E+00 0. -1.
         25    1    1    2    0    0 -0.19609779893E+03 -0.79996469901E+02 -0.19364404391E+03  0.31301245612E+03  0.12500000000E+03 0.  0.
         21    1    1    2  503  502  0.19609779893E+03  0.79996469901E+02  0.16965669985E+03  0.27136171017E+03  0.00000000000E+00 0. -1.
<mgrwt>
<rscale>  3 0.24592434E+03</rscale>
<asrwt>0</asrwt>
<pdfrwt beam="1">  1       21 0.43106679E-01 0.24592434E+03</pdfrwt>
<pdfrwt beam="2">  1       21 0.46797039E-01 0.24592434E+03</pdfrwt>
<totfact> 0.21980578E+04</totfact>
</mgrwt>
</event>
<event>
 4    0  0.1495377E-001  0.2726931E+03  0.7546771E-02  0.1099748E+00
         21   -1    0    0  503  501  0.00000000000E+00  0.00000000000E+00  0.75322537569E+03  0.75322537569E+03  0.00000000000E+00 0.  1.
         21   -1    0    0  501  502 -0.00000000000E+00 -0.00000000000E+00 -0.11894798943E+03  0.11894798943E+03  0.00000000000E+00 0.  1.
         25    1    1    2    0    0  0.72922052534E+02 -0.23112529748E+03  0.10898007633E+03  0.29366338879E+03  0.12500000000E+03 0.  0.
         21    1    1    2  503  502 -0.72922052534E+02  0.23112529748E+03  0.52529730994E+03  0.57850997633E+03  0.00000000000E+00 0.  1.
<mgrwt>
<rscale>  3 0.27269310E+03</rscale>
<asrwt>0</asrwt>
<pdfrwt beam="1">  1       21 0.11588082E+00 0.27269310E+03</pdfrwt>
<pdfrwt beam="2">  1       21 0.18299691E-01 0.27269310E+03</pdfrwt>
<totfact> 0.14961035E+04</totfact>
</mgrwt>
</event>
<event>
 4    0  0.1495377E-001  0.3968461E+03  0.7546771E-02  0.1044877E+00
         21   -1    0    0  502  501  0.00000000000E+00  0.00000000000E+00  0.12334167571E+03  0.12334167571E+03  0.00000000000E+00 0. -1.
         21   -1    0    0  503  502 -0.00000000000E+00 -0.00000000000E+00 -0.15099255220E+04  0.15099255220E+04  0.00000000000E+00 0. -1.
         25    1    1    2    0    0  0.12477790537E+03 -0.35537629586E+03 -0.10700748109E+04  0.11412917849E+04  0.12500000000E+03 0.  0.
         21    1    1    2  503  501 -0.12477790537E+03  0.35537629586E+03 -0.31650903535E+03  0.49197541279E+03  0.00000000000E+00 0. -1.
<mgrwt>
<rscale>  3 0.39684611E+03</rscale>
<asrwt>0</asrwt>
<pdfrwt beam="1">  1       21 0.18975643E-01 0.39684611E+03</pdfrwt>
<pdfrwt beam="2">  1       21 0.23229623E+00 0.39684611E+03</pdfrwt>
<totfact> 0.18490032E+03</totfact>
</mgrwt>
</event>
<event>
 4    0  0.1495377E-001  0.2361437E+03  0.7546771E-02  0.1122389E+00
         21   -1    0    0  502  501  0.00000000000E+00  0.00000000000E+00  0.43872753381E+02  0.43872753381E+02  0.00000000000E+00 0.  1.
         21   -1    0    0  503  502 -0.00000000000E+00 -0.00000000000E+00 -0.20672240384E+04  0.20672240384E+04  0.00000000000E+00 0. -1.
         25    1    1    2    0    0 -0.12098948636E+03 -0.15968842152E+03 -0.17813126476E+04  0.17968969354E+04  0.12500000000E+03 0.  0.
         21    1    1    2  503  501  0.12098948636E+03  0.15968842152E+03 -0.24203863744E+03  0.31419985645E+03  0.00000000000E+00 0.  1.
<mgrwt>
<rscale>  3 0.23614370E+03</rscale>
<asrwt>0</asrwt>
<pdfrwt beam="1">  1       21 0.67496560E-02 0.23614370E+03</pdfrwt>
<pdfrwt beam="2">  1       21 0.31803439E+00 0.23614370E+03</pdfrwt>
<totfact> 0.41222564E+03</totfact>
</mgrwt>
</event>
<event>
 4    0  0.1495377E-001  0.2537295E+03  0.7546771E-02  0.1110970E+00
         21   -1    0    0  502  501  0.00000000000E+00  0.00000000000E+00  0.11948237078E+03  0.11948237078E+03  0.00000000000E+00 0.  1.
         21   -1    0    0  503  502 -0.00000000000E+00 -0.00000000000E+00 -0.64444315888E+03  0.64444315888E+03  0.00000000000E+00 0.  1.
         25    1    1    2    0    0 -0.14921842421E+03  0.16274989141E+03 -0.47351287927E+03  0.53720862997E+03  0.12500000000E+03 0.  0.
         21    1    1    2  503  501  0.14921842421E+03 -0.16274989141E+03 -0.51447908826E+02  0.22671689968E+03  0.00000000000E+00 0.  1.
<mgrwt>
<rscale>  3 0.25372951E+03</rscale>
<asrwt>0</asrwt>
<pdfrwt beam="1">  1       21 0.18381903E-01 0.25372951E+03</pdfrwt>
<pdfrwt beam="2">  1       21 0.99145102E-01 0.25372951E+03</pdfrwt>
<totfact> 0.21879480E+04</totfact>
</mgrwt>
</event>
<event>
 4    0  0.1495377E-001  0.2711041E+03  0.7546771E-02  0.1100649E+00
         21   -1    0    0  502  501  0.00000000000E+00  0.00000000000E+00  0.21255449233E+03  0.21255449233E+03  0.00000000000E+00 0.  1.
         21   -1    0    0  503  502 -0.00000000000E+00 -0.00000000000E+00 -0.77501123841E+03  0.77501123841E+03  0.00000000000E+00 0.  1.
         25    1    1    2    0    0  0.20882178847E+03  0.11943991586E+03 -0.67096070231E+03  0.72366131366E+03  0.12500000000E+03 0.  0.
         21    1    1    2  503  501 -0.20882178847E+03 -0.11943991586E+03  0.10850395623E+03  0.26390441709E+03  0.00000000000E+00 0.  1.
<mgrwt>
<rscale>  3 0.27110410E+03</rscale>
<asrwt>0</asrwt>
<pdfrwt beam="1">  1       21 0.32700692E-01 0.27110410E+03</pdfrwt>
<pdfrwt beam="2">  1       21 0.11923250E+00 0.27110410E+03</pdfrwt>
<totfact> 0.45700220E+03</totfact>
</mgrwt>
</event>
<event>
 4    0  0.1495377E-001  0.2382121E+03  0.7546771E-02  0.1120990E+00
         21   -1    0    0  502  501  0.00000000000E+00  0.00000000000E+00  0.16408678661E+04  0.16408678661E+04  0.00000000000E+00 0. -1.
         21   -1    0    0  503  502 -0.00000000000E+00 -0.00000000000E+00 -0.12328384201E+03  0.12328384201E+03  0.00000000000E+00 0. -1.
         25    1    1    2    0    0  0.20252822485E+03  0.10114671935E+02  0.52361144461E+01  0.23826960642E+03  0.12500000000E+03 0.  0.
         21    1    1    2  503  501 -0.20252822485E+03 -0.10114671935E+02  0.15123479097E+04  0.15258821017E+04  0.00000000000E+00 0. -1.
<mgrwt>
<rscale>  3 0.23821207E+03</rscale>
<asrwt>0</asrwt>
<pdfrwt beam="1">  1       21 0.25244119E+00 0.23821207E+03</pdfrwt>
<pdfrwt beam="2">  1       21 0.18966746E-01 0.23821207E+03</pdfrwt>
<totfact> 0.15606037E+03</totfact>
</mgrwt>
</event>
<event>
 4    0  0.1495377E-001  0.3653429E+03  0.7546771E-02  0.1056488E+00
         21   -1    0    0  503  501  0.00000000000E+00  0.00000000000E+00  0.83938073274E+02  0.83938073274E+02  0.00000000000E+00 0. -1.
         21   -1    0    0  501  502 -0.00000000000E+00 -0.00000000000E+00 -0.18893014317E+04  0.18893014317E+04  0.00000000000E+00 0.  1.
         25    1    1    2    0    0  0.23117329492E+01  0.34328572905E+03 -0.13751030366E+04  0.14228084190E+04  0.12500000000E+03 0.  0.
         21    1    1    2  503  502 -0.23117329492E+01 -0.34328572905E+03 -0.43026032183E+03  0.55043108599E+03  0.00000000000E+00 0. -1.
<mgrwt>
<rscale>  3 0.36534290E+03</rscale>
<asrwt>0</asrwt>
<pdfrwt beam="1">  1       21 0.12913550E-01 0.36534290E+03</pdfrwt>
<pdfrwt beam="2">  1       21 0.29066176E+00 0.36534290E+03</pdfrwt>
<totfact> 0.17047180E+03</totfact>
</mgrwt>
</event>
<event>
 4    0  0.1495377E-001  0.3556834E+03  0.7546771E-02  0.1060306E+00
         21   -1    0    0  503  501  0.00000000000E+00  0.00000000000E+00  0.22977400933E+03  0.22977400933E+03  0.00000000000E+00 0.  1.
         21   -1    0    0  501  502 -0.00000000000E+00 -0.00000000000E+00 -0.11383579026E+04  0.11383579026E+04  0.00000000000E+00 0. -1.
         25    1    1    2    0    0  0.11586074695E+03 -0.31218899231E+03 -0.96674099665E+03  0.10300965169E+04  0.12500000000E+03 0.  0.
         21    1    1    2  503  502 -0.11586074695E+03  0.31218899231E+03  0.58157103374E+02  0.33803539500E+03  0.00000000000E+00 0.  1.
<mgrwt>
<rscale>  3 0.35568340E+03</rscale>
<asrwt>0</asrwt>
<pdfrwt beam="1">  1       21 0.35349847E-01 0.35568340E+03</pdfrwt>
<pdfrwt beam="2">  1       21 0.17513199E+00 0.35568340E+03</pdfrwt>
<totfact> 0.13399741E+03</totfact>
</mgrwt>
</event>
<event>
 4    0  0.1495377E-001  0.5339000E+03  0.7546771E-02  0.1005291E+00
         21   -1    0    0  503  501  0.00000000000E+00  0.00000000000E+00  0.89982325204E+02  0.89982325204E+02  0.00000000000E+00 0.  1.
         21   -1    0    0  501  502 -0.00000000000E+00 -0.00000000000E+00 -0.30804122951E+04  0.30804122951E+04  0.00000000000E+00 0.  1.
         25    1    1    2    0    0 -0.20623092814E+03  0.47633290629E+03 -0.15133102646E+04  0.16047296315E+04  0.12500000000E+03 0.  0.
         21    1    1    2  503  502  0.20623092814E+03 -0.47633290629E+03 -0.14771197053E+04  0.15656649888E+04  0.00000000000E+00 0.  1.
<mgrwt>
<rscale>  3 0.53390002E+03</rscale>
<asrwt>0</asrwt>
<pdfrwt beam="1">  1       21 0.13843437E-01 0.53390002E+03</pdfrwt>
<pdfrwt beam="2">  1       21 0.47390951E+00 0.53390002E+03</pdfrwt>
<totfact> 0.92444390E+01</totfact>
</mgrwt>
</event>
<event>
 4    0  0.1495377E-001  0.3735479E+03  0.7546771E-02  0.1053345E+00
         21   -1    0    0  502  501  0.00000000000E+00  0.00000000000E+00  0.21898546911E+04  0.21898546911E+04  0.00000000000E+00 0.  1.
         21   -1    0    0  503  502 -0.00000000000E+00 -0.00000000000E+00 -0.61383216557E+02  0.61383216557E+02  0.00000000000E+00 0.  1.
         25    1    1    2    0    0  0.24612904401E+03 -0.25166146160E+03  0.93246373114E+03  0.10045031645E+04  0.12500000000E+03 0.  0.
         21    1    1    2  503  501 -0.24612904401E+03  0.25166146160E+03  0.11960077434E+04  0.12467347432E+04  0.00000000000E+00 0.  1.
<mgrwt>
<rscale>  3 0.37354785E+03</rscale>
<asrwt>0</asrwt>
<pdfrwt beam="1">  1       21 0.33690066E+00 0.37354785E+03</pdfrwt>
<pdfrwt beam="2">  1       21 0.94435735E-02 0.37354785E+03</pdfrwt>
<totfact> 0.15780479E+03</totfact>
</mgrwt>
</event>
<event>
 4    0  0.1495377E-001  0.2491558E+03  0.7546771E-02  0.1113839E+00
         21   -1    0    0  502  501  0.00000000000E+00  0.00000000000E+00  0.30755760384E+03  0.30755760384E+03  0.00000000000E+00 0. -1.
         21   -1    0    0  503  502 -0.00000000000E+00 -0.00000000000E+00 -0.13127758285E+04  0.13127758285E+04  0.00000000000E+00 0.  1.
         25    1    1    2    0    0  0.20153160086E+03  0.76411001074E+02 -0.12612707182E+04  0.12856447611E+04  0.12500000000E+03 0.  0.
         21    1    1    2  503  501 -0.20153160086E+03 -0.76411001074E+02  0.25605249351E+03  0.33468867125E+03  0.00000000000E+00 0. -1.
<mgrwt>
<rscale>  3 0.24915583E+03</rscale>
<asrwt>0</asrwt>
<pdfrwt beam="1">  1       21 0.47316554E-01 0.24915583E+03</pdfrwt>
<pdfrwt beam="2">  1       21 0.20196551E+00 0.24915583E+03</pdfrwt>
<totfact> 0.52442387E+02</totfact>
</mgrwt>
</event>
<event>
 4    0  0.1495377E-001  0.3365292E+03  0.7546771E-02  0.1068284E+00
         21   -1    0    0  503  501  0.00000000000E+00  0.00000000000E+00  0.11855822195E+04  0.11855822195E+04  0.00000000000E+00 0.  1.
         21   -1    0    0  501  502 -0.00000000000E+00 -0.00000000000E+00 -0.14642285707E+03  0.14642285707E+03  0.00000000000E+00 0.  1.
         25    1    1    2    0    0  0.26925376325E+03  0.15852224852E+03  0.11369041852E+03  0.35521458805E+03  0.12500000000E+03 0.  0.
         21    1    1    2  503  502 -0.26925376325E+03 -0.15852224852E+03  0.92546894388E+03  0.97679048848E+03  0.00000000000E+00 0.  1.
<mgrwt>
<rscale>  3 0.33652918E+03</rscale>
<asrwt>0</asrwt>
<pdfrwt beam="1">  1       21 0.18239726E+00 0.33652918E+03</pdfrwt>
<pdfrwt beam="2">  1       21 0.22526594E-01 0.33652918E+03</pdfrwt>
<totfact> 0.29159563E+03</totfact>
</mgrwt>
</event>
<event>
 4    0  0.1495377E-001  0.2707632E+03  0.7546771E-02  0.1100844E+00
         21   -1    0    0  503  501  0.00000000000E+00  0.00000000000E+00  0.37257675492E+03  0.37257675492E+03  0.00000000000E+00 0. -1.
         21   -1    0    0  501  502 -0.00000000000E+00 -0.00000000000E+00 -0.28859560298E+03  0.28859560298E+03  0.00000000000E+00 0. -1.
         25    1    1    2    0    0  0.95204662542E+02  0.22050806070E+03  0.25053570635E+03  0.36889141053E+03  0.12500000000E+03 0.  0.
         21    1    1    2  503  502 -0.95204662542E+02 -0.22050806070E+03 -0.16655455441E+03  0.29228094737E+03  0.00000000000E+00 0. -1.
<mgrwt>
<rscale>  3 0.27076324E+03</rscale>
<asrwt>0</asrwt>
<pdfrwt beam="1">  1       21 0.57319501E-01 0.27076324E+03</pdfrwt>
<pdfrwt beam="2">  1       21 0.44399323E-01 0.27076324E+03</pdfrwt>
<totfact> 0.13317225E+04</totfact>
</mgrwt>
</event>
<event>
 4    0  0.1495377E-001  0.3412592E+03  0.7546771E-02  0.1066261E+00
         21   -1    0    0  502  501  0.00000000000E+00  0.00000000000E+00  0.43984399832E+03  0.43984399832E+03  0.00000000000E+00 0. -1.
         21   -1    0    0  503  502 -0.00000000000E+00 -0.00000000000E+00 -0.24683409629E+03  0.24683409629E+03  0.00000000000E+00 0. -1.
         25    1    1    2    0    0  0.31056741683E+03  0.66186954812E+02  0.91660147406E+02  0.35335451887E+03  0.12500000000E+03 0.  0.
         21    1    1    2  503  501 -0.31056741683E+03 -0.66186954812E+02  0.10134975462E+03  0.33332357575E+03  0.00000000000E+00 0. -1.
<mgrwt>
<rscale>  3 0.34125919E+03</rscale>
<asrwt>0</asrwt>
<pdfrwt beam="1">  1       21 0.67668308E-01 0.34125919E+03</pdfrwt>
<pdfrwt beam="2">  1       21 0.37974476E-01 0.34125919E+03</pdfrwt>
<totfact> 0.12386819E+04</totfact>
</mgrwt>
</event>
<event>
 4    0  0.1495377E-001  0.2479837E+03  0.7546771E-02  0.1114586E+00
         21   -1    0    0  502  501  0.00000000000E+00  0.00000000000E+00  0.77351619687E+02  0.77351619687E+02  0.00000000000E+00 0. -1.
         21   -1    0    0  503  502 -0.00000000000E+00 -0.00000000000E+00 -0.69083867467E+03  0.69083867467E+03  0.00000000000E+00 0. -1.
         25    1    1    2    0    0  0.18479178223E+03 -0.10827234175E+03 -0.33962651479E+03  0.42052594726E+03  0.12500000000E+03 0.  0.
         21    1    1    2  503  501 -0.18479178223E+03  0.10827234175E+03 -0.27386054019E+03  0.34766434710E+03  0.00000000000E+00 0. -1.
<mgrwt>
<rscale>  3 0.24798367E+03</rscale>
<asrwt>0</asrwt>
<pdfrwt beam="1">  1       21 0.11900249E-01 0.24798367E+03</pdfrwt>
<pdfrwt beam="2">  1       21 0.10628288E+00 0.24798367E+03</pdfrwt>
<totfact> 0.41124774E+04</totfact>
</mgrwt>
</event>
<event>
 4    0  0.1495377E-001  0.3505429E+03  0.7546771E-02  0.1062392E+00
         21   -1    0    0  502  501  0.00000000000E+00  0.00000000000E+00  0.31144950343E+03  0.31144950343E+03  0.00000000000E+00 0.  1.
         21   -1    0    0  503  502 -0.00000000000E+00 -0.00000000000E+00 -0.64179674526E+03  0.64179674526E+03  0.00000000000E+00 0.  1.
         25    1    1    2    0    0  0.20470863894E+03 -0.25563590352E+03 -0.47901873362E+03  0.59358174600E+03  0.12500000000E+03 0.  0.
         21    1    1    2  503  501 -0.20470863894E+03  0.25563590352E+03  0.14867149178E+03  0.35966450269E+03  0.00000000000E+00 0.  1.
<mgrwt>
<rscale>  3 0.35054292E+03</rscale>
<asrwt>0</asrwt>
<pdfrwt beam="1">  1       21 0.47915309E-01 0.35054292E+03</pdfrwt>
<pdfrwt beam="2">  1       21 0.98737960E-01 0.35054292E+03</pdfrwt>
<totfact> 0.31900549E+03</totfact>
</mgrwt>
</event>
<event>
 4    0  0.1495377E-001  0.2850121E+03  0.7546771E-02  0.1092983E+00
         21   -1    0    0  503  501  0.00000000000E+00  0.00000000000E+00  0.31626236004E+03  0.31626236004E+03  0.00000000000E+00 0.  1.
         21   -1    0    0  501  502 -0.00000000000E+00 -0.00000000000E+00 -0.51835674799E+03  0.51835674799E+03  0.00000000000E+00 0.  1.
         25    1    1    2    0    0  0.13763766280E+03  0.21601564125E+03 -0.41370312706E+03  0.50237651301E+03  0.12500000000E+03 0.  0.
         21    1    1    2  503  502 -0.13763766280E+03 -0.21601564125E+03  0.21160873910E+03  0.33224259503E+03  0.00000000000E+00 0.  1.
<mgrwt>
<rscale>  3 0.28501208E+03</rscale>
<asrwt>0</asrwt>
<pdfrwt beam="1">  1       21 0.48655749E-01 0.28501208E+03</pdfrwt>
<pdfrwt beam="2">  1       21 0.79747191E-01 0.28501208E+03</pdfrwt>
<totfact> 0.52610881E+03</totfact>
</mgrwt>
</event>
<event>
 4    0  0.1495377E-001  0.2553834E+03  0.7546771E-02  0.1109949E+00
         21   -1    0    0  502  501  0.00000000000E+00  0.00000000000E+00  0.30835891925E+03  0.30835891925E+03  0.00000000000E+00 0. -1.
         21   -1    0    0  503  502 -0.00000000000E+00 -0.00000000000E+00 -0.26468370326E+03  0.26468370326E+03  0.00000000000E+00 0. -1.
         25    1    1    2    0    0 -0.22246970963E+03 -0.10144382688E+02 -0.13376620586E+03  0.28829512316E+03  0.12500000000E+03 0.  0.
         21    1    1    2  503  501  0.22246970963E+03  0.10144382688E+02  0.17744142185E+03  0.28474749936E+03  0.00000000000E+00 0. -1.
<mgrwt>
<rscale>  3 0.25538340E+03</rscale>
<asrwt>0</asrwt>
<pdfrwt beam="1">  1       21 0.47439834E-01 0.25538340E+03</pdfrwt>
<pdfrwt beam="2">  1       21 0.40720570E-01 0.25538340E+03</pdfrwt>
<totfact> 0.23900788E+04</totfact>
</mgrwt>
</event>
