<event>
 5    0  0.1911311E+001  0.2575529E+03  0.7546771E-02  0.1108622E+00
         21   -1    0    0  502  501  0.00000000000E+00  0.00000000000E+00  0.44383853375E+03  0.44383853375E+03  0.00000000000E+00 0. -1.
         21   -1    0    0  504  502 -0.00000000000E+00 -0.00000000000E+00 -0.59493822548E+03  0.59493822548E+03  0.00000000000E+00 0. -1.
         25    1    1    2    0    0 -0.74529344669E+02  0.18798917479E+03  0.29874080310E+03  0.38179264070E+03  0.12500000000E+03 0.  0.
         21    1    1    2  503  501 -0.15836301085E+02  0.19993273989E+02  0.78230259128E+02  0.82283004807E+02  0.00000000000E+00 0. -1.
         21    1    1    2  504  503  0.90365645754E+02 -0.20798244878E+03 -0.52807075395E+03  0.57470111372E+03  0.00000000000E+00 0. -1.
<mgrwt>
<rscale>  4 0.25755287E+03</rscale>
<asrwt>0</asrwt>
<pdfrwt beam="1">  1       21 0.68282852E-01 0.25755287E+03</pdfrwt>
<pdfrwt beam="2">  1       21 0.91528957E-01 0.25755287E+03</pdfrwt>
<totfact> 0.18763829E+03</totfact>
</mgrwt>
</event>
<event>
 5    0  0.1911311E+001  0.2148367E+03  0.7546771E-02  0.1137792E+00
         21   -1    0    0  503  501  0.00000000000E+00  0.00000000000E+00  0.58531143786E+03  0.58531143786E+03  0.00000000000E+00 0. -1.
         21   -1    0    0  504  502 -0.00000000000E+00 -0.00000000000E+00 -0.12698186253E+03  0.12698186253E+03  0.00000000000E+00 0. -1.
         25    1    1    2    0    0 -0.16032562981E+02  0.21654585977E+03  0.18384338797E+03  0.31076123272E+03  0.12500000000E+03 0.  0.
         21    1    1    2  503  502 -0.71358246908E+02 -0.14438330493E+03  0.88588792116E+02  0.18381107756E+03  0.00000000000E+00 0. -1.
         21    1    1    2  504  501  0.87390809889E+02 -0.72162554840E+02  0.18589739525E+03  0.21772099011E+03  0.00000000000E+00 0. -1.
<mgrwt>
<rscale>  4 0.21483668E+03</rscale>
<asrwt>0</asrwt>
<pdfrwt beam="1">  1       21 0.90047912E-01 0.21483668E+03</pdfrwt>
<pdfrwt beam="2">  1       21 0.19535672E-01 0.21483668E+03</pdfrwt>
<totfact> 0.24984623E+04</totfact>
</mgrwt>
</event>
<event>
 5    0  0.1911311E+001  0.3278597E+03  0.7546771E-02  0.1072088E+00
         21   -1    0    0  502  501  0.00000000000E+00  0.00000000000E+00  0.21023523396E+04  0.21023523396E+04  0.00000000000E+00 0.  1.
         21   -1    0    0  504  502 -0.00000000000E+00 -0.00000000000E+00 -0.73735336209E+02  0.73735336209E+02  0.00000000000E+00 0.  1.
         25    1    1    2    0    0  0.10206302241E+03  0.29538400887E+03  0.47792565602E+03  0.58455667469E+03  0.12500000000E+03 0.  0.
         21    1    1    2  503  501 -0.11752718812E+03 -0.27674835452E+03  0.15312115800E+04  0.15604522403E+04  0.00000000000E+00 0.  1.
         21    1    1    2  504  503  0.15464165711E+02 -0.18635654356E+02  0.19479767375E+02  0.31078760776E+02  0.00000000000E+00 0.  1.
<mgrwt>
<rscale>  4 0.32785974E+03</rscale>
<asrwt>0</asrwt>
<pdfrwt beam="1">  1       21 0.32343878E+00 0.32785974E+03</pdfrwt>
<pdfrwt beam="2">  1       21 0.11343899E-01 0.32785974E+03</pdfrwt>
<totfact> 0.14131254E+03</totfact>
</mgrwt>
</event>
<event>
 5    0  0.1911311E+001  0.3334559E+03  0.7546771E-02  0.1069618E+00
         21   -1    0    0  502  501  0.00000000000E+00  0.00000000000E+00  0.70981806836E+03  0.70981806836E+03  0.00000000000E+00 0. -1.
         21   -1    0    0  504  502 -0.00000000000E+00 -0.00000000000E+00 -0.32336347840E+03  0.32336347840E+03  0.00000000000E+00 0. -1.
         25    1    1    2    0    0 -0.22623452540E+03  0.19521426764E+03  0.52213811288E+03  0.61444599412E+03  0.12500000000E+03 0.  0.
         21    1    1    2  503  501  0.11444707102E+02  0.29617504194E+02  0.48031213541E+02  0.57577559427E+02  0.00000000000E+00 0.  1.
         21    1    1    2  504  503  0.21478981830E+03 -0.22483177183E+03 -0.18371473646E+03  0.36115799321E+03  0.00000000000E+00 0. -1.
<mgrwt>
<rscale>  4 0.33345593E+03</rscale>
<asrwt>0</asrwt>
<pdfrwt beam="1">  1       21 0.10920278E+00 0.33345593E+03</pdfrwt>
<pdfrwt beam="2">  1       21 0.49748228E-01 0.33345593E+03</pdfrwt>
<totfact> 0.23255923E+03</totfact>
</mgrwt>
</event>
