<event>
 5    0  0.5719562E-003  0.5153756E+03  0.7546771E-02  0.1009842E+00
         -2   -1    0    0    0  501 -0.00000000000E+00  0.00000000000E+00  0.20212113670E+03  0.20212113670E+03  0.00000000000E+00 0. -1.
          2   -1    0    0  502    0  0.00000000000E+00 -0.00000000000E+00 -0.32853066011E+03  0.32853066011E+03  0.00000000000E+00 0.  1.
         25    1    1    2    0    0  0.21880663187E+03  0.71204244830E+02 -0.12101625874E+03  0.28847239298E+03  0.12500000000E+03 0.  0.
          1    1    1    2  502    0 -0.35190570643E+02  0.12153582605E+01 -0.25934995721E+02  0.43731880373E+02  0.00000000000E+00 0.  1.
         -1    1    1    2    0  501 -0.18361606122E+03 -0.72419603090E+02  0.20541731049E+02  0.19844752345E+03  0.00000000000E+00 0. -1.
<mgrwt>
<rscale>  4 0.51537555E+03</rscale>
<asrwt>0</asrwt>
<pdfrwt beam="1">  1        2 0.50543178E-01 0.51537555E+03</pdfrwt>
<pdfrwt beam="2">  1       -2 0.31095560E-01 0.51537555E+03</pdfrwt>
<totfact> 0.95313267E+02</totfact>
</mgrwt>
</event>
<event>
 5    0  0.5719562E-003  0.6608309E+03  0.7546771E-02  0.9786665E-01
          2   -1    0    0  502    0  0.00000000000E+00  0.00000000000E+00  0.21981693465E+04  0.21981693465E+04  0.00000000000E+00 0.  1.
         -2   -1    0    0    0  501 -0.00000000000E+00 -0.00000000000E+00 -0.49666046614E+02  0.49666046614E+02  0.00000000000E+00 0. -1.
         25    1    1    2    0    0  0.30869229781E+03 -0.10173828829E+02  0.10008772647E+04  0.10548813869E+04  0.12500000000E+03 0.  0.
          4    1    1    2  502    0 -0.20934017418E+03 -0.27082506552E+02  0.88226537744E+03  0.90716534706E+03  0.00000000000E+00 0.  1.
         -4    1    1    2    0  501 -0.99352123636E+02  0.37256335382E+02  0.26536065780E+03  0.28578865916E+03  0.00000000000E+00 0. -1.
<mgrwt>
<rscale>  4 0.66083094E+03</rscale>
<asrwt>0</asrwt>
<pdfrwt beam="1">  1        2 0.33817982E+00 0.66083094E+03</pdfrwt>
<pdfrwt beam="2">  1       -2 0.76409319E-02 0.66083094E+03</pdfrwt>
<totfact> 0.56773808E+02</totfact>
</mgrwt>
</event>
<event>
 5    0  0.5719562E-003  0.1000676E+04  0.7546771E-02  0.9307804E-01
         -1   -1    0    0    0  501 -0.00000000000E+00  0.00000000000E+00  0.28874115211E+03  0.28874115211E+03  0.00000000000E+00 0.  1.
          1   -1    0    0  502    0  0.00000000000E+00 -0.00000000000E+00 -0.86699765575E+03  0.86699765575E+03  0.00000000000E+00 0. -1.
         25    1    1    2    0    0 -0.35913981750E+03  0.21275667868E+03 -0.99908748113E+02  0.44704985269E+03  0.12500000000E+03 0.  0.
          2    1    1    2  502    0  0.20661496798E+03  0.26249502185E+01 -0.61986795438E+02  0.21572899241E+03  0.00000000000E+00 0.  1.
         -2    1    1    2    0  501  0.15252484952E+03 -0.21538162890E+03 -0.41636096009E+03  0.49295996275E+03  0.00000000000E+00 0. -1.
<mgrwt>
<rscale>  4 0.10006756E+04</rscale>
<asrwt>0</asrwt>
<pdfrwt beam="1">  1        1 0.13338426E+00 0.10006756E+04</pdfrwt>
<pdfrwt beam="2">  1       -1 0.44421716E-01 0.10006756E+04</pdfrwt>
<totfact> 0.97414083E+01</totfact>
</mgrwt>
</event>
<event>
 5    0  0.5719562E-003  0.5323421E+03  0.7546771E-02  0.1005666E+00
          2   -1    0    0  502    0  0.00000000000E+00  0.00000000000E+00  0.61623636632E+03  0.61623636632E+03  0.00000000000E+00 0.  1.
         -2   -1    0    0    0  501 -0.00000000000E+00 -0.00000000000E+00 -0.11496730095E+03  0.11496730095E+03  0.00000000000E+00 0. -1.
         25    1    1    2    0    0  0.20558887570E+03  0.94678998560E+02  0.12930383487E+03  0.28909406824E+03  0.12500000000E+03 0.  0.
          1    1    1    2  502    0 -0.61016749408E+01 -0.20062629152E+02  0.66463015738E+02  0.69692696795E+02  0.00000000000E+00 0. -1.
         -1    1    1    2    0  501 -0.19948720076E+03 -0.74616369408E+02  0.30550221475E+03  0.37241690223E+03  0.00000000000E+00 0.  1.
<mgrwt>
<rscale>  4 0.53234211E+03</rscale>
<asrwt>0</asrwt>
<pdfrwt beam="1">  1        2 0.94805593E-01 0.53234211E+03</pdfrwt>
<pdfrwt beam="2">  1       -2 0.17687277E-01 0.53234211E+03</pdfrwt>
<totfact> 0.12713666E+03</totfact>
</mgrwt>
</event>
<event>
 5    0  0.5719562E-003  0.6175390E+03  0.7546771E-02  0.9869672E-01
         -1   -1    0    0    0  501 -0.00000000000E+00  0.00000000000E+00  0.16165325977E+03  0.16165325977E+03  0.00000000000E+00 0.  1.
          1   -1    0    0  502    0  0.00000000000E+00 -0.00000000000E+00 -0.58977231682E+03  0.58977231682E+03  0.00000000000E+00 0. -1.
         25    1    1    2    0    0  0.37836364282E+02 -0.23656580672E+03 -0.43567516844E+02  0.27371170946E+03  0.12500000000E+03 0.  0.
          3    1    1    2  502    0 -0.85367366946E+02  0.20072284274E+03 -0.33742644758E+03  0.40178832047E+03  0.00000000000E+00 0. -1.
         -3    1    1    2    0  501  0.47531002664E+02  0.35842963980E+02 -0.47125092622E+02  0.75925546661E+02  0.00000000000E+00 0.  1.
<mgrwt>
<rscale>  4 0.61753904E+03</rscale>
<asrwt>0</asrwt>
<pdfrwt beam="1">  1        1 0.90734202E-01 0.61753904E+03</pdfrwt>
<pdfrwt beam="2">  1       -1 0.24869732E-01 0.61753904E+03</pdfrwt>
<totfact> 0.50129299E+02</totfact>
</mgrwt>
</event>
<event>
 5    0  0.5719562E-003  0.6387866E+03  0.7546771E-02  0.9828051E-01
         -1   -1    0    0    0  501 -0.00000000000E+00  0.00000000000E+00  0.11708520055E+03  0.11708520055E+03  0.00000000000E+00 0. -1.
          1   -1    0    0  502    0  0.00000000000E+00 -0.00000000000E+00 -0.87126356737E+03  0.87126356737E+03  0.00000000000E+00 0.  1.
         25    1    1    2    0    0 -0.14483947468E+03  0.21876187676E+03 -0.61103856141E+03  0.67663014689E+03  0.12500000000E+03 0.  0.
          1    1    1    2  502    0  0.26450520945E+02 -0.86936811564E+02 -0.12821346222E+02  0.91771597905E+02  0.00000000000E+00 0. -1.
         -1    1    1    2    0  501  0.11838895373E+03 -0.13182506519E+03 -0.13031845918E+03  0.21994702313E+03  0.00000000000E+00 0.  1.
<mgrwt>
<rscale>  4 0.63878657E+03</rscale>
<asrwt>0</asrwt>
<pdfrwt beam="1">  1        1 0.13404055E+00 0.63878657E+03</pdfrwt>
<pdfrwt beam="2">  1       -1 0.18013108E-01 0.63878657E+03</pdfrwt>
<totfact> 0.47364592E+02</totfact>
</mgrwt>
</event>
<event>
 5    0  0.5719562E-003  0.6371193E+03  0.7546771E-02  0.9831254E-01
         -2   -1    0    0    0  501 -0.00000000000E+00  0.00000000000E+00  0.72665163713E+02  0.72665163713E+02  0.00000000000E+00 0.  1.
          2   -1    0    0  502    0  0.00000000000E+00 -0.00000000000E+00 -0.13965462904E+04  0.13965462904E+04  0.00000000000E+00 0. -1.
         25    1    1    2    0    0  0.18336264447E+03 -0.17426847335E+03 -0.49543266409E+03  0.57014900232E+03  0.12500000000E+03 0.  0.
          4    1    1    2  502    0 -0.44004304134E+02  0.78473768238E+02 -0.50967740397E+02  0.10340319939E+03  0.00000000000E+00 0.  1.
         -4    1    1    2    0  501 -0.13935834034E+03  0.95794705112E+02 -0.77748072218E+03  0.79565925239E+03  0.00000000000E+00 0. -1.
<mgrwt>
<rscale>  4 0.63711934E+03</rscale>
<asrwt>0</asrwt>
<pdfrwt beam="1">  1        2 0.21485328E+00 0.63711934E+03</pdfrwt>
<pdfrwt beam="2">  1       -2 0.11179256E-01 0.63711934E+03</pdfrwt>
<totfact> 0.84410660E+02</totfact>
</mgrwt>
</event>
<event>
 5    0  0.5719562E-003  0.5640806E+03  0.7546771E-02  0.9982864E-01
         -1   -1    0    0    0  501 -0.00000000000E+00  0.00000000000E+00  0.15508968897E+03  0.15508968897E+03  0.00000000000E+00 0. -1.
          1   -1    0    0  502    0  0.00000000000E+00 -0.00000000000E+00 -0.51290801539E+03  0.51290801539E+03  0.00000000000E+00 0.  1.
         25    1    1    2    0    0 -0.22543956063E+03  0.13353086107E+03 -0.14741133821E+03  0.32558960208E+03  0.12500000000E+03 0.  0.
          3    1    1    2  502    0  0.49851860288E+02 -0.59063891241E+01 -0.60458208928E+02  0.78583003464E+02  0.00000000000E+00 0. -1.
         -3    1    1    2    0  501  0.17558770034E+03 -0.12762447195E+03 -0.14994877929E+03  0.26382509881E+03  0.00000000000E+00 0.  1.
<mgrwt>
<rscale>  4 0.56408065E+03</rscale>
<asrwt>0</asrwt>
<pdfrwt beam="1">  1        1 0.78908926E-01 0.56408065E+03</pdfrwt>
<pdfrwt beam="2">  1       -1 0.23859952E-01 0.56408065E+03</pdfrwt>
<totfact> 0.65450994E+02</totfact>
</mgrwt>
</event>
<event>
 5    0  0.5719562E-003  0.4787977E+03  0.7546771E-02  0.1019466E+00
         -1   -1    0    0    0  501 -0.00000000000E+00  0.00000000000E+00  0.11649317191E+03  0.11649317191E+03  0.00000000000E+00 0. -1.
          1   -1    0    0  502    0  0.00000000000E+00 -0.00000000000E+00 -0.49197570094E+03  0.49197570094E+03  0.00000000000E+00 0.  1.
         25    1    1    2    0    0 -0.18790621654E+03  0.99415869464E+02 -0.24046100695E+03  0.34443977294E+03  0.12500000000E+03 0.  0.
          2    1    1    2  502    0  0.29239934334E+02  0.47303269567E+01 -0.45233970916E+02  0.54069047317E+02  0.00000000000E+00 0.  1.
         -2    1    1    2    0  501  0.15866628221E+03 -0.10414619642E+03 -0.89787551171E+02  0.20996005259E+03  0.00000000000E+00 0. -1.
<mgrwt>
<rscale>  4 0.47879770E+03</rscale>
<asrwt>0</asrwt>
<pdfrwt beam="1">  1        1 0.75688568E-01 0.47879770E+03</pdfrwt>
<pdfrwt beam="2">  1       -1 0.17922027E-01 0.47879770E+03</pdfrwt>
<totfact> 0.11154999E+03</totfact>
</mgrwt>
</event>
<event>
 5    0  0.5719562E-003  0.7661550E+03  0.7546771E-02  0.9610341E-01
         -1   -1    0    0    0  501 -0.00000000000E+00  0.00000000000E+00  0.32657637242E+03  0.32657637242E+03  0.00000000000E+00 0. -1.
          1   -1    0    0  502    0  0.00000000000E+00 -0.00000000000E+00 -0.44935392015E+03  0.44935392015E+03  0.00000000000E+00 0.  1.
         25    1    1    2    0    0 -0.61670435417E+02 -0.23709393501E+03  0.14296729244E+03  0.30997003618E+03  0.12500000000E+03 0.  0.
          2    1    1    2  502    0  0.27785050562E+02 -0.45447458713E+02  0.25252045683E+02  0.58950371919E+02  0.00000000000E+00 0. -1.
         -2    1    1    2    0  501  0.33885384855E+02  0.28254139373E+03 -0.29099688586E+03  0.40700988447E+03  0.00000000000E+00 0.  1.
<mgrwt>
<rscale>  4 0.76615501E+03</rscale>
<asrwt>0</asrwt>
<pdfrwt beam="1">  1        1 0.69131372E-01 0.76615501E+03</pdfrwt>
<pdfrwt beam="2">  1       -1 0.50242519E-01 0.76615501E+03</pdfrwt>
<totfact> 0.20658856E+02</totfact>
</mgrwt>
</event>
<event>
 5    0  0.5719562E-003  0.4943386E+03  0.7546771E-02  0.1015267E+00
          1   -1    0    0  502    0  0.00000000000E+00  0.00000000000E+00  0.52357132582E+03  0.52357132582E+03  0.00000000000E+00 0. -1.
         -1   -1    0    0    0  501 -0.00000000000E+00 -0.00000000000E+00 -0.11668448565E+03  0.11668448565E+03  0.00000000000E+00 0.  1.
         25    1    1    2    0    0 -0.21548323604E+03  0.33030800977E+02  0.12404052814E+03  0.28024116658E+03  0.12500000000E+03 0.  0.
          3    1    1    2  502    0  0.18688875891E+03 -0.33300171139E+02  0.26611257453E+03  0.32688256596E+03  0.00000000000E+00 0. -1.
         -3    1    1    2    0  501  0.28594477134E+02  0.26937016212E+00  0.16733737499E+02  0.33132078919E+02  0.00000000000E+00 0.  1.
<mgrwt>
<rscale>  4 0.49433855E+03</rscale>
<asrwt>0</asrwt>
<pdfrwt beam="1">  1        1 0.80549433E-01 0.49433855E+03</pdfrwt>
<pdfrwt beam="2">  1       -1 0.17951460E-01 0.49433855E+03</pdfrwt>
<totfact> 0.10219800E+03</totfact>
</mgrwt>
</event>
<event>
 5    0  0.5719562E-003  0.1137095E+04  0.7546771E-02  0.9169772E-01
          1   -1    0    0  502    0  0.00000000000E+00  0.00000000000E+00  0.61732165223E+03  0.61732165223E+03  0.00000000000E+00 0. -1.
         -1   -1    0    0    0  501 -0.00000000000E+00 -0.00000000000E+00 -0.52362718632E+03  0.52362718632E+03  0.00000000000E+00 0.  1.
         25    1    1    2    0    0  0.51332044243E+03  0.64840248551E+02  0.10930454934E+03  0.54339177300E+03  0.12500000000E+03 0.  0.
          1    1    1    2  502    0 -0.48521954375E+03 -0.35560366441E+02  0.80587036731E+02  0.49314989181E+03  0.00000000000E+00 0. -1.
         -1    1    1    2    0  501 -0.28100898685E+02 -0.29279882110E+02 -0.96197120159E+02  0.10440717375E+03  0.00000000000E+00 0.  1.
<mgrwt>
<rscale>  4 0.11370952E+04</rscale>
<asrwt>0</asrwt>
<pdfrwt beam="1">  1        1 0.94972562E-01 0.11370952E+04</pdfrwt>
<pdfrwt beam="2">  1       -1 0.80558028E-01 0.11370952E+04</pdfrwt>
<totfact> 0.50228568E+01</totfact>
</mgrwt>
</event>
<event>
 5    0  0.5719562E-003  0.6244607E+03  0.7546771E-02  0.9855918E-01
         -1   -1    0    0    0  501 -0.00000000000E+00  0.00000000000E+00  0.29373783433E+02  0.29373783433E+02  0.00000000000E+00 0.  1.
          1   -1    0    0  502    0  0.00000000000E+00 -0.00000000000E+00 -0.33188704574E+04  0.33188704574E+04  0.00000000000E+00 0. -1.
         25    1    1    2    0    0 -0.23917273652E+03  0.59370177447E+02 -0.91258159468E+03  0.95349807699E+03  0.12500000000E+03 0.  0.
          2    1    1    2  502    0  0.62055858564E+02  0.26613431070E+02 -0.11638841523E+04  0.11658411231E+04  0.00000000000E+00 0. -1.
         -2    1    1    2    0  501  0.17711687796E+03 -0.85983608517E+02 -0.12130309269E+04  0.12289050407E+04  0.00000000000E+00 0.  1.
<mgrwt>
<rscale>  4 0.62446067E+03</rscale>
<asrwt>0</asrwt>
<pdfrwt beam="1">  1        1 0.51059502E+00 0.62446067E+03</pdfrwt>
<pdfrwt beam="2">  1       -1 0.45190475E-02 0.62446067E+03</pdfrwt>
<totfact> 0.81396246E+01</totfact>
</mgrwt>
</event>
<event>
 5    0  0.5719562E-003  0.6743279E+03  0.7546771E-02  0.9762171E-01
         -2   -1    0    0    0  501 -0.00000000000E+00  0.00000000000E+00  0.47686852408E+03  0.47686852408E+03  0.00000000000E+00 0.  1.
          2   -1    0    0  502    0  0.00000000000E+00 -0.00000000000E+00 -0.23838754787E+03  0.23838754787E+03  0.00000000000E+00 0. -1.
         25    1    1    2    0    0  0.58131816005E+02 -0.27764060020E+03  0.28261651582E+03  0.41947670487E+03  0.12500000000E+03 0.  0.
          1    1    1    2  502    0 -0.29194978144E+02  0.24756947092E+03 -0.27286933603E+02  0.25077393490E+03  0.00000000000E+00 0. -1.
         -1    1    1    2    0  501 -0.28936837861E+02  0.30071129274E+02 -0.16848606006E+02  0.45005432178E+02  0.00000000000E+00 0.  1.
<mgrwt>
<rscale>  4 0.67432787E+03</rscale>
<asrwt>0</asrwt>
<pdfrwt beam="1">  1        2 0.36675007E-01 0.67432787E+03</pdfrwt>
<pdfrwt beam="2">  1       -2 0.73364388E-01 0.67432787E+03</pdfrwt>
<totfact> 0.24041953E+02</totfact>
</mgrwt>
</event>
<event>
 5    0  0.5719562E-003  0.4589795E+03  0.7546771E-02  0.1025078E+00
          2   -1    0    0  502    0  0.00000000000E+00  0.00000000000E+00  0.16783888333E+03  0.16783888333E+03  0.00000000000E+00 0. -1.
         -2   -1    0    0    0  501 -0.00000000000E+00 -0.00000000000E+00 -0.31378626563E+03  0.31378626563E+03  0.00000000000E+00 0.  1.
         25    1    1    2    0    0 -0.20157047791E+03 -0.45973650846E+02 -0.11756753214E+03  0.26868449667E+03  0.12500000000E+03 0.  0.
          3    1    1    2  502    0  0.91701582964E+02  0.72578087616E+01  0.38651690545E+01  0.92069515248E+02  0.00000000000E+00 0. -1.
         -3    1    1    2    0  501  0.10986889495E+03  0.38715842084E+02 -0.32245019218E+02  0.12087113704E+03  0.00000000000E+00 0.  1.
<mgrwt>
<rscale>  4 0.45897946E+03</rscale>
<asrwt>0</asrwt>
<pdfrwt beam="1">  1        2 0.25821367E-01 0.45897946E+03</pdfrwt>
<pdfrwt beam="2">  1       -2 0.48274809E-01 0.45897946E+03</pdfrwt>
<totfact> 0.86070337E+02</totfact>
</mgrwt>
</event>
<event>
 5    0  0.5719562E-003  0.8188089E+03  0.7546771E-02  0.9533184E-01
         -2   -1    0    0    0  501 -0.00000000000E+00  0.00000000000E+00  0.20363972343E+03  0.20363972343E+03  0.00000000000E+00 0.  1.
          2   -1    0    0  502    0  0.00000000000E+00 -0.00000000000E+00 -0.82308114291E+03  0.82308114291E+03  0.00000000000E+00 0. -1.
         25    1    1    2    0    0 -0.26293740517E+03 -0.17302485193E+03 -0.37457755829E+03  0.50498220325E+03  0.12500000000E+03 0.  0.
          3    1    1    2  502    0  0.43299165435E+02  0.85966669629E+02  0.76443387412E+02  0.12291736042E+03  0.00000000000E+00 0.  1.
         -3    1    1    2    0  501  0.21963823973E+03  0.87058182299E+02 -0.32130724860E+03  0.39882130267E+03  0.00000000000E+00 0. -1.
<mgrwt>
<rscale>  4 0.81880893E+03</rscale>
<asrwt>0</asrwt>
<pdfrwt beam="1">  1        2 0.12662787E+00 0.81880893E+03</pdfrwt>
<pdfrwt beam="2">  1       -2 0.31329189E-01 0.81880893E+03</pdfrwt>
<totfact> 0.31471622E+02</totfact>
</mgrwt>
</event>
<event>
 5    0  0.5719562E-003  0.6025478E+03  0.7546771E-02  0.9900134E-01
          1   -1    0    0  502    0  0.00000000000E+00  0.00000000000E+00  0.12671075522E+04  0.12671075522E+04  0.00000000000E+00 0. -1.
         -1   -1    0    0    0  501 -0.00000000000E+00 -0.00000000000E+00 -0.71632409558E+02  0.71632409558E+02  0.00000000000E+00 0.  1.
         25    1    1    2    0    0 -0.19403159330E+03  0.11455766389E+03  0.57593236422E+03  0.63094754592E+03  0.12500000000E+03 0.  0.
          1    1    1    2  502    0  0.16507711857E+03 -0.10726993208E+03  0.17850990190E+03  0.26575003006E+03  0.00000000000E+00 0.  1.
         -1    1    1    2    0  501  0.28954474729E+02 -0.72877318121E+01  0.44103287651E+03  0.44204238576E+03  0.00000000000E+00 0. -1.
<mgrwt>
<rscale>  4 0.60254781E+03</rscale>
<asrwt>0</asrwt>
<pdfrwt beam="1">  1        1 0.19493961E+00 0.60254781E+03</pdfrwt>
<pdfrwt beam="2">  1       -1 0.11020372E-01 0.60254781E+03</pdfrwt>
<totfact> 0.52697587E+02</totfact>
</mgrwt>
</event>
<event>
 5    0  0.5719562E-003  0.1365023E+04  0.7546771E-02  0.8979533E-01
         -1   -1    0    0    0  501 -0.00000000000E+00  0.00000000000E+00  0.57194970238E+03  0.57194970238E+03  0.00000000000E+00 0. -1.
          1   -1    0    0  502    0  0.00000000000E+00 -0.00000000000E+00 -0.81444593808E+03  0.81444593808E+03  0.00000000000E+00 0.  1.
         25    1    1    2    0    0 -0.63676852193E+03  0.67307043446E+02 -0.33117391759E+03  0.73164578336E+03  0.12500000000E+03 0.  0.
          2    1    1    2  502    0  0.58507885525E+03 -0.40710574073E+02  0.58921615995E+02  0.58944581984E+03  0.00000000000E+00 0.  1.
         -2    1    1    2    0  501  0.51689666679E+02 -0.26596469373E+02  0.29756065893E+02  0.65304037256E+02  0.00000000000E+00 0. -1.
<mgrwt>
<rscale>  4 0.13650232E+04</rscale>
<asrwt>0</asrwt>
<pdfrwt beam="1">  1        1 0.12529938E+00 0.13650232E+04</pdfrwt>
<pdfrwt beam="2">  1       -1 0.87992262E-01 0.13650232E+04</pdfrwt>
<totfact> 0.26670803E+01</totfact>
</mgrwt>
</event>
<event>
 5    0  0.5719562E-003  0.5160598E+03  0.7546771E-02  0.1009670E+00
         -2   -1    0    0    0  501 -0.00000000000E+00  0.00000000000E+00  0.70357148134E+02  0.70357148134E+02  0.00000000000E+00 0. -1.
          2   -1    0    0  502    0  0.00000000000E+00 -0.00000000000E+00 -0.94630640033E+03  0.94630640033E+03  0.00000000000E+00 0.  1.
         25    1    1    2    0    0  0.20813665799E+03 -0.63374514555E+02 -0.25937727844E+03  0.36088609015E+03  0.12500000000E+03 0.  0.
          2    1    1    2  502    0 -0.78722161497E+02 -0.31769258839E+00 -0.23637461725E+03  0.24913899599E+03  0.00000000000E+00 0.  1.
         -2    1    1    2    0  501 -0.12941449649E+03  0.63692207144E+02 -0.38019735650E+03  0.40663846232E+03  0.00000000000E+00 0. -1.
<mgrwt>
<rscale>  4 0.51605976E+03</rscale>
<asrwt>0</asrwt>
<pdfrwt beam="1">  1        2 0.14558559E+00 0.51605976E+03</pdfrwt>
<pdfrwt beam="2">  1       -2 0.10824177E-01 0.51605976E+03</pdfrwt>
<totfact> 0.16561334E+03</totfact>
</mgrwt>
</event>
<event>
 5    0  0.5719562E-003  0.5712384E+03  0.7546771E-02  0.9966942E-01
         -1   -1    0    0    0  501 -0.00000000000E+00  0.00000000000E+00  0.12714194077E+03  0.12714194077E+03  0.00000000000E+00 0. -1.
          1   -1    0    0  502    0  0.00000000000E+00 -0.00000000000E+00 -0.64163198463E+03  0.64163198463E+03  0.00000000000E+00 0.  1.
         25    1    1    2    0    0  0.17868196561E+03  0.15889338908E+03 -0.17305070219E+03  0.32054001225E+03  0.12500000000E+03 0.  0.
          1    1    1    2  502    0 -0.10323897128E+03 -0.14390460041E+03 -0.32417926339E+03  0.36940359232E+03  0.00000000000E+00 0.  1.
         -1    1    1    2    0  501 -0.75442994324E+02 -0.14988788677E+02 -0.17260078294E+02  0.78830320825E+02  0.00000000000E+00 0. -1.
<mgrwt>
<rscale>  4 0.57123843E+03</rscale>
<asrwt>0</asrwt>
<pdfrwt beam="1">  1        1 0.98712612E-01 0.57123843E+03</pdfrwt>
<pdfrwt beam="2">  1       -1 0.19560299E-01 0.57123843E+03</pdfrwt>
<totfact> 0.66493322E+02</totfact>
</mgrwt>
</event>
<event>
 5    0  0.5719562E-003  0.5635928E+03  0.7546771E-02  0.9983958E-01
          1   -1    0    0  502    0  0.00000000000E+00  0.00000000000E+00  0.30054303101E+03  0.30054303101E+03  0.00000000000E+00 0. -1.
         -1   -1    0    0    0  501 -0.00000000000E+00 -0.00000000000E+00 -0.26421909074E+03  0.26421909074E+03  0.00000000000E+00 0.  1.
         25    1    1    2    0    0 -0.18443551250E+03  0.11805077916E+03  0.39388442543E+02  0.25520363269E+03  0.12500000000E+03 0.  0.
          3    1    1    2  502    0 -0.10911794575E+02  0.41824146684E+02  0.33246098426E+02  0.54530996390E+02  0.00000000000E+00 0. -1.
         -3    1    1    2    0  501  0.19534730708E+03 -0.15987492585E+03 -0.36310600700E+02  0.25502749268E+03  0.00000000000E+00 0.  1.
<mgrwt>
<rscale>  4 0.56359278E+03</rscale>
<asrwt>0</asrwt>
<pdfrwt beam="1">  1        1 0.46237389E-01 0.56359278E+03</pdfrwt>
<pdfrwt beam="2">  1       -1 0.40649091E-01 0.56359278E+03</pdfrwt>
<totfact> 0.52280162E+02</totfact>
</mgrwt>
</event>
<event>
 5    0  0.5719562E-003  0.6234522E+03  0.7546771E-02  0.9857910E-01
         -2   -1    0    0    0  501 -0.00000000000E+00  0.00000000000E+00  0.13945369857E+03  0.13945369857E+03  0.00000000000E+00 0. -1.
          2   -1    0    0  502    0  0.00000000000E+00 -0.00000000000E+00 -0.69681302529E+03  0.69681302529E+03  0.00000000000E+00 0.  1.
         25    1    1    2    0    0  0.39550671973E+02 -0.21946595868E+03 -0.18139566917E+03  0.31346283906E+03  0.12500000000E+03 0.  0.
          2    1    1    2  502    0  0.58280311035E+02  0.44057246939E+02  0.22616532760E+02  0.76479691529E+02  0.00000000000E+00 0. -1.
         -2    1    1    2    0  501 -0.97830983008E+02  0.17540871175E+03 -0.39858019031E+03  0.44632419327E+03  0.00000000000E+00 0.  1.
<mgrwt>
<rscale>  4 0.62345217E+03</rscale>
<asrwt>0</asrwt>
<pdfrwt beam="1">  1        2 0.10720201E+00 0.62345217E+03</pdfrwt>
<pdfrwt beam="2">  1       -2 0.21454415E-01 0.62345217E+03</pdfrwt>
<totfact> 0.78107005E+02</totfact>
</mgrwt>
</event>
<event>
 5    0  0.5719562E-003  0.5339793E+03  0.7546771E-02  0.1005272E+00
          2   -1    0    0  502    0  0.00000000000E+00  0.00000000000E+00  0.10422872449E+04  0.10422872449E+04  0.00000000000E+00 0. -1.
         -2   -1    0    0    0  501 -0.00000000000E+00 -0.00000000000E+00 -0.68391391358E+02  0.68391391358E+02  0.00000000000E+00 0.  1.
         25    1    1    2    0    0  0.26964389511E+02  0.20747282284E+03  0.41952875490E+03  0.48518184911E+03  0.12500000000E+03 0.  0.
          2    1    1    2  502    0  0.63576648976E+02 -0.87604611790E+02  0.38111506474E+03  0.39618840325E+03  0.00000000000E+00 0. -1.
         -2    1    1    2    0  501 -0.90541038486E+02 -0.11986821105E+03  0.17325203389E+03  0.22930838388E+03  0.00000000000E+00 0.  1.
<mgrwt>
<rscale>  4 0.53397931E+03</rscale>
<asrwt>0</asrwt>
<pdfrwt beam="1">  1        2 0.16035187E+00 0.53397931E+03</pdfrwt>
<pdfrwt beam="2">  1       -2 0.10521753E-01 0.53397931E+03</pdfrwt>
<totfact> 0.15077311E+03</totfact>
</mgrwt>
</event>
<event>
 5    0  0.5719562E-003  0.5931331E+03  0.7546771E-02  0.9919756E-01
         -2   -1    0    0    0  501 -0.00000000000E+00  0.00000000000E+00  0.12618503709E+03  0.12618503709E+03  0.00000000000E+00 0.  1.
          2   -1    0    0  502    0  0.00000000000E+00 -0.00000000000E+00 -0.69700581148E+03  0.69700581148E+03  0.00000000000E+00 0. -1.
         25    1    1    2    0    0 -0.14742936982E+03 -0.18254357934E+03 -0.37011474649E+03  0.45570550031E+03  0.12500000000E+03 0.  0.
          3    1    1    2  502    0 -0.54160546806E+01  0.92476249685E+02 -0.16090735531E+03  0.18566735685E+03  0.00000000000E+00 0. -1.
         -3    1    1    2    0  501  0.15284542450E+03  0.90067329652E+02 -0.39798672580E+02  0.18181799141E+03  0.00000000000E+00 0.  1.
<mgrwt>
<rscale>  4 0.59313305E+03</rscale>
<asrwt>0</asrwt>
<pdfrwt beam="1">  1        2 0.10723167E+00 0.59313305E+03</pdfrwt>
<pdfrwt beam="2">  1       -2 0.19413082E-01 0.59313305E+03</pdfrwt>
<totfact> 0.93049978E+02</totfact>
</mgrwt>
</event>
<event>
 5    0  0.5719562E-003  0.6360038E+03  0.7546771E-02  0.9833402E-01
         -1   -1    0    0    0  501 -0.00000000000E+00  0.00000000000E+00  0.76826071284E+02  0.76826071284E+02  0.00000000000E+00 0. -1.
          1   -1    0    0  502    0  0.00000000000E+00 -0.00000000000E+00 -0.13162874851E+04  0.13162874851E+04  0.00000000000E+00 0.  1.
         25    1    1    2    0    0  0.70522134542E+02  0.23549150627E+03 -0.54352642792E+03  0.60948798088E+03  0.12500000000E+03 0.  0.
          4    1    1    2  502    0 -0.16598956835E+03 -0.15060667899E+03 -0.51960146377E+03  0.56588036696E+03  0.00000000000E+00 0.  1.
         -4    1    1    2    0  501  0.95467433808E+02 -0.84884827282E+02 -0.17633352212E+03  0.21774520854E+03  0.00000000000E+00 0. -1.
<mgrwt>
<rscale>  4 0.63600376E+03</rscale>
<asrwt>0</asrwt>
<pdfrwt beam="1">  1        1 0.20250575E+00 0.63600376E+03</pdfrwt>
<pdfrwt beam="2">  1       -1 0.11819397E-01 0.63600376E+03</pdfrwt>
<totfact> 0.43446480E+02</totfact>
</mgrwt>
</event>
<event>
 5    0  0.5719562E-003  0.5196122E+03  0.7546771E-02  0.1008783E+00
         -1   -1    0    0    0  501 -0.00000000000E+00  0.00000000000E+00  0.25186908168E+03  0.25186908168E+03  0.00000000000E+00 0.  1.
          1   -1    0    0  502    0  0.00000000000E+00 -0.00000000000E+00 -0.26799324129E+03  0.26799324129E+03  0.00000000000E+00 0. -1.
         25    1    1    2    0    0 -0.17066708671E+03  0.10714999446E+03 -0.55548074496E+02  0.24355484881E+03  0.12500000000E+03 0.  0.
          2    1    1    2  502    0  0.10427263604E+03 -0.12802984955E+03  0.92056416232E+02  0.18904710729E+03  0.00000000000E+00 0.  1.
         -2    1    1    2    0  501  0.66394450670E+02  0.20879855087E+02 -0.52632501345E+02  0.87260366869E+02  0.00000000000E+00 0. -1.
<mgrwt>
<rscale>  4 0.51961221E+03</rscale>
<asrwt>0</asrwt>
<pdfrwt beam="1">  1        1 0.41229729E-01 0.51961221E+03</pdfrwt>
<pdfrwt beam="2">  1       -1 0.38749090E-01 0.51961221E+03</pdfrwt>
<totfact> 0.66101925E+02</totfact>
</mgrwt>
</event>
<event>
 5    0  0.5719562E-003  0.8390138E+03  0.7546771E-02  0.9505202E-01
         -1   -1    0    0    0  501 -0.00000000000E+00  0.00000000000E+00  0.67111607558E+03  0.67111607558E+03  0.00000000000E+00 0.  1.
          1   -1    0    0  502    0  0.00000000000E+00 -0.00000000000E+00 -0.26222892723E+03  0.26222892723E+03  0.00000000000E+00 0. -1.
         25    1    1    2    0    0  0.15306257495E+03  0.34302641351E+03  0.26382532506E+03  0.47573529862E+03  0.12500000000E+03 0.  0.
          3    1    1    2  502    0 -0.31473110238E+02  0.25828376718E+02  0.35643762797E+02  0.54112286389E+02  0.00000000000E+00 0.  1.
         -3    1    1    2    0  501 -0.12158946471E+03 -0.36885479023E+03  0.10941806049E+03  0.40349741779E+03  0.00000000000E+00 0. -1.
<mgrwt>
<rscale>  4 0.83901382E+03</rscale>
<asrwt>0</asrwt>
<pdfrwt beam="1">  1        1 0.40342912E-01 0.83901382E+03</pdfrwt>
<pdfrwt beam="2">  1       -1 0.10324863E+00 0.83901382E+03</pdfrwt>
<totfact> 0.93554591E+01</totfact>
</mgrwt>
</event>
<event>
 5    0  0.5719562E-003  0.8198434E+03  0.7546771E-02  0.9531731E-01
          1   -1    0    0  502    0  0.00000000000E+00  0.00000000000E+00  0.15000308514E+03  0.15000308514E+03  0.00000000000E+00 0. -1.
         -1   -1    0    0    0  501 -0.00000000000E+00 -0.00000000000E+00 -0.11202157130E+04  0.11202157130E+04  0.00000000000E+00 0.  1.
         25    1    1    2    0    0 -0.26741686920E+03 -0.94948611053E+02 -0.11146745651E+03  0.32951026469E+03  0.12500000000E+03 0.  0.
          3    1    1    2  502    0  0.16028092446E+03  0.12699854205E+03 -0.25586447920E+03  0.32754425066E+03  0.00000000000E+00 0. -1.
         -3    1    1    2    0  501  0.10713594474E+03 -0.32049930994E+02 -0.60288069217E+03  0.61316428282E+03  0.00000000000E+00 0.  1.
<mgrwt>
<rscale>  4 0.81984343E+03</rscale>
<asrwt>0</asrwt>
<pdfrwt beam="1">  1        1 0.23077398E-01 0.81984343E+03</pdfrwt>
<pdfrwt beam="2">  1       -1 0.17234088E+00 0.81984343E+03</pdfrwt>
<totfact> 0.52100224E+01</totfact>
</mgrwt>
</event>
<event>
 5    0  0.5719562E-003  0.4915489E+03  0.7546771E-02  0.1016009E+00
         -2   -1    0    0    0  501 -0.00000000000E+00  0.00000000000E+00  0.24541558422E+02  0.24541558422E+02  0.00000000000E+00 0.  1.
          2   -1    0    0  502    0  0.00000000000E+00 -0.00000000000E+00 -0.24613384344E+04  0.24613384344E+04  0.00000000000E+00 0. -1.
         25    1    1    2    0    0 -0.28978806755E+02 -0.22396926132E+03 -0.12966909438E+04  0.13221325217E+04  0.12500000000E+03 0.  0.
          1    1    1    2  502    0  0.25247009424E+02  0.16656600705E+03 -0.96025090185E+03  0.97491714555E+03  0.00000000000E+00 0.  1.
         -1    1    1    2    0  501  0.37317973307E+01  0.57403254266E+02 -0.17985503031E+03  0.18883032553E+03  0.00000000000E+00 0. -1.
<mgrwt>
<rscale>  4 0.49154890E+03</rscale>
<asrwt>0</asrwt>
<pdfrwt beam="1">  1        2 0.37866747E+00 0.49154890E+03</pdfrwt>
<pdfrwt beam="2">  1       -2 0.37756242E-02 0.49154890E+03</pdfrwt>
<totfact> 0.12338454E+03</totfact>
</mgrwt>
</event>
<event>
 5    0  0.5719562E-003  0.6012145E+03  0.7546771E-02  0.9902890E-01
         -1   -1    0    0    0  501 -0.00000000000E+00  0.00000000000E+00  0.14680524381E+03  0.14680524381E+03  0.00000000000E+00 0.  1.
          1   -1    0    0  502    0  0.00000000000E+00 -0.00000000000E+00 -0.61554140800E+03  0.61554140800E+03  0.00000000000E+00 0. -1.
         25    1    1    2    0    0  0.22789864783E+03 -0.14559636145E+03 -0.28976214630E+03  0.41559980219E+03  0.12500000000E+03 0.  0.
          3    1    1    2  502    0 -0.71618406155E+02  0.52726097300E+02  0.37249702982E+01  0.89011869099E+02  0.00000000000E+00 0.  1.
         -3    1    1    2    0  501 -0.15628024167E+03  0.92870264151E+02 -0.18269898819E+03  0.25773498053E+03  0.00000000000E+00 0. -1.
<mgrwt>
<rscale>  4 0.60121446E+03</rscale>
<asrwt>0</asrwt>
<pdfrwt beam="1">  1        1 0.94698677E-01 0.60121446E+03</pdfrwt>
<pdfrwt beam="2">  1       -1 0.22585422E-01 0.60121446E+03</pdfrwt>
<totfact> 0.55512715E+02</totfact>
</mgrwt>
</event>
<event>
 5    0  0.5719562E-003  0.5124273E+03  0.7546771E-02  0.1010585E+00
          2   -1    0    0  502    0  0.00000000000E+00  0.00000000000E+00  0.25970772907E+04  0.25970772907E+04  0.00000000000E+00 0. -1.
         -2   -1    0    0    0  501 -0.00000000000E+00 -0.00000000000E+00 -0.25276657661E+02  0.25276657661E+02  0.00000000000E+00 0.  1.
         25    1    1    2    0    0  0.76787803730E+02 -0.21032402176E+03  0.16512232335E+04  0.16710163757E+04  0.12500000000E+03 0.  0.
          3    1    1    2  502    0 -0.32694063600E+02  0.91770969955E+01  0.12205121128E+03  0.12668709121E+03  0.00000000000E+00 0. -1.
         -3    1    1    2    0  501 -0.44093740131E+02  0.20114692477E+03  0.79852618826E+03  0.82465048147E+03  0.00000000000E+00 0.  1.
<mgrwt>
<rscale>  4 0.51242730E+03</rscale>
<asrwt>0</asrwt>
<pdfrwt beam="1">  1        2 0.39955014E+00 0.51242730E+03</pdfrwt>
<pdfrwt beam="2">  1       -2 0.38887186E-02 0.51242730E+03</pdfrwt>
<totfact> 0.98773360E+02</totfact>
</mgrwt>
</event>
<event>
 5    0  0.5719562E-003  0.5542815E+03  0.7546771E-02  0.1000508E+00
         -2   -1    0    0    0  501 -0.00000000000E+00  0.00000000000E+00  0.57085277528E+02  0.57085277528E+02  0.00000000000E+00 0.  1.
          2   -1    0    0  502    0  0.00000000000E+00 -0.00000000000E+00 -0.13454781544E+04  0.13454781544E+04  0.00000000000E+00 0. -1.
         25    1    1    2    0    0 -0.48986744431E+02  0.22175844268E+03 -0.96718038083E+03  0.10013188289E+04  0.12500000000E+03 0.  0.
          1    1    1    2  502    0  0.22267257011E+02 -0.20664614857E+03 -0.26088091682E+03  0.33355256589E+03  0.00000000000E+00 0.  1.
         -1    1    1    2    0  501  0.26719487420E+02 -0.15112294111E+02 -0.60331579212E+02  0.67692037135E+02  0.00000000000E+00 0. -1.
<mgrwt>
<rscale>  4 0.55428149E+03</rscale>
<asrwt>0</asrwt>
<pdfrwt beam="1">  1        2 0.20699663E+00 0.55428149E+03</pdfrwt>
<pdfrwt beam="2">  1       -2 0.87823507E-02 0.55428149E+03</pdfrwt>
<totfact> 0.13379451E+03</totfact>
</mgrwt>
</event>
<event>
 5    0  0.5719562E-003  0.1051679E+04  0.7546771E-02  0.9253612E-01
          2   -1    0    0  502    0  0.00000000000E+00  0.00000000000E+00  0.40528257699E+03  0.40528257699E+03  0.00000000000E+00 0. -1.
         -2   -1    0    0    0  501 -0.00000000000E+00 -0.00000000000E+00 -0.68225818425E+03  0.68225818425E+03  0.00000000000E+00 0.  1.
         25    1    1    2    0    0 -0.33014082512E+03 -0.30587304785E+03  0.11967593834E+03  0.48218110294E+03  0.12500000000E+03 0.  0.
          2    1    1    2  502    0  0.31078635225E+03  0.27706489284E+03 -0.38903932902E+03  0.56982866821E+03  0.00000000000E+00 0.  1.
         -2    1    1    2    0  501  0.19354472868E+02  0.28808155013E+02 -0.76122165836E+01  0.35530990087E+02  0.00000000000E+00 0. -1.
<mgrwt>
<rscale>  4 0.10516793E+04</rscale>
<asrwt>0</asrwt>
<pdfrwt beam="1">  1        2 0.62351166E-01 0.10516793E+04</pdfrwt>
<pdfrwt beam="2">  1       -2 0.10496280E+00 0.10516793E+04</pdfrwt>
<totfact> 0.57394958E+01</totfact>
</mgrwt>
</event>
<event>
 5    0  0.5719562E-003  0.6108924E+03  0.7546771E-02  0.9883062E-01
          1   -1    0    0  502    0  0.00000000000E+00  0.00000000000E+00  0.34864111962E+03  0.34864111962E+03  0.00000000000E+00 0. -1.
         -1   -1    0    0    0  501 -0.00000000000E+00 -0.00000000000E+00 -0.26760289657E+03  0.26760289657E+03  0.00000000000E+00 0.  1.
         25    1    1    2    0    0 -0.22582818559E+02 -0.22436417963E+03  0.19792836691E+03  0.32503831654E+03  0.12500000000E+03 0.  0.
          3    1    1    2  502    0 -0.34667094664E+01  0.18127862310E+03 -0.14623068610E+03  0.23293211634E+03  0.00000000000E+00 0.  1.
         -3    1    1    2    0  501  0.26049528025E+02  0.43085556532E+02  0.29340542249E+02  0.58273583307E+02  0.00000000000E+00 0. -1.
<mgrwt>
<rscale>  4 0.61089238E+03</rscale>
<asrwt>0</asrwt>
<pdfrwt beam="1">  1        1 0.53637095E-01 0.61089238E+03</pdfrwt>
<pdfrwt beam="2">  1       -1 0.41169676E-01 0.61089238E+03</pdfrwt>
<totfact> 0.42096831E+02</totfact>
</mgrwt>
</event>
<event>
 5    0  0.5719562E-003  0.9036908E+03  0.7546771E-02  0.9420980E-01
         -2   -1    0    0    0  501 -0.00000000000E+00  0.00000000000E+00  0.17926683468E+03  0.17926683468E+03  0.00000000000E+00 0. -1.
          2   -1    0    0  502    0  0.00000000000E+00 -0.00000000000E+00 -0.11388846748E+04  0.11388846748E+04  0.00000000000E+00 0.  1.
         25    1    1    2    0    0 -0.67969605144E+02  0.19122843600E+03  0.64486394374E+02  0.24692443585E+03  0.12500000000E+03 0.  0.
          4    1    1    2  502    0  0.13456375965E+03 -0.19518528084E+03 -0.66540589886E+03  0.70637788010E+03  0.00000000000E+00 0.  1.
         -4    1    1    2    0  501 -0.66594154503E+02  0.39568448384E+01 -0.35869833566E+03  0.36484919355E+03  0.00000000000E+00 0. -1.
<mgrwt>
<rscale>  4 0.90369077E+03</rscale>
<asrwt>0</asrwt>
<pdfrwt beam="1">  1        2 0.17521302E+00 0.90369077E+03</pdfrwt>
<pdfrwt beam="2">  1       -2 0.27579514E-01 0.90369077E+03</pdfrwt>
<totfact> 0.24741181E+02</totfact>
</mgrwt>
</event>
<event>
 5    0  0.5719562E-003  0.1067206E+04  0.7546771E-02  0.9237758E-01
         -1   -1    0    0    0  501 -0.00000000000E+00  0.00000000000E+00  0.20934912291E+03  0.20934912291E+03  0.00000000000E+00 0.  1.
          1   -1    0    0  502    0  0.00000000000E+00 -0.00000000000E+00 -0.13600840548E+04  0.13600840548E+04  0.00000000000E+00 0. -1.
         25    1    1    2    0    0  0.25552322911E+03  0.30211404567E+03 -0.12331737199E+03  0.43289397252E+03  0.12500000000E+03 0.  0.
          3    1    1    2  502    0 -0.29638978773E+03 -0.18910156354E+03 -0.87105211070E+03  0.93932852994E+03  0.00000000000E+00 0. -1.
         -3    1    1    2    0  501  0.40866558619E+02 -0.11301248213E+03 -0.15636544921E+03  0.19721067526E+03  0.00000000000E+00 0.  1.
<mgrwt>
<rscale>  4 0.10672065E+04</rscale>
<asrwt>0</asrwt>
<pdfrwt beam="1">  1        1 0.20924370E+00 0.10672065E+04</pdfrwt>
<pdfrwt beam="2">  1       -1 0.32207557E-01 0.10672065E+04</pdfrwt>
<totfact> 0.73633443E+01</totfact>
</mgrwt>
</event>
<event>
 5    0  0.5719562E-003  0.6137908E+03  0.7546771E-02  0.9877201E-01
         -2   -1    0    0    0  501 -0.00000000000E+00  0.00000000000E+00  0.10548413022E+03  0.10548413022E+03  0.00000000000E+00 0.  1.
          2   -1    0    0  502    0  0.00000000000E+00 -0.00000000000E+00 -0.89288105366E+03  0.89288105366E+03  0.00000000000E+00 0. -1.
         25    1    1    2    0    0 -0.22204552028E+03  0.13988889957E+03 -0.31523080459E+03  0.42879899423E+03  0.12500000000E+03 0.  0.
          2    1    1    2  502    0  0.72328958136E+02 -0.14932518411E+03 -0.28405381585E+03  0.32896209371E+03  0.00000000000E+00 0. -1.
         -2    1    1    2    0  501  0.14971656214E+03  0.94362845416E+01 -0.18811230300E+03  0.24060409594E+03  0.00000000000E+00 0.  1.
<mgrwt>
<rscale>  4 0.61379078E+03</rscale>
<asrwt>0</asrwt>
<pdfrwt beam="1">  1        2 0.13736631E+00 0.61379078E+03</pdfrwt>
<pdfrwt beam="2">  1       -2 0.16228328E-01 0.61379078E+03</pdfrwt>
<totfact> 0.91453083E+02</totfact>
</mgrwt>
</event>
<event>
 5    0  0.5719562E-003  0.6494181E+03  0.7546771E-02  0.9807872E-01
          1   -1    0    0  502    0  0.00000000000E+00  0.00000000000E+00  0.39029052541E+04  0.39029052541E+04  0.00000000000E+00 0.  1.
         -1   -1    0    0    0  501 -0.00000000000E+00 -0.00000000000E+00 -0.27014742953E+02  0.27014742953E+02  0.00000000000E+00 0. -1.
         25    1    1    2    0    0  0.82005331175E+02  0.28520887038E+03  0.23996705945E+04  0.24211800710E+04  0.12500000000E+03 0.  0.
          1    1    1    2  502    0 -0.34285953508E+02 -0.15480349941E+03  0.55837389321E+03  0.58044901125E+03  0.00000000000E+00 0. -1.
         -1    1    1    2    0  501 -0.47719377667E+02 -0.13040537097E+03  0.91784602341E+03  0.92829091478E+03  0.00000000000E+00 0.  1.
<mgrwt>
<rscale>  4 0.64941815E+03</rscale>
<asrwt>0</asrwt>
<pdfrwt beam="1">  1        1 0.60044651E+00 0.64941815E+03</pdfrwt>
<pdfrwt beam="2">  1       -1 0.41561174E-02 0.64941815E+03</pdfrwt>
<totfact> 0.31878430E+01</totfact>
</mgrwt>
</event>
<event>
 5    0  0.5719562E-003  0.5413132E+03  0.7546771E-02  0.1003525E+00
         -2   -1    0    0    0  501 -0.00000000000E+00  0.00000000000E+00  0.58114688439E+02  0.58114688439E+02  0.00000000000E+00 0.  1.
          2   -1    0    0  502    0  0.00000000000E+00 -0.00000000000E+00 -0.12605245399E+04  0.12605245399E+04  0.00000000000E+00 0. -1.
         25    1    1    2    0    0  0.13280157699E+03  0.17887625843E+03 -0.61263230160E+03  0.66375922716E+03  0.12500000000E+03 0.  0.
          2    1    1    2  502    0 -0.11495649149E+03 -0.16928923754E+03 -0.29283938900E+03  0.35725166009E+03  0.00000000000E+00 0.  1.
         -2    1    1    2    0  501 -0.17845085496E+02 -0.95870208857E+01 -0.29693816081E+03  0.29762834105E+03  0.00000000000E+00 0. -1.
<mgrwt>
<rscale>  4 0.54131318E+03</rscale>
<asrwt>0</asrwt>
<pdfrwt beam="1">  1        2 0.19392685E+00 0.54131318E+03</pdfrwt>
<pdfrwt beam="2">  1       -2 0.89407213E-02 0.54131318E+03</pdfrwt>
<totfact> 0.14540774E+03</totfact>
</mgrwt>
</event>
<event>
 5    0  0.5719562E-003  0.4878725E+03  0.7546771E-02  0.1016994E+00
          2   -1    0    0  502    0  0.00000000000E+00  0.00000000000E+00  0.66425209868E+03  0.66425209868E+03  0.00000000000E+00 0.  1.
         -2   -1    0    0    0  501 -0.00000000000E+00 -0.00000000000E+00 -0.89581791534E+02  0.89581791534E+02  0.00000000000E+00 0. -1.
         25    1    1    2    0    0 -0.18931986092E+03 -0.12371976551E+03  0.29762760523E+03  0.39415197769E+03  0.12500000000E+03 0.  0.
          2    1    1    2  502    0  0.25280332403E+02  0.13752850241E+02  0.18000093793E+02  0.33944653080E+02  0.00000000000E+00 0. -1.
         -2    1    1    2    0  501  0.16403952852E+03  0.10996691527E+03  0.25904260812E+03  0.32573725944E+03  0.00000000000E+00 0.  1.
<mgrwt>
<rscale>  4 0.48787250E+03</rscale>
<asrwt>0</asrwt>
<pdfrwt beam="1">  1        2 0.10219263E+00 0.48787250E+03</pdfrwt>
<pdfrwt beam="2">  1       -2 0.13781815E-01 0.48787250E+03</pdfrwt>
<totfact> 0.17681058E+03</totfact>
</mgrwt>
</event>
<event>
 5    0  0.5719562E-003  0.9064899E+03  0.7546771E-02  0.9417505E-01
         -1   -1    0    0    0  501 -0.00000000000E+00  0.00000000000E+00  0.75565232144E+02  0.75565232144E+02  0.00000000000E+00 0.  1.
          1   -1    0    0  502    0  0.00000000000E+00 -0.00000000000E+00 -0.27185913011E+04  0.27185913011E+04  0.00000000000E+00 0. -1.
         25    1    1    2    0    0 -0.85743927414E+02 -0.38395901130E+03 -0.11425241262E+04  0.12148098298E+04  0.12500000000E+03 0.  0.
          1    1    1    2  502    0 -0.13871204871E+02  0.29608375762E+03 -0.13330453052E+04  0.13656016211E+04  0.00000000000E+00 0. -1.
         -1    1    1    2    0  501  0.99615132285E+02  0.87875253679E+02 -0.16745663749E+03  0.21374508235E+03  0.00000000000E+00 0.  1.
<mgrwt>
<rscale>  4 0.90648990E+03</rscale>
<asrwt>0</asrwt>
<pdfrwt beam="1">  1        1 0.41824480E+00 0.90648990E+03</pdfrwt>
<pdfrwt beam="2">  1       -1 0.11625421E-01 0.90648990E+03</pdfrwt>
<totfact> 0.48710442E+01</totfact>
</mgrwt>
</event>
<event>
 5    0  0.5719562E-003  0.4689718E+03  0.7546771E-02  0.1022211E+00
          3   -1    0    0  502    0  0.00000000000E+00  0.00000000000E+00  0.18178624347E+03  0.18178624347E+03  0.00000000000E+00 0. -1.
         -3   -1    0    0    0  501 -0.00000000000E+00 -0.00000000000E+00 -0.30246310864E+03  0.30246310864E+03  0.00000000000E+00 0.  1.
         25    1    1    2    0    0  0.12786913642E+03 -0.15550732051E+03 -0.14443187743E+03  0.27752226937E+03  0.12500000000E+03 0.  0.
          1    1    1    2  502    0 -0.48150410844E+02  0.40908470159E+02  0.22662679730E+02  0.67123483579E+02  0.00000000000E+00 0.  1.
         -1    1    1    2    0  501 -0.79718725576E+02  0.11459885035E+03  0.10923325320E+01  0.13960359916E+03  0.00000000000E+00 0. -1.
<mgrwt>
<rscale>  4 0.46897178E+03</rscale>
<asrwt>0</asrwt>
<pdfrwt beam="1">  1        3 0.27967115E-01 0.46897178E+03</pdfrwt>
<pdfrwt beam="2">  1       -3 0.46532786E-01 0.46897178E+03</pdfrwt>
<totfact> 0.14745694E+02</totfact>
</mgrwt>
</event>
<event>
 5    0  0.5719562E-003  0.7366825E+03  0.7546771E-02  0.9656478E-01
         -2   -1    0    0    0  501 -0.00000000000E+00  0.00000000000E+00  0.78921905549E+02  0.78921905549E+02  0.00000000000E+00 0. -1.
          2   -1    0    0  502    0  0.00000000000E+00 -0.00000000000E+00 -0.17191078672E+04  0.17191078672E+04  0.00000000000E+00 0.  1.
         25    1    1    2    0    0 -0.15743236488E+03  0.31009601096E+03 -0.66480402379E+03  0.76061414369E+03  0.12500000000E+03 0.  0.
          2    1    1    2  502    0  0.15805992299E+03 -0.26874409598E+03 -0.84887407003E+03  0.90431936568E+03  0.00000000000E+00 0. -1.
         -2    1    1    2    0  501 -0.62755811284E+00 -0.41351914982E+02 -0.12650786781E+03  0.13309626336E+03  0.00000000000E+00 0.  1.
<mgrwt>
<rscale>  4 0.73668248E+03</rscale>
<asrwt>0</asrwt>
<pdfrwt beam="1">  1        2 0.26447815E+00 0.73668248E+03</pdfrwt>
<pdfrwt beam="2">  1       -2 0.12141831E-01 0.73668248E+03</pdfrwt>
<totfact> 0.48610749E+02</totfact>
</mgrwt>
</event>
<event>
 5    0  0.5719562E-003  0.1022593E+04  0.7546771E-02  0.9284106E-01
          2   -1    0    0  502    0  0.00000000000E+00  0.00000000000E+00  0.19418960100E+04  0.19418960100E+04  0.00000000000E+00 0.  1.
         -2   -1    0    0    0  501 -0.00000000000E+00 -0.00000000000E+00 -0.13462320456E+03  0.13462320456E+03  0.00000000000E+00 0. -1.
         25    1    1    2    0    0 -0.46409592810E+03 -0.17913338737E+03  0.84854084455E+03  0.99152426386E+03  0.12500000000E+03 0.  0.
          1    1    1    2  502    0  0.42253834855E+03  0.15197510493E+03  0.78550510254E+03  0.90479464777E+03  0.00000000000E+00 0. -1.
         -1    1    1    2    0  501  0.41557579549E+02  0.27158282437E+02  0.17322685831E+03  0.18020030290E+03  0.00000000000E+00 0.  1.
<mgrwt>
<rscale>  4 0.10225933E+04</rscale>
<asrwt>0</asrwt>
<pdfrwt beam="1">  1        2 0.29875321E+00 0.10225933E+04</pdfrwt>
<pdfrwt beam="2">  1       -2 0.20711264E-01 0.10225933E+04</pdfrwt>
<totfact> 0.14461414E+02</totfact>
</mgrwt>
</event>
<event>
 5    0  0.5719562E-003  0.7985411E+03  0.7546771E-02  0.9562131E-01
          2   -1    0    0  502    0  0.00000000000E+00  0.00000000000E+00  0.69495767086E+03  0.69495767086E+03  0.00000000000E+00 0. -1.
         -2   -1    0    0    0  501 -0.00000000000E+00 -0.00000000000E+00 -0.22939091221E+03  0.22939091221E+03  0.00000000000E+00 0.  1.
         25    1    1    2    0    0  0.91290320091E+01  0.29673905562E+03  0.39169731341E+03  0.50713823726E+03  0.12500000000E+03 0.  0.
          4    1    1    2  502    0  0.27851498392E+00 -0.15792284456E+03  0.18202502772E+03  0.24098301417E+03  0.00000000000E+00 0. -1.
         -4    1    1    2    0  501 -0.94075469931E+01 -0.13881621107E+03 -0.10815558248E+03  0.17622733164E+03  0.00000000000E+00 0.  1.
<mgrwt>
<rscale>  4 0.79854110E+03</rscale>
<asrwt>0</asrwt>
<pdfrwt beam="1">  1        2 0.10691656E+00 0.79854110E+03</pdfrwt>
<pdfrwt beam="2">  1       -2 0.35290910E-01 0.79854110E+03</pdfrwt>
<totfact> 0.31341528E+02</totfact>
</mgrwt>
</event>
<event>
 5    0  0.5719562E-003  0.6518048E+03  0.7546771E-02  0.9803398E-01
          1   -1    0    0  502    0  0.00000000000E+00  0.00000000000E+00  0.57527668130E+03  0.57527668130E+03  0.00000000000E+00 0. -1.
         -1   -1    0    0    0  501 -0.00000000000E+00 -0.00000000000E+00 -0.18462834054E+03  0.18462834054E+03  0.00000000000E+00 0.  1.
         25    1    1    2    0    0 -0.18942734249E+03  0.13627093916E+03  0.23644706228E+03  0.35494323519E+03  0.12500000000E+03 0.  0.
          2    1    1    2  502    0 -0.82719998627E+01  0.79090146467E+02  0.53136138847E+02  0.95640611152E+02  0.00000000000E+00 0.  1.
         -2    1    1    2    0  501  0.19769934235E+03 -0.21536108562E+03  0.10106513964E+03  0.30932117551E+03  0.00000000000E+00 0. -1.
<mgrwt>
<rscale>  4 0.65180481E+03</rscale>
<asrwt>0</asrwt>
<pdfrwt beam="1">  1        1 0.88504104E-01 0.65180481E+03</pdfrwt>
<pdfrwt beam="2">  1       -1 0.28404360E-01 0.65180481E+03</pdfrwt>
<totfact> 0.41314026E+02</totfact>
</mgrwt>
</event>
<event>
 5    0  0.5719562E-003  0.1150002E+04  0.7546771E-02  0.9157781E-01
         -2   -1    0    0    0  501 -0.00000000000E+00  0.00000000000E+00  0.11495589777E+04  0.11495589777E+04  0.00000000000E+00 0. -1.
          2   -1    0    0  502    0  0.00000000000E+00 -0.00000000000E+00 -0.28761144900E+03  0.28761144900E+03  0.00000000000E+00 0.  1.
         25    1    1    2    0    0  0.27694650523E+03 -0.48085633187E+03  0.54516370594E+03  0.78787730322E+03  0.12500000000E+03 0.  0.
          4    1    1    2  502    0 -0.22084226027E+03  0.41543767488E+03  0.21902995613E+03  0.51897387922E+03  0.00000000000E+00 0. -1.
         -4    1    1    2    0  501 -0.56104244955E+02  0.65418656997E+02  0.97753866652E+02  0.13031924428E+03  0.00000000000E+00 0.  1.
<mgrwt>
<rscale>  4 0.11500023E+04</rscale>
<asrwt>0</asrwt>
<pdfrwt beam="1">  1        2 0.44247916E-01 0.11500023E+04</pdfrwt>
<pdfrwt beam="2">  1       -2 0.17685522E+00 0.11500023E+04</pdfrwt>
<totfact> 0.21699282E+01</totfact>
</mgrwt>
</event>
<event>
 5    0  0.5719562E-003  0.4733955E+03  0.7546771E-02  0.1020966E+00
          4   -1    0    0  502    0  0.00000000000E+00  0.00000000000E+00  0.25301996588E+03  0.25301996588E+03  0.00000000000E+00 0.  1.
         -4   -1    0    0    0  501 -0.00000000000E+00 -0.00000000000E+00 -0.22142846468E+03  0.22142846468E+03  0.00000000000E+00 0. -1.
         25    1    1    2    0    0 -0.13856652492E+03 -0.14763153077E+03 -0.62971681635E+02  0.24614260784E+03  0.12500000000E+03 0.  0.
          3    1    1    2  502    0  0.74565965071E+02  0.62360753280E+02  0.22973332748E+02  0.99883535751E+02  0.00000000000E+00 0.  1.
         -3    1    1    2    0  501  0.64000559847E+02  0.85270777487E+02  0.71589850091E+02  0.12842228697E+03  0.00000000000E+00 0. -1.
<mgrwt>
<rscale>  4 0.47339549E+03</rscale>
<asrwt>0</asrwt>
<pdfrwt beam="1">  1        4 0.38926149E-01 0.47339549E+03</pdfrwt>
<pdfrwt beam="2">  1       -4 0.34065918E-01 0.47339549E+03</pdfrwt>
<totfact> 0.10467494E+02</totfact>
</mgrwt>
</event>
<event>
 5    0  0.5719562E-003  0.9080981E+03  0.7546771E-02  0.9415515E-01
          1   -1    0    0  502    0  0.00000000000E+00  0.00000000000E+00  0.91855061497E+03  0.91855061497E+03  0.00000000000E+00 0. -1.
         -1   -1    0    0    0  501 -0.00000000000E+00 -0.00000000000E+00 -0.22444110787E+03  0.22444110787E+03  0.00000000000E+00 0.  1.
         25    1    1    2    0    0 -0.95224835350E+02 -0.35996841332E+03  0.63803298341E+03  0.74923702243E+03  0.12500000000E+03 0.  0.
          2    1    1    2  502    0  0.35759975126E+02  0.21646369732E+03 -0.20899856267E+02  0.22039081667E+03  0.00000000000E+00 0.  1.
         -2    1    1    2    0  501  0.59464860224E+02  0.14350471600E+03  0.76976379953E+02  0.17336388374E+03  0.00000000000E+00 0. -1.
<mgrwt>
<rscale>  4 0.90809805E+03</rscale>
<asrwt>0</asrwt>
<pdfrwt beam="1">  1        1 0.14131548E+00 0.90809805E+03</pdfrwt>
<pdfrwt beam="2">  1       -1 0.34529402E-01 0.90809805E+03</pdfrwt>
<totfact> 0.14054535E+02</totfact>
</mgrwt>
</event>
<event>
 5    0  0.5719562E-003  0.1047357E+04  0.7546771E-02  0.9258077E-01
          2   -1    0    0  502    0  0.00000000000E+00  0.00000000000E+00  0.41201338353E+03  0.41201338353E+03  0.00000000000E+00 0.  1.
         -2   -1    0    0    0  501 -0.00000000000E+00 -0.00000000000E+00 -0.66560703950E+03  0.66560703950E+03  0.00000000000E+00 0. -1.
         25    1    1    2    0    0  0.19963181187E+01 -0.45440883692E+03 -0.81475152983E+01  0.47136266119E+03  0.12500000000E+03 0.  0.
          3    1    1    2  502    0 -0.11958915085E+02  0.17455908457E+03 -0.27365966332E+03  0.32481302466E+03  0.00000000000E+00 0. -1.
         -3    1    1    2    0  501  0.99625969661E+01  0.27984975235E+03  0.28213522647E+02  0.28144473718E+03  0.00000000000E+00 0.  1.
<mgrwt>
<rscale>  4 0.10473567E+04</rscale>
<asrwt>0</asrwt>
<pdfrwt beam="1">  1        2 0.63386676E-01 0.10473567E+04</pdfrwt>
<pdfrwt beam="2">  1       -2 0.10240108E+00 0.10473567E+04</pdfrwt>
<totfact> 0.59789594E+01</totfact>
</mgrwt>
</event>
<event>
 5    0  0.5719562E-003  0.6243939E+03  0.7546771E-02  0.9856050E-01
         -2   -1    0    0    0  501 -0.00000000000E+00  0.00000000000E+00  0.13034934681E+03  0.13034934681E+03  0.00000000000E+00 0.  1.
          2   -1    0    0  502    0  0.00000000000E+00 -0.00000000000E+00 -0.74773622159E+03  0.74773622159E+03  0.00000000000E+00 0. -1.
         25    1    1    2    0    0  0.13131698227E+03  0.17097667028E+03 -0.33903031659E+03  0.42076564401E+03  0.12500000000E+03 0.  0.
          2    1    1    2  502    0 -0.31119662092E+02 -0.80106889551E+02 -0.30721605602E+03  0.31900979954E+03  0.00000000000E+00 0. -1.
         -2    1    1    2    0  501 -0.10019732017E+03 -0.90869780732E+02  0.28859497834E+02  0.13831012485E+03  0.00000000000E+00 0.  1.
<mgrwt>
<rscale>  4 0.62439388E+03</rscale>
<asrwt>0</asrwt>
<pdfrwt beam="1">  1        2 0.11503634E+00 0.62439388E+03</pdfrwt>
<pdfrwt beam="2">  1       -2 0.20053745E-01 0.62439388E+03</pdfrwt>
<totfact> 0.80395528E+02</totfact>
</mgrwt>
</event>
<event>
 5    0  0.5719562E-003  0.6131940E+03  0.7546771E-02  0.9878405E-01
         -2   -1    0    0    0  501 -0.00000000000E+00  0.00000000000E+00  0.42255276486E+03  0.42255276486E+03  0.00000000000E+00 0. -1.
          2   -1    0    0  502    0  0.00000000000E+00 -0.00000000000E+00 -0.22246149358E+03  0.22246149358E+03  0.00000000000E+00 0.  1.
         25    1    1    2    0    0  0.41807886428E+02  0.23543239778E+03  0.23485841310E+03  0.35771467330E+03  0.12500000000E+03 0.  0.
          3    1    1    2  502    0  0.25360949147E+01  0.22060142731E+02  0.56402420910E+01  0.22910565370E+02  0.00000000000E+00 0. -1.
         -3    1    1    2    0  501 -0.44343981342E+02 -0.25749254051E+03 -0.40407383917E+02  0.26438901977E+03  0.00000000000E+00 0.  1.
<mgrwt>
<rscale>  4 0.61319400E+03</rscale>
<asrwt>0</asrwt>
<pdfrwt beam="1">  1        2 0.34224845E-01 0.61319400E+03</pdfrwt>
<pdfrwt beam="2">  1       -2 0.65008117E-01 0.61319400E+03</pdfrwt>
<totfact> 0.33818168E+02</totfact>
</mgrwt>
</event>
<event>
 5    0  0.5719562E-003  0.5164730E+03  0.7546771E-02  0.1009566E+00
          2   -1    0    0  502    0  0.00000000000E+00  0.00000000000E+00  0.13701640588E+04  0.13701640588E+04  0.00000000000E+00 0.  1.
         -2   -1    0    0    0  501 -0.00000000000E+00 -0.00000000000E+00 -0.48670145091E+02  0.48670145091E+02  0.00000000000E+00 0. -1.
         25    1    1    2    0    0  0.99949696616E+02 -0.21026795683E+03  0.74641610091E+03  0.79181093149E+03  0.12500000000E+03 0.  0.
          4    1    1    2  502    0 -0.26570674462E+02  0.24902634017E+00  0.46880865913E+02  0.53887645562E+02  0.00000000000E+00 0.  1.
         -4    1    1    2    0  501 -0.73379022154E+02  0.21001893049E+03  0.52819694689E+03  0.57313562685E+03  0.00000000000E+00 0. -1.
<mgrwt>
<rscale>  4 0.51647298E+03</rscale>
<asrwt>0</asrwt>
<pdfrwt beam="1">  1        2 0.21079444E+00 0.51647298E+03</pdfrwt>
<pdfrwt beam="2">  1       -2 0.74877157E-02 0.51647298E+03</pdfrwt>
<totfact> 0.16724030E+03</totfact>
</mgrwt>
</event>
<event>
 5    0  0.5719562E-003  0.4945379E+03  0.7546771E-02  0.1015215E+00
         -2   -1    0    0    0  501 -0.00000000000E+00  0.00000000000E+00  0.25582085181E+02  0.25582085181E+02  0.00000000000E+00 0.  1.
          2   -1    0    0  502    0  0.00000000000E+00 -0.00000000000E+00 -0.23900290217E+04  0.23900290217E+04  0.00000000000E+00 0. -1.
         25    1    1    2    0    0  0.61586134540E+02  0.21047862690E+03 -0.15822976999E+04  0.16023061865E+04  0.12500000000E+03 0.  0.
          2    1    1    2  502    0 -0.47737893539E+02 -0.17450617020E+03 -0.58176241784E+03  0.60924446713E+03  0.00000000000E+00 0.  1.
         -2    1    1    2    0  501 -0.13848241001E+02 -0.35972456703E+02 -0.20038681880E+03  0.20406045322E+03  0.00000000000E+00 0. -1.
<mgrwt>
<rscale>  4 0.49453787E+03</rscale>
<asrwt>0</asrwt>
<pdfrwt beam="1">  1        2 0.36769675E+00 0.49453787E+03</pdfrwt>
<pdfrwt beam="2">  1       -2 0.39357057E-02 0.49453787E+03</pdfrwt>
<totfact> 0.12681729E+03</totfact>
</mgrwt>
</event>
<event>
 5    0  0.5719562E-003  0.7048549E+03  0.7546771E-02  0.9708965E-01
         -2   -1    0    0    0  501 -0.00000000000E+00  0.00000000000E+00  0.57714637369E+03  0.57714637369E+03  0.00000000000E+00 0. -1.
          2   -1    0    0  502    0  0.00000000000E+00 -0.00000000000E+00 -0.21520557269E+03  0.21520557269E+03  0.00000000000E+00 0.  1.
         25    1    1    2    0    0  0.21664408678E+03 -0.29683771945E+02  0.31397048194E+03  0.40251490678E+03  0.12500000000E+03 0.  0.
          3    1    1    2  502    0  0.13817559547E+02  0.31595246521E+02  0.13812270098E+03  0.14236244267E+03  0.00000000000E+00 0. -1.
         -3    1    1    2    0  501 -0.23046164633E+03 -0.19114745761E+01 -0.90152381918E+02  0.24747459694E+03  0.00000000000E+00 0.  1.
<mgrwt>
<rscale>  4 0.70485492E+03</rscale>
<asrwt>0</asrwt>
<pdfrwt beam="1">  1        2 0.33108550E-01 0.70485492E+03</pdfrwt>
<pdfrwt beam="2">  1       -2 0.88791749E-01 0.70485492E+03</pdfrwt>
<totfact> 0.17532607E+02</totfact>
</mgrwt>
</event>
<event>
 5    0  0.5719562E-003  0.5155950E+03  0.7546771E-02  0.1009787E+00
          1   -1    0    0  502    0  0.00000000000E+00  0.00000000000E+00  0.14494988112E+04  0.14494988112E+04  0.00000000000E+00 0. -1.
         -1   -1    0    0    0  501 -0.00000000000E+00 -0.00000000000E+00 -0.45850013121E+02  0.45850013121E+02  0.00000000000E+00 0.  1.
         25    1    1    2    0    0  0.21868130016E+03  0.89528383963E+02  0.65919775021E+03  0.71133924147E+03  0.12500000000E+03 0.  0.
          2    1    1    2  502    0 -0.26869016604E+02 -0.14027078858E+01  0.37070017120E+02  0.45804997675E+02  0.00000000000E+00 0.  1.
         -2    1    1    2    0  501 -0.19181228356E+03 -0.88125676077E+02  0.70738103075E+03  0.73820458518E+03  0.00000000000E+00 0. -1.
<mgrwt>
<rscale>  4 0.51559496E+03</rscale>
<asrwt>0</asrwt>
<pdfrwt beam="1">  1        1 0.22299978E+00 0.51559496E+03</pdfrwt>
<pdfrwt beam="2">  1       -1 0.70538493E-02 0.51559496E+03</pdfrwt>
<totfact> 0.79546540E+02</totfact>
</mgrwt>
</event>
<event>
 5    0  0.5719562E-003  0.5150531E+03  0.7546771E-02  0.1009923E+00
         -2   -1    0    0    0  501 -0.00000000000E+00  0.00000000000E+00  0.10224144764E+03  0.10224144764E+03  0.00000000000E+00 0.  1.
          2   -1    0    0  502    0  0.00000000000E+00 -0.00000000000E+00 -0.64865996149E+03  0.64865996149E+03  0.00000000000E+00 0. -1.
         25    1    1    2    0    0 -0.14087181757E+03  0.16142692452E+03 -0.44706309401E+03  0.51126698599E+03  0.12500000000E+03 0.  0.
          2    1    1    2  502    0  0.12849793018E+03 -0.14133370767E+03 -0.73603266519E+02  0.20470558328E+03  0.00000000000E+00 0.  1.
         -2    1    1    2    0  501  0.12373887392E+02 -0.20093216852E+02 -0.25752153330E+02  0.34928839857E+02  0.00000000000E+00 0. -1.
<mgrwt>
<rscale>  4 0.51505314E+03</rscale>
<asrwt>0</asrwt>
<pdfrwt beam="1">  1        2 0.99793839E-01 0.51505314E+03</pdfrwt>
<pdfrwt beam="2">  1       -2 0.15729454E-01 0.51505314E+03</pdfrwt>
<totfact> 0.14586494E+03</totfact>
</mgrwt>
</event>
<event>
 5    0  0.5719562E-003  0.7010374E+03  0.7546771E-02  0.9715460E-01
          2   -1    0    0  502    0  0.00000000000E+00  0.00000000000E+00  0.68131798403E+03  0.68131798403E+03  0.00000000000E+00 0. -1.
         -2   -1    0    0    0  501 -0.00000000000E+00 -0.00000000000E+00 -0.18033189857E+03  0.18033189857E+03  0.00000000000E+00 0.  1.
         25    1    1    2    0    0 -0.17032163148E+03  0.24905277812E+03  0.19858547909E+03  0.38222759836E+03  0.12500000000E+03 0.  0.
          1    1    1    2  502    0  0.16890237703E+03 -0.87785125428E+02  0.24040901017E+03  0.30664431086E+03  0.00000000000E+00 0. -1.
         -1    1    1    2    0  501  0.14192544462E+01 -0.16126765269E+03  0.61991596201E+02  0.17277797339E+03  0.00000000000E+00 0.  1.
<mgrwt>
<rscale>  4 0.70103742E+03</rscale>
<asrwt>0</asrwt>
<pdfrwt beam="1">  1        2 0.10481815E+00 0.70103742E+03</pdfrwt>
<pdfrwt beam="2">  1       -2 0.27743369E-01 0.70103742E+03</pdfrwt>
<totfact> 0.50546607E+02</totfact>
</mgrwt>
</event>
<event>
 5    0  0.5719562E-003  0.8822896E+03  0.7546771E-02  0.9447995E-01
          1   -1    0    0  502    0  0.00000000000E+00  0.00000000000E+00  0.17187710706E+03  0.17187710706E+03  0.00000000000E+00 0.  1.
         -1   -1    0    0    0  501 -0.00000000000E+00 -0.00000000000E+00 -0.11322550375E+04  0.11322550375E+04  0.00000000000E+00 0. -1.
         25    1    1    2    0    0  0.37625238989E+03 -0.20526476551E+02 -0.66574964166E+03  0.77513533174E+03  0.12500000000E+03 0.  0.
          3    1    1    2  502    0  0.13565386388E+02 -0.33251415378E+02  0.23663478589E+01  0.35989942132E+02  0.00000000000E+00 0. -1.
         -3    1    1    2    0  501 -0.38981777628E+03  0.53777891929E+02 -0.29699463668E+03  0.49300687072E+03  0.00000000000E+00 0.  1.
<mgrwt>
<rscale>  4 0.88228957E+03</rscale>
<asrwt>0</asrwt>
<pdfrwt beam="1">  1        1 0.26442631E-01 0.88228957E+03</pdfrwt>
<pdfrwt beam="2">  1       -1 0.17419309E+00 0.88228957E+03</pdfrwt>
<totfact> 0.42056417E+01</totfact>
</mgrwt>
</event>
<event>
 5    0  0.5719562E-003  0.5805175E+03  0.7546771E-02  0.9946671E-01
         -2   -1    0    0    0  501 -0.00000000000E+00  0.00000000000E+00  0.80531028717E+02  0.80531028717E+02  0.00000000000E+00 0. -1.
          2   -1    0    0  502    0  0.00000000000E+00 -0.00000000000E+00 -0.10461824522E+04  0.10461824522E+04  0.00000000000E+00 0.  1.
         25    1    1    2    0    0 -0.30628474954E+02  0.20673707397E+03 -0.68245107319E+03  0.72459836360E+03  0.12500000000E+03 0.  0.
          1    1    1    2  502    0  0.53773260081E+02 -0.83671268436E+00 -0.14074787190E+03  0.15067258221E+03  0.00000000000E+00 0.  1.
         -1    1    1    2    0  501 -0.23144785127E+02 -0.20590036128E+03 -0.14245247837E+03  0.25144253508E+03  0.00000000000E+00 0. -1.
<mgrwt>
<rscale>  4 0.58051752E+03</rscale>
<asrwt>0</asrwt>
<pdfrwt beam="1">  1        2 0.16095115E+00 0.58051752E+03</pdfrwt>
<pdfrwt beam="2">  1       -2 0.12389389E-01 0.58051752E+03</pdfrwt>
<totfact> 0.11462210E+03</totfact>
</mgrwt>
</event>
<event>
 5    0  0.5719562E-003  0.7569534E+03  0.7546771E-02  0.9624504E-01
          2   -1    0    0  502    0  0.00000000000E+00  0.00000000000E+00  0.30785939459E+04  0.30785939459E+04  0.00000000000E+00 0. -1.
         -2   -1    0    0    0  501 -0.00000000000E+00 -0.00000000000E+00 -0.46529233585E+02  0.46529233585E+02  0.00000000000E+00 0.  1.
         25    1    1    2    0    0  0.46978776500E+02 -0.29637052653E+03  0.84927543644E+03  0.90936035837E+03  0.12500000000E+03 0.  0.
          1    1    1    2  502    0  0.18058617701E+01  0.28651217114E+03  0.12832254415E+04  0.13148231893E+04  0.00000000000E+00 0. -1.
         -1    1    1    2    0  501 -0.48784638270E+02  0.98583553906E+01  0.89956383434E+03  0.90093963181E+03  0.00000000000E+00 0.  1.
<mgrwt>
<rscale>  4 0.75695341E+03</rscale>
<asrwt>0</asrwt>
<pdfrwt beam="1">  1        2 0.47362968E+00 0.75695341E+03</pdfrwt>
<pdfrwt beam="2">  1       -2 0.71583460E-02 0.75695341E+03</pdfrwt>
<totfact> 0.19293021E+02</totfact>
</mgrwt>
</event>
<event>
 5    0  0.5719562E-003  0.1002076E+04  0.7546771E-02  0.9306271E-01
          1   -1    0    0  502    0  0.00000000000E+00  0.00000000000E+00  0.22700082620E+04  0.22700082620E+04  0.00000000000E+00 0. -1.
         -1   -1    0    0    0  501 -0.00000000000E+00 -0.00000000000E+00 -0.11058947029E+03  0.11058947029E+03  0.00000000000E+00 0.  1.
         25    1    1    2    0    0 -0.24835868142E+03  0.37550626106E+03  0.77788419813E+03  0.90742262063E+03  0.12500000000E+03 0.  0.
          1    1    1    2  502    0  0.11556607512E+03 -0.35919990317E+03  0.10434979962E+04  0.11096252323E+04  0.00000000000E+00 0.  1.
         -1    1    1    2    0  501  0.13279260630E+03 -0.16306357894E+02  0.33803659742E+03  0.36354987937E+03  0.00000000000E+00 0. -1.
<mgrwt>
<rscale>  4 0.10020759E+04</rscale>
<asrwt>0</asrwt>
<pdfrwt beam="1">  1        1 0.34923201E+00 0.10020759E+04</pdfrwt>
<pdfrwt beam="2">  1       -1 0.17013766E-01 0.10020759E+04</pdfrwt>
<totfact> 0.52808953E+01</totfact>
</mgrwt>
</event>
<event>
 5    0  0.5719562E-003  0.9476889E+03  0.7546771E-02  0.9367856E-01
          1   -1    0    0  502    0  0.00000000000E+00  0.00000000000E+00  0.14129072334E+04  0.14129072334E+04  0.00000000000E+00 0. -1.
         -1   -1    0    0    0  501 -0.00000000000E+00 -0.00000000000E+00 -0.15891245497E+03  0.15891245497E+03  0.00000000000E+00 0.  1.
         25    1    1    2    0    0  0.14217293069E+01 -0.22503928615E+03  0.10623476833E+04  0.10930929978E+04  0.12500000000E+03 0.  0.
          4    1    1    2  502    0 -0.38339770608E+02  0.29410253080E+03  0.28747273990E+02  0.29798094300E+03  0.00000000000E+00 0.  1.
         -4    1    1    2    0  501  0.36918041301E+02 -0.69063244646E+02  0.16289982116E+03  0.18074574758E+03  0.00000000000E+00 0. -1.
<mgrwt>
<rscale>  4 0.94768889E+03</rscale>
<asrwt>0</asrwt>
<pdfrwt beam="1">  1        1 0.21737033E+00 0.94768889E+03</pdfrwt>
<pdfrwt beam="2">  1       -1 0.24448071E-01 0.94768889E+03</pdfrwt>
<totfact> 0.11007904E+02</totfact>
</mgrwt>
</event>
<event>
 5    0  0.5719562E-003  0.1169063E+04  0.7546771E-02  0.9140375E-01
         -1   -1    0    0    0  501 -0.00000000000E+00  0.00000000000E+00  0.75831864012E+03  0.75831864012E+03  0.00000000000E+00 0.  1.
          1   -1    0    0  502    0  0.00000000000E+00 -0.00000000000E+00 -0.45057190325E+03  0.45057190325E+03  0.00000000000E+00 0. -1.
         25    1    1    2    0    0 -0.28378336822E+03  0.11839423796E+03 -0.34132711714E+03  0.47610859744E+03  0.12500000000E+03 0.  0.
          4    1    1    2  502    0  0.14467983848E+03 -0.82819750002E+02  0.49434790252E+03  0.52170031184E+03  0.00000000000E+00 0. -1.
         -4    1    1    2    0  501  0.13910352975E+03 -0.35574487962E+02  0.15472595149E+03  0.21108163408E+03  0.00000000000E+00 0.  1.
<mgrwt>
<rscale>  4 0.11690630E+04</rscale>
<asrwt>0</asrwt>
<pdfrwt beam="1">  1        1 0.69318754E-01 0.11690630E+04</pdfrwt>
<pdfrwt beam="2">  1       -1 0.11666441E+00 0.11690630E+04</pdfrwt>
<totfact> 0.33631103E+01</totfact>
</mgrwt>
</event>
<event>
 5    0  0.5719562E-003  0.5652846E+03  0.7546771E-02  0.9980168E-01
          4   -1    0    0  502    0  0.00000000000E+00  0.00000000000E+00  0.86989867307E+03  0.86989867307E+03  0.00000000000E+00 0.  1.
         -4   -1    0    0    0  501 -0.00000000000E+00 -0.00000000000E+00 -0.91834443938E+02  0.91834443938E+02  0.00000000000E+00 0. -1.
         25    1    1    2    0    0 -0.13585441336E+03  0.22456016800E+03  0.48268545964E+03  0.56346600930E+03  0.12500000000E+03 0.  0.
          3    1    1    2  502    0  0.12999291104E+03 -0.18653996645E+03  0.26554709948E+03  0.34958629557E+03  0.00000000000E+00 0. -1.
         -3    1    1    2    0  501  0.58615023158E+01 -0.38020201555E+02  0.29831670011E+02  0.48680812148E+02  0.00000000000E+00 0.  1.
<mgrwt>
<rscale>  4 0.56528457E+03</rscale>
<asrwt>0</asrwt>
<pdfrwt beam="1">  1        4 0.13383056E+00 0.56528457E+03</pdfrwt>
<pdfrwt beam="2">  1       -4 0.14128377E-01 0.56528457E+03</pdfrwt>
<totfact> 0.34353678E+01</totfact>
</mgrwt>
</event>
<event>
 5    0  0.5719562E-003  0.6701862E+03  0.7546771E-02  0.9769622E-01
          1   -1    0    0  502    0  0.00000000000E+00  0.00000000000E+00  0.76968225947E+03  0.76968225947E+03  0.00000000000E+00 0.  1.
         -1   -1    0    0    0  501 -0.00000000000E+00 -0.00000000000E+00 -0.14588797287E+03  0.14588797287E+03  0.00000000000E+00 0. -1.
         25    1    1    2    0    0  0.27921052445E+03 -0.81849360299E+02  0.49487718710E+03  0.58752554418E+03  0.12500000000E+03 0.  0.
          1    1    1    2  502    0 -0.67049432343E+02  0.35627496432E+02  0.80675706880E+00  0.75931520046E+02  0.00000000000E+00 0. -1.
         -1    1    1    2    0  501 -0.21216109211E+03  0.46221863867E+02  0.12811034242E+03  0.25211316812E+03  0.00000000000E+00 0.  1.
<mgrwt>
<rscale>  4 0.67018620E+03</rscale>
<asrwt>0</asrwt>
<pdfrwt beam="1">  1        1 0.11841265E+00 0.67018620E+03</pdfrwt>
<pdfrwt beam="2">  1       -1 0.22444304E-01 0.67018620E+03</pdfrwt>
<totfact> 0.40036477E+02</totfact>
</mgrwt>
</event>
<event>
 5    0  0.5719562E-003  0.6254104E+03  0.7546771E-02  0.9854046E-01
          1   -1    0    0  502    0  0.00000000000E+00  0.00000000000E+00  0.41399081695E+03  0.41399081695E+03  0.00000000000E+00 0.  1.
         -1   -1    0    0    0  501 -0.00000000000E+00 -0.00000000000E+00 -0.23619979853E+03  0.23619979853E+03  0.00000000000E+00 0. -1.
         25    1    1    2    0    0  0.13928162071E+03  0.17081536754E+03  0.21658193163E+03  0.33333165581E+03  0.12500000000E+03 0.  0.
          4    1    1    2  502    0 -0.14725657721E+03 -0.47941791750E+02  0.52560249308E+02  0.16354049876E+03  0.00000000000E+00 0.  1.
         -4    1    1    2    0  501  0.79749564991E+01 -0.12287357579E+03 -0.91351162527E+02  0.15331846090E+03  0.00000000000E+00 0. -1.
<mgrwt>
<rscale>  4 0.62541042E+03</rscale>
<asrwt>0</asrwt>
<pdfrwt beam="1">  1        1 0.63690895E-01 0.62541042E+03</pdfrwt>
<pdfrwt beam="2">  1       -1 0.36338431E-01 0.62541042E+03</pdfrwt>
<totfact> 0.42054552E+02</totfact>
</mgrwt>
</event>
<event>
 5    0  0.5719562E-003  0.7577597E+03  0.7546771E-02  0.9623255E-01
         -2   -1    0    0    0  501 -0.00000000000E+00  0.00000000000E+00  0.95518097591E+03  0.95518097591E+03  0.00000000000E+00 0.  1.
          2   -1    0    0  502    0  0.00000000000E+00 -0.00000000000E+00 -0.15028559662E+03  0.15028559662E+03  0.00000000000E+00 0. -1.
         25    1    1    2    0    0  0.11302040689E+02  0.34998206201E+03  0.47767327156E+03  0.60531969587E+03  0.12500000000E+03 0.  0.
          3    1    1    2  502    0  0.17525959795E+02 -0.75708641335E+02  0.15934680400E+03  0.17728610093E+03  0.00000000000E+00 0. -1.
         -3    1    1    2    0  501 -0.28828000485E+02 -0.27427342067E+03  0.16787530374E+03  0.32286077573E+03  0.00000000000E+00 0.  1.
<mgrwt>
<rscale>  4 0.75775971E+03</rscale>
<asrwt>0</asrwt>
<pdfrwt beam="1">  1        2 0.23120862E-01 0.75775971E+03</pdfrwt>
<pdfrwt beam="2">  1       -2 0.14695092E+00 0.75775971E+03</pdfrwt>
<totfact> 0.76659721E+01</totfact>
</mgrwt>
</event>
<event>
 5    0  0.5719562E-003  0.7047124E+03  0.7546771E-02  0.9709207E-01
         -2   -1    0    0    0  501 -0.00000000000E+00  0.00000000000E+00  0.17609618259E+03  0.17609618259E+03  0.00000000000E+00 0.  1.
          2   -1    0    0  502    0  0.00000000000E+00 -0.00000000000E+00 -0.70504023630E+03  0.70504023630E+03  0.00000000000E+00 0. -1.
         25    1    1    2    0    0  0.21635285533E+03  0.90494413611E+02 -0.18370538496E+03  0.32306418150E+03  0.12500000000E+03 0.  0.
          4    1    1    2  502    0 -0.18146522193E+02 -0.30384173187E+02  0.78673243733E+02  0.86266873871E+02  0.00000000000E+00 0.  1.
         -4    1    1    2    0  501 -0.19820633314E+03 -0.60110240424E+02 -0.42391191249E+03  0.47180536352E+03  0.00000000000E+00 0. -1.
<mgrwt>
<rscale>  4 0.70471241E+03</rscale>
<asrwt>0</asrwt>
<pdfrwt beam="1">  1        2 0.10846773E+00 0.70471241E+03</pdfrwt>
<pdfrwt beam="2">  1       -2 0.27091720E-01 0.70471241E+03</pdfrwt>
<totfact> 0.50564427E+02</totfact>
</mgrwt>
</event>
<event>
 5    0  0.5719562E-003  0.5480008E+03  0.7546771E-02  0.1001958E+00
          1   -1    0    0  502    0  0.00000000000E+00  0.00000000000E+00  0.13239394013E+04  0.13239394013E+04  0.00000000000E+00 0.  1.
         -1   -1    0    0    0  501 -0.00000000000E+00 -0.00000000000E+00 -0.56706682765E+02  0.56706682765E+02  0.00000000000E+00 0. -1.
         25    1    1    2    0    0  0.19731136451E+03 -0.39616911442E+02  0.25568488274E+03  0.34856998365E+03  0.12500000000E+03 0.  0.
          4    1    1    2  502    0 -0.36792218041E+02 -0.25965822884E+01  0.24536179928E+03  0.24811856459E+03  0.00000000000E+00 0.  1.
         -4    1    1    2    0  501 -0.16051914647E+03  0.42213493731E+02  0.76618603648E+03  0.78395753579E+03  0.00000000000E+00 0. -1.
<mgrwt>
<rscale>  4 0.54800077E+03</rscale>
<asrwt>0</asrwt>
<pdfrwt beam="1">  1        1 0.20368296E+00 0.54800077E+03</pdfrwt>
<pdfrwt beam="2">  1       -1 0.87241060E-02 0.54800077E+03</pdfrwt>
<totfact> 0.69654303E+02</totfact>
</mgrwt>
</event>
<event>
 5    0  0.5719562E-003  0.6182370E+03  0.7546771E-02  0.9868276E-01
         -1   -1    0    0    0  501 -0.00000000000E+00  0.00000000000E+00  0.95944820286E+02  0.95944820286E+02  0.00000000000E+00 0.  1.
          1   -1    0    0  502    0  0.00000000000E+00 -0.00000000000E+00 -0.99592910210E+03  0.99592910210E+03  0.00000000000E+00 0. -1.
         25    1    1    2    0    0 -0.13456771819E+03  0.18116365742E+03 -0.39028067064E+03  0.46783837319E+03  0.12500000000E+03 0.  0.
          3    1    1    2  502    0  0.27540891546E+02  0.50904774693E+02 -0.47215894442E+01  0.58069701227E+02  0.00000000000E+00 0.  1.
         -3    1    1    2    0  501  0.10702682665E+03 -0.23206843211E+03 -0.50498202172E+03  0.56596584797E+03  0.00000000000E+00 0. -1.
<mgrwt>
<rscale>  4 0.61823697E+03</rscale>
<asrwt>0</asrwt>
<pdfrwt beam="1">  1        1 0.15321985E+00 0.61823697E+03</pdfrwt>
<pdfrwt beam="2">  1       -1 0.14760743E-01 0.61823697E+03</pdfrwt>
<totfact> 0.52205075E+02</totfact>
</mgrwt>
</event>
<event>
 5    0  0.5719562E-003  0.4728457E+03  0.7546771E-02  0.1021120E+00
          2   -1    0    0  502    0  0.00000000000E+00  0.00000000000E+00  0.11894142359E+04  0.11894142359E+04  0.00000000000E+00 0. -1.
         -2   -1    0    0    0  501 -0.00000000000E+00 -0.00000000000E+00 -0.46994354669E+02  0.46994354669E+02  0.00000000000E+00 0.  1.
         25    1    1    2    0    0  0.90544774637E+02  0.19732284409E+03  0.59729318471E+03  0.64770271692E+03  0.12500000000E+03 0.  0.
          2    1    1    2  502    0 -0.48104064573E+02 -0.10026206912E+03  0.34184251332E+03  0.35947571190E+03  0.00000000000E+00 0.  1.
         -2    1    1    2    0  501 -0.42440710064E+02 -0.97060774971E+02  0.20328418316E+03  0.22923016169E+03  0.00000000000E+00 0. -1.
<mgrwt>
<rscale>  4 0.47284566E+03</rscale>
<asrwt>0</asrwt>
<pdfrwt beam="1">  1        2 0.18298678E+00 0.47284566E+03</pdfrwt>
<pdfrwt beam="2">  1       -2 0.72299016E-02 0.47284566E+03</pdfrwt>
<totfact> 0.22438812E+03</totfact>
</mgrwt>
</event>
<event>
 5    0  0.5719562E-003  0.7066624E+03  0.7546771E-02  0.9705906E-01
          2   -1    0    0  502    0  0.00000000000E+00  0.00000000000E+00  0.18949519552E+03  0.18949519552E+03  0.00000000000E+00 0.  1.
         -2   -1    0    0    0  501 -0.00000000000E+00 -0.00000000000E+00 -0.65881848401E+03  0.65881848401E+03  0.00000000000E+00 0. -1.
         25    1    1    2    0    0 -0.19576626508E+03  0.13831331587E+03 -0.21930316860E+03  0.34810039305E+03  0.12500000000E+03 0.  0.
          3    1    1    2  502    0  0.12322317450E+03  0.11293123411E+03 -0.13352731849E+03  0.21393213680E+03  0.00000000000E+00 0. -1.
         -3    1    1    2    0  501  0.72543090579E+02 -0.25124454997E+03 -0.11649280140E+03  0.28628114968E+03  0.00000000000E+00 0.  1.
<mgrwt>
<rscale>  4 0.70666240E+03</rscale>
<asrwt>0</asrwt>
<pdfrwt beam="1">  1        2 0.29153107E-01 0.70666240E+03</pdfrwt>
<pdfrwt beam="2">  1       -2 0.10135669E+00 0.70666240E+03</pdfrwt>
<totfact> 0.14856237E+02</totfact>
</mgrwt>
</event>
<event>
 5    0  0.5719562E-003  0.5681507E+03  0.7546771E-02  0.9973779E-01
          2   -1    0    0  502    0  0.00000000000E+00  0.00000000000E+00  0.22825424207E+03  0.22825424207E+03  0.00000000000E+00 0. -1.
         -2   -1    0    0    0  501 -0.00000000000E+00 -0.00000000000E+00 -0.35354790974E+03  0.35354790974E+03  0.00000000000E+00 0.  1.
         25    1    1    2    0    0  0.50620177378E+02 -0.22620659917E+03 -0.14916762501E+03  0.30266781827E+03  0.12500000000E+03 0.  0.
          2    1    1    2  502    0 -0.51932891833E+02  0.18523252635E+03 -0.46295575170E+02  0.19786711286E+03  0.00000000000E+00 0.  1.
         -2    1    1    2    0  501  0.13127144547E+01  0.40974072816E+02  0.70169532515E+02  0.81267220672E+02  0.00000000000E+00 0. -1.
<mgrwt>
<rscale>  4 0.56815072E+03</rscale>
<asrwt>0</asrwt>
<pdfrwt beam="1">  1        2 0.35116037E-01 0.56815072E+03</pdfrwt>
<pdfrwt beam="2">  1       -2 0.54391986E-01 0.56815072E+03</pdfrwt>
<totfact> 0.47825728E+02</totfact>
</mgrwt>
</event>
<event>
 5    0  0.5719562E-003  0.4743108E+03  0.7546771E-02  0.1020711E+00
         -1   -1    0    0    0  501 -0.00000000000E+00  0.00000000000E+00  0.18975240021E+03  0.18975240021E+03  0.00000000000E+00 0.  1.
          1   -1    0    0  502    0  0.00000000000E+00 -0.00000000000E+00 -0.29640040640E+03  0.29640040640E+03  0.00000000000E+00 0. -1.
         25    1    1    2    0    0  0.20221855776E+03 -0.40813211963E+02  0.16599009144E+02  0.24178211364E+03  0.12500000000E+03 0.  0.
          1    1    1    2  502    0 -0.18007118943E+03  0.31770995712E+02 -0.91072139915E+02  0.20427717469E+03  0.00000000000E+00 0. -1.
         -1    1    1    2    0  501 -0.22147368329E+02  0.90422162513E+01 -0.32174875426E+02  0.40093518271E+02  0.00000000000E+00 0.  1.
<mgrwt>
<rscale>  4 0.47431082E+03</rscale>
<asrwt>0</asrwt>
<pdfrwt beam="1">  1        1 0.45600063E-01 0.47431082E+03</pdfrwt>
<pdfrwt beam="2">  1       -1 0.29192677E-01 0.47431082E+03</pdfrwt>
<totfact> 0.95585383E+02</totfact>
</mgrwt>
</event>
<event>
 5    0  0.5719562E-003  0.5305870E+03  0.7546771E-02  0.1006090E+00
         -2   -1    0    0    0  501 -0.00000000000E+00  0.00000000000E+00  0.27284876403E+03  0.27284876403E+03  0.00000000000E+00 0. -1.
          2   -1    0    0  502    0  0.00000000000E+00 -0.00000000000E+00 -0.25794744940E+03  0.25794744940E+03  0.00000000000E+00 0.  1.
         25    1    1    2    0    0 -0.17680124725E+02 -0.23981647891E+03  0.40739177895E+02  0.27406059728E+03  0.12500000000E+03 0.  0.
          1    1    1    2  502    0 -0.19412925941E+02  0.85782644692E+02 -0.42020270298E+02  0.97474237313E+02  0.00000000000E+00 0.  1.
         -1    1    1    2    0  501  0.37093050666E+02  0.15403383422E+03  0.16182407026E+02  0.15926137883E+03  0.00000000000E+00 0. -1.
<mgrwt>
<rscale>  4 0.53058701E+03</rscale>
<asrwt>0</asrwt>
<pdfrwt beam="1">  1        2 0.39684223E-01 0.53058701E+03</pdfrwt>
<pdfrwt beam="2">  1       -2 0.41976733E-01 0.53058701E+03</pdfrwt>
<totfact> 0.70275142E+02</totfact>
</mgrwt>
</event>
<event>
 5    0  0.5719562E-003  0.1108150E+04  0.7546771E-02  0.9197285E-01
         -1   -1    0    0    0  501 -0.00000000000E+00  0.00000000000E+00  0.50012329604E+03  0.50012329604E+03  0.00000000000E+00 0. -1.
          1   -1    0    0  502    0  0.00000000000E+00 -0.00000000000E+00 -0.61384669593E+03  0.61384669593E+03  0.00000000000E+00 0.  1.
         25    1    1    2    0    0  0.33855661507E+03  0.93057215072E+02 -0.43368412551E+03  0.57182790033E+03  0.12500000000E+03 0.  0.
          4    1    1    2  502    0  0.30724239941E+02 -0.34050445006E+02  0.95612386049E+02  0.10604310487E+03  0.00000000000E+00 0. -1.
         -4    1    1    2    0  501 -0.36928085501E+03 -0.59006770066E+02  0.22434833956E+03  0.43609898676E+03  0.00000000000E+00 0.  1.
<mgrwt>
<rscale>  4 0.11081499E+04</rscale>
<asrwt>0</asrwt>
<pdfrwt beam="1">  1        1 0.94437953E-01 0.11081499E+04</pdfrwt>
<pdfrwt beam="2">  1       -1 0.76942046E-01 0.11081499E+04</pdfrwt>
<totfact> 0.55937736E+01</totfact>
</mgrwt>
</event>
<event>
 5    0  0.5719562E-003  0.9899864E+03  0.7546771E-02  0.9319596E-01
         -1   -1    0    0    0  501 -0.00000000000E+00  0.00000000000E+00  0.40740787335E+03  0.40740787335E+03  0.00000000000E+00 0.  1.
          1   -1    0    0  502    0  0.00000000000E+00 -0.00000000000E+00 -0.60140775548E+03  0.60140775548E+03  0.00000000000E+00 0. -1.
         25    1    1    2    0    0 -0.43405831934E+03 -0.10274773618E+02 -0.94327493986E+02  0.46155700805E+03  0.12500000000E+03 0.  0.
          4    1    1    2  502    0  0.21586855258E+02 -0.52731854839E+02  0.75614399157E+02  0.94679344075E+02  0.00000000000E+00 0.  1.
         -4    1    1    2    0  501  0.41247146408E+03  0.63006628456E+02 -0.17528678730E+03  0.45257927671E+03  0.00000000000E+00 0. -1.
<mgrwt>
<rscale>  4 0.98998637E+03</rscale>
<asrwt>0</asrwt>
<pdfrwt beam="1">  1        1 0.92524270E-01 0.98998637E+03</pdfrwt>
<pdfrwt beam="2">  1       -1 0.62678135E-01 0.98998637E+03</pdfrwt>
<totfact> 0.88427456E+01</totfact>
</mgrwt>
</event>
<event>
 5    0  0.5719562E-003  0.8534426E+03  0.7546771E-02  0.9485728E-01
         -2   -1    0    0    0  501 -0.00000000000E+00  0.00000000000E+00  0.13700610149E+03  0.13700610149E+03  0.00000000000E+00 0. -1.
          2   -1    0    0  502    0  0.00000000000E+00 -0.00000000000E+00 -0.13290728018E+04  0.13290728018E+04  0.00000000000E+00 0.  1.
         25    1    1    2    0    0  0.20229680056E+03  0.15318217329E+03 -0.41313124352E+02  0.28586806043E+03  0.12500000000E+03 0.  0.
          3    1    1    2  502    0 -0.22028931561E+02 -0.47554770740E+02 -0.26701436194E+03  0.27210916840E+03  0.00000000000E+00 0. -1.
         -3    1    1    2    0  501 -0.18026786900E+03 -0.10562740255E+03 -0.88373921399E+03  0.90810167443E+03  0.00000000000E+00 0.  1.
<mgrwt>
<rscale>  4 0.85344264E+03</rscale>
<asrwt>0</asrwt>
<pdfrwt beam="1">  1        2 0.20447275E+00 0.85344264E+03</pdfrwt>
<pdfrwt beam="2">  1       -2 0.21077861E-01 0.85344264E+03</pdfrwt>
<totfact> 0.31082075E+02</totfact>
</mgrwt>
</event>
<event>
 5    0  0.5719562E-003  0.6658151E+03  0.7546771E-02  0.9777548E-01
         -2   -1    0    0    0  501 -0.00000000000E+00  0.00000000000E+00  0.55927435761E+03  0.55927435761E+03  0.00000000000E+00 0. -1.
          2   -1    0    0  502    0  0.00000000000E+00 -0.00000000000E+00 -0.19816292088E+03  0.19816292088E+03  0.00000000000E+00 0.  1.
         25    1    1    2    0    0  0.22104007664E+03 -0.70208754392E+02  0.20453825754E+03  0.33353992785E+03  0.12500000000E+03 0.  0.
          1    1    1    2  502    0  0.18872158131E+02  0.66386153426E+02 -0.66817831092E+02  0.96061970992E+02  0.00000000000E+00 0.  1.
         -1    1    1    2    0  501 -0.23991223477E+03  0.38226009663E+01  0.22339101028E+03  0.32783537964E+03  0.00000000000E+00 0. -1.
<mgrwt>
<rscale>  4 0.66581511E+03</rscale>
<asrwt>0</asrwt>
<pdfrwt beam="1">  1        2 0.30486604E-01 0.66581511E+03</pdfrwt>
<pdfrwt beam="2">  1       -2 0.86042208E-01 0.66581511E+03</pdfrwt>
<totfact> 0.20697312E+02</totfact>
</mgrwt>
</event>
<event>
 5    0  0.5719562E-003  0.5755220E+03  0.7546771E-02  0.9957533E-01
          2   -1    0    0  502    0  0.00000000000E+00  0.00000000000E+00  0.26973212956E+04  0.26973212956E+04  0.00000000000E+00 0.  1.
         -2   -1    0    0    0  501 -0.00000000000E+00 -0.00000000000E+00 -0.30699492351E+02  0.30699492351E+02  0.00000000000E+00 0. -1.
         25    1    1    2    0    0 -0.21536102631E+03  0.62287611628E+02  0.16767418026E+04  0.16962747981E+04  0.12500000000E+03 0.  0.
          3    1    1    2  502    0  0.12384049381E+03 -0.12437941295E+03  0.51249140834E+03  0.54171408501E+03  0.00000000000E+00 0.  1.
         -3    1    1    2    0  501  0.91520532500E+02  0.62091801322E+02  0.47738859230E+03  0.49003190480E+03  0.00000000000E+00 0. -1.
<mgrwt>
<rscale>  4 0.57552200E+03</rscale>
<asrwt>0</asrwt>
<pdfrwt beam="1">  1        2 0.41497232E+00 0.57552200E+03</pdfrwt>
<pdfrwt beam="2">  1       -2 0.47230010E-02 0.57552200E+03</pdfrwt>
<totfact> 0.63811249E+02</totfact>
</mgrwt>
</event>
<event>
 5    0  0.5719562E-003  0.4758837E+03  0.7546771E-02  0.1020273E+00
         -2   -1    0    0    0  501 -0.00000000000E+00  0.00000000000E+00  0.22562602300E+03  0.22562602300E+03  0.00000000000E+00 0.  1.
          2   -1    0    0  502    0  0.00000000000E+00 -0.00000000000E+00 -0.25092989118E+03  0.25092989118E+03  0.00000000000E+00 0. -1.
         25    1    1    2    0    0  0.21490063868E+03  0.14265719674E+01  0.30411408200E+02  0.25046790884E+03  0.12500000000E+03 0.  0.
          2    1    1    2  502    0 -0.64556340610E+02  0.85772080501E+01 -0.35179872974E+02  0.74018329307E+02  0.00000000000E+00 0. -1.
         -2    1    1    2    0  501 -0.15034429807E+03 -0.10003780018E+02 -0.20535403413E+02  0.15206967603E+03  0.00000000000E+00 0.  1.
<mgrwt>
<rscale>  4 0.47588366E+03</rscale>
<asrwt>0</asrwt>
<pdfrwt beam="1">  1        2 0.38604599E-01 0.47588366E+03</pdfrwt>
<pdfrwt beam="2">  1       -2 0.34711696E-01 0.47588366E+03</pdfrwt>
<totfact> 0.10434391E+03</totfact>
</mgrwt>
</event>
<event>
 5    0  0.5719562E-003  0.5173041E+03  0.7546771E-02  0.1009358E+00
          2   -1    0    0  502    0  0.00000000000E+00  0.00000000000E+00  0.65302744059E+03  0.65302744059E+03  0.00000000000E+00 0.  1.
         -2   -1    0    0    0  501 -0.00000000000E+00 -0.00000000000E+00 -0.10244726653E+03  0.10244726653E+03  0.00000000000E+00 0. -1.
         25    1    1    2    0    0  0.73759798601E+01  0.21580750775E+03  0.43464243858E+03  0.50116497772E+03  0.12500000000E+03 0.  0.
          2    1    1    2  502    0 -0.27200456174E+02 -0.10502047178E+03  0.29571494461E+02  0.11244393089E+03  0.00000000000E+00 0. -1.
         -2    1    1    2    0  501  0.19824476314E+02 -0.11078703597E+03  0.86366241015E+02  0.14186579851E+03  0.00000000000E+00 0.  1.
<mgrwt>
<rscale>  4 0.51730407E+03</rscale>
<asrwt>0</asrwt>
<pdfrwt beam="1">  1        2 0.10046576E+00 0.51730407E+03</pdfrwt>
<pdfrwt beam="2">  1       -2 0.15761118E-01 0.51730407E+03</pdfrwt>
<totfact> 0.14418520E+03</totfact>
</mgrwt>
</event>
<event>
 5    0  0.5719562E-003  0.5783944E+03  0.7546771E-02  0.9951273E-01
         -1   -1    0    0    0  501 -0.00000000000E+00  0.00000000000E+00  0.17495269839E+03  0.17495269839E+03  0.00000000000E+00 0.  1.
          1   -1    0    0  502    0  0.00000000000E+00 -0.00000000000E+00 -0.47804364503E+03  0.47804364503E+03  0.00000000000E+00 0. -1.
         25    1    1    2    0    0 -0.18537279852E+02  0.25885649451E+03 -0.25754959697E+03  0.38640278259E+03  0.12500000000E+03 0.  0.
          3    1    1    2  502    0  0.96801451020E+01 -0.29736806966E+02 -0.16825187394E+02  0.35511545004E+02  0.00000000000E+00 0. -1.
         -3    1    1    2    0  501  0.88571347497E+01 -0.22911968754E+03 -0.28716162273E+02  0.23108201581E+03  0.00000000000E+00 0.  1.
<mgrwt>
<rscale>  4 0.57839442E+03</rscale>
<asrwt>0</asrwt>
<pdfrwt beam="1">  1        1 0.73545175E-01 0.57839442E+03</pdfrwt>
<pdfrwt beam="2">  1       -1 0.26915800E-01 0.57839442E+03</pdfrwt>
<totfact> 0.58679821E+02</totfact>
</mgrwt>
</event>
<event>
 5    0  0.5719562E-003  0.5065411E+03  0.7546771E-02  0.1012086E+00
          2   -1    0    0  502    0  0.00000000000E+00  0.00000000000E+00  0.57389923954E+03  0.57389923954E+03  0.00000000000E+00 0.  1.
         -2   -1    0    0    0  501 -0.00000000000E+00 -0.00000000000E+00 -0.11177220118E+03  0.11177220118E+03  0.00000000000E+00 0. -1.
         25    1    1    2    0    0  0.18586234038E+03 -0.78199776864E+02  0.33883993492E+03  0.41363935520E+03  0.12500000000E+03 0.  0.
          3    1    1    2  502    0 -0.15150666665E+03  0.21667091440E+02  0.27310846554E+02  0.15546580084E+03  0.00000000000E+00 0. -1.
         -3    1    1    2    0  501 -0.34355673735E+02  0.56532685424E+02  0.95976256885E+02  0.11656628468E+03  0.00000000000E+00 0.  1.
<mgrwt>
<rscale>  4 0.50654114E+03</rscale>
<asrwt>0</asrwt>
<pdfrwt beam="1">  1        2 0.88292189E-01 0.50654114E+03</pdfrwt>
<pdfrwt beam="2">  1       -2 0.17195724E-01 0.50654114E+03</pdfrwt>
<totfact> 0.14521046E+03</totfact>
</mgrwt>
</event>
<event>
 5    0  0.5719562E-003  0.1013016E+04  0.7546771E-02  0.9294383E-01
         -3   -1    0    0    0  501 -0.00000000000E+00  0.00000000000E+00  0.85325058497E+03  0.85325058497E+03  0.00000000000E+00 0. -1.
          3   -1    0    0  502    0  0.00000000000E+00 -0.00000000000E+00 -0.30067439109E+03  0.30067439109E+03  0.00000000000E+00 0.  1.
         25    1    1    2    0    0 -0.37964085794E+03  0.15825244869E+03 -0.37235713595E+02  0.43148872164E+03  0.12500000000E+03 0.  0.
          3    1    1    2  502    0  0.32205658357E+03 -0.15569800108E+03  0.48271335626E+03  0.60081153025E+03  0.00000000000E+00 0. -1.
         -3    1    1    2    0  501  0.57584274367E+02 -0.25544476115E+01  0.10709855122E+03  0.12162472417E+03  0.00000000000E+00 0.  1.
<mgrwt>
<rscale>  4 0.10130165E+04</rscale>
<asrwt>0</asrwt>
<pdfrwt beam="1">  1        3 0.46257599E-01 0.10130165E+04</pdfrwt>
<pdfrwt beam="2">  1       -3 0.13126932E+00 0.10130165E+04</pdfrwt>
<totfact> 0.55036005E+00</totfact>
</mgrwt>
</event>
<event>
 5    0  0.5719562E-003  0.6599260E+03  0.7546771E-02  0.9788330E-01
          1   -1    0    0  502    0  0.00000000000E+00  0.00000000000E+00  0.62445743334E+03  0.62445743334E+03  0.00000000000E+00 0. -1.
         -1   -1    0    0    0  501 -0.00000000000E+00 -0.00000000000E+00 -0.17435230392E+03  0.17435230392E+03  0.00000000000E+00 0.  1.
         25    1    1    2    0    0  0.26981349422E+03 -0.76168964975E+02  0.40882567135E+03  0.51123816607E+03  0.12500000000E+03 0.  0.
          4    1    1    2  502    0 -0.64865507916E+02 -0.15713249309E+01  0.22242003958E+01  0.64922648179E+02  0.00000000000E+00 0. -1.
         -4    1    1    2    0  501 -0.20494798631E+03  0.77740289906E+02  0.39055257680E+02  0.22264892301E+03  0.00000000000E+00 0.  1.
<mgrwt>
<rscale>  4 0.65992603E+03</rscale>
<asrwt>0</asrwt>
<pdfrwt beam="1">  1        1 0.96070373E-01 0.65992603E+03</pdfrwt>
<pdfrwt beam="2">  1       -1 0.26823432E-01 0.65992603E+03</pdfrwt>
<totfact> 0.40524992E+02</totfact>
</mgrwt>
</event>
<event>
 5    0  0.5719562E-003  0.5885797E+03  0.7546771E-02  0.9929387E-01
         -2   -1    0    0    0  501 -0.00000000000E+00  0.00000000000E+00  0.10139710998E+03  0.10139710998E+03  0.00000000000E+00 0.  1.
          2   -1    0    0  502    0  0.00000000000E+00 -0.00000000000E+00 -0.85413192992E+03  0.85413192992E+03  0.00000000000E+00 0. -1.
         25    1    1    2    0    0  0.17338765257E+03  0.17103348373E+03 -0.58206291480E+03  0.64322466324E+03  0.12500000000E+03 0.  0.
          2    1    1    2  502    0 -0.47875558133E+02 -0.86456080217E+01 -0.65777310025E+02  0.81813630396E+02  0.00000000000E+00 0. -1.
         -2    1    1    2    0  501 -0.12551209443E+03 -0.16238787570E+03 -0.10489459511E+03  0.23049074625E+03  0.00000000000E+00 0.  1.
<mgrwt>
<rscale>  4 0.58857968E+03</rscale>
<asrwt>0</asrwt>
<pdfrwt beam="1">  1        2 0.13140491E+00 0.58857968E+03</pdfrwt>
<pdfrwt beam="2">  1       -2 0.15599555E-01 0.58857968E+03</pdfrwt>
<totfact> 0.10395672E+03</totfact>
</mgrwt>
</event>
<event>
 5    0  0.5719562E-003  0.6474046E+03  0.7546771E-02  0.9811662E-01
         -2   -1    0    0    0  501 -0.00000000000E+00  0.00000000000E+00  0.21627794769E+03  0.21627794769E+03  0.00000000000E+00 0. -1.
          2   -1    0    0  502    0  0.00000000000E+00 -0.00000000000E+00 -0.48448384629E+03  0.48448384629E+03  0.00000000000E+00 0.  1.
         25    1    1    2    0    0 -0.26058700645E+03 -0.11093477421E+03 -0.21106907492E+03  0.37468288785E+03  0.12500000000E+03 0.  0.
          3    1    1    2  502    0  0.77028184071E+02  0.11307270866E+03 -0.14187328337E+02  0.13755020491E+03  0.00000000000E+00 0. -1.
         -3    1    1    2    0  501  0.18355882238E+03 -0.21379344435E+01 -0.42949495334E+02  0.18852870122E+03  0.00000000000E+00 0.  1.
<mgrwt>
<rscale>  4 0.64740458E+03</rscale>
<asrwt>0</asrwt>
<pdfrwt beam="1">  1        2 0.74535976E-01 0.64740458E+03</pdfrwt>
<pdfrwt beam="2">  1       -2 0.33273531E-01 0.64740458E+03</pdfrwt>
<totfact> 0.54257000E+02</totfact>
</mgrwt>
</event>
<event>
 5    0  0.5719562E-003  0.8613427E+03  0.7546771E-02  0.9475238E-01
         -2   -1    0    0    0  501 -0.00000000000E+00  0.00000000000E+00  0.30921425162E+03  0.30921425162E+03  0.00000000000E+00 0.  1.
          2   -1    0    0  502    0  0.00000000000E+00 -0.00000000000E+00 -0.59983585286E+03  0.59983585286E+03  0.00000000000E+00 0. -1.
         25    1    1    2    0    0  0.25234120869E+01  0.30164005717E+03  0.15784398856E+03  0.36267453236E+03  0.12500000000E+03 0.  0.
          2    1    1    2  502    0 -0.20895954799E+02 -0.28877255612E+03 -0.41182287481E+03  0.50341266403E+03  0.00000000000E+00 0. -1.
         -2    1    1    2    0  501  0.18372542712E+02 -0.12867501058E+02 -0.36642714988E+02  0.42962908082E+02  0.00000000000E+00 0.  1.
<mgrwt>
<rscale>  4 0.86134266E+03</rscale>
<asrwt>0</asrwt>
<pdfrwt beam="1">  1        2 0.92282439E-01 0.86134266E+03</pdfrwt>
<pdfrwt beam="2">  1       -2 0.47571423E-01 0.86134266E+03</pdfrwt>
<totfact> 0.20873343E+02</totfact>
</mgrwt>
</event>
<event>
 5    0  0.5719562E-003  0.5397309E+03  0.7546771E-02  0.1003899E+00
         -1   -1    0    0    0  501 -0.00000000000E+00  0.00000000000E+00  0.18716387016E+04  0.18716387016E+04  0.00000000000E+00 0. -1.
          1   -1    0    0  502    0  0.00000000000E+00 -0.00000000000E+00 -0.38911018725E+02  0.38911018725E+02  0.00000000000E+00 0.  1.
         25    1    1    2    0    0  0.65067923896E+02  0.21642680576E+03  0.55765533522E+03  0.61455583137E+03  0.12500000000E+03 0.  0.
          3    1    1    2  502    0 -0.50281849699E+02 -0.20045913878E+03  0.12058218219E+04  0.12234044290E+04  0.00000000000E+00 0. -1.
         -3    1    1    2    0  501 -0.14786074197E+02 -0.15967666983E+02  0.69250525746E+02  0.72589459945E+02  0.00000000000E+00 0.  1.
<mgrwt>
<rscale>  4 0.53973093E+03</rscale>
<asrwt>0</asrwt>
<pdfrwt beam="1">  1        1 0.59863120E-02 0.53973093E+03</pdfrwt>
<pdfrwt beam="2">  1       -1 0.28794435E+00 0.53973093E+03</pdfrwt>
<totfact> 0.57525396E+01</totfact>
</mgrwt>
</event>
<event>
 5    0  0.5719562E-003  0.5781916E+03  0.7546771E-02  0.9951714E-01
         -2   -1    0    0    0  501 -0.00000000000E+00  0.00000000000E+00  0.32756346310E+03  0.32756346310E+03  0.00000000000E+00 0. -1.
          2   -1    0    0  502    0  0.00000000000E+00 -0.00000000000E+00 -0.25514557609E+03  0.25514557609E+03  0.00000000000E+00 0.  1.
         25    1    1    2    0    0 -0.20522154948E+03  0.57119706666E+01 -0.18301192291E+02  0.24105693232E+03  0.12500000000E+03 0.  0.
          4    1    1    2  502    0  0.18374194241E+02  0.66269338149E+02 -0.59816579254E+02  0.91144167923E+02  0.00000000000E+00 0.  1.
         -4    1    1    2    0  501  0.18684735524E+03 -0.71981308815E+02  0.15053565855E+03  0.25050793895E+03  0.00000000000E+00 0. -1.
<mgrwt>
<rscale>  4 0.57819155E+03</rscale>
<asrwt>0</asrwt>
<pdfrwt beam="1">  1        2 0.39253165E-01 0.57819155E+03</pdfrwt>
<pdfrwt beam="2">  1       -2 0.50394379E-01 0.57819155E+03</pdfrwt>
<totfact> 0.49398852E+02</totfact>
</mgrwt>
</event>
<event>
 5    0  0.5719562E-003  0.6002375E+03  0.7546771E-02  0.9904913E-01
         -2   -1    0    0    0  501 -0.00000000000E+00  0.00000000000E+00  0.15724180570E+03  0.15724180570E+03  0.00000000000E+00 0.  1.
          2   -1    0    0  502    0  0.00000000000E+00 -0.00000000000E+00 -0.57282005058E+03  0.57282005058E+03  0.00000000000E+00 0. -1.
         25    1    1    2    0    0  0.90690854638E+02  0.20301200921E+03 -0.26028037217E+03  0.36443048602E+03  0.12500000000E+03 0.  0.
          4    1    1    2  502    0  0.32248489575E+02  0.41710057104E+02 -0.48627608650E+02  0.71724042458E+02  0.00000000000E+00 0. -1.
         -4    1    1    2    0  501 -0.12293934421E+03 -0.24472206632E+03 -0.10667026405E+03  0.29390732780E+03  0.00000000000E+00 0.  1.
<mgrwt>
<rscale>  4 0.60023748E+03</rscale>
<asrwt>0</asrwt>
<pdfrwt beam="1">  1        2 0.88126160E-01 0.60023748E+03</pdfrwt>
<pdfrwt beam="2">  1       -2 0.24191047E-01 0.60023748E+03</pdfrwt>
<totfact> 0.80160133E+02</totfact>
</mgrwt>
</event>
<event>
 5    0  0.5719562E-003  0.4979971E+03  0.7546771E-02  0.1014303E+00
         -2   -1    0    0    0  501 -0.00000000000E+00  0.00000000000E+00  0.18856416577E+02  0.18856416577E+02  0.00000000000E+00 0.  1.
          2   -1    0    0  502    0  0.00000000000E+00 -0.00000000000E+00 -0.32880207493E+04  0.32880207493E+04  0.00000000000E+00 0. -1.
         25    1    1    2    0    0 -0.12991381135E+03 -0.17553369058E+03 -0.13334126357E+04  0.13569465472E+04  0.12500000000E+03 0.  0.
          4    1    1    2  502    0  0.38393362960E+02  0.12086304912E+03 -0.94857122227E+03  0.95701060113E+03  0.00000000000E+00 0.  1.
         -4    1    1    2    0  501  0.91520448386E+02  0.54670641457E+02 -0.98718047471E+03  0.99292001751E+03  0.00000000000E+00 0. -1.
<mgrwt>
<rscale>  4 0.49799714E+03</rscale>
<asrwt>0</asrwt>
<pdfrwt beam="1">  1        2 0.50584879E+00 0.49799714E+03</pdfrwt>
<pdfrwt beam="2">  1       -2 0.29009903E-02 0.49799714E+03</pdfrwt>
<totfact> 0.59427878E+02</totfact>
</mgrwt>
</event>
<event>
 5    0  0.5719562E-003  0.6546365E+03  0.7546771E-02  0.9798118E-01
         -2   -1    0    0    0  501 -0.00000000000E+00  0.00000000000E+00  0.60848607333E+02  0.60848607333E+02  0.00000000000E+00 0.  1.
          2   -1    0    0  502    0  0.00000000000E+00 -0.00000000000E+00 -0.17607179368E+04  0.17607179368E+04  0.00000000000E+00 0. -1.
         25    1    1    2    0    0 -0.20371605226E+03 -0.11470159416E+03 -0.29314822054E+03  0.39524367782E+03  0.12500000000E+03 0.  0.
          2    1    1    2  502    0  0.18566576993E+03  0.98208764545E+02 -0.12109439563E+04  0.12290248187E+04  0.00000000000E+00 0. -1.
         -2    1    1    2    0  501  0.18050282329E+02  0.16492829617E+02 -0.19577715258E+03  0.19729804761E+03  0.00000000000E+00 0.  1.
<mgrwt>
<rscale>  4 0.65463649E+03</rscale>
<asrwt>0</asrwt>
<pdfrwt beam="1">  1        2 0.27087965E+00 0.65463649E+03</pdfrwt>
<pdfrwt beam="2">  1       -2 0.93613254E-02 0.65463649E+03</pdfrwt>
<totfact> 0.70946679E+02</totfact>
</mgrwt>
</event>
<event>
 5    0  0.5719562E-003  0.4677154E+03  0.7546771E-02  0.1022567E+00
          1   -1    0    0  502    0  0.00000000000E+00  0.00000000000E+00  0.12420782075E+04  0.12420782075E+04  0.00000000000E+00 0. -1.
         -1   -1    0    0    0  501 -0.00000000000E+00 -0.00000000000E+00 -0.44030585824E+02  0.44030585824E+02  0.00000000000E+00 0.  1.
         25    1    1    2    0    0  0.99706898040E+02 -0.17562123052E+03  0.49180899324E+03  0.54615507684E+03  0.12500000000E+03 0.  0.
          2    1    1    2  502    0 -0.16432096165E+02  0.11230278536E+03  0.42480428672E+03  0.43970514143E+03  0.00000000000E+00 0. -1.
         -2    1    1    2    0  501 -0.83274801876E+02  0.63318445154E+02  0.28143434169E+03  0.30024857503E+03  0.00000000000E+00 0.  1.
<mgrwt>
<rscale>  4 0.46771543E+03</rscale>
<asrwt>0</asrwt>
<pdfrwt beam="1">  1        1 0.19108893E+00 0.46771543E+03</pdfrwt>
<pdfrwt beam="2">  1       -1 0.67739372E-02 0.46771543E+03</pdfrwt>
<totfact> 0.11812677E+03</totfact>
</mgrwt>
</event>
<event>
 5    0  0.5719562E-003  0.4994751E+03  0.7546771E-02  0.1013916E+00
          1   -1    0    0  502    0  0.00000000000E+00  0.00000000000E+00  0.66117888114E+03  0.66117888114E+03  0.00000000000E+00 0.  1.
         -1   -1    0    0    0  501 -0.00000000000E+00 -0.00000000000E+00 -0.94329753122E+02  0.94329753122E+02  0.00000000000E+00 0. -1.
         25    1    1    2    0    0  0.17099751173E+03 -0.14936084292E+03  0.23158070538E+03  0.34756788333E+03  0.12500000000E+03 0.  0.
          4    1    1    2  502    0 -0.50315418315E+02  0.19614815583E+02  0.96811319570E+02  0.11085492279E+03  0.00000000000E+00 0.  1.
         -4    1    1    2    0  501 -0.12068209342E+03  0.12974602733E+03  0.23845710307E+03  0.29708582815E+03  0.00000000000E+00 0. -1.
<mgrwt>
<rscale>  4 0.49947509E+03</rscale>
<asrwt>0</asrwt>
<pdfrwt beam="1">  1        1 0.10171983E+00 0.49947509E+03</pdfrwt>
<pdfrwt beam="2">  1       -1 0.14512270E-01 0.49947509E+03</pdfrwt>
<totfact> 0.10372683E+03</totfact>
</mgrwt>
</event>
<event>
 5    0  0.5719562E-003  0.4815885E+03  0.7546771E-02  0.1018700E+00
          2   -1    0    0  502    0  0.00000000000E+00  0.00000000000E+00  0.68734781588E+03  0.68734781588E+03  0.00000000000E+00 0. -1.
         -2   -1    0    0    0  501 -0.00000000000E+00 -0.00000000000E+00 -0.84355946908E+02  0.84355946908E+02  0.00000000000E+00 0.  1.
         25    1    1    2    0    0  0.61713303916E+02 -0.20205459151E+03  0.30742620871E+03  0.39340877422E+03  0.12500000000E+03 0.  0.
          4    1    1    2  502    0 -0.11849120490E+02  0.94960752294E+02  0.55220010154E+02  0.11048617857E+03  0.00000000000E+00 0.  1.
         -4    1    1    2    0  501 -0.49864183426E+02  0.10709383922E+03  0.24034565011E+03  0.26780881000E+03  0.00000000000E+00 0. -1.
<mgrwt>
<rscale>  4 0.48158852E+03</rscale>
<asrwt>0</asrwt>
<pdfrwt beam="1">  1        2 0.10574581E+00 0.48158852E+03</pdfrwt>
<pdfrwt beam="2">  1       -2 0.12977838E-01 0.48158852E+03</pdfrwt>
<totfact> 0.18728301E+03</totfact>
</mgrwt>
</event>
<event>
 5    0  0.5719562E-003  0.6063166E+03  0.7546771E-02  0.9892387E-01
         -2   -1    0    0    0  501 -0.00000000000E+00  0.00000000000E+00  0.19821919460E+03  0.19821919460E+03  0.00000000000E+00 0. -1.
          2   -1    0    0  502    0  0.00000000000E+00 -0.00000000000E+00 -0.46365311195E+03  0.46365311195E+03  0.00000000000E+00 0.  1.
         25    1    1    2    0    0  0.86021519787E+02  0.22605869880E+03 -0.16580823043E+03  0.31877830297E+03  0.12500000000E+03 0.  0.
          1    1    1    2  502    0 -0.14209549719E+03 -0.11736298998E+03  0.16426333476E+01  0.18430382520E+03  0.00000000000E+00 0. -1.
         -1    1    1    2    0  501  0.56073977403E+02 -0.10869570882E+03 -0.10126832028E+03  0.15879017838E+03  0.00000000000E+00 0.  1.
<mgrwt>
<rscale>  4 0.60631657E+03</rscale>
<asrwt>0</asrwt>
<pdfrwt beam="1">  1        2 0.71331248E-01 0.60631657E+03</pdfrwt>
<pdfrwt beam="2">  1       -2 0.30495261E-01 0.60631657E+03</pdfrwt>
<totfact> 0.67205871E+02</totfact>
</mgrwt>
</event>
<event>
 5    0  0.5719562E-003  0.5445963E+03  0.7546771E-02  0.1002752E+00
         -1   -1    0    0    0  501 -0.00000000000E+00  0.00000000000E+00  0.89999352267E+02  0.89999352267E+02  0.00000000000E+00 0.  1.
          1   -1    0    0  502    0  0.00000000000E+00 -0.00000000000E+00 -0.82385347502E+03  0.82385347502E+03  0.00000000000E+00 0. -1.
         25    1    1    2    0    0 -0.14927479856E+03 -0.16750144464E+03 -0.54815320033E+03  0.60534009488E+03  0.12500000000E+03 0.  0.
          1    1    1    2  502    0  0.18448029317E+02  0.22222506532E+02 -0.82569188603E+02  0.87474799164E+02  0.00000000000E+00 0. -1.
         -1    1    1    2    0  501  0.13082676924E+03  0.14527893811E+03 -0.10313173381E+03  0.22103793323E+03  0.00000000000E+00 0.  1.
<mgrwt>
<rscale>  4 0.54459629E+03</rscale>
<asrwt>0</asrwt>
<pdfrwt beam="1">  1        1 0.12674669E+00 0.54459629E+03</pdfrwt>
<pdfrwt beam="2">  1       -1 0.13846054E-01 0.54459629E+03</pdfrwt>
<totfact> 0.79850966E+02</totfact>
</mgrwt>
</event>
<event>
 5    0  0.5719562E-003  0.5757542E+03  0.7546771E-02  0.9957026E-01
         -1   -1    0    0    0  501 -0.00000000000E+00  0.00000000000E+00  0.20724841305E+03  0.20724841305E+03  0.00000000000E+00 0.  1.
          1   -1    0    0  502    0  0.00000000000E+00 -0.00000000000E+00 -0.39987387518E+03  0.39987387518E+03  0.00000000000E+00 0. -1.
         25    1    1    2    0    0  0.15123987640E+03  0.14907379603E+03 -0.96434582004E+02  0.26461505150E+03  0.12500000000E+03 0.  0.
          1    1    1    2  502    0  0.37196988555E+02 -0.12199446628E+03  0.35500271681E+01  0.12758866898E+03  0.00000000000E+00 0. -1.
         -1    1    1    2    0  501 -0.18843686495E+03 -0.27079329752E+02 -0.99740907295E+02  0.21491856774E+03  0.00000000000E+00 0.  1.
<mgrwt>
<rscale>  4 0.57575420E+03</rscale>
<asrwt>0</asrwt>
<pdfrwt beam="1">  1        1 0.61519058E-01 0.57575420E+03</pdfrwt>
<pdfrwt beam="2">  1       -1 0.31884371E-01 0.57575420E+03</pdfrwt>
<totfact> 0.55546587E+02</totfact>
</mgrwt>
</event>
<event>
 5    0  0.5719562E-003  0.6293350E+03  0.7546771E-02  0.9846347E-01
          4   -1    0    0  502    0  0.00000000000E+00  0.00000000000E+00  0.68353991547E+03  0.68353991547E+03  0.00000000000E+00 0. -1.
         -4   -1    0    0    0  501 -0.00000000000E+00 -0.00000000000E+00 -0.14485715291E+03  0.14485715291E+03  0.00000000000E+00 0.  1.
         25    1    1    2    0    0  0.29238198791E+03  0.57042394465E+02  0.27196433754E+03  0.42229215304E+03  0.12500000000E+03 0.  0.
          2    1    1    2  502    0 -0.16774704600E+03 -0.57645203684E+02  0.12288868856E+03  0.21578616899E+03  0.00000000000E+00 0.  1.
         -2    1    1    2    0  501 -0.12463494191E+03  0.60280921886E+00  0.14382973646E+03  0.19031874636E+03  0.00000000000E+00 0. -1.
<mgrwt>
<rscale>  4 0.62933503E+03</rscale>
<asrwt>0</asrwt>
<pdfrwt beam="1">  1        4 0.10515999E+00 0.62933503E+03</pdfrwt>
<pdfrwt beam="2">  1       -4 0.22285716E-01 0.62933503E+03</pdfrwt>
<totfact> 0.27379544E+01</totfact>
</mgrwt>
</event>
<event>
 5    0  0.5719562E-003  0.5570206E+03  0.7546771E-02  0.9998819E-01
          1   -1    0    0  502    0  0.00000000000E+00  0.00000000000E+00  0.57539611569E+03  0.57539611569E+03  0.00000000000E+00 0.  1.
         -1   -1    0    0    0  501 -0.00000000000E+00 -0.00000000000E+00 -0.13480798083E+03  0.13480798083E+03  0.00000000000E+00 0. -1.
         25    1    1    2    0    0  0.16006004039E+03  0.18049733580E+03  0.13231860231E+03  0.30221137847E+03  0.12500000000E+03 0.  0.
          3    1    1    2  502    0 -0.15566146011E+03 -0.14504124246E+03  0.19280101254E+03  0.28712311403E+03  0.00000000000E+00 0. -1.
         -3    1    1    2    0  501 -0.43985802807E+01 -0.35456093347E+02  0.11546852001E+03  0.12086960403E+03  0.00000000000E+00 0.  1.
<mgrwt>
<rscale>  4 0.55702060E+03</rscale>
<asrwt>0</asrwt>
<pdfrwt beam="1">  1        1 0.88522478E-01 0.55702060E+03</pdfrwt>
<pdfrwt beam="2">  1       -1 0.20739690E-01 0.55702060E+03</pdfrwt>
<totfact> 0.70555602E+02</totfact>
</mgrwt>
</event>
<event>
 5    0  0.5719562E-003  0.6641245E+03  0.7546771E-02  0.9780631E-01
         -2   -1    0    0    0  501 -0.00000000000E+00  0.00000000000E+00  0.10577158183E+04  0.10577158183E+04  0.00000000000E+00 0.  1.
          2   -1    0    0  502    0  0.00000000000E+00 -0.00000000000E+00 -0.10424855647E+03  0.10424855647E+03  0.00000000000E+00 0. -1.
         25    1    1    2    0    0 -0.22225725385E+03 -0.11111389126E+02  0.21553693270E+03  0.33407023096E+03  0.12500000000E+03 0.  0.
          3    1    1    2  502    0  0.27257952619E+03 -0.28487767263E+02  0.40600263359E+03  0.48984618960E+03  0.00000000000E+00 0.  1.
         -3    1    1    2    0  501 -0.50322272339E+02  0.39599156388E+02  0.33192769557E+03  0.33804795424E+03  0.00000000000E+00 0. -1.
<mgrwt>
<rscale>  4 0.66412453E+03</rscale>
<asrwt>0</asrwt>
<pdfrwt beam="1">  1        2 0.16038240E-01 0.66412453E+03</pdfrwt>
<pdfrwt beam="2">  1       -2 0.16272550E+00 0.66412453E+03</pdfrwt>
<totfact> 0.90367558E+01</totfact>
</mgrwt>
</event>
<event>
 5    0  0.5719562E-003  0.9013331E+03  0.7546771E-02  0.9423917E-01
         -1   -1    0    0    0  501 -0.00000000000E+00  0.00000000000E+00  0.21548117548E+03  0.21548117548E+03  0.00000000000E+00 0. -1.
          1   -1    0    0  502    0  0.00000000000E+00 -0.00000000000E+00 -0.94254328452E+03  0.94254328452E+03  0.00000000000E+00 0.  1.
         25    1    1    2    0    0  0.27687940550E+03 -0.26557266228E+03 -0.16552969864E+03  0.43613773659E+03  0.12500000000E+03 0.  0.
          3    1    1    2  502    0 -0.26826809885E+03  0.29073362999E+03 -0.57013479143E+03  0.69393623401E+03  0.00000000000E+00 0.  1.
         -3    1    1    2    0  501 -0.86113066550E+01 -0.25160967714E+02  0.86023810384E+01  0.27950489408E+02  0.00000000000E+00 0. -1.
<mgrwt>
<rscale>  4 0.90133309E+03</rscale>
<asrwt>0</asrwt>
<pdfrwt beam="1">  1        1 0.14500666E+00 0.90133309E+03</pdfrwt>
<pdfrwt beam="2">  1       -1 0.33150950E-01 0.90133309E+03</pdfrwt>
<totfact> 0.14458753E+02</totfact>
</mgrwt>
</event>
<event>
 5    0  0.5719562E-003  0.7897244E+03  0.7546771E-02  0.9575011E-01
          2   -1    0    0  502    0  0.00000000000E+00  0.00000000000E+00  0.21077874898E+04  0.21077874898E+04  0.00000000000E+00 0. -1.
         -2   -1    0    0    0  501 -0.00000000000E+00 -0.00000000000E+00 -0.73971472541E+02  0.73971472541E+02  0.00000000000E+00 0.  1.
         25    1    1    2    0    0  0.31374994247E+03  0.19408189050E+03  0.75529618411E+03  0.84982594238E+03  0.12500000000E+03 0.  0.
          2    1    1    2  502    0 -0.34321773545E+02 -0.33679975800E+02  0.11552877196E+03  0.12513681337E+03  0.00000000000E+00 0.  1.
         -2    1    1    2    0  501 -0.27942816892E+03 -0.16040191470E+03  0.11629910612E+04  0.12067962065E+04  0.00000000000E+00 0. -1.
<mgrwt>
<rscale>  4 0.78972437E+03</rscale>
<asrwt>0</asrwt>
<pdfrwt beam="1">  1        2 0.32427495E+00 0.78972437E+03</pdfrwt>
<pdfrwt beam="2">  1       -2 0.11380228E-01 0.78972437E+03</pdfrwt>
<totfact> 0.33062898E+02</totfact>
</mgrwt>
</event>
<event>
 5    0  0.5719562E-003  0.6843189E+03  0.7546771E-02  0.9744431E-01
          2   -1    0    0  502    0  0.00000000000E+00  0.00000000000E+00  0.70914233270E+03  0.70914233270E+03  0.00000000000E+00 0.  1.
         -2   -1    0    0    0  501 -0.00000000000E+00 -0.00000000000E+00 -0.16509108928E+03  0.16509108928E+03  0.00000000000E+00 0. -1.
         25    1    1    2    0    0  0.29514874068E+03 -0.13172559374E+03  0.21866145876E+03  0.40975876405E+03  0.12500000000E+03 0.  0.
          2    1    1    2  502    0 -0.10047215692E+03  0.59732433584E+02  0.73462257346E+02  0.13805550041E+03  0.00000000000E+00 0. -1.
         -2    1    1    2    0  501 -0.19467658375E+03  0.71993160157E+02  0.25192752733E+03  0.32641915752E+03  0.00000000000E+00 0.  1.
<mgrwt>
<rscale>  4 0.68431887E+03</rscale>
<asrwt>0</asrwt>
<pdfrwt beam="1">  1        2 0.10909882E+00 0.68431887E+03</pdfrwt>
<pdfrwt beam="2">  1       -2 0.25398629E-01 0.68431887E+03</pdfrwt>
<totfact> 0.56464837E+02</totfact>
</mgrwt>
</event>
<event>
 5    0  0.5719562E-003  0.6663060E+03  0.7546771E-02  0.9776654E-01
          4   -1    0    0  502    0  0.00000000000E+00  0.00000000000E+00  0.23076048097E+03  0.23076048097E+03  0.00000000000E+00 0.  1.
         -4   -1    0    0    0  501 -0.00000000000E+00 -0.00000000000E+00 -0.48097888333E+03  0.48097888333E+03  0.00000000000E+00 0. -1.
         25    1    1    2    0    0  0.29278378503E+03 -0.14473783594E+02 -0.85017185234E+02  0.32982534313E+03  0.12500000000E+03 0.  0.
          3    1    1    2  502    0 -0.10734376018E+03  0.56789299164E+02  0.11901296114E+02  0.12202191688E+03  0.00000000000E+00 0.  1.
         -3    1    1    2    0  501 -0.18544002484E+03 -0.42315515570E+02 -0.17710251324E+03  0.25989210428E+03  0.00000000000E+00 0. -1.
<mgrwt>
<rscale>  4 0.66630599E+03</rscale>
<asrwt>0</asrwt>
<pdfrwt beam="1">  1        4 0.35501612E-01 0.66630599E+03</pdfrwt>
<pdfrwt beam="2">  1       -4 0.73996751E-01 0.66630599E+03</pdfrwt>
<totfact> 0.25357941E+01</totfact>
</mgrwt>
</event>
<event>
 5    0  0.5719562E-003  0.7086089E+03  0.7546771E-02  0.9702622E-01
          1   -1    0    0  502    0  0.00000000000E+00  0.00000000000E+00  0.19570285831E+04  0.19570285831E+04  0.00000000000E+00 0.  1.
         -1   -1    0    0    0  501 -0.00000000000E+00 -0.00000000000E+00 -0.64143996773E+02  0.64143996773E+02  0.00000000000E+00 0. -1.
         25    1    1    2    0    0 -0.17516417239E+03  0.14382408933E+03  0.11749478837E+04  0.12031190237E+04  0.12500000000E+03 0.  0.
          1    1    1    2  502    0  0.21200566539E+03  0.30186669414E+02  0.38151647438E+03  0.43750709410E+03  0.00000000000E+00 0.  1.
         -1    1    1    2    0  501 -0.36841493003E+02 -0.17401075874E+03  0.33642022831E+03  0.38054646205E+03  0.00000000000E+00 0. -1.
<mgrwt>
<rscale>  4 0.70860888E+03</rscale>
<asrwt>0</asrwt>
<pdfrwt beam="1">  1        1 0.30108127E+00 0.70860888E+03</pdfrwt>
<pdfrwt beam="2">  1       -1 0.98683087E-02 0.70860888E+03</pdfrwt>
<totfact> 0.21189152E+02</totfact>
</mgrwt>
</event>
<event>
 5    0  0.5719562E-003  0.7357669E+03  0.7546771E-02  0.9657948E-01
          1   -1    0    0  502    0  0.00000000000E+00  0.00000000000E+00  0.10176124864E+03  0.10176124864E+03  0.00000000000E+00 0. -1.
         -1   -1    0    0    0  501 -0.00000000000E+00 -0.00000000000E+00 -0.13299585842E+04  0.13299585842E+04  0.00000000000E+00 0.  1.
         25    1    1    2    0    0 -0.20021170226E+03  0.62355172336E+02 -0.95314451486E+02  0.26207391686E+03  0.12500000000E+03 0.  0.
          3    1    1    2  502    0  0.15653932492E+03 -0.12459812812E+03 -0.62885521275E+03  0.65991524636E+03  0.00000000000E+00 0. -1.
         -3    1    1    2    0  501  0.43672377334E+02  0.62242955781E+02 -0.50402767130E+03  0.50973066959E+03  0.00000000000E+00 0.  1.
<mgrwt>
<rscale>  4 0.73576694E+03</rscale>
<asrwt>0</asrwt>
<pdfrwt beam="1">  1        1 0.15655579E-01 0.73576694E+03</pdfrwt>
<pdfrwt beam="2">  1       -1 0.20460899E+00 0.73576694E+03</pdfrwt>
<totfact> 0.52182984E+01</totfact>
</mgrwt>
</event>
<event>
 5    0  0.5719562E-003  0.4968416E+03  0.7546771E-02  0.1014607E+00
         -2   -1    0    0    0  501 -0.00000000000E+00  0.00000000000E+00  0.21987244284E+03  0.21987244284E+03  0.00000000000E+00 0.  1.
          2   -1    0    0  502    0  0.00000000000E+00 -0.00000000000E+00 -0.28067585803E+03  0.28067585803E+03  0.00000000000E+00 0. -1.
         25    1    1    2    0    0 -0.92092281156E+02 -0.20584581164E+03 -0.56581215429E+01  0.25789629846E+03  0.12500000000E+03 0.  0.
          4    1    1    2  502    0  0.55165741522E+02  0.84607536512E+02  0.74924397537E+01  0.10128095046E+03  0.00000000000E+00 0.  1.
         -4    1    1    2    0  501  0.36926539635E+02  0.12123827513E+03 -0.62637733395E+02  0.14137105195E+03  0.00000000000E+00 0. -1.
<mgrwt>
<rscale>  4 0.49684157E+03</rscale>
<asrwt>0</asrwt>
<pdfrwt beam="1">  1        2 0.43180901E-01 0.49684157E+03</pdfrwt>
<pdfrwt beam="2">  1       -2 0.33826530E-01 0.49684157E+03</pdfrwt>
<totfact> 0.96857111E+02</totfact>
</mgrwt>
</event>
<event>
 5    0  0.5719562E-003  0.5100918E+03  0.7546771E-02  0.1011178E+00
          2   -1    0    0  502    0  0.00000000000E+00  0.00000000000E+00  0.27921981906E+04  0.27921981906E+04  0.00000000000E+00 0.  1.
         -2   -1    0    0    0  501 -0.00000000000E+00 -0.00000000000E+00 -0.23296491444E+02  0.23296491444E+02  0.00000000000E+00 0. -1.
         25    1    1    2    0    0 -0.17876058931E+03  0.10134245658E+03  0.18356863953E+04  0.18513765645E+04  0.12500000000E+03 0.  0.
          4    1    1    2  502    0  0.99855941781E+02 -0.10399247796E+03  0.40205967079E+03  0.42712717480E+03  0.00000000000E+00 0. -1.
         -4    1    1    2    0  501  0.78904647527E+02  0.26500213746E+01  0.53115563303E+03  0.53699094267E+03  0.00000000000E+00 0.  1.
<mgrwt>
<rscale>  4 0.51009184E+03</rscale>
<asrwt>0</asrwt>
<pdfrwt beam="1">  1        2 0.42956869E+00 0.51009184E+03</pdfrwt>
<pdfrwt beam="2">  1       -2 0.35840778E-02 0.51009184E+03</pdfrwt>
<totfact> 0.86420842E+02</totfact>
</mgrwt>
</event>
<event>
 5    0  0.5719562E-003  0.5247090E+03  0.7546771E-02  0.1007523E+00
         -2   -1    0    0    0  501 -0.00000000000E+00  0.00000000000E+00  0.50763938170E+02  0.50763938170E+02  0.00000000000E+00 0.  1.
          2   -1    0    0  502    0  0.00000000000E+00 -0.00000000000E+00 -0.13558813121E+04  0.13558813121E+04  0.00000000000E+00 0. -1.
         25    1    1    2    0    0  0.38192390368E+02 -0.23706438904E+03 -0.64505098237E+03  0.69955268071E+03  0.12500000000E+03 0.  0.
          2    1    1    2  502    0 -0.20468227852E+02  0.20299031455E+03 -0.61458234490E+03  0.64756117458E+03  0.00000000000E+00 0. -1.
         -2    1    1    2    0  501 -0.17724162516E+02  0.34074074489E+02 -0.45484046680E+02  0.59531395008E+02  0.00000000000E+00 0.  1.
<mgrwt>
<rscale>  4 0.52470897E+03</rscale>
<asrwt>0</asrwt>
<pdfrwt beam="1">  1        2 0.20859710E+00 0.52470897E+03</pdfrwt>
<pdfrwt beam="2">  1       -2 0.78098376E-02 0.52470897E+03</pdfrwt>
<totfact> 0.15931844E+03</totfact>
</mgrwt>
</event>
<event>
 5    0  0.5719562E-003  0.6511959E+03  0.7546771E-02  0.9804538E-01
          1   -1    0    0  502    0  0.00000000000E+00  0.00000000000E+00  0.13153294236E+04  0.13153294236E+04  0.00000000000E+00 0. -1.
         -1   -1    0    0    0  501 -0.00000000000E+00 -0.00000000000E+00 -0.80598840248E+02  0.80598840248E+02  0.00000000000E+00 0.  1.
         25    1    1    2    0    0  0.65791972262E+02  0.18942677090E+03  0.10716099613E+04  0.10973531767E+04  0.12500000000E+03 0.  0.
          2    1    1    2  502    0  0.20748912039E+02 -0.44910625372E+02 -0.16668589717E+02  0.52204631071E+02  0.00000000000E+00 0. -1.
         -2    1    1    2    0  501 -0.86540884302E+02 -0.14451614553E+03  0.17978921169E+03  0.24637045605E+03  0.00000000000E+00 0.  1.
<mgrwt>
<rscale>  4 0.65119590E+03</rscale>
<asrwt>0</asrwt>
<pdfrwt beam="1">  1        1 0.20235836E+00 0.65119590E+03</pdfrwt>
<pdfrwt beam="2">  1       -1 0.12399823E-01 0.65119590E+03</pdfrwt>
<totfact> 0.40268343E+02</totfact>
</mgrwt>
</event>
<event>
 5    0  0.5719562E-003  0.4585959E+03  0.7546771E-02  0.1025189E+00
          1   -1    0    0  502    0  0.00000000000E+00  0.00000000000E+00  0.25472359199E+03  0.25472359199E+03  0.00000000000E+00 0.  1.
         -1   -1    0    0    0  501 -0.00000000000E+00 -0.00000000000E+00 -0.20641022582E+03  0.20641022582E+03  0.00000000000E+00 0. -1.
         25    1    1    2    0    0  0.18639919766E+03 -0.76910109319E+02 -0.28049238278E+02  0.23889660017E+03  0.12500000000E+03 0.  0.
          3    1    1    2  502    0 -0.15648654204E+03  0.63068521132E+02  0.40463263242E+02  0.17350202266E+03  0.00000000000E+00 0.  1.
         -3    1    1    2    0  501 -0.29912655625E+02  0.13841588188E+02  0.35899341207E+02  0.48735194974E+02  0.00000000000E+00 0. -1.
<mgrwt>
<rscale>  4 0.45859592E+03</rscale>
<asrwt>0</asrwt>
<pdfrwt beam="1">  1        1 0.39188245E-01 0.45859592E+03</pdfrwt>
<pdfrwt beam="2">  1       -1 0.31755419E-01 0.45859592E+03</pdfrwt>
<totfact> 0.10030776E+03</totfact>
</mgrwt>
</event>
<event>
 5    0  0.5719562E-003  0.7621394E+03  0.7546771E-02  0.9616496E-01
         -1   -1    0    0    0  501 -0.00000000000E+00  0.00000000000E+00  0.89185353284E+02  0.89185353284E+02  0.00000000000E+00 0. -1.
          1   -1    0    0  502    0  0.00000000000E+00 -0.00000000000E+00 -0.16282281264E+04  0.16282281264E+04  0.00000000000E+00 0.  1.
         25    1    1    2    0    0  0.13906415162E+03  0.29821627281E+03 -0.42005503173E+03  0.54803559494E+03  0.12500000000E+03 0.  0.
          2    1    1    2  502    0 -0.92842171076E+02 -0.14377019405E+03 -0.45563768867E+03  0.48671885187E+03  0.00000000000E+00 0. -1.
         -2    1    1    2    0  501 -0.46221980548E+02 -0.15444607877E+03 -0.66335005272E+03  0.68265903288E+03  0.00000000000E+00 0.  1.
<mgrwt>
<rscale>  4 0.76213936E+03</rscale>
<asrwt>0</asrwt>
<pdfrwt beam="1">  1        1 0.25049661E+00 0.76213936E+03</pdfrwt>
<pdfrwt beam="2">  1       -1 0.13720825E-01 0.76213936E+03</pdfrwt>
<totfact> 0.20699252E+02</totfact>
</mgrwt>
</event>
<event>
 5    0  0.5719562E-003  0.6280184E+03  0.7546771E-02  0.9848923E-01
         -2   -1    0    0    0  501 -0.00000000000E+00  0.00000000000E+00  0.92415849977E+02  0.92415849977E+02  0.00000000000E+00 0.  1.
          2   -1    0    0  502    0  0.00000000000E+00 -0.00000000000E+00 -0.10669357240E+04  0.10669357240E+04  0.00000000000E+00 0. -1.
         25    1    1    2    0    0  0.22127635259E+03 -0.90679390374E+02 -0.16981972308E+03  0.31882552344E+03  0.12500000000E+03 0.  0.
          2    1    1    2  502    0 -0.19294596090E+03  0.71356141799E+02 -0.63839405266E+03  0.67072111140E+03  0.00000000000E+00 0. -1.
         -2    1    1    2    0  501 -0.28330391686E+02  0.19323248574E+02 -0.16630609831E+03  0.16980493916E+03  0.00000000000E+00 0.  1.
<mgrwt>
<rscale>  4 0.62801838E+03</rscale>
<asrwt>0</asrwt>
<pdfrwt beam="1">  1        2 0.16414397E+00 0.62801838E+03</pdfrwt>
<pdfrwt beam="2">  1       -2 0.14217822E-01 0.62801838E+03</pdfrwt>
<totfact> 0.88383835E+02</totfact>
</mgrwt>
</event>
<event>
 5    0  0.5719562E-003  0.6703089E+03  0.7546771E-02  0.9769400E-01
          2   -1    0    0  502    0  0.00000000000E+00  0.00000000000E+00  0.31194672866E+03  0.31194672866E+03  0.00000000000E+00 0. -1.
         -2   -1    0    0    0  501 -0.00000000000E+00 -0.00000000000E+00 -0.36008875474E+03  0.36008875474E+03  0.00000000000E+00 0.  1.
         25    1    1    2    0    0 -0.19888938214E+03 -0.27496530672E+02 -0.21716854793E+03  0.32109223556E+03  0.12500000000E+03 0.  0.
          4    1    1    2  502    0  0.13417777529E+03  0.83805990023E+02 -0.35323399848E+01  0.15823904945E+03  0.00000000000E+00 0.  1.
         -4    1    1    2    0  501  0.64711606846E+02 -0.56309459351E+02  0.17255886184E+03  0.19270419838E+03  0.00000000000E+00 0. -1.
<mgrwt>
<rscale>  4 0.67030891E+03</rscale>
<asrwt>0</asrwt>
<pdfrwt beam="1">  1        2 0.47991804E-01 0.67030891E+03</pdfrwt>
<pdfrwt beam="2">  1       -2 0.55398270E-01 0.67030891E+03</pdfrwt>
<totfact> 0.32503376E+02</totfact>
</mgrwt>
</event>
<event>
 5    0  0.5719562E-003  0.1264477E+04  0.7546771E-02  0.9058219E-01
          2   -1    0    0  502    0  0.00000000000E+00  0.00000000000E+00  0.13239540025E+04  0.13239540025E+04  0.00000000000E+00 0.  1.
         -2   -1    0    0    0  501 -0.00000000000E+00 -0.00000000000E+00 -0.30191796799E+03  0.30191796799E+03  0.00000000000E+00 0. -1.
         25    1    1    2    0    0  0.16863105189E+03 -0.56753690376E+03  0.49461219077E+03  0.78153745147E+03  0.12500000000E+03 0.  0.
          3    1    1    2  502    0 -0.19369994978E+03  0.52166529252E+03  0.34538589788E+03  0.65493951356E+03  0.00000000000E+00 0. -1.
         -3    1    1    2    0  501  0.25068897898E+02  0.45871611240E+02  0.18203794589E+03  0.18939500548E+03  0.00000000000E+00 0.  1.
<mgrwt>
<rscale>  4 0.12644770E+04</rscale>
<asrwt>0</asrwt>
<pdfrwt beam="1">  1        2 0.20368523E+00 0.12644770E+04</pdfrwt>
<pdfrwt beam="2">  1       -2 0.46448919E-01 0.12644770E+04</pdfrwt>
<totfact> 0.69093067E+01</totfact>
</mgrwt>
</event>
<event>
 5    0  0.5719562E-003  0.4522202E+03  0.7546771E-02  0.1027062E+00
          2   -1    0    0  502    0  0.00000000000E+00  0.00000000000E+00  0.10697943258E+04  0.10697943258E+04  0.00000000000E+00 0.  1.
         -2   -1    0    0    0  501 -0.00000000000E+00 -0.00000000000E+00 -0.47790285684E+02  0.47790285684E+02  0.00000000000E+00 0. -1.
         25    1    1    2    0    0  0.16137202680E+03 -0.12253680096E+03  0.47333958264E+03  0.52984106968E+03  0.12500000000E+03 0.  0.
          2    1    1    2  502    0 -0.29069977646E+02  0.39904647831E+02  0.19599010064E+03  0.20211275087E+03  0.00000000000E+00 0.  1.
         -2    1    1    2    0  501 -0.13230204916E+03  0.82632153130E+02  0.35267435684E+03  0.38563079093E+03  0.00000000000E+00 0. -1.
<mgrwt>
<rscale>  4 0.45222020E+03</rscale>
<asrwt>0</asrwt>
<pdfrwt beam="1">  1        2 0.16458372E+00 0.45222020E+03</pdfrwt>
<pdfrwt beam="2">  1       -2 0.73523524E-02 0.45222020E+03</pdfrwt>
<totfact> 0.25747005E+03</totfact>
</mgrwt>
</event>
<event>
 5    0  0.5719562E-003  0.5421821E+03  0.7546771E-02  0.1003320E+00
         -1   -1    0    0    0  501 -0.00000000000E+00  0.00000000000E+00  0.84322431929E+02  0.84322431929E+02  0.00000000000E+00 0.  1.
          1   -1    0    0  502    0  0.00000000000E+00 -0.00000000000E+00 -0.87153979181E+03  0.87153979181E+03  0.00000000000E+00 0. -1.
         25    1    1    2    0    0 -0.97650591730E+02 -0.22545558471E+03 -0.51246386399E+03  0.58190211431E+03  0.12500000000E+03 0.  0.
          4    1    1    2  502    0  0.10465126026E+03  0.18467733176E+03 -0.23246531841E+03  0.31479791518E+03  0.00000000000E+00 0.  1.
         -4    1    1    2    0  501 -0.70006685345E+01  0.40778252951E+02 -0.42288177487E+02  0.59162194253E+02  0.00000000000E+00 0. -1.
<mgrwt>
<rscale>  4 0.54218209E+03</rscale>
<asrwt>0</asrwt>
<pdfrwt beam="1">  1        1 0.13408305E+00 0.54218209E+03</pdfrwt>
<pdfrwt beam="2">  1       -1 0.12972681E-01 0.54218209E+03</pdfrwt>
<totfact> 0.80919473E+02</totfact>
</mgrwt>
</event>
<event>
 5    0  0.5719562E-003  0.8232401E+03  0.7546771E-02  0.9526974E-01
         -1   -1    0    0    0  501 -0.00000000000E+00  0.00000000000E+00  0.22470355702E+03  0.22470355702E+03  0.00000000000E+00 0. -1.
          1   -1    0    0  502    0  0.00000000000E+00 -0.00000000000E+00 -0.75402043858E+03  0.75402043858E+03  0.00000000000E+00 0.  1.
         25    1    1    2    0    0  0.29343628240E+03  0.16288844848E+03 -0.18953151220E+03  0.40519710339E+03  0.12500000000E+03 0.  0.
          2    1    1    2  502    0 -0.10848941069E+03 -0.15556538455E+03 -0.33898367920E+03  0.38843336091E+03  0.00000000000E+00 0.  1.
         -2    1    1    2    0  501 -0.18494687172E+03 -0.73230639302E+01 -0.80169014877E+00  0.18509353130E+03  0.00000000000E+00 0. -1.
<mgrwt>
<rscale>  4 0.82324012E+03</rscale>
<asrwt>0</asrwt>
<pdfrwt beam="1">  1        1 0.11600314E+00 0.82324012E+03</pdfrwt>
<pdfrwt beam="2">  1       -1 0.34569779E-01 0.82324012E+03</pdfrwt>
<totfact> 0.19449768E+02</totfact>
</mgrwt>
</event>
<event>
 5    0  0.5719562E-003  0.5078176E+03  0.7546771E-02  0.1011758E+00
          1   -1    0    0  502    0  0.00000000000E+00  0.00000000000E+00  0.17766272021E+04  0.17766272021E+04  0.00000000000E+00 0.  1.
         -1   -1    0    0    0  501 -0.00000000000E+00 -0.00000000000E+00 -0.36287680798E+02  0.36287680798E+02  0.00000000000E+00 0. -1.
         25    1    1    2    0    0 -0.19178379423E+03  0.12628890465E+03  0.74818181455E+03  0.79254712087E+03  0.12500000000E+03 0.  0.
          1    1    1    2  502    0  0.42432419455E+02 -0.24249975051E+02  0.11851532798E+03  0.12819693630E+03  0.00000000000E+00 0. -1.
         -1    1    1    2    0  501  0.14935137478E+03 -0.10203892960E+03  0.87364237872E+03  0.89217082568E+03  0.00000000000E+00 0.  1.
<mgrwt>
<rscale>  4 0.50781761E+03</rscale>
<asrwt>0</asrwt>
<pdfrwt beam="1">  1        1 0.27332719E+00 0.50781761E+03</pdfrwt>
<pdfrwt beam="2">  1       -1 0.55827215E-02 0.50781761E+03</pdfrwt>
<totfact> 0.68807781E+02</totfact>
</mgrwt>
</event>
<event>
 5    0  0.5719562E-003  0.5490686E+03  0.7546771E-02  0.1001710E+00
         -1   -1    0    0    0  501 -0.00000000000E+00  0.00000000000E+00  0.36488763609E+02  0.36488763609E+02  0.00000000000E+00 0.  1.
          1   -1    0    0  502    0  0.00000000000E+00 -0.00000000000E+00 -0.20655418477E+04  0.20655418477E+04  0.00000000000E+00 0. -1.
         25    1    1    2    0    0 -0.19362871047E+03  0.91880142998E+02 -0.16134655537E+04  0.16324307432E+04  0.12500000000E+03 0.  0.
          4    1    1    2  502    0  0.85729846730E+02 -0.45206762214E+02 -0.23402644093E+03  0.25330146668E+03  0.00000000000E+00 0. -1.
         -4    1    1    2    0  501  0.10789886374E+03 -0.46673380784E+02 -0.18156108940E+03  0.21629840142E+03  0.00000000000E+00 0.  1.
<mgrwt>
<rscale>  4 0.54906855E+03</rscale>
<asrwt>0</asrwt>
<pdfrwt beam="1">  1        1 0.31777567E+00 0.54906855E+03</pdfrwt>
<pdfrwt beam="2">  1       -1 0.56136559E-02 0.54906855E+03</pdfrwt>
<totfact> 0.43765973E+02</totfact>
</mgrwt>
</event>
<event>
 5    0  0.5719562E-003  0.7149090E+03  0.7546771E-02  0.9692070E-01
          1   -1    0    0  502    0  0.00000000000E+00  0.00000000000E+00  0.98762975669E+03  0.98762975669E+03  0.00000000000E+00 0.  1.
         -1   -1    0    0    0  501 -0.00000000000E+00 -0.00000000000E+00 -0.12937410872E+03  0.12937410872E+03  0.00000000000E+00 0. -1.
         25    1    1    2    0    0 -0.47866775343E+02 -0.28451926792E+03  0.38453403584E+03  0.49672312883E+03  0.12500000000E+03 0.  0.
          3    1    1    2  502    0  0.14843067216E+03  0.25523393442E+03  0.36196815379E+03  0.46711558535E+03  0.00000000000E+00 0. -1.
         -3    1    1    2    0  501 -0.10056389682E+03  0.29285333496E+02  0.11175345834E+03  0.15316515124E+03  0.00000000000E+00 0.  1.
<mgrwt>
<rscale>  4 0.71490900E+03</rscale>
<asrwt>0</asrwt>
<pdfrwt beam="1">  1        1 0.15194303E+00 0.71490900E+03</pdfrwt>
<pdfrwt beam="2">  1       -1 0.19903710E-01 0.71490900E+03</pdfrwt>
<totfact> 0.32288439E+02</totfact>
</mgrwt>
</event>
<event>
 5    0  0.5719562E-003  0.5509482E+03  0.7546771E-02  0.1001275E+00
         -3   -1    0    0    0  501 -0.00000000000E+00  0.00000000000E+00  0.12468713720E+03  0.12468713720E+03  0.00000000000E+00 0.  1.
          3   -1    0    0  502    0  0.00000000000E+00 -0.00000000000E+00 -0.60861123500E+03  0.60861123500E+03  0.00000000000E+00 0. -1.
         25    1    1    2    0    0 -0.20799322797E+03  0.45350407545E+02 -0.24041808728E+03  0.34459207629E+03  0.12500000000E+03 0.  0.
          1    1    1    2  502    0  0.14773383070E+03  0.29921699846E+02 -0.25015231078E+03  0.29205611009E+03  0.00000000000E+00 0. -1.
         -1    1    1    2    0  501  0.60259397272E+02 -0.75272107391E+02  0.66463002582E+01  0.96650185814E+02  0.00000000000E+00 0.  1.
<mgrwt>
<rscale>  4 0.55094825E+03</rscale>
<asrwt>0</asrwt>
<pdfrwt beam="1">  1        3 0.93632497E-01 0.55094825E+03</pdfrwt>
<pdfrwt beam="2">  1       -3 0.19182637E-01 0.55094825E+03</pdfrwt>
<totfact> 0.66146897E+01</totfact>
</mgrwt>
</event>
<event>
 5    0  0.5719562E-003  0.7465109E+03  0.7546771E-02  0.9640840E-01
          1   -1    0    0  502    0  0.00000000000E+00  0.00000000000E+00  0.40134990597E+03  0.40134990597E+03  0.00000000000E+00 0. -1.
         -1   -1    0    0    0  501 -0.00000000000E+00 -0.00000000000E+00 -0.34712763030E+03  0.34712763030E+03  0.00000000000E+00 0.  1.
         25    1    1    2    0    0  0.50604735893E+02 -0.23894888231E+03 -0.15278910035E+03  0.31404922677E+03  0.12500000000E+03 0.  0.
          3    1    1    2  502    0  0.25755913787E+01  0.26037121485E+02 -0.73647713037E+02  0.78157219767E+02  0.00000000000E+00 0.  1.
         -3    1    1    2    0  501 -0.53180327271E+02  0.21291176083E+03  0.28065908906E+03  0.35627108973E+03  0.00000000000E+00 0. -1.
<mgrwt>
<rscale>  4 0.74651093E+03</rscale>
<asrwt>0</asrwt>
<pdfrwt beam="1">  1        1 0.61746139E-01 0.74651093E+03</pdfrwt>
<pdfrwt beam="2">  1       -1 0.53404251E-01 0.74651093E+03</pdfrwt>
<totfact> 0.21405473E+02</totfact>
</mgrwt>
</event>
<event>
 5    0  0.5719562E-003  0.7426870E+03  0.7546771E-02  0.9646894E-01
          2   -1    0    0  502    0  0.00000000000E+00  0.00000000000E+00  0.58830297783E+03  0.58830297783E+03  0.00000000000E+00 0. -1.
         -2   -1    0    0    0  501 -0.00000000000E+00 -0.00000000000E+00 -0.23439624939E+03  0.23439624939E+03  0.00000000000E+00 0.  1.
         25    1    1    2    0    0  0.28740015188E+03  0.91823483553E+02 -0.13699442717E+02  0.32686858852E+03  0.12500000000E+03 0.  0.
          2    1    1    2  502    0 -0.14351526283E+03  0.25286423396E+02  0.18519497920E+03  0.23565486244E+03  0.00000000000E+00 0.  1.
         -2    1    1    2    0  501 -0.14388488905E+03 -0.11710990695E+03  0.18241119196E+03  0.26017577626E+03  0.00000000000E+00 0. -1.
<mgrwt>
<rscale>  4 0.74268704E+03</rscale>
<asrwt>0</asrwt>
<pdfrwt beam="1">  1        2 0.90508150E-01 0.74268704E+03</pdfrwt>
<pdfrwt beam="2">  1       -2 0.36060962E-01 0.74268704E+03</pdfrwt>
<totfact> 0.36986282E+02</totfact>
</mgrwt>
</event>
<event>
 5    0  0.5719562E-003  0.4860513E+03  0.7546771E-02  0.1017485E+00
          2   -1    0    0  502    0  0.00000000000E+00  0.00000000000E+00  0.46985754620E+03  0.46985754620E+03  0.00000000000E+00 0. -1.
         -2   -1    0    0    0  501 -0.00000000000E+00 -0.00000000000E+00 -0.12570081394E+03  0.12570081394E+03  0.00000000000E+00 0.  1.
         25    1    1    2    0    0 -0.15159478163E+03 -0.16091911286E+03  0.14078077681E+03  0.29037934813E+03  0.12500000000E+03 0.  0.
          3    1    1    2  502    0  0.12897737553E+03  0.14010491557E+03  0.14552999922E+03  0.23967380215E+03  0.00000000000E+00 0. -1.
         -3    1    1    2    0  501  0.22617406098E+02  0.20814197288E+02  0.57845956225E+02  0.65505209861E+02  0.00000000000E+00 0.  1.
<mgrwt>
<rscale>  4 0.48605134E+03</rscale>
<asrwt>0</asrwt>
<pdfrwt beam="1">  1        2 0.72285775E-01 0.48605134E+03</pdfrwt>
<pdfrwt beam="2">  1       -2 0.19338587E-01 0.48605134E+03</pdfrwt>
<totfact> 0.14953715E+03</totfact>
</mgrwt>
</event>
<event>
 5    0  0.5719562E-003  0.6502269E+03  0.7546771E-02  0.9806354E-01
         -1   -1    0    0    0  501 -0.00000000000E+00  0.00000000000E+00  0.36600487124E+02  0.36600487124E+02  0.00000000000E+00 0.  1.
          1   -1    0    0  502    0  0.00000000000E+00 -0.00000000000E+00 -0.28879055516E+04  0.28879055516E+04  0.00000000000E+00 0. -1.
         25    1    1    2    0    0 -0.26831317139E+03 -0.36739729193E+02 -0.17068959824E+04  0.17327609934E+04  0.12500000000E+03 0.  0.
          1    1    1    2  502    0  0.35230984844E+02 -0.61813767617E+02 -0.15607367212E+03  0.17152596098E+03  0.00000000000E+00 0. -1.
         -1    1    1    2    0  501  0.23308218655E+03  0.98553496810E+02 -0.98833540997E+03  0.10202190843E+04  0.00000000000E+00 0.  1.
<mgrwt>
<rscale>  4 0.65022688E+03</rscale>
<asrwt>0</asrwt>
<pdfrwt beam="1">  1        1 0.44429336E+00 0.65022688E+03</pdfrwt>
<pdfrwt beam="2">  1       -1 0.56308417E-02 0.65022688E+03</pdfrwt>
<totfact> 0.11891171E+02</totfact>
</mgrwt>
</event>
<event>
 5    0  0.5719562E-003  0.8022216E+03  0.7546771E-02  0.9556807E-01
          1   -1    0    0  502    0  0.00000000000E+00  0.00000000000E+00  0.17504307618E+03  0.17504307618E+03  0.00000000000E+00 0. -1.
         -1   -1    0    0    0  501 -0.00000000000E+00 -0.00000000000E+00 -0.91914452961E+03  0.91914452961E+03  0.00000000000E+00 0.  1.
         25    1    1    2    0    0  0.13693520141E+03 -0.15709541611E+03 -0.35851916386E+03  0.43311800932E+03  0.12500000000E+03 0.  0.
          3    1    1    2  502    0  0.65132826704E+02 -0.98161451365E+02 -0.30315468812E+03  0.32523948189E+03  0.00000000000E+00 0.  1.
         -3    1    1    2    0  501 -0.20206802811E+03  0.25525686747E+03 -0.82427601446E+02  0.33583011458E+03  0.00000000000E+00 0. -1.
<mgrwt>
<rscale>  4 0.80222163E+03</rscale>
<asrwt>0</asrwt>
<pdfrwt beam="1">  1        1 0.26929704E-01 0.80222163E+03</pdfrwt>
<pdfrwt beam="2">  1       -1 0.14140685E+00 0.80222163E+03</pdfrwt>
<totfact> 0.73322481E+01</totfact>
</mgrwt>
</event>
<event>
 5    0  0.5719562E-003  0.5625634E+03  0.7546771E-02  0.9986271E-01
         -2   -1    0    0    0  501 -0.00000000000E+00  0.00000000000E+00  0.57740247452E+02  0.57740247452E+02  0.00000000000E+00 0.  1.
          2   -1    0    0  502    0  0.00000000000E+00 -0.00000000000E+00 -0.13702643896E+04  0.13702643896E+04  0.00000000000E+00 0. -1.
         25    1    1    2    0    0 -0.22914452296E+03  0.82606905542E+02 -0.78259953066E+03  0.82910683186E+03  0.12500000000E+03 0.  0.
          2    1    1    2  502    0  0.21531291648E+02  0.11056716507E+02 -0.17840645216E+03  0.18004085557E+03  0.00000000000E+00 0. -1.
         -2    1    1    2    0  501  0.20761323131E+03 -0.93663622050E+02 -0.35151815929E+03  0.41885694959E+03  0.00000000000E+00 0.  1.
<mgrwt>
<rscale>  4 0.56256344E+03</rscale>
<asrwt>0</asrwt>
<pdfrwt beam="1">  1        2 0.21080990E+00 0.56256344E+03</pdfrwt>
<pdfrwt beam="2">  1       -2 0.88831153E-02 0.56256344E+03</pdfrwt>
<totfact> 0.12717345E+03</totfact>
</mgrwt>
</event>
<event>
 5    0  0.5719562E-003  0.6809583E+03  0.7546771E-02  0.9750362E-01
         -2   -1    0    0    0  501 -0.00000000000E+00  0.00000000000E+00  0.14001847411E+03  0.14001847411E+03  0.00000000000E+00 0. -1.
          2   -1    0    0  502    0  0.00000000000E+00 -0.00000000000E+00 -0.82793386403E+03  0.82793386403E+03  0.00000000000E+00 0.  1.
         25    1    1    2    0    0  0.12083974887E+03  0.23455132679E+03 -0.24261383039E+03  0.37960906273E+03  0.12500000000E+03 0.  0.
          1    1    1    2  502    0  0.55293298665E+02  0.27164688393E+02 -0.35227965784E+02  0.70966743944E+02  0.00000000000E+00 0. -1.
         -1    1    1    2    0  501 -0.17613304753E+03 -0.26171601518E+03 -0.41007359374E+03  0.51737653147E+03  0.00000000000E+00 0.  1.
<mgrwt>
<rscale>  4 0.68095826E+03</rscale>
<asrwt>0</asrwt>
<pdfrwt beam="1">  1        2 0.12737444E+00 0.68095826E+03</pdfrwt>
<pdfrwt beam="2">  1       -2 0.21541304E-01 0.68095826E+03</pdfrwt>
<totfact> 0.61949024E+02</totfact>
</mgrwt>
</event>
<event>
 5    0  0.5719562E-003  0.6413272E+03  0.7546771E-02  0.9823191E-01
         -2   -1    0    0    0  501 -0.00000000000E+00  0.00000000000E+00  0.92509420008E+02  0.92509420008E+02  0.00000000000E+00 0.  1.
          2   -1    0    0  502    0  0.00000000000E+00 -0.00000000000E+00 -0.11115099732E+04  0.11115099732E+04  0.00000000000E+00 0. -1.
         25    1    1    2    0    0 -0.15103727156E+03  0.16969444280E+03 -0.30640358420E+03  0.40139334539E+03  0.12500000000E+03 0.  0.
          4    1    1    2  502    0  0.23009882035E+03 -0.13657720887E+03 -0.42227974300E+03  0.49991897590E+03  0.00000000000E+00 0.  1.
         -4    1    1    2    0  501 -0.79061548796E+02 -0.33117233935E+02 -0.29031722597E+03  0.30270707190E+03  0.00000000000E+00 0. -1.
<mgrwt>
<rscale>  4 0.64132720E+03</rscale>
<asrwt>0</asrwt>
<pdfrwt beam="1">  1        2 0.17100153E+00 0.64132720E+03</pdfrwt>
<pdfrwt beam="2">  1       -2 0.14232219E-01 0.64132720E+03</pdfrwt>
<totfact> 0.82834312E+02</totfact>
</mgrwt>
</event>
<event>
 5    0  0.5719562E-003  0.7249845E+03  0.7546771E-02  0.9675434E-01
          1   -1    0    0  502    0  0.00000000000E+00  0.00000000000E+00  0.64356435470E+03  0.64356435470E+03  0.00000000000E+00 0.  1.
         -1   -1    0    0    0  501 -0.00000000000E+00 -0.00000000000E+00 -0.20417638336E+03  0.20417638336E+03  0.00000000000E+00 0. -1.
         25    1    1    2    0    0 -0.14687277106E+03 -0.18801530745E+03  0.12594786395E+03  0.29733689839E+03  0.12500000000E+03 0.  0.
          1    1    1    2  502    0 -0.10872563233E+02  0.16200985466E+03 -0.35831483104E+02  0.16628078909E+03  0.00000000000E+00 0. -1.
         -1    1    1    2    0  501  0.15774533429E+03  0.26005452787E+02  0.34927159049E+03  0.38412305058E+03  0.00000000000E+00 0.  1.
<mgrwt>
<rscale>  4 0.72498453E+03</rscale>
<asrwt>0</asrwt>
<pdfrwt beam="1">  1        1 0.99009900E-01 0.72498453E+03</pdfrwt>
<pdfrwt beam="2">  1       -1 0.31411752E-01 0.72498453E+03</pdfrwt>
<totfact> 0.29412031E+02</totfact>
</mgrwt>
</event>
<event>
 5    0  0.5719562E-003  0.6822347E+03  0.7546771E-02  0.9748105E-01
          2   -1    0    0  502    0  0.00000000000E+00  0.00000000000E+00  0.67891947773E+03  0.67891947773E+03  0.00000000000E+00 0.  1.
         -2   -1    0    0    0  501 -0.00000000000E+00 -0.00000000000E+00 -0.17139153586E+03  0.17139153586E+03  0.00000000000E+00 0. -1.
         25    1    1    2    0    0  0.75623828515E+02 -0.24223157939E+03  0.12252589585E+03  0.30827373655E+03  0.12500000000E+03 0.  0.
          4    1    1    2  502    0 -0.16297406495E+03  0.10101614948E+03  0.29858278427E+03  0.35484713239E+03  0.00000000000E+00 0.  1.
         -4    1    1    2    0  501  0.87350236439E+02  0.14121542992E+03  0.86419261742E+02  0.18719014465E+03  0.00000000000E+00 0. -1.
<mgrwt>
<rscale>  4 0.68223472E+03</rscale>
<asrwt>0</asrwt>
<pdfrwt beam="1">  1        2 0.10444915E+00 0.68223472E+03</pdfrwt>
<pdfrwt beam="2">  1       -2 0.26367929E-01 0.68223472E+03</pdfrwt>
<totfact> 0.55731267E+02</totfact>
</mgrwt>
</event>
<event>
 5    0  0.5719562E-003  0.7387646E+03  0.7546771E-02  0.9653144E-01
          2   -1    0    0  502    0  0.00000000000E+00  0.00000000000E+00  0.62747506224E+03  0.62747506224E+03  0.00000000000E+00 0. -1.
         -2   -1    0    0    0  501 -0.00000000000E+00 -0.00000000000E+00 -0.21744815187E+03  0.21744815187E+03  0.00000000000E+00 0.  1.
         25    1    1    2    0    0  0.20448664347E+03 -0.27349625979E+03  0.24916607053E+03  0.44082164441E+03  0.12500000000E+03 0.  0.
          4    1    1    2  502    0  0.75215511627E+01  0.82222170605E+02  0.56685103579E+02  0.10015118591E+03  0.00000000000E+00 0.  1.
         -4    1    1    2    0  501 -0.21200819463E+03  0.19127408919E+03  0.10417573626E+03  0.30395038379E+03  0.00000000000E+00 0. -1.
<mgrwt>
<rscale>  4 0.73876462E+03</rscale>
<asrwt>0</asrwt>
<pdfrwt beam="1">  1        2 0.96534624E-01 0.73876462E+03</pdfrwt>
<pdfrwt beam="2">  1       -2 0.33453562E-01 0.73876462E+03</pdfrwt>
<totfact> 0.39461286E+02</totfact>
</mgrwt>
</event>
<event>
 5    0  0.5719562E-003  0.7031697E+03  0.7546771E-02  0.9711827E-01
          2   -1    0    0  502    0  0.00000000000E+00  0.00000000000E+00  0.96835671990E+02  0.96835671990E+02  0.00000000000E+00 0. -1.
         -2   -1    0    0    0  501 -0.00000000000E+00 -0.00000000000E+00 -0.12765121803E+04  0.12765121803E+04  0.00000000000E+00 0.  1.
         25    1    1    2    0    0  0.25329712964E+03 -0.62517131516E+02 -0.10009000757E+04  0.10418703323E+04  0.12500000000E+03 0.  0.
          4    1    1    2  502    0 -0.14939905896E+03  0.18136816869E+02 -0.15496344849E+03  0.21601549323E+03  0.00000000000E+00 0.  1.
         -4    1    1    2    0  501 -0.10389807067E+03  0.44380314647E+02 -0.23812984046E+02  0.11546202678E+03  0.00000000000E+00 0. -1.
<mgrwt>
<rscale>  4 0.70316972E+03</rscale>
<asrwt>0</asrwt>
<pdfrwt beam="1">  1        2 0.14897797E-01 0.70316972E+03</pdfrwt>
<pdfrwt beam="2">  1       -2 0.19638647E+00 0.70316972E+03</pdfrwt>
<totfact> 0.57921723E+01</totfact>
</mgrwt>
</event>
<event>
 5    0  0.5719562E-003  0.5358973E+03  0.7546771E-02  0.1004812E+00
         -2   -1    0    0    0  501 -0.00000000000E+00  0.00000000000E+00  0.79941254024E+02  0.79941254024E+02  0.00000000000E+00 0.  1.
          2   -1    0    0  502    0  0.00000000000E+00 -0.00000000000E+00 -0.89811549529E+03  0.89811549529E+03  0.00000000000E+00 0. -1.
         25    1    1    2    0    0  0.62002439432E+02 -0.20171533597E+03 -0.21458502219E+03  0.32589125642E+03  0.12500000000E+03 0.  0.
          4    1    1    2  502    0 -0.42701805992E+02  0.10862603542E+03 -0.15736035193E+03  0.19592177053E+03  0.00000000000E+00 0.  1.
         -4    1    1    2    0  501 -0.19300633440E+02  0.93089300554E+02 -0.44622886714E+03  0.45624372237E+03  0.00000000000E+00 0. -1.
<mgrwt>
<rscale>  4 0.53589730E+03</rscale>
<asrwt>0</asrwt>
<pdfrwt beam="1">  1        2 0.13817161E+00 0.53589730E+03</pdfrwt>
<pdfrwt beam="2">  1       -2 0.12298655E-01 0.53589730E+03</pdfrwt>
<totfact> 0.14448155E+03</totfact>
</mgrwt>
</event>
<event>
 5    0  0.5719562E-003  0.8091286E+03  0.7546771E-02  0.9546897E-01
         -1   -1    0    0    0  501 -0.00000000000E+00  0.00000000000E+00  0.58522044655E+03  0.58522044655E+03  0.00000000000E+00 0.  1.
          1   -1    0    0  502    0  0.00000000000E+00 -0.00000000000E+00 -0.27967625838E+03  0.27967625838E+03  0.00000000000E+00 0. -1.
         25    1    1    2    0    0  0.34583502025E+03  0.14994127760E+03  0.95324562270E+02  0.40840668473E+03  0.12500000000E+03 0.  0.
          4    1    1    2  502    0 -0.25877551880E+02 -0.38607235676E+02 -0.15970509436E+02  0.49144923537E+02  0.00000000000E+00 0. -1.
         -4    1    1    2    0  501 -0.31995746837E+03 -0.11133404192E+03  0.22619013533E+03  0.40734509666E+03  0.00000000000E+00 0.  1.
<mgrwt>
<rscale>  4 0.80912858E+03</rscale>
<asrwt>0</asrwt>
<pdfrwt beam="1">  1        1 0.43027117E-01 0.80912858E+03</pdfrwt>
<pdfrwt beam="2">  1       -1 0.90033914E-01 0.80912858E+03</pdfrwt>
<totfact> 0.11739304E+02</totfact>
</mgrwt>
</event>
<event>
 5    0  0.5719562E-003  0.5496865E+03  0.7546771E-02  0.1001567E+00
         -2   -1    0    0    0  501 -0.00000000000E+00  0.00000000000E+00  0.70683470923E+02  0.70683470923E+02  0.00000000000E+00 0.  1.
          2   -1    0    0  502    0  0.00000000000E+00 -0.00000000000E+00 -0.10686914291E+04  0.10686914291E+04  0.00000000000E+00 0. -1.
         25    1    1    2    0    0 -0.18971989897E+03 -0.78745102504E+02 -0.24769327454E+03  0.34521209348E+03  0.12500000000E+03 0.  0.
          2    1    1    2  502    0  0.95493973216E+02 -0.41598855942E+02 -0.36711837056E+03  0.38160904305E+03  0.00000000000E+00 0.  1.
         -2    1    1    2    0  501  0.94225925751E+02  0.12034395845E+03 -0.38319631311E+03  0.41255376353E+03  0.00000000000E+00 0. -1.
<mgrwt>
<rscale>  4 0.54968653E+03</rscale>
<asrwt>0</asrwt>
<pdfrwt beam="1">  1        2 0.16441407E+00 0.54968653E+03</pdfrwt>
<pdfrwt beam="2">  1       -2 0.10874380E-01 0.54968653E+03</pdfrwt>
<totfact> 0.13760649E+03</totfact>
</mgrwt>
</event>
<event>
 5    0  0.5719562E-003  0.6717890E+03  0.7546771E-02  0.9766731E-01
         -2   -1    0    0    0  501 -0.00000000000E+00  0.00000000000E+00  0.16346052103E+03  0.16346052103E+03  0.00000000000E+00 0.  1.
          2   -1    0    0  502    0  0.00000000000E+00 -0.00000000000E+00 -0.69022854179E+03  0.69022854179E+03  0.00000000000E+00 0. -1.
         25    1    1    2    0    0 -0.55619322359E+02 -0.22147792075E+03 -0.43395671848E+03  0.50605277582E+03  0.12500000000E+03 0.  0.
          2    1    1    2  502    0  0.12440037706E+03  0.15120811571E+03  0.21351478603E+02  0.19696505707E+03  0.00000000000E+00 0.  1.
         -2    1    1    2    0  501 -0.68781054701E+02  0.70269805047E+02 -0.11416278089E+03  0.15067122993E+03  0.00000000000E+00 0. -1.
<mgrwt>
<rscale>  4 0.67178901E+03</rscale>
<asrwt>0</asrwt>
<pdfrwt beam="1">  1        2 0.10618901E+00 0.67178901E+03</pdfrwt>
<pdfrwt beam="2">  1       -2 0.25147773E-01 0.67178901E+03</pdfrwt>
<totfact> 0.59494611E+02</totfact>
</mgrwt>
</event>
<event>
 5    0  0.5719562E-003  0.5563096E+03  0.7546771E-02  0.1000044E+00
         -1   -1    0    0    0  501 -0.00000000000E+00  0.00000000000E+00  0.93931500423E+02  0.93931500423E+02  0.00000000000E+00 0. -1.
          1   -1    0    0  502    0  0.00000000000E+00 -0.00000000000E+00 -0.82368621501E+03  0.82368621501E+03  0.00000000000E+00 0.  1.
         25    1    1    2    0    0  0.18853233709E+03  0.14136248425E+03 -0.45136135787E+03  0.52428987160E+03  0.12500000000E+03 0.  0.
          3    1    1    2  502    0 -0.64151465065E+02  0.27432908310E+01 -0.11077051761E+02  0.65158554238E+02  0.00000000000E+00 0. -1.
         -3    1    1    2    0  501 -0.12438087202E+03 -0.14410577509E+03 -0.26731630496E+03  0.32816928960E+03  0.00000000000E+00 0.  1.
<mgrwt>
<rscale>  4 0.55630956E+03</rscale>
<asrwt>0</asrwt>
<pdfrwt beam="1">  1        1 0.12672096E+00 0.55630956E+03</pdfrwt>
<pdfrwt beam="2">  1       -1 0.14451000E-01 0.55630956E+03</pdfrwt>
<totfact> 0.74535227E+02</totfact>
</mgrwt>
</event>
<event>
 5    0  0.5719562E-003  0.5494709E+03  0.7546771E-02  0.1001616E+00
         -3   -1    0    0    0  501 -0.00000000000E+00  0.00000000000E+00  0.13430324456E+03  0.13430324456E+03  0.00000000000E+00 0.  1.
          3   -1    0    0  502    0  0.00000000000E+00 -0.00000000000E+00 -0.56200846021E+03  0.56200846021E+03  0.00000000000E+00 0. -1.
         25    1    1    2    0    0  0.51215610568E+02  0.21670030831E+03 -0.92702754715E+02  0.27166314273E+03  0.12500000000E+03 0.  0.
          2    1    1    2  502    0 -0.22758298543E+02 -0.79976448098E+02 -0.24445283522E+03  0.25820798022E+03  0.00000000000E+00 0.  1.
         -2    1    1    2    0  501 -0.28457312025E+02 -0.13672386021E+03 -0.90549625715E+02  0.16644058182E+03  0.00000000000E+00 0. -1.
<mgrwt>
<rscale>  4 0.54947087E+03</rscale>
<asrwt>0</asrwt>
<pdfrwt beam="1">  1        3 0.86462839E-01 0.54947087E+03</pdfrwt>
<pdfrwt beam="2">  1       -3 0.20662038E-01 0.54947087E+03</pdfrwt>
<totfact> 0.69340798E+01</totfact>
</mgrwt>
</event>
<event>
 5    0  0.5719562E-003  0.5707681E+03  0.7546771E-02  0.9967980E-01
          2   -1    0    0  502    0  0.00000000000E+00  0.00000000000E+00  0.71460978160E+03  0.71460978160E+03  0.00000000000E+00 0.  1.
         -2   -1    0    0    0  501 -0.00000000000E+00 -0.00000000000E+00 -0.11396998635E+03  0.11396998635E+03  0.00000000000E+00 0. -1.
         25    1    1    2    0    0  0.22232946883E+03 -0.96138011008E+02  0.14386384988E+03  0.30821213015E+03  0.12500000000E+03 0.  0.
          1    1    1    2  502    0 -0.46080621361E+02  0.84679068456E+01  0.50333455130E+02  0.68764713456E+02  0.00000000000E+00 0. -1.
         -1    1    1    2    0  501 -0.17624884747E+03  0.87670104162E+02  0.40644249024E+03  0.45160292434E+03  0.00000000000E+00 0.  1.
<mgrwt>
<rscale>  4 0.57076814E+03</rscale>
<asrwt>0</asrwt>
<pdfrwt beam="1">  1        2 0.10993996E+00 0.57076814E+03</pdfrwt>
<pdfrwt beam="2">  1       -2 0.17533845E-01 0.57076814E+03</pdfrwt>
<totfact> 0.10752234E+03</totfact>
</mgrwt>
</event>
<event>
 5    0  0.5719562E-003  0.7009042E+03  0.7546771E-02  0.9715687E-01
         -2   -1    0    0    0  501 -0.00000000000E+00  0.00000000000E+00  0.73202942726E+02  0.73202942726E+02  0.00000000000E+00 0.  1.
          2   -1    0    0  502    0  0.00000000000E+00 -0.00000000000E+00 -0.16777557618E+04  0.16777557618E+04  0.00000000000E+00 0. -1.
         25    1    1    2    0    0 -0.22524488629E+03 -0.14929068498E+03 -0.84986249045E+03  0.90050775683E+03  0.12500000000E+03 0.  0.
          3    1    1    2  502    0  0.10314803676E+03 -0.19630956470E+02 -0.51360943735E+02  0.11688814517E+03  0.00000000000E+00 0.  1.
         -3    1    1    2    0  501  0.12209684953E+03  0.16892164145E+03 -0.70332938485E+03  0.73356280249E+03  0.00000000000E+00 0. -1.
<mgrwt>
<rscale>  4 0.70090416E+03</rscale>
<asrwt>0</asrwt>
<pdfrwt beam="1">  1        2 0.25811624E+00 0.70090416E+03</pdfrwt>
<pdfrwt beam="2">  1       -2 0.11261992E-01 0.70090416E+03</pdfrwt>
<totfact> 0.58097051E+02</totfact>
</mgrwt>
</event>
<event>
 5    0  0.5719562E-003  0.4993915E+03  0.7546771E-02  0.1013938E+00
         -2   -1    0    0    0  501 -0.00000000000E+00  0.00000000000E+00  0.62069228632E+02  0.62069228632E+02  0.00000000000E+00 0. -1.
          2   -1    0    0  502    0  0.00000000000E+00 -0.00000000000E+00 -0.10044908710E+04  0.10044908710E+04  0.00000000000E+00 0.  1.
         25    1    1    2    0    0 -0.17260395057E+03  0.13499581923E+03 -0.39059154801E+03  0.46497607717E+03  0.12500000000E+03 0.  0.
          2    1    1    2  502    0  0.14761545264E+03 -0.93176179093E+02 -0.50374541319E+03  0.53313372011E+03  0.00000000000E+00 0. -1.
         -2    1    1    2    0  501  0.24988497930E+02 -0.41819640142E+02 -0.48084681199E+02  0.68450302383E+02  0.00000000000E+00 0.  1.
<mgrwt>
<rscale>  4 0.49939152E+03</rscale>
<asrwt>0</asrwt>
<pdfrwt beam="1">  1        2 0.15453705E+00 0.49939152E+03</pdfrwt>
<pdfrwt beam="2">  1       -2 0.95491125E-02 0.49939152E+03</pdfrwt>
<totfact> 0.18629414E+03</totfact>
</mgrwt>
</event>
<event>
 5    0  0.5719562E-003  0.5109474E+03  0.7546771E-02  0.1010960E+00
         -4   -1    0    0    0  501 -0.00000000000E+00  0.00000000000E+00  0.12967693713E+04  0.12967693713E+04  0.00000000000E+00 0. -1.
          4   -1    0    0  502    0  0.00000000000E+00 -0.00000000000E+00 -0.50330305709E+02  0.50330305709E+02  0.00000000000E+00 0.  1.
         25    1    1    2    0    0  0.69046537002E+02  0.18975945592E+03  0.98607329760E+03  0.10142690095E+04  0.12500000000E+03 0.  0.
          2    1    1    2  502    0 -0.30916110472E+02 -0.41420010044E+02  0.89620856628E+02  0.10345685604E+03  0.00000000000E+00 0. -1.
         -2    1    1    2    0  501 -0.38130426530E+02 -0.14833944588E+03  0.17074491135E+03  0.22937381146E+03  0.00000000000E+00 0.  1.
<mgrwt>
<rscale>  4 0.51094735E+03</rscale>
<asrwt>0</asrwt>
<pdfrwt beam="1">  1        4 0.77431249E-02 0.51094735E+03</pdfrwt>
<pdfrwt beam="2">  1       -4 0.19950296E+00 0.51094735E+03</pdfrwt>
<totfact> 0.32414156E+01</totfact>
</mgrwt>
</event>
<event>
 5    0  0.5719562E-003  0.5047619E+03  0.7546771E-02  0.1012543E+00
         -1   -1    0    0    0  501 -0.00000000000E+00  0.00000000000E+00  0.95964006696E+03  0.95964006696E+03  0.00000000000E+00 0.  1.
          1   -1    0    0  502    0  0.00000000000E+00 -0.00000000000E+00 -0.66375040674E+02  0.66375040674E+02  0.00000000000E+00 0. -1.
         25    1    1    2    0    0 -0.73943118176E+02  0.19058883551E+03  0.23914465638E+03  0.33853634313E+03  0.12500000000E+03 0.  0.
          3    1    1    2  502    0  0.21884954968E+02 -0.12779457696E+03  0.41993761984E+03  0.43949745131E+03  0.00000000000E+00 0.  1.
         -3    1    1    2    0  501  0.52058163208E+02 -0.62794258542E+02  0.23418275007E+03  0.24798131319E+03  0.00000000000E+00 0. -1.
<mgrwt>
<rscale>  4 0.50476192E+03</rscale>
<asrwt>0</asrwt>
<pdfrwt beam="1">  1        1 0.10211545E-01 0.50476192E+03</pdfrwt>
<pdfrwt beam="2">  1       -1 0.14763692E+00 0.50476192E+03</pdfrwt>
<totfact> 0.24336322E+02</totfact>
</mgrwt>
</event>
<event>
 5    0  0.5719562E-003  0.9246673E+03  0.7546771E-02  0.9395261E-01
         -2   -1    0    0    0  501 -0.00000000000E+00  0.00000000000E+00  0.82791155626E+03  0.82791155626E+03  0.00000000000E+00 0.  1.
          2   -1    0    0  502    0  0.00000000000E+00 -0.00000000000E+00 -0.25818266425E+03  0.25818266425E+03  0.00000000000E+00 0. -1.
         25    1    1    2    0    0  0.27610043127E+03  0.18770109183E+03  0.26753556228E+03  0.44571675435E+03  0.12500000000E+03 0.  0.
          4    1    1    2  502    0 -0.27756081283E+03  0.84539682855E+02  0.18406831499E+03  0.34361040057E+03  0.00000000000E+00 0.  1.
         -4    1    1    2    0  501  0.14603815596E+01 -0.27224077468E+03  0.11812501474E+03  0.29676706560E+03  0.00000000000E+00 0. -1.
<mgrwt>
<rscale>  4 0.92466732E+03</rscale>
<asrwt>0</asrwt>
<pdfrwt beam="1">  1        2 0.39720410E-01 0.92466732E+03</pdfrwt>
<pdfrwt beam="2">  1       -2 0.12737101E+00 0.92466732E+03</pdfrwt>
<totfact> 0.59461183E+01</totfact>
</mgrwt>
</event>
<event>
 5    0  0.5719562E-003  0.5038327E+03  0.7546771E-02  0.1012783E+00
          1   -1    0    0  502    0  0.00000000000E+00  0.00000000000E+00  0.47756402876E+03  0.47756402876E+03  0.00000000000E+00 0.  1.
         -1   -1    0    0    0  501 -0.00000000000E+00 -0.00000000000E+00 -0.13288654835E+03  0.13288654835E+03  0.00000000000E+00 0. -1.
         25    1    1    2    0    0 -0.18572227220E+03 -0.14126194331E+03  0.15963190084E+03  0.30911978711E+03  0.12500000000E+03 0.  0.
          3    1    1    2  502    0  0.12753656274E+03  0.10052507256E+03  0.10077418970E+03  0.19111855576E+03  0.00000000000E+00 0.  1.
         -3    1    1    2    0  501  0.58185709460E+02  0.40736870749E+02  0.84271389874E+02  0.11021223423E+03  0.00000000000E+00 0. -1.
<mgrwt>
<rscale>  4 0.50383265E+03</rscale>
<asrwt>0</asrwt>
<pdfrwt beam="1">  1        1 0.73471388E-01 0.50383265E+03</pdfrwt>
<pdfrwt beam="2">  1       -1 0.20444085E-01 0.50383265E+03</pdfrwt>
<totfact> 0.93476960E+02</totfact>
</mgrwt>
</event>
<event>
 5    0  0.5719562E-003  0.5094532E+03  0.7546771E-02  0.1011341E+00
         -2   -1    0    0    0  501 -0.00000000000E+00  0.00000000000E+00  0.22683013503E+03  0.22683013503E+03  0.00000000000E+00 0. -1.
          2   -1    0    0  502    0  0.00000000000E+00 -0.00000000000E+00 -0.28605392019E+03  0.28605392019E+03  0.00000000000E+00 0.  1.
         25    1    1    2    0    0  0.16542188458E+03  0.12261268920E+03 -0.27754470063E+02  0.24247387913E+03  0.12500000000E+03 0.  0.
          4    1    1    2  502    0 -0.67850776425E+02 -0.71863869446E+02 -0.10018286744E+03  0.14072935202E+03  0.00000000000E+00 0.  1.
         -4    1    1    2    0  501 -0.97571108158E+02 -0.50748819752E+02  0.68713552346E+02  0.12968082406E+03  0.00000000000E+00 0. -1.
<mgrwt>
<rscale>  4 0.50945323E+03</rscale>
<asrwt>0</asrwt>
<pdfrwt beam="1">  1        2 0.44008295E-01 0.50945323E+03</pdfrwt>
<pdfrwt beam="2">  1       -2 0.34896944E-01 0.50945323E+03</pdfrwt>
<totfact> 0.89448659E+02</totfact>
</mgrwt>
</event>
<event>
 5    0  0.5719562E-003  0.7978530E+03  0.7546771E-02  0.9563130E-01
         -1   -1    0    0    0  501 -0.00000000000E+00  0.00000000000E+00  0.45542189043E+03  0.45542189043E+03  0.00000000000E+00 0. -1.
          1   -1    0    0  502    0  0.00000000000E+00 -0.00000000000E+00 -0.34943939956E+03  0.34943939956E+03  0.00000000000E+00 0.  1.
         25    1    1    2    0    0  0.21309822685E+03 -0.23635771504E+03  0.41176630987E+02  0.34437819136E+03  0.12500000000E+03 0.  0.
          2    1    1    2  502    0 -0.11533214548E+03  0.16811804835E+03 -0.12294372985E+03  0.23807633791E+03  0.00000000000E+00 0.  1.
         -2    1    1    2    0  501 -0.97766081363E+02  0.68239666687E+02  0.18774958973E+03  0.22240676073E+03  0.00000000000E+00 0. -1.
<mgrwt>
<rscale>  4 0.79785300E+03</rscale>
<asrwt>0</asrwt>
<pdfrwt beam="1">  1        1 0.53759908E-01 0.79785300E+03</pdfrwt>
<pdfrwt beam="2">  1       -1 0.70064906E-01 0.79785300E+03</pdfrwt>
<totfact> 0.14964032E+02</totfact>
</mgrwt>
</event>
<event>
 5    0  0.5719562E-003  0.1057870E+04  0.7546771E-02  0.9247256E-01
         -2   -1    0    0    0  501 -0.00000000000E+00  0.00000000000E+00  0.52044238461E+03  0.52044238461E+03  0.00000000000E+00 0.  1.
          2   -1    0    0  502    0  0.00000000000E+00 -0.00000000000E+00 -0.53756652066E+03  0.53756652066E+03  0.00000000000E+00 0. -1.
         25    1    1    2    0    0 -0.22245476458E+02 -0.43300324395E+03 -0.25753331666E+03  0.51955276891E+03  0.12500000000E+03 0.  0.
          1    1    1    2  502    0  0.11455832415E+02 -0.20343536022E+02 -0.34013332410E+01  0.23593741162E+02  0.00000000000E+00 0. -1.
         -1    1    1    2    0  501  0.10789644043E+02  0.45334677997E+03  0.24381051385E+03  0.51486239520E+03  0.00000000000E+00 0.  1.
<mgrwt>
<rscale>  4 0.10578703E+04</rscale>
<asrwt>0</asrwt>
<pdfrwt beam="1">  1        2 0.82702541E-01 0.10578703E+04</pdfrwt>
<pdfrwt beam="2">  1       -2 0.80068059E-01 0.10578703E+04</pdfrwt>
<totfact> 0.77720822E+01</totfact>
</mgrwt>
</event>
<event>
 5    0  0.5719562E-003  0.5860240E+03  0.7546771E-02  0.9934834E-01
          2   -1    0    0  502    0  0.00000000000E+00  0.00000000000E+00  0.71636835036E+03  0.71636835036E+03  0.00000000000E+00 0.  1.
         -2   -1    0    0    0  501 -0.00000000000E+00 -0.00000000000E+00 -0.11984901022E+03  0.11984901022E+03  0.00000000000E+00 0. -1.
         25    1    1    2    0    0  0.17956651925E+03  0.12089945558E+03  0.23564378319E+03  0.34353137521E+03  0.12500000000E+03 0.  0.
          1    1    1    2  502    0 -0.16403881165E+03 -0.17892135046E+01  0.33021079582E+03  0.36871547660E+03  0.00000000000E+00 0.  1.
         -1    1    1    2    0  501 -0.15527707597E+02 -0.11911024208E+03  0.30664761129E+02  0.12397050877E+03  0.00000000000E+00 0. -1.
<mgrwt>
<rscale>  4 0.58602402E+03</rscale>
<asrwt>0</asrwt>
<pdfrwt beam="1">  1        2 0.11021051E+00 0.58602402E+03</pdfrwt>
<pdfrwt beam="2">  1       -2 0.18438310E-01 0.58602402E+03</pdfrwt>
<totfact> 0.98293258E+02</totfact>
</mgrwt>
</event>
<event>
 5    0  0.5719562E-003  0.5589168E+03  0.7546771E-02  0.9994508E-01
         -2   -1    0    0    0  501 -0.00000000000E+00  0.00000000000E+00  0.58092849623E+02  0.58092849623E+02  0.00000000000E+00 0.  1.
          2   -1    0    0  502    0  0.00000000000E+00 -0.00000000000E+00 -0.13443480759E+04  0.13443480759E+04  0.00000000000E+00 0. -1.
         25    1    1    2    0    0 -0.24996584287E+03 -0.54518047698E+02 -0.71112982949E+03  0.76601943482E+03  0.12500000000E+03 0.  0.
          2    1    1    2  502    0  0.43589467625E+02  0.13752038515E+01 -0.35478637626E+02  0.56219806130E+02  0.00000000000E+00 0.  1.
         -2    1    1    2    0  501  0.20637637525E+03  0.53142843846E+02 -0.53964675919E+03  0.58020168461E+03  0.00000000000E+00 0. -1.
<mgrwt>
<rscale>  4 0.55891685E+03</rscale>
<asrwt>0</asrwt>
<pdfrwt beam="1">  1        2 0.20682276E+00 0.55891685E+03</pdfrwt>
<pdfrwt beam="2">  1       -2 0.89373623E-02 0.55891685E+03</pdfrwt>
<totfact> 0.13026343E+03</totfact>
</mgrwt>
</event>
<event>
 5    0  0.5719562E-003  0.7777972E+03  0.7546771E-02  0.9592723E-01
          2   -1    0    0  502    0  0.00000000000E+00  0.00000000000E+00  0.93362570665E+03  0.93362570665E+03  0.00000000000E+00 0. -1.
         -2   -1    0    0    0  501 -0.00000000000E+00 -0.00000000000E+00 -0.16199437424E+03  0.16199437424E+03  0.00000000000E+00 0.  1.
         25    1    1    2    0    0 -0.13944025335E+03 -0.29193303407E+03  0.39284816825E+03  0.52404500182E+03  0.12500000000E+03 0.  0.
          1    1    1    2  502    0 -0.53585140379E+01  0.49987580739E+02  0.26133586833E+03  0.26612761596E+03  0.00000000000E+00 0. -1.
         -1    1    1    2    0  501  0.14479876739E+03  0.24194545333E+03  0.11744729583E+03  0.30544746311E+03  0.00000000000E+00 0.  1.
<mgrwt>
<rscale>  4 0.77779718E+03</rscale>
<asrwt>0</asrwt>
<pdfrwt beam="1">  1        2 0.14363472E+00 0.77779718E+03</pdfrwt>
<pdfrwt beam="2">  1       -2 0.24922212E-01 0.77779718E+03</pdfrwt>
<totfact> 0.40328857E+02</totfact>
</mgrwt>
</event>
<event>
 5    0  0.5719562E-003  0.6859180E+03  0.7546771E-02  0.9741622E-01
          2   -1    0    0  502    0  0.00000000000E+00  0.00000000000E+00  0.11986385334E+04  0.11986385334E+04  0.00000000000E+00 0.  1.
         -2   -1    0    0    0  501 -0.00000000000E+00 -0.00000000000E+00 -0.98128743016E+02  0.98128743016E+02  0.00000000000E+00 0. -1.
         25    1    1    2    0    0 -0.20084028806E+03  0.31578191652E+01  0.70333981911E+03  0.74206380741E+03  0.12500000000E+03 0.  0.
          1    1    1    2  502    0  0.20174183991E+03  0.57844603899E+02  0.43495545396E+03  0.48294100582E+03  0.00000000000E+00 0.  1.
         -1    1    1    2    0  501 -0.90155185208E+00 -0.61002423065E+02 -0.37785482708E+02  0.71762463161E+02  0.00000000000E+00 0. -1.
<mgrwt>
<rscale>  4 0.68591805E+03</rscale>
<asrwt>0</asrwt>
<pdfrwt beam="1">  1        2 0.18440592E+00 0.68591805E+03</pdfrwt>
<pdfrwt beam="2">  1       -2 0.15096731E-01 0.68591805E+03</pdfrwt>
<totfact> 0.66412541E+02</totfact>
</mgrwt>
</event>
<event>
 5    0  0.5719562E-003  0.6282098E+03  0.7546771E-02  0.9848549E-01
          2   -1    0    0  502    0  0.00000000000E+00  0.00000000000E+00  0.31590885629E+04  0.31590885629E+04  0.00000000000E+00 0.  1.
         -2   -1    0    0    0  501 -0.00000000000E+00 -0.00000000000E+00 -0.31231123298E+02  0.31231123298E+02  0.00000000000E+00 0. -1.
         25    1    1    2    0    0 -0.22499251418E+03  0.13463567751E+03  0.21206246020E+04  0.21404256819E+04  0.12500000000E+03 0.  0.
          2    1    1    2  502    0  0.50421258648E+02 -0.14018112990E+01  0.41864387379E+03  0.42167162752E+03  0.00000000000E+00 0.  1.
         -2    1    1    2    0  501  0.17457125553E+03 -0.13323386621E+03  0.58858896381E+03  0.62822237678E+03  0.00000000000E+00 0. -1.
<mgrwt>
<rscale>  4 0.62820979E+03</rscale>
<asrwt>0</asrwt>
<pdfrwt beam="1">  1        2 0.48601337E+00 0.62820979E+03</pdfrwt>
<pdfrwt beam="2">  1       -2 0.48047907E-02 0.62820979E+03</pdfrwt>
<totfact> 0.32609631E+02</totfact>
</mgrwt>
</event>
<event>
 5    0  0.5719562E-003  0.1051616E+04  0.7546771E-02  0.9253678E-01
          2   -1    0    0  502    0  0.00000000000E+00  0.00000000000E+00  0.12001400649E+04  0.12001400649E+04  0.00000000000E+00 0. -1.
         -2   -1    0    0    0  501 -0.00000000000E+00 -0.00000000000E+00 -0.23036799322E+03  0.23036799322E+03  0.00000000000E+00 0.  1.
         25    1    1    2    0    0 -0.18621677749E+03 -0.24730155269E+03  0.10394173441E+04  0.10917179862E+04  0.12500000000E+03 0.  0.
          2    1    1    2  502    0  0.18085645450E+03  0.21732991983E+03 -0.95926847352E+02  0.29856877136E+03  0.00000000000E+00 0.  1.
         -2    1    1    2    0  501  0.53603229912E+01  0.29971632859E+02  0.26281574984E+02  0.40221300606E+02  0.00000000000E+00 0. -1.
<mgrwt>
<rscale>  4 0.10516156E+04</rscale>
<asrwt>0</asrwt>
<pdfrwt beam="1">  1        2 0.18463693E+00 0.10516156E+04</pdfrwt>
<pdfrwt beam="2">  1       -2 0.35441230E-01 0.10516156E+04</pdfrwt>
<totfact> 0.14085280E+02</totfact>
</mgrwt>
</event>
<event>
 5    0  0.5719562E-003  0.4995496E+03  0.7546771E-02  0.1013897E+00
         -2   -1    0    0    0  501 -0.00000000000E+00  0.00000000000E+00  0.27564206479E+02  0.27564206479E+02  0.00000000000E+00 0.  1.
          2   -1    0    0  502    0  0.00000000000E+00 -0.00000000000E+00 -0.22633500655E+04  0.22633500655E+04  0.00000000000E+00 0. -1.
         25    1    1    2    0    0  0.21687889832E+03  0.77309379281E+02 -0.11845439241E+04  0.12131704352E+04  0.12500000000E+03 0.  0.
          1    1    1    2  502    0 -0.49745584138E+02 -0.10616045332E+02 -0.14123159004E+03  0.15011224329E+03  0.00000000000E+00 0.  1.
         -1    1    1    2    0  501 -0.16713331418E+03 -0.66693333950E+02 -0.91001034488E+03  0.92763159352E+03  0.00000000000E+00 0. -1.
<mgrwt>
<rscale>  4 0.49954959E+03</rscale>
<asrwt>0</asrwt>
<pdfrwt beam="1">  1        2 0.34820767E+00 0.49954959E+03</pdfrwt>
<pdfrwt beam="2">  1       -2 0.42406476E-02 0.49954959E+03</pdfrwt>
<totfact> 0.13274292E+03</totfact>
</mgrwt>
</event>
<event>
 5    0  0.5719562E-003  0.6686722E+03  0.7546771E-02  0.9772360E-01
          2   -1    0    0  502    0  0.00000000000E+00  0.00000000000E+00  0.16463245506E+04  0.16463245506E+04  0.00000000000E+00 0.  1.
         -2   -1    0    0    0  501 -0.00000000000E+00 -0.00000000000E+00 -0.67897071913E+02  0.67897071913E+02  0.00000000000E+00 0. -1.
         25    1    1    2    0    0 -0.20909339008E+03  0.10563892511E+03  0.13615566115E+04  0.13872061976E+04  0.12500000000E+03 0.  0.
          2    1    1    2  502    0  0.18753923818E+03 -0.67153730309E+02  0.19047508889E+03  0.27561086488E+03  0.00000000000E+00 0. -1.
         -2    1    1    2    0  501  0.21554151904E+02 -0.38485194798E+02  0.26395778300E+02  0.51404560060E+02  0.00000000000E+00 0.  1.
<mgrwt>
<rscale>  4 0.66867217E+03</rscale>
<asrwt>0</asrwt>
<pdfrwt beam="1">  1        2 0.25328067E+00 0.66867217E+03</pdfrwt>
<pdfrwt beam="2">  1       -2 0.10445705E-01 0.66867217E+03</pdfrwt>
<totfact> 0.68492790E+02</totfact>
</mgrwt>
</event>
<event>
 5    0  0.5719562E-003  0.5020941E+03  0.7546771E-02  0.1013234E+00
          2   -1    0    0  502    0  0.00000000000E+00  0.00000000000E+00  0.25113777827E+03  0.25113777827E+03  0.00000000000E+00 0.  1.
         -2   -1    0    0    0  501 -0.00000000000E+00 -0.00000000000E+00 -0.25095637233E+03  0.25095637233E+03  0.00000000000E+00 0. -1.
         25    1    1    2    0    0 -0.79539274568E+01 -0.20083284884E+03 -0.17116514198E+02  0.23730797120E+03  0.12500000000E+03 0.  0.
          2    1    1    2  502    0 -0.80777996864E+01  0.77400248870E+02  0.91311063748E+02  0.11997399608E+03  0.00000000000E+00 0. -1.
         -2    1    1    2    0  501  0.16031727143E+02  0.12343259997E+03 -0.74013143612E+02  0.14481218332E+03  0.00000000000E+00 0.  1.
<mgrwt>
<rscale>  4 0.50209412E+03</rscale>
<asrwt>0</asrwt>
<pdfrwt beam="1">  1        2 0.38636581E-01 0.50209412E+03</pdfrwt>
<pdfrwt beam="2">  1       -2 0.38608673E-01 0.50209412E+03</pdfrwt>
<totfact> 0.85138140E+02</totfact>
</mgrwt>
</event>
<event>
 5    0  0.5719562E-003  0.5351580E+03  0.7546771E-02  0.1004989E+00
          2   -1    0    0  502    0  0.00000000000E+00  0.00000000000E+00  0.18512865899E+04  0.18512865899E+04  0.00000000000E+00 0.  1.
         -2   -1    0    0    0  501 -0.00000000000E+00 -0.00000000000E+00 -0.38675003207E+02  0.38675003207E+02  0.00000000000E+00 0. -1.
         25    1    1    2    0    0  0.17647441034E+02 -0.23074017158E+03  0.60610581955E+03  0.66071304168E+03  0.12500000000E+03 0.  0.
          1    1    1    2  502    0 -0.26570064126E+02  0.20320855297E+03  0.10057546483E+04  0.10264219878E+04  0.00000000000E+00 0.  1.
         -1    1    1    2    0  501  0.89226230924E+01  0.27531618610E+02  0.20075111883E+03  0.20282656369E+03  0.00000000000E+00 0. -1.
<mgrwt>
<rscale>  4 0.53515798E+03</rscale>
<asrwt>0</asrwt>
<pdfrwt beam="1">  1        2 0.28481325E+00 0.53515798E+03</pdfrwt>
<pdfrwt beam="2">  1       -2 0.59500019E-02 0.53515798E+03</pdfrwt>
<totfact> 0.13103240E+03</totfact>
</mgrwt>
</event>
<event>
 5    0  0.5719562E-003  0.4777362E+03  0.7546771E-02  0.1019759E+00
          2   -1    0    0  502    0  0.00000000000E+00  0.00000000000E+00  0.15433327525E+03  0.15433327525E+03  0.00000000000E+00 0.  1.
         -2   -1    0    0    0  501 -0.00000000000E+00 -0.00000000000E+00 -0.36970625534E+03  0.36970625534E+03  0.00000000000E+00 0. -1.
         25    1    1    2    0    0  0.19385156709E+03  0.93981564003E+02 -0.15870097981E+03  0.29533365103E+03  0.12500000000E+03 0.  0.
          4    1    1    2  502    0 -0.15895534594E+03 -0.53187813732E+02 -0.47748579571E+02  0.17428617956E+03  0.00000000000E+00 0. -1.
         -4    1    1    2    0  501 -0.34896221147E+02 -0.40793750272E+02 -0.89234206974E+01  0.54419700004E+02  0.00000000000E+00 0.  1.
<mgrwt>
<rscale>  4 0.47773623E+03</rscale>
<asrwt>0</asrwt>
<pdfrwt beam="1">  1        2 0.23743581E-01 0.47773623E+03</pdfrwt>
<pdfrwt beam="2">  1       -2 0.56877886E-01 0.47773623E+03</pdfrwt>
<totfact> 0.67799365E+02</totfact>
</mgrwt>
</event>
<event>
 5    0  0.5719562E-003  0.8504347E+03  0.7546771E-02  0.9489754E-01
         -1   -1    0    0    0  501 -0.00000000000E+00  0.00000000000E+00  0.29611919948E+03  0.29611919948E+03  0.00000000000E+00 0. -1.
          1   -1    0    0  502    0  0.00000000000E+00 -0.00000000000E+00 -0.61059807961E+03  0.61059807961E+03  0.00000000000E+00 0.  1.
         25    1    1    2    0    0  0.25199522104E+03 -0.58547954095E+01 -0.35645281224E+03  0.45411394761E+03  0.12500000000E+03 0.  0.
          2    1    1    2  502    0 -0.25889660076E+03 -0.13213641341E+03  0.93208031599E+02  0.30524616097E+03  0.00000000000E+00 0.  1.
         -2    1    1    2    0  501  0.69013797130E+01  0.13799120882E+03 -0.51234099492E+02  0.14735717052E+03  0.00000000000E+00 0. -1.
<mgrwt>
<rscale>  4 0.85043475E+03</rscale>
<asrwt>0</asrwt>
<pdfrwt beam="1">  1        1 0.93938165E-01 0.85043475E+03</pdfrwt>
<pdfrwt beam="2">  1       -1 0.45556800E-01 0.85043475E+03</pdfrwt>
<totfact> 0.16129135E+02</totfact>
</mgrwt>
</event>
<event>
 5    0  0.5719562E-003  0.5408972E+03  0.7546771E-02  0.1003623E+00
          3   -1    0    0  502    0  0.00000000000E+00  0.00000000000E+00  0.10818792803E+03  0.10818792803E+03  0.00000000000E+00 0. -1.
         -3   -1    0    0    0  501 -0.00000000000E+00 -0.00000000000E+00 -0.67606838788E+03  0.67606838788E+03  0.00000000000E+00 0.  1.
         25    1    1    2    0    0  0.14663017504E+03 -0.14503265536E+03 -0.51221248679E+03  0.56614619223E+03  0.12500000000E+03 0.  0.
          3    1    1    2  502    0 -0.11663383520E+03  0.11083008374E+03 -0.23984440441E+02  0.16267148601E+03  0.00000000000E+00 0. -1.
         -3    1    1    2    0  501 -0.29996339832E+02  0.34202571614E+02 -0.31683532616E+02  0.55438637675E+02  0.00000000000E+00 0.  1.
<mgrwt>
<rscale>  4 0.54089717E+03</rscale>
<asrwt>0</asrwt>
<pdfrwt beam="1">  1        3 0.16644297E-01 0.54089717E+03</pdfrwt>
<pdfrwt beam="2">  1       -3 0.10401052E+00 0.54089717E+03</pdfrwt>
<totfact> 0.66543221E+01</totfact>
</mgrwt>
</event>
<event>
 5    0  0.5719562E-003  0.5570925E+03  0.7546771E-02  0.9998655E-01
          1   -1    0    0  502    0  0.00000000000E+00  0.00000000000E+00  0.19968723982E+04  0.19968723982E+04  0.00000000000E+00 0. -1.
         -1   -1    0    0    0  501 -0.00000000000E+00 -0.00000000000E+00 -0.38854762859E+02  0.38854762859E+02  0.00000000000E+00 0.  1.
         25    1    1    2    0    0  0.88843812789E+02  0.20166104845E+03  0.15318941737E+04  0.15527025346E+04  0.12500000000E+03 0.  0.
          4    1    1    2  502    0 -0.67727537566E+02 -0.18742266594E+03  0.35005753666E+03  0.40280833411E+03  0.00000000000E+00 0.  1.
         -4    1    1    2    0  501 -0.21116275223E+02 -0.14238382502E+02  0.76065924957E+02  0.80216292330E+02  0.00000000000E+00 0. -1.
<mgrwt>
<rscale>  4 0.55709246E+03</rscale>
<asrwt>0</asrwt>
<pdfrwt beam="1">  1        1 0.30721106E+00 0.55709246E+03</pdfrwt>
<pdfrwt beam="2">  1       -1 0.59776574E-02 0.55709246E+03</pdfrwt>
<totfact> 0.44106263E+02</totfact>
</mgrwt>
</event>
<event>
 5    0  0.5719562E-003  0.4687043E+03  0.7546771E-02  0.1022287E+00
         -2   -1    0    0    0  501 -0.00000000000E+00  0.00000000000E+00  0.43181899817E+02  0.43181899817E+02  0.00000000000E+00 0.  1.
          2   -1    0    0  502    0  0.00000000000E+00 -0.00000000000E+00 -0.12718506075E+04  0.12718506075E+04  0.00000000000E+00 0. -1.
         25    1    1    2    0    0  0.21073158720E+03  0.40949570524E+02 -0.66441687843E+03  0.70933733689E+03  0.12500000000E+03 0.  0.
          3    1    1    2  502    0 -0.26439466366E+02 -0.20073603380E+02 -0.62641004404E+02  0.70893514280E+02  0.00000000000E+00 0.  1.
         -3    1    1    2    0  501 -0.18429212084E+03 -0.20875967144E+02 -0.50161082488E+03  0.53480165618E+03  0.00000000000E+00 0. -1.
<mgrwt>
<rscale>  4 0.46870428E+03</rscale>
<asrwt>0</asrwt>
<pdfrwt beam="1">  1        2 0.19566931E+00 0.46870428E+03</pdfrwt>
<pdfrwt beam="2">  1       -2 0.66433697E-02 0.46870428E+03</pdfrwt>
<totfact> 0.22972220E+03</totfact>
</mgrwt>
</event>
<event>
 5    0  0.5719562E-003  0.5721877E+03  0.7546771E-02  0.9964849E-01
         -2   -1    0    0    0  501 -0.00000000000E+00  0.00000000000E+00  0.27143377373E+02  0.27143377373E+02  0.00000000000E+00 0. -1.
          2   -1    0    0  502    0  0.00000000000E+00 -0.00000000000E+00 -0.30154568624E+04  0.30154568624E+04  0.00000000000E+00 0.  1.
         25    1    1    2    0    0  0.23471313815E+03  0.61404776745E+02 -0.20775320956E+04  0.20953819251E+04  0.12500000000E+03 0.  0.
          1    1    1    2  502    0 -0.20078561501E+03 -0.85856000164E+02 -0.76451573603E+03  0.79509145801E+03  0.00000000000E+00 0. -1.
         -1    1    1    2    0  501 -0.33927523137E+02  0.24451223419E+02 -0.14626565345E+03  0.15212685671E+03  0.00000000000E+00 0.  1.
<mgrwt>
<rscale>  4 0.57218767E+03</rscale>
<asrwt>0</asrwt>
<pdfrwt beam="1">  1        2 0.46391642E+00 0.57218767E+03</pdfrwt>
<pdfrwt beam="2">  1       -2 0.41759044E-02 0.57218767E+03</pdfrwt>
<totfact> 0.50012324E+02</totfact>
</mgrwt>
</event>
<event>
 5    0  0.5719562E-003  0.4895042E+03  0.7546771E-02  0.1016555E+00
         -2   -1    0    0    0  501 -0.00000000000E+00  0.00000000000E+00  0.49093928719E+02  0.49093928719E+02  0.00000000000E+00 0. -1.
          2   -1    0    0  502    0  0.00000000000E+00 -0.00000000000E+00 -0.12201834812E+04  0.12201834812E+04  0.00000000000E+00 0.  1.
         25    1    1    2    0    0 -0.22232668547E+03 -0.38821053842E+02 -0.61222382948E+03  0.66436379091E+03  0.12500000000E+03 0.  0.
          1    1    1    2  502    0  0.22504614612E+02  0.16015143894E+02 -0.41705167274E+02  0.50022629780E+02  0.00000000000E+00 0. -1.
         -1    1    1    2    0  501  0.19982207085E+03  0.22805909948E+02 -0.51716055578E+03  0.55489098928E+03  0.00000000000E+00 0.  1.
<mgrwt>
<rscale>  4 0.48950424E+03</rscale>
<asrwt>0</asrwt>
<pdfrwt beam="1">  1        2 0.18772053E+00 0.48950424E+03</pdfrwt>
<pdfrwt beam="2">  1       -2 0.75529123E-02 0.48950424E+03</pdfrwt>
<totfact> 0.20093050E+03</totfact>
</mgrwt>
</event>
<event>
 5    0  0.5719562E-003  0.5758646E+03  0.7546771E-02  0.9956784E-01
          2   -1    0    0  502    0  0.00000000000E+00  0.00000000000E+00  0.12458355631E+04  0.12458355631E+04  0.00000000000E+00 0.  1.
         -2   -1    0    0    0  501 -0.00000000000E+00 -0.00000000000E+00 -0.66545708276E+02  0.66545708276E+02  0.00000000000E+00 0. -1.
         25    1    1    2    0    0  0.14548186459E+03 -0.16280620815E+03  0.96779729109E+03  0.99996371483E+03  0.12500000000E+03 0.  0.
          4    1    1    2  502    0 -0.60889770766E+02  0.49714485197E+02  0.12229490466E+03  0.14537928989E+03  0.00000000000E+00 0.  1.
         -4    1    1    2    0  501 -0.84592093828E+02  0.11309172295E+03  0.89197659033E+02  0.16703826662E+03  0.00000000000E+00 0. -1.
<mgrwt>
<rscale>  4 0.57586460E+03</rscale>
<asrwt>0</asrwt>
<pdfrwt beam="1">  1        2 0.19166699E+00 0.57586460E+03</pdfrwt>
<pdfrwt beam="2">  1       -2 0.10237802E-01 0.57586460E+03</pdfrwt>
<totfact> 0.11903224E+03</totfact>
</mgrwt>
</event>
<event>
 5    0  0.5719562E-003  0.6290912E+03  0.7546771E-02  0.9846824E-01
         -1   -1    0    0    0  501 -0.00000000000E+00  0.00000000000E+00  0.51998786543E+02  0.51998786543E+02  0.00000000000E+00 0.  1.
          1   -1    0    0  502    0  0.00000000000E+00 -0.00000000000E+00 -0.19027161797E+04  0.19027161797E+04  0.00000000000E+00 0. -1.
         25    1    1    2    0    0  0.10820813513E+03 -0.20156022341E+03 -0.56313187998E+03  0.62054656427E+03  0.12500000000E+03 0.  0.
          1    1    1    2  502    0  0.19696385313E+02  0.21882930167E+03 -0.76997889591E+03  0.80071325143E+03  0.00000000000E+00 0. -1.
         -1    1    1    2    0  501 -0.12790452045E+03 -0.17269078258E+02 -0.51760661728E+03  0.53345515056E+03  0.00000000000E+00 0.  1.
<mgrwt>
<rscale>  4 0.62909119E+03</rscale>
<asrwt>0</asrwt>
<pdfrwt beam="1">  1        1 0.29272559E+00 0.62909119E+03</pdfrwt>
<pdfrwt beam="2">  1       -1 0.79998126E-02 0.62909119E+03</pdfrwt>
<totfact> 0.32242835E+02</totfact>
</mgrwt>
</event>
<event>
 5    0  0.5719562E-003  0.6727938E+03  0.7546771E-02  0.9764924E-01
          2   -1    0    0  502    0  0.00000000000E+00  0.00000000000E+00  0.29618243154E+03  0.29618243154E+03  0.00000000000E+00 0.  1.
         -2   -1    0    0    0  501 -0.00000000000E+00 -0.00000000000E+00 -0.38207147529E+03  0.38207147529E+03  0.00000000000E+00 0. -1.
         25    1    1    2    0    0  0.20396681808E+03  0.56080493432E+02  0.95997429207E+02  0.26379535826E+03  0.12500000000E+03 0.  0.
          4    1    1    2  502    0 -0.14322946564E+03 -0.97016989233E+02 -0.25683498753E+03  0.30966302144E+03  0.00000000000E+00 0. -1.
         -4    1    1    2    0  501 -0.60737352446E+02  0.40936495802E+02  0.74948514579E+02  0.10479552714E+03  0.00000000000E+00 0.  1.
<mgrwt>
<rscale>  4 0.67279375E+03</rscale>
<asrwt>0</asrwt>
<pdfrwt beam="1">  1        2 0.45566528E-01 0.67279375E+03</pdfrwt>
<pdfrwt beam="2">  1       -2 0.58780227E-01 0.67279375E+03</pdfrwt>
<totfact> 0.30420992E+02</totfact>
</mgrwt>
</event>
<event>
 5    0  0.5719562E-003  0.6885033E+03  0.7546771E-02  0.9737098E-01
         -2   -1    0    0    0  501 -0.00000000000E+00  0.00000000000E+00  0.83095172436E+03  0.83095172436E+03  0.00000000000E+00 0. -1.
          2   -1    0    0  502    0  0.00000000000E+00 -0.00000000000E+00 -0.14261861633E+03  0.14261861633E+03  0.00000000000E+00 0.  1.
         25    1    1    2    0    0  0.94449802913E+01  0.32063975940E+03  0.24528321396E+03  0.42271493705E+03  0.12500000000E+03 0.  0.
          1    1    1    2  502    0 -0.55716089165E+01 -0.27957845435E+03  0.34236650321E+03  0.44205200767E+03  0.00000000000E+00 0.  1.
         -1    1    1    2    0  501 -0.38733713748E+01 -0.41061305043E+02  0.10068339087E+03  0.10880339597E+03  0.00000000000E+00 0. -1.
<mgrwt>
<rscale>  4 0.68850326E+03</rscale>
<asrwt>0</asrwt>
<pdfrwt beam="1">  1        2 0.21941326E-01 0.68850326E+03</pdfrwt>
<pdfrwt beam="2">  1       -2 0.12783872E+00 0.68850326E+03</pdfrwt>
<totfact> 0.11687474E+02</totfact>
</mgrwt>
</event>
<event>
 5    0  0.5719562E-003  0.5487406E+03  0.7546771E-02  0.1001786E+00
         -1   -1    0    0    0  501 -0.00000000000E+00  0.00000000000E+00  0.20867987806E+03  0.20867987806E+03  0.00000000000E+00 0. -1.
          1   -1    0    0  502    0  0.00000000000E+00 -0.00000000000E+00 -0.36073939613E+03  0.36073939613E+03  0.00000000000E+00 0.  1.
         25    1    1    2    0    0 -0.72088303194E+02 -0.23080034459E+03  0.78675768665E+01  0.27230942196E+03  0.12500000000E+03 0.  0.
          3    1    1    2  502    0  0.13578370480E+02  0.93526460802E+02 -0.29731337274E+02  0.99073323510E+02  0.00000000000E+00 0. -1.
         -3    1    1    2    0  501  0.58509932715E+02  0.13727388379E+03 -0.13019575766E+03  0.19803652872E+03  0.00000000000E+00 0.  1.
<mgrwt>
<rscale>  4 0.54874057E+03</rscale>
<asrwt>0</asrwt>
<pdfrwt beam="1">  1        1 0.55498368E-01 0.54874057E+03</pdfrwt>
<pdfrwt beam="2">  1       -1 0.32104597E-01 0.54874057E+03</pdfrwt>
<totfact> 0.62839770E+02</totfact>
</mgrwt>
</event>
<event>
 5    0  0.5719562E-003  0.5846601E+03  0.7546771E-02  0.9937753E-01
         -1   -1    0    0    0  501 -0.00000000000E+00  0.00000000000E+00  0.52875787727E+02  0.52875787727E+02  0.00000000000E+00 0. -1.
          1   -1    0    0  502    0  0.00000000000E+00 -0.00000000000E+00 -0.16161810669E+04  0.16161810669E+04  0.00000000000E+00 0.  1.
         25    1    1    2    0    0  0.13692894372E+03 -0.16501920362E+03 -0.31490959776E+03  0.40096624291E+03  0.12500000000E+03 0.  0.
          3    1    1    2  502    0 -0.66198444571E+02  0.63973784640E+02 -0.69796892287E+03  0.70401384680E+03  0.00000000000E+00 0. -1.
         -3    1    1    2    0  501 -0.70730499151E+02  0.10104541898E+03 -0.55042675855E+03  0.56407676494E+03  0.00000000000E+00 0.  1.
<mgrwt>
<rscale>  4 0.58466006E+03</rscale>
<asrwt>0</asrwt>
<pdfrwt beam="1">  1        1 0.24864324E+00 0.58466006E+03</pdfrwt>
<pdfrwt beam="2">  1       -1 0.81347367E-02 0.58466006E+03</pdfrwt>
<totfact> 0.48964823E+02</totfact>
</mgrwt>
</event>
<event>
 5    0  0.5719562E-003  0.6172893E+03  0.7546771E-02  0.9870172E-01
         -2   -1    0    0    0  501 -0.00000000000E+00  0.00000000000E+00  0.10548630940E+03  0.10548630940E+03  0.00000000000E+00 0.  1.
          2   -1    0    0  502    0  0.00000000000E+00 -0.00000000000E+00 -0.90306995476E+03  0.90306995476E+03  0.00000000000E+00 0. -1.
         25    1    1    2    0    0 -0.22183413607E+03 -0.10249001630E+03 -0.62077106319E+03  0.67874612357E+03  0.12500000000E+03 0.  0.
          3    1    1    2  502    0  0.16775215498E+03  0.73339189929E+01 -0.92935232013E+02  0.19191542204E+03  0.00000000000E+00 0.  1.
         -3    1    1    2    0  501  0.54081981093E+02  0.95156097312E+02 -0.83877350149E+02  0.13789471854E+03  0.00000000000E+00 0. -1.
<mgrwt>
<rscale>  4 0.61728929E+03</rscale>
<asrwt>0</asrwt>
<pdfrwt beam="1">  1        2 0.13893383E+00 0.61728929E+03</pdfrwt>
<pdfrwt beam="2">  1       -2 0.16228664E-01 0.61728929E+03</pdfrwt>
<totfact> 0.90017223E+02</totfact>
</mgrwt>
</event>
<event>
 5    0  0.5719562E-003  0.8187220E+03  0.7546771E-02  0.9533306E-01
          1   -1    0    0  502    0  0.00000000000E+00  0.00000000000E+00  0.74183067957E+03  0.74183067957E+03  0.00000000000E+00 0. -1.
         -1   -1    0    0    0  501 -0.00000000000E+00 -0.00000000000E+00 -0.22589580792E+03  0.22589580792E+03  0.00000000000E+00 0.  1.
         25    1    1    2    0    0 -0.19592975790E+03  0.59855881287E+02 -0.59613557168E+02  0.24728520529E+03  0.12500000000E+03 0.  0.
          2    1    1    2  502    0  0.80496003576E+01 -0.65832241617E+02  0.52030717694E+03  0.52451714793E+03  0.00000000000E+00 0. -1.
         -2    1    1    2    0  501  0.18788015754E+03  0.59763603294E+01  0.55241251884E+02  0.19592413427E+03  0.00000000000E+00 0.  1.
<mgrwt>
<rscale>  4 0.81872203E+03</rscale>
<asrwt>0</asrwt>
<pdfrwt beam="1">  1        1 0.11412780E+00 0.81872203E+03</pdfrwt>
<pdfrwt beam="2">  1       -1 0.34753202E-01 0.81872203E+03</pdfrwt>
<totfact> 0.19766175E+02</totfact>
</mgrwt>
</event>
<event>
 5    0  0.5719562E-003  0.8039682E+03  0.7546771E-02  0.9554291E-01
         -3   -1    0    0    0  501 -0.00000000000E+00  0.00000000000E+00  0.41011624838E+03  0.41011624838E+03  0.00000000000E+00 0. -1.
          3   -1    0    0  502    0  0.00000000000E+00 -0.00000000000E+00 -0.39401324763E+03  0.39401324763E+03  0.00000000000E+00 0.  1.
         25    1    1    2    0    0 -0.25253545676E+03 -0.18343125242E+03 -0.29805077675E+02  0.33754188472E+03  0.12500000000E+03 0.  0.
          2    1    1    2  502    0  0.32730357690E+03  0.10505941145E+03 -0.11608726116E+02  0.34394748714E+03  0.00000000000E+00 0.  1.
         -2    1    1    2    0  501 -0.74768120140E+02  0.78371840966E+02  0.57516804545E+02  0.12264012415E+03  0.00000000000E+00 0. -1.
<mgrwt>
<rscale>  4 0.80396825E+03</rscale>
<asrwt>0</asrwt>
<pdfrwt beam="1">  1        3 0.60617422E-01 0.80396825E+03</pdfrwt>
<pdfrwt beam="2">  1       -3 0.63094808E-01 0.80396825E+03</pdfrwt>
<totfact> 0.17083389E+01</totfact>
</mgrwt>
</event>
<event>
 5    0  0.5719562E-003  0.5637815E+03  0.7546771E-02  0.9983534E-01
         -2   -1    0    0    0  501 -0.00000000000E+00  0.00000000000E+00  0.27529114768E+03  0.27529114768E+03  0.00000000000E+00 0. -1.
          2   -1    0    0  502    0  0.00000000000E+00 -0.00000000000E+00 -0.28864856941E+03  0.28864856941E+03  0.00000000000E+00 0.  1.
         25    1    1    2    0    0  0.19400459358E+03 -0.50624921922E+02  0.15231274084E+03  0.28111356437E+03  0.12500000000E+03 0.  0.
          3    1    1    2  502    0 -0.11643044366E+03 -0.22491177980E+02 -0.11348937700E+03  0.16413939195E+03  0.00000000000E+00 0.  1.
         -3    1    1    2    0  501 -0.77574149920E+02  0.73116099902E+02 -0.52180785568E+02  0.11868676077E+03  0.00000000000E+00 0. -1.
<mgrwt>
<rscale>  4 0.56378150E+03</rscale>
<asrwt>0</asrwt>
<pdfrwt beam="1">  1        2 0.44407472E-01 0.56378150E+03</pdfrwt>
<pdfrwt beam="2">  1       -2 0.42352484E-01 0.56378150E+03</pdfrwt>
<totfact> 0.60987952E+02</totfact>
</mgrwt>
</event>
<event>
 5    0  0.5719562E-003  0.5290161E+03  0.7546771E-02  0.1006471E+00
         -2   -1    0    0    0  501 -0.00000000000E+00  0.00000000000E+00  0.28926007772E+02  0.28926007772E+02  0.00000000000E+00 0. -1.
          2   -1    0    0  502    0  0.00000000000E+00 -0.00000000000E+00 -0.24187408242E+04  0.24187408242E+04  0.00000000000E+00 0.  1.
         25    1    1    2    0    0 -0.10270986855E+03 -0.21307840546E+03 -0.91713588795E+03  0.95536116780E+03  0.12500000000E+03 0.  0.
          2    1    1    2  502    0  0.94702908385E+02  0.15029921759E+03 -0.10523714345E+04  0.10672601050E+04  0.00000000000E+00 0.  1.
         -2    1    1    2    0  501  0.80069601652E+01  0.62779187873E+02 -0.42030749396E+03  0.42504555912E+03  0.00000000000E+00 0. -1.
<mgrwt>
<rscale>  4 0.52901613E+03</rscale>
<asrwt>0</asrwt>
<pdfrwt beam="1">  1        2 0.37211392E+00 0.52901613E+03</pdfrwt>
<pdfrwt beam="2">  1       -2 0.44501557E-02 0.52901613E+03</pdfrwt>
<totfact> 0.10098416E+03</totfact>
</mgrwt>
</event>
<event>
 5    0  0.5719562E-003  0.6777917E+03  0.7546771E-02  0.9755984E-01
          2   -1    0    0  502    0  0.00000000000E+00  0.00000000000E+00  0.51787438155E+03  0.51787438155E+03  0.00000000000E+00 0. -1.
         -2   -1    0    0    0  501 -0.00000000000E+00 -0.00000000000E+00 -0.22177266441E+03  0.22177266441E+03  0.00000000000E+00 0.  1.
         25    1    1    2    0    0  0.20016540641E+03  0.22956056932E+03  0.62617975384E+02  0.33512722323E+03  0.12500000000E+03 0.  0.
          4    1    1    2  502    0 -0.11613352409E+03 -0.11515476435E+03  0.20058094299E+03  0.25880558313E+03  0.00000000000E+00 0. -1.
         -4    1    1    2    0  501 -0.84031882313E+02 -0.11440580496E+03  0.32902798766E+02  0.14571423960E+03  0.00000000000E+00 0.  1.
<mgrwt>
<rscale>  4 0.67779165E+03</rscale>
<asrwt>0</asrwt>
<pdfrwt beam="1">  1        2 0.79672981E-01 0.67779165E+03</pdfrwt>
<pdfrwt beam="2">  1       -2 0.34118872E-01 0.67779165E+03</pdfrwt>
<totfact> 0.47871306E+02</totfact>
</mgrwt>
</event>
<event>
 5    0  0.5719562E-003  0.8448685E+03  0.7546771E-02  0.9497250E-01
         -2   -1    0    0    0  501 -0.00000000000E+00  0.00000000000E+00  0.74500439859E+03  0.74500439859E+03  0.00000000000E+00 0.  1.
          2   -1    0    0  502    0  0.00000000000E+00 -0.00000000000E+00 -0.23952973985E+03  0.23952973985E+03  0.00000000000E+00 0. -1.
         25    1    1    2    0    0 -0.54437579694E+01 -0.32223928358E+03  0.12025311220E+03  0.36599672318E+03  0.12500000000E+03 0.  0.
          3    1    1    2  502    0 -0.43331697820E+02  0.12687170986E+03 -0.46712318681E+02  0.14197220684E+03  0.00000000000E+00 0. -1.
         -3    1    1    2    0  501  0.48775455789E+02  0.19536757371E+03  0.43193386523E+03  0.47656520842E+03  0.00000000000E+00 0.  1.
<mgrwt>
<rscale>  4 0.84486853E+03</rscale>
<asrwt>0</asrwt>
<pdfrwt beam="1">  1        2 0.36850730E-01 0.84486853E+03</pdfrwt>
<pdfrwt beam="2">  1       -2 0.11461606E+00 0.84486853E+03</pdfrwt>
<totfact> 0.84379122E+01</totfact>
</mgrwt>
</event>
<event>
 5    0  0.5719562E-003  0.5089499E+03  0.7546771E-02  0.1011469E+00
         -2   -1    0    0    0  501 -0.00000000000E+00  0.00000000000E+00  0.24690294287E+03  0.24690294287E+03  0.00000000000E+00 0.  1.
          2   -1    0    0  502    0  0.00000000000E+00 -0.00000000000E+00 -0.26227918628E+03  0.26227918628E+03  0.00000000000E+00 0. -1.
         25    1    1    2    0    0  0.73055877952E+02  0.22552050248E+03  0.12313765521E+02  0.26827837625E+03  0.12500000000E+03 0.  0.
          2    1    1    2  502    0 -0.14042418554E+02 -0.20343388292E+02  0.40924107151E+01  0.25055753661E+02  0.00000000000E+00 0. -1.
         -2    1    1    2    0  501 -0.59013459397E+02 -0.20517711419E+03 -0.31782419644E+02  0.21584799924E+03  0.00000000000E+00 0.  1.
<mgrwt>
<rscale>  4 0.50894991E+03</rscale>
<asrwt>0</asrwt>
<pdfrwt beam="1">  1        2 0.40350644E-01 0.50894991E+03</pdfrwt>
<pdfrwt beam="2">  1       -2 0.37985068E-01 0.50894991E+03</pdfrwt>
<totfact> 0.83737746E+02</totfact>
</mgrwt>
</event>
<event>
 5    0  0.5719562E-003  0.4630142E+03  0.7546771E-02  0.1023911E+00
         -4   -1    0    0    0  501 -0.00000000000E+00  0.00000000000E+00  0.27236287880E+03  0.27236287880E+03  0.00000000000E+00 0. -1.
          4   -1    0    0  502    0  0.00000000000E+00 -0.00000000000E+00 -0.19677991762E+03  0.19677991762E+03  0.00000000000E+00 0.  1.
         25    1    1    2    0    0 -0.19668548531E+03  0.59254486569E+02  0.86954301047E+02  0.25569967693E+03  0.12500000000E+03 0.  0.
          3    1    1    2  502    0  0.51098138988E+02 -0.31988806801E+02 -0.23779885083E+02  0.64805759799E+02  0.00000000000E+00 0. -1.
         -3    1    1    2    0  501  0.14558734632E+03 -0.27265679768E+02  0.12408545223E+02  0.14863735970E+03  0.00000000000E+00 0.  1.
<mgrwt>
<rscale>  4 0.46301423E+03</rscale>
<asrwt>0</asrwt>
<pdfrwt beam="1">  1        4 0.30273834E-01 0.46301423E+03</pdfrwt>
<pdfrwt beam="2">  1       -4 0.41901981E-01 0.46301423E+03</pdfrwt>
<totfact> 0.11335271E+02</totfact>
</mgrwt>
</event>
<event>
 5    0  0.5719562E-003  0.6865834E+03  0.7546771E-02  0.9740456E-01
          2   -1    0    0  502    0  0.00000000000E+00  0.00000000000E+00  0.41866470838E+03  0.41866470838E+03  0.00000000000E+00 0. -1.
         -2   -1    0    0    0  501 -0.00000000000E+00 -0.00000000000E+00 -0.28148820072E+03  0.28148820072E+03  0.00000000000E+00 0.  1.
         25    1    1    2    0    0  0.72414187627E+02  0.24565434349E+03  0.12401336145E+03  0.31079605027E+03  0.12500000000E+03 0.  0.
          1    1    1    2  502    0 -0.54504852894E+01 -0.14549678610E+03  0.14863149703E+03  0.20806331840E+03  0.00000000000E+00 0. -1.
         -1    1    1    2    0  501 -0.66963702338E+02 -0.10015755739E+03 -0.13546835081E+03  0.18129354044E+03  0.00000000000E+00 0.  1.
<mgrwt>
<rscale>  4 0.68658335E+03</rscale>
<asrwt>0</asrwt>
<pdfrwt beam="1">  1        2 0.64409955E-01 0.68658335E+03</pdfrwt>
<pdfrwt beam="2">  1       -2 0.43305877E-01 0.68658335E+03</pdfrwt>
<totfact> 0.38507403E+02</totfact>
</mgrwt>
</event>
<event>
 5    0  0.5719562E-003  0.5319680E+03  0.7546771E-02  0.1005756E+00
          1   -1    0    0  502    0  0.00000000000E+00  0.00000000000E+00  0.86858667497E+03  0.86858667497E+03  0.00000000000E+00 0.  1.
         -1   -1    0    0    0  501 -0.00000000000E+00 -0.00000000000E+00 -0.81451267614E+02  0.81451267614E+02  0.00000000000E+00 0. -1.
         25    1    1    2    0    0  0.10353058421E+02 -0.24054045485E+03  0.51703777941E+03  0.58388351712E+03  0.12500000000E+03 0.  0.
          1    1    1    2  502    0 -0.21827662520E+02  0.17893672076E+03  0.16830303185E+03  0.24661854638E+03  0.00000000000E+00 0. -1.
         -1    1    1    2    0  501  0.11474604098E+02  0.61603734087E+02  0.10179459610E+03  0.11953587908E+03  0.00000000000E+00 0.  1.
<mgrwt>
<rscale>  4 0.53196799E+03</rscale>
<asrwt>0</asrwt>
<pdfrwt beam="1">  1        1 0.13362871E+00 0.53196799E+03</pdfrwt>
<pdfrwt beam="2">  1       -1 0.12530965E-01 0.53196799E+03</pdfrwt>
<totfact> 0.86028564E+02</totfact>
</mgrwt>
</event>
<event>
 5    0  0.5719562E-003  0.6983577E+03  0.7546771E-02  0.9720045E-01
          1   -1    0    0  502    0  0.00000000000E+00  0.00000000000E+00  0.76697083981E+03  0.76697083981E+03  0.00000000000E+00 0.  1.
         -1   -1    0    0    0  501 -0.00000000000E+00 -0.00000000000E+00 -0.15897067945E+03  0.15897067945E+03  0.00000000000E+00 0. -1.
         25    1    1    2    0    0  0.32209189857E+03  0.15869615860E+02  0.35797000869E+03  0.49775753430E+03  0.12500000000E+03 0.  0.
          3    1    1    2  502    0 -0.80554874332E+01 -0.25329415234E+02 -0.12493253175E+00  0.26579799886E+02  0.00000000000E+00 0. -1.
         -3    1    1    2    0  501 -0.31403641113E+03  0.94597993740E+01  0.25015508420E+03  0.40160418508E+03  0.00000000000E+00 0.  1.
<mgrwt>
<rscale>  4 0.69835772E+03</rscale>
<asrwt>0</asrwt>
<pdfrwt beam="1">  1        1 0.11799551E+00 0.69835772E+03</pdfrwt>
<pdfrwt beam="2">  1       -1 0.24457028E-01 0.69835772E+03</pdfrwt>
<totfact> 0.34774370E+02</totfact>
</mgrwt>
</event>
<event>
 5    0  0.5719562E-003  0.6712743E+03  0.7546771E-02  0.9767659E-01
          1   -1    0    0  502    0  0.00000000000E+00  0.00000000000E+00  0.30042097750E+04  0.30042097750E+04  0.00000000000E+00 0.  1.
         -1   -1    0    0    0  501 -0.00000000000E+00 -0.00000000000E+00 -0.37498145056E+02  0.37498145056E+02  0.00000000000E+00 0. -1.
         25    1    1    2    0    0  0.30002654511E+03 -0.97128092371E+02  0.17851277931E+04  0.18170734800E+04  0.12500000000E+03 0.  0.
          1    1    1    2  502    0 -0.20945177100E+03  0.57073422220E+02  0.91062304289E+03  0.93614194765E+03  0.00000000000E+00 0.  1.
         -1    1    1    2    0  501 -0.90574774104E+02  0.40054670151E+02  0.27096079395E+03  0.28849249239E+03  0.00000000000E+00 0. -1.
<mgrwt>
<rscale>  4 0.67127429E+03</rscale>
<asrwt>0</asrwt>
<pdfrwt beam="1">  1        1 0.46218593E+00 0.67127429E+03</pdfrwt>
<pdfrwt beam="2">  1       -1 0.57689477E-02 0.67127429E+03</pdfrwt>
<totfact> 0.94463255E+01</totfact>
</mgrwt>
</event>
<event>
 5    0  0.5719562E-003  0.6838080E+03  0.7546771E-02  0.9745331E-01
          1   -1    0    0  502    0  0.00000000000E+00  0.00000000000E+00  0.14309843472E+04  0.14309843472E+04  0.00000000000E+00 0. -1.
         -1   -1    0    0    0  501 -0.00000000000E+00 -0.00000000000E+00 -0.81690854956E+02  0.81690854956E+02  0.00000000000E+00 0.  1.
         25    1    1    2    0    0 -0.20057313902E+03 -0.12944150673E+03  0.61700458431E+03  0.67327880170E+03  0.12500000000E+03 0.  0.
          2    1    1    2  502    0  0.26039554974E+03  0.92580730154E+02  0.32736686947E+03  0.42842280652E+03  0.00000000000E+00 0.  1.
         -2    1    1    2    0  501 -0.59822410720E+02  0.36860776575E+02  0.40492203849E+03  0.41097359396E+03  0.00000000000E+00 0. -1.
<mgrwt>
<rscale>  4 0.68380797E+03</rscale>
<asrwt>0</asrwt>
<pdfrwt beam="1">  1        1 0.22015142E+00 0.68380797E+03</pdfrwt>
<pdfrwt beam="2">  1       -1 0.12567825E-01 0.68380797E+03</pdfrwt>
<totfact> 0.32680616E+02</totfact>
</mgrwt>
</event>
<event>
 5    0  0.5719562E-003  0.7689347E+03  0.7546771E-02  0.9606104E-01
          2   -1    0    0  502    0  0.00000000000E+00  0.00000000000E+00  0.13229305921E+04  0.13229305921E+04  0.00000000000E+00 0. -1.
         -2   -1    0    0    0  501 -0.00000000000E+00 -0.00000000000E+00 -0.11173309557E+03  0.11173309557E+03  0.00000000000E+00 0.  1.
         25    1    1    2    0    0 -0.20209049792E+03 -0.29970267309E+03  0.47235373927E+03  0.60778722971E+03  0.12500000000E+03 0.  0.
          4    1    1    2  502    0  0.11319613378E+03  0.19269707725E+03  0.53788493228E+03  0.58246521669E+03  0.00000000000E+00 0.  1.
         -4    1    1    2    0  501  0.88894364133E+02  0.10700559584E+03  0.20095882497E+03  0.24441124124E+03  0.00000000000E+00 0. -1.
<mgrwt>
<rscale>  4 0.76893467E+03</rscale>
<asrwt>0</asrwt>
<pdfrwt beam="1">  1        2 0.20352777E+00 0.76893467E+03</pdfrwt>
<pdfrwt beam="2">  1       -2 0.17189708E-01 0.76893467E+03</pdfrwt>
<totfact> 0.44893590E+02</totfact>
</mgrwt>
</event>
<event>
 5    0  0.5719562E-003  0.8003859E+03  0.7546771E-02  0.9559459E-01
         -2   -1    0    0    0  501 -0.00000000000E+00  0.00000000000E+00  0.23085160206E+03  0.23085160206E+03  0.00000000000E+00 0.  1.
          2   -1    0    0  502    0  0.00000000000E+00 -0.00000000000E+00 -0.69375472083E+03  0.69375472083E+03  0.00000000000E+00 0. -1.
         25    1    1    2    0    0 -0.23073585964E+03 -0.23964315945E+03 -0.78375939305E+02  0.36391711784E+03  0.12500000000E+03 0.  0.
          2    1    1    2  502    0  0.20256538991E+03  0.22515611262E+03 -0.41696346491E+03  0.51535089338E+03  0.00000000000E+00 0. -1.
         -2    1    1    2    0  501  0.28170469732E+02  0.14487046833E+02  0.32436285444E+02  0.45338311661E+02  0.00000000000E+00 0.  1.
<mgrwt>
<rscale>  4 0.80038588E+03</rscale>
<asrwt>0</asrwt>
<pdfrwt beam="1">  1        2 0.10673149E+00 0.80038588E+03</pdfrwt>
<pdfrwt beam="2">  1       -2 0.35515632E-01 0.80038588E+03</pdfrwt>
<totfact> 0.31029503E+02</totfact>
</mgrwt>
</event>
<event>
 5    0  0.5719562E-003  0.5056467E+03  0.7546771E-02  0.1012315E+00
          1   -1    0    0  502    0  0.00000000000E+00  0.00000000000E+00  0.13208440424E+04  0.13208440424E+04  0.00000000000E+00 0. -1.
         -1   -1    0    0    0  501 -0.00000000000E+00 -0.00000000000E+00 -0.48393021458E+02  0.48393021458E+02  0.00000000000E+00 0.  1.
         25    1    1    2    0    0 -0.57604831445E+01  0.23517747221E+03  0.69444344723E+03  0.74378648012E+03  0.12500000000E+03 0.  0.
          1    1    1    2  502    0 -0.10213531691E+02 -0.17458683933E+03  0.39409164744E+03  0.43115322947E+03  0.00000000000E+00 0.  1.
         -1    1    1    2    0  501  0.15974014835E+02 -0.60590632880E+02  0.18391592626E+03  0.19429735427E+03  0.00000000000E+00 0. -1.
<mgrwt>
<rscale>  4 0.50564665E+03</rscale>
<asrwt>0</asrwt>
<pdfrwt beam="1">  1        1 0.20320675E+00 0.50564665E+03</pdfrwt>
<pdfrwt beam="2">  1       -1 0.74450812E-02 0.50564665E+03</pdfrwt>
<totfact> 0.89768661E+02</totfact>
</mgrwt>
</event>
<event>
 5    0  0.5719562E-003  0.5602110E+03  0.7546771E-02  0.9991577E-01
         -2   -1    0    0    0  501 -0.00000000000E+00  0.00000000000E+00  0.19759528522E+02  0.19759528522E+02  0.00000000000E+00 0.  1.
          2   -1    0    0  502    0  0.00000000000E+00 -0.00000000000E+00 -0.39706969437E+04  0.39706969437E+04  0.00000000000E+00 0. -1.
         25    1    1    2    0    0 -0.18183933438E+03  0.12056092913E+03 -0.23171164599E+04  0.23307196679E+04  0.12500000000E+03 0.  0.
          3    1    1    2  502    0  0.14839402275E+03  0.53329651072E+00 -0.58968133548E+03  0.60806672973E+03  0.00000000000E+00 0. -1.
         -3    1    1    2    0  501  0.33445311636E+02 -0.12109422564E+03 -0.10441396197E+04  0.10516700746E+04  0.00000000000E+00 0.  1.
<mgrwt>
<rscale>  4 0.56021103E+03</rscale>
<asrwt>0</asrwt>
<pdfrwt beam="1">  1        2 0.61087581E+00 0.56021103E+03</pdfrwt>
<pdfrwt beam="2">  1       -2 0.30399306E-02 0.56021103E+03</pdfrwt>
<totfact> 0.18188108E+02</totfact>
</mgrwt>
</event>
<event>
 5    0  0.5719562E-003  0.5903624E+03  0.7546771E-02  0.9925605E-01
          1   -1    0    0  502    0  0.00000000000E+00  0.00000000000E+00  0.75606690434E+03  0.75606690434E+03  0.00000000000E+00 0.  1.
         -1   -1    0    0    0  501 -0.00000000000E+00 -0.00000000000E+00 -0.11524367628E+03  0.11524367628E+03  0.00000000000E+00 0. -1.
         25    1    1    2    0    0 -0.15041095488E+02 -0.24950392317E+03  0.45714651000E+03  0.53580441752E+03  0.12500000000E+03 0.  0.
          4    1    1    2  502    0 -0.15194285155E+02  0.54039555439E+02 -0.11864506050E+02  0.57375137100E+02  0.00000000000E+00 0. -1.
         -4    1    1    2    0  501  0.30235380643E+02  0.19546436773E+03  0.19554122411E+03  0.27813102599E+03  0.00000000000E+00 0.  1.
<mgrwt>
<rscale>  4 0.59036236E+03</rscale>
<asrwt>0</asrwt>
<pdfrwt beam="1">  1        1 0.11631798E+00 0.59036236E+03</pdfrwt>
<pdfrwt beam="2">  1       -1 0.17729797E-01 0.59036236E+03</pdfrwt>
<totfact> 0.61090394E+02</totfact>
</mgrwt>
</event>
<event>
 5    0  0.5719562E-003  0.6092335E+03  0.7546771E-02  0.9886433E-01
          2   -1    0    0  502    0  0.00000000000E+00  0.00000000000E+00  0.28602771038E+03  0.28602771038E+03  0.00000000000E+00 0.  1.
         -2   -1    0    0    0  501 -0.00000000000E+00 -0.00000000000E+00 -0.32441384571E+03  0.32441384571E+03  0.00000000000E+00 0. -1.
         25    1    1    2    0    0  0.25863658208E+03  0.70752235158E+02 -0.51218642073E+02  0.30024508267E+03  0.12500000000E+03 0.  0.
          3    1    1    2  502    0 -0.17996967228E+03 -0.12026628167E+03  0.17229129141E+02  0.21714028723E+03  0.00000000000E+00 0.  1.
         -3    1    1    2    0  501 -0.78666909806E+02  0.49514046511E+02 -0.43966223961E+01  0.93056186194E+02  0.00000000000E+00 0. -1.
<mgrwt>
<rscale>  4 0.60923345E+03</rscale>
<asrwt>0</asrwt>
<pdfrwt beam="1">  1        2 0.44004263E-01 0.60923345E+03</pdfrwt>
<pdfrwt beam="2">  1       -2 0.49909822E-01 0.60923345E+03</pdfrwt>
<totfact> 0.44376000E+02</totfact>
</mgrwt>
</event>
<event>
 5    0  0.5719562E-003  0.6729999E+03  0.7546771E-02  0.9764554E-01
         -1   -1    0    0    0  501 -0.00000000000E+00  0.00000000000E+00  0.29835504366E+03  0.29835504366E+03  0.00000000000E+00 0.  1.
          1   -1    0    0  502    0  0.00000000000E+00 -0.00000000000E+00 -0.37952174862E+03  0.37952174862E+03  0.00000000000E+00 0. -1.
         25    1    1    2    0    0 -0.23646144939E+03 -0.11377480522E+03 -0.13981035055E+03  0.32253783882E+03  0.12500000000E+03 0.  0.
          4    1    1    2  502    0  0.25346169099E+03  0.16084131416E+03  0.45671163127E+02  0.30364224390E+03  0.00000000000E+00 0.  1.
         -4    1    1    2    0  501 -0.17000241608E+02 -0.47066508934E+02  0.12972482460E+02  0.51696709558E+02  0.00000000000E+00 0. -1.
<mgrwt>
<rscale>  4 0.67299993E+03</rscale>
<asrwt>0</asrwt>
<pdfrwt beam="1">  1        1 0.58387961E-01 0.67299993E+03</pdfrwt>
<pdfrwt beam="2">  1       -1 0.45900776E-01 0.67299993E+03</pdfrwt>
<totfact> 0.30770717E+02</totfact>
</mgrwt>
</event>
<event>
 5    0  0.5719562E-003  0.4958966E+03  0.7546771E-02  0.1014856E+00
         -1   -1    0    0    0  501 -0.00000000000E+00  0.00000000000E+00  0.50605316419E+02  0.50605316419E+02  0.00000000000E+00 0.  1.
          1   -1    0    0  502    0  0.00000000000E+00 -0.00000000000E+00 -0.12148597493E+04  0.12148597493E+04  0.00000000000E+00 0. -1.
         25    1    1    2    0    0 -0.21580672151E+03  0.30822360157E+02 -0.43415338671E+03  0.50163405200E+03  0.12500000000E+03 0.  0.
          2    1    1    2  502    0  0.20213718321E+02 -0.16511157654E+02 -0.56040780977E+02  0.61820561854E+02  0.00000000000E+00 0.  1.
         -2    1    1    2    0  501  0.19559300319E+03 -0.14311202503E+02 -0.67406026516E+03  0.70201045183E+03  0.00000000000E+00 0. -1.
<mgrwt>
<rscale>  4 0.49589661E+03</rscale>
<asrwt>0</asrwt>
<pdfrwt beam="1">  1        1 0.18690150E+00 0.49589661E+03</pdfrwt>
<pdfrwt beam="2">  1       -1 0.77854334E-02 0.49589661E+03</pdfrwt>
<totfact> 0.99493182E+02</totfact>
</mgrwt>
</event>
<event>
 5    0  0.5719562E-003  0.5134863E+03  0.7546771E-02  0.1010318E+00
         -1   -1    0    0    0  501 -0.00000000000E+00  0.00000000000E+00  0.17336672948E+03  0.17336672948E+03  0.00000000000E+00 0. -1.
          1   -1    0    0  502    0  0.00000000000E+00 -0.00000000000E+00 -0.38021738699E+03  0.38021738699E+03  0.00000000000E+00 0.  1.
         25    1    1    2    0    0  0.69586559011E+02  0.19524725814E+03 -0.23958432908E+03  0.34057221223E+03  0.12500000000E+03 0.  0.
          4    1    1    2  502    0 -0.57742035556E+02 -0.14716525411E+03  0.96653951048E+01  0.15838299957E+03  0.00000000000E+00 0. -1.
         -4    1    1    2    0  501 -0.11844523454E+02 -0.48082004021E+02  0.23068276469E+02  0.54628904673E+02  0.00000000000E+00 0.  1.
<mgrwt>
<rscale>  4 0.51348630E+03</rscale>
<asrwt>0</asrwt>
<pdfrwt beam="1">  1        1 0.58494982E-01 0.51348630E+03</pdfrwt>
<pdfrwt beam="2">  1       -1 0.26671805E-01 0.51348630E+03</pdfrwt>
<totfact> 0.80857303E+02</totfact>
</mgrwt>
</event>
<event>
 5    0  0.5719562E-003  0.7443381E+03  0.7546771E-02  0.9644275E-01
         -2   -1    0    0    0  501 -0.00000000000E+00  0.00000000000E+00  0.98664781660E+02  0.98664781660E+02  0.00000000000E+00 0.  1.
          2   -1    0    0  502    0  0.00000000000E+00 -0.00000000000E+00 -0.14038421905E+04  0.14038421905E+04  0.00000000000E+00 0. -1.
         25    1    1    2    0    0  0.61364779498E+02  0.24905088398E+03 -0.16430374213E+03  0.32926083680E+03  0.12500000000E+03 0.  0.
          1    1    1    2  502    0 -0.56148445181E+02 -0.19962649086E+03 -0.71447647269E+03  0.74396237390E+03  0.00000000000E+00 0.  1.
         -1    1    1    2    0  501 -0.52163343177E+01 -0.49424393124E+02 -0.42639719399E+03  0.42928376143E+03  0.00000000000E+00 0. -1.
<mgrwt>
<rscale>  4 0.74433805E+03</rscale>
<asrwt>0</asrwt>
<pdfrwt beam="1">  1        2 0.21597570E+00 0.74433805E+03</pdfrwt>
<pdfrwt beam="2">  1       -2 0.15179199E-01 0.74433805E+03</pdfrwt>
<totfact> 0.49980869E+02</totfact>
</mgrwt>
</event>
<event>
 5    0  0.5719562E-003  0.1046225E+04  0.7546771E-02  0.9259250E-01
         -2   -1    0    0    0  501 -0.00000000000E+00  0.00000000000E+00  0.24917461724E+03  0.24917461724E+03  0.00000000000E+00 0. -1.
          2   -1    0    0  502    0  0.00000000000E+00 -0.00000000000E+00 -0.10982134080E+04  0.10982134080E+04  0.00000000000E+00 0.  1.
         25    1    1    2    0    0 -0.31874577264E+03  0.25622989628E+03 -0.24636420449E+03  0.49353110193E+03  0.12500000000E+03 0.  0.
          3    1    1    2  502    0  0.10814315656E+03 -0.33556481500E+03 -0.23814849706E+03  0.42545668878E+03  0.00000000000E+00 0. -1.
         -3    1    1    2    0  501  0.21060261608E+03  0.79334918720E+02 -0.36452608923E+03  0.42840023454E+03  0.00000000000E+00 0.  1.
<mgrwt>
<rscale>  4 0.10462254E+04</rscale>
<asrwt>0</asrwt>
<pdfrwt beam="1">  1        2 0.16895591E+00 0.10462254E+04</pdfrwt>
<pdfrwt beam="2">  1       -2 0.38334556E-01 0.10462254E+04</pdfrwt>
<totfact> 0.13965713E+02</totfact>
</mgrwt>
</event>
<event>
 5    0  0.5719562E-003  0.5165132E+03  0.7546771E-02  0.1009556E+00
          2   -1    0    0  502    0  0.00000000000E+00  0.00000000000E+00  0.10324741696E+04  0.10324741696E+04  0.00000000000E+00 0. -1.
         -2   -1    0    0    0  501 -0.00000000000E+00 -0.00000000000E+00 -0.64598681512E+02  0.64598681512E+02  0.00000000000E+00 0.  1.
         25    1    1    2    0    0 -0.13097251428E+03 -0.19483516237E+03  0.39384167896E+03  0.47523763327E+03  0.12500000000E+03 0.  0.
          2    1    1    2  502    0  0.11796378936E+03  0.15353419986E+03  0.43332304830E+03  0.47461254757E+03  0.00000000000E+00 0. -1.
         -2    1    1    2    0  501  0.13008724919E+02  0.41300962507E+02  0.14071076086E+03  0.14722267030E+03  0.00000000000E+00 0.  1.
<mgrwt>
<rscale>  4 0.51651319E+03</rscale>
<asrwt>0</asrwt>
<pdfrwt beam="1">  1        2 0.15884217E+00 0.51651319E+03</pdfrwt>
<pdfrwt beam="2">  1       -2 0.99382594E-02 0.51651319E+03</pdfrwt>
<totfact> 0.16775364E+03</totfact>
</mgrwt>
</event>
<event>
 5    0  0.5719562E-003  0.7571520E+03  0.7546771E-02  0.9624196E-01
          2   -1    0    0  502    0  0.00000000000E+00  0.00000000000E+00  0.20167524493E+04  0.20167524493E+04  0.00000000000E+00 0.  1.
         -2   -1    0    0    0  501 -0.00000000000E+00 -0.00000000000E+00 -0.71064637409E+02  0.71064637409E+02  0.00000000000E+00 0. -1.
         25    1    1    2    0    0 -0.28502092776E+03  0.49285210929E+02  0.64879205260E+03  0.72126422953E+03  0.12500000000E+03 0.  0.
          1    1    1    2  502    0  0.27660665542E+03 -0.75770704253E+02  0.56031858603E+03  0.62945163380E+03  0.00000000000E+00 0. -1.
         -1    1    1    2    0  501  0.84142723415E+01  0.26485493324E+02  0.73657717322E+03  0.73710122334E+03  0.00000000000E+00 0.  1.
<mgrwt>
<rscale>  4 0.75715198E+03</rscale>
<asrwt>0</asrwt>
<pdfrwt beam="1">  1        2 0.31026956E+00 0.75715198E+03</pdfrwt>
<pdfrwt beam="2">  1       -2 0.10933023E-01 0.75715198E+03</pdfrwt>
<totfact> 0.39707470E+02</totfact>
</mgrwt>
</event>
<event>
 5    0  0.5719562E-003  0.5426530E+03  0.7546771E-02  0.1003209E+00
          1   -1    0    0  502    0  0.00000000000E+00  0.00000000000E+00  0.16287697675E+04  0.16287697675E+04  0.00000000000E+00 0.  1.
         -1   -1    0    0    0  501 -0.00000000000E+00 -0.00000000000E+00 -0.45198571910E+02  0.45198571910E+02  0.00000000000E+00 0. -1.
         25    1    1    2    0    0 -0.11744631004E+03  0.19400357678E+03  0.47145801413E+03  0.53789281705E+03  0.12500000000E+03 0.  0.
          3    1    1    2  502    0  0.38842261793E+02 -0.10018606014E+03  0.44175046264E+03  0.45463110232E+03  0.00000000000E+00 0. -1.
         -3    1    1    2    0  501  0.78604048243E+02 -0.93817516646E+02  0.67036271885E+03  0.68144442007E+03  0.00000000000E+00 0.  1.
<mgrwt>
<rscale>  4 0.54265299E+03</rscale>
<asrwt>0</asrwt>
<pdfrwt beam="1">  1        1 0.25057992E+00 0.54265299E+03</pdfrwt>
<pdfrwt beam="2">  1       -1 0.69536277E-02 0.54265299E+03</pdfrwt>
<totfact> 0.61443026E+02</totfact>
</mgrwt>
</event>
<event>
 5    0  0.5719562E-003  0.4816040E+03  0.7546771E-02  0.1018695E+00
         -2   -1    0    0    0  501 -0.00000000000E+00  0.00000000000E+00  0.60796377685E+02  0.60796377685E+02  0.00000000000E+00 0.  1.
          2   -1    0    0  502    0  0.00000000000E+00 -0.00000000000E+00 -0.95376753691E+03  0.95376753691E+03  0.00000000000E+00 0. -1.
         25    1    1    2    0    0 -0.16683655971E+03 -0.11221100841E+03 -0.47136316584E+03  0.52747889264E+03  0.12500000000E+03 0.  0.
          3    1    1    2  502    0  0.85750179589E+02  0.81034786815E+02 -0.36450842036E+03  0.38312676556E+03  0.00000000000E+00 0. -1.
         -3    1    1    2    0  501  0.81086380121E+02  0.31176221594E+02 -0.57099573016E+02  0.10395825639E+03  0.00000000000E+00 0.  1.
<mgrwt>
<rscale>  4 0.48160403E+03</rscale>
<asrwt>0</asrwt>
<pdfrwt beam="1">  1        2 0.14673346E+00 0.48160403E+03</pdfrwt>
<pdfrwt beam="2">  1       -2 0.93532894E-02 0.48160403E+03</pdfrwt>
<totfact> 0.20744953E+03</totfact>
</mgrwt>
</event>
<event>
 5    0  0.5719562E-003  0.1076772E+04  0.7546771E-02  0.9228132E-01
          2   -1    0    0  502    0  0.00000000000E+00  0.00000000000E+00  0.15705529722E+04  0.15705529722E+04  0.00000000000E+00 0.  1.
         -2   -1    0    0    0  501 -0.00000000000E+00 -0.00000000000E+00 -0.18455872876E+03  0.18455872876E+03  0.00000000000E+00 0. -1.
         25    1    1    2    0    0  0.70830769754E+02 -0.30229781193E+03  0.13576953761E+04  0.13983428404E+04  0.12500000000E+03 0.  0.
          3    1    1    2  502    0 -0.12540268500E+03  0.25176449103E+03  0.21873839091E+02  0.28211638943E+03  0.00000000000E+00 0. -1.
         -3    1    1    2    0  501  0.54571915249E+02  0.50533320904E+02  0.64250282394E+01  0.74652471114E+02  0.00000000000E+00 0.  1.
<mgrwt>
<rscale>  4 0.10767716E+04</rscale>
<asrwt>0</asrwt>
<pdfrwt beam="1">  1        2 0.24162353E+00 0.10767716E+04</pdfrwt>
<pdfrwt beam="2">  1       -2 0.28393652E-01 0.10767716E+04</pdfrwt>
<totfact> 0.13075346E+02</totfact>
</mgrwt>
</event>
<event>
 5    0  0.5719562E-003  0.6078337E+03  0.7546771E-02  0.9889286E-01
         -2   -1    0    0    0  501 -0.00000000000E+00  0.00000000000E+00  0.14403408433E+03  0.14403408433E+03  0.00000000000E+00 0.  1.
          2   -1    0    0  502    0  0.00000000000E+00 -0.00000000000E+00 -0.64127496567E+03  0.64127496567E+03  0.00000000000E+00 0. -1.
         25    1    1    2    0    0  0.19518705549E+03 -0.75674118253E+02 -0.32287118806E+03  0.40459283592E+03  0.12500000000E+03 0.  0.
          2    1    1    2  502    0 -0.15603696000E+03  0.14009201685E+03 -0.21049797933E+03  0.29712405721E+03  0.00000000000E+00 0. -1.
         -2    1    1    2    0  501 -0.39150095486E+02 -0.64417898602E+02  0.36128286040E+02  0.83592156863E+02  0.00000000000E+00 0.  1.
<mgrwt>
<rscale>  4 0.60783370E+03</rscale>
<asrwt>0</asrwt>
<pdfrwt beam="1">  1        2 0.98657686E-01 0.60783370E+03</pdfrwt>
<pdfrwt beam="2">  1       -2 0.22159090E-01 0.60783370E+03</pdfrwt>
<totfact> 0.81786707E+02</totfact>
</mgrwt>
</event>
<event>
 5    0  0.5719562E-003  0.8139764E+03  0.7546771E-02  0.9540004E-01
          1   -1    0    0  502    0  0.00000000000E+00  0.00000000000E+00  0.10123497511E+04  0.10123497511E+04  0.00000000000E+00 0. -1.
         -1   -1    0    0    0  501 -0.00000000000E+00 -0.00000000000E+00 -0.16361872729E+03  0.16361872729E+03  0.00000000000E+00 0.  1.
         25    1    1    2    0    0 -0.30261144656E+03  0.44518671722E+02  0.44297242105E+03  0.55263474876E+03  0.12500000000E+03 0.  0.
          3    1    1    2  502    0  0.18897782336E+03 -0.18363508293E+03  0.12898453640E+03  0.29337939947E+03  0.00000000000E+00 0.  1.
         -3    1    1    2    0  501  0.11363362320E+03  0.13911641120E+03  0.27677406636E+03  0.32995433017E+03  0.00000000000E+00 0. -1.
<mgrwt>
<rscale>  4 0.81397636E+03</rscale>
<asrwt>0</asrwt>
<pdfrwt beam="1">  1        1 0.15574611E+00 0.81397636E+03</pdfrwt>
<pdfrwt beam="2">  1       -1 0.25172113E-01 0.81397636E+03</pdfrwt>
<totfact> 0.20678310E+02</totfact>
</mgrwt>
</event>
<event>
 5    0  0.5719562E-003  0.7275694E+03  0.7546771E-02  0.9671213E-01
         -2   -1    0    0    0  501 -0.00000000000E+00  0.00000000000E+00  0.85606931094E+03  0.85606931094E+03  0.00000000000E+00 0. -1.
          2   -1    0    0  502    0  0.00000000000E+00 -0.00000000000E+00 -0.15458947368E+03  0.15458947368E+03  0.00000000000E+00 0.  1.
         25    1    1    2    0    0 -0.17252664855E+03 -0.14749640660E+03  0.16880374688E+03  0.30925772324E+03  0.12500000000E+03 0.  0.
          4    1    1    2  502    0  0.11860469996E+03  0.31118312108E+02 -0.28388425000E+02  0.12586233303E+03  0.00000000000E+00 0.  1.
         -4    1    1    2    0  501  0.53921948584E+02  0.11637809449E+03  0.56106451538E+03  0.57553872836E+03  0.00000000000E+00 0. -1.
<mgrwt>
<rscale>  4 0.72756939E+03</rscale>
<asrwt>0</asrwt>
<pdfrwt beam="1">  1        2 0.23782996E-01 0.72756939E+03</pdfrwt>
<pdfrwt beam="2">  1       -2 0.13170297E+00 0.72756939E+03</pdfrwt>
<totfact> 0.98579531E+01</totfact>
</mgrwt>
</event>
<event>
 5    0  0.5719562E-003  0.4900109E+03  0.7546771E-02  0.1016420E+00
         -1   -1    0    0    0  501 -0.00000000000E+00  0.00000000000E+00  0.52230253225E+02  0.52230253225E+02  0.00000000000E+00 0.  1.
          1   -1    0    0  502    0  0.00000000000E+00 -0.00000000000E+00 -0.11492891514E+04  0.11492891514E+04  0.00000000000E+00 0. -1.
         25    1    1    2    0    0 -0.37739622988E+02  0.21137072986E+03 -0.46379344745E+03  0.52614753300E+03  0.12500000000E+03 0.  0.
          1    1    1    2  502    0 -0.10178449549E+02 -0.11448908292E+03 -0.22012530569E+03  0.24832740716E+03  0.00000000000E+00 0.  1.
         -1    1    1    2    0  501  0.47918072537E+02 -0.96881646943E+02 -0.41314014505E+03  0.42704446448E+03  0.00000000000E+00 0. -1.
<mgrwt>
<rscale>  4 0.49001087E+03</rscale>
<asrwt>0</asrwt>
<pdfrwt beam="1">  1        1 0.17681371E+00 0.49001087E+03</pdfrwt>
<pdfrwt beam="2">  1       -1 0.80354239E-02 0.49001087E+03</pdfrwt>
<totfact> 0.10560706E+03</totfact>
</mgrwt>
</event>
<event>
 5    0  0.5719562E-003  0.8772272E+03  0.7546771E-02  0.9454505E-01
         -4   -1    0    0    0  501 -0.00000000000E+00  0.00000000000E+00  0.21698145458E+04  0.21698145458E+04  0.00000000000E+00 0. -1.
          4   -1    0    0  502    0  0.00000000000E+00 -0.00000000000E+00 -0.88662835493E+02  0.88662835493E+02  0.00000000000E+00 0.  1.
         25    1    1    2    0    0  0.41802078333E+03  0.12980604689E+02  0.12405623848E+04  0.13151159272E+04  0.12500000000E+03 0.  0.
          4    1    1    2  502    0 -0.67794190534E+02  0.74919890175E+01  0.75945440558E+02  0.10207787278E+03  0.00000000000E+00 0.  1.
         -4    1    1    2    0  501 -0.35022659280E+03 -0.20472593707E+02  0.76464388496E+03  0.84128358132E+03  0.00000000000E+00 0. -1.
<mgrwt>
<rscale>  4 0.87722725E+03</rscale>
<asrwt>0</asrwt>
<pdfrwt beam="1">  1        4 0.13640438E-01 0.87722725E+03</pdfrwt>
<pdfrwt beam="2">  1       -4 0.33381758E+00 0.87722725E+03</pdfrwt>
<totfact> 0.17943142E+00</totfact>
</mgrwt>
</event>
<event>
 5    0  0.5719562E-003  0.6830497E+03  0.7546771E-02  0.9746667E-01
         -2   -1    0    0    0  501 -0.00000000000E+00  0.00000000000E+00  0.14262348106E+03  0.14262348106E+03  0.00000000000E+00 0.  1.
          2   -1    0    0  502    0  0.00000000000E+00 -0.00000000000E+00 -0.81781215349E+03  0.81781215349E+03  0.00000000000E+00 0. -1.
         25    1    1    2    0    0 -0.46478973077E+02  0.21161507932E+03 -0.14310481958E+03  0.28817568621E+03  0.12500000000E+03 0.  0.
          4    1    1    2  502    0  0.91175037420E+02  0.50853693360E+01 -0.40899452529E+03  0.41906475651E+03  0.00000000000E+00 0. -1.
         -4    1    1    2    0  501 -0.44696064342E+02 -0.21670044865E+03 -0.12308932755E+03  0.25319519184E+03  0.00000000000E+00 0.  1.
<mgrwt>
<rscale>  4 0.68304968E+03</rscale>
<asrwt>0</asrwt>
<pdfrwt beam="1">  1        2 0.12581726E+00 0.68304968E+03</pdfrwt>
<pdfrwt beam="2">  1       -2 0.21942074E-01 0.68304968E+03</pdfrwt>
<totfact> 0.60954072E+02</totfact>
</mgrwt>
</event>
<event>
 5    0  0.5719562E-003  0.6776806E+03  0.7546771E-02  0.9756181E-01
         -1   -1    0    0    0  501 -0.00000000000E+00  0.00000000000E+00  0.18364949474E+03  0.18364949474E+03  0.00000000000E+00 0. -1.
          1   -1    0    0  502    0  0.00000000000E+00 -0.00000000000E+00 -0.62517325521E+03  0.62517325521E+03  0.00000000000E+00 0.  1.
         25    1    1    2    0    0  0.78337966695E+02  0.19592961842E+03  0.52170075120E+02  0.25074283467E+03  0.12500000000E+03 0.  0.
          2    1    1    2  502    0 -0.51620125864E+02 -0.11763892800E+03 -0.44255873399E+03  0.46082728631E+03  0.00000000000E+00 0.  1.
         -2    1    1    2    0  501 -0.26717840830E+02 -0.78290690423E+02 -0.51135101597E+02  0.97252628967E+02  0.00000000000E+00 0. -1.
<mgrwt>
<rscale>  4 0.67768061E+03</rscale>
<asrwt>0</asrwt>
<pdfrwt beam="1">  1        1 0.96180501E-01 0.67768061E+03</pdfrwt>
<pdfrwt beam="2">  1       -1 0.28253768E-01 0.67768061E+03</pdfrwt>
<totfact> 0.36970826E+02</totfact>
</mgrwt>
</event>
<event>
 5    0  0.5719562E-003  0.1004453E+04  0.7546771E-02  0.9303675E-01
          1   -1    0    0  502    0  0.00000000000E+00  0.00000000000E+00  0.93985559380E+03  0.93985559380E+03  0.00000000000E+00 0.  1.
         -1   -1    0    0    0  501 -0.00000000000E+00 -0.00000000000E+00 -0.26837236717E+03  0.26837236717E+03  0.00000000000E+00 0. -1.
         25    1    1    2    0    0 -0.18456725341E+03  0.32764873396E+03  0.55767385690E+03  0.68413733604E+03  0.12500000000E+03 0.  0.
          4    1    1    2  502    0  0.13062929659E+03 -0.35966656411E+03 -0.12721761646E+02  0.38286537280E+03  0.00000000000E+00 0. -1.
         -4    1    1    2    0  501  0.53937956823E+02  0.32017830150E+02  0.12653113137E+03  0.14122525214E+03  0.00000000000E+00 0.  1.
<mgrwt>
<rscale>  4 0.10044526E+04</rscale>
<asrwt>0</asrwt>
<pdfrwt beam="1">  1        1 0.14459317E+00 0.10044526E+04</pdfrwt>
<pdfrwt beam="2">  1       -1 0.41288057E-01 0.10044526E+04</pdfrwt>
<totfact> 0.97188396E+01</totfact>
</mgrwt>
</event>
<event>
 5    0  0.5719562E-003  0.4784985E+03  0.7546771E-02  0.1019549E+00
         -1   -1    0    0    0  501 -0.00000000000E+00  0.00000000000E+00  0.64945580928E+02  0.64945580928E+02  0.00000000000E+00 0.  1.
          1   -1    0    0  502    0  0.00000000000E+00 -0.00000000000E+00 -0.88135640224E+03  0.88135640224E+03  0.00000000000E+00 0. -1.
         25    1    1    2    0    0 -0.13660601784E+03 -0.15387005064E+03 -0.36744530889E+03  0.43929289958E+03  0.12500000000E+03 0.  0.
          2    1    1    2  502    0  0.45468029669E+02 -0.50623742055E+01 -0.14555078338E+03  0.15257129447E+03  0.00000000000E+00 0. -1.
         -2    1    1    2    0  501  0.91137988175E+02  0.15893242484E+03 -0.30341472904E+03  0.35443778911E+03  0.00000000000E+00 0.  1.
<mgrwt>
<rscale>  4 0.47849850E+03</rscale>
<asrwt>0</asrwt>
<pdfrwt beam="1">  1        1 0.13559329E+00 0.47849850E+03</pdfrwt>
<pdfrwt beam="2">  1       -1 0.99916278E-02 0.47849850E+03</pdfrwt>
<totfact> 0.12034490E+03</totfact>
</mgrwt>
</event>
<event>
 5    0  0.5719562E-003  0.5000851E+03  0.7546771E-02  0.1013757E+00
          2   -1    0    0  502    0  0.00000000000E+00  0.00000000000E+00  0.51273875479E+03  0.51273875479E+03  0.00000000000E+00 0.  1.
         -2   -1    0    0    0  501 -0.00000000000E+00 -0.00000000000E+00 -0.12193594200E+03  0.12193594200E+03  0.00000000000E+00 0. -1.
         25    1    1    2    0    0  0.22367370634E+02  0.22522095586E+03  0.26843979847E+03  0.37270592110E+03  0.12500000000E+03 0.  0.
          3    1    1    2  502    0 -0.14351278925E+02 -0.17256538370E+03  0.11577796278E+03  0.20830100221E+03  0.00000000000E+00 0.  1.
         -3    1    1    2    0  501 -0.80160917094E+01 -0.52655572161E+02  0.65850515571E+01  0.53667773476E+02  0.00000000000E+00 0. -1.
<mgrwt>
<rscale>  4 0.50008513E+03</rscale>
<asrwt>0</asrwt>
<pdfrwt beam="1">  1        2 0.78882884E-01 0.50008513E+03</pdfrwt>
<pdfrwt beam="2">  1       -2 0.18759376E-01 0.50008513E+03</pdfrwt>
<totfact> 0.14264152E+03</totfact>
</mgrwt>
</event>
<event>
 5    0  0.5719562E-003  0.5053122E+03  0.7546771E-02  0.1012402E+00
          1   -1    0    0  502    0  0.00000000000E+00  0.00000000000E+00  0.15460765475E+03  0.15460765475E+03  0.00000000000E+00 0. -1.
         -1   -1    0    0    0  501 -0.00000000000E+00 -0.00000000000E+00 -0.41288452740E+03  0.41288452740E+03  0.00000000000E+00 0.  1.
         25    1    1    2    0    0 -0.16705931989E+03  0.16288399197E+03 -0.16243630932E+03  0.31056491397E+03  0.12500000000E+03 0.  0.
          4    1    1    2  502    0  0.43889342993E+02 -0.21036605639E+02 -0.33130779161E+02  0.58876665436E+02  0.00000000000E+00 0.  1.
         -4    1    1    2    0  501  0.12316997689E+03 -0.14184738633E+03 -0.62709784168E+02  0.19805060275E+03  0.00000000000E+00 0. -1.
<mgrwt>
<rscale>  4 0.50531221E+03</rscale>
<asrwt>0</asrwt>
<pdfrwt beam="1">  1        1 0.23785793E-01 0.50531221E+03</pdfrwt>
<pdfrwt beam="2">  1       -1 0.63520697E-01 0.50531221E+03</pdfrwt>
<totfact> 0.53004714E+02</totfact>
</mgrwt>
</event>
<event>
 5    0  0.5719562E-003  0.7971600E+03  0.7546771E-02  0.9564137E-01
         -1   -1    0    0    0  501 -0.00000000000E+00  0.00000000000E+00  0.43222030563E+03  0.43222030563E+03  0.00000000000E+00 0.  1.
          1   -1    0    0  502    0  0.00000000000E+00 -0.00000000000E+00 -0.36755792710E+03  0.36755792710E+03  0.00000000000E+00 0. -1.
         25    1    1    2    0    0  0.26395420872E+03  0.56590328344E+02  0.15162838885E+03  0.33390186862E+03  0.12500000000E+03 0.  0.
          1    1    1    2  502    0 -0.15735772755E+03  0.13751360300E+03 -0.12153250137E+03  0.24174696341E+03  0.00000000000E+00 0. -1.
         -1    1    1    2    0  501 -0.10659648117E+03 -0.19410393134E+03  0.34566491050E+02  0.22412940071E+03  0.00000000000E+00 0.  1.
<mgrwt>
<rscale>  4 0.79715996E+03</rscale>
<asrwt>0</asrwt>
<pdfrwt beam="1">  1        1 0.56547373E-01 0.79715996E+03</pdfrwt>
<pdfrwt beam="2">  1       -1 0.66495432E-01 0.79715996E+03</pdfrwt>
<totfact> 0.15575543E+02</totfact>
</mgrwt>
</event>
<event>
 5    0  0.5719562E-003  0.6515139E+03  0.7546771E-02  0.9803943E-01
          1   -1    0    0  502    0  0.00000000000E+00  0.00000000000E+00  0.14757142239E+03  0.14757142239E+03  0.00000000000E+00 0. -1.
         -1   -1    0    0    0  501 -0.00000000000E+00 -0.00000000000E+00 -0.71909302261E+03  0.71909302261E+03  0.00000000000E+00 0.  1.
         25    1    1    2    0    0 -0.20743213385E+03  0.67275215512E+02 -0.21854860113E+03  0.33308037443E+03  0.12500000000E+03 0.  0.
          1    1    1    2  502    0  0.26636014860E+02  0.15806472558E+02  0.64260663893E+02  0.71335508594E+02  0.00000000000E+00 0. -1.
         -1    1    1    2    0  501  0.18079611899E+03 -0.83081688070E+02 -0.41723366298E+03  0.46224856198E+03  0.00000000000E+00 0.  1.
<mgrwt>
<rscale>  4 0.65151387E+03</rscale>
<asrwt>0</asrwt>
<pdfrwt beam="1">  1        1 0.22703295E-01 0.65151387E+03</pdfrwt>
<pdfrwt beam="2">  1       -1 0.11062970E+00 0.65151387E+03</pdfrwt>
<totfact> 0.16991952E+02</totfact>
</mgrwt>
</event>
<event>
 5    0  0.5719562E-003  0.5275106E+03  0.7546771E-02  0.1006838E+00
         -2   -1    0    0    0  501 -0.00000000000E+00  0.00000000000E+00  0.23129036107E+03  0.23129036107E+03  0.00000000000E+00 0. -1.
          2   -1    0    0  502    0  0.00000000000E+00 -0.00000000000E+00 -0.30077720627E+03  0.30077720627E+03  0.00000000000E+00 0.  1.
         25    1    1    2    0    0 -0.24406796653E+03 -0.25047765402E+02 -0.25521412327E+02  0.27653734888E+03  0.12500000000E+03 0.  0.
          4    1    1    2  502    0  0.13069738472E+03  0.34585730597E+02 -0.50594290164E+01  0.13529071275E+03  0.00000000000E+00 0. -1.
         -4    1    1    2    0  501  0.11337058180E+03 -0.95379651947E+01 -0.38906003854E+02  0.12023950571E+03  0.00000000000E+00 0.  1.
<mgrwt>
<rscale>  4 0.52751064E+03</rscale>
<asrwt>0</asrwt>
<pdfrwt beam="1">  1        2 0.46273416E-01 0.52751064E+03</pdfrwt>
<pdfrwt beam="2">  1       -2 0.35583133E-01 0.52751064E+03</pdfrwt>
<totfact> 0.81574365E+02</totfact>
</mgrwt>
</event>
<event>
 5    0  0.5719562E-003  0.6286830E+03  0.7546771E-02  0.9847622E-01
         -2   -1    0    0    0  501 -0.00000000000E+00  0.00000000000E+00  0.28979643759E+03  0.28979643759E+03  0.00000000000E+00 0. -1.
          2   -1    0    0  502    0  0.00000000000E+00 -0.00000000000E+00 -0.34096550839E+03  0.34096550839E+03  0.00000000000E+00 0.  1.
         25    1    1    2    0    0  0.25196892944E+03 -0.15589410301E+03 -0.56973748719E+02  0.32659197908E+03  0.12500000000E+03 0.  0.
          4    1    1    2  502    0 -0.30223109110E+02  0.17799513264E+02 -0.22094626496E+02  0.41453968648E+02  0.00000000000E+00 0.  1.
         -4    1    1    2    0  501 -0.22174582033E+03  0.13809458975E+03  0.27899304414E+02  0.26271599825E+03  0.00000000000E+00 0. -1.
<mgrwt>
<rscale>  4 0.62868304E+03</rscale>
<asrwt>0</asrwt>
<pdfrwt beam="1">  1        2 0.52456232E-01 0.62868304E+03</pdfrwt>
<pdfrwt beam="2">  1       -2 0.44584067E-01 0.62868304E+03</pdfrwt>
<totfact> 0.45792773E+02</totfact>
</mgrwt>
</event>
<event>
 5    0  0.5719562E-003  0.6303986E+03  0.7546771E-02  0.9844271E-01
          1   -1    0    0  502    0  0.00000000000E+00  0.00000000000E+00  0.88412908707E+02  0.88412908707E+02  0.00000000000E+00 0. -1.
         -1   -1    0    0    0  501 -0.00000000000E+00 -0.00000000000E+00 -0.11237115177E+04  0.11237115177E+04  0.00000000000E+00 0.  1.
         25    1    1    2    0    0  0.48131165250E+02 -0.21061304892E+03 -0.35869506789E+03  0.43699155275E+03  0.12500000000E+03 0.  0.
          1    1    1    2  502    0  0.69402095675E+02  0.24422813160E+03 -0.49330040619E+03  0.55480566138E+03  0.00000000000E+00 0.  1.
         -1    1    1    2    0  501 -0.11753326093E+03 -0.33615082675E+02 -0.18330313496E+03  0.22032721233E+03  0.00000000000E+00 0. -1.
<mgrwt>
<rscale>  4 0.63039862E+03</rscale>
<asrwt>0</asrwt>
<pdfrwt beam="1">  1        1 0.13601986E-01 0.63039862E+03</pdfrwt>
<pdfrwt beam="2">  1       -1 0.17287869E+00 0.63039862E+03</pdfrwt>
<totfact> 0.10589159E+02</totfact>
</mgrwt>
</event>
<event>
 5    0  0.5719562E-003  0.7590377E+03  0.7546771E-02  0.9621277E-01
          2   -1    0    0  502    0  0.00000000000E+00  0.00000000000E+00  0.28229595344E+04  0.28229595344E+04  0.00000000000E+00 0. -1.
         -2   -1    0    0    0  501 -0.00000000000E+00 -0.00000000000E+00 -0.51022533324E+02  0.51022533324E+02  0.00000000000E+00 0.  1.
         25    1    1    2    0    0 -0.41325104760E+02 -0.27472182928E+03  0.13265600997E+04  0.13610902049E+04  0.12500000000E+03 0.  0.
          4    1    1    2  502    0  0.54458379292E+02 -0.67698262319E+02  0.49629159321E+03  0.50383937449E+03  0.00000000000E+00 0. -1.
         -4    1    1    2    0  501 -0.13133274531E+02  0.34242009160E+03  0.94908530821E+03  0.10090524884E+04  0.00000000000E+00 0.  1.
<mgrwt>
<rscale>  4 0.75903767E+03</rscale>
<asrwt>0</asrwt>
<pdfrwt beam="1">  1        2 0.43430134E+00 0.75903767E+03</pdfrwt>
<pdfrwt beam="2">  1       -2 0.78496227E-02 0.75903767E+03</pdfrwt>
<totfact> 0.23799945E+02</totfact>
</mgrwt>
</event>
<event>
 5    0  0.5719562E-003  0.1031974E+04  0.7546771E-02  0.9274155E-01
          1   -1    0    0  502    0  0.00000000000E+00  0.00000000000E+00  0.11438682727E+04  0.11438682727E+04  0.00000000000E+00 0. -1.
         -1   -1    0    0    0  501 -0.00000000000E+00 -0.00000000000E+00 -0.23275630529E+03  0.23275630529E+03  0.00000000000E+00 0.  1.
         25    1    1    2    0    0 -0.24758262018E+02  0.31094574094E+03  0.47589781661E+03  0.58258386280E+03  0.12500000000E+03 0.  0.
          2    1    1    2  502    0  0.20010298645E+03 -0.23780531480E+02 -0.46162192432E+02  0.20673090450E+03  0.00000000000E+00 0.  1.
         -2    1    1    2    0  501 -0.17534472444E+03 -0.28716520946E+03  0.48137634329E+03  0.58730981074E+03  0.00000000000E+00 0. -1.
<mgrwt>
<rscale>  4 0.10319739E+04</rscale>
<asrwt>0</asrwt>
<pdfrwt beam="1">  1        1 0.17597973E+00 0.10319739E+04</pdfrwt>
<pdfrwt beam="2">  1       -1 0.35808663E-01 0.10319739E+04</pdfrwt>
<totfact> 0.87523233E+01</totfact>
</mgrwt>
</event>
<event>
 5    0  0.5719562E-003  0.5568206E+03  0.7546771E-02  0.9999274E-01
         -2   -1    0    0    0  501 -0.00000000000E+00  0.00000000000E+00  0.88651921974E+02  0.88651921974E+02  0.00000000000E+00 0. -1.
          2   -1    0    0  502    0  0.00000000000E+00 -0.00000000000E+00 -0.87434425846E+03  0.87434425846E+03  0.00000000000E+00 0.  1.
         25    1    1    2    0    0  0.37235983167E+02  0.21529411562E+03 -0.52088609968E+03  0.57852001133E+03  0.12500000000E+03 0.  0.
          1    1    1    2  502    0  0.17882400800E+02 -0.35927833849E+02 -0.16917195268E+03  0.17386701549E+03  0.00000000000E+00 0.  1.
         -1    1    1    2    0  501 -0.55118383968E+02 -0.17936628177E+03 -0.95634284128E+02  0.21060915362E+03  0.00000000000E+00 0. -1.
<mgrwt>
<rscale>  4 0.55682061E+03</rscale>
<asrwt>0</asrwt>
<pdfrwt beam="1">  1        2 0.13451450E+00 0.55682061E+03</pdfrwt>
<pdfrwt beam="2">  1       -2 0.13638757E-01 0.55682061E+03</pdfrwt>
<totfact> 0.12625019E+03</totfact>
</mgrwt>
</event>
<event>
 5    0  0.5719562E-003  0.6282616E+03  0.7546771E-02  0.9848447E-01
          2   -1    0    0  502    0  0.00000000000E+00  0.00000000000E+00  0.16353154094E+04  0.16353154094E+04  0.00000000000E+00 0.  1.
         -2   -1    0    0    0  501 -0.00000000000E+00 -0.00000000000E+00 -0.60341982717E+02  0.60341982717E+02  0.00000000000E+00 0. -1.
         25    1    1    2    0    0 -0.19271176901E+03  0.80549329490E+02  0.13792308332E+04  0.14005458620E+04  0.12500000000E+03 0.  0.
          3    1    1    2  502    0  0.40139121325E+02 -0.24244011044E+02  0.94796238735E+01  0.47841241634E+02  0.00000000000E+00 0.  1.
         -3    1    1    2    0  501  0.15257264769E+03 -0.56305318445E+02  0.18626296964E+03  0.24727028848E+03  0.00000000000E+00 0. -1.
<mgrwt>
<rscale>  4 0.62826165E+03</rscale>
<asrwt>0</asrwt>
<pdfrwt beam="1">  1        2 0.25158695E+00 0.62826165E+03</pdfrwt>
<pdfrwt beam="2">  1       -2 0.92833832E-02 0.62826165E+03</pdfrwt>
<totfact> 0.84283144E+02</totfact>
</mgrwt>
</event>
<event>
 5    0  0.5719562E-003  0.6029267E+03  0.7546771E-02  0.9899353E-01
          2   -1    0    0  502    0  0.00000000000E+00  0.00000000000E+00  0.50774571460E+03  0.50774571460E+03  0.00000000000E+00 0. -1.
         -2   -1    0    0    0  501 -0.00000000000E+00 -0.00000000000E+00 -0.17898753529E+03  0.17898753529E+03  0.00000000000E+00 0.  1.
         25    1    1    2    0    0  0.25008824705E+03  0.15835390641E+02  0.13148609699E+03  0.30936787909E+03  0.12500000000E+03 0.  0.
          3    1    1    2  502    0 -0.16292475041E+03 -0.10276268811E+03  0.84232652084E+02  0.21023744681E+03  0.00000000000E+00 0. -1.
         -3    1    1    2    0  501 -0.87163496640E+02  0.86927297472E+02  0.11303943024E+03  0.16712792400E+03  0.00000000000E+00 0.  1.
<mgrwt>
<rscale>  4 0.60292671E+03</rscale>
<asrwt>0</asrwt>
<pdfrwt beam="1">  1        2 0.78114725E-01 0.60292671E+03</pdfrwt>
<pdfrwt beam="2">  1       -2 0.27536544E-01 0.60292671E+03</pdfrwt>
<totfact> 0.73055675E+02</totfact>
</mgrwt>
</event>
<event>
 5    0  0.5719562E-003  0.4804124E+03  0.7546771E-02  0.1019022E+00
         -2   -1    0    0    0  501 -0.00000000000E+00  0.00000000000E+00  0.48540721483E+02  0.48540721483E+02  0.00000000000E+00 0. -1.
          2   -1    0    0  502    0  0.00000000000E+00 -0.00000000000E+00 -0.11886725272E+04  0.11886725272E+04  0.00000000000E+00 0.  1.
         25    1    1    2    0    0 -0.19724329070E+03  0.50874068780E+02 -0.64186038668E+03  0.68491082821E+03  0.12500000000E+03 0.  0.
          1    1    1    2  502    0  0.14993599194E+03 -0.83921157358E+02 -0.29911635589E+03  0.34495529666E+03  0.00000000000E+00 0. -1.
         -1    1    1    2    0  501  0.47307298767E+02  0.33047088579E+02 -0.19915506311E+03  0.20734712379E+03  0.00000000000E+00 0.  1.
<mgrwt>
<rscale>  4 0.48041241E+03</rscale>
<asrwt>0</asrwt>
<pdfrwt beam="1">  1        2 0.18287269E+00 0.48041241E+03</pdfrwt>
<pdfrwt beam="2">  1       -2 0.74678034E-02 0.48041241E+03</pdfrwt>
<totfact> 0.21340897E+03</totfact>
</mgrwt>
</event>
<event>
 5    0  0.5719562E-003  0.5653432E+03  0.7546771E-02  0.9980037E-01
         -1   -1    0    0    0  501 -0.00000000000E+00  0.00000000000E+00  0.33343540257E+03  0.33343540257E+03  0.00000000000E+00 0.  1.
          1   -1    0    0  502    0  0.00000000000E+00 -0.00000000000E+00 -0.23963633613E+03  0.23963633613E+03  0.00000000000E+00 0. -1.
         25    1    1    2    0    0 -0.78619996550E+02 -0.19095764951E+03  0.25165476917E+02  0.24270193446E+03  0.12500000000E+03 0.  0.
          2    1    1    2  502    0  0.51162584315E+02 -0.55166137683E+02  0.21757704508E+02  0.78321839139E+02  0.00000000000E+00 0. -1.
         -2    1    1    2    0  501  0.27457412235E+02  0.24612378719E+03  0.46875885018E+02  0.25204796509E+03  0.00000000000E+00 0.  1.
<mgrwt>
<rscale>  4 0.56534322E+03</rscale>
<asrwt>0</asrwt>
<pdfrwt beam="1">  1        1 0.36867129E-01 0.56534322E+03</pdfrwt>
<pdfrwt beam="2">  1       -1 0.51297754E-01 0.56534322E+03</pdfrwt>
<totfact> 0.45458489E+02</totfact>
</mgrwt>
</event>
<event>
 5    0  0.5719562E-003  0.5350052E+03  0.7546771E-02  0.1005025E+00
         -2   -1    0    0    0  501 -0.00000000000E+00  0.00000000000E+00  0.66640687071E+02  0.66640687071E+02  0.00000000000E+00 0. -1.
          2   -1    0    0  502    0  0.00000000000E+00 -0.00000000000E+00 -0.10737829850E+04  0.10737829850E+04  0.00000000000E+00 0.  1.
         25    1    1    2    0    0  0.88524826574E+02  0.19808139662E+03 -0.31450497621E+03  0.40200903555E+03  0.12500000000E+03 0.  0.
          4    1    1    2  502    0 -0.27870516230E+02 -0.19103764432E+03 -0.56137284085E+03  0.59364266496E+03  0.00000000000E+00 0.  1.
         -4    1    1    2    0  501 -0.60654310344E+02 -0.70437522972E+01 -0.13126448087E+03  0.14477197155E+03  0.00000000000E+00 0. -1.
<mgrwt>
<rscale>  4 0.53500518E+03</rscale>
<asrwt>0</asrwt>
<pdfrwt beam="1">  1        2 0.16519738E+00 0.53500518E+03</pdfrwt>
<pdfrwt beam="2">  1       -2 0.10252414E-01 0.53500518E+03</pdfrwt>
<totfact> 0.15039618E+03</totfact>
</mgrwt>
</event>
<event>
 5    0  0.5719562E-003  0.6726418E+03  0.7546771E-02  0.9765197E-01
         -1   -1    0    0    0  501 -0.00000000000E+00  0.00000000000E+00  0.27372682435E+03  0.27372682435E+03  0.00000000000E+00 0.  1.
          1   -1    0    0  502    0  0.00000000000E+00 -0.00000000000E+00 -0.41322859785E+03  0.41322859785E+03  0.00000000000E+00 0. -1.
         25    1    1    2    0    0 -0.48895904858E+02 -0.30974973759E+03 -0.77500873467E+02  0.34636266374E+03  0.12500000000E+03 0.  0.
          1    1    1    2  502    0  0.63574688012E+02  0.17180744185E+03 -0.81507507278E+02  0.20050688710E+03  0.00000000000E+00 0.  1.
         -1    1    1    2    0  501 -0.14678783154E+02  0.13794229574E+03  0.19506607250E+02  0.14008587136E+03  0.00000000000E+00 0. -1.
<mgrwt>
<rscale>  4 0.67264181E+03</rscale>
<asrwt>0</asrwt>
<pdfrwt beam="1">  1        1 0.63573630E-01 0.67264181E+03</pdfrwt>
<pdfrwt beam="2">  1       -1 0.42111820E-01 0.67264181E+03</pdfrwt>
<totfact> 0.32239509E+02</totfact>
</mgrwt>
</event>
<event>
 5    0  0.5719562E-003  0.5696310E+03  0.7546771E-02  0.9970495E-01
          2   -1    0    0  502    0  0.00000000000E+00  0.00000000000E+00  0.55440716578E+02  0.55440716578E+02  0.00000000000E+00 0. -1.
         -2   -1    0    0    0  501 -0.00000000000E+00 -0.00000000000E+00 -0.14631821675E+04  0.14631821675E+04  0.00000000000E+00 0.  1.
         25    1    1    2    0    0  0.52967867423E+02  0.19750831692E+03 -0.88373898006E+03  0.91566080790E+03  0.12500000000E+03 0.  0.
          1    1    1    2  502    0 -0.12071711283E+03 -0.49048460535E+02 -0.28719755342E+03  0.31537407551E+03  0.00000000000E+00 0.  1.
         -1    1    1    2    0  501  0.67749245409E+02 -0.14845985638E+03 -0.23680491746E+03  0.28758800069E+03  0.00000000000E+00 0. -1.
<mgrwt>
<rscale>  4 0.56963100E+03</rscale>
<asrwt>0</asrwt>
<pdfrwt beam="1">  1        2 0.85293410E-02 0.56963100E+03</pdfrwt>
<pdfrwt beam="2">  1       -2 0.22510495E+00 0.56963100E+03</pdfrwt>
<totfact> 0.77338529E+01</totfact>
</mgrwt>
</event>
<event>
 5    0  0.5719562E-003  0.4638482E+03  0.7546771E-02  0.1023671E+00
         -2   -1    0    0    0  501 -0.00000000000E+00  0.00000000000E+00  0.44164962814E+02  0.44164962814E+02  0.00000000000E+00 0. -1.
          2   -1    0    0  502    0  0.00000000000E+00 -0.00000000000E+00 -0.12179062183E+04  0.12179062183E+04  0.00000000000E+00 0.  1.
         25    1    1    2    0    0  0.20134849186E+03  0.60801173003E+02 -0.70552149011E+03  0.74674197071E+03  0.12500000000E+03 0.  0.
          4    1    1    2  502    0 -0.19966789791E+02 -0.79387361766E+01 -0.90237472894E+02  0.92760431979E+02  0.00000000000E+00 0.  1.
         -4    1    1    2    0  501 -0.18138170207E+03 -0.52862436826E+02 -0.37798229252E+03  0.42256877847E+03  0.00000000000E+00 0. -1.
<mgrwt>
<rscale>  4 0.46384818E+03</rscale>
<asrwt>0</asrwt>
<pdfrwt beam="1">  1        2 0.18737016E+00 0.46384818E+03</pdfrwt>
<pdfrwt beam="2">  1       -2 0.67946106E-02 0.46384818E+03</pdfrwt>
<totfact> 0.23816899E+03</totfact>
</mgrwt>
</event>
<event>
 5    0  0.5719562E-003  0.5145127E+03  0.7546771E-02  0.1010059E+00
         -2   -1    0    0    0  501 -0.00000000000E+00  0.00000000000E+00  0.56528740397E+02  0.56528740397E+02  0.00000000000E+00 0. -1.
          2   -1    0    0  502    0  0.00000000000E+00 -0.00000000000E+00 -0.11707466234E+04  0.11707466234E+04  0.00000000000E+00 0.  1.
         25    1    1    2    0    0 -0.24675948249E+02  0.23503011576E+03 -0.55873147402E+03  0.61939802857E+03  0.12500000000E+03 0.  0.
          1    1    1    2  502    0  0.58376474784E+00 -0.20702883389E+03 -0.43311071886E+03  0.48004809513E+03  0.00000000000E+00 0. -1.
         -1    1    1    2    0  501  0.24092183501E+02 -0.28001281869E+02 -0.12237569016E+03  0.12782924014E+03  0.00000000000E+00 0.  1.
<mgrwt>
<rscale>  4 0.51451271E+03</rscale>
<asrwt>0</asrwt>
<pdfrwt beam="1">  1        2 0.18011486E+00 0.51451271E+03</pdfrwt>
<pdfrwt beam="2">  1       -2 0.86967295E-02 0.51451271E+03</pdfrwt>
<totfact> 0.17153605E+03</totfact>
</mgrwt>
</event>
<event>
 5    0  0.5719562E-003  0.6476494E+03  0.7546771E-02  0.9811200E-01
          2   -1    0    0  502    0  0.00000000000E+00  0.00000000000E+00  0.53656085827E+03  0.53656085827E+03  0.00000000000E+00 0.  1.
         -2   -1    0    0    0  501 -0.00000000000E+00 -0.00000000000E+00 -0.19543439382E+03  0.19543439382E+03  0.00000000000E+00 0. -1.
         25    1    1    2    0    0 -0.80716884290E+02 -0.23047039035E+03  0.19374364034E+03  0.33584730818E+03  0.12500000000E+03 0.  0.
          1    1    1    2  502    0  0.83178957771E+02  0.83247337970E+02  0.20633993478E+03  0.23753952719E+03  0.00000000000E+00 0.  1.
         -1    1    1    2    0  501 -0.24620734814E+01  0.14722305238E+03 -0.58957110663E+02  0.15860841672E+03  0.00000000000E+00 0. -1.
<mgrwt>
<rscale>  4 0.64764943E+03</rscale>
<asrwt>0</asrwt>
<pdfrwt beam="1">  1        2 0.82547824E-01 0.64764943E+03</pdfrwt>
<pdfrwt beam="2">  1       -2 0.30066830E-01 0.64764943E+03</pdfrwt>
<totfact> 0.58236084E+02</totfact>
</mgrwt>
</event>
<event>
 5    0  0.5719562E-003  0.5241745E+03  0.7546771E-02  0.1007655E+00
         -1   -1    0    0    0  501 -0.00000000000E+00  0.00000000000E+00  0.18804601199E+03  0.18804601199E+03  0.00000000000E+00 0.  1.
          1   -1    0    0  502    0  0.00000000000E+00 -0.00000000000E+00 -0.36528148382E+03  0.36528148382E+03  0.00000000000E+00 0. -1.
         25    1    1    2    0    0  0.14536739202E+01 -0.20266764720E+03 -0.26272364930E+02  0.23956528452E+03  0.12500000000E+03 0.  0.
          3    1    1    2  502    0  0.51637268122E+02  0.10773281704E+03  0.95679083946E+01  0.11985120857E+03  0.00000000000E+00 0.  1.
         -3    1    1    2    0  501 -0.53090942043E+02  0.94934830159E+02 -0.16053101530E+03  0.19391100272E+03  0.00000000000E+00 0. -1.
<mgrwt>
<rscale>  4 0.52417450E+03</rscale>
<asrwt>0</asrwt>
<pdfrwt beam="1">  1        1 0.56197151E-01 0.52417450E+03</pdfrwt>
<pdfrwt beam="2">  1       -1 0.28930156E-01 0.52417450E+03</pdfrwt>
<totfact> 0.74102569E+02</totfact>
</mgrwt>
</event>
<event>
 5    0  0.5719562E-003  0.4967798E+03  0.7546771E-02  0.1014623E+00
         -2   -1    0    0    0  501 -0.00000000000E+00  0.00000000000E+00  0.15547468108E+03  0.15547468108E+03  0.00000000000E+00 0. -1.
          2   -1    0    0  502    0  0.00000000000E+00 -0.00000000000E+00 -0.39683340025E+03  0.39683340025E+03  0.00000000000E+00 0.  1.
         25    1    1    2    0    0 -0.16337851354E+03  0.11701924908E+03 -0.18968115743E+03  0.30329850779E+03  0.12500000000E+03 0.  0.
          1    1    1    2  502    0  0.15007374492E+03 -0.13498188872E+03 -0.10456556943E+02  0.20211773495E+03  0.00000000000E+00 0. -1.
         -1    1    1    2    0  501  0.13304768616E+02  0.17962639641E+02 -0.41221004797E+02  0.46891838599E+02  0.00000000000E+00 0.  1.
<mgrwt>
<rscale>  4 0.49677982E+03</rscale>
<asrwt>0</asrwt>
<pdfrwt beam="1">  1        2 0.61051291E-01 0.49677982E+03</pdfrwt>
<pdfrwt beam="2">  1       -2 0.23919182E-01 0.49677982E+03</pdfrwt>
<totfact> 0.12452238E+03</totfact>
</mgrwt>
</event>
<event>
 5    0  0.5719562E-003  0.4683174E+03  0.7546771E-02  0.1022396E+00
         -4   -1    0    0    0  501 -0.00000000000E+00  0.00000000000E+00  0.41743085014E+03  0.41743085014E+03  0.00000000000E+00 0.  1.
          4   -1    0    0  502    0  0.00000000000E+00 -0.00000000000E+00 -0.13135178280E+03  0.13135178280E+03  0.00000000000E+00 0. -1.
         25    1    1    2    0    0 -0.11022831039E+03 -0.17804991946E+03  0.11521631357E+03  0.26972551445E+03  0.12500000000E+03 0.  0.
          4    1    1    2  502    0  0.77252592117E+02  0.11830867640E+03  0.15352713911E+03  0.20865159559E+03  0.00000000000E+00 0.  1.
         -4    1    1    2    0  501  0.32975718269E+02  0.59741243063E+02  0.17335614665E+02  0.70405522894E+02  0.00000000000E+00 0. -1.
<mgrwt>
<rscale>  4 0.46831736E+03</rscale>
<asrwt>0</asrwt>
<pdfrwt beam="1">  1        4 0.20207967E-01 0.46831736E+03</pdfrwt>
<pdfrwt beam="2">  1       -4 0.64220130E-01 0.46831736E+03</pdfrwt>
<totfact> 0.99311855E+01</totfact>
</mgrwt>
</event>
<event>
 5    0  0.5719562E-003  0.7368032E+03  0.7546771E-02  0.9656285E-01
          2   -1    0    0  502    0  0.00000000000E+00  0.00000000000E+00  0.81843659565E+03  0.81843659565E+03  0.00000000000E+00 0.  1.
         -2   -1    0    0    0  501 -0.00000000000E+00 -0.00000000000E+00 -0.16582802069E+03  0.16582802069E+03  0.00000000000E+00 0. -1.
         25    1    1    2    0    0  0.28667649282E+03  0.14494690512E+02  0.60970452748E+03  0.68538902706E+03  0.12500000000E+03 0.  0.
          4    1    1    2  502    0 -0.27637945368E+02  0.42615686360E-02  0.27478572972E+02  0.38973427036E+02  0.00000000000E+00 0.  1.
         -4    1    1    2    0  501 -0.25903854745E+03 -0.14498952081E+02  0.15425474508E+02  0.25990216225E+03  0.00000000000E+00 0. -1.
<mgrwt>
<rscale>  4 0.73680315E+03</rscale>
<asrwt>0</asrwt>
<pdfrwt beam="1">  1        2 0.12591332E+00 0.73680315E+03</pdfrwt>
<pdfrwt beam="2">  1       -2 0.25512004E-01 0.73680315E+03</pdfrwt>
<totfact> 0.46418981E+02</totfact>
</mgrwt>
</event>
<event>
 5    0  0.5719562E-003  0.8075635E+03  0.7546771E-02  0.9549133E-01
          2   -1    0    0  502    0  0.00000000000E+00  0.00000000000E+00  0.36478938018E+03  0.36478938018E+03  0.00000000000E+00 0.  1.
         -2   -1    0    0    0  501 -0.00000000000E+00 -0.00000000000E+00 -0.44694203639E+03  0.44694203639E+03  0.00000000000E+00 0. -1.
         25    1    1    2    0    0 -0.20050109709E+03  0.96712872935E+02 -0.67738247864E+01  0.25539176656E+03  0.12500000000E+03 0.  0.
          1    1    1    2  502    0 -0.16444447022E+03 -0.42218866904E+02 -0.79167888133E+02  0.18732851096E+03  0.00000000000E+00 0. -1.
         -1    1    1    2    0  501  0.36494556731E+03 -0.54494006031E+02  0.37890567164E+01  0.36901113905E+03  0.00000000000E+00 0.  1.
<mgrwt>
<rscale>  4 0.80756352E+03</rscale>
<asrwt>0</asrwt>
<pdfrwt beam="1">  1        2 0.56121443E-01 0.80756352E+03</pdfrwt>
<pdfrwt beam="2">  1       -2 0.68760313E-01 0.80756352E+03</pdfrwt>
<totfact> 0.17178717E+02</totfact>
</mgrwt>
</event>
<event>
 5    0  0.5719562E-003  0.5791373E+03  0.7546771E-02  0.9949661E-01
         -2   -1    0    0    0  501 -0.00000000000E+00  0.00000000000E+00  0.66058365745E+02  0.66058365745E+02  0.00000000000E+00 0. -1.
          2   -1    0    0  502    0  0.00000000000E+00 -0.00000000000E+00 -0.12693319986E+04  0.12693319986E+04  0.00000000000E+00 0.  1.
         25    1    1    2    0    0 -0.25511516371E+03 -0.51462714119E+02 -0.43171951818E+03  0.51936393798E+03  0.12500000000E+03 0.  0.
          1    1    1    2  502    0  0.79988153617E+02  0.69614042425E+01 -0.17164300807E+03  0.18949376794E+03  0.00000000000E+00 0.  1.
         -1    1    1    2    0  501  0.17512701009E+03  0.44501309876E+02 -0.59991110658E+03  0.62653265840E+03  0.00000000000E+00 0. -1.
<mgrwt>
<rscale>  4 0.57913728E+03</rscale>
<asrwt>0</asrwt>
<pdfrwt beam="1">  1        2 0.19528184E+00 0.57913728E+03</pdfrwt>
<pdfrwt beam="2">  1       -2 0.10162826E-01 0.57913728E+03</pdfrwt>
<totfact> 0.11674446E+03</totfact>
</mgrwt>
</event>
<event>
 5    0  0.5719562E-003  0.5183592E+03  0.7546771E-02  0.1009095E+00
         -2   -1    0    0    0  501 -0.00000000000E+00  0.00000000000E+00  0.91409294979E+02  0.91409294979E+02  0.00000000000E+00 0. -1.
          2   -1    0    0  502    0  0.00000000000E+00 -0.00000000000E+00 -0.73487129777E+03  0.73487129777E+03  0.00000000000E+00 0.  1.
         25    1    1    2    0    0 -0.20825940078E+03 -0.30928063491E+02 -0.23450758914E+03  0.33903883625E+03  0.12500000000E+03 0.  0.
          1    1    1    2  502    0  0.12674513684E+03  0.26323459842E+02 -0.37863078305E+03  0.40014812773E+03  0.00000000000E+00 0.  1.
         -1    1    1    2    0  501  0.81514263935E+02  0.46046036490E+01 -0.30323630604E+02  0.87093628772E+02  0.00000000000E+00 0. -1.
<mgrwt>
<rscale>  4 0.51835921E+03</rscale>
<asrwt>0</asrwt>
<pdfrwt beam="1">  1        2 0.11305712E+00 0.51835921E+03</pdfrwt>
<pdfrwt beam="2">  1       -2 0.14062969E-01 0.51835921E+03</pdfrwt>
<totfact> 0.15075347E+03</totfact>
</mgrwt>
</event>
<event>
 5    0  0.5719562E-003  0.8726892E+03  0.7546771E-02  0.9460380E-01
          2   -1    0    0  502    0  0.00000000000E+00  0.00000000000E+00  0.10936256563E+04  0.10936256563E+04  0.00000000000E+00 0. -1.
         -2   -1    0    0    0  501 -0.00000000000E+00 -0.00000000000E+00 -0.17409668934E+03  0.17409668934E+03  0.00000000000E+00 0.  1.
         25    1    1    2    0    0 -0.16864325819E+03 -0.34460894146E+03  0.49347775520E+03  0.63744895164E+03  0.12500000000E+03 0.  0.
          4    1    1    2  502    0  0.37054053540E+01  0.61337865364E+02 -0.30207948144E+02  0.68473234824E+02  0.00000000000E+00 0.  1.
         -4    1    1    2    0  501  0.16493785283E+03  0.28327107609E+03  0.45625915988E+03  0.56180015916E+03  0.00000000000E+00 0. -1.
<mgrwt>
<rscale>  4 0.87268919E+03</rscale>
<asrwt>0</asrwt>
<pdfrwt beam="1">  1        2 0.16825010E+00 0.87268919E+03</pdfrwt>
<pdfrwt beam="2">  1       -2 0.26784107E-01 0.87268919E+03</pdfrwt>
<totfact> 0.27864570E+02</totfact>
</mgrwt>
</event>
<event>
 5    0  0.5719562E-003  0.8056488E+03  0.7546771E-02  0.9551876E-01
          2   -1    0    0  502    0  0.00000000000E+00  0.00000000000E+00  0.80977890793E+03  0.80977890793E+03  0.00000000000E+00 0.  1.
         -2   -1    0    0    0  501 -0.00000000000E+00 -0.00000000000E+00 -0.20038495208E+03  0.20038495208E+03  0.00000000000E+00 0. -1.
         25    1    1    2    0    0 -0.32855096082E+03  0.16541779723E+03  0.35467059453E+03  0.52604658740E+03  0.12500000000E+03 0.  0.
          1    1    1    2  502    0  0.21322082196E+03 -0.14822169914E+03  0.75734677773E+02  0.27049682517E+03  0.00000000000E+00 0. -1.
         -1    1    1    2    0  501  0.11533013886E+03 -0.17196098085E+02  0.17898868356E+03  0.21362044743E+03  0.00000000000E+00 0.  1.
<mgrwt>
<rscale>  4 0.80564883E+03</rscale>
<asrwt>0</asrwt>
<pdfrwt beam="1">  1        2 0.12458137E+00 0.80564883E+03</pdfrwt>
<pdfrwt beam="2">  1       -2 0.30828455E-01 0.80564883E+03</pdfrwt>
<totfact> 0.33166855E+02</totfact>
</mgrwt>
</event>
<event>
 5    0  0.5719562E-003  0.4984166E+03  0.7546771E-02  0.1014193E+00
          2   -1    0    0  502    0  0.00000000000E+00  0.00000000000E+00  0.17379383310E+04  0.17379383310E+04  0.00000000000E+00 0. -1.
         -2   -1    0    0    0  501 -0.00000000000E+00 -0.00000000000E+00 -0.35734738502E+02  0.35734738502E+02  0.00000000000E+00 0.  1.
         25    1    1    2    0    0  0.20107814156E+03 -0.10054844141E+03  0.71611658870E+03  0.76091417170E+03  0.12500000000E+03 0.  0.
          1    1    1    2  502    0 -0.14534447364E+03  0.52029892884E+02  0.59157366365E+03  0.61138492400E+03  0.00000000000E+00 0.  1.
         -1    1    1    2    0  501 -0.55733667912E+02  0.48518548526E+02  0.39451334010E+03  0.40137397376E+03  0.00000000000E+00 0. -1.
<mgrwt>
<rscale>  4 0.49841658E+03</rscale>
<asrwt>0</asrwt>
<pdfrwt beam="1">  1        2 0.26737506E+00 0.49841658E+03</pdfrwt>
<pdfrwt beam="2">  1       -2 0.54976534E-02 0.49841658E+03</pdfrwt>
<totfact> 0.17086853E+03</totfact>
</mgrwt>
</event>
<event>
 5    0  0.5719562E-003  0.4831305E+03  0.7546771E-02  0.1018278E+00
          2   -1    0    0  502    0  0.00000000000E+00  0.00000000000E+00  0.34958785964E+03  0.34958785964E+03  0.00000000000E+00 0. -1.
         -2   -1    0    0    0  501 -0.00000000000E+00 -0.00000000000E+00 -0.16692164080E+03  0.16692164080E+03  0.00000000000E+00 0.  1.
         25    1    1    2    0    0 -0.15892174029E+03 -0.12338821632E+03  0.16600717415E+03  0.28924756409E+03  0.12500000000E+03 0.  0.
          4    1    1    2  502    0  0.91172880677E+02  0.60420180449E+02  0.60403236443E+02  0.12494656197E+03  0.00000000000E+00 0. -1.
         -4    1    1    2    0  501  0.67748859615E+02  0.62968035868E+02 -0.43744191759E+02  0.10231537437E+03  0.00000000000E+00 0.  1.
<mgrwt>
<rscale>  4 0.48313054E+03</rscale>
<asrwt>0</asrwt>
<pdfrwt beam="1">  1        2 0.53782748E-01 0.48313054E+03</pdfrwt>
<pdfrwt beam="2">  1       -2 0.25680252E-01 0.48313054E+03</pdfrwt>
<totfact> 0.12617847E+03</totfact>
</mgrwt>
</event>
<event>
 5    0  0.5719562E-003  0.6437011E+03  0.7546771E-02  0.9818671E-01
         -1   -1    0    0    0  501 -0.00000000000E+00  0.00000000000E+00  0.97470748347E+02  0.97470748347E+02  0.00000000000E+00 0.  1.
          1   -1    0    0  502    0  0.00000000000E+00 -0.00000000000E+00 -0.10627574972E+04  0.10627574972E+04  0.00000000000E+00 0. -1.
         25    1    1    2    0    0 -0.12729752052E+03  0.19918237543E+03 -0.51201250892E+03  0.57763317659E+03  0.12500000000E+03 0.  0.
          2    1    1    2  502    0  0.17959754357E+01 -0.23258189971E+03 -0.32845182124E+03  0.40246510963E+03  0.00000000000E+00 0. -1.
         -2    1    1    2    0  501  0.12550154508E+03  0.33399524279E+02 -0.12482241874E+03  0.18012995936E+03  0.00000000000E+00 0.  1.
<mgrwt>
<rscale>  4 0.64370108E+03</rscale>
<asrwt>0</asrwt>
<pdfrwt beam="1">  1        1 0.16350116E+00 0.64370108E+03</pdfrwt>
<pdfrwt beam="2">  1       -1 0.14995499E-01 0.64370108E+03</pdfrwt>
<totfact> 0.45199566E+02</totfact>
</mgrwt>
</event>
<event>
 5    0  0.5719562E-003  0.6453958E+03  0.7546771E-02  0.9815457E-01
         -1   -1    0    0    0  501 -0.00000000000E+00  0.00000000000E+00  0.75726733736E+02  0.75726733736E+02  0.00000000000E+00 0. -1.
          1   -1    0    0  502    0  0.00000000000E+00 -0.00000000000E+00 -0.13751279019E+04  0.13751279019E+04  0.00000000000E+00 0.  1.
         25    1    1    2    0    0  0.99893474647E+00 -0.22034270575E+03 -0.64742901215E+03  0.69522746754E+03  0.12500000000E+03 0.  0.
          2    1    1    2  502    0  0.12010269682E+03  0.17637278512E+03 -0.55429656709E+03  0.59395008326E+03  0.00000000000E+00 0.  1.
         -2    1    1    2    0  501 -0.12110163156E+03  0.43969920634E+02 -0.97675588899E+02  0.16167708482E+03  0.00000000000E+00 0. -1.
<mgrwt>
<rscale>  4 0.64539583E+03</rscale>
<asrwt>0</asrwt>
<pdfrwt beam="1">  1        1 0.21155814E+00 0.64539583E+03</pdfrwt>
<pdfrwt beam="2">  1       -1 0.11650267E-01 0.64539583E+03</pdfrwt>
<totfact> 0.40423613E+02</totfact>
</mgrwt>
</event>
<event>
 5    0  0.5719562E-003  0.6645007E+03  0.7546771E-02  0.9779944E-01
         -2   -1    0    0    0  501 -0.00000000000E+00  0.00000000000E+00  0.70648259702E+02  0.70648259702E+02  0.00000000000E+00 0.  1.
          2   -1    0    0  502    0  0.00000000000E+00 -0.00000000000E+00 -0.15625338431E+04  0.15625338431E+04  0.00000000000E+00 0. -1.
         25    1    1    2    0    0  0.23311880613E+03  0.37589500650E+02 -0.54792444974E+03  0.60959293874E+03  0.12500000000E+03 0.  0.
          1    1    1    2  502    0 -0.25860470216E+03 -0.11003116597E+03 -0.87955013379E+03  0.92335891576E+03  0.00000000000E+00 0. -1.
         -1    1    1    2    0  501  0.25485896028E+02  0.72441665315E+02 -0.64410999845E+02  0.10023024828E+03  0.00000000000E+00 0.  1.
<mgrwt>
<rscale>  4 0.66450071E+03</rscale>
<asrwt>0</asrwt>
<pdfrwt beam="1">  1        2 0.24038980E+00 0.66450071E+03</pdfrwt>
<pdfrwt beam="2">  1       -2 0.10868964E-01 0.66450071E+03</pdfrwt>
<totfact> 0.71374603E+02</totfact>
</mgrwt>
</event>
<event>
 5    0  0.5719562E-003  0.5627750E+03  0.7546771E-02  0.9985795E-01
          2   -1    0    0  502    0  0.00000000000E+00  0.00000000000E+00  0.85621874069E+03  0.85621874069E+03  0.00000000000E+00 0. -1.
         -2   -1    0    0    0  501 -0.00000000000E+00 -0.00000000000E+00 -0.92475120822E+02  0.92475120822E+02  0.00000000000E+00 0.  1.
         25    1    1    2    0    0 -0.32641560664E+01  0.20406687606E+03  0.11770687612E+03  0.26670930487E+03  0.12500000000E+03 0.  0.
          4    1    1    2  502    0  0.40520844220E+01 -0.12094898234E+03  0.25564363485E+03  0.28284049172E+03  0.00000000000E+00 0.  1.
         -4    1    1    2    0  501 -0.78792835568E+00 -0.83117893712E+02  0.39039310890E+03  0.39914406492E+03  0.00000000000E+00 0. -1.
<mgrwt>
<rscale>  4 0.56277502E+03</rscale>
<asrwt>0</asrwt>
<pdfrwt beam="1">  1        2 0.13172595E+00 0.56277502E+03</pdfrwt>
<pdfrwt beam="2">  1       -2 0.14226942E-01 0.56277502E+03</pdfrwt>
<totfact> 0.12103524E+03</totfact>
</mgrwt>
</event>
<event>
 5    0  0.5719562E-003  0.5606229E+03  0.7546771E-02  0.9990646E-01
         -1   -1    0    0    0  501 -0.00000000000E+00  0.00000000000E+00  0.29191762873E+02  0.29191762873E+02  0.00000000000E+00 0.  1.
          1   -1    0    0  502    0  0.00000000000E+00 -0.00000000000E+00 -0.26916675386E+04  0.26916675386E+04  0.00000000000E+00 0. -1.
         25    1    1    2    0    0 -0.29535643279E+02  0.22991899385E+03 -0.83525811542E+03  0.87579462052E+03  0.12500000000E+03 0.  0.
          4    1    1    2  502    0  0.56666012247E+02 -0.19197687121E+03 -0.16378993622E+04  0.16500849908E+04  0.00000000000E+00 0. -1.
         -4    1    1    2    0  501 -0.27130368969E+02 -0.37942122641E+02 -0.18931829811E+03  0.19497969019E+03  0.00000000000E+00 0.  1.
<mgrwt>
<rscale>  4 0.56062294E+03</rscale>
<asrwt>0</asrwt>
<pdfrwt beam="1">  1        1 0.41410273E+00 0.56062294E+03</pdfrwt>
<pdfrwt beam="2">  1       -1 0.44910400E-02 0.56062294E+03</pdfrwt>
<totfact> 0.23275638E+02</totfact>
</mgrwt>
</event>
<event>
 5    0  0.5719562E-003  0.5945096E+03  0.7546771E-02  0.9916863E-01
         -1   -1    0    0    0  501 -0.00000000000E+00  0.00000000000E+00  0.60058685098E+02  0.60058685098E+02  0.00000000000E+00 0. -1.
          1   -1    0    0  502    0  0.00000000000E+00 -0.00000000000E+00 -0.14712344324E+04  0.14712344324E+04  0.00000000000E+00 0.  1.
         25    1    1    2    0    0 -0.96075033079E+02  0.19651385607E+03 -0.39689589504E+03  0.47010579566E+03  0.12500000000E+03 0.  0.
          3    1    1    2  502    0  0.90273349419E+02 -0.49942554870E+02 -0.13579325000E+03  0.17053839201E+03  0.00000000000E+00 0. -1.
         -3    1    1    2    0  501  0.58016836594E+01 -0.14657130120E+03 -0.87848660229E+03  0.89064892987E+03  0.00000000000E+00 0.  1.
<mgrwt>
<rscale>  4 0.59450956E+03</rscale>
<asrwt>0</asrwt>
<pdfrwt beam="1">  1        1 0.22634374E+00 0.59450956E+03</pdfrwt>
<pdfrwt beam="2">  1       -1 0.92397983E-02 0.59450956E+03</pdfrwt>
<totfact> 0.50252039E+02</totfact>
</mgrwt>
</event>
<event>
 5    0  0.5719562E-003  0.5542897E+03  0.7546771E-02  0.1000506E+00
         -1   -1    0    0    0  501 -0.00000000000E+00  0.00000000000E+00  0.49204918077E+02  0.49204918077E+02  0.00000000000E+00 0. -1.
          1   -1    0    0  502    0  0.00000000000E+00 -0.00000000000E+00 -0.15610079081E+04  0.15610079081E+04  0.00000000000E+00 0.  1.
         25    1    1    2    0    0  0.21494495028E+02  0.23443436589E+03 -0.48616924561E+03  0.55444298229E+03  0.12500000000E+03 0.  0.
          1    1    1    2  502    0 -0.85778784187E+01 -0.56782890717E+02 -0.43756807214E+03  0.44132039884E+03  0.00000000000E+00 0.  1.
         -1    1    1    2    0  501 -0.12916616609E+02 -0.17765147518E+03 -0.58806567224E+03  0.61444944502E+03  0.00000000000E+00 0. -1.
<mgrwt>
<rscale>  4 0.55428969E+03</rscale>
<asrwt>0</asrwt>
<pdfrwt beam="1">  1        1 0.24015505E+00 0.55428969E+03</pdfrwt>
<pdfrwt beam="2">  1       -1 0.75699879E-02 0.55428969E+03</pdfrwt>
<totfact> 0.59777665E+02</totfact>
</mgrwt>
</event>
<event>
 5    0  0.5719562E-003  0.5989770E+03  0.7546771E-02  0.9907531E-01
         -2   -1    0    0    0  501 -0.00000000000E+00  0.00000000000E+00  0.10901480557E+03  0.10901480557E+03  0.00000000000E+00 0.  1.
          2   -1    0    0  502    0  0.00000000000E+00 -0.00000000000E+00 -0.82276322212E+03  0.82276322212E+03  0.00000000000E+00 0. -1.
         25    1    1    2    0    0 -0.18313076342E+03  0.10182753994E+03 -0.98260189523E+02  0.26303191678E+03  0.12500000000E+03 0.  0.
          1    1    1    2  502    0  0.16106309786E+03 -0.10710876412E+03 -0.61640094469E+03  0.64603694435E+03  0.00000000000E+00 0. -1.
         -1    1    1    2    0  501  0.22067665563E+02  0.52812241887E+01  0.91271765751E+00  0.22709166560E+02  0.00000000000E+00 0.  1.
<mgrwt>
<rscale>  4 0.59897704E+03</rscale>
<asrwt>0</asrwt>
<pdfrwt beam="1">  1        2 0.12657896E+00 0.59897704E+03</pdfrwt>
<pdfrwt beam="2">  1       -2 0.16771508E-01 0.59897704E+03</pdfrwt>
<totfact> 0.96630315E+02</totfact>
</mgrwt>
</event>
<event>
 5    0  0.5719562E-003  0.6437174E+03  0.7546771E-02  0.9818640E-01
          2   -1    0    0  502    0  0.00000000000E+00  0.00000000000E+00  0.18092990273E+04  0.18092990273E+04  0.00000000000E+00 0. -1.
         -2   -1    0    0    0  501 -0.00000000000E+00 -0.00000000000E+00 -0.57255896620E+02  0.57255896620E+02  0.00000000000E+00 0.  1.
         25    1    1    2    0    0 -0.64199313005E+02  0.27141302673E+03  0.12593388174E+04  0.12958957673E+04  0.12500000000E+03 0.  0.
          1    1    1    2  502    0  0.38860300703E+02 -0.14624025416E+03  0.33603162700E+03  0.36852895307E+03  0.00000000000E+00 0.  1.
         -1    1    1    2    0  501  0.25339012302E+02 -0.12517277256E+03  0.15667268631E+03  0.20213020351E+03  0.00000000000E+00 0. -1.
<mgrwt>
<rscale>  4 0.64371745E+03</rscale>
<asrwt>0</asrwt>
<pdfrwt beam="1">  1        2 0.27835365E+00 0.64371745E+03</pdfrwt>
<pdfrwt beam="2">  1       -2 0.88086009E-02 0.64371745E+03</pdfrwt>
<totfact> 0.73697428E+02</totfact>
</mgrwt>
</event>
<event>
 5    0  0.5719562E-003  0.4923666E+03  0.7546771E-02  0.1015791E+00
          2   -1    0    0  502    0  0.00000000000E+00  0.00000000000E+00  0.42847824986E+03  0.42847824986E+03  0.00000000000E+00 0.  1.
         -2   -1    0    0    0  501 -0.00000000000E+00 -0.00000000000E+00 -0.14144525824E+03  0.14144525824E+03  0.00000000000E+00 0. -1.
         25    1    1    2    0    0  0.19630656217E+03  0.71524662622E+02  0.19072512686E+03  0.30927838225E+03  0.12500000000E+03 0.  0.
          2    1    1    2  502    0 -0.74071549486E+02 -0.38686422744E+02  0.10450856389E+03  0.13381058880E+03  0.00000000000E+00 0.  1.
         -2    1    1    2    0  501 -0.12223501268E+03 -0.32838239878E+02 -0.82006991314E+01  0.12683453705E+03  0.00000000000E+00 0. -1.
<mgrwt>
<rscale>  4 0.49236660E+03</rscale>
<asrwt>0</asrwt>
<pdfrwt beam="1">  1        2 0.65919730E-01 0.49236660E+03</pdfrwt>
<pdfrwt beam="2">  1       -2 0.21760809E-01 0.49236660E+03</pdfrwt>
<totfact> 0.13509159E+03</totfact>
</mgrwt>
</event>
<event>
 5    0  0.5719562E-003  0.7452564E+03  0.7546771E-02  0.9642822E-01
          2   -1    0    0  502    0  0.00000000000E+00  0.00000000000E+00  0.59789701863E+03  0.59789701863E+03  0.00000000000E+00 0.  1.
         -2   -1    0    0    0  501 -0.00000000000E+00 -0.00000000000E+00 -0.23223361112E+03  0.23223361112E+03  0.00000000000E+00 0. -1.
         25    1    1    2    0    0 -0.26126087986E+03  0.85973536746E+02  0.36578151184E+03  0.47441523034E+03  0.12500000000E+03 0.  0.
          1    1    1    2  502    0  0.15795231350E+03 -0.69752315360E+02  0.10930519356E+03  0.20435739325E+03  0.00000000000E+00 0.  1.
         -1    1    1    2    0  501  0.10330856636E+03 -0.16221221386E+02 -0.10942329789E+03  0.15135800616E+03  0.00000000000E+00 0. -1.
<mgrwt>
<rscale>  4 0.74525642E+03</rscale>
<asrwt>0</asrwt>
<pdfrwt beam="1">  1        2 0.91984156E-01 0.74525642E+03</pdfrwt>
<pdfrwt beam="2">  1       -2 0.35728248E-01 0.74525642E+03</pdfrwt>
<totfact> 0.36918793E+02</totfact>
</mgrwt>
</event>
<event>
 5    0  0.5719562E-003  0.5453683E+03  0.7546771E-02  0.1002572E+00
          2   -1    0    0  502    0  0.00000000000E+00  0.00000000000E+00  0.93118420002E+03  0.93118420002E+03  0.00000000000E+00 0. -1.
         -2   -1    0    0    0  501 -0.00000000000E+00 -0.00000000000E+00 -0.79851708868E+02  0.79851708868E+02  0.00000000000E+00 0.  1.
         25    1    1    2    0    0  0.18182357511E+03 -0.14681289772E+03  0.54936043039E+03  0.60994731074E+03  0.12500000000E+03 0.  0.
          3    1    1    2  502    0 -0.11585408244E+03  0.29193011105E+02  0.19613685607E+03  0.22966076423E+03  0.00000000000E+00 0. -1.
         -3    1    1    2    0  501 -0.65969492671E+02  0.11761988662E+03  0.10583520469E+03  0.17142783392E+03  0.00000000000E+00 0.  1.
<mgrwt>
<rscale>  4 0.54536831E+03</rscale>
<asrwt>0</asrwt>
<pdfrwt beam="1">  1        2 0.14325910E+00 0.54536831E+03</pdfrwt>
<pdfrwt beam="2">  1       -2 0.12284879E-01 0.54536831E+03</pdfrwt>
<totfact> 0.13763990E+03</totfact>
</mgrwt>
</event>
<event>
 5    0  0.5719562E-003  0.5595216E+03  0.7546771E-02  0.9993138E-01
          1   -1    0    0  502    0  0.00000000000E+00  0.00000000000E+00  0.45396018170E+03  0.45396018170E+03  0.00000000000E+00 0.  1.
         -1   -1    0    0    0  501 -0.00000000000E+00 -0.00000000000E+00 -0.17240745090E+03  0.17240745090E+03  0.00000000000E+00 0. -1.
         25    1    1    2    0    0 -0.14195639410E+03 -0.19997455475E+03  0.79563160937E+02  0.28652528152E+03  0.12500000000E+03 0.  0.
          4    1    1    2  502    0  0.59479212866E+02  0.74541698020E+02  0.96454999442E+01  0.95850285217E+02  0.00000000000E+00 0. -1.
         -4    1    1    2    0  501  0.82477181239E+02  0.12543285672E+03  0.19234406992E+03  0.24399206586E+03  0.00000000000E+00 0.  1.
<mgrwt>
<rscale>  4 0.55952164E+03</rscale>
<asrwt>0</asrwt>
<pdfrwt beam="1">  1        1 0.69840028E-01 0.55952164E+03</pdfrwt>
<pdfrwt beam="2">  1       -1 0.26524223E-01 0.55952164E+03</pdfrwt>
<totfact> 0.64532619E+02</totfact>
</mgrwt>
</event>
<event>
 5    0  0.5719562E-003  0.6533751E+03  0.7546771E-02  0.9800467E-01
          1   -1    0    0  502    0  0.00000000000E+00  0.00000000000E+00  0.85246048329E+03  0.85246048329E+03  0.00000000000E+00 0. -1.
         -1   -1    0    0    0  501 -0.00000000000E+00 -0.00000000000E+00 -0.12519614612E+03  0.12519614612E+03  0.00000000000E+00 0.  1.
         25    1    1    2    0    0  0.55213999354E+01 -0.25944017850E+03  0.56407678459E+03  0.63336191154E+03  0.12500000000E+03 0.  0.
          1    1    1    2  502    0 -0.62670955752E+02  0.14196094746E+03  0.30618194616E+02  0.15817089853E+03  0.00000000000E+00 0.  1.
         -1    1    1    2    0  501  0.57149555816E+02  0.11747923104E+03  0.13256935797E+03  0.18612381934E+03  0.00000000000E+00 0. -1.
<mgrwt>
<rscale>  4 0.65337514E+03</rscale>
<asrwt>0</asrwt>
<pdfrwt beam="1">  1        1 0.13114776E+00 0.65337514E+03</pdfrwt>
<pdfrwt beam="2">  1       -1 0.19260946E-01 0.65337514E+03</pdfrwt>
<totfact> 0.43925532E+02</totfact>
</mgrwt>
</event>
<event>
 5    0  0.5719562E-003  0.6793519E+03  0.7546771E-02  0.9753210E-01
         -2   -1    0    0    0  501 -0.00000000000E+00  0.00000000000E+00  0.22802705140E+03  0.22802705140E+03  0.00000000000E+00 0.  1.
          2   -1    0    0  502    0  0.00000000000E+00 -0.00000000000E+00 -0.50599146290E+03  0.50599146290E+03  0.00000000000E+00 0. -1.
         25    1    1    2    0    0 -0.28545241920E+03 -0.79518561216E+02 -0.10644255396E+02  0.32178344484E+03  0.12500000000E+03 0.  0.
          1    1    1    2  502    0  0.25809593350E+03  0.99612743711E+02 -0.21731743509E+03  0.35179976861E+03  0.00000000000E+00 0. -1.
         -1    1    1    2    0  501  0.27356485697E+02 -0.20094182494E+02 -0.50002721010E+02  0.60435300845E+02  0.00000000000E+00 0.  1.
<mgrwt>
<rscale>  4 0.67935187E+03</rscale>
<asrwt>0</asrwt>
<pdfrwt beam="1">  1        2 0.77844841E-01 0.67935187E+03</pdfrwt>
<pdfrwt beam="2">  1       -2 0.35081085E-01 0.67935187E+03</pdfrwt>
<totfact> 0.46651300E+02</totfact>
</mgrwt>
</event>
<event>
 5    0  0.5719562E-003  0.5741080E+03  0.7546771E-02  0.9960629E-01
         -2   -1    0    0    0  501 -0.00000000000E+00  0.00000000000E+00  0.56394937683E+02  0.56394937683E+02  0.00000000000E+00 0.  1.
          2   -1    0    0  502    0  0.00000000000E+00 -0.00000000000E+00 -0.14611241398E+04  0.14611241398E+04  0.00000000000E+00 0. -1.
         25    1    1    2    0    0 -0.85395790297E+02 -0.22829962803E+03 -0.63895088435E+03  0.69519521990E+03  0.12500000000E+03 0.  0.
          3    1    1    2  502    0  0.47971415878E+02  0.22722148781E+03 -0.74311968379E+03  0.77856131788E+03  0.00000000000E+00 0. -1.
         -3    1    1    2    0  501  0.37424374418E+02  0.10781402144E+01 -0.22658633959E+02  0.43762539687E+02  0.00000000000E+00 0.  1.
<mgrwt>
<rscale>  4 0.57410802E+03</rscale>
<asrwt>0</asrwt>
<pdfrwt beam="1">  1        2 0.22478831E+00 0.57410802E+03</pdfrwt>
<pdfrwt beam="2">  1       -2 0.86761450E-02 0.57410802E+03</pdfrwt>
<totfact> 0.11745855E+03</totfact>
</mgrwt>
</event>
<event>
 5    0  0.5719562E-003  0.6060204E+03  0.7546771E-02  0.9892994E-01
          2   -1    0    0  502    0  0.00000000000E+00  0.00000000000E+00  0.57535307870E+03  0.57535307870E+03  0.00000000000E+00 0.  1.
         -2   -1    0    0    0  501 -0.00000000000E+00 -0.00000000000E+00 -0.15958060692E+03  0.15958060692E+03  0.00000000000E+00 0. -1.
         25    1    1    2    0    0 -0.11993164461E+03  0.24421297811E+03  0.10052064598E+03  0.31583694895E+03  0.12500000000E+03 0.  0.
          2    1    1    2  502    0  0.11091973922E+03 -0.22448522455E+03  0.30632955405E+03  0.39564453778E+03  0.00000000000E+00 0. -1.
         -2    1    1    2    0  501  0.90119053903E+01 -0.19727753555E+02  0.89222717533E+01  0.23452198881E+02  0.00000000000E+00 0.  1.
<mgrwt>
<rscale>  4 0.60602044E+03</rscale>
<asrwt>0</asrwt>
<pdfrwt beam="1">  1        2 0.88515857E-01 0.60602044E+03</pdfrwt>
<pdfrwt beam="2">  1       -2 0.24550863E-01 0.60602044E+03</pdfrwt>
<totfact> 0.77653286E+02</totfact>
</mgrwt>
</event>
<event>
 5    0  0.5719562E-003  0.5511005E+03  0.7546771E-02  0.1001240E+00
         -4   -1    0    0    0  501 -0.00000000000E+00  0.00000000000E+00  0.23018679951E+03  0.23018679951E+03  0.00000000000E+00 0. -1.
          4   -1    0    0  502    0  0.00000000000E+00 -0.00000000000E+00 -0.32985362421E+03  0.32985362421E+03  0.00000000000E+00 0.  1.
         25    1    1    2    0    0  0.23013486829E+03  0.78752329787E+02  0.21438258538E+02  0.27431475713E+03  0.12500000000E+03 0.  0.
          1    1    1    2  502    0 -0.12612982040E+03 -0.87498261606E+02 -0.83766758241E+02  0.17487580497E+03  0.00000000000E+00 0.  1.
         -1    1    1    2    0  501 -0.10400504789E+03  0.87459318185E+01 -0.37338324995E+02  0.11084986163E+03  0.00000000000E+00 0. -1.
<mgrwt>
<rscale>  4 0.55110054E+03</rscale>
<asrwt>0</asrwt>
<pdfrwt beam="1">  1        4 0.50746711E-01 0.55110054E+03</pdfrwt>
<pdfrwt beam="2">  1       -4 0.35413354E-01 0.55110054E+03</pdfrwt>
<totfact> 0.57022904E+01</totfact>
</mgrwt>
</event>
<event>
 5    0  0.5719562E-003  0.5177417E+03  0.7546771E-02  0.1009249E+00
          2   -1    0    0  502    0  0.00000000000E+00  0.00000000000E+00  0.15117358128E+04  0.15117358128E+04  0.00000000000E+00 0.  1.
         -2   -1    0    0    0  501 -0.00000000000E+00 -0.00000000000E+00 -0.44329248782E+02  0.44329248782E+02  0.00000000000E+00 0. -1.
         25    1    1    2    0    0 -0.21208187650E+03 -0.21841686260E+02  0.42828569523E+03  0.49447893619E+03  0.12500000000E+03 0.  0.
          3    1    1    2  502    0  0.59427406322E+02  0.32634400716E+01  0.20752121407E+03  0.21588728762E+03  0.00000000000E+00 0.  1.
         -3    1    1    2    0  501  0.15265447017E+03  0.18578246188E+02  0.83159965470E+03  0.84569883776E+03  0.00000000000E+00 0. -1.
<mgrwt>
<rscale>  4 0.51774168E+03</rscale>
<asrwt>0</asrwt>
<pdfrwt beam="1">  1        2 0.23257470E+00 0.51774168E+03</pdfrwt>
<pdfrwt beam="2">  1       -2 0.68198856E-02 0.51774168E+03</pdfrwt>
<totfact> 0.16175758E+03</totfact>
</mgrwt>
</event>
<event>
 5    0  0.5719562E-003  0.5552693E+03  0.7546771E-02  0.1000282E+00
         -2   -1    0    0    0  501 -0.00000000000E+00  0.00000000000E+00  0.50379175961E+02  0.50379175961E+02  0.00000000000E+00 0.  1.
          2   -1    0    0  502    0  0.00000000000E+00 -0.00000000000E+00 -0.15300171745E+04  0.15300171745E+04  0.00000000000E+00 0. -1.
         25    1    1    2    0    0 -0.18862347880E+03 -0.16640063153E+03 -0.61954545197E+03  0.68024227595E+03  0.12500000000E+03 0.  0.
          1    1    1    2  502    0  0.12702938904E+03  0.64532711896E+02 -0.54523418546E+03  0.56354347976E+03  0.00000000000E+00 0. -1.
         -1    1    1    2    0  501  0.61594089762E+02  0.10186791963E+03 -0.31485836113E+03  0.33661059478E+03  0.00000000000E+00 0.  1.
<mgrwt>
<rscale>  4 0.55526932E+03</rscale>
<asrwt>0</asrwt>
<pdfrwt beam="1">  1        2 0.23538728E+00 0.55526932E+03</pdfrwt>
<pdfrwt beam="2">  1       -2 0.77506416E-02 0.55526932E+03</pdfrwt>
<totfact> 0.12893312E+03</totfact>
</mgrwt>
</event>
<event>
 5    0  0.5719562E-003  0.6802351E+03  0.7546771E-02  0.9751643E-01
         -1   -1    0    0    0  501 -0.00000000000E+00  0.00000000000E+00  0.10592359377E+04  0.10592359377E+04  0.00000000000E+00 0. -1.
          1   -1    0    0  502    0  0.00000000000E+00 -0.00000000000E+00 -0.10921075146E+03  0.10921075146E+03  0.00000000000E+00 0.  1.
         25    1    1    2    0    0 -0.73726735605E+02  0.23089313697E+03  0.16521170172E+03  0.31885291065E+03  0.12500000000E+03 0.  0.
          1    1    1    2  502    0  0.11172360103E+03 -0.23171613462E+02  0.26444051003E+03  0.28800671875E+03  0.00000000000E+00 0.  1.
         -1    1    1    2    0  501 -0.37996865425E+02 -0.20772152351E+03  0.52037297450E+03  0.56158705977E+03  0.00000000000E+00 0. -1.
<mgrwt>
<rscale>  4 0.68023511E+03</rscale>
<asrwt>0</asrwt>
<pdfrwt beam="1">  1        1 0.16801655E-01 0.68023511E+03</pdfrwt>
<pdfrwt beam="2">  1       -1 0.16295937E+00 0.68023511E+03</pdfrwt>
<totfact> 0.93932160E+01</totfact>
</mgrwt>
</event>
<event>
 5    0  0.5719562E-003  0.8046875E+03  0.7546771E-02  0.9553257E-01
          2   -1    0    0  502    0  0.00000000000E+00  0.00000000000E+00  0.15424351962E+04  0.15424351962E+04  0.00000000000E+00 0. -1.
         -2   -1    0    0    0  501 -0.00000000000E+00 -0.00000000000E+00 -0.10495123138E+03  0.10495123138E+03  0.00000000000E+00 0.  1.
         25    1    1    2    0    0 -0.38428767645E+02 -0.29396247037E+03  0.46039352290E+03  0.56167419390E+03  0.12500000000E+03 0.  0.
          2    1    1    2  502    0 -0.68856363897E+02  0.26350857115E+03  0.32444396577E+03  0.42360577528E+03  0.00000000000E+00 0.  1.
         -2    1    1    2    0  501  0.10728513154E+03  0.30453899219E+02  0.65264647615E+03  0.66210645841E+03  0.00000000000E+00 0. -1.
<mgrwt>
<rscale>  4 0.80468745E+03</rscale>
<asrwt>0</asrwt>
<pdfrwt beam="1">  1        2 0.23729771E+00 0.80468745E+03</pdfrwt>
<pdfrwt beam="2">  1       -2 0.16146344E-01 0.80468745E+03</pdfrwt>
<totfact> 0.37511668E+02</totfact>
</mgrwt>
</event>
<event>
 5    0  0.5719562E-003  0.8977614E+03  0.7546771E-02  0.9428384E-01
          1   -1    0    0  502    0  0.00000000000E+00  0.00000000000E+00  0.13381794901E+04  0.13381794901E+04  0.00000000000E+00 0. -1.
         -1   -1    0    0    0  501 -0.00000000000E+00 -0.00000000000E+00 -0.15057312947E+03  0.15057312947E+03  0.00000000000E+00 0.  1.
         25    1    1    2    0    0 -0.23591869718E+02  0.31663581288E+03  0.81200693067E+03  0.88079229661E+03  0.12500000000E+03 0.  0.
          1    1    1    2  502    0  0.46422504523E+02  0.37465455473E+02 -0.31878961930E+02  0.67638579921E+02  0.00000000000E+00 0.  1.
         -1    1    1    2    0  501 -0.22830634805E+02 -0.35410126835E+03  0.40747839187E+03  0.54032174302E+03  0.00000000000E+00 0. -1.
<mgrwt>
<rscale>  4 0.89776138E+03</rscale>
<asrwt>0</asrwt>
<pdfrwt beam="1">  1        1 0.20587376E+00 0.89776138E+03</pdfrwt>
<pdfrwt beam="2">  1       -1 0.23165098E-01 0.89776138E+03</pdfrwt>
<totfact> 0.13659498E+02</totfact>
</mgrwt>
</event>
<event>
 5    0  0.5719562E-003  0.6828278E+03  0.7546771E-02  0.9747058E-01
          1   -1    0    0  502    0  0.00000000000E+00  0.00000000000E+00  0.13892264365E+03  0.13892264365E+03  0.00000000000E+00 0. -1.
         -1   -1    0    0    0  501 -0.00000000000E+00 -0.00000000000E+00 -0.83905289891E+03  0.83905289891E+03  0.00000000000E+00 0.  1.
         25    1    1    2    0    0 -0.20463500914E+03 -0.24232715987E+03 -0.41620239172E+03  0.53800313219E+03  0.12500000000E+03 0.  0.
          2    1    1    2  502    0  0.12061439432E+03  0.12603626931E+03 -0.83279836087E+02  0.19330934896E+03  0.00000000000E+00 0. -1.
         -2    1    1    2    0  501  0.84020614822E+02  0.11629089055E+03 -0.20064802745E+03  0.24666306140E+03  0.00000000000E+00 0.  1.
<mgrwt>
<rscale>  4 0.68282779E+03</rscale>
<asrwt>0</asrwt>
<pdfrwt beam="1">  1        1 0.21372714E-01 0.68282779E+03</pdfrwt>
<pdfrwt beam="2">  1       -1 0.12908506E+00 0.68282779E+03</pdfrwt>
<totfact> 0.12628489E+02</totfact>
</mgrwt>
</event>
<event>
 5    0  0.5719562E-003  0.5738016E+03  0.7546771E-02  0.9961301E-01
          1   -1    0    0  502    0  0.00000000000E+00  0.00000000000E+00  0.84762719388E+03  0.84762719388E+03  0.00000000000E+00 0. -1.
         -1   -1    0    0    0  501 -0.00000000000E+00 -0.00000000000E+00 -0.97108811653E+02  0.97108811653E+02  0.00000000000E+00 0.  1.
         25    1    1    2    0    0 -0.11704793810E+03 -0.23432652975E+03  0.40179825705E+03  0.49565712113E+03  0.12500000000E+03 0.  0.
          1    1    1    2  502    0  0.25693201553E+02 -0.18173619401E+01  0.58583902629E+02  0.63996226902E+02  0.00000000000E+00 0. -1.
         -1    1    1    2    0  501  0.91354736543E+02  0.23614389169E+03  0.29013622255E+03  0.38508265750E+03  0.00000000000E+00 0.  1.
<mgrwt>
<rscale>  4 0.57380160E+03</rscale>
<asrwt>0</asrwt>
<pdfrwt beam="1">  1        1 0.13040418E+00 0.57380160E+03</pdfrwt>
<pdfrwt beam="2">  1       -1 0.14939818E-01 0.57380160E+03</pdfrwt>
<totfact> 0.67405309E+02</totfact>
</mgrwt>
</event>
<event>
 5    0  0.5719562E-003  0.6795999E+03  0.7546771E-02  0.9752769E-01
         -2   -1    0    0    0  501 -0.00000000000E+00  0.00000000000E+00  0.54710996039E+02  0.54710996039E+02  0.00000000000E+00 0. -1.
          2   -1    0    0  502    0  0.00000000000E+00 -0.00000000000E+00 -0.21104348971E+04  0.21104348971E+04  0.00000000000E+00 0.  1.
         25    1    1    2    0    0  0.29752687890E+03 -0.38840014631E+02 -0.14732583845E+04  0.15086901796E+04  0.12500000000E+03 0.  0.
          3    1    1    2  502    0 -0.26787005847E+03  0.47105081648E+02 -0.52312795244E+03  0.58960674315E+03  0.00000000000E+00 0. -1.
         -3    1    1    2    0  501 -0.29656820438E+02 -0.82650670166E+01 -0.59337564082E+02  0.66848970392E+02  0.00000000000E+00 0.  1.
<mgrwt>
<rscale>  4 0.67959987E+03</rscale>
<asrwt>0</asrwt>
<pdfrwt beam="1">  1        2 0.32468224E+00 0.67959987E+03</pdfrwt>
<pdfrwt beam="2">  1       -2 0.84170778E-02 0.67959987E+03</pdfrwt>
<totfact> 0.54252360E+02</totfact>
</mgrwt>
</event>
<event>
 5    0  0.5719562E-003  0.6058494E+03  0.7546771E-02  0.9893344E-01
         -1   -1    0    0    0  501 -0.00000000000E+00  0.00000000000E+00  0.41348086501E+02  0.41348086501E+02  0.00000000000E+00 0.  1.
          1   -1    0    0  502    0  0.00000000000E+00 -0.00000000000E+00 -0.22192897570E+04  0.22192897570E+04  0.00000000000E+00 0. -1.
         25    1    1    2    0    0  0.25670440084E+03  0.54427797498E+02 -0.11068734703E+04  0.11444008973E+04  0.12500000000E+03 0.  0.
          2    1    1    2  502    0 -0.32163122213E+02  0.32131951233E+01 -0.48366161343E+03  0.48474049486E+03  0.00000000000E+00 0. -1.
         -2    1    1    2    0  501 -0.22454127863E+03 -0.57640992621E+02 -0.58740658678E+03  0.63149645132E+03  0.00000000000E+00 0.  1.
<mgrwt>
<rscale>  4 0.60584944E+03</rscale>
<asrwt>0</asrwt>
<pdfrwt beam="1">  1        1 0.34142944E+00 0.60584944E+03</pdfrwt>
<pdfrwt beam="2">  1       -1 0.63612394E-02 0.60584944E+03</pdfrwt>
<totfact> 0.28378839E+02</totfact>
</mgrwt>
</event>
<event>
 5    0  0.5719562E-003  0.7077860E+03  0.7546771E-02  0.9704009E-01
          2   -1    0    0  502    0  0.00000000000E+00  0.00000000000E+00  0.34251972037E+04  0.34251972037E+04  0.00000000000E+00 0.  1.
         -2   -1    0    0    0  501 -0.00000000000E+00 -0.00000000000E+00 -0.36564390600E+02  0.36564390600E+02  0.00000000000E+00 0. -1.
         25    1    1    2    0    0  0.27180778234E+03 -0.22808675908E+02  0.19262572456E+04  0.19494849788E+04  0.12500000000E+03 0.  0.
          1    1    1    2  502    0  0.29563843540E+02 -0.30010685932E+00  0.55691791038E+03  0.55770213359E+03  0.00000000000E+00 0. -1.
         -1    1    1    2    0  501 -0.30137162588E+03  0.23108782768E+02  0.90545765710E+03  0.95457448192E+03  0.00000000000E+00 0.  1.
<mgrwt>
<rscale>  4 0.70778598E+03</rscale>
<asrwt>0</asrwt>
<pdfrwt beam="1">  1        2 0.52695316E+00 0.70778598E+03</pdfrwt>
<pdfrwt beam="2">  1       -2 0.56252936E-02 0.70778598E+03</pdfrwt>
<totfact> 0.16979901E+02</totfact>
</mgrwt>
</event>
<event>
 5    0  0.5719562E-003  0.5325759E+03  0.7546771E-02  0.1005609E+00
         -1   -1    0    0    0  501 -0.00000000000E+00  0.00000000000E+00  0.17474906627E+03  0.17474906627E+03  0.00000000000E+00 0.  1.
          1   -1    0    0  502    0  0.00000000000E+00 -0.00000000000E+00 -0.40577761586E+03  0.40577761586E+03  0.00000000000E+00 0. -1.
         25    1    1    2    0    0  0.14177396007E+03  0.15460192481E+03 -0.21681879196E+03  0.32655321075E+03  0.12500000000E+03 0.  0.
          4    1    1    2  502    0 -0.94979439503E+02 -0.17213066153E+03 -0.35291283596E+02  0.19973866242E+03  0.00000000000E+00 0. -1.
         -4    1    1    2    0  501 -0.46794520564E+02  0.17528736725E+02  0.21081525954E+02  0.54234808957E+02  0.00000000000E+00 0.  1.
<mgrwt>
<rscale>  4 0.53257585E+03</rscale>
<asrwt>0</asrwt>
<pdfrwt beam="1">  1        1 0.62427324E-01 0.53257585E+03</pdfrwt>
<pdfrwt beam="2">  1       -1 0.26884472E-01 0.53257585E+03</pdfrwt>
<totfact> 0.73228664E+02</totfact>
</mgrwt>
</event>
<event>
 5    0  0.5719562E-003  0.4989611E+03  0.7546771E-02  0.1014050E+00
         -1   -1    0    0    0  501 -0.00000000000E+00  0.00000000000E+00  0.27282224840E+02  0.27282224840E+02  0.00000000000E+00 0. -1.
          1   -1    0    0  502    0  0.00000000000E+00 -0.00000000000E+00 -0.22813586709E+04  0.22813586709E+04  0.00000000000E+00 0.  1.
         25    1    1    2    0    0  0.17215695450E+03  0.14000724395E+03 -0.89997512729E+03  0.93531827475E+03  0.12500000000E+03 0.  0.
          1    1    1    2  502    0 -0.10506976009E+03 -0.11450374584E+03 -0.10021502087E+04  0.10141281000E+04  0.00000000000E+00 0.  1.
         -1    1    1    2    0  501 -0.67087194414E+02 -0.25503498111E+02 -0.35195111010E+03  0.35919452107E+03  0.00000000000E+00 0. -1.
<mgrwt>
<rscale>  4 0.49896108E+03</rscale>
<asrwt>0</asrwt>
<pdfrwt beam="1">  1        1 0.35097822E+00 0.49896108E+03</pdfrwt>
<pdfrwt beam="2">  1       -1 0.41972657E-02 0.49896108E+03</pdfrwt>
<totfact> 0.49206415E+02</totfact>
</mgrwt>
</event>
<event>
 5    0  0.5719562E-003  0.9549244E+03  0.7546771E-02  0.9359413E-01
         -2   -1    0    0    0  501 -0.00000000000E+00  0.00000000000E+00  0.89640412910E+02  0.89640412910E+02  0.00000000000E+00 0.  1.
          2   -1    0    0  502    0  0.00000000000E+00 -0.00000000000E+00 -0.25431624845E+04  0.25431624845E+04  0.00000000000E+00 0. -1.
         25    1    1    2    0    0  0.24902546668E+03  0.22910506463E+03 -0.39092906826E+03  0.53193359558E+03  0.12500000000E+03 0.  0.
          1    1    1    2  502    0 -0.16909650924E+01 -0.11404350345E+03 -0.87187297981E+03  0.87930158249E+03  0.00000000000E+00 0. -1.
         -1    1    1    2    0  501 -0.24733450158E+03 -0.11506156118E+03 -0.11907200235E+04  0.12215677194E+04  0.00000000000E+00 0.  1.
<mgrwt>
<rscale>  4 0.95492436E+03</rscale>
<asrwt>0</asrwt>
<pdfrwt beam="1">  1        2 0.39125576E+00 0.95492436E+03</pdfrwt>
<pdfrwt beam="2">  1       -2 0.13790833E-01 0.95492436E+03</pdfrwt>
<totfact> 0.13509423E+02</totfact>
</mgrwt>
</event>
<event>
 5    0  0.5719562E-003  0.4725372E+03  0.7546771E-02  0.1021207E+00
          1   -1    0    0  502    0  0.00000000000E+00  0.00000000000E+00  0.25173063432E+03  0.25173063432E+03  0.00000000000E+00 0. -1.
         -1   -1    0    0    0  501 -0.00000000000E+00 -0.00000000000E+00 -0.22175630520E+03  0.22175630520E+03  0.00000000000E+00 0.  1.
         25    1    1    2    0    0 -0.13917075086E+03 -0.15965173228E+03 -0.35778953521E+02  0.24852023465E+03  0.12500000000E+03 0.  0.
          4    1    1    2  502    0  0.11901015172E+02  0.31027821294E+02  0.26701930339E+01  0.33339012992E+02  0.00000000000E+00 0.  1.
         -4    1    1    2    0  501  0.12726973569E+03  0.12862391098E+03  0.63083089602E+02  0.19162769187E+03  0.00000000000E+00 0. -1.
<mgrwt>
<rscale>  4 0.47253722E+03</rscale>
<asrwt>0</asrwt>
<pdfrwt beam="1">  1        1 0.38727790E-01 0.47253722E+03</pdfrwt>
<pdfrwt beam="2">  1       -1 0.34116355E-01 0.47253722E+03</pdfrwt>
<totfact> 0.89835830E+02</totfact>
</mgrwt>
</event>
<event>
 5    0  0.5719562E-003  0.5252301E+03  0.7546771E-02  0.1007396E+00
          2   -1    0    0  502    0  0.00000000000E+00  0.00000000000E+00  0.44590415943E+03  0.44590415943E+03  0.00000000000E+00 0.  1.
         -2   -1    0    0    0  501 -0.00000000000E+00 -0.00000000000E+00 -0.15466704099E+03  0.15466704099E+03  0.00000000000E+00 0. -1.
         25    1    1    2    0    0  0.20628929163E+03 -0.61448276985E+01  0.21421065163E+03  0.32265187745E+03  0.12500000000E+03 0.  0.
          4    1    1    2  502    0 -0.23395116084E+03  0.86087607278E+01  0.50457146560E+02  0.23948523975E+03  0.00000000000E+00 0. -1.
         -4    1    1    2    0  501  0.27661869215E+02 -0.24639330293E+01  0.26569320247E+02  0.38434083218E+02  0.00000000000E+00 0.  1.
<mgrwt>
<rscale>  4 0.52523015E+03</rscale>
<asrwt>0</asrwt>
<pdfrwt beam="1">  1        2 0.68600639E-01 0.52523015E+03</pdfrwt>
<pdfrwt beam="2">  1       -2 0.23794930E-01 0.52523015E+03</pdfrwt>
<totfact> 0.11030572E+03</totfact>
</mgrwt>
</event>
<event>
 5    0  0.5719562E-003  0.6369339E+03  0.7546771E-02  0.9831610E-01
          2   -1    0    0  502    0  0.00000000000E+00  0.00000000000E+00  0.22355804598E+04  0.22355804598E+04  0.00000000000E+00 0.  1.
         -2   -1    0    0    0  501 -0.00000000000E+00 -0.00000000000E+00 -0.45366829616E+02  0.45366829616E+02  0.00000000000E+00 0. -1.
         25    1    1    2    0    0  0.99573916596E+02 -0.24230793992E+03  0.12619283516E+04  0.12948807926E+04  0.12500000000E+03 0.  0.
          4    1    1    2  502    0  0.25436510789E+01  0.11795570485E+03  0.68027668574E+03  0.69043202970E+03  0.00000000000E+00 0.  1.
         -4    1    1    2    0  501 -0.10211756767E+03  0.12435223507E+03  0.24800859286E+03  0.29563446708E+03  0.00000000000E+00 0. -1.
<mgrwt>
<rscale>  4 0.63693390E+03</rscale>
<asrwt>0</asrwt>
<pdfrwt beam="1">  1        2 0.34393537E+00 0.63693390E+03</pdfrwt>
<pdfrwt beam="2">  1       -2 0.69795140E-02 0.63693390E+03</pdfrwt>
<totfact> 0.62637105E+02</totfact>
</mgrwt>
</event>
<event>
 5    0  0.5719562E-003  0.6030746E+03  0.7546771E-02  0.9899048E-01
         -1   -1    0    0    0  501 -0.00000000000E+00  0.00000000000E+00  0.12699411475E+03  0.12699411475E+03  0.00000000000E+00 0.  1.
          1   -1    0    0  502    0  0.00000000000E+00 -0.00000000000E+00 -0.71597609774E+03  0.71597609774E+03  0.00000000000E+00 0. -1.
         25    1    1    2    0    0  0.20804985928E+03 -0.36185185451E+02 -0.34277104513E+02  0.24777819010E+03  0.12500000000E+03 0.  0.
          1    1    1    2  502    0 -0.13084838145E+03  0.43395397802E+02 -0.33792854418E+03  0.36496597163E+03  0.00000000000E+00 0.  1.
         -1    1    1    2    0  501 -0.77201477830E+02 -0.72102123510E+01 -0.21677633430E+03  0.23022605077E+03  0.00000000000E+00 0. -1.
<mgrwt>
<rscale>  4 0.60307462E+03</rscale>
<asrwt>0</asrwt>
<pdfrwt beam="1">  1        1 0.11015017E+00 0.60307462E+03</pdfrwt>
<pdfrwt beam="2">  1       -1 0.19537556E-01 0.60307462E+03</pdfrwt>
<totfact> 0.56555509E+02</totfact>
</mgrwt>
</event>
<event>
 5    0  0.5719562E-003  0.5531940E+03  0.7546771E-02  0.1000757E+00
         -2   -1    0    0    0  501 -0.00000000000E+00  0.00000000000E+00  0.36864202515E+02  0.36864202515E+02  0.00000000000E+00 0. -1.
          2   -1    0    0  502    0  0.00000000000E+00 -0.00000000000E+00 -0.20753442951E+04  0.20753442951E+04  0.00000000000E+00 0.  1.
         25    1    1    2    0    0  0.17373101630E+03 -0.12543873159E+03 -0.77352509053E+03  0.81233207932E+03  0.12500000000E+03 0.  0.
          3    1    1    2  502    0 -0.41472333892E+02  0.53239832417E+01 -0.81029312291E+03  0.81137121240E+03  0.00000000000E+00 0.  1.
         -3    1    1    2    0  501 -0.13225868240E+03  0.12011474835E+03 -0.45466187914E+03  0.48850520589E+03  0.00000000000E+00 0. -1.
<mgrwt>
<rscale>  4 0.55319404E+03</rscale>
<asrwt>0</asrwt>
<pdfrwt beam="1">  1        2 0.31928376E+00 0.55319404E+03</pdfrwt>
<pdfrwt beam="2">  1       -2 0.56714154E-02 0.55319404E+03</pdfrwt>
<totfact> 0.10677431E+03</totfact>
</mgrwt>
</event>
<event>
 5    0  0.5719562E-003  0.7709969E+03  0.7546771E-02  0.9602973E-01
         -1   -1    0    0    0  501 -0.00000000000E+00  0.00000000000E+00  0.51870000342E+03  0.51870000342E+03  0.00000000000E+00 0. -1.
          1   -1    0    0  502    0  0.00000000000E+00 -0.00000000000E+00 -0.28650292382E+03  0.28650292382E+03  0.00000000000E+00 0.  1.
         25    1    1    2    0    0  0.22211827374E+03 -0.67188667642E+02 -0.91405054613E+02  0.27898159186E+03  0.12500000000E+03 0.  0.
          3    1    1    2  502    0 -0.15965125534E+03  0.56354215114E+01  0.38655721634E+03  0.41826637781E+03  0.00000000000E+00 0. -1.
         -3    1    1    2    0  501 -0.62467018399E+02  0.61553246130E+02 -0.62955082121E+02  0.10795495756E+03  0.00000000000E+00 0.  1.
<mgrwt>
<rscale>  4 0.77099693E+03</rscale>
<asrwt>0</asrwt>
<pdfrwt beam="1">  1        1 0.44077373E-01 0.77099693E+03</pdfrwt>
<pdfrwt beam="2">  1       -1 0.79800000E-01 0.77099693E+03</pdfrwt>
<totfact> 0.14797433E+02</totfact>
</mgrwt>
</event>
<event>
 5    0  0.5719562E-003  0.5627661E+03  0.7546771E-02  0.9985815E-01
         -2   -1    0    0    0  501 -0.00000000000E+00  0.00000000000E+00  0.12002693214E+04  0.12002693214E+04  0.00000000000E+00 0.  1.
          2   -1    0    0  502    0  0.00000000000E+00 -0.00000000000E+00 -0.65965537649E+02  0.65965537649E+02  0.00000000000E+00 0. -1.
         25    1    1    2    0    0  0.21410175150E+03 -0.67931727589E+02  0.69971086790E+03  0.74543583109E+03  0.12500000000E+03 0.  0.
          4    1    1    2  502    0 -0.11873769446E+03 -0.54929846415E+02  0.21579551627E+03  0.25235616290E+03  0.00000000000E+00 0.  1.
         -4    1    1    2    0  501 -0.95364057039E+02  0.12286157400E+03  0.21879739960E+03  0.26844286508E+03  0.00000000000E+00 0. -1.
<mgrwt>
<rscale>  4 0.56276607E+03</rscale>
<asrwt>0</asrwt>
<pdfrwt beam="1">  1        2 0.10148545E-01 0.56276607E+03</pdfrwt>
<pdfrwt beam="2">  1       -2 0.18465680E+00 0.56276607E+03</pdfrwt>
<totfact> 0.11247979E+02</totfact>
</mgrwt>
</event>
<event>
 5    0  0.5719562E-003  0.7584298E+03  0.7546771E-02  0.9622217E-01
          2   -1    0    0  502    0  0.00000000000E+00  0.00000000000E+00  0.23580674442E+04  0.23580674442E+04  0.00000000000E+00 0.  1.
         -2   -1    0    0    0  501 -0.00000000000E+00 -0.00000000000E+00 -0.60983810279E+02  0.60983810279E+02  0.00000000000E+00 0. -1.
         25    1    1    2    0    0  0.24112746034E+02 -0.20752248786E+03  0.86650752352E+03  0.90005960681E+03  0.12500000000E+03 0.  0.
          1    1    1    2  502    0 -0.13333895024E+03  0.12800093499E+02  0.93387114743E+02  0.16329198157E+03  0.00000000000E+00 0. -1.
         -1    1    1    2    0  501  0.10922620421E+03  0.19472239436E+03  0.13371889957E+04  0.13556996661E+04  0.00000000000E+00 0.  1.
<mgrwt>
<rscale>  4 0.75842979E+03</rscale>
<asrwt>0</asrwt>
<pdfrwt beam="1">  1        2 0.36277954E+00 0.75842979E+03</pdfrwt>
<pdfrwt beam="2">  1       -2 0.93821265E-02 0.75842979E+03</pdfrwt>
<totfact> 0.33033465E+02</totfact>
</mgrwt>
</event>
<event>
 5    0  0.5719562E-003  0.5531998E+03  0.7546771E-02  0.1000756E+00
         -2   -1    0    0    0  501 -0.00000000000E+00  0.00000000000E+00  0.33985327682E+03  0.33985327682E+03  0.00000000000E+00 0.  1.
          2   -1    0    0  502    0  0.00000000000E+00 -0.00000000000E+00 -0.22511924452E+03  0.22511924452E+03  0.00000000000E+00 0. -1.
         25    1    1    2    0    0  0.90168157289E+02 -0.20172356562E+03  0.52697420511E+02  0.25927728718E+03  0.12500000000E+03 0.  0.
          1    1    1    2  502    0  0.18272400883E+02 -0.24629900939E+02 -0.25495169811E+02  0.39881278039E+02  0.00000000000E+00 0. -1.
         -1    1    1    2    0  501 -0.10844055817E+03  0.22635346656E+03  0.87531781598E+02  0.26581395613E+03  0.00000000000E+00 0.  1.
<mgrwt>
<rscale>  4 0.55319983E+03</rscale>
<asrwt>0</asrwt>
<pdfrwt beam="1">  1        2 0.34633730E-01 0.55319983E+03</pdfrwt>
<pdfrwt beam="2">  1       -2 0.52285120E-01 0.55319983E+03</pdfrwt>
<totfact> 0.52677829E+02</totfact>
</mgrwt>
</event>
<event>
 5    0  0.5719562E-003  0.5464602E+03  0.7546771E-02  0.1002317E+00
          2   -1    0    0  502    0  0.00000000000E+00  0.00000000000E+00  0.23965884480E+04  0.23965884480E+04  0.00000000000E+00 0.  1.
         -2   -1    0    0    0  501 -0.00000000000E+00 -0.00000000000E+00 -0.31150399422E+02  0.31150399422E+02  0.00000000000E+00 0. -1.
         25    1    1    2    0    0  0.18479095292E+03 -0.13783641001E+03  0.83454927378E+03  0.87478229438E+03  0.12500000000E+03 0.  0.
          4    1    1    2  502    0 -0.12461013380E+03  0.11628079979E+03  0.13575310106E+04  0.13681883476E+04  0.00000000000E+00 0.  1.
         -4    1    1    2    0  501 -0.60180819125E+02  0.21555610219E+02  0.17335776425E+03  0.18476820546E+03  0.00000000000E+00 0. -1.
<mgrwt>
<rscale>  4 0.54646020E+03</rscale>
<asrwt>0</asrwt>
<pdfrwt beam="1">  1        2 0.36870577E+00 0.54646020E+03</pdfrwt>
<pdfrwt beam="2">  1       -2 0.47923710E-02 0.54646020E+03</pdfrwt>
<totfact> 0.92535697E+02</totfact>
</mgrwt>
</event>
<event>
 5    0  0.5719562E-003  0.8871318E+03  0.7546771E-02  0.9441812E-01
         -2   -1    0    0    0  501 -0.00000000000E+00  0.00000000000E+00  0.76756967431E+02  0.76756967431E+02  0.00000000000E+00 0. -1.
          2   -1    0    0  502    0  0.00000000000E+00 -0.00000000000E+00 -0.25632945910E+04  0.25632945910E+04  0.00000000000E+00 0.  1.
         25    1    1    2    0    0 -0.17183056982E+03 -0.27846694832E+03 -0.18908402092E+04  0.19230109940E+04  0.12500000000E+03 0.  0.
          3    1    1    2  502    0  0.10646520223E+03  0.23743519077E+02 -0.31050780886E+03  0.32911045767E+03  0.00000000000E+00 0.  1.
         -3    1    1    2    0  501  0.65365367596E+02  0.25472342924E+03 -0.28518960543E+03  0.38793010676E+03  0.00000000000E+00 0. -1.
<mgrwt>
<rscale>  4 0.88713183E+03</rscale>
<asrwt>0</asrwt>
<pdfrwt beam="1">  1        2 0.39435297E+00 0.88713183E+03</pdfrwt>
<pdfrwt beam="2">  1       -2 0.11808766E-01 0.88713183E+03</pdfrwt>
<totfact> 0.17147175E+02</totfact>
</mgrwt>
</event>
<event>
 5    0  0.5719562E-003  0.8500496E+03  0.7546771E-02  0.9490270E-01
          1   -1    0    0  502    0  0.00000000000E+00  0.00000000000E+00  0.16094163634E+04  0.16094163634E+04  0.00000000000E+00 0. -1.
         -1   -1    0    0    0  501 -0.00000000000E+00 -0.00000000000E+00 -0.11224322633E+03  0.11224322633E+03  0.00000000000E+00 0.  1.
         25    1    1    2    0    0  0.25052299900E+03  0.18332725794E+03  0.10090347612E+04  0.10630836307E+04  0.12500000000E+03 0.  0.
          2    1    1    2  502    0 -0.26276759590E+03 -0.62316218845E+01  0.26243707345E+03  0.37142813583E+03  0.00000000000E+00 0. -1.
         -2    1    1    2    0  501  0.12244596900E+02 -0.17709563606E+03  0.22570130243E+03  0.28714782322E+03  0.00000000000E+00 0.  1.
<mgrwt>
<rscale>  4 0.85004961E+03</rscale>
<asrwt>0</asrwt>
<pdfrwt beam="1">  1        1 0.24760250E+00 0.85004961E+03</pdfrwt>
<pdfrwt beam="2">  1       -1 0.17268190E-01 0.85004961E+03</pdfrwt>
<totfact> 0.14549466E+02</totfact>
</mgrwt>
</event>
<event>
 5    0  0.5719562E-003  0.6687973E+03  0.7546771E-02  0.9772133E-01
          2   -1    0    0  502    0  0.00000000000E+00  0.00000000000E+00  0.23726297946E+04  0.23726297946E+04  0.00000000000E+00 0.  1.
         -2   -1    0    0    0  501 -0.00000000000E+00 -0.00000000000E+00 -0.47130178815E+02  0.47130178815E+02  0.00000000000E+00 0. -1.
         25    1    1    2    0    0  0.12545894499E+03  0.17573916826E+03  0.70313336085E+03  0.74608694217E+03  0.12500000000E+03 0.  0.
          3    1    1    2  502    0 -0.10560572085E+03  0.75119923855E+02  0.28842365246E+03  0.31620211026E+03  0.00000000000E+00 0. -1.
         -3    1    1    2    0  501 -0.19853224148E+02 -0.25085909212E+03  0.13339426025E+04  0.13574709210E+04  0.00000000000E+00 0.  1.
<mgrwt>
<rscale>  4 0.66879733E+03</rscale>
<asrwt>0</asrwt>
<pdfrwt beam="1">  1        2 0.36501987E+00 0.66879733E+03</pdfrwt>
<pdfrwt beam="2">  1       -2 0.72507986E-02 0.66879733E+03</pdfrwt>
<totfact> 0.49386912E+02</totfact>
</mgrwt>
</event>
<event>
 5    0  0.5719562E-003  0.6494406E+03  0.7546771E-02  0.9807829E-01
         -1   -1    0    0    0  501 -0.00000000000E+00  0.00000000000E+00  0.21715620303E+03  0.21715620303E+03  0.00000000000E+00 0.  1.
          1   -1    0    0  502    0  0.00000000000E+00 -0.00000000000E+00 -0.48556425196E+03  0.48556425196E+03  0.00000000000E+00 0. -1.
         25    1    1    2    0    0  0.28464454188E+03 -0.11179660825E+03 -0.13415541075E+03  0.35657211202E+03  0.12500000000E+03 0.  0.
          3    1    1    2  502    0 -0.18552905987E+03  0.52457122669E+02 -0.12602087858E+03  0.23033463399E+03  0.00000000000E+00 0. -1.
         -3    1    1    2    0  501 -0.99115482002E+02  0.59339485583E+02 -0.82317595926E+01  0.11581370898E+03  0.00000000000E+00 0.  1.
<mgrwt>
<rscale>  4 0.64944065E+03</rscale>
<asrwt>0</asrwt>
<pdfrwt beam="1">  1        1 0.74702191E-01 0.64944065E+03</pdfrwt>
<pdfrwt beam="2">  1       -1 0.33408647E-01 0.64944065E+03</pdfrwt>
<totfact> 0.39380047E+02</totfact>
</mgrwt>
</event>
<event>
 5    0  0.5719562E-003  0.6931619E+03  0.7546771E-02  0.9728998E-01
         -2   -1    0    0    0  501 -0.00000000000E+00  0.00000000000E+00  0.43510018037E+02  0.43510018037E+02  0.00000000000E+00 0.  1.
          2   -1    0    0  502    0  0.00000000000E+00 -0.00000000000E+00 -0.27607054075E+04  0.27607054075E+04  0.00000000000E+00 0. -1.
         25    1    1    2    0    0  0.78326922484E+02  0.23852070705E+03 -0.14838730232E+04  0.15101428354E+04  0.12500000000E+03 0.  0.
          4    1    1    2  502    0 -0.54114907570E+02 -0.27283888152E+03 -0.12180129125E+04  0.12493698146E+04  0.00000000000E+00 0. -1.
         -4    1    1    2    0  501 -0.24212014914E+02  0.34318174470E+02 -0.15309453744E+02  0.44702775519E+02  0.00000000000E+00 0.  1.
<mgrwt>
<rscale>  4 0.69316186E+03</rscale>
<asrwt>0</asrwt>
<pdfrwt beam="1">  1        2 0.42472407E+00 0.69316186E+03</pdfrwt>
<pdfrwt beam="2">  1       -2 0.66938464E-02 0.69316186E+03</pdfrwt>
<totfact> 0.33589073E+02</totfact>
</mgrwt>
</event>
<event>
 5    0  0.5719562E-003  0.5714818E+03  0.7546771E-02  0.9966405E-01
          2   -1    0    0  502    0  0.00000000000E+00  0.00000000000E+00  0.18351071518E+04  0.18351071518E+04  0.00000000000E+00 0. -1.
         -2   -1    0    0    0  501 -0.00000000000E+00 -0.00000000000E+00 -0.44492149749E+02  0.44492149749E+02  0.00000000000E+00 0.  1.
         25    1    1    2    0    0  0.10097186518E+03 -0.19686894943E+03  0.12884419500E+04  0.13132632483E+04  0.12500000000E+03 0.  0.
          3    1    1    2  502    0 -0.10332858171E+03  0.17282389185E+03  0.50336641029E+03  0.54214632379E+03  0.00000000000E+00 0. -1.
         -3    1    1    2    0  501  0.23567165353E+01  0.24045057572E+02 -0.11933582586E+01  0.24189729441E+02  0.00000000000E+00 0.  1.
<mgrwt>
<rscale>  4 0.57148180E+03</rscale>
<asrwt>0</asrwt>
<pdfrwt beam="1">  1        2 0.28232412E+00 0.57148180E+03</pdfrwt>
<pdfrwt beam="2">  1       -2 0.68449475E-02 0.57148180E+03</pdfrwt>
<totfact> 0.10708337E+03</totfact>
</mgrwt>
</event>
<event>
 5    0  0.5719562E-003  0.6194321E+03  0.7546771E-02  0.9865891E-01
          1   -1    0    0  502    0  0.00000000000E+00  0.00000000000E+00  0.20084849634E+03  0.20084849634E+03  0.00000000000E+00 0. -1.
         -1   -1    0    0    0  501 -0.00000000000E+00 -0.00000000000E+00 -0.47759395036E+03  0.47759395036E+03  0.00000000000E+00 0.  1.
         25    1    1    2    0    0  0.26585368238E+03  0.35086858504E+02 -0.37281140496E+02  0.29820152835E+03  0.12500000000E+03 0.  0.
          3    1    1    2  502    0 -0.55973460166E+02 -0.36324549929E+02 -0.12369637754E+03  0.14054641577E+03  0.00000000000E+00 0.  1.
         -3    1    1    2    0  501 -0.20988022222E+03  0.12376914247E+01 -0.11576793598E+03  0.23969450256E+03  0.00000000000E+00 0. -1.
<mgrwt>
<rscale>  4 0.61943208E+03</rscale>
<asrwt>0</asrwt>
<pdfrwt beam="1">  1        1 0.30899769E-01 0.61943208E+03</pdfrwt>
<pdfrwt beam="2">  1       -1 0.73475992E-01 0.61943208E+03</pdfrwt>
<totfact> 0.28028279E+02</totfact>
</mgrwt>
</event>
<event>
 5    0  0.5719562E-003  0.8287659E+03  0.7546771E-02  0.9519288E-01
         -2   -1    0    0    0  501 -0.00000000000E+00  0.00000000000E+00  0.96408523168E+02  0.96408523168E+02  0.00000000000E+00 0.  1.
          2   -1    0    0  502    0  0.00000000000E+00 -0.00000000000E+00 -0.17811000846E+04  0.17811000846E+04  0.00000000000E+00 0. -1.
         25    1    1    2    0    0 -0.39637468300E+02  0.20899263137E+03 -0.16495665658E+03  0.29679074684E+03  0.12500000000E+03 0.  0.
          4    1    1    2  502    0  0.10970637447E+03 -0.12950031850E+03 -0.14351009898E+04  0.14451023051E+04  0.00000000000E+00 0. -1.
         -4    1    1    2    0  501 -0.70068906172E+02 -0.79492312870E+02 -0.84633914991E+02  0.13561555583E+03  0.00000000000E+00 0.  1.
<mgrwt>
<rscale>  4 0.82876590E+03</rscale>
<asrwt>0</asrwt>
<pdfrwt beam="1">  1        2 0.27401539E+00 0.82876590E+03</pdfrwt>
<pdfrwt beam="2">  1       -2 0.14832081E-01 0.82876590E+03</pdfrwt>
<totfact> 0.31973400E+02</totfact>
</mgrwt>
</event>
<event>
 5    0  0.5719562E-003  0.1111906E+04  0.7546771E-02  0.9193664E-01
          2   -1    0    0  502    0  0.00000000000E+00  0.00000000000E+00  0.97693704982E+03  0.97693704982E+03  0.00000000000E+00 0.  1.
         -2   -1    0    0    0  501 -0.00000000000E+00 -0.00000000000E+00 -0.31638045848E+03  0.31638045848E+03  0.00000000000E+00 0. -1.
         25    1    1    2    0    0 -0.37490104316E+03  0.20839274390E+03 -0.54479453401E+02  0.45007925825E+03  0.12500000000E+03 0.  0.
          1    1    1    2  502    0  0.41479040979E+02 -0.57333730317E+02  0.19376398257E+03  0.20628172099E+03  0.00000000000E+00 0. -1.
         -1    1    1    2    0  501  0.33342200218E+03 -0.15105901358E+03  0.52127206216E+03  0.63695652906E+03  0.00000000000E+00 0.  1.
<mgrwt>
<rscale>  4 0.11119061E+04</rscale>
<asrwt>0</asrwt>
<pdfrwt beam="1">  1        2 0.15029801E+00 0.11119061E+04</pdfrwt>
<pdfrwt beam="2">  1       -2 0.48673917E-01 0.11119061E+04</pdfrwt>
<totfact> 0.10336502E+02</totfact>
</mgrwt>
</event>
<event>
 5    0  0.5719562E-003  0.5469677E+03  0.7546771E-02  0.1002198E+00
         -2   -1    0    0    0  501 -0.00000000000E+00  0.00000000000E+00  0.17517619013E+03  0.17517619013E+03  0.00000000000E+00 0. -1.
          2   -1    0    0  502    0  0.00000000000E+00 -0.00000000000E+00 -0.42696101690E+03  0.42696101690E+03  0.00000000000E+00 0.  1.
         25    1    1    2    0    0 -0.16503105606E+03 -0.17209625772E+03 -0.21839863639E+03  0.34666314451E+03  0.12500000000E+03 0.  0.
          2    1    1    2  502    0  0.59770087461E+02  0.30751325667E+02 -0.41601219946E+02  0.79049154874E+02  0.00000000000E+00 0.  1.
         -2    1    1    2    0  501  0.10526096860E+03  0.14134493206E+03  0.82150295545E+01  0.17642490765E+03  0.00000000000E+00 0. -1.
<mgrwt>
<rscale>  4 0.54696766E+03</rscale>
<asrwt>0</asrwt>
<pdfrwt beam="1">  1        2 0.65686309E-01 0.54696766E+03</pdfrwt>
<pdfrwt beam="2">  1       -2 0.26950183E-01 0.54696766E+03</pdfrwt>
<totfact> 0.92606301E+02</totfact>
</mgrwt>
</event>
<event>
 5    0  0.5719562E-003  0.7470666E+03  0.7546771E-02  0.9639964E-01
          2   -1    0    0  502    0  0.00000000000E+00  0.00000000000E+00  0.23010024681E+04  0.23010024681E+04  0.00000000000E+00 0. -1.
         -2   -1    0    0    0  501 -0.00000000000E+00 -0.00000000000E+00 -0.60637542713E+02  0.60637542713E+02  0.00000000000E+00 0.  1.
         25    1    1    2    0    0  0.10676900157E+03  0.19323776994E+03  0.32715018095E+03  0.41399601004E+03  0.12500000000E+03 0.  0.
          3    1    1    2  502    0 -0.13171715392E+03 -0.37521196932E+02  0.34004371462E+03  0.36658829319E+03  0.00000000000E+00 0.  1.
         -3    1    1    2    0  501  0.24948152356E+02 -0.15571657301E+03  0.15731710298E+04  0.15810557076E+04  0.00000000000E+00 0. -1.
<mgrwt>
<rscale>  4 0.74706662E+03</rscale>
<asrwt>0</asrwt>
<pdfrwt beam="1">  1        2 0.35400031E+00 0.74706662E+03</pdfrwt>
<pdfrwt beam="2">  1       -2 0.93288545E-02 0.74706662E+03</pdfrwt>
<totfact> 0.35905337E+02</totfact>
</mgrwt>
</event>
<event>
 5    0  0.5719562E-003  0.5610016E+03  0.7546771E-02  0.9989791E-01
         -1   -1    0    0    0  501 -0.00000000000E+00  0.00000000000E+00  0.27471981702E+03  0.27471981702E+03  0.00000000000E+00 0. -1.
          1   -1    0    0  502    0  0.00000000000E+00 -0.00000000000E+00 -0.28640339157E+03  0.28640339157E+03  0.00000000000E+00 0.  1.
         25    1    1    2    0    0  0.11476699128E+03 -0.17295522652E+03 -0.16677766996E+03  0.29415092022E+03  0.12500000000E+03 0.  0.
          4    1    1    2  502    0 -0.58499090769E+02  0.96509662897E+02  0.12262210564E+03  0.16665065090E+03  0.00000000000E+00 0. -1.
         -4    1    1    2    0  501 -0.56267900510E+02  0.76445563627E+02  0.32471989761E+02  0.10032163747E+03  0.00000000000E+00 0.  1.
<mgrwt>
<rscale>  4 0.56100156E+03</rscale>
<asrwt>0</asrwt>
<pdfrwt beam="1">  1        1 0.44062060E-01 0.56100156E+03</pdfrwt>
<pdfrwt beam="2">  1       -1 0.42264587E-01 0.56100156E+03</pdfrwt>
<totfact> 0.51820269E+02</totfact>
</mgrwt>
</event>
<event>
 5    0  0.5719562E-003  0.5387319E+03  0.7546771E-02  0.1004136E+00
         -1   -1    0    0    0  501 -0.00000000000E+00  0.00000000000E+00  0.36466584289E+03  0.36466584289E+03  0.00000000000E+00 0. -1.
          1   -1    0    0  502    0  0.00000000000E+00 -0.00000000000E+00 -0.19897120593E+03  0.19897120593E+03  0.00000000000E+00 0.  1.
         25    1    1    2    0    0  0.17684435476E+03  0.10691896292E+03  0.21143522438E+03  0.32099134654E+03  0.12500000000E+03 0.  0.
          2    1    1    2  502    0 -0.16162096635E+03 -0.12772173146E+03 -0.21249927087E+02  0.20708871734E+03  0.00000000000E+00 0.  1.
         -2    1    1    2    0  501 -0.15223388415E+02  0.20802768543E+02 -0.24490660342E+02  0.35556984938E+02  0.00000000000E+00 0. -1.
<mgrwt>
<rscale>  4 0.53873185E+03</rscale>
<asrwt>0</asrwt>
<pdfrwt beam="1">  1        1 0.30610955E-01 0.53873185E+03</pdfrwt>
<pdfrwt beam="2">  1       -1 0.56102437E-01 0.53873185E+03</pdfrwt>
<totfact> 0.48703749E+02</totfact>
</mgrwt>
</event>
<event>
 5    0  0.5719562E-003  0.5569233E+03  0.7546771E-02  0.9999040E-01
          2   -1    0    0  502    0  0.00000000000E+00  0.00000000000E+00  0.15717006552E+03  0.15717006552E+03  0.00000000000E+00 0.  1.
         -2   -1    0    0    0  501 -0.00000000000E+00 -0.00000000000E+00 -0.49335663497E+03  0.49335663497E+03  0.00000000000E+00 0. -1.
         25    1    1    2    0    0 -0.18276660474E+01 -0.21481113680E+03 -0.29839114056E+01  0.24855797832E+03  0.12500000000E+03 0.  0.
          1    1    1    2  502    0  0.19381686718E+02  0.17860489719E+03 -0.23471205394E+03  0.29557589101E+03  0.00000000000E+00 0. -1.
         -1    1    1    2    0  501 -0.17554020671E+02  0.36206239616E+02 -0.98490604101E+02  0.10639283117E+03  0.00000000000E+00 0.  1.
<mgrwt>
<rscale>  4 0.55692331E+03</rscale>
<asrwt>0</asrwt>
<pdfrwt beam="1">  1        2 0.24180010E-01 0.55692331E+03</pdfrwt>
<pdfrwt beam="2">  1       -2 0.75901020E-01 0.55692331E+03</pdfrwt>
<totfact> 0.35783559E+02</totfact>
</mgrwt>
</event>
<event>
 5    0  0.5719562E-003  0.4587876E+03  0.7546771E-02  0.1025133E+00
         -3   -1    0    0    0  501 -0.00000000000E+00  0.00000000000E+00  0.66867468527E+03  0.66867468527E+03  0.00000000000E+00 0. -1.
          3   -1    0    0  502    0  0.00000000000E+00 -0.00000000000E+00 -0.78695243933E+02  0.78695243933E+02  0.00000000000E+00 0.  1.
         25    1    1    2    0    0  0.10616891105E+03  0.17659190612E+03  0.36878150275E+03  0.44054663289E+03  0.12500000000E+03 0.  0.
          2    1    1    2  502    0 -0.92460308178E+02 -0.13481259779E+03  0.19909861287E+03  0.25761134051E+03  0.00000000000E+00 0. -1.
         -2    1    1    2    0  501 -0.13708602870E+02 -0.41779308327E+02  0.22099325718E+02  0.49211955805E+02  0.00000000000E+00 0.  1.
<mgrwt>
<rscale>  4 0.45878761E+03</rscale>
<asrwt>0</asrwt>
<pdfrwt beam="1">  1        3 0.12106961E-01 0.45878761E+03</pdfrwt>
<pdfrwt beam="2">  1       -3 0.10287302E+00 0.45878761E+03</pdfrwt>
<totfact> 0.11798586E+02</totfact>
</mgrwt>
</event>
<event>
 5    0  0.5719562E-003  0.7900686E+03  0.7546771E-02  0.9574505E-01
          2   -1    0    0  502    0  0.00000000000E+00  0.00000000000E+00  0.11152861588E+04  0.11152861588E+04  0.00000000000E+00 0.  1.
         -2   -1    0    0    0  501 -0.00000000000E+00 -0.00000000000E+00 -0.13992111375E+03  0.13992111375E+03  0.00000000000E+00 0. -1.
         25    1    1    2    0    0  0.50729649460E+02 -0.34209534944E+03  0.71350963253E+03  0.80269777697E+03  0.12500000000E+03 0.  0.
          2    1    1    2  502    0 -0.58709272875E+02  0.31156205737E+03  0.17954027687E+03  0.36435203490E+03  0.00000000000E+00 0. -1.
         -2    1    1    2    0  501  0.79796234147E+01  0.30533292071E+02  0.82315135636E+02  0.88157460656E+02  0.00000000000E+00 0.  1.
<mgrwt>
<rscale>  4 0.79006856E+03</rscale>
<asrwt>0</asrwt>
<pdfrwt beam="1">  1        2 0.17158248E+00 0.79006856E+03</pdfrwt>
<pdfrwt beam="2">  1       -2 0.21526326E-01 0.79006856E+03</pdfrwt>
<totfact> 0.40181513E+02</totfact>
</mgrwt>
</event>
<event>
 5    0  0.5719562E-003  0.4799048E+03  0.7546771E-02  0.1019161E+00
         -2   -1    0    0    0  501 -0.00000000000E+00  0.00000000000E+00  0.48037172744E+03  0.48037172744E+03  0.00000000000E+00 0. -1.
          2   -1    0    0  502    0  0.00000000000E+00 -0.00000000000E+00 -0.11985955820E+03  0.11985955820E+03  0.00000000000E+00 0.  1.
         25    1    1    2    0    0  0.21572021569E+03  0.33152869729E+02  0.15506577797E+03  0.29547372087E+03  0.12500000000E+03 0.  0.
          2    1    1    2  502    0 -0.39162752844E+02  0.87106145496E+01  0.60143063057E+02  0.72296500953E+02  0.00000000000E+00 0.  1.
         -2    1    1    2    0  501 -0.17655746284E+03 -0.41863484279E+02  0.14530332822E+03  0.23246106382E+03  0.00000000000E+00 0. -1.
<mgrwt>
<rscale>  4 0.47990475E+03</rscale>
<asrwt>0</asrwt>
<pdfrwt beam="1">  1        2 0.18439932E-01 0.47990475E+03</pdfrwt>
<pdfrwt beam="2">  1       -2 0.73903342E-01 0.47990475E+03</pdfrwt>
<totfact> 0.52028097E+02</totfact>
</mgrwt>
</event>
<event>
 5    0  0.5719562E-003  0.6619646E+03  0.7546771E-02  0.9784584E-01
          2   -1    0    0  502    0  0.00000000000E+00  0.00000000000E+00  0.29455608467E+04  0.29455608467E+04  0.00000000000E+00 0.  1.
         -2   -1    0    0    0  501 -0.00000000000E+00 -0.00000000000E+00 -0.37191314768E+02  0.37191314768E+02  0.00000000000E+00 0. -1.
         25    1    1    2    0    0 -0.19970312289E+03 -0.72779909028E+02  0.25591400829E+04  0.25709922630E+04  0.12500000000E+03 0.  0.
          4    1    1    2  502    0  0.17531529637E+03  0.50927166919E+02  0.26894961825E+03  0.32505834342E+03  0.00000000000E+00 0. -1.
         -4    1    1    2    0  501  0.24387826521E+02  0.21852742109E+02  0.80279830840E+02  0.86701555117E+02  0.00000000000E+00 0.  1.
<mgrwt>
<rscale>  4 0.66196459E+03</rscale>
<asrwt>0</asrwt>
<pdfrwt beam="1">  1        2 0.45316302E+00 0.66196459E+03</pdfrwt>
<pdfrwt beam="2">  1       -2 0.57217431E-02 0.66196459E+03</pdfrwt>
<totfact> 0.33490688E+02</totfact>
</mgrwt>
</event>
<event>
 5    0  0.5719562E-003  0.6200883E+03  0.7546771E-02  0.9864584E-01
         -2   -1    0    0    0  501 -0.00000000000E+00  0.00000000000E+00  0.21309255454E+03  0.21309255454E+03  0.00000000000E+00 0. -1.
          2   -1    0    0  502    0  0.00000000000E+00 -0.00000000000E+00 -0.45110618550E+03  0.45110618550E+03  0.00000000000E+00 0.  1.
         25    1    1    2    0    0 -0.10151426208E+03 -0.20000718488E+03 -0.30974147345E+03  0.40233418918E+03  0.12500000000E+03 0.  0.
          3    1    1    2  502    0  0.78011455120E+02  0.10156723952E+03 -0.14524198212E+02  0.12889004464E+03  0.00000000000E+00 0.  1.
         -3    1    1    2    0  501  0.23502806961E+02  0.98439945356E+02  0.86252040710E+02  0.13297450622E+03  0.00000000000E+00 0. -1.
<mgrwt>
<rscale>  4 0.62008828E+03</rscale>
<asrwt>0</asrwt>
<pdfrwt beam="1">  1        2 0.69400951E-01 0.62008828E+03</pdfrwt>
<pdfrwt beam="2">  1       -2 0.32783470E-01 0.62008828E+03</pdfrwt>
<totfact> 0.60567300E+02</totfact>
</mgrwt>
</event>
<event>
 5    0  0.5719562E-003  0.6999615E+03  0.7546771E-02  0.9717298E-01
         -2   -1    0    0    0  501 -0.00000000000E+00  0.00000000000E+00  0.22420917542E+04  0.22420917542E+04  0.00000000000E+00 0. -1.
          2   -1    0    0  502    0  0.00000000000E+00 -0.00000000000E+00 -0.54630472494E+02  0.54630472494E+02  0.00000000000E+00 0.  1.
         25    1    1    2    0    0 -0.67331484952E+02 -0.21230132377E+03  0.80224326566E+03  0.84191723954E+03  0.12500000000E+03 0.  0.
          3    1    1    2  502    0  0.17837389166E+03  0.15403004747E+03  0.42108426460E+03  0.48254995455E+03  0.00000000000E+00 0.  1.
         -3    1    1    2    0  501 -0.11104240671E+03  0.58271276301E+02  0.96413375143E+03  0.97225503257E+03  0.00000000000E+00 0. -1.
<mgrwt>
<rscale>  4 0.69996152E+03</rscale>
<asrwt>0</asrwt>
<pdfrwt beam="1">  1        2 0.84046898E-02 0.69996152E+03</pdfrwt>
<pdfrwt beam="2">  1       -2 0.34493712E+00 0.69996152E+03</pdfrwt>
<totfact> 0.14734090E+01</totfact>
</mgrwt>
</event>
<event>
 5    0  0.5719562E-003  0.6335309E+03  0.7546771E-02  0.9838183E-01
          2   -1    0    0  502    0  0.00000000000E+00  0.00000000000E+00  0.10865853253E+04  0.10865853253E+04  0.00000000000E+00 0.  1.
         -2   -1    0    0    0  501 -0.00000000000E+00 -0.00000000000E+00 -0.92344658508E+02  0.92344658508E+02  0.00000000000E+00 0. -1.
         25    1    1    2    0    0 -0.14679713008E+03  0.25825711652E+03  0.45685141156E+03  0.55909243232E+03  0.12500000000E+03 0.  0.
          4    1    1    2  502    0  0.14145735478E+03 -0.23252809764E+03  0.52370930405E+03  0.59021261809E+03  0.00000000000E+00 0.  1.
         -4    1    1    2    0  501  0.53397753069E+01 -0.25729018880E+02  0.13679951137E+02  0.29624933350E+02  0.00000000000E+00 0. -1.
<mgrwt>
<rscale>  4 0.63353090E+03</rscale>
<asrwt>0</asrwt>
<pdfrwt beam="1">  1        2 0.16716696E+00 0.63353090E+03</pdfrwt>
<pdfrwt beam="2">  1       -2 0.14206871E-01 0.63353090E+03</pdfrwt>
<totfact> 0.86059048E+02</totfact>
</mgrwt>
</event>
<event>
 5    0  0.5719562E-003  0.5663560E+03  0.7546771E-02  0.9977775E-01
          1   -1    0    0  502    0  0.00000000000E+00  0.00000000000E+00  0.17916405732E+03  0.17916405732E+03  0.00000000000E+00 0. -1.
         -1   -1    0    0    0  501 -0.00000000000E+00 -0.00000000000E+00 -0.44757744157E+03  0.44757744157E+03  0.00000000000E+00 0.  1.
         25    1    1    2    0    0  0.10205609780E+03 -0.21831450810E+03 -0.23646288112E+03  0.36002272941E+03  0.12500000000E+03 0.  0.
          2    1    1    2  502    0 -0.27238928150E+02  0.15757963306E+03 -0.52254382939E+02  0.16823739328E+03  0.00000000000E+00 0.  1.
         -2    1    1    2    0  501 -0.74817169655E+02  0.60734875037E+02  0.20303879814E+02  0.98481376190E+02  0.00000000000E+00 0. -1.
<mgrwt>
<rscale>  4 0.56635604E+03</rscale>
<asrwt>0</asrwt>
<pdfrwt beam="1">  1        1 0.27563702E-01 0.56635604E+03</pdfrwt>
<pdfrwt beam="2">  1       -1 0.68858067E-01 0.56635604E+03</pdfrwt>
<totfact> 0.37176715E+02</totfact>
</mgrwt>
</event>
<event>
 5    0  0.5719562E-003  0.7479146E+03  0.7546771E-02  0.9638628E-01
          1   -1    0    0  502    0  0.00000000000E+00  0.00000000000E+00  0.31076021460E+03  0.31076021460E+03  0.00000000000E+00 0.  1.
         -1   -1    0    0    0  501 -0.00000000000E+00 -0.00000000000E+00 -0.45000637558E+03  0.45000637558E+03  0.00000000000E+00 0. -1.
         25    1    1    2    0    0 -0.25283112335E+03  0.11931321203E+03 -0.18793158313E+03  0.35930836261E+03  0.12500000000E+03 0.  0.
          4    1    1    2  502    0  0.70062385285E+02 -0.12413093159E+03 -0.92963532822E+02  0.17017474679E+03  0.00000000000E+00 0. -1.
         -4    1    1    2    0  501  0.18276873807E+03  0.48177195615E+01  0.14164895498E+03  0.23128348078E+03  0.00000000000E+00 0.  1.
<mgrwt>
<rscale>  4 0.74791464E+03</rscale>
<asrwt>0</asrwt>
<pdfrwt beam="1">  1        1 0.47809264E-01 0.74791464E+03</pdfrwt>
<pdfrwt beam="2">  1       -1 0.69231750E-01 0.74791464E+03</pdfrwt>
<totfact> 0.17914456E+02</totfact>
</mgrwt>
</event>
<event>
 5    0  0.5719562E-003  0.7522596E+03  0.7546771E-02  0.9631812E-01
          2   -1    0    0  502    0  0.00000000000E+00  0.00000000000E+00  0.15691048167E+03  0.15691048167E+03  0.00000000000E+00 0.  1.
         -2   -1    0    0    0  501 -0.00000000000E+00 -0.00000000000E+00 -0.90161995730E+03  0.90161995730E+03  0.00000000000E+00 0. -1.
         25    1    1    2    0    0 -0.71525464991E+02 -0.23624540745E+03 -0.48813649967E+03  0.56109716359E+03  0.12500000000E+03 0.  0.
          1    1    1    2  502    0  0.15050739262E+03 -0.21011435499E+02 -0.13026574910E+03  0.20015774040E+03  0.00000000000E+00 0. -1.
         -1    1    1    2    0  501 -0.78981927625E+02  0.25725684294E+03 -0.12630722686E+03  0.29727553497E+03  0.00000000000E+00 0.  1.
<mgrwt>
<rscale>  4 0.75225959E+03</rscale>
<asrwt>0</asrwt>
<pdfrwt beam="1">  1        2 0.24140074E-01 0.75225959E+03</pdfrwt>
<pdfrwt beam="2">  1       -2 0.13871076E+00 0.75225959E+03</pdfrwt>
<totfact> 0.84783304E+01</totfact>
</mgrwt>
</event>
<event>
 5    0  0.5719562E-003  0.7750127E+03  0.7546771E-02  0.9596906E-01
          2   -1    0    0  502    0  0.00000000000E+00  0.00000000000E+00  0.38085951825E+03  0.38085951825E+03  0.00000000000E+00 0. -1.
         -2   -1    0    0    0  501 -0.00000000000E+00 -0.00000000000E+00 -0.39426917076E+03  0.39426917076E+03  0.00000000000E+00 0.  1.
         25    1    1    2    0    0 -0.22014938391E+03  0.11681626242E+03  0.12433218621E+03  0.30527902471E+03  0.12500000000E+03 0.  0.
          2    1    1    2  502    0  0.27580587517E+03 -0.19502618442E+03 -0.53239693996E+02  0.34196280266E+03  0.00000000000E+00 0. -1.
         -2    1    1    2    0  501 -0.55656491261E+02  0.78209921991E+02 -0.84502144723E+02  0.12788686164E+03  0.00000000000E+00 0.  1.
<mgrwt>
<rscale>  4 0.77501269E+03</rscale>
<asrwt>0</asrwt>
<pdfrwt beam="1">  1        2 0.58593772E-01 0.77501269E+03</pdfrwt>
<pdfrwt beam="2">  1       -2 0.60656795E-01 0.77501269E+03</pdfrwt>
<totfact> 0.21447050E+02</totfact>
</mgrwt>
</event>
<event>
 5    0  0.5719562E-003  0.6507190E+03  0.7546771E-02  0.9805431E-01
          2   -1    0    0  502    0  0.00000000000E+00  0.00000000000E+00  0.12757049012E+03  0.12757049012E+03  0.00000000000E+00 0. -1.
         -2   -1    0    0    0  501 -0.00000000000E+00 -0.00000000000E+00 -0.82980632150E+03  0.82980632150E+03  0.00000000000E+00 0.  1.
         25    1    1    2    0    0 -0.13843443273E+03  0.16584519079E+03 -0.37056504321E+03  0.44677977877E+03  0.12500000000E+03 0.  0.
          3    1    1    2  502    0  0.17695279626E+03 -0.11335001118E+03 -0.42772985397E+02  0.21445289790E+03  0.00000000000E+00 0. -1.
         -3    1    1    2    0  501 -0.38518363535E+02 -0.52495179610E+02 -0.28889780278E+03  0.29614413495E+03  0.00000000000E+00 0.  1.
<mgrwt>
<rscale>  4 0.65071898E+03</rscale>
<asrwt>0</asrwt>
<pdfrwt beam="1">  1        2 0.19626229E-01 0.65071898E+03</pdfrwt>
<pdfrwt beam="2">  1       -2 0.12766251E+00 0.65071898E+03</pdfrwt>
<totfact> 0.13382352E+02</totfact>
</mgrwt>
</event>
<event>
 5    0  0.5719562E-003  0.6440441E+03  0.7546771E-02  0.9818020E-01
         -1   -1    0    0    0  501 -0.00000000000E+00  0.00000000000E+00  0.82245086448E+02  0.82245086448E+02  0.00000000000E+00 0.  1.
          1   -1    0    0  502    0  0.00000000000E+00 -0.00000000000E+00 -0.12608437371E+04  0.12608437371E+04  0.00000000000E+00 0. -1.
         25    1    1    2    0    0 -0.15699446555E+03  0.23481396810E+03 -0.49768238081E+03  0.58574534910E+03  0.12500000000E+03 0.  0.
          3    1    1    2  502    0  0.14603305801E+03 -0.26159505986E+03 -0.58645571775E+03  0.65854987530E+03  0.00000000000E+00 0. -1.
         -3    1    1    2    0  501  0.10961407538E+02  0.26781091754E+02 -0.94460552043E+02  0.98793599100E+02  0.00000000000E+00 0.  1.
<mgrwt>
<rscale>  4 0.64404410E+03</rscale>
<asrwt>0</asrwt>
<pdfrwt beam="1">  1        1 0.19397594E+00 0.64404410E+03</pdfrwt>
<pdfrwt beam="2">  1       -1 0.12653092E-01 0.64404410E+03</pdfrwt>
<totfact> 0.42613553E+02</totfact>
</mgrwt>
</event>
<event>
 5    0  0.5719562E-003  0.1265209E+04  0.7546771E-02  0.9057619E-01
         -1   -1    0    0    0  501 -0.00000000000E+00  0.00000000000E+00  0.24276614302E+04  0.24276614302E+04  0.00000000000E+00 0.  1.
          1   -1    0    0  502    0  0.00000000000E+00 -0.00000000000E+00 -0.16484512946E+03  0.16484512946E+03  0.00000000000E+00 0. -1.
         25    1    1    2    0    0 -0.37985157442E+03 -0.24212990572E+03  0.25668814602E+03  0.53331783595E+03  0.12500000000E+03 0.  0.
          1    1    1    2  502    0  0.16228768783E+03  0.96916909707E+02  0.10975091157E+04  0.11136680116E+04  0.00000000000E+00 0. -1.
         -1    1    1    2    0  501  0.21756388659E+03  0.14521299601E+03  0.90861903897E+03  0.94552071206E+03  0.00000000000E+00 0.  1.
<mgrwt>
<rscale>  4 0.12652085E+04</rscale>
<asrwt>0</asrwt>
<pdfrwt beam="1">  1        1 0.25360791E-01 0.12652085E+04</pdfrwt>
<pdfrwt beam="2">  1       -1 0.37348635E+00 0.12652085E+04</pdfrwt>
<totfact> 0.20672326E+00</totfact>
</mgrwt>
</event>
<event>
 5    0  0.5719562E-003  0.5345832E+03  0.7546771E-02  0.1005127E+00
         -3   -1    0    0    0  501 -0.00000000000E+00  0.00000000000E+00  0.72736630349E+03  0.72736630349E+03  0.00000000000E+00 0.  1.
          3   -1    0    0  502    0  0.00000000000E+00 -0.00000000000E+00 -0.98223954046E+02  0.98223954046E+02  0.00000000000E+00 0. -1.
         25    1    1    2    0    0  0.19601218717E+03  0.10359146382E+03  0.17352837302E+03  0.30804068747E+03  0.12500000000E+03 0.  0.
          4    1    1    2  502    0 -0.10434903505E+03 -0.91291344424E+02  0.18243932499E+03  0.22914392418E+03  0.00000000000E+00 0. -1.
         -4    1    1    2    0  501 -0.91663152122E+02 -0.12300119398E+02  0.27317465144E+03  0.28840564589E+03  0.00000000000E+00 0.  1.
<mgrwt>
<rscale>  4 0.53458318E+03</rscale>
<asrwt>0</asrwt>
<pdfrwt beam="1">  1        3 0.15111378E-01 0.53458318E+03</pdfrwt>
<pdfrwt beam="2">  1       -3 0.11190251E+00 0.53458318E+03</pdfrwt>
<totfact> 0.66300765E+01</totfact>
</mgrwt>
</event>
<event>
 5    0  0.5719562E-003  0.8653258E+03  0.7546771E-02  0.9469995E-01
         -1   -1    0    0    0  501 -0.00000000000E+00  0.00000000000E+00  0.51965851525E+03  0.51965851525E+03  0.00000000000E+00 0.  1.
          1   -1    0    0  502    0  0.00000000000E+00 -0.00000000000E+00 -0.36023116304E+03  0.36023116304E+03  0.00000000000E+00 0. -1.
         25    1    1    2    0    0 -0.87571768950E+02  0.18008186478E+03  0.38578373706E+03  0.45227467818E+03  0.12500000000E+03 0.  0.
          2    1    1    2  502    0  0.97901127352E+02 -0.53617920607E+02  0.50918048892E+02  0.12268724404E+03  0.00000000000E+00 0.  1.
         -2    1    1    2    0  501 -0.10329358401E+02 -0.12646394418E+03 -0.27727443374E+03  0.30492775608E+03  0.00000000000E+00 0. -1.
<mgrwt>
<rscale>  4 0.86532581E+03</rscale>
<asrwt>0</asrwt>
<pdfrwt beam="1">  1        1 0.55420179E-01 0.86532581E+03</pdfrwt>
<pdfrwt beam="2">  1       -1 0.79947464E-01 0.86532581E+03</pdfrwt>
<totfact> 0.10878497E+02</totfact>
</mgrwt>
</event>
<event>
 5    0  0.5719562E-003  0.5565400E+03  0.7546771E-02  0.9999914E-01
         -2   -1    0    0    0  501 -0.00000000000E+00  0.00000000000E+00  0.14613089126E+03  0.14613089126E+03  0.00000000000E+00 0. -1.
          2   -1    0    0  502    0  0.00000000000E+00 -0.00000000000E+00 -0.52989608106E+03  0.52989608106E+03  0.00000000000E+00 0.  1.
         25    1    1    2    0    0 -0.14520255314E+03  0.14488426143E+03 -0.23955097798E+03  0.33924165679E+03  0.12500000000E+03 0.  0.
          3    1    1    2  502    0  0.21830354096E+02 -0.13454055293E+03 -0.16199759295E+03  0.21170957669E+03  0.00000000000E+00 0.  1.
         -3    1    1    2    0  501  0.12337219905E+03 -0.10343708503E+02  0.17783381130E+02  0.12507573884E+03  0.00000000000E+00 0. -1.
<mgrwt>
<rscale>  4 0.55653998E+03</rscale>
<asrwt>0</asrwt>
<pdfrwt beam="1">  1        2 0.81522472E-01 0.55653998E+03</pdfrwt>
<pdfrwt beam="2">  1       -2 0.22481676E-01 0.55653998E+03</pdfrwt>
<totfact> 0.10011042E+03</totfact>
</mgrwt>
</event>
<event>
 5    0  0.5719562E-003  0.5620433E+03  0.7546771E-02  0.9987442E-01
          1   -1    0    0  502    0  0.00000000000E+00  0.00000000000E+00  0.27078716488E+04  0.27078716488E+04  0.00000000000E+00 0.  1.
         -1   -1    0    0    0  501 -0.00000000000E+00 -0.00000000000E+00 -0.29164289963E+02  0.29164289963E+02  0.00000000000E+00 0. -1.
         25    1    1    2    0    0 -0.34470198156E+02 -0.25499260082E+03  0.16714233238E+04  0.16957270855E+04  0.12500000000E+03 0.  0.
          2    1    1    2  502    0  0.43991341728E+02  0.22666308168E+03  0.93506522853E+03  0.96315023353E+03  0.00000000000E+00 0. -1.
         -2    1    1    2    0  501 -0.95211435723E+01  0.28329519141E+02  0.72218806422E+02  0.78158619683E+02  0.00000000000E+00 0.  1.
<mgrwt>
<rscale>  4 0.56204325E+03</rscale>
<asrwt>0</asrwt>
<pdfrwt beam="1">  1        1 0.41659544E+00 0.56204325E+03</pdfrwt>
<pdfrwt beam="2">  1       -1 0.44868159E-02 0.56204325E+03</pdfrwt>
<totfact> 0.22713295E+02</totfact>
</mgrwt>
</event>
<event>
 5    0  0.5719562E-003  0.7075518E+03  0.7546771E-02  0.9704404E-01
         -2   -1    0    0    0  501 -0.00000000000E+00  0.00000000000E+00  0.14687290289E+03  0.14687290289E+03  0.00000000000E+00 0.  1.
          2   -1    0    0  502    0  0.00000000000E+00 -0.00000000000E+00 -0.85214753834E+03  0.85214753834E+03  0.00000000000E+00 0. -1.
         25    1    1    2    0    0  0.27106674604E+02  0.20760097873E+03 -0.71739941029E+03  0.75770696979E+03  0.12500000000E+03 0.  0.
          4    1    1    2  502    0  0.38173004058E+02 -0.57174306902E+02 -0.25056628711E+02  0.73170446567E+02  0.00000000000E+00 0. -1.
         -4    1    1    2    0  501 -0.65279678662E+02 -0.15042667183E+03  0.37181403560E+02  0.16814302487E+03  0.00000000000E+00 0.  1.
<mgrwt>
<rscale>  4 0.70755179E+03</rscale>
<asrwt>0</asrwt>
<pdfrwt beam="1">  1        2 0.13109962E+00 0.70755179E+03</pdfrwt>
<pdfrwt beam="2">  1       -2 0.22595831E-01 0.70755179E+03</pdfrwt>
<totfact> 0.54705034E+02</totfact>
</mgrwt>
</event>
<event>
 5    0  0.5719562E-003  0.4775345E+03  0.7546771E-02  0.1019815E+00
          1   -1    0    0  502    0  0.00000000000E+00  0.00000000000E+00  0.29612435842E+03  0.29612435842E+03  0.00000000000E+00 0.  1.
         -1   -1    0    0    0  501 -0.00000000000E+00 -0.00000000000E+00 -0.19251977958E+03  0.19251977958E+03  0.00000000000E+00 0. -1.
         25    1    1    2    0    0 -0.10741600047E+03 -0.18770490940E+03  0.81563015849E+02  0.26277148956E+03  0.12500000000E+03 0.  0.
          4    1    1    2  502    0  0.33481500424E+02  0.28473274502E+02  0.24454829698E+02  0.50296887846E+02  0.00000000000E+00 0.  1.
         -4    1    1    2    0  501  0.73934500046E+02  0.15923163490E+03 -0.24132667021E+01  0.17557576059E+03  0.00000000000E+00 0. -1.
<mgrwt>
<rscale>  4 0.47753449E+03</rscale>
<asrwt>0</asrwt>
<pdfrwt beam="1">  1        1 0.45557594E-01 0.47753449E+03</pdfrwt>
<pdfrwt beam="2">  1       -1 0.29618428E-01 0.47753449E+03</pdfrwt>
<totfact> 0.93341077E+02</totfact>
</mgrwt>
</event>
<event>
 5    0  0.5719562E-003  0.5384728E+03  0.7546771E-02  0.1004198E+00
         -2   -1    0    0    0  501 -0.00000000000E+00  0.00000000000E+00  0.26733884499E+03  0.26733884499E+03  0.00000000000E+00 0.  1.
          2   -1    0    0  502    0  0.00000000000E+00 -0.00000000000E+00 -0.27114742085E+03  0.27114742085E+03  0.00000000000E+00 0. -1.
         25    1    1    2    0    0 -0.17732293605E+03  0.11226439287E+03  0.12139753768E+03  0.27278027735E+03  0.12500000000E+03 0.  0.
          2    1    1    2  502    0  0.13672974721E+03 -0.84772927411E+02 -0.37442078574E+02  0.16517682114E+03  0.00000000000E+00 0.  1.
         -2    1    1    2    0  501  0.40593188835E+02 -0.27491465457E+02 -0.87764034973E+02  0.10052916735E+03  0.00000000000E+00 0. -1.
<mgrwt>
<rscale>  4 0.53847280E+03</rscale>
<asrwt>0</asrwt>
<pdfrwt beam="1">  1        2 0.41714988E-01 0.53847280E+03</pdfrwt>
<pdfrwt beam="2">  1       -2 0.41129053E-01 0.53847280E+03</pdfrwt>
<totfact> 0.69211553E+02</totfact>
</mgrwt>
</event>
<event>
 5    0  0.5719562E-003  0.7240227E+03  0.7546771E-02  0.9677010E-01
         -1   -1    0    0    0  501 -0.00000000000E+00  0.00000000000E+00  0.54943507817E+03  0.54943507817E+03  0.00000000000E+00 0. -1.
          1   -1    0    0  502    0  0.00000000000E+00 -0.00000000000E+00 -0.23852176698E+03  0.23852176698E+03  0.00000000000E+00 0.  1.
         25    1    1    2    0    0  0.76716944754E+02 -0.22579328908E+03  0.24957265733E+03  0.36712342652E+03  0.12500000000E+03 0.  0.
          3    1    1    2  502    0  0.12140906544E+03  0.76637159126E+01  0.16508625157E+02  0.12276574611E+03  0.00000000000E+00 0.  1.
         -3    1    1    2    0  501 -0.19812601020E+03  0.21812957317E+03  0.44832028694E+02  0.29806767252E+03  0.00000000000E+00 0. -1.
<mgrwt>
<rscale>  4 0.72402272E+03</rscale>
<asrwt>0</asrwt>
<pdfrwt beam="1">  1        1 0.36695657E-01 0.72402272E+03</pdfrwt>
<pdfrwt beam="2">  1       -1 0.84528473E-01 0.72402272E+03</pdfrwt>
<totfact> 0.16623854E+02</totfact>
</mgrwt>
</event>
<event>
 5    0  0.5719562E-003  0.5358234E+03  0.7546771E-02  0.1004830E+00
         -2   -1    0    0    0  501 -0.00000000000E+00  0.00000000000E+00  0.25345864333E+02  0.25345864333E+02  0.00000000000E+00 0.  1.
          2   -1    0    0  502    0  0.00000000000E+00 -0.00000000000E+00 -0.28318890479E+04  0.28318890479E+04  0.00000000000E+00 0. -1.
         25    1    1    2    0    0  0.19596287623E+03 -0.98348777647E+02 -0.11817155740E+04  0.12083669264E+04  0.12500000000E+03 0.  0.
          4    1    1    2  502    0 -0.19948195213E+03  0.58280317612E+02 -0.15504037342E+04  0.15642702400E+04  0.00000000000E+00 0. -1.
         -4    1    1    2    0  501  0.35190759085E+01  0.40068460035E+02 -0.74423875408E+02  0.84597745925E+02  0.00000000000E+00 0.  1.
<mgrwt>
<rscale>  4 0.53582339E+03</rscale>
<asrwt>0</asrwt>
<pdfrwt beam="1">  1        2 0.43567517E+00 0.53582339E+03</pdfrwt>
<pdfrwt beam="2">  1       -2 0.38993644E-02 0.53582339E+03</pdfrwt>
<totfact> 0.71827694E+02</totfact>
</mgrwt>
</event>
<event>
 5    0  0.5719562E-003  0.5031613E+03  0.7546771E-02  0.1012957E+00
          2   -1    0    0  502    0  0.00000000000E+00  0.00000000000E+00  0.27703098863E+04  0.27703098863E+04  0.00000000000E+00 0. -1.
         -2   -1    0    0    0  501 -0.00000000000E+00 -0.00000000000E+00 -0.22846842252E+02  0.22846842252E+02  0.00000000000E+00 0.  1.
         25    1    1    2    0    0  0.22629101389E+03 -0.52752809337E+02  0.14451337540E+04  0.14690224807E+04  0.12500000000E+03 0.  0.
          2    1    1    2  502    0 -0.20214545069E+02 -0.84531402067E+01  0.75595258193E+02  0.78706584686E+02  0.00000000000E+00 0. -1.
         -2    1    1    2    0  501 -0.20607646882E+03  0.61205949544E+02  0.12267340319E+04  0.12454276632E+04  0.00000000000E+00 0.  1.
<mgrwt>
<rscale>  4 0.50316134E+03</rscale>
<asrwt>0</asrwt>
<pdfrwt beam="1">  1        2 0.42620126E+00 0.50316134E+03</pdfrwt>
<pdfrwt beam="2">  1       -2 0.35149010E-02 0.50316134E+03</pdfrwt>
<totfact> 0.91739997E+02</totfact>
</mgrwt>
</event>
<event>
 5    0  0.5719562E-003  0.4606454E+03  0.7546771E-02  0.1024594E+00
         -2   -1    0    0    0  501 -0.00000000000E+00  0.00000000000E+00  0.99002727487E+02  0.99002727487E+02  0.00000000000E+00 0. -1.
          2   -1    0    0  502    0  0.00000000000E+00 -0.00000000000E+00 -0.53582911068E+03  0.53582911068E+03  0.00000000000E+00 0.  1.
         25    1    1    2    0    0  0.19897943966E+03  0.30647249581E+02 -0.16319173308E+03  0.28773010455E+03  0.12500000000E+03 0.  0.
          4    1    1    2  502    0 -0.62053231884E+02 -0.11990117141E+02 -0.37460956291E+02  0.73468971291E+02  0.00000000000E+00 0. -1.
         -4    1    1    2    0  501 -0.13692620778E+03 -0.18657132439E+02 -0.23617369382E+03  0.27363276233E+03  0.00000000000E+00 0.  1.
<mgrwt>
<rscale>  4 0.46064539E+03</rscale>
<asrwt>0</asrwt>
<pdfrwt beam="1">  1        2 0.82435246E-01 0.46064539E+03</pdfrwt>
<pdfrwt beam="2">  1       -2 0.15231189E-01 0.46064539E+03</pdfrwt>
<totfact> 0.19307676E+03</totfact>
</mgrwt>
</event>
<event>
 5    0  0.5719562E-003  0.4764914E+03  0.7546771E-02  0.1020104E+00
          1   -1    0    0  502    0  0.00000000000E+00  0.00000000000E+00  0.67758911415E+03  0.67758911415E+03  0.00000000000E+00 0.  1.
         -1   -1    0    0    0  501 -0.00000000000E+00 -0.00000000000E+00 -0.83769063281E+02  0.83769063281E+02  0.00000000000E+00 0. -1.
         25    1    1    2    0    0 -0.23219412594E+02 -0.21853211358E+03  0.31508409548E+03  0.40397823334E+03  0.12500000000E+03 0.  0.
          1    1    1    2  502    0 -0.49778405861E+00  0.32872589765E+02  0.67971018161E+02  0.75504398923E+02  0.00000000000E+00 0.  1.
         -1    1    1    2    0  501  0.23717196653E+02  0.18565952381E+03  0.21076493723E+03  0.28187554517E+03  0.00000000000E+00 0. -1.
<mgrwt>
<rscale>  4 0.47649137E+03</rscale>
<asrwt>0</asrwt>
<pdfrwt beam="1">  1        1 0.10424448E+00 0.47649137E+03</pdfrwt>
<pdfrwt beam="2">  1       -1 0.12887549E-01 0.47649137E+03</pdfrwt>
<totfact> 0.12105224E+03</totfact>
</mgrwt>
</event>
<event>
 5    0  0.5719562E-003  0.6049300E+03  0.7546771E-02  0.9895230E-01
         -3   -1    0    0    0  501 -0.00000000000E+00  0.00000000000E+00  0.52418793936E+03  0.52418793936E+03  0.00000000000E+00 0. -1.
          3   -1    0    0  502    0  0.00000000000E+00 -0.00000000000E+00 -0.17452724148E+03  0.17452724148E+03  0.00000000000E+00 0.  1.
         25    1    1    2    0    0 -0.23650871437E+03  0.21728530248E+02  0.28485492978E+03  0.39137684144E+03  0.12500000000E+03 0.  0.
          2    1    1    2  502    0  0.18439362389E+03  0.34038588301E+02 -0.25345960916E+02  0.18921430115E+03  0.00000000000E+00 0.  1.
         -2    1    1    2    0  501  0.52115090481E+02 -0.55767118549E+02  0.90151729022E+02  0.11812403825E+03  0.00000000000E+00 0. -1.
<mgrwt>
<rscale>  4 0.60493000E+03</rscale>
<asrwt>0</asrwt>
<pdfrwt beam="1">  1        3 0.26850345E-01 0.60493000E+03</pdfrwt>
<pdfrwt beam="2">  1       -3 0.80644298E-01 0.60493000E+03</pdfrwt>
<totfact> 0.50165060E+01</totfact>
</mgrwt>
</event>
<event>
 5    0  0.5719562E-003  0.6803764E+03  0.7546771E-02  0.9751392E-01
         -2   -1    0    0    0  501 -0.00000000000E+00  0.00000000000E+00  0.96880545844E+02  0.96880545844E+02  0.00000000000E+00 0.  1.
          2   -1    0    0  502    0  0.00000000000E+00 -0.00000000000E+00 -0.11945432073E+04  0.11945432073E+04  0.00000000000E+00 0. -1.
         25    1    1    2    0    0 -0.21688143200E+03 -0.13849152571E+03 -0.70756119717E+03  0.76320724969E+03  0.12500000000E+03 0.  0.
          1    1    1    2  502    0  0.13179557430E+02 -0.29528873284E+02 -0.20062425092E+03  0.20321354569E+03  0.00000000000E+00 0. -1.
         -1    1    1    2    0  501  0.20370187457E+03  0.16802039900E+03 -0.18947721341E+03  0.32500295781E+03  0.00000000000E+00 0.  1.
<mgrwt>
<rscale>  4 0.68037636E+03</rscale>
<asrwt>0</asrwt>
<pdfrwt beam="1">  1        2 0.18377587E+00 0.68037636E+03</pdfrwt>
<pdfrwt beam="2">  1       -2 0.14904700E-01 0.68037636E+03</pdfrwt>
<totfact> 0.68258776E+02</totfact>
</mgrwt>
</event>
<event>
 5    0  0.5719562E-003  0.6391405E+03  0.7546771E-02  0.9827372E-01
         -2   -1    0    0    0  501 -0.00000000000E+00  0.00000000000E+00  0.26557489750E+03  0.26557489750E+03  0.00000000000E+00 0. -1.
          2   -1    0    0  502    0  0.00000000000E+00 -0.00000000000E+00 -0.38454361475E+03  0.38454361475E+03  0.00000000000E+00 0.  1.
         25    1    1    2    0    0 -0.23443026904E+03 -0.16590808076E+03 -0.19820855953E+02  0.31384854410E+03  0.12500000000E+03 0.  0.
          3    1    1    2  502    0  0.22869988459E+03  0.18945620106E+03 -0.89363145841E+02  0.31013394068E+03  0.00000000000E+00 0.  1.
         -3    1    1    2    0  501  0.57303844559E+01 -0.23548120297E+02 -0.97847154532E+01  0.26136027473E+02  0.00000000000E+00 0. -1.
<mgrwt>
<rscale>  4 0.63914046E+03</rscale>
<asrwt>0</asrwt>
<pdfrwt beam="1">  1        2 0.59160556E-01 0.63914046E+03</pdfrwt>
<pdfrwt beam="2">  1       -2 0.40857677E-01 0.63914046E+03</pdfrwt>
<totfact> 0.47547882E+02</totfact>
</mgrwt>
</event>
<event>
 5    0  0.5719562E-003  0.7246579E+03  0.7546771E-02  0.9675969E-01
         -2   -1    0    0    0  501 -0.00000000000E+00  0.00000000000E+00  0.53604204903E+02  0.53604204903E+02  0.00000000000E+00 0. -1.
          2   -1    0    0  502    0  0.00000000000E+00 -0.00000000000E+00 -0.24491038181E+04  0.24491038181E+04  0.00000000000E+00 0.  1.
         25    1    1    2    0    0  0.22575945807E+03  0.72186493180E+02 -0.21194790953E+04  0.21363508275E+04  0.12500000000E+03 0.  0.
          4    1    1    2  502    0 -0.18866249151E+03 -0.75615566403E+02 -0.24048814549E+03  0.31487425698E+03  0.00000000000E+00 0. -1.
         -4    1    1    2    0  501 -0.37096966561E+02  0.34290732226E+01 -0.35532372407E+02  0.51482938534E+02  0.00000000000E+00 0.  1.
<mgrwt>
<rscale>  4 0.72465789E+03</rscale>
<asrwt>0</asrwt>
<pdfrwt beam="1">  1        2 0.37678521E+00 0.72465789E+03</pdfrwt>
<pdfrwt beam="2">  1       -2 0.82468007E-02 0.72465789E+03</pdfrwt>
<totfact> 0.36262249E+02</totfact>
</mgrwt>
</event>
<event>
 5    0  0.5719562E-003  0.5472589E+03  0.7546771E-02  0.1002130E+00
          2   -1    0    0  502    0  0.00000000000E+00  0.00000000000E+00  0.46769266382E+03  0.46769266382E+03  0.00000000000E+00 0. -1.
         -2   -1    0    0    0  501 -0.00000000000E+00 -0.00000000000E+00 -0.16009035834E+03  0.16009035834E+03  0.00000000000E+00 0.  1.
         25    1    1    2    0    0 -0.17168929998E+03 -0.17842834983E+03  0.12415282497E+03  0.30389606069E+03  0.12500000000E+03 0.  0.
          3    1    1    2  502    0  0.53349591066E+02  0.10638764713E+03  0.42837981788E+02  0.12648953717E+03  0.00000000000E+00 0.  1.
         -3    1    1    2    0  501  0.11833970891E+03  0.72040702700E+02  0.14061149871E+03  0.19739742430E+03  0.00000000000E+00 0. -1.
<mgrwt>
<rscale>  4 0.54725894E+03</rscale>
<asrwt>0</asrwt>
<pdfrwt beam="1">  1        2 0.71952717E-01 0.54725894E+03</pdfrwt>
<pdfrwt beam="2">  1       -2 0.24629286E-01 0.54725894E+03</pdfrwt>
<totfact> 0.98260219E+02</totfact>
</mgrwt>
</event>
<event>
 5    0  0.5719562E-003  0.7391522E+03  0.7546771E-02  0.9652524E-01
          1   -1    0    0  502    0  0.00000000000E+00  0.00000000000E+00  0.61928609586E+03  0.61928609586E+03  0.00000000000E+00 0. -1.
         -1   -1    0    0    0  501 -0.00000000000E+00 -0.00000000000E+00 -0.22055475527E+03  0.22055475527E+03  0.00000000000E+00 0.  1.
         25    1    1    2    0    0 -0.29064437612E+03 -0.12862703930E+03  0.13376949221E+03  0.36679469142E+03  0.12500000000E+03 0.  0.
          1    1    1    2  502    0  0.37093154614E+02 -0.47210335094E+02 -0.86387844703E+01  0.60657616637E+02  0.00000000000E+00 0. -1.
         -1    1    1    2    0  501  0.25355122151E+03  0.17583737439E+03  0.27360063285E+03  0.41238854307E+03  0.00000000000E+00 0.  1.
<mgrwt>
<rscale>  4 0.73915220E+03</rscale>
<asrwt>0</asrwt>
<pdfrwt beam="1">  1        1 0.95274783E-01 0.73915220E+03</pdfrwt>
<pdfrwt beam="2">  1       -1 0.33931501E-01 0.73915220E+03</pdfrwt>
<totfact> 0.27135760E+02</totfact>
</mgrwt>
</event>
<event>
 5    0  0.5719562E-003  0.5873109E+03  0.7546771E-02  0.9932087E-01
         -2   -1    0    0    0  501 -0.00000000000E+00  0.00000000000E+00  0.58372535666E+02  0.58372535666E+02  0.00000000000E+00 0. -1.
          2   -1    0    0  502    0  0.00000000000E+00 -0.00000000000E+00 -0.14772963363E+04  0.14772963363E+04  0.00000000000E+00 0.  1.
         25    1    1    2    0    0 -0.15358617624E+02 -0.21919508433E+03 -0.30349579717E+03  0.39498996320E+03  0.12500000000E+03 0.  0.
          4    1    1    2  502    0  0.37248470230E+02  0.11249195846E+03 -0.75198096103E+03  0.76126030699E+03  0.00000000000E+00 0.  1.
         -4    1    1    2    0  501 -0.21889852606E+02  0.10670312587E+03 -0.36344704248E+03  0.37941860181E+03  0.00000000000E+00 0. -1.
<mgrwt>
<rscale>  4 0.58731093E+03</rscale>
<asrwt>0</asrwt>
<pdfrwt beam="1">  1        2 0.22727634E+00 0.58731093E+03</pdfrwt>
<pdfrwt beam="2">  1       -2 0.89803909E-02 0.58731093E+03</pdfrwt>
<totfact> 0.10880739E+03</totfact>
</mgrwt>
</event>
<event>
 5    0  0.5719562E-003  0.6673294E+03  0.7546771E-02  0.9774794E-01
         -1   -1    0    0    0  501 -0.00000000000E+00  0.00000000000E+00  0.11429431745E+03  0.11429431745E+03  0.00000000000E+00 0. -1.
          1   -1    0    0  502    0  0.00000000000E+00 -0.00000000000E+00 -0.97408283138E+03  0.97408283138E+03  0.00000000000E+00 0.  1.
         25    1    1    2    0    0  0.64720613942E+02  0.26710620313E+03 -0.19542358336E+03  0.35965241352E+03  0.12500000000E+03 0.  0.
          4    1    1    2  502    0 -0.94148288433E+02 -0.22673483703E+03 -0.59101547115E+03  0.63997802594E+03  0.00000000000E+00 0.  1.
         -4    1    1    2    0  501  0.29427674491E+02 -0.40371366099E+02 -0.73349459418E+02  0.88746709368E+02  0.00000000000E+00 0. -1.
<mgrwt>
<rscale>  4 0.66732940E+03</rscale>
<asrwt>0</asrwt>
<pdfrwt beam="1">  1        1 0.14985889E+00 0.66732940E+03</pdfrwt>
<pdfrwt beam="2">  1       -1 0.17583741E-01 0.66732940E+03</pdfrwt>
<totfact> 0.40709721E+02</totfact>
</mgrwt>
</event>
<event>
 5    0  0.5719562E-003  0.4723787E+03  0.7546771E-02  0.1021251E+00
          1   -1    0    0  502    0  0.00000000000E+00  0.00000000000E+00  0.15137262133E+03  0.15137262133E+03  0.00000000000E+00 0.  1.
         -1   -1    0    0    0  501 -0.00000000000E+00 -0.00000000000E+00 -0.36853030894E+03  0.36853030894E+03  0.00000000000E+00 0. -1.
         25    1    1    2    0    0 -0.65902902591E+01  0.20776383525E+03 -0.13952404961E+03  0.27982352221E+03  0.12500000000E+03 0.  0.
          4    1    1    2  502    0  0.98289650912E+01 -0.70960098476E+02 -0.74280027759E+02  0.10319625310E+03  0.00000000000E+00 0. -1.
         -4    1    1    2    0  501 -0.32386748321E+01 -0.13680373677E+03 -0.33536102464E+01  0.13688315496E+03  0.00000000000E+00 0.  1.
<mgrwt>
<rscale>  4 0.47237866E+03</rscale>
<asrwt>0</asrwt>
<pdfrwt beam="1">  1        1 0.23288095E-01 0.47237866E+03</pdfrwt>
<pdfrwt beam="2">  1       -1 0.56696971E-01 0.47237866E+03</pdfrwt>
<totfact> 0.68064377E+02</totfact>
</mgrwt>
</event>
<event>
 5    0  0.5719562E-003  0.4950051E+03  0.7546771E-02  0.1015091E+00
          2   -1    0    0  502    0  0.00000000000E+00  0.00000000000E+00  0.57517176000E+02  0.57517176000E+02  0.00000000000E+00 0.  1.
         -2   -1    0    0    0  501 -0.00000000000E+00 -0.00000000000E+00 -0.10650297094E+04  0.10650297094E+04  0.00000000000E+00 0. -1.
         25    1    1    2    0    0  0.13628718224E+03  0.15167766352E+03 -0.53049779746E+03  0.58192200746E+03  0.12500000000E+03 0.  0.
          1    1    1    2  502    0 -0.16256581225E+03 -0.10486216555E+03 -0.41944555476E+03  0.46190723146E+03  0.00000000000E+00 0. -1.
         -1    1    1    2    0  501  0.26278630003E+02 -0.46815497974E+02 -0.57569181211E+02  0.78717646501E+02  0.00000000000E+00 0.  1.
<mgrwt>
<rscale>  4 0.49500506E+03</rscale>
<asrwt>0</asrwt>
<pdfrwt beam="1">  1        2 0.88487961E-02 0.49500506E+03</pdfrwt>
<pdfrwt beam="2">  1       -2 0.16385073E+00 0.49500506E+03</pdfrwt>
<totfact> 0.18721542E+02</totfact>
</mgrwt>
</event>
<event>
 5    0  0.5719562E-003  0.7471057E+03  0.7546771E-02  0.9639902E-01
          1   -1    0    0  502    0  0.00000000000E+00  0.00000000000E+00  0.38067837805E+03  0.38067837805E+03  0.00000000000E+00 0. -1.
         -1   -1    0    0    0  501 -0.00000000000E+00 -0.00000000000E+00 -0.36656065311E+03  0.36656065311E+03  0.00000000000E+00 0.  1.
         25    1    1    2    0    0 -0.20932757479E+03 -0.13390787807E+03  0.70896125515E+00  0.27816336208E+03  0.12500000000E+03 0.  0.
          1    1    1    2  502    0  0.14361165181E+03 -0.13138371892E+03  0.20144983448E+02  0.19568292847E+03  0.00000000000E+00 0.  1.
         -1    1    1    2    0  501  0.65715922976E+02  0.26529159699E+03 -0.67362197577E+01  0.27339274062E+03  0.00000000000E+00 0. -1.
<mgrwt>
<rscale>  4 0.74710565E+03</rscale>
<asrwt>0</asrwt>
<pdfrwt beam="1">  1        1 0.58565905E-01 0.74710565E+03</pdfrwt>
<pdfrwt beam="2">  1       -1 0.56393946E-01 0.74710565E+03</pdfrwt>
<totfact> 0.20663848E+02</totfact>
</mgrwt>
</event>
<event>
 5    0  0.5719562E-003  0.5021512E+03  0.7546771E-02  0.1013219E+00
          2   -1    0    0  502    0  0.00000000000E+00  0.00000000000E+00  0.48505132834E+03  0.48505132834E+03  0.00000000000E+00 0. -1.
         -2   -1    0    0    0  501 -0.00000000000E+00 -0.00000000000E+00 -0.12996347851E+03  0.12996347851E+03  0.00000000000E+00 0.  1.
         25    1    1    2    0    0 -0.20989589524E+03 -0.77055820986E+02  0.19797219407E+03  0.32374662316E+03  0.12500000000E+03 0.  0.
          1    1    1    2  502    0  0.60534835116E+02  0.59257041891E+02  0.18471411135E+02  0.86700959081E+02  0.00000000000E+00 0.  1.
         -1    1    1    2    0  501  0.14936106012E+03  0.17798779095E+02  0.13864424462E+03  0.20456722461E+03  0.00000000000E+00 0. -1.
<mgrwt>
<rscale>  4 0.50215120E+03</rscale>
<asrwt>0</asrwt>
<pdfrwt beam="1">  1        2 0.74623280E-01 0.50215120E+03</pdfrwt>
<pdfrwt beam="2">  1       -2 0.19994382E-01 0.50215120E+03</pdfrwt>
<totfact> 0.13613974E+03</totfact>
</mgrwt>
</event>
<event>
 5    0  0.5719562E-003  0.7339341E+03  0.7546771E-02  0.9660898E-01
         -1   -1    0    0    0  501 -0.00000000000E+00  0.00000000000E+00  0.18884898299E+03  0.18884898299E+03  0.00000000000E+00 0.  1.
          1   -1    0    0  502    0  0.00000000000E+00 -0.00000000000E+00 -0.71308209874E+03  0.71308209874E+03  0.00000000000E+00 0. -1.
         25    1    1    2    0    0 -0.15060883093E+03 -0.14179666415E+03 -0.14391439695E+03  0.28129285019E+03  0.12500000000E+03 0.  0.
          4    1    1    2  502    0 -0.89934104688E+02 -0.84279168448E+02 -0.86759935577E+01  0.12355725104E+03  0.00000000000E+00 0. -1.
         -4    1    1    2    0  501  0.24054293562E+03  0.22607583260E+03 -0.37164272525E+03  0.49708098051E+03  0.00000000000E+00 0.  1.
<mgrwt>
<rscale>  4 0.73393414E+03</rscale>
<asrwt>0</asrwt>
<pdfrwt beam="1">  1        1 0.10970494E+00 0.73393414E+03</pdfrwt>
<pdfrwt beam="2">  1       -1 0.29053689E-01 0.73393414E+03</pdfrwt>
<totfact> 0.28900374E+02</totfact>
</mgrwt>
</event>
<event>
 5    0  0.5719562E-003  0.6621911E+03  0.7546771E-02  0.9784169E-01
         -2   -1    0    0    0  501 -0.00000000000E+00  0.00000000000E+00  0.17899135819E+03  0.17899135819E+03  0.00000000000E+00 0.  1.
          2   -1    0    0  502    0  0.00000000000E+00 -0.00000000000E+00 -0.61245566671E+03  0.61245566671E+03  0.00000000000E+00 0. -1.
         25    1    1    2    0    0  0.16866371921E+00 -0.30499337516E+03 -0.15901522123E+03  0.36596697655E+03  0.12500000000E+03 0.  0.
          2    1    1    2  502    0  0.48051754356E+02  0.22333429346E+03 -0.17261521778E+03  0.28632707022E+03  0.00000000000E+00 0. -1.
         -2    1    1    2    0  501 -0.48220418075E+02  0.81659081704E+02 -0.10183386950E+03  0.13915297813E+03  0.00000000000E+00 0.  1.
<mgrwt>
<rscale>  4 0.66219113E+03</rscale>
<asrwt>0</asrwt>
<pdfrwt beam="1">  1        2 0.94223949E-01 0.66219113E+03</pdfrwt>
<pdfrwt beam="2">  1       -2 0.27537132E-01 0.66219113E+03</pdfrwt>
<totfact> 0.58468600E+02</totfact>
</mgrwt>
</event>
<event>
 5    0  0.5719562E-003  0.7623027E+03  0.7546771E-02  0.9616245E-01
          1   -1    0    0  502    0  0.00000000000E+00  0.00000000000E+00  0.25956130415E+04  0.25956130415E+04  0.00000000000E+00 0. -1.
         -1   -1    0    0    0  501 -0.00000000000E+00 -0.00000000000E+00 -0.55969961753E+02  0.55969961753E+02  0.00000000000E+00 0.  1.
         25    1    1    2    0    0 -0.62611022256E+02 -0.28495082196E+03  0.56528391395E+03  0.64829623970E+03  0.12500000000E+03 0.  0.
          1    1    1    2  502    0  0.66451942688E+02  0.21918027264E+03  0.96609012337E+03  0.99286755364E+03  0.00000000000E+00 0.  1.
         -1    1    1    2    0  501 -0.38409204317E+01  0.65770549323E+02  0.10082690424E+04  0.10104192099E+04  0.00000000000E+00 0. -1.
<mgrwt>
<rscale>  4 0.76230273E+03</rscale>
<asrwt>0</asrwt>
<pdfrwt beam="1">  1        1 0.39932499E+00 0.76230273E+03</pdfrwt>
<pdfrwt beam="2">  1       -1 0.86107653E-02 0.76230273E+03</pdfrwt>
<totfact> 0.96917662E+01</totfact>
</mgrwt>
</event>
<event>
 5    0  0.5719562E-003  0.5104983E+03  0.7546771E-02  0.1011074E+00
          2   -1    0    0  502    0  0.00000000000E+00  0.00000000000E+00  0.19398167267E+04  0.19398167267E+04  0.00000000000E+00 0. -1.
         -2   -1    0    0    0  501 -0.00000000000E+00 -0.00000000000E+00 -0.33586743970E+02  0.33586743970E+02  0.00000000000E+00 0.  1.
         25    1    1    2    0    0  0.13482473581E+03 -0.16490379084E+03  0.65663731265E+03  0.70154724002E+03  0.12500000000E+03 0.  0.
          2    1    1    2  502    0 -0.39548262570E+02  0.61432390365E+01  0.10470977844E+03  0.11209791327E+03  0.00000000000E+00 0.  1.
         -2    1    1    2    0  501 -0.95276473236E+02  0.15876055180E+03  0.11448828916E+04  0.11597583174E+04  0.00000000000E+00 0. -1.
<mgrwt>
<rscale>  4 0.51049830E+03</rscale>
<asrwt>0</asrwt>
<pdfrwt beam="1">  1        2 0.29843326E+00 0.51049830E+03</pdfrwt>
<pdfrwt beam="2">  1       -2 0.51671929E-02 0.51049830E+03</pdfrwt>
<totfact> 0.14641206E+03</totfact>
</mgrwt>
</event>
<event>
 5    0  0.5719562E-003  0.6829467E+03  0.7546771E-02  0.9746848E-01
         -1   -1    0    0    0  501 -0.00000000000E+00  0.00000000000E+00  0.15737913195E+03  0.15737913195E+03  0.00000000000E+00 0.  1.
          1   -1    0    0  502    0  0.00000000000E+00 -0.00000000000E+00 -0.74091181766E+03  0.74091181766E+03  0.00000000000E+00 0. -1.
         25    1    1    2    0    0 -0.28711304331E+03 -0.48571536644E+02 -0.29407535184E+03  0.43231748330E+03  0.12500000000E+03 0.  0.
          4    1    1    2  502    0  0.12892393617E+03 -0.78348413628E+02 -0.67391548982E+02  0.16523158327E+03  0.00000000000E+00 0.  1.
         -4    1    1    2    0  501  0.15818910714E+03  0.12691995027E+03 -0.22206578490E+03  0.30074188304E+03  0.00000000000E+00 0. -1.
<mgrwt>
<rscale>  4 0.68294673E+03</rscale>
<asrwt>0</asrwt>
<pdfrwt beam="1">  1        1 0.11398643E+00 0.68294673E+03</pdfrwt>
<pdfrwt beam="2">  1       -1 0.24212174E-01 0.68294673E+03</pdfrwt>
<totfact> 0.37347842E+02</totfact>
</mgrwt>
</event>
<event>
 5    0  0.5719562E-003  0.6204699E+03  0.7546771E-02  0.9863825E-01
         -2   -1    0    0    0  501 -0.00000000000E+00  0.00000000000E+00  0.29770379193E+03  0.29770379193E+03  0.00000000000E+00 0.  1.
          2   -1    0    0  502    0  0.00000000000E+00 -0.00000000000E+00 -0.32329354047E+03  0.32329354047E+03  0.00000000000E+00 0. -1.
         25    1    1    2    0    0  0.12063077511E+03 -0.26400938567E+03 -0.10396470107E+02  0.31620535450E+03  0.12500000000E+03 0.  0.
          2    1    1    2  502    0 -0.93783377543E+02  0.25190079856E+03 -0.32310461880E+02  0.27072735393E+03  0.00000000000E+00 0. -1.
         -2    1    1    2    0  501 -0.26847397564E+02  0.12108587104E+02  0.17117183448E+02  0.34064623979E+02  0.00000000000E+00 0.  1.
<mgrwt>
<rscale>  4 0.62046986E+03</rscale>
<asrwt>0</asrwt>
<pdfrwt beam="1">  1        2 0.49737468E-01 0.62046986E+03</pdfrwt>
<pdfrwt beam="2">  1       -2 0.45800583E-01 0.62046986E+03</pdfrwt>
<totfact> 0.46051518E+02</totfact>
</mgrwt>
</event>
<event>
 5    0  0.5719562E-003  0.5741178E+03  0.7546771E-02  0.9960608E-01
         -1   -1    0    0    0  501 -0.00000000000E+00  0.00000000000E+00  0.73055496650E+02  0.73055496650E+02  0.00000000000E+00 0.  1.
          1   -1    0    0  502    0  0.00000000000E+00 -0.00000000000E+00 -0.11279481938E+04  0.11279481938E+04  0.00000000000E+00 0. -1.
         25    1    1    2    0    0 -0.23721011841E+03  0.85344891718E+02 -0.75407454585E+03  0.80486384657E+03  0.12500000000E+03 0.  0.
          1    1    1    2  502    0  0.19279343925E+03 -0.87193802773E+02 -0.23000431805E+03  0.31252848795E+03  0.00000000000E+00 0.  1.
         -1    1    1    2    0  501  0.44416679160E+02  0.18489110548E+01 -0.70813833216E+02  0.83611355894E+02  0.00000000000E+00 0. -1.
<mgrwt>
<rscale>  4 0.57411781E+03</rscale>
<asrwt>0</asrwt>
<pdfrwt beam="1">  1        1 0.17353049E+00 0.57411781E+03</pdfrwt>
<pdfrwt beam="2">  1       -1 0.11239307E-01 0.57411781E+03</pdfrwt>
<totfact> 0.64420505E+02</totfact>
</mgrwt>
</event>
<event>
 5    0  0.5719562E-003  0.6158513E+03  0.7546771E-02  0.9873055E-01
         -1   -1    0    0    0  501 -0.00000000000E+00  0.00000000000E+00  0.41792234373E+03  0.41792234373E+03  0.00000000000E+00 0. -1.
          1   -1    0    0  502    0  0.00000000000E+00 -0.00000000000E+00 -0.22687997903E+03  0.22687997903E+03  0.00000000000E+00 0.  1.
         25    1    1    2    0    0 -0.23697117769E+03  0.13448903175E+03  0.19483931782E+03  0.35753321312E+03  0.12500000000E+03 0.  0.
          2    1    1    2  502    0  0.79412004221E+02 -0.63196080964E+02  0.39646146600E+02  0.10895791850E+03  0.00000000000E+00 0. -1.
         -2    1    1    2    0  501  0.15755917346E+03 -0.71292950783E+02 -0.43443099721E+02  0.17831119115E+03  0.00000000000E+00 0.  1.
<mgrwt>
<rscale>  4 0.61585132E+03</rscale>
<asrwt>0</asrwt>
<pdfrwt beam="1">  1        1 0.34904612E-01 0.61585132E+03</pdfrwt>
<pdfrwt beam="2">  1       -1 0.64295745E-01 0.61585132E+03</pdfrwt>
<totfact> 0.31403651E+02</totfact>
</mgrwt>
</event>
<event>
 5    0  0.5719562E-003  0.5910402E+03  0.7546771E-02  0.9924171E-01
         -1   -1    0    0    0  501 -0.00000000000E+00  0.00000000000E+00  0.32655014588E+03  0.32655014588E+03  0.00000000000E+00 0.  1.
          1   -1    0    0  502    0  0.00000000000E+00 -0.00000000000E+00 -0.26743861417E+03  0.26743861417E+03  0.00000000000E+00 0. -1.
         25    1    1    2    0    0 -0.18982310036E+03 -0.14861049055E+03 -0.10933474801E+03  0.29274045579E+03  0.12500000000E+03 0.  0.
          1    1    1    2  502    0  0.11013345235E+03  0.87804410830E+02  0.58640340768E+02  0.15257025088E+03  0.00000000000E+00 0.  1.
         -1    1    1    2    0  501  0.79689648011E+02  0.60806079720E+02  0.10980593894E+03  0.14867805338E+03  0.00000000000E+00 0. -1.
<mgrwt>
<rscale>  4 0.59104016E+03</rscale>
<asrwt>0</asrwt>
<pdfrwt beam="1">  1        1 0.41144402E-01 0.59104016E+03</pdfrwt>
<pdfrwt beam="2">  1       -1 0.50238484E-01 0.59104016E+03</pdfrwt>
<totfact> 0.41032887E+02</totfact>
</mgrwt>
</event>
<event>
 5    0  0.5719562E-003  0.7802345E+03  0.7546771E-02  0.9589076E-01
         -2   -1    0    0    0  501 -0.00000000000E+00  0.00000000000E+00  0.11834296210E+04  0.11834296210E+04  0.00000000000E+00 0. -1.
          2   -1    0    0  502    0  0.00000000000E+00 -0.00000000000E+00 -0.12860203133E+03  0.12860203133E+03  0.00000000000E+00 0.  1.
         25    1    1    2    0    0 -0.99254358787E+01 -0.30595274796E+03  0.28044139418E+03  0.43356426725E+03  0.12500000000E+03 0.  0.
          3    1    1    2  502    0  0.63176739528E+02  0.11846051641E+03  0.77888423523E+02  0.15521211578E+03  0.00000000000E+00 0.  1.
         -3    1    1    2    0  501 -0.53251303650E+02  0.18749223156E+03  0.69649777191E+03  0.72325526926E+03  0.00000000000E+00 0. -1.
<mgrwt>
<rscale>  4 0.78023446E+03</rscale>
<asrwt>0</asrwt>
<pdfrwt beam="1">  1        2 0.19784929E-01 0.78023446E+03</pdfrwt>
<pdfrwt beam="2">  1       -2 0.18206609E+00 0.78023446E+03</pdfrwt>
<totfact> 0.51138666E+01</totfact>
</mgrwt>
</event>
<event>
 5    0  0.5719562E-003  0.7744242E+03  0.7546771E-02  0.9597793E-01
          2   -1    0    0  502    0  0.00000000000E+00  0.00000000000E+00  0.17431999711E+04  0.17431999711E+04  0.00000000000E+00 0. -1.
         -2   -1    0    0    0  501 -0.00000000000E+00 -0.00000000000E+00 -0.86010322346E+02  0.86010322346E+02  0.00000000000E+00 0.  1.
         25    1    1    2    0    0  0.28093083337E+03 -0.34026737821E+02  0.51852672535E+03  0.60380039494E+03  0.12500000000E+03 0.  0.
          4    1    1    2  502    0 -0.14534040509E+03 -0.15734838743E+03  0.46170283536E+03  0.50897137106E+03  0.00000000000E+00 0.  1.
         -4    1    1    2    0  501 -0.13559042828E+03  0.19137512525E+03  0.67696008803E+03  0.71643852743E+03  0.00000000000E+00 0. -1.
<mgrwt>
<rscale>  4 0.77442415E+03</rscale>
<asrwt>0</asrwt>
<pdfrwt beam="1">  1        2 0.26818459E+00 0.77442415E+03</pdfrwt>
<pdfrwt beam="2">  1       -2 0.13232359E-01 0.77442415E+03</pdfrwt>
<totfact> 0.40776937E+02</totfact>
</mgrwt>
</event>
<event>
 5    0  0.5719562E-003  0.5894435E+03  0.7546771E-02  0.9927553E-01
         -2   -1    0    0    0  501 -0.00000000000E+00  0.00000000000E+00  0.65741296985E+02  0.65741296985E+02  0.00000000000E+00 0. -1.
          2   -1    0    0  502    0  0.00000000000E+00 -0.00000000000E+00 -0.13212535394E+04  0.13212535394E+04  0.00000000000E+00 0.  1.
         25    1    1    2    0    0  0.18519648771E+01 -0.25165327900E+03 -0.38874615486E+03  0.47966798468E+03  0.12500000000E+03 0.  0.
          1    1    1    2  502    0  0.22419309380E+02  0.84136478585E+02 -0.17922667219E+03  0.19925805501E+03  0.00000000000E+00 0. -1.
         -1    1    1    2    0  501 -0.24271274257E+02  0.16751680042E+03 -0.68753941536E+03  0.70806879670E+03  0.00000000000E+00 0.  1.
<mgrwt>
<rscale>  4 0.58944354E+03</rscale>
<asrwt>0</asrwt>
<pdfrwt beam="1">  1        2 0.20326975E+00 0.58944354E+03</pdfrwt>
<pdfrwt beam="2">  1       -2 0.10114047E-01 0.58944354E+03</pdfrwt>
<totfact> 0.10983869E+03</totfact>
</mgrwt>
</event>
<event>
 5    0  0.5719562E-003  0.4721920E+03  0.7546771E-02  0.1021303E+00
         -1   -1    0    0    0  501 -0.00000000000E+00  0.00000000000E+00  0.66346542453E+02  0.66346542453E+02  0.00000000000E+00 0.  1.
          1   -1    0    0  502    0  0.00000000000E+00 -0.00000000000E+00 -0.84015418277E+03  0.84015418277E+03  0.00000000000E+00 0. -1.
         25    1    1    2    0    0 -0.20060114536E+03  0.37230992092E+01 -0.31749677432E+03  0.39583315006E+03  0.12500000000E+03 0.  0.
          3    1    1    2  502    0  0.13398161438E+03 -0.53335806969E+02 -0.32084716992E+03  0.35176510308E+03  0.00000000000E+00 0. -1.
         -3    1    1    2    0  501  0.66619530974E+02  0.49612707760E+02 -0.13546369607E+03  0.15890247208E+03  0.00000000000E+00 0.  1.
<mgrwt>
<rscale>  4 0.47219202E+03</rscale>
<asrwt>0</asrwt>
<pdfrwt beam="1">  1        1 0.12925448E+00 0.47219202E+03</pdfrwt>
<pdfrwt beam="2">  1       -1 0.10207161E-01 0.47219202E+03</pdfrwt>
<totfact> 0.12581575E+03</totfact>
</mgrwt>
</event>
<event>
 5    0  0.5719562E-003  0.6352347E+03  0.7546771E-02  0.9834887E-01
          2   -1    0    0  502    0  0.00000000000E+00  0.00000000000E+00  0.66326462108E+03  0.66326462108E+03  0.00000000000E+00 0.  1.
         -2   -1    0    0    0  501 -0.00000000000E+00 -0.00000000000E+00 -0.15209732043E+03  0.15209732043E+03  0.00000000000E+00 0. -1.
         25    1    1    2    0    0 -0.19466209429E+03 -0.16530357914E+03  0.13300152131E+03  0.31389967967E+03  0.12500000000E+03 0.  0.
          2    1    1    2  502    0  0.46504894085E+01  0.11980646172E+03  0.21810614710E+03  0.24888854278E+03  0.00000000000E+00 0. -1.
         -2    1    1    2    0  501  0.19001160488E+03  0.45497117415E+02  0.16005963224E+03  0.25257371905E+03  0.00000000000E+00 0.  1.
<mgrwt>
<rscale>  4 0.63523467E+03</rscale>
<asrwt>0</asrwt>
<pdfrwt beam="1">  1        2 0.10204071E+00 0.63523467E+03</pdfrwt>
<pdfrwt beam="2">  1       -2 0.23399588E-01 0.63523467E+03</pdfrwt>
<totfact> 0.71198641E+02</totfact>
</mgrwt>
</event>
<event>
 5    0  0.5719562E-003  0.4780751E+03  0.7546771E-02  0.1019666E+00
          1   -1    0    0  502    0  0.00000000000E+00  0.00000000000E+00  0.45915898002E+03  0.45915898002E+03  0.00000000000E+00 0.  1.
         -1   -1    0    0    0  501 -0.00000000000E+00 -0.00000000000E+00 -0.12444264707E+03  0.12444264707E+03  0.00000000000E+00 0. -1.
         25    1    1    2    0    0 -0.16823088568E+03 -0.11966639356E+03  0.21688341202E+03  0.32447664177E+03  0.12500000000E+03 0.  0.
          2    1    1    2  502    0 -0.52533806495E+00  0.44600683680E+02  0.35029181510E+02  0.56714553001E+02  0.00000000000E+00 0.  1.
         -2    1    1    2    0  501  0.16875622375E+03  0.75065709879E+02  0.82803739416E+02  0.20241043232E+03  0.00000000000E+00 0. -1.
<mgrwt>
<rscale>  4 0.47807514E+03</rscale>
<asrwt>0</asrwt>
<pdfrwt beam="1">  1        1 0.70639842E-01 0.47807514E+03</pdfrwt>
<pdfrwt beam="2">  1       -1 0.19145023E-01 0.47807514E+03</pdfrwt>
<totfact> 0.10983764E+03</totfact>
</mgrwt>
</event>
<event>
 5    0  0.5719562E-003  0.5100224E+03  0.7546771E-02  0.1011196E+00
          2   -1    0    0  502    0  0.00000000000E+00  0.00000000000E+00  0.22627835502E+03  0.22627835502E+03  0.00000000000E+00 0. -1.
         -2   -1    0    0    0  501 -0.00000000000E+00 -0.00000000000E+00 -0.28739254164E+03  0.28739254164E+03  0.00000000000E+00 0.  1.
         25    1    1    2    0    0 -0.15179797556E+03  0.14894494173E+03 -0.42127190488E+02  0.25025371372E+03  0.12500000000E+03 0.  0.
          2    1    1    2  502    0  0.79061581092E+01 -0.66879901710E+02 -0.62788534864E+02  0.92075125301E+02  0.00000000000E+00 0.  1.
         -2    1    1    2    0  501  0.14389181745E+03 -0.82065040025E+02  0.43801538735E+02  0.17134205764E+03  0.00000000000E+00 0. -1.
<mgrwt>
<rscale>  4 0.51002240E+03</rscale>
<asrwt>0</asrwt>
<pdfrwt beam="1">  1        2 0.34812055E-01 0.51002240E+03</pdfrwt>
<pdfrwt beam="2">  1       -2 0.44214237E-01 0.51002240E+03</pdfrwt>
<totfact> 0.73366579E+02</totfact>
</mgrwt>
</event>
<event>
 5    0  0.5719562E-003  0.6475326E+03  0.7546771E-02  0.9811420E-01
         -1   -1    0    0    0  501 -0.00000000000E+00  0.00000000000E+00  0.12528095369E+03  0.12528095369E+03  0.00000000000E+00 0. -1.
          1   -1    0    0  502    0  0.00000000000E+00 -0.00000000000E+00 -0.83671633391E+03  0.83671633391E+03  0.00000000000E+00 0.  1.
         25    1    1    2    0    0  0.20689432421E+03 -0.10159806021E+03 -0.56947931516E+03  0.62694426995E+03  0.12500000000E+03 0.  0.
          2    1    1    2  502    0 -0.14084276764E+03 -0.40025929174E+02 -0.80870215123E+02  0.16726850240E+03  0.00000000000E+00 0.  1.
         -2    1    1    2    0  501 -0.66051556570E+02  0.14162398938E+03 -0.61085849940E+02  0.16778451525E+03  0.00000000000E+00 0. -1.
<mgrwt>
<rscale>  4 0.64753261E+03</rscale>
<asrwt>0</asrwt>
<pdfrwt beam="1">  1        1 0.12872560E+00 0.64753261E+03</pdfrwt>
<pdfrwt beam="2">  1       -1 0.19273992E-01 0.64753261E+03</pdfrwt>
<totfact> 0.45240199E+02</totfact>
</mgrwt>
</event>
<event>
 5    0  0.5719562E-003  0.6419302E+03  0.7546771E-02  0.9822041E-01
         -2   -1    0    0    0  501 -0.00000000000E+00  0.00000000000E+00  0.14792777757E+03  0.14792777757E+03  0.00000000000E+00 0. -1.
          2   -1    0    0  502    0  0.00000000000E+00 -0.00000000000E+00 -0.69641139316E+03  0.69641139316E+03  0.00000000000E+00 0.  1.
         25    1    1    2    0    0 -0.16122667405E+03 -0.23501944458E+03 -0.35351174518E+03  0.47098167028E+03  0.12500000000E+03 0.  0.
          2    1    1    2  502    0  0.10664557656E+03  0.22035086520E+03 -0.20069081134E+03  0.31655107732E+03  0.00000000000E+00 0. -1.
         -2    1    1    2    0  501  0.54581097489E+02  0.14668579380E+02  0.57189409191E+01  0.56806423135E+02  0.00000000000E+00 0.  1.
<mgrwt>
<rscale>  4 0.64193018E+03</rscale>
<asrwt>0</asrwt>
<pdfrwt beam="1">  1        2 0.10714022E+00 0.64193018E+03</pdfrwt>
<pdfrwt beam="2">  1       -2 0.22758119E-01 0.64193018E+03</pdfrwt>
<totfact> 0.70391918E+02</totfact>
</mgrwt>
</event>
<event>
 5    0  0.5719562E-003  0.8455575E+03  0.7546771E-02  0.9496319E-01
         -1   -1    0    0    0  501 -0.00000000000E+00  0.00000000000E+00  0.27678028128E+03  0.27678028128E+03  0.00000000000E+00 0.  1.
          1   -1    0    0  502    0  0.00000000000E+00 -0.00000000000E+00 -0.64578974557E+03  0.64578974557E+03  0.00000000000E+00 0. -1.
         25    1    1    2    0    0  0.34378170773E+03  0.12996093814E+02 -0.12289368237E+03  0.38611218343E+03  0.12500000000E+03 0.  0.
          2    1    1    2  502    0 -0.14090381585E+03 -0.16933855780E+03 -0.12240507269E+03  0.25201673416E+03  0.00000000000E+00 0. -1.
         -2    1    1    2    0  501 -0.20287789188E+03  0.15634246398E+03 -0.12371070922E+03  0.28444110926E+03  0.00000000000E+00 0.  1.
<mgrwt>
<rscale>  4 0.84555749E+03</rscale>
<asrwt>0</asrwt>
<pdfrwt beam="1">  1        1 0.99352268E-01 0.84555749E+03</pdfrwt>
<pdfrwt beam="2">  1       -1 0.42581582E-01 0.84555749E+03</pdfrwt>
<totfact> 0.16846258E+02</totfact>
</mgrwt>
</event>
<event>
 5    0  0.5719562E-003  0.6635221E+03  0.7546771E-02  0.9781732E-01
          1   -1    0    0  502    0  0.00000000000E+00  0.00000000000E+00  0.15996393170E+04  0.15996393170E+04  0.00000000000E+00 0.  1.
         -1   -1    0    0    0  501 -0.00000000000E+00 -0.00000000000E+00 -0.68806391079E+02  0.68806391079E+02  0.00000000000E+00 0. -1.
         25    1    1    2    0    0 -0.57411764540E+02  0.30903158964E+03  0.68922543310E+03  0.76775864159E+03  0.12500000000E+03 0.  0.
          1    1    1    2  502    0  0.18895496471E+02 -0.18253566512E+02  0.49953023789E+02  0.56440562213E+02  0.00000000000E+00 0. -1.
         -1    1    1    2    0  501  0.38516268069E+02 -0.29077802313E+03  0.79165446902E+03  0.84424650426E+03  0.00000000000E+00 0.  1.
<mgrwt>
<rscale>  4 0.66352214E+03</rscale>
<asrwt>0</asrwt>
<pdfrwt beam="1">  1        1 0.24609833E+00 0.66352214E+03</pdfrwt>
<pdfrwt beam="2">  1       -1 0.10585600E-01 0.66352214E+03</pdfrwt>
<totfact> 0.33020010E+02</totfact>
</mgrwt>
</event>
<event>
 5    0  0.5719562E-003  0.4561976E+03  0.7546771E-02  0.1025890E+00
         -4   -1    0    0    0  501 -0.00000000000E+00  0.00000000000E+00  0.40908658411E+03  0.40908658411E+03  0.00000000000E+00 0.  1.
          4   -1    0    0  502    0  0.00000000000E+00 -0.00000000000E+00 -0.12718348270E+03  0.12718348270E+03  0.00000000000E+00 0. -1.
         25    1    1    2    0    0  0.12953815853E+03 -0.16117835228E+03  0.15061229414E+03  0.28472382918E+03  0.12500000000E+03 0.  0.
          4    1    1    2  502    0 -0.79632142894E+02  0.64442239104E+02  0.41836772162E+02  0.11065439832E+03  0.00000000000E+00 0. -1.
         -4    1    1    2    0  501 -0.49906015634E+02  0.96736113175E+02  0.89454035103E+02  0.14089183931E+03  0.00000000000E+00 0.  1.
<mgrwt>
<rscale>  4 0.45619757E+03</rscale>
<asrwt>0</asrwt>
<pdfrwt beam="1">  1        4 0.19566690E-01 0.45619757E+03</pdfrwt>
<pdfrwt beam="2">  1       -4 0.62936397E-01 0.45619757E+03</pdfrwt>
<totfact> 0.10983380E+02</totfact>
</mgrwt>
</event>
<event>
 5    0  0.5719562E-003  0.5656121E+03  0.7546771E-02  0.9979436E-01
         -2   -1    0    0    0  501 -0.00000000000E+00  0.00000000000E+00  0.56535191894E+03  0.56535191894E+03  0.00000000000E+00 0.  1.
          2   -1    0    0  502    0  0.00000000000E+00 -0.00000000000E+00 -0.14146809158E+03  0.14146809158E+03  0.00000000000E+00 0. -1.
         25    1    1    2    0    0  0.13578136716E+03 -0.18125758501E+03  0.44220226035E+02  0.26243345858E+03  0.12500000000E+03 0.  0.
          2    1    1    2  502    0 -0.59673019060E+02  0.46814212670E+02  0.11021067138E+03  0.13378651575E+03  0.00000000000E+00 0. -1.
         -2    1    1    2    0  501 -0.76108348101E+02  0.13444337234E+03  0.26945292995E+03  0.31060003618E+03  0.00000000000E+00 0.  1.
<mgrwt>
<rscale>  4 0.56561208E+03</rscale>
<asrwt>0</asrwt>
<pdfrwt beam="1">  1        2 0.21764322E-01 0.56561208E+03</pdfrwt>
<pdfrwt beam="2">  1       -2 0.86977217E-01 0.56561208E+03</pdfrwt>
<totfact> 0.29753267E+02</totfact>
</mgrwt>
</event>
<event>
 5    0  0.5719562E-003  0.8245331E+03  0.7546771E-02  0.9525170E-01
         -2   -1    0    0    0  501 -0.00000000000E+00  0.00000000000E+00  0.39112151947E+02  0.39112151947E+02  0.00000000000E+00 0.  1.
          2   -1    0    0  502    0  0.00000000000E+00 -0.00000000000E+00 -0.43455476428E+04  0.43455476428E+04  0.00000000000E+00 0. -1.
         25    1    1    2    0    0 -0.24992438128E+03  0.59137582174E+02 -0.35202757706E+04  0.35318445537E+04  0.12500000000E+03 0.  0.
          3    1    1    2  502    0  0.20496075461E+02 -0.87169008797E+02 -0.32304605453E+03  0.33522720438E+03  0.00000000000E+00 0. -1.
         -3    1    1    2    0  501  0.22942830582E+03  0.28031426622E+02 -0.46311366568E+03  0.51758803670E+03  0.00000000000E+00 0.  1.
<mgrwt>
<rscale>  4 0.82453313E+03</rscale>
<asrwt>0</asrwt>
<pdfrwt beam="1">  1        2 0.66854588E+00 0.82453313E+03</pdfrwt>
<pdfrwt beam="2">  1       -2 0.60172533E-02 0.82453313E+03</pdfrwt>
<totfact> 0.29514896E+01</totfact>
</mgrwt>
</event>
<event>
 5    0  0.5719562E-003  0.4916054E+03  0.7546771E-02  0.1015994E+00
         -1   -1    0    0    0  501 -0.00000000000E+00  0.00000000000E+00  0.85427057902E+03  0.85427057902E+03  0.00000000000E+00 0. -1.
          1   -1    0    0  502    0  0.00000000000E+00 -0.00000000000E+00 -0.70725806599E+02  0.70725806599E+02  0.00000000000E+00 0.  1.
         25    1    1    2    0    0 -0.11126458347E+03 -0.18128846105E+03  0.32477705076E+03  0.40786081737E+03  0.12500000000E+03 0.  0.
          4    1    1    2  502    0  0.18798728724E+02  0.63123401144E+02  0.25930766413E+03  0.26754143726E+03  0.00000000000E+00 0.  1.
         -4    1    1    2    0  501  0.92465854744E+02  0.11816505990E+03  0.19946005754E+03  0.24959413100E+03  0.00000000000E+00 0. -1.
<mgrwt>
<rscale>  4 0.49160543E+03</rscale>
<asrwt>0</asrwt>
<pdfrwt beam="1">  1        1 0.10880894E-01 0.49160543E+03</pdfrwt>
<pdfrwt beam="2">  1       -1 0.13142624E+00 0.49160543E+03</pdfrwt>
<totfact> 0.30121783E+02</totfact>
</mgrwt>
</event>
<event>
 5    0  0.5719562E-003  0.5134339E+03  0.7546771E-02  0.1010331E+00
          1   -1    0    0  502    0  0.00000000000E+00  0.00000000000E+00  0.23575878080E+04  0.23575878080E+04  0.00000000000E+00 0.  1.
         -1   -1    0    0    0  501 -0.00000000000E+00 -0.00000000000E+00 -0.27953817981E+02  0.27953817981E+02  0.00000000000E+00 0. -1.
         25    1    1    2    0    0  0.20739700944E+03 -0.47276352700E+02  0.17499094487E+04  0.17672172056E+04  0.12500000000E+03 0.  0.
          3    1    1    2  502    0 -0.18252245049E+03  0.34168062415E+02  0.47852286113E+03  0.51328942133E+03  0.00000000000E+00 0. -1.
         -3    1    1    2    0  501 -0.24874558945E+02  0.13108290285E+02  0.10120168019E+03  0.10503499907E+03  0.00000000000E+00 0.  1.
<mgrwt>
<rscale>  4 0.51343385E+03</rscale>
<asrwt>0</asrwt>
<pdfrwt beam="1">  1        1 0.36270566E+00 0.51343385E+03</pdfrwt>
<pdfrwt beam="2">  1       -1 0.43005892E-02 0.51343385E+03</pdfrwt>
<totfact> 0.42117922E+02</totfact>
</mgrwt>
</event>
<event>
 5    0  0.5719562E-003  0.5176243E+03  0.7546771E-02  0.1009278E+00
          2   -1    0    0  502    0  0.00000000000E+00  0.00000000000E+00  0.87112139344E+03  0.87112139344E+03  0.00000000000E+00 0.  1.
         -2   -1    0    0    0  501 -0.00000000000E+00 -0.00000000000E+00 -0.76893665524E+02  0.76893665524E+02  0.00000000000E+00 0. -1.
         25    1    1    2    0    0 -0.14373788827E+03 -0.18731256589E+03  0.51371220155E+03  0.57902660032E+03  0.12500000000E+03 0.  0.
          1    1    1    2  502    0  0.12241885089E+03  0.15957778218E+03  0.25899386243E+03  0.32791655096E+03  0.00000000000E+00 0. -1.
         -1    1    1    2    0  501  0.21319037372E+02  0.27734783706E+02  0.21521663944E+02  0.41071907682E+02  0.00000000000E+00 0.  1.
<mgrwt>
<rscale>  4 0.51762425E+03</rscale>
<asrwt>0</asrwt>
<pdfrwt beam="1">  1        2 0.13401867E+00 0.51762425E+03</pdfrwt>
<pdfrwt beam="2">  1       -2 0.11829795E-01 0.51762425E+03</pdfrwt>
<totfact> 0.16060205E+03</totfact>
</mgrwt>
</event>
<event>
 5    0  0.5719562E-003  0.6551252E+03  0.7546771E-02  0.9797209E-01
         -2   -1    0    0    0  501 -0.00000000000E+00  0.00000000000E+00  0.13317104998E+03  0.13317104998E+03  0.00000000000E+00 0. -1.
          2   -1    0    0  502    0  0.00000000000E+00 -0.00000000000E+00 -0.80571002592E+03  0.80571002592E+03  0.00000000000E+00 0.  1.
         25    1    1    2    0    0  0.11407144738E+03 -0.18565751531E+03 -0.18953119122E+03  0.31468727420E+03  0.12500000000E+03 0.  0.
          2    1    1    2  502    0  0.47899732258E+02  0.14127205870E+03 -0.46119847959E+02  0.15613846193E+03  0.00000000000E+00 0. -1.
         -2    1    1    2    0  501 -0.16197117964E+03  0.44385456614E+02 -0.43688793677E+03  0.46805533977E+03  0.00000000000E+00 0.  1.
<mgrwt>
<rscale>  4 0.65512518E+03</rscale>
<asrwt>0</asrwt>
<pdfrwt beam="1">  1        2 0.12395539E+00 0.65512518E+03</pdfrwt>
<pdfrwt beam="2">  1       -2 0.20487854E-01 0.65512518E+03</pdfrwt>
<totfact> 0.70206024E+02</totfact>
</mgrwt>
</event>
<event>
 5    0  0.5719562E-003  0.7077149E+03  0.7546771E-02  0.9704129E-01
         -3   -1    0    0    0  501 -0.00000000000E+00  0.00000000000E+00  0.23263695319E+03  0.23263695319E+03  0.00000000000E+00 0. -1.
          3   -1    0    0  502    0  0.00000000000E+00 -0.00000000000E+00 -0.53824245364E+03  0.53824245364E+03  0.00000000000E+00 0.  1.
         25    1    1    2    0    0 -0.88646624095E+02 -0.25341754440E+03 -0.10161074372E+03  0.31309490417E+03  0.12500000000E+03 0.  0.
          2    1    1    2  502    0  0.18693763187E+03  0.11424841395E+03 -0.42781149383E+02  0.22322321797E+03  0.00000000000E+00 0. -1.
         -2    1    1    2    0  501 -0.98291007776E+02  0.13916913046E+03 -0.16121360735E+03  0.23456128469E+03  0.00000000000E+00 0.  1.
<mgrwt>
<rscale>  4 0.70771487E+03</rscale>
<asrwt>0</asrwt>
<pdfrwt beam="1">  1        3 0.82806531E-01 0.70771487E+03</pdfrwt>
<pdfrwt beam="2">  1       -3 0.35790301E-01 0.70771487E+03</pdfrwt>
<totfact> 0.27445905E+01</totfact>
</mgrwt>
</event>
<event>
 5    0  0.5719562E-003  0.8250872E+03  0.7546771E-02  0.9524398E-01
         -2   -1    0    0    0  501 -0.00000000000E+00  0.00000000000E+00  0.37061272727E+03  0.37061272727E+03  0.00000000000E+00 0. -1.
          2   -1    0    0  502    0  0.00000000000E+00 -0.00000000000E+00 -0.45921847363E+03  0.45921847363E+03  0.00000000000E+00 0.  1.
         25    1    1    2    0    0  0.35299058405E+02 -0.20807182366E+03 -0.34774936910E+03  0.42555203094E+03  0.12500000000E+03 0.  0.
          2    1    1    2  502    0 -0.60955126038E+02 -0.98728357225E+01 -0.37103045880E+01  0.61860865138E+02  0.00000000000E+00 0.  1.
         -2    1    1    2    0  501  0.25656067633E+02  0.21794465938E+03  0.26285392734E+03  0.34241830482E+03  0.00000000000E+00 0. -1.
<mgrwt>
<rscale>  4 0.82508717E+03</rscale>
<asrwt>0</asrwt>
<pdfrwt beam="1">  1        2 0.70648996E-01 0.82508717E+03</pdfrwt>
<pdfrwt beam="2">  1       -2 0.57017343E-01 0.82508717E+03</pdfrwt>
<totfact> 0.19725170E+02</totfact>
</mgrwt>
</event>
<event>
 5    0  0.5719562E-003  0.5034482E+03  0.7546771E-02  0.1012883E+00
         -2   -1    0    0    0  501 -0.00000000000E+00  0.00000000000E+00  0.25740419315E+02  0.25740419315E+02  0.00000000000E+00 0. -1.
          2   -1    0    0  502    0  0.00000000000E+00 -0.00000000000E+00 -0.24616935333E+04  0.24616935333E+04  0.00000000000E+00 0.  1.
         25    1    1    2    0    0 -0.13358058846E+03  0.18980330559E+03 -0.12556331908E+04  0.12830077078E+04  0.12500000000E+03 0.  0.
          2    1    1    2  502    0  0.10120436472E+03 -0.92545351274E+02 -0.65638187008E+03  0.67055508711E+03  0.00000000000E+00 0. -1.
         -2    1    1    2    0  501  0.32376223739E+02 -0.97257954318E+02 -0.52393805306E+03  0.53387115767E+03  0.00000000000E+00 0.  1.
<mgrwt>
<rscale>  4 0.50344820E+03</rscale>
<asrwt>0</asrwt>
<pdfrwt beam="1">  1        2 0.37872211E+00 0.50344820E+03</pdfrwt>
<pdfrwt beam="2">  1       -2 0.39600642E-02 0.50344820E+03</pdfrwt>
<totfact> 0.11455120E+03</totfact>
</mgrwt>
</event>
<event>
 5    0  0.5719562E-003  0.5277448E+03  0.7546771E-02  0.1006781E+00
          1   -1    0    0  502    0  0.00000000000E+00  0.00000000000E+00  0.15959583341E+03  0.15959583341E+03  0.00000000000E+00 0.  1.
         -1   -1    0    0    0  501 -0.00000000000E+00 -0.00000000000E+00 -0.43628102412E+03  0.43628102412E+03  0.00000000000E+00 0. -1.
         25    1    1    2    0    0 -0.22409338168E+03  0.13714464236E+02 -0.30721367737E+02  0.25879476942E+03  0.12500000000E+03 0.  0.
          4    1    1    2  502    0  0.10889650931E+03 -0.15086072270E+01 -0.15674382415E+03  0.19086474804E+03  0.00000000000E+00 0.  1.
         -4    1    1    2    0  501  0.11519687237E+03 -0.12205857009E+02 -0.89219998821E+02  0.14621734008E+03  0.00000000000E+00 0. -1.
<mgrwt>
<rscale>  4 0.52774476E+03</rscale>
<asrwt>0</asrwt>
<pdfrwt beam="1">  1        1 0.24553206E-01 0.52774476E+03</pdfrwt>
<pdfrwt beam="2">  1       -1 0.67120156E-01 0.52774476E+03</pdfrwt>
<totfact> 0.45537170E+02</totfact>
</mgrwt>
</event>
<event>
 5    0  0.5719562E-003  0.5009333E+03  0.7546771E-02  0.1013536E+00
          3   -1    0    0  502    0  0.00000000000E+00  0.00000000000E+00  0.29819960443E+03  0.29819960443E+03  0.00000000000E+00 0.  1.
         -3   -1    0    0    0  501 -0.00000000000E+00 -0.00000000000E+00 -0.21037437432E+03  0.21037437432E+03  0.00000000000E+00 0. -1.
         25    1    1    2    0    0 -0.12793243175E+03  0.15942886942E+03  0.56199115447E+02  0.24610488024E+03  0.12500000000E+03 0.  0.
          1    1    1    2  502    0  0.60142565717E+02 -0.48662613526E+02  0.91199240526E+02  0.11959297487E+03  0.00000000000E+00 0.  1.
         -1    1    1    2    0  501  0.67789866030E+02 -0.11076625590E+03 -0.59573125867E+02  0.14287612364E+03  0.00000000000E+00 0. -1.
<mgrwt>
<rscale>  4 0.50093335E+03</rscale>
<asrwt>0</asrwt>
<pdfrwt beam="1">  1        3 0.45876862E-01 0.50093335E+03</pdfrwt>
<pdfrwt beam="2">  1       -3 0.32365288E-01 0.50093335E+03</pdfrwt>
<totfact> 0.11554533E+02</totfact>
</mgrwt>
</event>
<event>
 5    0  0.5719562E-003  0.7274211E+03  0.7546771E-02  0.9671454E-01
         -1   -1    0    0    0  501 -0.00000000000E+00  0.00000000000E+00  0.27639607275E+03  0.27639607275E+03  0.00000000000E+00 0. -1.
          1   -1    0    0  502    0  0.00000000000E+00 -0.00000000000E+00 -0.47860796324E+03  0.47860796324E+03  0.00000000000E+00 0.  1.
         25    1    1    2    0    0  0.21925273719E+03 -0.24296128980E+03  0.15649292261E+01  0.35032756116E+03  0.12500000000E+03 0.  0.
          3    1    1    2  502    0 -0.13651915204E+02  0.69365994028E+02 -0.64452554589E+01  0.70989838950E+02  0.00000000000E+00 0. -1.
         -3    1    1    2    0  501 -0.20560082198E+03  0.17359529577E+03 -0.19733156425E+03  0.33368663588E+03  0.00000000000E+00 0.  1.
<mgrwt>
<rscale>  4 0.72742109E+03</rscale>
<asrwt>0</asrwt>
<pdfrwt beam="1">  1        1 0.73631993E-01 0.72742109E+03</pdfrwt>
<pdfrwt beam="2">  1       -1 0.42522473E-01 0.72742109E+03</pdfrwt>
<totfact> 0.25940054E+02</totfact>
</mgrwt>
</event>
<event>
 5    0  0.5719562E-003  0.4446770E+03  0.7546771E-02  0.1029321E+00
         -1   -1    0    0    0  501 -0.00000000000E+00  0.00000000000E+00  0.12034955935E+04  0.12034955935E+04  0.00000000000E+00 0. -1.
          1   -1    0    0  502    0  0.00000000000E+00 -0.00000000000E+00 -0.41075683449E+02  0.41075683449E+02  0.00000000000E+00 0.  1.
         25    1    1    2    0    0 -0.17631529412E+03  0.94526088247E+02  0.53851689834E+03  0.58791811854E+03  0.12500000000E+03 0.  0.
          2    1    1    2  502    0  0.36372826962E+02 -0.37855405254E+02  0.13039227962E+03  0.14056372516E+03  0.00000000000E+00 0.  1.
         -2    1    1    2    0  501  0.13994246716E+03 -0.56670682993E+02  0.49351073214E+03  0.51608943329E+03  0.00000000000E+00 0. -1.
<mgrwt>
<rscale>  4 0.44467698E+03</rscale>
<asrwt>0</asrwt>
<pdfrwt beam="1">  1        1 0.63193368E-02 0.44467698E+03</pdfrwt>
<pdfrwt beam="2">  1       -1 0.18515314E+00 0.44467698E+03</pdfrwt>
<totfact> 0.25142268E+02</totfact>
</mgrwt>
</event>
<event>
 5    0  0.5719562E-003  0.5679993E+03  0.7546771E-02  0.9974116E-01
         -1   -1    0    0    0  501 -0.00000000000E+00  0.00000000000E+00  0.28810894556E+03  0.28810894556E+03  0.00000000000E+00 0.  1.
          1   -1    0    0  502    0  0.00000000000E+00 -0.00000000000E+00 -0.27994893563E+03  0.27994893563E+03  0.00000000000E+00 0. -1.
         25    1    1    2    0    0 -0.17421132208E+03 -0.17755284292E+03  0.94660337952E+02  0.29404111337E+03  0.12500000000E+03 0.  0.
          2    1    1    2  502    0  0.91051931076E+02  0.12433832381E+03 -0.83419048476E+02  0.17524043645E+03  0.00000000000E+00 0. -1.
         -2    1    1    2    0  501  0.83159391005E+02  0.53214519108E+02 -0.30812795469E+01  0.98776331374E+02  0.00000000000E+00 0.  1.
<mgrwt>
<rscale>  4 0.56799927E+03</rscale>
<asrwt>0</asrwt>
<pdfrwt beam="1">  1        1 0.43069067E-01 0.56799927E+03</pdfrwt>
<pdfrwt beam="2">  1       -1 0.44324453E-01 0.56799927E+03</pdfrwt>
<totfact> 0.48894243E+02</totfact>
</mgrwt>
</event>
<event>
 5    0  0.5719562E-003  0.4947809E+03  0.7546771E-02  0.1015150E+00
          1   -1    0    0  502    0  0.00000000000E+00  0.00000000000E+00  0.34838100667E+02  0.34838100667E+02  0.00000000000E+00 0.  1.
         -1   -1    0    0    0  501 -0.00000000000E+00 -0.00000000000E+00 -0.17567560218E+04  0.17567560218E+04  0.00000000000E+00 0. -1.
         25    1    1    2    0    0 -0.90865259493E+02  0.19466048830E+03 -0.84082119129E+03  0.87678644881E+03  0.12500000000E+03 0.  0.
          3    1    1    2  502    0  0.81568878497E+02 -0.12927435255E+03 -0.38339799970E+03  0.41274612820E+03  0.00000000000E+00 0.  1.
         -3    1    1    2    0  501  0.92963809962E+01 -0.65386135747E+02 -0.49769873015E+03  0.50206154547E+03  0.00000000000E+00 0. -1.
<mgrwt>
<rscale>  4 0.49478093E+03</rscale>
<asrwt>0</asrwt>
<pdfrwt beam="1">  1        1 0.53597084E-02 0.49478093E+03</pdfrwt>
<pdfrwt beam="2">  1       -1 0.27027013E+00 0.49478093E+03</pdfrwt>
<totfact> 0.87336187E+01</totfact>
</mgrwt>
</event>
<event>
 5    0  0.5719562E-003  0.8457718E+03  0.7546771E-02  0.9496030E-01
         -2   -1    0    0    0  501 -0.00000000000E+00  0.00000000000E+00  0.90061059557E+02  0.90061059557E+02  0.00000000000E+00 0. -1.
          2   -1    0    0  502    0  0.00000000000E+00 -0.00000000000E+00 -0.19856803067E+04  0.19856803067E+04  0.00000000000E+00 0.  1.
         25    1    1    2    0    0 -0.58428687496E+02  0.35197065167E+03 -0.14005425986E+04  0.14506694391E+04  0.12500000000E+03 0.  0.
          1    1    1    2  502    0 -0.18735574664E+02 -0.22617916342E+03 -0.23951742411E+03  0.32996459231E+03  0.00000000000E+00 0. -1.
         -1    1    1    2    0  501  0.77164262160E+02 -0.12579148825E+03 -0.25555922445E+03  0.29510733484E+03  0.00000000000E+00 0.  1.
<mgrwt>
<rscale>  4 0.84577177E+03</rscale>
<asrwt>0</asrwt>
<pdfrwt beam="1">  1        2 0.30548928E+00 0.84577177E+03</pdfrwt>
<pdfrwt beam="2">  1       -2 0.13855548E-01 0.84577177E+03</pdfrwt>
<totfact> 0.27685036E+02</totfact>
</mgrwt>
</event>
<event>
 5    0  0.5719562E-003  0.5476294E+03  0.7546771E-02  0.1002044E+00
         -1   -1    0    0    0  501 -0.00000000000E+00  0.00000000000E+00  0.12666219583E+03  0.12666219583E+03  0.00000000000E+00 0. -1.
          1   -1    0    0  502    0  0.00000000000E+00 -0.00000000000E+00 -0.59192478418E+03  0.59192478418E+03  0.00000000000E+00 0.  1.
         25    1    1    2    0    0 -0.16007038454E+03  0.19624230779E+03 -0.18147589920E+03  0.33569640058E+03  0.12500000000E+03 0.  0.
          2    1    1    2  502    0  0.11550872608E+03 -0.15871419855E+03 -0.23976197848E+03  0.30986814768E+03  0.00000000000E+00 0.  1.
         -2    1    1    2    0  501  0.44561658454E+02 -0.37528109246E+02 -0.44024710671E+02  0.73022431741E+02  0.00000000000E+00 0. -1.
<mgrwt>
<rscale>  4 0.54762941E+03</rscale>
<asrwt>0</asrwt>
<pdfrwt beam="1">  1        1 0.91065348E-01 0.54762941E+03</pdfrwt>
<pdfrwt beam="2">  1       -1 0.19486492E-01 0.54762941E+03</pdfrwt>
<totfact> 0.75178988E+02</totfact>
</mgrwt>
</event>
<event>
 5    0  0.5719562E-003  0.5908448E+03  0.7546771E-02  0.9924584E-01
         -1   -1    0    0    0  501 -0.00000000000E+00  0.00000000000E+00  0.11234374169E+03  0.11234374169E+03  0.00000000000E+00 0. -1.
          1   -1    0    0  502    0  0.00000000000E+00 -0.00000000000E+00 -0.77685128223E+03  0.77685128223E+03  0.00000000000E+00 0.  1.
         25    1    1    2    0    0 -0.11849260756E+03  0.16627960688E+03 -0.15818718680E+03  0.28694527663E+03  0.12500000000E+03 0.  0.
          3    1    1    2  502    0  0.88630512453E+02  0.12397658884E+02 -0.32893348007E+02  0.95346956042E+02  0.00000000000E+00 0. -1.
         -3    1    1    2    0  501  0.29862095105E+02 -0.17867726576E+03 -0.47342700573E+03  0.50690279125E+03  0.00000000000E+00 0.  1.
<mgrwt>
<rscale>  4 0.59084475E+03</rscale>
<asrwt>0</asrwt>
<pdfrwt beam="1">  1        1 0.11951559E+00 0.59084475E+03</pdfrwt>
<pdfrwt beam="2">  1       -1 0.17283652E-01 0.59084475E+03</pdfrwt>
<totfact> 0.61065274E+02</totfact>
</mgrwt>
</event>
<event>
 5    0  0.5719562E-003  0.4721628E+03  0.7546771E-02  0.1021312E+00
         -2   -1    0    0    0  501 -0.00000000000E+00  0.00000000000E+00  0.28913196485E+03  0.28913196485E+03  0.00000000000E+00 0. -1.
          2   -1    0    0  502    0  0.00000000000E+00 -0.00000000000E+00 -0.19276464100E+03  0.19276464100E+03  0.00000000000E+00 0.  1.
         25    1    1    2    0    0  0.13629330036E+03  0.15709993126E+03  0.14748010506E+02  0.24310235692E+03  0.12500000000E+03 0.  0.
          1    1    1    2  502    0 -0.60150822433E+02 -0.12788596783E+03  0.65030959944E+02  0.15556981699E+03  0.00000000000E+00 0. -1.
         -1    1    1    2    0  501 -0.76142477925E+02 -0.29213963435E+02  0.16588353400E+02  0.83224431946E+02  0.00000000000E+00 0.  1.
<mgrwt>
<rscale>  4 0.47216277E+03</rscale>
<asrwt>0</asrwt>
<pdfrwt beam="1">  1        2 0.29656099E-01 0.47216277E+03</pdfrwt>
<pdfrwt beam="2">  1       -2 0.44481841E-01 0.47216277E+03</pdfrwt>
<totfact> 0.86666376E+02</totfact>
</mgrwt>
</event>
<event>
 5    0  0.5719562E-003  0.1008694E+04  0.7546771E-02  0.9299060E-01
          1   -1    0    0  502    0  0.00000000000E+00  0.00000000000E+00  0.17957039104E+04  0.17957039104E+04  0.00000000000E+00 0. -1.
         -1   -1    0    0    0  501 -0.00000000000E+00 -0.00000000000E+00 -0.14165252157E+03  0.14165252157E+03  0.00000000000E+00 0.  1.
         25    1    1    2    0    0  0.24601054007E+03 -0.40469443094E+03  0.88508072296E+03  0.10115787930E+04  0.12500000000E+03 0.  0.
          2    1    1    2  502    0 -0.19332539275E+03  0.41683123020E+03  0.71062804565E+03  0.84623590164E+03  0.00000000000E+00 0. -1.
         -2    1    1    2    0  501 -0.52685147325E+02 -0.12136799264E+02  0.58342620180E+02  0.79541737311E+02  0.00000000000E+00 0.  1.
<mgrwt>
<rscale>  4 0.10086942E+04</rscale>
<asrwt>0</asrwt>
<pdfrwt beam="1">  1        1 0.27626212E+00 0.10086942E+04</pdfrwt>
<pdfrwt beam="2">  1       -1 0.21792697E-01 0.10086942E+04</pdfrwt>
<totfact> 0.72921355E+01</totfact>
</mgrwt>
</event>
<event>
 5    0  0.5719562E-003  0.5478596E+03  0.7546771E-02  0.1001991E+00
          2   -1    0    0  502    0  0.00000000000E+00  0.00000000000E+00  0.20404590177E+04  0.20404590177E+04  0.00000000000E+00 0. -1.
         -2   -1    0    0    0  501 -0.00000000000E+00 -0.00000000000E+00 -0.36774833518E+02  0.36774833518E+02  0.00000000000E+00 0.  1.
         25    1    1    2    0    0  0.19120773704E+03  0.80167201874E+02  0.10705418228E+04  0.10975754978E+04  0.12500000000E+03 0.  0.
          4    1    1    2  502    0 -0.22692637153E+03 -0.98780233568E+02  0.68652763017E+03  0.72977619832E+03  0.00000000000E+00 0.  1.
         -4    1    1    2    0  501  0.35718634488E+02  0.18613031694E+02  0.24661473121E+03  0.24988215512E+03  0.00000000000E+00 0. -1.
<mgrwt>
<rscale>  4 0.54785962E+03</rscale>
<asrwt>0</asrwt>
<pdfrwt beam="1">  1        2 0.31391668E+00 0.54785962E+03</pdfrwt>
<pdfrwt beam="2">  1       -2 0.56576683E-02 0.54785962E+03</pdfrwt>
<totfact> 0.11198173E+03</totfact>
</mgrwt>
</event>
<event>
 5    0  0.5719562E-003  0.6902415E+03  0.7546771E-02  0.9734068E-01
         -1   -1    0    0    0  501 -0.00000000000E+00  0.00000000000E+00  0.13099146020E+03  0.13099146020E+03  0.00000000000E+00 0. -1.
          1   -1    0    0  502    0  0.00000000000E+00 -0.00000000000E+00 -0.90928317243E+03  0.90928317243E+03  0.00000000000E+00 0.  1.
         25    1    1    2    0    0  0.26206421606E+03 -0.20358333707E+03 -0.40605964460E+03  0.53910413043E+03  0.12500000000E+03 0.  0.
          3    1    1    2  502    0 -0.32341099602E+02  0.23331425484E+02 -0.23327667896E+02  0.46200457012E+02  0.00000000000E+00 0.  1.
         -3    1    1    2    0  501 -0.22972311646E+03  0.18025191159E+03 -0.34890439974E+03  0.45497004519E+03  0.00000000000E+00 0. -1.
<mgrwt>
<rscale>  4 0.69024150E+03</rscale>
<asrwt>0</asrwt>
<pdfrwt beam="1">  1        1 0.13988972E+00 0.69024150E+03</pdfrwt>
<pdfrwt beam="2">  1       -1 0.20152532E-01 0.69024150E+03</pdfrwt>
<totfact> 0.36535401E+02</totfact>
</mgrwt>
</event>
<event>
 5    0  0.5719562E-003  0.5701717E+03  0.7546771E-02  0.9969299E-01
          1   -1    0    0  502    0  0.00000000000E+00  0.00000000000E+00  0.47109584444E+03  0.47109584444E+03  0.00000000000E+00 0.  1.
         -1   -1    0    0    0  501 -0.00000000000E+00 -0.00000000000E+00 -0.17252100549E+03  0.17252100549E+03  0.00000000000E+00 0. -1.
         25    1    1    2    0    0  0.19078586770E+02 -0.22509418928E+03  0.19236875638E+03  0.32196603074E+03  0.12500000000E+03 0.  0.
          2    1    1    2  502    0  0.31366421995E+02  0.12280935276E+03  0.15273300170E+03  0.19847760418E+03  0.00000000000E+00 0.  1.
         -2    1    1    2    0  501 -0.50445008765E+02  0.10228483652E+03 -0.46526919130E+02  0.12317321501E+03  0.00000000000E+00 0. -1.
<mgrwt>
<rscale>  4 0.57017165E+03</rscale>
<asrwt>0</asrwt>
<pdfrwt beam="1">  1        1 0.72476283E-01 0.57017165E+03</pdfrwt>
<pdfrwt beam="2">  1       -1 0.26541693E-01 0.57017165E+03</pdfrwt>
<totfact> 0.61313538E+02</totfact>
</mgrwt>
</event>
<event>
 5    0  0.5719562E-003  0.6798215E+03  0.7546771E-02  0.9752376E-01
          2   -1    0    0  502    0  0.00000000000E+00  0.00000000000E+00  0.11757482592E+04  0.11757482592E+04  0.00000000000E+00 0. -1.
         -2   -1    0    0    0  501 -0.00000000000E+00 -0.00000000000E+00 -0.98268758825E+02  0.98268758825E+02  0.00000000000E+00 0.  1.
         25    1    1    2    0    0  0.17676481913E+03 -0.14901381561E+03  0.12129931871E+03  0.28946406209E+03  0.12500000000E+03 0.  0.
          4    1    1    2  502    0 -0.30333601340E+02  0.32762767977E+02  0.12907351847E+03  0.13657781484E+03  0.00000000000E+00 0. -1.
         -4    1    1    2    0  501 -0.14643121779E+03  0.11625104763E+03  0.82710666320E+03  0.84797514111E+03  0.00000000000E+00 0.  1.
<mgrwt>
<rscale>  4 0.67982151E+03</rscale>
<asrwt>0</asrwt>
<pdfrwt beam="1">  1        2 0.18088434E+00 0.67982151E+03</pdfrwt>
<pdfrwt beam="2">  1       -2 0.15118271E-01 0.67982151E+03</pdfrwt>
<totfact> 0.68370578E+02</totfact>
</mgrwt>
</event>
<event>
 5    0  0.5719562E-003  0.4735382E+03  0.7546771E-02  0.1020926E+00
          2   -1    0    0  502    0  0.00000000000E+00  0.00000000000E+00  0.51009422073E+03  0.51009422073E+03  0.00000000000E+00 0.  1.
         -2   -1    0    0    0  501 -0.00000000000E+00 -0.00000000000E+00 -0.10990049630E+03  0.10990049630E+03  0.00000000000E+00 0. -1.
         25    1    1    2    0    0  0.20144672509E+03 -0.34721306860E+02  0.25773975816E+03  0.35191069199E+03  0.12500000000E+03 0.  0.
          4    1    1    2  502    0 -0.16330020077E+03  0.31986668056E+02  0.15542539165E+03  0.22769970328E+03  0.00000000000E+00 0.  1.
         -4    1    1    2    0  501 -0.38146524328E+02  0.27346388039E+01 -0.12971425377E+02  0.40384321760E+02  0.00000000000E+00 0. -1.
<mgrwt>
<rscale>  4 0.47353821E+03</rscale>
<asrwt>0</asrwt>
<pdfrwt beam="1">  1        2 0.78476033E-01 0.47353821E+03</pdfrwt>
<pdfrwt beam="2">  1       -2 0.16907769E-01 0.47353821E+03</pdfrwt>
<totfact> 0.17135708E+03</totfact>
</mgrwt>
</event>
<event>
 5    0  0.5719562E-003  0.6744514E+03  0.7546771E-02  0.9761950E-01
          2   -1    0    0  502    0  0.00000000000E+00  0.00000000000E+00  0.29996513940E+03  0.29996513940E+03  0.00000000000E+00 0.  1.
         -2   -1    0    0    0  501 -0.00000000000E+00 -0.00000000000E+00 -0.37911464388E+03  0.37911464388E+03  0.00000000000E+00 0. -1.
         25    1    1    2    0    0 -0.16296250154E+03  0.13521419657E+03  0.18883451512E+03  0.31003730415E+03  0.12500000000E+03 0.  0.
          4    1    1    2  502    0 -0.11016727467E+02 -0.49003023932E+02 -0.19940383749E+02  0.54039647876E+02  0.00000000000E+00 0.  1.
         -4    1    1    2    0  501  0.17397922901E+03 -0.86211172636E+02 -0.24804363585E+03  0.31500283126E+03  0.00000000000E+00 0. -1.
<mgrwt>
<rscale>  4 0.67445141E+03</rscale>
<asrwt>0</asrwt>
<pdfrwt beam="1">  1        2 0.46148483E-01 0.67445141E+03</pdfrwt>
<pdfrwt beam="2">  1       -2 0.58325330E-01 0.67445141E+03</pdfrwt>
<totfact> 0.30487434E+02</totfact>
</mgrwt>
</event>
<event>
 5    0  0.5719562E-003  0.5989854E+03  0.7546771E-02  0.9907513E-01
         -3   -1    0    0    0  501 -0.00000000000E+00  0.00000000000E+00  0.38734848145E+03  0.38734848145E+03  0.00000000000E+00 0. -1.
          3   -1    0    0  502    0  0.00000000000E+00 -0.00000000000E+00 -0.23156375123E+03  0.23156375123E+03  0.00000000000E+00 0.  1.
         25    1    1    2    0    0 -0.45629805341E+02  0.21857917828E+03 -0.61993600306E+02  0.26330048005E+03  0.12500000000E+03 0.  0.
          4    1    1    2  502    0  0.29322271289E+01 -0.19225850007E+03  0.23402711967E+03  0.30288714325E+03  0.00000000000E+00 0. -1.
         -4    1    1    2    0  501  0.42697578212E+02 -0.26320678214E+02 -0.16248789143E+02  0.52724609391E+02  0.00000000000E+00 0.  1.
<mgrwt>
<rscale>  4 0.59898537E+03</rscale>
<asrwt>0</asrwt>
<pdfrwt beam="1">  1        3 0.35625192E-01 0.59898537E+03</pdfrwt>
<pdfrwt beam="2">  1       -3 0.59592074E-01 0.59898537E+03</pdfrwt>
<totfact> 0.56418971E+01</totfact>
</mgrwt>
</event>
<event>
 5    0  0.5719562E-003  0.4800144E+03  0.7546771E-02  0.1019131E+00
         -1   -1    0    0    0  501 -0.00000000000E+00  0.00000000000E+00  0.17259232629E+04  0.17259232629E+04  0.00000000000E+00 0. -1.
          1   -1    0    0  502    0  0.00000000000E+00 -0.00000000000E+00 -0.33375442269E+02  0.33375442269E+02  0.00000000000E+00 0.  1.
         25    1    1    2    0    0  0.20453441227E+03 -0.38224960775E+02  0.97583918782E+03  0.10055757524E+04  0.12500000000E+03 0.  0.
          2    1    1    2  502    0 -0.20608230783E+03  0.14196036030E+02  0.60022721569E+03  0.63477882407E+03  0.00000000000E+00 0.  1.
         -2    1    1    2    0  501  0.15478955616E+01  0.24028924745E+02  0.11648141716E+03  0.11894412869E+03  0.00000000000E+00 0. -1.
<mgrwt>
<rscale>  4 0.48001438E+03</rscale>
<asrwt>0</asrwt>
<pdfrwt beam="1">  1        1 0.51346848E-02 0.48001438E+03</pdfrwt>
<pdfrwt beam="2">  1       -1 0.26552659E+00 0.48001438E+03</pdfrwt>
<totfact> 0.99558156E+01</totfact>
</mgrwt>
</event>
<event>
 5    0  0.5719562E-003  0.5630319E+03  0.7546771E-02  0.9985218E-01
          2   -1    0    0  502    0  0.00000000000E+00  0.00000000000E+00  0.12997675602E+04  0.12997675602E+04  0.00000000000E+00 0. -1.
         -2   -1    0    0    0  501 -0.00000000000E+00 -0.00000000000E+00 -0.60973396510E+02  0.60973396510E+02  0.00000000000E+00 0.  1.
         25    1    1    2    0    0  0.76621302535E+02  0.18622174879E+03  0.10117828875E+04  0.10391722548E+04  0.12500000000E+03 0.  0.
          4    1    1    2  502    0 -0.14001505132E+02 -0.12194414329E+03  0.18612650951E+03  0.22295625978E+03  0.00000000000E+00 0. -1.
         -4    1    1    2    0  501 -0.62619797403E+02 -0.64277605498E+02  0.40884766672E+02  0.98612442122E+02  0.00000000000E+00 0.  1.
<mgrwt>
<rscale>  4 0.56303195E+03</rscale>
<asrwt>0</asrwt>
<pdfrwt beam="1">  1        2 0.19996422E+00 0.56303195E+03</pdfrwt>
<pdfrwt beam="2">  1       -2 0.93805235E-02 0.56303195E+03</pdfrwt>
<totfact> 0.12772575E+03</totfact>
</mgrwt>
</event>
<event>
 5    0  0.5719562E-003  0.6498860E+03  0.7546771E-02  0.9806993E-01
          1   -1    0    0  502    0  0.00000000000E+00  0.00000000000E+00  0.20104961089E+03  0.20104961089E+03  0.00000000000E+00 0.  1.
         -1   -1    0    0    0  501 -0.00000000000E+00 -0.00000000000E+00 -0.52518355685E+03  0.52518355685E+03  0.00000000000E+00 0. -1.
         25    1    1    2    0    0 -0.21760318837E+03  0.14926016009E+03 -0.41411302853E+01  0.29201351328E+03  0.12500000000E+03 0.  0.
          3    1    1    2  502    0  0.11094476521E+03 -0.12937373980E+03 -0.25815379156E+03  0.30933749461E+03  0.00000000000E+00 0. -1.
         -3    1    1    2    0  501  0.10665842317E+03 -0.19886420286E+02 -0.61839024117E+02  0.12488215985E+03  0.00000000000E+00 0.  1.
<mgrwt>
<rscale>  4 0.64988599E+03</rscale>
<asrwt>0</asrwt>
<pdfrwt beam="1">  1        1 0.30930709E-01 0.64988599E+03</pdfrwt>
<pdfrwt beam="2">  1       -1 0.80797471E-01 0.64988599E+03</pdfrwt>
<totfact> 0.22915957E+02</totfact>
</mgrwt>
</event>
<event>
 5    0  0.5719562E-003  0.7377261E+03  0.7546771E-02  0.9654805E-01
          2   -1    0    0  502    0  0.00000000000E+00  0.00000000000E+00  0.71774260741E+02  0.71774260741E+02  0.00000000000E+00 0. -1.
         -2   -1    0    0    0  501 -0.00000000000E+00 -0.00000000000E+00 -0.18956649356E+04  0.18956649356E+04  0.00000000000E+00 0.  1.
         25    1    1    2    0    0  0.20578905921E+03 -0.15859892395E+03 -0.84927036987E+03  0.89687675670E+03  0.12500000000E+03 0.  0.
          1    1    1    2  502    0  0.10141582912E+03  0.17296779004E+02 -0.18720285147E+03  0.21361005725E+03  0.00000000000E+00 0.  1.
         -1    1    1    2    0  501 -0.30720488833E+03  0.14130214494E+03 -0.78741745347E+03  0.85695238235E+03  0.00000000000E+00 0. -1.
<mgrwt>
<rscale>  4 0.73772610E+03</rscale>
<asrwt>0</asrwt>
<pdfrwt beam="1">  1        2 0.11042195E-01 0.73772610E+03</pdfrwt>
<pdfrwt beam="2">  1       -2 0.29164074E+00 0.73772610E+03</pdfrwt>
<totfact> 0.21790682E+01</totfact>
</mgrwt>
</event>
<event>
 5    0  0.5719562E-003  0.5790699E+03  0.7546771E-02  0.9949807E-01
         -2   -1    0    0    0  501 -0.00000000000E+00  0.00000000000E+00  0.90820218912E+02  0.90820218912E+02  0.00000000000E+00 0.  1.
          2   -1    0    0  502    0  0.00000000000E+00 -0.00000000000E+00 -0.92303769003E+03  0.92303769003E+03  0.00000000000E+00 0. -1.
         25    1    1    2    0    0 -0.17581371034E+03 -0.12499591146E+03 -0.13879477201E+03  0.28534790583E+03  0.12500000000E+03 0.  0.
          3    1    1    2  502    0  0.17294151899E+02  0.22876231350E+02 -0.16447325880E+03  0.16695467203E+03  0.00000000000E+00 0. -1.
         -3    1    1    2    0  501  0.15851955844E+03  0.10211968011E+03 -0.52894944031E+03  0.56155533109E+03  0.00000000000E+00 0.  1.
<mgrwt>
<rscale>  4 0.57906989E+03</rscale>
<asrwt>0</asrwt>
<pdfrwt beam="1">  1        2 0.14200581E+00 0.57906989E+03</pdfrwt>
<pdfrwt beam="2">  1       -2 0.13972340E-01 0.57906989E+03</pdfrwt>
<totfact> 0.11247755E+03</totfact>
</mgrwt>
</event>
<event>
 5    0  0.5719562E-003  0.5018972E+03  0.7546771E-02  0.1013285E+00
         -2   -1    0    0    0  501 -0.00000000000E+00  0.00000000000E+00  0.23620146916E+03  0.23620146916E+03  0.00000000000E+00 0. -1.
          2   -1    0    0  502    0  0.00000000000E+00 -0.00000000000E+00 -0.26661645546E+03  0.26661645546E+03  0.00000000000E+00 0.  1.
         25    1    1    2    0    0  0.20019425294E+03  0.50159037407E+02 -0.53927229991E+02  0.24723837502E+03  0.12500000000E+03 0.  0.
          4    1    1    2  502    0 -0.19513928946E+02  0.40613489078E+02 -0.19097331579E+02  0.48938297799E+02  0.00000000000E+00 0.  1.
         -4    1    1    2    0  501 -0.18068032400E+03 -0.90772526485E+02  0.42609575274E+02  0.20664125181E+03  0.00000000000E+00 0. -1.
<mgrwt>
<rscale>  4 0.50189719E+03</rscale>
<asrwt>0</asrwt>
<pdfrwt beam="1">  1        2 0.41017916E-01 0.50189719E+03</pdfrwt>
<pdfrwt beam="2">  1       -2 0.36338688E-01 0.50189719E+03</pdfrwt>
<totfact> 0.89505422E+02</totfact>
</mgrwt>
</event>
<event>
 5    0  0.5719562E-003  0.4859720E+03  0.7546771E-02  0.1017507E+00
          1   -1    0    0  502    0  0.00000000000E+00  0.00000000000E+00  0.79554626480E+03  0.79554626480E+03  0.00000000000E+00 0.  1.
         -1   -1    0    0    0  501 -0.00000000000E+00 -0.00000000000E+00 -0.74215923266E+02  0.74215923266E+02  0.00000000000E+00 0. -1.
         25    1    1    2    0    0  0.27227208370E+02 -0.20732122169E+03  0.53437383990E+03  0.58728511867E+03  0.12500000000E+03 0.  0.
          4    1    1    2  502    0  0.34030181044E+01  0.37207685067E+02  0.47187779539E+02  0.60188694105E+02  0.00000000000E+00 0.  1.
         -4    1    1    2    0  501 -0.30630226475E+02  0.17011353662E+03  0.13976872209E+03  0.22228837529E+03  0.00000000000E+00 0. -1.
<mgrwt>
<rscale>  4 0.48597202E+03</rscale>
<asrwt>0</asrwt>
<pdfrwt beam="1">  1        1 0.12239173E+00 0.48597202E+03</pdfrwt>
<pdfrwt beam="2">  1       -1 0.11417835E-01 0.48597202E+03</pdfrwt>
<totfact> 0.11495334E+03</totfact>
</mgrwt>
</event>
<event>
 5    0  0.5719562E-003  0.5843006E+03  0.7546771E-02  0.9938523E-01
         -2   -1    0    0    0  501 -0.00000000000E+00  0.00000000000E+00  0.49739964033E+02  0.49739964033E+02  0.00000000000E+00 0.  1.
          2   -1    0    0  502    0  0.00000000000E+00 -0.00000000000E+00 -0.17159602406E+04  0.17159602406E+04  0.00000000000E+00 0. -1.
         25    1    1    2    0    0  0.20346860812E+03  0.15223443465E+03 -0.58455742759E+03  0.64954382742E+03  0.12500000000E+03 0.  0.
          4    1    1    2  502    0 -0.10762221431E+03 -0.14091983943E+03 -0.64289688527E+03  0.66690130248E+03  0.00000000000E+00 0.  1.
         -4    1    1    2    0  501 -0.95846393810E+02 -0.11314595219E+02 -0.43876596373E+03  0.44925507476E+03  0.00000000000E+00 0. -1.
<mgrwt>
<rscale>  4 0.58430061E+03</rscale>
<asrwt>0</asrwt>
<pdfrwt beam="1">  1        2 0.26399384E+00 0.58430061E+03</pdfrwt>
<pdfrwt beam="2">  1       -2 0.76523034E-02 0.58430061E+03</pdfrwt>
<totfact> 0.10404352E+03</totfact>
</mgrwt>
</event>
<event>
 5    0  0.5719562E-003  0.6635847E+03  0.7546771E-02  0.9781617E-01
          1   -1    0    0  502    0  0.00000000000E+00  0.00000000000E+00  0.29551131969E+04  0.29551131969E+04  0.00000000000E+00 0.  1.
         -1   -1    0    0    0  501 -0.00000000000E+00 -0.00000000000E+00 -0.37252779412E+02  0.37252779412E+02  0.00000000000E+00 0. -1.
         25    1    1    2    0    0 -0.16582839082E+03  0.22427420816E+03  0.85422960087E+03  0.90726577509E+03  0.12500000000E+03 0.  0.
          2    1    1    2  502    0  0.11107323959E+03 -0.93961025187E+02  0.75759612117E+03  0.77143879966E+03  0.00000000000E+00 0. -1.
         -2    1    1    2    0  501  0.54755151222E+02 -0.13031318297E+03  0.13060346955E+04  0.13136614016E+04  0.00000000000E+00 0.  1.
<mgrwt>
<rscale>  4 0.66358475E+03</rscale>
<asrwt>0</asrwt>
<pdfrwt beam="1">  1        1 0.45463261E+00 0.66358475E+03</pdfrwt>
<pdfrwt beam="2">  1       -1 0.57311992E-02 0.66358475E+03</pdfrwt>
<totfact> 0.10353846E+02</totfact>
</mgrwt>
</event>
<event>
 5    0  0.5719562E-003  0.7345268E+03  0.7546771E-02  0.9659943E-01
         -2   -1    0    0    0  501 -0.00000000000E+00  0.00000000000E+00  0.14742541643E+04  0.14742541643E+04  0.00000000000E+00 0.  1.
          2   -1    0    0  502    0  0.00000000000E+00 -0.00000000000E+00 -0.91491961596E+02  0.91491961596E+02  0.00000000000E+00 0. -1.
         25    1    1    2    0    0  0.12469294408E+03  0.28157326552E+03  0.62955081942E+03  0.71189259611E+03  0.12500000000E+03 0.  0.
          2    1    1    2  502    0 -0.44671086090E+01 -0.83809882628E+02  0.51474426996E+03  0.52154167134E+03  0.00000000000E+00 0.  1.
         -2    1    1    2    0  501 -0.12022583547E+03 -0.19776338290E+03  0.23846711332E+03  0.33231185844E+03  0.00000000000E+00 0. -1.
<mgrwt>
<rscale>  4 0.73452680E+03</rscale>
<asrwt>0</asrwt>
<pdfrwt beam="1">  1        2 0.14075687E-01 0.73452680E+03</pdfrwt>
<pdfrwt beam="2">  1       -2 0.22680832E+00 0.73452680E+03</pdfrwt>
<totfact> 0.39716977E+01</totfact>
</mgrwt>
</event>
<event>
 5    0  0.5719562E-003  0.6391946E+03  0.7546771E-02  0.9827269E-01
          1   -1    0    0  502    0  0.00000000000E+00  0.00000000000E+00  0.13601953574E+04  0.13601953574E+04  0.00000000000E+00 0. -1.
         -1   -1    0    0    0  501 -0.00000000000E+00 -0.00000000000E+00 -0.75093934168E+02  0.75093934168E+02  0.00000000000E+00 0.  1.
         25    1    1    2    0    0  0.13686814147E+03 -0.24026965537E+03  0.95711483184E+03  0.10040698167E+04  0.12500000000E+03 0.  0.
          1    1    1    2  502    0 -0.22355618176E+01  0.27286860727E+02  0.41209572555E+02  0.49475240021E+02  0.00000000000E+00 0. -1.
         -1    1    1    2    0  501 -0.13463257965E+03  0.21298279464E+03  0.28677701881E+03  0.38174423484E+03  0.00000000000E+00 0.  1.
<mgrwt>
<rscale>  4 0.63919456E+03</rscale>
<asrwt>0</asrwt>
<pdfrwt beam="1">  1        1 0.20926081E+00 0.63919456E+03</pdfrwt>
<pdfrwt beam="2">  1       -1 0.11552914E-01 0.63919456E+03</pdfrwt>
<totfact> 0.41974587E+02</totfact>
</mgrwt>
</event>
<event>
 5    0  0.5719562E-003  0.6423476E+03  0.7546771E-02  0.9821245E-01
         -2   -1    0    0    0  501 -0.00000000000E+00  0.00000000000E+00  0.14556186170E+03  0.14556186170E+03  0.00000000000E+00 0.  1.
          2   -1    0    0  502    0  0.00000000000E+00 -0.00000000000E+00 -0.70865144229E+03  0.70865144229E+03  0.00000000000E+00 0. -1.
         25    1    1    2    0    0 -0.64795208715E+02  0.21516226179E+03 -0.18573584959E+03  0.31720028971E+03  0.12500000000E+03 0.  0.
          2    1    1    2  502    0 -0.78836356457E+02 -0.18692943510E+02 -0.24903601040E+03  0.26188457708E+03  0.00000000000E+00 0. -1.
         -2    1    1    2    0  501  0.14363156517E+03 -0.19646931828E+03 -0.12831772060E+03  0.27512843721E+03  0.00000000000E+00 0.  1.
<mgrwt>
<rscale>  4 0.64234764E+03</rscale>
<asrwt>0</asrwt>
<pdfrwt beam="1">  1        2 0.10902330E+00 0.64234764E+03</pdfrwt>
<pdfrwt beam="2">  1       -2 0.22394133E-01 0.64234764E+03</pdfrwt>
<totfact> 0.70863244E+02</totfact>
</mgrwt>
</event>
<event>
 5    0  0.5719562E-003  0.5285014E+03  0.7546771E-02  0.1006596E+00
         -2   -1    0    0    0  501 -0.00000000000E+00  0.00000000000E+00  0.89020890168E+02  0.89020890168E+02  0.00000000000E+00 0.  1.
          2   -1    0    0  502    0  0.00000000000E+00 -0.00000000000E+00 -0.78440490093E+03  0.78440490093E+03  0.00000000000E+00 0. -1.
         25    1    1    2    0    0 -0.22303516690E+03 -0.92961864286E+01 -0.22578461342E+03  0.34122543342E+03  0.12500000000E+03 0.  0.
          2    1    1    2  502    0  0.20740934881E+03  0.22485352502E+02 -0.46713465877E+03  0.51160435737E+03  0.00000000000E+00 0. -1.
         -2    1    1    2    0  501  0.15625818083E+02 -0.13189166074E+02 -0.24647385707E+01  0.20596000308E+02  0.00000000000E+00 0.  1.
<mgrwt>
<rscale>  4 0.52850136E+03</rscale>
<asrwt>0</asrwt>
<pdfrwt beam="1">  1        2 0.12067768E+00 0.52850136E+03</pdfrwt>
<pdfrwt beam="2">  1       -2 0.13695521E-01 0.52850136E+03</pdfrwt>
<totfact> 0.14489607E+03</totfact>
</mgrwt>
</event>
<event>
 5    0  0.5719562E-003  0.7213733E+03  0.7546771E-02  0.9681363E-01
         -2   -1    0    0    0  501 -0.00000000000E+00  0.00000000000E+00  0.77358758914E+03  0.77358758914E+03  0.00000000000E+00 0. -1.
          2   -1    0    0  502    0  0.00000000000E+00 -0.00000000000E+00 -0.16817082355E+03  0.16817082355E+03  0.00000000000E+00 0.  1.
         25    1    1    2    0    0  0.24082164483E+03 -0.19747394196E+03  0.30261789657E+03  0.45187787476E+03  0.12500000000E+03 0.  0.
          4    1    1    2  502    0  0.42865683974E+02  0.71434783947E+01  0.32806021609E+02  0.54449345266E+02  0.00000000000E+00 0. -1.
         -4    1    1    2    0  501 -0.28368732880E+03  0.19033046357E+03  0.26999284741E+03  0.43543119266E+03  0.00000000000E+00 0.  1.
<mgrwt>
<rscale>  4 0.72137331E+03</rscale>
<asrwt>0</asrwt>
<pdfrwt beam="1">  1        2 0.25872435E-01 0.72137331E+03</pdfrwt>
<pdfrwt beam="2">  1       -2 0.11901347E+00 0.72137331E+03</pdfrwt>
<totfact> 0.11535950E+02</totfact>
</mgrwt>
</event>
<event>
 5    0  0.5719562E-003  0.5147539E+03  0.7546771E-02  0.1009998E+00
          2   -1    0    0  502    0  0.00000000000E+00  0.00000000000E+00  0.11984752433E+03  0.11984752433E+03  0.00000000000E+00 0.  1.
         -2   -1    0    0    0  501 -0.00000000000E+00 -0.00000000000E+00 -0.55272647345E+03  0.55272647345E+03  0.00000000000E+00 0. -1.
         25    1    1    2    0    0 -0.34663018606E+02  0.21254121376E+03 -0.15193240117E+03  0.29169118418E+03  0.12500000000E+03 0.  0.
          1    1    1    2  502    0 -0.12817205383E+02 -0.20810946094E+03 -0.21496089219E+03  0.29946955380E+03  0.00000000000E+00 0.  1.
         -1    1    1    2    0  501  0.47480223989E+02 -0.44317528275E+01 -0.65985655769E+02  0.81413259794E+02  0.00000000000E+00 0. -1.
<mgrwt>
<rscale>  4 0.51475392E+03</rscale>
<asrwt>0</asrwt>
<pdfrwt beam="1">  1        2 0.18438080E-01 0.51475392E+03</pdfrwt>
<pdfrwt beam="2">  1       -2 0.85034844E-01 0.51475392E+03</pdfrwt>
<totfact> 0.38053894E+02</totfact>
</mgrwt>
</event>
<event>
 5    0  0.5719562E-003  0.8802349E+03  0.7546771E-02  0.9450632E-01
          2   -1    0    0  502    0  0.00000000000E+00  0.00000000000E+00  0.12134172512E+04  0.12134172512E+04  0.00000000000E+00 0.  1.
         -2   -1    0    0    0  501 -0.00000000000E+00 -0.00000000000E+00 -0.15963459418E+03  0.15963459418E+03  0.00000000000E+00 0. -1.
         25    1    1    2    0    0 -0.20801438649E+03 -0.81617941274E+02 -0.35666693938E+02  0.25851225577E+03  0.12500000000E+03 0.  0.
          2    1    1    2  502    0  0.12225502292E+03  0.61359083458E+02  0.49335645342E+03  0.51196857119E+03  0.00000000000E+00 0. -1.
         -2    1    1    2    0  501  0.85759363573E+02  0.20258857816E+02  0.59609289755E+03  0.60257101845E+03  0.00000000000E+00 0.  1.
<mgrwt>
<rscale>  4 0.88023490E+03</rscale>
<asrwt>0</asrwt>
<pdfrwt beam="1">  1        2 0.18667957E+00 0.88023490E+03</pdfrwt>
<pdfrwt beam="2">  1       -2 0.24559169E-01 0.88023490E+03</pdfrwt>
<totfact> 0.27600775E+02</totfact>
</mgrwt>
</event>
<event>
 5    0  0.5719562E-003  0.5262828E+03  0.7546771E-02  0.1007138E+00
          2   -1    0    0  502    0  0.00000000000E+00  0.00000000000E+00  0.38947312116E+03  0.38947312116E+03  0.00000000000E+00 0.  1.
         -2   -1    0    0    0  501 -0.00000000000E+00 -0.00000000000E+00 -0.17778736811E+03  0.17778736811E+03  0.00000000000E+00 0. -1.
         25    1    1    2    0    0 -0.18064789943E+03 -0.10322683369E+03  0.22985247694E+03  0.33428521343E+03  0.12500000000E+03 0.  0.
          2    1    1    2  502    0  0.62837052340E+01  0.20022187687E+02  0.27363426195E+02  0.34483764939E+02  0.00000000000E+00 0. -1.
         -2    1    1    2    0  501  0.17436419419E+03  0.83204646008E+02 -0.45530150085E+02  0.19849151090E+03  0.00000000000E+00 0.  1.
<mgrwt>
<rscale>  4 0.52628282E+03</rscale>
<asrwt>0</asrwt>
<pdfrwt beam="1">  1        2 0.59918942E-01 0.52628282E+03</pdfrwt>
<pdfrwt beam="2">  1       -2 0.27351903E-01 0.52628282E+03</pdfrwt>
<totfact> 0.99910902E+02</totfact>
</mgrwt>
</event>
<event>
 5    0  0.5719562E-003  0.5441780E+03  0.7546771E-02  0.1002851E+00
          2   -1    0    0  502    0  0.00000000000E+00  0.00000000000E+00  0.15234731963E+04  0.15234731963E+04  0.00000000000E+00 0. -1.
         -2   -1    0    0    0  501 -0.00000000000E+00 -0.00000000000E+00 -0.48594508986E+02  0.48594508986E+02  0.00000000000E+00 0.  1.
         25    1    1    2    0    0 -0.11643287066E+03  0.20056965863E+03  0.49084097712E+03  0.55707689429E+03  0.12500000000E+03 0.  0.
          1    1    1    2  502    0  0.42049132372E+02 -0.10420997792E+03  0.64604768894E+03  0.65574801976E+03  0.00000000000E+00 0. -1.
         -1    1    1    2    0  501  0.74383738290E+02 -0.96359680706E+02  0.33799002121E+03  0.35924279120E+03  0.00000000000E+00 0.  1.
<mgrwt>
<rscale>  4 0.54417803E+03</rscale>
<asrwt>0</asrwt>
<pdfrwt beam="1">  1        2 0.23438046E+00 0.54417803E+03</pdfrwt>
<pdfrwt beam="2">  1       -2 0.74760795E-02 0.54417803E+03</pdfrwt>
<totfact> 0.13772196E+03</totfact>
</mgrwt>
</event>
<event>
 5    0  0.5719562E-003  0.4788881E+03  0.7546771E-02  0.1019441E+00
         -2   -1    0    0    0  501 -0.00000000000E+00  0.00000000000E+00  0.20895312776E+03  0.20895312776E+03  0.00000000000E+00 0. -1.
          2   -1    0    0  502    0  0.00000000000E+00 -0.00000000000E+00 -0.27438427639E+03  0.27438427639E+03  0.00000000000E+00 0.  1.
         25    1    1    2    0    0  0.99065005256E+02  0.17859679793E+03 -0.39758297751E+02  0.24272703545E+03  0.12500000000E+03 0.  0.
          4    1    1    2  502    0  0.10012948242E+01 -0.12200650709E+03 -0.29724943693E+02  0.12557930817E+03  0.00000000000E+00 0.  1.
         -4    1    1    2    0  501 -0.10006630008E+03 -0.56590290841E+02  0.40520928177E+01  0.11503106052E+03  0.00000000000E+00 0. -1.
<mgrwt>
<rscale>  4 0.47888810E+03</rscale>
<asrwt>0</asrwt>
<pdfrwt beam="1">  1        2 0.42212966E-01 0.47888810E+03</pdfrwt>
<pdfrwt beam="2">  1       -2 0.32146635E-01 0.47888810E+03</pdfrwt>
<totfact> 0.10921176E+03</totfact>
</mgrwt>
</event>
<event>
 5    0  0.5719562E-003  0.6499472E+03  0.7546771E-02  0.9806878E-01
          2   -1    0    0  502    0  0.00000000000E+00  0.00000000000E+00  0.52216192970E+03  0.52216192970E+03  0.00000000000E+00 0. -1.
         -2   -1    0    0    0  501 -0.00000000000E+00 -0.00000000000E+00 -0.20225112900E+03  0.20225112900E+03  0.00000000000E+00 0.  1.
         25    1    1    2    0    0 -0.48162726272E+02  0.21448478183E+03  0.30610743749E+03  0.39705180156E+03  0.12500000000E+03 0.  0.
          1    1    1    2  502    0 -0.52330343735E+01 -0.10196148308E+03  0.12430533146E+03  0.16085814904E+03  0.00000000000E+00 0. -1.
         -1    1    1    2    0  501  0.53395760646E+02 -0.11252329874E+03 -0.11050196826E+03  0.16650310809E+03  0.00000000000E+00 0.  1.
<mgrwt>
<rscale>  4 0.64994720E+03</rscale>
<asrwt>0</asrwt>
<pdfrwt beam="1">  1        2 0.80332604E-01 0.64994720E+03</pdfrwt>
<pdfrwt beam="2">  1       -2 0.31115559E-01 0.64994720E+03</pdfrwt>
<totfact> 0.56405430E+02</totfact>
</mgrwt>
</event>
<event>
 5    0  0.5719562E-003  0.6751640E+03  0.7546771E-02  0.9760674E-01
          1   -1    0    0  502    0  0.00000000000E+00  0.00000000000E+00  0.78118703291E+03  0.78118703291E+03  0.00000000000E+00 0. -1.
         -1   -1    0    0    0  501 -0.00000000000E+00 -0.00000000000E+00 -0.14588261080E+03  0.14588261080E+03  0.00000000000E+00 0.  1.
         25    1    1    2    0    0 -0.39272189990E+02 -0.28725493822E+03  0.32524129675E+03  0.45328203753E+03  0.12500000000E+03 0.  0.
          3    1    1    2  502    0  0.15833747345E+01  0.10116123055E+03 -0.99751957781E+01  0.10166418333E+03  0.00000000000E+00 0.  1.
         -3    1    1    2    0  501  0.37688815256E+02  0.18609370768E+03  0.32003832115E+03  0.37212342285E+03  0.00000000000E+00 0. -1.
<mgrwt>
<rscale>  4 0.67516399E+03</rscale>
<asrwt>0</asrwt>
<pdfrwt beam="1">  1        1 0.12018262E+00 0.67516399E+03</pdfrwt>
<pdfrwt beam="2">  1       -1 0.22443479E-01 0.67516399E+03</pdfrwt>
<totfact> 0.39108684E+02</totfact>
</mgrwt>
</event>
<event>
 5    0  0.5719562E-003  0.5780236E+03  0.7546771E-02  0.9952079E-01
          1   -1    0    0  502    0  0.00000000000E+00  0.00000000000E+00  0.22224522162E+03  0.22224522162E+03  0.00000000000E+00 0. -1.
         -1   -1    0    0    0  501 -0.00000000000E+00 -0.00000000000E+00 -0.37583631020E+03  0.37583631020E+03  0.00000000000E+00 0.  1.
         25    1    1    2    0    0 -0.21341034161E+03 -0.35457546511E+02 -0.15747876413E+03  0.29534009660E+03  0.12500000000E+03 0.  0.
          2    1    1    2  502    0  0.13642586987E+03  0.12412459184E+03 -0.86813465787E+01  0.18464641358E+03  0.00000000000E+00 0.  1.
         -2    1    1    2    0  501  0.76984471744E+02 -0.88667045328E+02  0.12569022124E+02  0.11809502163E+03  0.00000000000E+00 0. -1.
<mgrwt>
<rscale>  4 0.57802361E+03</rscale>
<asrwt>0</asrwt>
<pdfrwt beam="1">  1        1 0.34191573E-01 0.57802361E+03</pdfrwt>
<pdfrwt beam="2">  1       -1 0.57820971E-01 0.57802361E+03</pdfrwt>
<totfact> 0.39798695E+02</totfact>
</mgrwt>
</event>
<event>
 5    0  0.5719562E-003  0.8266119E+03  0.7546771E-02  0.9522277E-01
         -2   -1    0    0    0  501 -0.00000000000E+00  0.00000000000E+00  0.59339296211E+02  0.59339296211E+02  0.00000000000E+00 0.  1.
          2   -1    0    0  502    0  0.00000000000E+00 -0.00000000000E+00 -0.28787300869E+04  0.28787300869E+04  0.00000000000E+00 0. -1.
         25    1    1    2    0    0 -0.20428998227E+03 -0.24268691439E+03 -0.21056221171E+04  0.21330496560E+04  0.12500000000E+03 0.  0.
          1    1    1    2  502    0  0.41404241845E+02  0.44267218733E+02 -0.37554681745E+03  0.38040676912E+03  0.00000000000E+00 0. -1.
         -1    1    1    2    0  501  0.16288574043E+03  0.19841969566E+03 -0.33822185616E+03  0.42461295793E+03  0.00000000000E+00 0.  1.
<mgrwt>
<rscale>  4 0.82661192E+03</rscale>
<asrwt>0</asrwt>
<pdfrwt beam="1">  1        2 0.44288158E+00 0.82661192E+03</pdfrwt>
<pdfrwt beam="2">  1       -2 0.91291219E-02 0.82661192E+03</pdfrwt>
<totfact> 0.17168688E+02</totfact>
</mgrwt>
</event>
<event>
 5    0  0.5719562E-003  0.4963060E+03  0.7546771E-02  0.1014748E+00
         -1   -1    0    0    0  501 -0.00000000000E+00  0.00000000000E+00  0.38138181085E+02  0.38138181085E+02  0.00000000000E+00 0.  1.
          1   -1    0    0  502    0  0.00000000000E+00 -0.00000000000E+00 -0.16146524010E+04  0.16146524010E+04  0.00000000000E+00 0. -1.
         25    1    1    2    0    0 -0.21283307025E+03 -0.19821263408E+02 -0.61403868722E+03  0.66208708466E+03  0.12500000000E+03 0.  0.
          1    1    1    2  502    0  0.99530092334E+02  0.29405039156E+01 -0.25038703758E+03  0.26945974548E+03  0.00000000000E+00 0. -1.
         -1    1    1    2    0  501  0.11330297792E+03  0.16880759492E+02 -0.71208849511E+03  0.72124375194E+03  0.00000000000E+00 0.  1.
<mgrwt>
<rscale>  4 0.49630598E+03</rscale>
<asrwt>0</asrwt>
<pdfrwt beam="1">  1        1 0.24840802E+00 0.49630598E+03</pdfrwt>
<pdfrwt beam="2">  1       -1 0.58674135E-02 0.49630598E+03</pdfrwt>
<totfact> 0.81795258E+02</totfact>
</mgrwt>
</event>
<event>
 5    0  0.5719562E-003  0.7598355E+03  0.7546771E-02  0.9620045E-01
          2   -1    0    0  502    0  0.00000000000E+00  0.00000000000E+00  0.10548560357E+03  0.10548560357E+03  0.00000000000E+00 0.  1.
         -2   -1    0    0    0  501 -0.00000000000E+00 -0.00000000000E+00 -0.13683148295E+04  0.13683148295E+04  0.00000000000E+00 0. -1.
         25    1    1    2    0    0  0.24736626445E+03 -0.59419364906E+02 -0.26322479744E+03  0.38682428014E+03  0.12500000000E+03 0.  0.
          3    1    1    2  502    0 -0.25462441950E+03  0.16171889069E+02 -0.10101510347E+04  0.10418734271E+04  0.00000000000E+00 0. -1.
         -3    1    1    2    0  501  0.72581550435E+01  0.43247475837E+02  0.10546606231E+02  0.45102725903E+02  0.00000000000E+00 0.  1.
<mgrwt>
<rscale>  4 0.75983555E+03</rscale>
<asrwt>0</asrwt>
<pdfrwt beam="1">  1        2 0.16228556E-01 0.75983555E+03</pdfrwt>
<pdfrwt beam="2">  1       -2 0.21050996E+00 0.75983555E+03</pdfrwt>
<totfact> 0.42189109E+01</totfact>
</mgrwt>
</event>
<event>
 5    0  0.5719562E-003  0.4920214E+03  0.7546771E-02  0.1015883E+00
          1   -1    0    0  502    0  0.00000000000E+00  0.00000000000E+00  0.13609249782E+04  0.13609249782E+04  0.00000000000E+00 0.  1.
         -1   -1    0    0    0  501 -0.00000000000E+00 -0.00000000000E+00 -0.44470681176E+02  0.44470681176E+02  0.00000000000E+00 0. -1.
         25    1    1    2    0    0  0.20300195238E+03 -0.56891421956E+02  0.76484343596E+03  0.80315434886E+03  0.12500000000E+03 0.  0.
          3    1    1    2  502    0 -0.19872429762E+03  0.82914481602E+02  0.49220070697E+03  0.53724081534E+03  0.00000000000E+00 0.  1.
         -3    1    1    2    0  501 -0.42776547641E+01 -0.26023059646E+02  0.59410154059E+02  0.65000495144E+02  0.00000000000E+00 0. -1.
<mgrwt>
<rscale>  4 0.49202138E+03</rscale>
<asrwt>0</asrwt>
<pdfrwt beam="1">  1        1 0.20937304E+00 0.49202138E+03</pdfrwt>
<pdfrwt beam="2">  1       -1 0.68416443E-02 0.49202138E+03</pdfrwt>
<totfact> 0.96016861E+02</totfact>
</mgrwt>
</event>
<event>
 5    0  0.5719562E-003  0.6179829E+03  0.7546771E-02  0.9868784E-01
          1   -1    0    0  502    0  0.00000000000E+00  0.00000000000E+00  0.27244633493E+04  0.27244633493E+04  0.00000000000E+00 0.  1.
         -1   -1    0    0    0  501 -0.00000000000E+00 -0.00000000000E+00 -0.35043863639E+02  0.35043863639E+02  0.00000000000E+00 0. -1.
         25    1    1    2    0    0  0.10161994465E+02  0.24494726214E+03  0.20474510670E+04  0.20658613940E+04  0.12500000000E+03 0.  0.
          2    1    1    2  502    0  0.21818164949E+02 -0.45647050988E+02  0.22194327162E+03  0.22763677516E+03  0.00000000000E+00 0.  1.
         -2    1    1    2    0  501 -0.31980159415E+02 -0.19930021116E+03  0.42002514704E+03  0.46600904381E+03  0.00000000000E+00 0. -1.
<mgrwt>
<rscale>  4 0.61798292E+03</rscale>
<asrwt>0</asrwt>
<pdfrwt beam="1">  1        1 0.41914804E+00 0.61798292E+03</pdfrwt>
<pdfrwt beam="2">  1       -1 0.53913658E-02 0.61798292E+03</pdfrwt>
<totfact> 0.16599598E+02</totfact>
</mgrwt>
</event>
<event>
 5    0  0.5719562E-003  0.5942082E+03  0.7546771E-02  0.9917496E-01
         -2   -1    0    0    0  501 -0.00000000000E+00  0.00000000000E+00  0.63230981107E+02  0.63230981107E+02  0.00000000000E+00 0. -1.
          2   -1    0    0  502    0  0.00000000000E+00 -0.00000000000E+00 -0.13960063954E+04  0.13960063954E+04  0.00000000000E+00 0.  1.
         25    1    1    2    0    0 -0.75856639971E+02 -0.26317391977E+03 -0.72427060665E+03  0.78435174095E+03  0.12500000000E+03 0.  0.
          1    1    1    2  502    0  0.74368199027E+02  0.19114504822E+03 -0.53016052288E+03  0.56845161492E+03  0.00000000000E+00 0.  1.
         -1    1    1    2    0  501  0.14884409447E+01  0.72028871544E+02 -0.78344284733E+02  0.10643402061E+03  0.00000000000E+00 0. -1.
<mgrwt>
<rscale>  4 0.59420823E+03</rscale>
<asrwt>0</asrwt>
<pdfrwt beam="1">  1        2 0.21477020E+00 0.59420823E+03</pdfrwt>
<pdfrwt beam="2">  1       -2 0.97278437E-02 0.59420823E+03</pdfrwt>
<totfact> 0.10613039E+03</totfact>
</mgrwt>
</event>
<event>
 5    0  0.5719562E-003  0.4676319E+03  0.7546771E-02  0.1022591E+00
          2   -1    0    0  502    0  0.00000000000E+00  0.00000000000E+00  0.66352118002E+03  0.66352118002E+03  0.00000000000E+00 0. -1.
         -2   -1    0    0    0  501 -0.00000000000E+00 -0.00000000000E+00 -0.82393583875E+02  0.82393583875E+02  0.00000000000E+00 0.  1.
         25    1    1    2    0    0  0.19396927665E+03  0.93294307373E+02  0.32017482080E+03  0.40554262902E+03  0.12500000000E+03 0.  0.
          1    1    1    2  502    0 -0.35567047447E+02 -0.62485297179E+01  0.29006238169E+02  0.46318687810E+02  0.00000000000E+00 0.  1.
         -1    1    1    2    0  501 -0.15840222921E+03 -0.87045777655E+02  0.23194653717E+03  0.29405344706E+03  0.00000000000E+00 0. -1.
<mgrwt>
<rscale>  4 0.46763186E+03</rscale>
<asrwt>0</asrwt>
<pdfrwt beam="1">  1        2 0.10208018E+00 0.46763186E+03</pdfrwt>
<pdfrwt beam="2">  1       -2 0.12675936E-01 0.46763186E+03</pdfrwt>
<totfact> 0.20329642E+03</totfact>
</mgrwt>
</event>
<event>
 5    0  0.5719562E-003  0.6294241E+03  0.7546771E-02  0.9846173E-01
         -2   -1    0    0    0  501 -0.00000000000E+00  0.00000000000E+00  0.82160671517E+02  0.82160671517E+02  0.00000000000E+00 0.  1.
          2   -1    0    0  502    0  0.00000000000E+00 -0.00000000000E+00 -0.12054875253E+04  0.12054875253E+04  0.00000000000E+00 0. -1.
         25    1    1    2    0    0  0.22729554630E+03  0.15866415023E+03 -0.36381583116E+03  0.47415665865E+03  0.12500000000E+03 0.  0.
          3    1    1    2  502    0 -0.17604648110E+03 -0.71182828232E+02 -0.50594522511E+03  0.54040718848E+03  0.00000000000E+00 0. -1.
         -3    1    1    2    0  501 -0.51249065194E+02 -0.87481322003E+02 -0.25356579756E+03  0.27308434974E+03  0.00000000000E+00 0.  1.
<mgrwt>
<rscale>  4 0.62942407E+03</rscale>
<asrwt>0</asrwt>
<pdfrwt beam="1">  1        2 0.18545962E+00 0.62942407E+03</pdfrwt>
<pdfrwt beam="2">  1       -2 0.12640103E-01 0.62942407E+03</pdfrwt>
<totfact> 0.88770433E+02</totfact>
</mgrwt>
</event>
<event>
 5    0  0.5719562E-003  0.6913863E+03  0.7546771E-02  0.9732077E-01
         -1   -1    0    0    0  501 -0.00000000000E+00  0.00000000000E+00  0.93822057095E+02  0.93822057095E+02  0.00000000000E+00 0.  1.
          1   -1    0    0  502    0  0.00000000000E+00 -0.00000000000E+00 -0.12737278273E+04  0.12737278273E+04  0.00000000000E+00 0. -1.
         25    1    1    2    0    0 -0.62849058782E+02 -0.28495040030E+03 -0.92143082695E+03  0.97458016791E+03  0.12500000000E+03 0.  0.
          2    1    1    2  502    0  0.68928295730E+02  0.22361119693E+03 -0.21234156977E+03  0.31597787834E+03  0.00000000000E+00 0.  1.
         -2    1    1    2    0  501 -0.60792369481E+01  0.61339203368E+02 -0.46133373452E+02  0.76991838124E+02  0.00000000000E+00 0. -1.
<mgrwt>
<rscale>  4 0.69138633E+03</rscale>
<asrwt>0</asrwt>
<pdfrwt beam="1">  1        1 0.19595813E+00 0.69138633E+03</pdfrwt>
<pdfrwt beam="2">  1       -1 0.14434163E-01 0.69138633E+03</pdfrwt>
<totfact> 0.33653362E+02</totfact>
</mgrwt>
</event>
<event>
 5    0  0.5719562E-003  0.5453399E+03  0.7546771E-02  0.1002578E+00
         -2   -1    0    0    0  501 -0.00000000000E+00  0.00000000000E+00  0.44575428784E+02  0.44575428784E+02  0.00000000000E+00 0.  1.
          2   -1    0    0  502    0  0.00000000000E+00 -0.00000000000E+00 -0.16679348017E+04  0.16679348017E+04  0.00000000000E+00 0. -1.
         25    1    1    2    0    0 -0.16914657211E+03  0.11535726284E+03 -0.13412647405E+04  0.13625468671E+04  0.12500000000E+03 0.  0.
          2    1    1    2  502    0  0.14551294444E+03 -0.10391171238E+03 -0.26051735561E+03  0.31597619142E+03  0.00000000000E+00 0.  1.
         -2    1    1    2    0  501  0.23633627677E+02 -0.11445550461E+02 -0.21577276760E+02  0.33987171917E+02  0.00000000000E+00 0. -1.
<mgrwt>
<rscale>  4 0.54533993E+03</rscale>
<asrwt>0</asrwt>
<pdfrwt beam="1">  1        2 0.25660534E+00 0.54533993E+03</pdfrwt>
<pdfrwt beam="2">  1       -2 0.68577587E-02 0.54533993E+03</pdfrwt>
<totfact> 0.13165464E+03</totfact>
</mgrwt>
</event>
<event>
 5    0  0.5719562E-003  0.5403125E+03  0.7546771E-02  0.1003761E+00
          2   -1    0    0  502    0  0.00000000000E+00  0.00000000000E+00  0.20025951302E+03  0.20025951302E+03  0.00000000000E+00 0. -1.
         -2   -1    0    0    0  501 -0.00000000000E+00 -0.00000000000E+00 -0.36444912614E+03  0.36444912614E+03  0.00000000000E+00 0.  1.
         25    1    1    2    0    0 -0.17651042450E+03  0.17910848139E+03 -0.12865167941E+03  0.30888838223E+03  0.12500000000E+03 0.  0.
          4    1    1    2  502    0  0.16289308433E+03 -0.15773516517E+03 -0.39522112653E+02  0.23016632387E+03  0.00000000000E+00 0.  1.
         -4    1    1    2    0  501  0.13617340164E+02 -0.21373316220E+02  0.39841789453E+01  0.25653933056E+02  0.00000000000E+00 0. -1.
<mgrwt>
<rscale>  4 0.54031252E+03</rscale>
<asrwt>0</asrwt>
<pdfrwt beam="1">  1        2 0.30809156E-01 0.54031252E+03</pdfrwt>
<pdfrwt beam="2">  1       -2 0.56069096E-01 0.54031252E+03</pdfrwt>
<totfact> 0.51996499E+02</totfact>
</mgrwt>
</event>
<event>
 5    0  0.5719562E-003  0.6725036E+03  0.7546771E-02  0.9765446E-01
         -2   -1    0    0    0  501 -0.00000000000E+00  0.00000000000E+00  0.10418727800E+03  0.10418727800E+03  0.00000000000E+00 0. -1.
          2   -1    0    0  502    0  0.00000000000E+00 -0.00000000000E+00 -0.10852118597E+04  0.10852118597E+04  0.00000000000E+00 0.  1.
         25    1    1    2    0    0  0.49572656102E+02 -0.20145884524E+03 -0.66593243708E+03  0.70861422884E+03  0.12500000000E+03 0.  0.
          4    1    1    2  502    0 -0.14042384756E+03  0.13049564362E+03 -0.60024100989E+02  0.20087524155E+03  0.00000000000E+00 0. -1.
         -4    1    1    2    0  501  0.90851191462E+02  0.70963201622E+02 -0.25506804367E+03  0.27990966735E+03  0.00000000000E+00 0.  1.
<mgrwt>
<rscale>  4 0.67250359E+03</rscale>
<asrwt>0</asrwt>
<pdfrwt beam="1">  1        2 0.16695567E+00 0.67250359E+03</pdfrwt>
<pdfrwt beam="2">  1       -2 0.16028812E-01 0.67250359E+03</pdfrwt>
<totfact> 0.70233964E+02</totfact>
</mgrwt>
</event>
<event>
 5    0  0.5719562E-003  0.5399345E+03  0.7546771E-02  0.1003851E+00
         -2   -1    0    0    0  501 -0.00000000000E+00  0.00000000000E+00  0.11234160465E+03  0.11234160465E+03  0.00000000000E+00 0. -1.
          2   -1    0    0  502    0  0.00000000000E+00 -0.00000000000E+00 -0.64875621043E+03  0.64875621043E+03  0.00000000000E+00 0.  1.
         25    1    1    2    0    0 -0.13977566807E+03 -0.17946229627E+03 -0.43026052275E+03  0.50248688601E+03  0.12500000000E+03 0.  0.
          2    1    1    2  502    0  0.92269307112E+02  0.76007352764E+02 -0.35819761657E+02  0.12479502408E+03  0.00000000000E+00 0. -1.
         -2    1    1    2    0  501  0.47506360954E+02  0.10345494351E+03 -0.70334321373E+02  0.13381590500E+03  0.00000000000E+00 0.  1.
<mgrwt>
<rscale>  4 0.53993449E+03</rscale>
<asrwt>0</asrwt>
<pdfrwt beam="1">  1        2 0.99808650E-01 0.53993449E+03</pdfrwt>
<pdfrwt beam="2">  1       -2 0.17283323E-01 0.53993449E+03</pdfrwt>
<totfact> 0.12426846E+03</totfact>
</mgrwt>
</event>
<event>
 5    0  0.5719562E-003  0.6208026E+03  0.7546771E-02  0.9863163E-01
         -2   -1    0    0    0  501 -0.00000000000E+00  0.00000000000E+00  0.26964285852E+04  0.26964285852E+04  0.00000000000E+00 0.  1.
          2   -1    0    0  502    0  0.00000000000E+00 -0.00000000000E+00 -0.35732066284E+02  0.35732066284E+02  0.00000000000E+00 0. -1.
         25    1    1    2    0    0 -0.21524499388E+03 -0.98728540831E+02  0.10868145181E+04  0.11193160987E+04  0.12500000000E+03 0.  0.
          3    1    1    2  502    0  0.89738169692E+02 -0.84235102773E+02  0.72891769529E+03  0.73923575275E+03  0.00000000000E+00 0.  1.
         -3    1    1    2    0  501  0.12550682419E+03  0.18296364360E+03  0.84496430557E+03  0.87360880003E+03  0.00000000000E+00 0. -1.
<mgrwt>
<rscale>  4 0.62080259E+03</rscale>
<asrwt>0</asrwt>
<pdfrwt beam="1">  1        2 0.54972431E-02 0.62080259E+03</pdfrwt>
<pdfrwt beam="2">  1       -2 0.41483501E+00 0.62080259E+03</pdfrwt>
<totfact> 0.93759642E+00</totfact>
</mgrwt>
</event>
<event>
 5    0  0.5719562E-003  0.4752087E+03  0.7546771E-02  0.1020460E+00
          2   -1    0    0  502    0  0.00000000000E+00  0.00000000000E+00  0.16738702012E+03  0.16738702012E+03  0.00000000000E+00 0.  1.
         -2   -1    0    0    0  501 -0.00000000000E+00 -0.00000000000E+00 -0.33727724416E+03  0.33727724416E+03  0.00000000000E+00 0. -1.
         25    1    1    2    0    0 -0.34788410944E+02  0.20695454793E+03 -0.90765338374E+02  0.26058350887E+03  0.12500000000E+03 0.  0.
          2    1    1    2  502    0  0.21874471167E+02 -0.16699056578E+03 -0.10135317674E+03  0.19656247857E+03  0.00000000000E+00 0. -1.
         -2    1    1    2    0  501  0.12913939777E+02 -0.39963982153E+02  0.22228291070E+02  0.47518276841E+02  0.00000000000E+00 0.  1.
<mgrwt>
<rscale>  4 0.47520872E+03</rscale>
<asrwt>0</asrwt>
<pdfrwt beam="1">  1        2 0.25751849E-01 0.47520872E+03</pdfrwt>
<pdfrwt beam="2">  1       -2 0.51888807E-01 0.47520872E+03</pdfrwt>
<totfact> 0.74631969E+02</totfact>
</mgrwt>
</event>
<event>
 5    0  0.5719562E-003  0.6092209E+03  0.7546771E-02  0.9886458E-01
          2   -1    0    0  502    0  0.00000000000E+00  0.00000000000E+00  0.43478331550E+03  0.43478331550E+03  0.00000000000E+00 0. -1.
         -2   -1    0    0    0  501 -0.00000000000E+00 -0.00000000000E+00 -0.21341097609E+03  0.21341097609E+03  0.00000000000E+00 0.  1.
         25    1    1    2    0    0  0.13293567480E+03  0.19017629231E+03  0.60232024006E+02  0.27035497500E+03  0.12500000000E+03 0.  0.
          3    1    1    2  502    0 -0.12929134452E+03 -0.91167083022E+01 -0.82433434719E+01  0.12987424244E+03  0.00000000000E+00 0.  1.
         -3    1    1    2    0  501 -0.36443302804E+01 -0.18105958401E+03  0.16938365887E+03  0.24796507415E+03  0.00000000000E+00 0. -1.
<mgrwt>
<rscale>  4 0.60922092E+03</rscale>
<asrwt>0</asrwt>
<pdfrwt beam="1">  1        2 0.66889741E-01 0.60922092E+03</pdfrwt>
<pdfrwt beam="2">  1       -2 0.32832458E-01 0.60922092E+03</pdfrwt>
<totfact> 0.62985424E+02</totfact>
</mgrwt>
</event>
<event>
 5    0  0.5719562E-003  0.6712297E+03  0.7546771E-02  0.9767739E-01
         -2   -1    0    0    0  501 -0.00000000000E+00  0.00000000000E+00  0.19045239816E+03  0.19045239816E+03  0.00000000000E+00 0.  1.
          2   -1    0    0  502    0  0.00000000000E+00 -0.00000000000E+00 -0.59141987620E+03  0.59141987620E+03  0.00000000000E+00 0. -1.
         25    1    1    2    0    0  0.17515210270E+03  0.99851295032E+02 -0.37487685957E+03  0.44362844819E+03  0.12500000000E+03 0.  0.
          4    1    1    2  502    0 -0.88195470935E+02 -0.49717669317E+02 -0.14863423454E+03  0.17983999392E+03  0.00000000000E+00 0. -1.
         -4    1    1    2    0  501 -0.86956631761E+02 -0.50133625714E+02  0.12254361607E+03  0.15840383226E+03  0.00000000000E+00 0.  1.
<mgrwt>
<rscale>  4 0.67122972E+03</rscale>
<asrwt>0</asrwt>
<pdfrwt beam="1">  1        2 0.90987673E-01 0.67122972E+03</pdfrwt>
<pdfrwt beam="2">  1       -2 0.29300369E-01 0.67122972E+03</pdfrwt>
<totfact> 0.54399894E+02</totfact>
</mgrwt>
</event>
<event>
 5    0  0.5719562E-003  0.1009125E+04  0.7546771E-02  0.9298593E-01
          2   -1    0    0  502    0  0.00000000000E+00  0.00000000000E+00  0.20523368632E+04  0.20523368632E+04  0.00000000000E+00 0. -1.
         -2   -1    0    0    0  501 -0.00000000000E+00 -0.00000000000E+00 -0.12404557485E+03  0.12404557485E+03  0.00000000000E+00 0.  1.
         25    1    1    2    0    0 -0.11522663959E+03  0.33076459011E+03  0.14485262273E+04  0.14955051399E+04  0.12500000000E+03 0.  0.
          3    1    1    2  502    0  0.15789793525E+03 -0.24619517600E+02  0.24592385000E+03  0.29328555811E+03  0.00000000000E+00 0. -1.
         -3    1    1    2    0  501 -0.42671295652E+02 -0.30614507251E+03  0.23384121104E+03  0.38759173995E+03  0.00000000000E+00 0.  1.
<mgrwt>
<rscale>  4 0.10091250E+04</rscale>
<asrwt>0</asrwt>
<pdfrwt beam="1">  1        2 0.31574411E+00 0.10091250E+04</pdfrwt>
<pdfrwt beam="2">  1       -2 0.19083936E-01 0.10091250E+04</pdfrwt>
<totfact> 0.14528741E+02</totfact>
</mgrwt>
</event>
<event>
 5    0  0.5719562E-003  0.5136606E+03  0.7546771E-02  0.1010274E+00
          2   -1    0    0  502    0  0.00000000000E+00  0.00000000000E+00  0.38804709182E+03  0.38804709182E+03  0.00000000000E+00 0. -1.
         -2   -1    0    0    0  501 -0.00000000000E+00 -0.00000000000E+00 -0.16998399228E+03  0.16998399228E+03  0.00000000000E+00 0.  1.
         25    1    1    2    0    0  0.30871228030E+02  0.20993658532E+03  0.16435341132E+02  0.24682285756E+03  0.12500000000E+03 0.  0.
          1    1    1    2  502    0 -0.62758077922E+02 -0.18837537008E+03  0.17003204663E+03  0.26140916831E+03  0.00000000000E+00 0. -1.
         -1    1    1    2    0  501  0.31886849892E+02 -0.21561215235E+02  0.31595711783E+02  0.49799058240E+02  0.00000000000E+00 0.  1.
<mgrwt>
<rscale>  4 0.51366056E+03</rscale>
<asrwt>0</asrwt>
<pdfrwt beam="1">  1        2 0.59699552E-01 0.51366056E+03</pdfrwt>
<pdfrwt beam="2">  1       -2 0.26151383E-01 0.51366056E+03</pdfrwt>
<totfact> 0.10881074E+03</totfact>
</mgrwt>
</event>
<event>
 5    0  0.5719562E-003  0.5004877E+03  0.7546771E-02  0.1013652E+00
         -2   -1    0    0    0  501 -0.00000000000E+00  0.00000000000E+00  0.60273453043E+03  0.60273453043E+03  0.00000000000E+00 0.  1.
          2   -1    0    0  502    0  0.00000000000E+00 -0.00000000000E+00 -0.10389646083E+03  0.10389646083E+03  0.00000000000E+00 0. -1.
         25    1    1    2    0    0  0.20290256919E+03 -0.23556852434E+02  0.27209714699E+03  0.36247239244E+03  0.12500000000E+03 0.  0.
          1    1    1    2  502    0  0.85662634319E+01  0.31788187500E+02 -0.14299928390E+01  0.32953218556E+02  0.00000000000E+00 0.  1.
         -1    1    1    2    0  501 -0.21146883263E+03 -0.82313350662E+01  0.22817091545E+03  0.31120538027E+03  0.00000000000E+00 0. -1.
<mgrwt>
<rscale>  4 0.50048770E+03</rscale>
<asrwt>0</asrwt>
<pdfrwt beam="1">  1        2 0.15984071E-01 0.50048770E+03</pdfrwt>
<pdfrwt beam="2">  1       -2 0.92728388E-01 0.50048770E+03</pdfrwt>
<totfact> 0.37008359E+02</totfact>
</mgrwt>
</event>
<event>
 5    0  0.5719562E-003  0.5145806E+03  0.7546771E-02  0.1010042E+00
         -2   -1    0    0    0  501 -0.00000000000E+00  0.00000000000E+00  0.20479972461E+02  0.20479972461E+02  0.00000000000E+00 0. -1.
          2   -1    0    0  502    0  0.00000000000E+00 -0.00000000000E+00 -0.32323426562E+04  0.32323426562E+04  0.00000000000E+00 0.  1.
         25    1    1    2    0    0  0.74248759641E+02 -0.18829645881E+03 -0.91534426554E+03  0.94575290598E+03  0.12500000000E+03 0.  0.
          4    1    1    2  502    0 -0.17771728700E+02  0.64626336906E+02 -0.39064662322E+03  0.39635486877E+03  0.00000000000E+00 0. -1.
         -4    1    1    2    0  501 -0.56477030942E+02  0.12367012190E+03 -0.19058717950E+04  0.19107148539E+04  0.00000000000E+00 0.  1.
<mgrwt>
<rscale>  4 0.51458056E+03</rscale>
<asrwt>0</asrwt>
<pdfrwt beam="1">  1        2 0.49728351E+00 0.51458056E+03</pdfrwt>
<pdfrwt beam="2">  1       -2 0.31507649E-02 0.51458056E+03</pdfrwt>
<totfact> 0.56785884E+02</totfact>
</mgrwt>
</event>
<event>
 5    0  0.5719562E-003  0.5901520E+03  0.7546771E-02  0.9926051E-01
         -2   -1    0    0    0  501 -0.00000000000E+00  0.00000000000E+00  0.42404368132E+02  0.42404368132E+02  0.00000000000E+00 0. -1.
          2   -1    0    0  502    0  0.00000000000E+00 -0.00000000000E+00 -0.20533223441E+04  0.20533223441E+04  0.00000000000E+00 0.  1.
         25    1    1    2    0    0  0.83950720797E+02 -0.24074226446E+03 -0.66491645136E+03  0.72300999212E+03  0.12500000000E+03 0.  0.
          2    1    1    2  502    0 -0.54974146598E+02  0.13440130205E+03 -0.97286482806E+03  0.98364213028E+03  0.00000000000E+00 0.  1.
         -2    1    1    2    0  501 -0.28976574199E+02  0.10634096241E+03 -0.37313669652E+03  0.38907458980E+03  0.00000000000E+00 0. -1.
<mgrwt>
<rscale>  4 0.59015197E+03</rscale>
<asrwt>0</asrwt>
<pdfrwt beam="1">  1        2 0.31589574E+00 0.59015197E+03</pdfrwt>
<pdfrwt beam="2">  1       -2 0.65237491E-02 0.59015197E+03</pdfrwt>
<totfact> 0.87919660E+02</totfact>
</mgrwt>
</event>
<event>
 5    0  0.5719562E-003  0.5591851E+03  0.7546771E-02  0.9993900E-01
          2   -1    0    0  502    0  0.00000000000E+00  0.00000000000E+00  0.12158086777E+04  0.12158086777E+04  0.00000000000E+00 0. -1.
         -2   -1    0    0    0  501 -0.00000000000E+00 -0.00000000000E+00 -0.64296295060E+02  0.64296295060E+02  0.00000000000E+00 0.  1.
         25    1    1    2    0    0 -0.25230175078E+03  0.45853868067E+02  0.49772931159E+03  0.57368825879E+03  0.12500000000E+03 0.  0.
          4    1    1    2  502    0  0.13658995394E+03 -0.30599158108E+02  0.25484135947E+03  0.29075288905E+03  0.00000000000E+00 0.  1.
         -4    1    1    2    0  501  0.11571179684E+03 -0.15254709959E+02  0.39894171161E+03  0.41566382494E+03  0.00000000000E+00 0. -1.
<mgrwt>
<rscale>  4 0.55918510E+03</rscale>
<asrwt>0</asrwt>
<pdfrwt beam="1">  1        2 0.18704747E+00 0.55918510E+03</pdfrwt>
<pdfrwt beam="2">  1       -2 0.98917386E-02 0.55918510E+03</pdfrwt>
<totfact> 0.13107986E+03</totfact>
</mgrwt>
</event>
<event>
 5    0  0.5719562E-003  0.8718291E+03  0.7546771E-02  0.9461498E-01
          2   -1    0    0  502    0  0.00000000000E+00  0.00000000000E+00  0.52178246570E+03  0.52178246570E+03  0.00000000000E+00 0.  1.
         -2   -1    0    0    0  501 -0.00000000000E+00 -0.00000000000E+00 -0.36417762839E+03  0.36417762839E+03  0.00000000000E+00 0. -1.
         25    1    1    2    0    0 -0.17013854674E+03  0.27962041997E+03  0.35368674750E+03  0.49784939461E+03  0.12500000000E+03 0.  0.
          4    1    1    2  502    0  0.15959330376E+03 -0.24287877686E+03 -0.19479400194E+03  0.34986401079E+03  0.00000000000E+00 0.  1.
         -4    1    1    2    0  501  0.10545242987E+02 -0.36741643107E+02 -0.12879082485E+01  0.38246688686E+02  0.00000000000E+00 0. -1.
<mgrwt>
<rscale>  4 0.87182911E+03</rscale>
<asrwt>0</asrwt>
<pdfrwt beam="1">  1        2 0.80274226E-01 0.87182911E+03</pdfrwt>
<pdfrwt beam="2">  1       -2 0.56027327E-01 0.87182911E+03</pdfrwt>
<totfact> 0.17610054E+02</totfact>
</mgrwt>
</event>
<event>
 5    0  0.5719562E-003  0.6823102E+03  0.7546771E-02  0.9747972E-01
          1   -1    0    0  502    0  0.00000000000E+00  0.00000000000E+00  0.18808763173E+03  0.18808763173E+03  0.00000000000E+00 0.  1.
         -1   -1    0    0    0  501 -0.00000000000E+00 -0.00000000000E+00 -0.61879036689E+03  0.61879036689E+03  0.00000000000E+00 0. -1.
         25    1    1    2    0    0 -0.11537581421E+03  0.22343408311E+03 -0.47442219313E+02  0.28479840620E+03  0.12500000000E+03 0.  0.
          3    1    1    2  502    0  0.20892044996E+02 -0.25830980279E+02 -0.27636874055E+03  0.27835839818E+03  0.00000000000E+00 0. -1.
         -3    1    1    2    0  501  0.94483769213E+02 -0.19760310283E+03 -0.10689177530E+03  0.24372119424E+03  0.00000000000E+00 0.  1.
<mgrwt>
<rscale>  4 0.68231024E+03</rscale>
<asrwt>0</asrwt>
<pdfrwt beam="1">  1        1 0.28936558E-01 0.68231024E+03</pdfrwt>
<pdfrwt beam="2">  1       -1 0.95198521E-01 0.68231024E+03</pdfrwt>
<totfact> 0.17453759E+02</totfact>
</mgrwt>
</event>
<event>
 5    0  0.5719562E-003  0.6733893E+03  0.7546771E-02  0.9763854E-01
         -2   -1    0    0    0  501 -0.00000000000E+00  0.00000000000E+00  0.18792336537E+03  0.18792336537E+03  0.00000000000E+00 0. -1.
          2   -1    0    0  502    0  0.00000000000E+00 -0.00000000000E+00 -0.60324213272E+03  0.60324213272E+03  0.00000000000E+00 0.  1.
         25    1    1    2    0    0 -0.17523578947E+03 -0.23798637902E+03 -0.11384177203E+03  0.34048501813E+03  0.12500000000E+03 0.  0.
          2    1    1    2  502    0  0.16439996209E+03  0.99822899376E+02 -0.14002578087E+03  0.23790581768E+03  0.00000000000E+00 0. -1.
         -2    1    1    2    0  501  0.10835827380E+02  0.13816347964E+03 -0.16145121444E+03  0.21277466228E+03  0.00000000000E+00 0.  1.
<mgrwt>
<rscale>  4 0.67338931E+03</rscale>
<asrwt>0</asrwt>
<pdfrwt beam="1">  1        2 0.92806480E-01 0.67338931E+03</pdfrwt>
<pdfrwt beam="2">  1       -2 0.28911287E-01 0.67338931E+03</pdfrwt>
<totfact> 0.54443629E+02</totfact>
</mgrwt>
</event>
<event>
 5    0  0.5719562E-003  0.8134990E+03  0.7546771E-02  0.9540681E-01
         -2   -1    0    0    0  501 -0.00000000000E+00  0.00000000000E+00  0.32646232168E+03  0.32646232168E+03  0.00000000000E+00 0.  1.
          2   -1    0    0  502    0  0.00000000000E+00 -0.00000000000E+00 -0.50678181056E+03  0.50678181056E+03  0.00000000000E+00 0. -1.
         25    1    1    2    0    0 -0.11449103281E+02  0.33787820319E+03 -0.28218550366E+03  0.45776240631E+03  0.12500000000E+03 0.  0.
          3    1    1    2  502    0  0.18358596855E+02 -0.30905236259E+03  0.47033025693E+02  0.31314933563E+03  0.00000000000E+00 0.  1.
         -3    1    1    2    0  501 -0.69094935739E+01 -0.28825840600E+02  0.54832989089E+02  0.62332390298E+02  0.00000000000E+00 0. -1.
<mgrwt>
<rscale>  4 0.81349903E+03</rscale>
<asrwt>0</asrwt>
<pdfrwt beam="1">  1        2 0.77966432E-01 0.81349903E+03</pdfrwt>
<pdfrwt beam="2">  1       -2 0.50224973E-01 0.81349903E+03</pdfrwt>
<totfact> 0.22882080E+02</totfact>
</mgrwt>
</event>
<event>
 5    0  0.5719562E-003  0.6096593E+03  0.7546771E-02  0.9885566E-01
          2   -1    0    0  502    0  0.00000000000E+00  0.00000000000E+00  0.16596109587E+03  0.16596109587E+03  0.00000000000E+00 0. -1.
         -2   -1    0    0    0  501 -0.00000000000E+00 -0.00000000000E+00 -0.55989692971E+03  0.55989692971E+03  0.00000000000E+00 0.  1.
         25    1    1    2    0    0 -0.95333211086E+02  0.24358992739E+03 -0.35231227728E+03  0.45626024874E+03  0.12500000000E+03 0.  0.
          4    1    1    2  502    0  0.22131068742E+02 -0.17025589560E+02 -0.18961489575E+00  0.27922944997E+02  0.00000000000E+00 0.  1.
         -4    1    1    2    0  501  0.73202142345E+02 -0.22656433783E+03 -0.41433941673E+02  0.24167483184E+03  0.00000000000E+00 0. -1.
<mgrwt>
<rscale>  4 0.60965928E+03</rscale>
<asrwt>0</asrwt>
<pdfrwt beam="1">  1        2 0.25532477E-01 0.60965928E+03</pdfrwt>
<pdfrwt beam="2">  1       -2 0.86137988E-01 0.60965928E+03</pdfrwt>
<totfact> 0.25284660E+02</totfact>
</mgrwt>
</event>
<event>
 5    0  0.5719562E-003  0.9124897E+03  0.7546771E-02  0.9410102E-01
         -1   -1    0    0    0  501 -0.00000000000E+00  0.00000000000E+00  0.12236039099E+03  0.12236039099E+03  0.00000000000E+00 0.  1.
          1   -1    0    0  502    0  0.00000000000E+00 -0.00000000000E+00 -0.17011987378E+04  0.17011987378E+04  0.00000000000E+00 0. -1.
         25    1    1    2    0    0  0.32738431794E+03  0.92365642719E+02 -0.10328074583E+04  0.10945447225E+04  0.12500000000E+03 0.  0.
          1    1    1    2  502    0 -0.34917746953E+03 -0.10529193998E+02 -0.27360641433E+03  0.44372991686E+03  0.00000000000E+00 0.  1.
         -1    1    1    2    0  501  0.21793151586E+02 -0.81836448720E+02 -0.27242447422E+03  0.28528448950E+03  0.00000000000E+00 0. -1.
<mgrwt>
<rscale>  4 0.91248966E+03</rscale>
<asrwt>0</asrwt>
<pdfrwt beam="1">  1        1 0.26172289E+00 0.91248966E+03</pdfrwt>
<pdfrwt beam="2">  1       -1 0.18824675E-01 0.91248966E+03</pdfrwt>
<totfact> 0.10877451E+02</totfact>
</mgrwt>
</event>
<event>
 5    0  0.5719562E-003  0.1045752E+04  0.7546771E-02  0.9259741E-01
          2   -1    0    0  502    0  0.00000000000E+00  0.00000000000E+00  0.26518444910E+04  0.26518444910E+04  0.00000000000E+00 0.  1.
         -2   -1    0    0    0  501 -0.00000000000E+00 -0.00000000000E+00 -0.10309769349E+03  0.10309769349E+03  0.00000000000E+00 0. -1.
         25    1    1    2    0    0  0.38888645616E+03  0.50614361183E+02  0.21310897953E+04  0.21704753408E+04  0.12500000000E+03 0.  0.
          1    1    1    2  502    0 -0.12489744499E+03 -0.20795669355E+02  0.21813426717E+03  0.25221893296E+03  0.00000000000E+00 0.  1.
         -1    1    1    2    0  501 -0.26398901117E+03 -0.29818691829E+02  0.19952273505E+03  0.33224791075E+03  0.00000000000E+00 0. -1.
<mgrwt>
<rscale>  4 0.10457515E+04</rscale>
<asrwt>0</asrwt>
<pdfrwt beam="1">  1        2 0.40797602E+00 0.10457515E+04</pdfrwt>
<pdfrwt beam="2">  1       -2 0.15861186E-01 0.10457515E+04</pdfrwt>
<totfact> 0.91441841E+01</totfact>
</mgrwt>
</event>
<event>
 5    0  0.5719562E-003  0.4691528E+03  0.7546771E-02  0.1022160E+00
          2   -1    0    0  502    0  0.00000000000E+00  0.00000000000E+00  0.10825001905E+03  0.10825001905E+03  0.00000000000E+00 0.  1.
         -2   -1    0    0    0  501 -0.00000000000E+00 -0.00000000000E+00 -0.50832410305E+03  0.50832410305E+03  0.00000000000E+00 0. -1.
         25    1    1    2    0    0 -0.23440281235E+02 -0.20453660790E+03 -0.16686285786E+03  0.29300662806E+03  0.12500000000E+03 0.  0.
          3    1    1    2  502    0 -0.31922154528E+02  0.10634248178E+03 -0.10451393952E+03  0.15248249386E+03  0.00000000000E+00 0.  1.
         -3    1    1    2    0  501  0.55362435763E+02  0.98194126122E+02 -0.12869728663E+03  0.17108500017E+03  0.00000000000E+00 0. -1.
<mgrwt>
<rscale>  4 0.46915283E+03</rscale>
<asrwt>0</asrwt>
<pdfrwt beam="1">  1        2 0.16653849E-01 0.46915283E+03</pdfrwt>
<pdfrwt beam="2">  1       -2 0.78203709E-01 0.46915283E+03</pdfrwt>
<totfact> 0.51815264E+02</totfact>
</mgrwt>
</event>
<event>
 5    0  0.5719562E-003  0.5460203E+03  0.7546771E-02  0.1002419E+00
          1   -1    0    0  502    0  0.00000000000E+00  0.00000000000E+00  0.70016834202E+03  0.70016834202E+03  0.00000000000E+00 0.  1.
         -1   -1    0    0    0  501 -0.00000000000E+00 -0.00000000000E+00 -0.10645232641E+03  0.10645232641E+03  0.00000000000E+00 0. -1.
         25    1    1    2    0    0 -0.51066643308E+02 -0.20546727818E+03  0.12855583722E+03  0.27744586453E+03  0.12500000000E+03 0.  0.
          4    1    1    2  502    0  0.59254685184E+02  0.16217432578E+03  0.45095842651E+03  0.48288210994E+03  0.00000000000E+00 0.  1.
         -4    1    1    2    0  501 -0.81880418758E+01  0.43292952402E+02  0.14201751885E+02  0.46292693960E+02  0.00000000000E+00 0. -1.
<mgrwt>
<rscale>  4 0.54602033E+03</rscale>
<asrwt>0</asrwt>
<pdfrwt beam="1">  1        1 0.10771820E+00 0.54602033E+03</pdfrwt>
<pdfrwt beam="2">  1       -1 0.16377281E-01 0.54602033E+03</pdfrwt>
<totfact> 0.78274599E+02</totfact>
</mgrwt>
</event>
<event>
 5    0  0.5719562E-003  0.1065178E+04  0.7546771E-02  0.9239813E-01
         -2   -1    0    0    0  501 -0.00000000000E+00  0.00000000000E+00  0.29802785774E+03  0.29802785774E+03  0.00000000000E+00 0.  1.
          2   -1    0    0  502    0  0.00000000000E+00 -0.00000000000E+00 -0.95175968747E+03  0.95175968747E+03  0.00000000000E+00 0. -1.
         25    1    1    2    0    0 -0.14587652266E+03 -0.14945003531E+03 -0.55594759298E+03  0.60689208189E+03  0.12500000000E+03 0.  0.
          2    1    1    2  502    0 -0.13328320794E+03 -0.55177468258E+02  0.15692392666E+03  0.21315272759E+03  0.00000000000E+00 0.  1.
         -2    1    1    2    0  501  0.27915973060E+03  0.20462750357E+03 -0.25470816341E+03  0.42974273573E+03  0.00000000000E+00 0. -1.
<mgrwt>
<rscale>  4 0.10651777E+04</rscale>
<asrwt>0</asrwt>
<pdfrwt beam="1">  1        2 0.14642457E+00 0.10651777E+04</pdfrwt>
<pdfrwt beam="2">  1       -2 0.45850440E-01 0.10651777E+04</pdfrwt>
<totfact> 0.12145878E+02</totfact>
</mgrwt>
</event>
<event>
 5    0  0.5719562E-003  0.7741193E+03  0.7546771E-02  0.9598253E-01
          2   -1    0    0  502    0  0.00000000000E+00  0.00000000000E+00  0.15146847379E+04  0.15146847379E+04  0.00000000000E+00 0. -1.
         -2   -1    0    0    0  501 -0.00000000000E+00 -0.00000000000E+00 -0.98908482888E+02  0.98908482888E+02  0.00000000000E+00 0.  1.
         25    1    1    2    0    0 -0.15407813697E+03  0.26256399836E+03  0.28080713724E+03  0.43261712154E+03  0.12500000000E+03 0.  0.
          1    1    1    2  502    0  0.11312949980E+03 -0.26122495462E+03  0.96301658584E+03  0.10042099906E+04  0.00000000000E+00 0.  1.
         -1    1    1    2    0  501  0.40948637170E+02 -0.13390437409E+01  0.17195253196E+03  0.17676610867E+03  0.00000000000E+00 0. -1.
<mgrwt>
<rscale>  4 0.77411929E+03</rscale>
<asrwt>0</asrwt>
<pdfrwt beam="1">  1        2 0.23302840E+00 0.77411929E+03</pdfrwt>
<pdfrwt beam="2">  1       -2 0.15216691E-01 0.77411929E+03</pdfrwt>
<totfact> 0.43069630E+02</totfact>
</mgrwt>
</event>
<event>
 5    0  0.5719562E-003  0.5985950E+03  0.7546771E-02  0.9908325E-01
         -1   -1    0    0    0  501 -0.00000000000E+00  0.00000000000E+00  0.31196369289E+03  0.31196369289E+03  0.00000000000E+00 0.  1.
          1   -1    0    0  502    0  0.00000000000E+00 -0.00000000000E+00 -0.28714557372E+03  0.28714557372E+03  0.00000000000E+00 0. -1.
         25    1    1    2    0    0 -0.17472108086E+03  0.19403023953E+03  0.10651346475E+03  0.30845633098E+03  0.12500000000E+03 0.  0.
          4    1    1    2  502    0  0.14337333309E+03 -0.10927723331E+03 -0.86932652059E+02  0.20013673415E+03  0.00000000000E+00 0.  1.
         -4    1    1    2    0  501  0.31347747764E+02 -0.84753006216E+02  0.52373064770E+01  0.90516201488E+02  0.00000000000E+00 0. -1.
<mgrwt>
<rscale>  4 0.59859500E+03</rscale>
<asrwt>0</asrwt>
<pdfrwt beam="1">  1        1 0.44176242E-01 0.59859500E+03</pdfrwt>
<pdfrwt beam="2">  1       -1 0.47994415E-01 0.59859500E+03</pdfrwt>
<totfact> 0.40791875E+02</totfact>
</mgrwt>
</event>
<event>
 5    0  0.5719562E-003  0.5790578E+03  0.7546771E-02  0.9949833E-01
          2   -1    0    0  502    0  0.00000000000E+00  0.00000000000E+00  0.10730465168E+04  0.10730465168E+04  0.00000000000E+00 0.  1.
         -2   -1    0    0    0  501 -0.00000000000E+00 -0.00000000000E+00 -0.78120539029E+02  0.78120539029E+02  0.00000000000E+00 0. -1.
         25    1    1    2    0    0 -0.18602570673E+03  0.13700865696E+03  0.49005534523E+03  0.55601814452E+03  0.12500000000E+03 0.  0.
          1    1    1    2  502    0  0.11702128165E+03 -0.11976797222E+03  0.12573203980E+03  0.20939649797E+03  0.00000000000E+00 0. -1.
         -1    1    1    2    0  501  0.69004425081E+02 -0.17240684739E+02  0.37913859270E+03  0.38575241330E+03  0.00000000000E+00 0.  1.
<mgrwt>
<rscale>  4 0.57905776E+03</rscale>
<asrwt>0</asrwt>
<pdfrwt beam="1">  1        2 0.16508407E+00 0.57905776E+03</pdfrwt>
<pdfrwt beam="2">  1       -2 0.12018545E-01 0.57905776E+03</pdfrwt>
<totfact> 0.11600979E+03</totfact>
</mgrwt>
</event>
<event>
 5    0  0.5719562E-003  0.5393041E+03  0.7546771E-02  0.1004000E+00
         -2   -1    0    0    0  501 -0.00000000000E+00  0.00000000000E+00  0.78011904799E+02  0.78011904799E+02  0.00000000000E+00 0. -1.
          2   -1    0    0  502    0  0.00000000000E+00 -0.00000000000E+00 -0.93206594390E+03  0.93206594390E+03  0.00000000000E+00 0.  1.
         25    1    1    2    0    0  0.23250942308E+03 -0.44734516393E+02 -0.28682753361E+03  0.39237334621E+03  0.12500000000E+03 0.  0.
          1    1    1    2  502    0 -0.77804041011E+02  0.16168633280E+02 -0.26946211746E+03  0.28093544854E+03  0.00000000000E+00 0.  1.
         -1    1    1    2    0  501 -0.15470538207E+03  0.28565883114E+02 -0.29776438803E+03  0.33676905395E+03  0.00000000000E+00 0. -1.
<mgrwt>
<rscale>  4 0.53930414E+03</rscale>
<asrwt>0</asrwt>
<pdfrwt beam="1">  1        2 0.14339476E+00 0.53930414E+03</pdfrwt>
<pdfrwt beam="2">  1       -2 0.12001832E-01 0.53930414E+03</pdfrwt>
<totfact> 0.14284598E+03</totfact>
</mgrwt>
</event>
<event>
 5    0  0.5719562E-003  0.8220943E+03  0.7546771E-02  0.9528576E-01
          1   -1    0    0  502    0  0.00000000000E+00  0.00000000000E+00  0.30108944187E+03  0.30108944187E+03  0.00000000000E+00 0. -1.
         -1   -1    0    0    0  501 -0.00000000000E+00 -0.00000000000E+00 -0.56116137273E+03  0.56116137273E+03  0.00000000000E+00 0.  1.
         25    1    1    2    0    0 -0.26423628917E+03  0.27863631486E+03 -0.26346903965E+02  0.40469515913E+03  0.12500000000E+03 0.  0.
          2    1    1    2  502    0  0.14509674027E+03 -0.12723512192E+03 -0.16205711537E+03  0.25200069231E+03  0.00000000000E+00 0.  1.
         -2    1    1    2    0  501  0.11913954890E+03 -0.15140119294E+03 -0.71667911528E+02  0.20555496316E+03  0.00000000000E+00 0. -1.
<mgrwt>
<rscale>  4 0.82209431E+03</rscale>
<asrwt>0</asrwt>
<pdfrwt beam="1">  1        1 0.46321453E-01 0.82209431E+03</pdfrwt>
<pdfrwt beam="2">  1       -1 0.86332518E-01 0.82209431E+03</pdfrwt>
<totfact> 0.11685425E+02</totfact>
</mgrwt>
</event>
<event>
 5    0  0.5719562E-003  0.6322708E+03  0.7546771E-02  0.9840628E-01
          1   -1    0    0  502    0  0.00000000000E+00  0.00000000000E+00  0.44323577893E+03  0.44323577893E+03  0.00000000000E+00 0.  1.
         -1   -1    0    0    0  501 -0.00000000000E+00 -0.00000000000E+00 -0.22548174804E+03  0.22548174804E+03  0.00000000000E+00 0. -1.
         25    1    1    2    0    0  0.13314377757E+03  0.18393671034E+03 -0.55559988227E+02  0.26508845921E+03  0.12500000000E+03 0.  0.
          3    1    1    2  502    0 -0.11805285271E+03 -0.21879309630E+03  0.19281182033E+03  0.31461610429E+03  0.00000000000E+00 0.  1.
         -3    1    1    2    0  501 -0.15090924860E+02  0.34856385963E+02  0.80502198786E+02  0.89012963465E+02  0.00000000000E+00 0. -1.
<mgrwt>
<rscale>  4 0.63227076E+03</rscale>
<asrwt>0</asrwt>
<pdfrwt beam="1">  1        1 0.68190120E-01 0.63227076E+03</pdfrwt>
<pdfrwt beam="2">  1       -1 0.34689500E-01 0.63227076E+03</pdfrwt>
<totfact> 0.41696969E+02</totfact>
</mgrwt>
</event>
<event>
 5    0  0.5719562E-003  0.9059192E+03  0.7546771E-02  0.9418212E-01
         -2   -1    0    0    0  501 -0.00000000000E+00  0.00000000000E+00  0.31998840597E+03  0.31998840597E+03  0.00000000000E+00 0.  1.
          2   -1    0    0  502    0  0.00000000000E+00 -0.00000000000E+00 -0.64118694256E+03  0.64118694256E+03  0.00000000000E+00 0. -1.
         25    1    1    2    0    0 -0.23006901232E+03 -0.78193141053E+02 -0.53736396922E+03  0.60285234772E+03  0.12500000000E+03 0.  0.
          3    1    1    2  502    0  0.18598108063E+03  0.43334768399E+02  0.72860337476E+02  0.20439054107E+03  0.00000000000E+00 0. -1.
         -3    1    1    2    0  501  0.44087931699E+02  0.34858372655E+02  0.14330509515E+03  0.15393245974E+03  0.00000000000E+00 0.  1.
<mgrwt>
<rscale>  4 0.90591917E+03</rscale>
<asrwt>0</asrwt>
<pdfrwt beam="1">  1        2 0.98644144E-01 0.90591917E+03</pdfrwt>
<pdfrwt beam="2">  1       -2 0.49228986E-01 0.90591917E+03</pdfrwt>
<totfact> 0.17915579E+02</totfact>
</mgrwt>
</event>
<event>
 5    0  0.5719562E-003  0.5982465E+03  0.7546771E-02  0.9909051E-01
         -2   -1    0    0    0  501 -0.00000000000E+00  0.00000000000E+00  0.22139827250E+02  0.22139827250E+02  0.00000000000E+00 0. -1.
          2   -1    0    0  502    0  0.00000000000E+00 -0.00000000000E+00 -0.40413464178E+04  0.40413464178E+04  0.00000000000E+00 0.  1.
         25    1    1    2    0    0  0.25887518260E+03  0.63507555926E+02 -0.17782204685E+04  0.18024268652E+04  0.12500000000E+03 0.  0.
          1    1    1    2  502    0 -0.13097190360E+03 -0.14957694696E+01 -0.61069155064E+03  0.62457989631E+03  0.00000000000E+00 0. -1.
         -1    1    1    2    0  501 -0.12790327900E+03 -0.62011786456E+02 -0.16302945714E+04  0.16364794836E+04  0.00000000000E+00 0.  1.
<mgrwt>
<rscale>  4 0.59824648E+03</rscale>
<asrwt>0</asrwt>
<pdfrwt beam="1">  1        2 0.62174619E+00 0.59824648E+03</pdfrwt>
<pdfrwt beam="2">  1       -2 0.34061241E-02 0.59824648E+03</pdfrwt>
<totfact> 0.13371453E+02</totfact>
</mgrwt>
</event>
<event>
 5    0  0.5719562E-003  0.6962826E+03  0.7546771E-02  0.9723611E-01
         -1   -1    0    0    0  501 -0.00000000000E+00  0.00000000000E+00  0.29726032534E+03  0.29726032534E+03  0.00000000000E+00 0.  1.
          1   -1    0    0  502    0  0.00000000000E+00 -0.00000000000E+00 -0.40773143567E+03  0.40773143567E+03  0.00000000000E+00 0. -1.
         25    1    1    2    0    0  0.87946329504E+02  0.27848988508E+03  0.10631595810E+03  0.33499142662E+03  0.12500000000E+03 0.  0.
          3    1    1    2  502    0  0.86762097376E+01 -0.50847164349E+02 -0.26674448108E+02  0.58070964514E+02  0.00000000000E+00 0.  1.
         -3    1    1    2    0  501 -0.96622539241E+02 -0.22764272073E+03 -0.19011262032E+03  0.31192936988E+03  0.00000000000E+00 0. -1.
<mgrwt>
<rscale>  4 0.69628264E+03</rscale>
<asrwt>0</asrwt>
<pdfrwt beam="1">  1        1 0.62727913E-01 0.69628264E+03</pdfrwt>
<pdfrwt beam="2">  1       -1 0.45732358E-01 0.69628264E+03</pdfrwt>
<totfact> 0.28157566E+02</totfact>
</mgrwt>
</event>
<event>
 5    0  0.5719562E-003  0.4587824E+03  0.7546771E-02  0.1025135E+00
          2   -1    0    0  502    0  0.00000000000E+00  0.00000000000E+00  0.17376321625E+04  0.17376321625E+04  0.00000000000E+00 0.  1.
         -2   -1    0    0    0  501 -0.00000000000E+00 -0.00000000000E+00 -0.30282769714E+02  0.30282769714E+02  0.00000000000E+00 0. -1.
         25    1    1    2    0    0  0.20222338892E+03  0.10538011756E+02  0.11224653218E+04  0.11474139390E+04  0.12500000000E+03 0.  0.
          1    1    1    2  502    0 -0.31874485310E+02  0.95108906237E+01  0.64411391566E+02  0.72493221874E+02  0.00000000000E+00 0. -1.
         -1    1    1    2    0  501 -0.17034890361E+03 -0.20048902380E+02  0.52047267934E+03  0.54800777128E+03  0.00000000000E+00 0.  1.
<mgrwt>
<rscale>  4 0.45878237E+03</rscale>
<asrwt>0</asrwt>
<pdfrwt beam="1">  1        2 0.26732795E+00 0.45878237E+03</pdfrwt>
<pdfrwt beam="2">  1       -2 0.46588890E-02 0.45878237E+03</pdfrwt>
<totfact> 0.22109436E+03</totfact>
</mgrwt>
</event>
<event>
 5    0  0.5719562E-003  0.5970162E+03  0.7546771E-02  0.9911616E-01
          2   -1    0    0  502    0  0.00000000000E+00  0.00000000000E+00  0.30041179032E+04  0.30041179032E+04  0.00000000000E+00 0.  1.
         -2   -1    0    0    0  501 -0.00000000000E+00 -0.00000000000E+00 -0.29661648581E+02  0.29661648581E+02  0.00000000000E+00 0. -1.
         25    1    1    2    0    0  0.23400675942E+03  0.11265456065E+03  0.19899935661E+04  0.20107584655E+04  0.12500000000E+03 0.  0.
          3    1    1    2  502    0 -0.86914254894E+02  0.66651152665E+01  0.36409927230E+03  0.37438855692E+03  0.00000000000E+00 0.  1.
         -3    1    1    2    0  501 -0.14709250452E+03 -0.11931967592E+03  0.62036341620E+03  0.64863252933E+03  0.00000000000E+00 0. -1.
<mgrwt>
<rscale>  4 0.59701621E+03</rscale>
<asrwt>0</asrwt>
<pdfrwt beam="1">  1        2 0.46217175E+00 0.59701621E+03</pdfrwt>
<pdfrwt beam="2">  1       -2 0.45633329E-02 0.59701621E+03</pdfrwt>
<totfact> 0.44190569E+02</totfact>
</mgrwt>
</event>
<event>
 5    0  0.5719562E-003  0.9612381E+03  0.7546771E-02  0.9352111E-01
          4   -1    0    0  502    0  0.00000000000E+00  0.00000000000E+00  0.16783809451E+04  0.16783809451E+04  0.00000000000E+00 0. -1.
         -4   -1    0    0    0  501 -0.00000000000E+00 -0.00000000000E+00 -0.13762947724E+03  0.13762947724E+03  0.00000000000E+00 0.  1.
         25    1    1    2    0    0  0.18840047233E+03 -0.27939810390E+03  0.34110020364E+03  0.49551224744E+03  0.12500000000E+03 0.  0.
          4    1    1    2  502    0 -0.29234461731E+03  0.28382856576E+03  0.11125340309E+04  0.11848020931E+04  0.00000000000E+00 0. -1.
         -4    1    1    2    0  501  0.10394414498E+03 -0.44304618657E+01  0.87117233388E+02  0.13569608182E+03  0.00000000000E+00 0.  1.
<mgrwt>
<rscale>  4 0.96123814E+03</rscale>
<asrwt>0</asrwt>
<pdfrwt beam="1">  1        4 0.25821244E+00 0.96123814E+03</pdfrwt>
<pdfrwt beam="2">  1       -4 0.21173767E-01 0.96123814E+03</pdfrwt>
<totfact> 0.23541005E+00</totfact>
</mgrwt>
</event>
<event>
 5    0  0.5719562E-003  0.5944178E+03  0.7546771E-02  0.9917056E-01
          2   -1    0    0  502    0  0.00000000000E+00  0.00000000000E+00  0.30884130903E+04  0.30884130903E+04  0.00000000000E+00 0.  1.
         -2   -1    0    0    0  501 -0.00000000000E+00 -0.00000000000E+00 -0.28601457846E+02  0.28601457846E+02  0.00000000000E+00 0. -1.
         25    1    1    2    0    0  0.94958634549E+02 -0.19807829236E+03  0.25004232960E+04  0.25131641035E+04  0.12500000000E+03 0.  0.
          1    1    1    2  502    0 -0.35029872145E+02  0.33031679950E+02  0.17031783610E+03  0.17699251147E+03  0.00000000000E+00 0.  1.
         -1    1    1    2    0  501 -0.59928762403E+02  0.16504661241E+03  0.38907050038E+03  0.42685793316E+03  0.00000000000E+00 0. -1.
<mgrwt>
<rscale>  4 0.59441775E+03</rscale>
<asrwt>0</asrwt>
<pdfrwt beam="1">  1        2 0.47514021E+00 0.59441775E+03</pdfrwt>
<pdfrwt beam="2">  1       -2 0.44002267E-02 0.59441775E+03</pdfrwt>
<totfact> 0.41512346E+02</totfact>
</mgrwt>
</event>
<event>
 5    0  0.5719562E-003  0.5516199E+03  0.7546771E-02  0.1001120E+00
          2   -1    0    0  502    0  0.00000000000E+00  0.00000000000E+00  0.10109239210E+03  0.10109239210E+03  0.00000000000E+00 0. -1.
         -2   -1    0    0    0  501 -0.00000000000E+00 -0.00000000000E+00 -0.75249118758E+03  0.75249118758E+03  0.00000000000E+00 0.  1.
         25    1    1    2    0    0  0.19178495887E+03 -0.80781933006E+02 -0.27309174510E+03  0.36539197089E+03  0.12500000000E+03 0.  0.
          3    1    1    2  502    0 -0.43876835513E+02 -0.47115729830E+02 -0.24051223743E+03  0.24898033064E+03  0.00000000000E+00 0.  1.
         -3    1    1    2    0  501 -0.14790812336E+03  0.12789766284E+03 -0.13779481295E+03  0.23921127815E+03  0.00000000000E+00 0. -1.
<mgrwt>
<rscale>  4 0.55161992E+03</rscale>
<asrwt>0</asrwt>
<pdfrwt beam="1">  1        2 0.15552675E-01 0.55161992E+03</pdfrwt>
<pdfrwt beam="2">  1       -2 0.11576788E+00 0.55161992E+03</pdfrwt>
<totfact> 0.22565109E+02</totfact>
</mgrwt>
</event>
<event>
 5    0  0.5719562E-003  0.6214621E+03  0.7546771E-02  0.9861853E-01
          1   -1    0    0  502    0  0.00000000000E+00  0.00000000000E+00  0.16828197884E+03  0.16828197884E+03  0.00000000000E+00 0.  1.
         -1   -1    0    0    0  501 -0.00000000000E+00 -0.00000000000E+00 -0.57376191557E+03  0.57376191557E+03  0.00000000000E+00 0. -1.
         25    1    1    2    0    0  0.21028701247E+03 -0.87165347417E+02 -0.25679306945E+03  0.36522062636E+03  0.12500000000E+03 0.  0.
          3    1    1    2  502    0 -0.15457325356E+03 -0.76127978489E+02 -0.91274772313E+02  0.19498575303E+03  0.00000000000E+00 0. -1.
         -3    1    1    2    0  501 -0.55713758903E+02  0.16329332591E+03 -0.57412094965E+02  0.18183751501E+03  0.00000000000E+00 0.  1.
<mgrwt>
<rscale>  4 0.62146212E+03</rscale>
<asrwt>0</asrwt>
<pdfrwt beam="1">  1        1 0.25889536E-01 0.62146212E+03</pdfrwt>
<pdfrwt beam="2">  1       -1 0.88271062E-01 0.62146212E+03</pdfrwt>
<totfact> 0.23896614E+02</totfact>
</mgrwt>
</event>
<event>
 5    0  0.5719562E-003  0.5108217E+03  0.7546771E-02  0.1010992E+00
         -2   -1    0    0    0  501 -0.00000000000E+00  0.00000000000E+00  0.39148840531E+02  0.39148840531E+02  0.00000000000E+00 0. -1.
          2   -1    0    0  502    0  0.00000000000E+00 -0.00000000000E+00 -0.16663252183E+04  0.16663252183E+04  0.00000000000E+00 0.  1.
         25    1    1    2    0    0  0.16395839064E+03  0.13461968026E+03 -0.11409633260E+04  0.11672305357E+04  0.12500000000E+03 0.  0.
          4    1    1    2  502    0 -0.84091530411E+02 -0.69578333124E+02 -0.35519446220E+03  0.37158530098E+03  0.00000000000E+00 0.  1.
         -4    1    1    2    0  501 -0.79866860230E+02 -0.65041347137E+02 -0.13101858957E+03  0.16665822216E+03  0.00000000000E+00 0. -1.
<mgrwt>
<rscale>  4 0.51082169E+03</rscale>
<asrwt>0</asrwt>
<pdfrwt beam="1">  1        2 0.25635770E+00 0.51082169E+03</pdfrwt>
<pdfrwt beam="2">  1       -2 0.60228992E-02 0.51082169E+03</pdfrwt>
<totfact> 0.16195505E+03</totfact>
</mgrwt>
</event>
<event>
 5    0  0.5719562E-003  0.8508918E+03  0.7546771E-02  0.9489141E-01
          3   -1    0    0  502    0  0.00000000000E+00  0.00000000000E+00  0.90065617177E+03  0.90065617177E+03  0.00000000000E+00 0. -1.
         -3   -1    0    0    0  501 -0.00000000000E+00 -0.00000000000E+00 -0.20096927157E+03  0.20096927157E+03  0.00000000000E+00 0.  1.
         25    1    1    2    0    0  0.71283312236E+02 -0.32175726828E+03  0.61080599147E+03  0.70520777755E+03  0.12500000000E+03 0.  0.
          1    1    1    2  502    0 -0.11440698843E+03  0.24331881681E+03  0.12912931900E+03  0.29827401268E+03  0.00000000000E+00 0. -1.
         -1    1    1    2    0  501  0.43123676193E+02  0.78438451474E+02 -0.40248410264E+02  0.98143653115E+02  0.00000000000E+00 0.  1.
<mgrwt>
<rscale>  4 0.85089180E+03</rscale>
<asrwt>0</asrwt>
<pdfrwt beam="1">  1        3 0.13856249E+00 0.85089180E+03</pdfrwt>
<pdfrwt beam="2">  1       -3 0.30918350E-01 0.85089180E+03</pdfrwt>
<totfact> 0.10696758E+01</totfact>
</mgrwt>
</event>
<event>
 5    0  0.5719562E-003  0.5816442E+03  0.7546771E-02  0.9944238E-01
         -2   -1    0    0    0  501 -0.00000000000E+00  0.00000000000E+00  0.10175912816E+03  0.10175912816E+03  0.00000000000E+00 0.  1.
          2   -1    0    0  502    0  0.00000000000E+00 -0.00000000000E+00 -0.83115373868E+03  0.83115373868E+03  0.00000000000E+00 0. -1.
         25    1    1    2    0    0  0.25340941758E+03 -0.88084589673E+02 -0.33118770845E+03  0.44416835332E+03  0.12500000000E+03 0.  0.
          4    1    1    2  502    0 -0.23332272481E+03  0.76252418833E+02 -0.39521519721E+03  0.46524077357E+03  0.00000000000E+00 0.  1.
         -4    1    1    2    0  501 -0.20086692776E+02  0.11832170840E+02 -0.29917048603E+01  0.23503739946E+02  0.00000000000E+00 0. -1.
<mgrwt>
<rscale>  4 0.58164415E+03</rscale>
<asrwt>0</asrwt>
<pdfrwt beam="1">  1        2 0.12786980E+00 0.58164415E+03</pdfrwt>
<pdfrwt beam="2">  1       -2 0.15655251E-01 0.58164415E+03</pdfrwt>
<totfact> 0.10719941E+03</totfact>
</mgrwt>
</event>
<event>
 5    0  0.5719562E-003  0.6301262E+03  0.7546771E-02  0.9844803E-01
         -1   -1    0    0    0  501 -0.00000000000E+00  0.00000000000E+00  0.24404598739E+03  0.24404598739E+03  0.00000000000E+00 0. -1.
          1   -1    0    0  502    0  0.00000000000E+00 -0.00000000000E+00 -0.40674605856E+03  0.40674605856E+03  0.00000000000E+00 0.  1.
         25    1    1    2    0    0  0.23873509719E+03 -0.70434790556E+01  0.88409642845E+02  0.28369935173E+03  0.12500000000E+03 0.  0.
          2    1    1    2  502    0 -0.79898495439E+02  0.69125663514E+01 -0.17171303104E+03  0.18951759332E+03  0.00000000000E+00 0.  1.
         -2    1    1    2    0  501 -0.15883660175E+03  0.13091270415E+00 -0.79396682966E+02  0.17757510090E+03  0.00000000000E+00 0. -1.
<mgrwt>
<rscale>  4 0.63012616E+03</rscale>
<asrwt>0</asrwt>
<pdfrwt beam="1">  1        1 0.62576317E-01 0.63012616E+03</pdfrwt>
<pdfrwt beam="2">  1       -1 0.37545537E-01 0.63012616E+03</pdfrwt>
<totfact> 0.40597711E+02</totfact>
</mgrwt>
</event>
<event>
 5    0  0.5719562E-003  0.6414188E+03  0.7546771E-02  0.9823016E-01
          3   -1    0    0  502    0  0.00000000000E+00  0.00000000000E+00  0.27627445601E+03  0.27627445601E+03  0.00000000000E+00 0.  1.
         -3   -1    0    0    0  501 -0.00000000000E+00 -0.00000000000E+00 -0.37229109022E+03  0.37229109022E+03  0.00000000000E+00 0. -1.
         25    1    1    2    0    0 -0.46787245485E+02 -0.28879216332E+03 -0.45440326331E+02  0.32137172121E+03  0.12500000000E+03 0.  0.
          3    1    1    2  502    0  0.56281101186E+02  0.48713640901E+02 -0.44761718262E+02  0.86857311622E+02  0.00000000000E+00 0.  1.
         -3    1    1    2    0  501 -0.94938557014E+01  0.24007852242E+03 -0.58145896203E+01  0.24033651340E+03  0.00000000000E+00 0. -1.
<mgrwt>
<rscale>  4 0.64141880E+03</rscale>
<asrwt>0</asrwt>
<pdfrwt beam="1">  1        3 0.42503763E-01 0.64141880E+03</pdfrwt>
<pdfrwt beam="2">  1       -3 0.57275552E-01 0.64141880E+03</pdfrwt>
<totfact> 0.43403793E+01</totfact>
</mgrwt>
</event>
<event>
 5    0  0.5719562E-003  0.8653264E+03  0.7546771E-02  0.9469994E-01
         -2   -1    0    0    0  501 -0.00000000000E+00  0.00000000000E+00  0.13378590812E+03  0.13378590812E+03  0.00000000000E+00 0.  1.
          2   -1    0    0  502    0  0.00000000000E+00 -0.00000000000E+00 -0.13992313585E+04  0.13992313585E+04  0.00000000000E+00 0. -1.
         25    1    1    2    0    0  0.25777769435E+03 -0.29362098451E+03 -0.79015696894E+03  0.89030088049E+03  0.12500000000E+03 0.  0.
          3    1    1    2  502    0 -0.20490064135E+03  0.28446152808E+03 -0.47332570282E+03  0.58901600549E+03  0.00000000000E+00 0. -1.
         -3    1    1    2    0  501 -0.52877053004E+02  0.91594564247E+01 -0.19627785949E+01  0.53700380596E+02  0.00000000000E+00 0.  1.
<mgrwt>
<rscale>  4 0.86532638E+03</rscale>
<asrwt>0</asrwt>
<pdfrwt beam="1">  1        2 0.21526635E+00 0.86532638E+03</pdfrwt>
<pdfrwt beam="2">  1       -2 0.20582448E-01 0.86532638E+03</pdfrwt>
<totfact> 0.29534824E+02</totfact>
</mgrwt>
</event>
<event>
 5    0  0.5719562E-003  0.4563957E+03  0.7546771E-02  0.1025832E+00
         -2   -1    0    0    0  501 -0.00000000000E+00  0.00000000000E+00  0.11345450003E+03  0.11345450003E+03  0.00000000000E+00 0. -1.
          2   -1    0    0  502    0  0.00000000000E+00 -0.00000000000E+00 -0.45898808954E+03  0.45898808954E+03  0.00000000000E+00 0.  1.
         25    1    1    2    0    0  0.14455164210E+03 -0.15018259803E+03 -0.20090768851E+03  0.31533932404E+03  0.12500000000E+03 0.  0.
          2    1    1    2  502    0 -0.30995209204E+02  0.29410006625E+02 -0.10848434767E+02  0.44083330412E+02  0.00000000000E+00 0. -1.
         -2    1    1    2    0  501 -0.11355643290E+03  0.12077259141E+03 -0.13377746623E+03  0.21301993512E+03  0.00000000000E+00 0.  1.
<mgrwt>
<rscale>  4 0.45639572E+03</rscale>
<asrwt>0</asrwt>
<pdfrwt beam="1">  1        2 0.70613550E-01 0.45639572E+03</pdfrwt>
<pdfrwt beam="2">  1       -2 0.17454539E-01 0.45639572E+03</pdfrwt>
<totfact> 0.18298899E+03</totfact>
</mgrwt>
</event>
<event>
 5    0  0.5719562E-003  0.6915562E+03  0.7546771E-02  0.9731782E-01
         -2   -1    0    0    0  501 -0.00000000000E+00  0.00000000000E+00  0.15534867913E+03  0.15534867913E+03  0.00000000000E+00 0.  1.
          2   -1    0    0  502    0  0.00000000000E+00 -0.00000000000E+00 -0.76963951575E+03  0.76963951575E+03  0.00000000000E+00 0. -1.
         25    1    1    2    0    0 -0.66016861581E+02 -0.21144965113E+03  0.63050363081E+01  0.25442864316E+03  0.12500000000E+03 0.  0.
          4    1    1    2  502    0  0.25536906542E+02  0.19241544288E+03 -0.57416411244E+03  0.60608602051E+03  0.00000000000E+00 0. -1.
         -4    1    1    2    0  501  0.40479955039E+02  0.19034208254E+02 -0.46431760488E+02  0.64473531204E+02  0.00000000000E+00 0.  1.
<mgrwt>
<rscale>  4 0.69155616E+03</rscale>
<asrwt>0</asrwt>
<pdfrwt beam="1">  1        2 0.11840608E+00 0.69155616E+03</pdfrwt>
<pdfrwt beam="2">  1       -2 0.23899797E-01 0.69155616E+03</pdfrwt>
<totfact> 0.56699392E+02</totfact>
</mgrwt>
</event>
<event>
 5    0  0.5719562E-003  0.5748473E+03  0.7546771E-02  0.9959009E-01
         -1   -1    0    0    0  501 -0.00000000000E+00  0.00000000000E+00  0.19306703382E+03  0.19306703382E+03  0.00000000000E+00 0. -1.
          1   -1    0    0  502    0  0.00000000000E+00 -0.00000000000E+00 -0.42789462313E+03  0.42789462313E+03  0.00000000000E+00 0.  1.
         25    1    1    2    0    0 -0.82594694860E+02 -0.21572713906E+03  0.12537003929E+02  0.26294915595E+03  0.12500000000E+03 0.  0.
          4    1    1    2  502    0  0.10181845371E+03  0.17529764244E+03 -0.15438009408E+03  0.25481262608E+03  0.00000000000E+00 0. -1.
         -4    1    1    2    0  501 -0.19223758852E+02  0.40429496627E+02 -0.92984499157E+02  0.10319987493E+03  0.00000000000E+00 0.  1.
<mgrwt>
<rscale>  4 0.57484727E+03</rscale>
<asrwt>0</asrwt>
<pdfrwt beam="1">  1        1 0.65829941E-01 0.57484727E+03</pdfrwt>
<pdfrwt beam="2">  1       -1 0.29702621E-01 0.57484727E+03</pdfrwt>
<totfact> 0.57458159E+02</totfact>
</mgrwt>
</event>
<event>
 5    0  0.5719562E-003  0.6439020E+03  0.7546771E-02  0.9818289E-01
          2   -1    0    0  502    0  0.00000000000E+00  0.00000000000E+00  0.11183326942E+04  0.11183326942E+04  0.00000000000E+00 0. -1.
         -2   -1    0    0    0  501 -0.00000000000E+00 -0.00000000000E+00 -0.92684802387E+02  0.92684802387E+02  0.00000000000E+00 0.  1.
         25    1    1    2    0    0 -0.23371418979E+03  0.31328432319E+02  0.37601502961E+03  0.46110312911E+03  0.12500000000E+03 0.  0.
          3    1    1    2  502    0 -0.38165259751E+02 -0.88847731143E+02  0.16316973142E+03  0.18967041844E+03  0.00000000000E+00 0.  1.
         -3    1    1    2    0  501  0.27187944954E+03  0.57519298824E+02  0.48646313077E+03  0.56024394902E+03  0.00000000000E+00 0. -1.
<mgrwt>
<rscale>  4 0.64390199E+03</rscale>
<asrwt>0</asrwt>
<pdfrwt beam="1">  1        2 0.17205117E+00 0.64390199E+03</pdfrwt>
<pdfrwt beam="2">  1       -2 0.14259201E-01 0.64390199E+03</pdfrwt>
<totfact> 0.81782538E+02</totfact>
</mgrwt>
</event>
<event>
 5    0  0.5719562E-003  0.5639208E+03  0.7546771E-02  0.9983222E-01
          2   -1    0    0  502    0  0.00000000000E+00  0.00000000000E+00  0.29409624181E+03  0.29409624181E+03  0.00000000000E+00 0. -1.
         -2   -1    0    0    0  501 -0.00000000000E+00 -0.00000000000E+00 -0.27032538082E+03  0.27032538082E+03  0.00000000000E+00 0.  1.
         25    1    1    2    0    0  0.50317400551E+01 -0.25633604939E+03 -0.26190617896E+02  0.28643400128E+03  0.12500000000E+03 0.  0.
          1    1    1    2  502    0  0.22841092645E+02  0.76179540374E+02 -0.21173676416E+02  0.82300440204E+02  0.00000000000E+00 0.  1.
         -1    1    1    2    0  501 -0.27872832700E+02  0.18015650901E+03  0.71135155300E+02  0.19568718114E+03  0.00000000000E+00 0. -1.
<mgrwt>
<rscale>  4 0.56392084E+03</rscale>
<asrwt>0</asrwt>
<pdfrwt beam="1">  1        2 0.45245576E-01 0.56392084E+03</pdfrwt>
<pdfrwt beam="2">  1       -2 0.41588520E-01 0.56392084E+03</pdfrwt>
<totfact> 0.61910589E+02</totfact>
</mgrwt>
</event>
<event>
 5    0  0.5719562E-003  0.5896062E+03  0.7546771E-02  0.9927208E-01
         -2   -1    0    0    0  501 -0.00000000000E+00  0.00000000000E+00  0.14137912828E+03  0.14137912828E+03  0.00000000000E+00 0. -1.
          2   -1    0    0  502    0  0.00000000000E+00 -0.00000000000E+00 -0.61472205197E+03  0.61472205197E+03  0.00000000000E+00 0.  1.
         25    1    1    2    0    0  0.17422077775E+03  0.12928065690E+03 -0.10672015892E+03  0.27217744206E+03  0.12500000000E+03 0.  0.
          4    1    1    2  502    0 -0.37636857808E+02 -0.63224193938E+02 -0.31528146293E+03  0.32375335154E+03  0.00000000000E+00 0.  1.
         -4    1    1    2    0  501 -0.13658391994E+03 -0.66056462958E+02 -0.51341301839E+02  0.16017038665E+03  0.00000000000E+00 0. -1.
<mgrwt>
<rscale>  4 0.58960620E+03</rscale>
<asrwt>0</asrwt>
<pdfrwt beam="1">  1        2 0.94572623E-01 0.58960620E+03</pdfrwt>
<pdfrwt beam="2">  1       -2 0.21750635E-01 0.58960620E+03</pdfrwt>
<totfact> 0.88993203E+02</totfact>
</mgrwt>
</event>
<event>
 5    0  0.5719562E-003  0.5758802E+03  0.7546771E-02  0.9956750E-01
         -2   -1    0    0    0  501 -0.00000000000E+00  0.00000000000E+00  0.28773356299E+02  0.28773356299E+02  0.00000000000E+00 0.  1.
          2   -1    0    0  502    0  0.00000000000E+00 -0.00000000000E+00 -0.28814680178E+04  0.28814680178E+04  0.00000000000E+00 0. -1.
         25    1    1    2    0    0 -0.12043718054E+03 -0.22714786142E+03 -0.11673556892E+04  0.12018508936E+04  0.12500000000E+03 0.  0.
          1    1    1    2  502    0  0.88238394558E+02  0.22587524234E+03 -0.13591571758E+04  0.13806208270E+04  0.00000000000E+00 0.  1.
         -1    1    1    2    0  501  0.32198785982E+02  0.12726190729E+01 -0.32618179653E+03  0.32776965352E+03  0.00000000000E+00 0. -1.
<mgrwt>
<rscale>  4 0.57588022E+03</rscale>
<asrwt>0</asrwt>
<pdfrwt beam="1">  1        2 0.44330264E+00 0.57588022E+03</pdfrwt>
<pdfrwt beam="2">  1       -2 0.44266715E-02 0.57588022E+03</pdfrwt>
<totfact> 0.55016541E+02</totfact>
</mgrwt>
</event>
<event>
 5    0  0.5719562E-003  0.6061192E+03  0.7546771E-02  0.9892791E-01
          2   -1    0    0  502    0  0.00000000000E+00  0.00000000000E+00  0.14181115246E+03  0.14181115246E+03  0.00000000000E+00 0. -1.
         -2   -1    0    0    0  501 -0.00000000000E+00 -0.00000000000E+00 -0.64765804909E+03  0.64765804909E+03  0.00000000000E+00 0.  1.
         25    1    1    2    0    0  0.34579620118E+02 -0.20464200193E+03 -0.19655569757E+03  0.31198275807E+03  0.12500000000E+03 0.  0.
          2    1    1    2  502    0 -0.10265265424E+03  0.12174168021E+03 -0.10005059115E+02  0.15955784321E+03  0.00000000000E+00 0. -1.
         -2    1    1    2    0  501  0.68073034117E+02  0.82900321726E+02 -0.29928613993E+03  0.31792860027E+03  0.00000000000E+00 0.  1.
<mgrwt>
<rscale>  4 0.60611924E+03</rscale>
<asrwt>0</asrwt>
<pdfrwt beam="1">  1        2 0.21817101E-01 0.60611924E+03</pdfrwt>
<pdfrwt beam="2">  1       -2 0.99639698E-01 0.60611924E+03</pdfrwt>
<totfact> 0.21636516E+02</totfact>
</mgrwt>
</event>
<event>
 5    0  0.5719562E-003  0.5295563E+03  0.7546771E-02  0.1006340E+00
         -1   -1    0    0    0  501 -0.00000000000E+00  0.00000000000E+00  0.23170500780E+03  0.23170500780E+03  0.00000000000E+00 0. -1.
          1   -1    0    0  502    0  0.00000000000E+00 -0.00000000000E+00 -0.30257209020E+03  0.30257209020E+03  0.00000000000E+00 0.  1.
         25    1    1    2    0    0 -0.19544817256E+03 -0.92162694653E+02 -0.14813120898E+02  0.25007674621E+03  0.12500000000E+03 0.  0.
          1    1    1    2  502    0  0.14715181466E+03  0.81995142222E+02  0.42715773023E+02  0.17378577955E+03  0.00000000000E+00 0. -1.
         -1    1    1    2    0  501  0.48296357895E+02  0.10167552430E+02 -0.98769734520E+02  0.11041457225E+03  0.00000000000E+00 0.  1.
<mgrwt>
<rscale>  4 0.52955630E+03</rscale>
<asrwt>0</asrwt>
<pdfrwt beam="1">  1        1 0.46549552E-01 0.52955630E+03</pdfrwt>
<pdfrwt beam="2">  1       -1 0.35646924E-01 0.52955630E+03</pdfrwt>
<totfact> 0.65634681E+02</totfact>
</mgrwt>
</event>
<event>
 5    0  0.5719562E-003  0.4887382E+03  0.7546771E-02  0.1016761E+00
          2   -1    0    0  502    0  0.00000000000E+00  0.00000000000E+00  0.81396979561E+03  0.81396979561E+03  0.00000000000E+00 0. -1.
         -2   -1    0    0    0  501 -0.00000000000E+00 -0.00000000000E+00 -0.73364221242E+02  0.73364221242E+02  0.00000000000E+00 0.  1.
         25    1    1    2    0    0 -0.17809393450E+03  0.11625477812E+03  0.43762196238E+03  0.50236501162E+03  0.12500000000E+03 0.  0.
          3    1    1    2  502    0  0.15382983045E+03 -0.68456157528E+02  0.16001477622E+03  0.23228127529E+03  0.00000000000E+00 0.  1.
         -3    1    1    2    0  501  0.24264104046E+02 -0.47798620588E+02  0.14296883577E+03  0.15268772995E+03  0.00000000000E+00 0. -1.
<mgrwt>
<rscale>  4 0.48873821E+03</rscale>
<asrwt>0</asrwt>
<pdfrwt beam="1">  1        2 0.12522612E+00 0.48873821E+03</pdfrwt>
<pdfrwt beam="2">  1       -2 0.11286804E-01 0.48873821E+03</pdfrwt>
<totfact> 0.18989868E+03</totfact>
</mgrwt>
</event>
<event>
 5    0  0.5719562E-003  0.6425485E+03  0.7546771E-02  0.9820863E-01
          1   -1    0    0  502    0  0.00000000000E+00  0.00000000000E+00  0.19717409970E+03  0.19717409970E+03  0.00000000000E+00 0. -1.
         -1   -1    0    0    0  501 -0.00000000000E+00 -0.00000000000E+00 -0.52348227381E+03  0.52348227381E+03  0.00000000000E+00 0.  1.
         25    1    1    2    0    0  0.85777754962E+01 -0.20779601327E+03 -0.15177170130E+03  0.28620344282E+03  0.12500000000E+03 0.  0.
          3    1    1    2  502    0 -0.67516617477E+02  0.27610328629E+03 -0.63251939742E+02  0.29119121933E+03  0.00000000000E+00 0.  1.
         -3    1    1    2    0  501  0.58938841981E+02 -0.68307273016E+02 -0.11128453307E+03  0.14326171136E+03  0.00000000000E+00 0. -1.
<mgrwt>
<rscale>  4 0.64254851E+03</rscale>
<asrwt>0</asrwt>
<pdfrwt beam="1">  1        1 0.30334477E-01 0.64254851E+03</pdfrwt>
<pdfrwt beam="2">  1       -1 0.80535734E-01 0.64254851E+03</pdfrwt>
<totfact> 0.23670370E+02</totfact>
</mgrwt>
</event>
<event>
 5    0  0.5719562E-003  0.5874967E+03  0.7546771E-02  0.9931691E-01
         -1   -1    0    0    0  501 -0.00000000000E+00  0.00000000000E+00  0.90400574022E+03  0.90400574022E+03  0.00000000000E+00 0. -1.
          1   -1    0    0  502    0  0.00000000000E+00 -0.00000000000E+00 -0.95450813455E+02  0.95450813455E+02  0.00000000000E+00 0.  1.
         25    1    1    2    0    0 -0.11419111010E+03 -0.22554223163E+03  0.56899917642E+03  0.63505430527E+03  0.12500000000E+03 0.  0.
          2    1    1    2  502    0  0.86256984504E+02  0.16716595093E+03  0.23285173009E+03  0.29934035934E+03  0.00000000000E+00 0.  1.
         -2    1    1    2    0  501  0.27934125593E+02  0.58376280699E+02  0.67040202589E+01  0.65061889063E+02  0.00000000000E+00 0. -1.
<mgrwt>
<rscale>  4 0.58749667E+03</rscale>
<asrwt>0</asrwt>
<pdfrwt beam="1">  1        1 0.14684741E-01 0.58749667E+03</pdfrwt>
<pdfrwt beam="2">  1       -1 0.13907780E+00 0.58749667E+03</pdfrwt>
<totfact> 0.17309165E+02</totfact>
</mgrwt>
</event>
<event>
 5    0  0.5719562E-003  0.6464702E+03  0.7546771E-02  0.9813425E-01
         -1   -1    0    0    0  501 -0.00000000000E+00  0.00000000000E+00  0.47086338099E+02  0.47086338099E+02  0.00000000000E+00 0.  1.
          1   -1    0    0  502    0  0.00000000000E+00 -0.00000000000E+00 -0.22189224150E+04  0.22189224150E+04  0.00000000000E+00 0. -1.
         25    1    1    2    0    0  0.21848609926E+03  0.15437535645E+02 -0.90768432235E+03  0.94206704757E+03  0.12500000000E+03 0.  0.
          2    1    1    2  502    0 -0.42831944236E+02  0.13326654746E+03 -0.71397688847E+03  0.72756961550E+03  0.00000000000E+00 0. -1.
         -2    1    1    2    0  501 -0.17565415502E+03 -0.14870408311E+03 -0.55017486612E+03  0.59637209008E+03  0.00000000000E+00 0.  1.
<mgrwt>
<rscale>  4 0.64647020E+03</rscale>
<asrwt>0</asrwt>
<pdfrwt beam="1">  1        1 0.34137260E+00 0.64647020E+03</pdfrwt>
<pdfrwt beam="2">  1       -1 0.72440536E-02 0.64647020E+03</pdfrwt>
<totfact> 0.23128292E+02</totfact>
</mgrwt>
</event>
<event>
 5    0  0.5719562E-003  0.5541780E+03  0.7546771E-02  0.1000531E+00
          1   -1    0    0  502    0  0.00000000000E+00  0.00000000000E+00  0.17493572026E+04  0.17493572026E+04  0.00000000000E+00 0. -1.
         -1   -1    0    0    0  501 -0.00000000000E+00 -0.00000000000E+00 -0.43889444905E+02  0.43889444905E+02  0.00000000000E+00 0.  1.
         25    1    1    2    0    0 -0.17239266303E+03  0.12900546885E+03  0.41435186765E+03  0.48339850175E+03  0.12500000000E+03 0.  0.
          2    1    1    2  502    0  0.53241207651E+02 -0.65168910502E+02  0.56902542729E+03  0.57521435135E+03  0.00000000000E+00 0. -1.
         -2    1    1    2    0  501  0.11915145538E+03 -0.63836558352E+02  0.72209046279E+03  0.73463379445E+03  0.00000000000E+00 0.  1.
<mgrwt>
<rscale>  4 0.55417801E+03</rscale>
<asrwt>0</asrwt>
<pdfrwt beam="1">  1        1 0.26913182E+00 0.55417801E+03</pdfrwt>
<pdfrwt beam="2">  1       -1 0.67522236E-02 0.55417801E+03</pdfrwt>
<totfact> 0.53375220E+02</totfact>
</mgrwt>
</event>
<event>
 5    0  0.5719562E-003  0.5843802E+03  0.7546771E-02  0.9938353E-01
         -1   -1    0    0    0  501 -0.00000000000E+00  0.00000000000E+00  0.43382689787E+03  0.43382689787E+03  0.00000000000E+00 0. -1.
          1   -1    0    0  502    0  0.00000000000E+00 -0.00000000000E+00 -0.19679520709E+03  0.19679520709E+03  0.00000000000E+00 0.  1.
         25    1    1    2    0    0 -0.15683097210E+03 -0.13750471417E+03  0.18795135448E+03  0.30733403957E+03  0.12500000000E+03 0.  0.
          4    1    1    2  502    0  0.11745909950E+03  0.72553737915E+02  0.14548005017E+03  0.20056203513E+03  0.00000000000E+00 0. -1.
         -4    1    1    2    0  501  0.39371872601E+02  0.64950976253E+02 -0.96399713867E+02  0.12272603025E+03  0.00000000000E+00 0.  1.
<mgrwt>
<rscale>  4 0.58438020E+03</rscale>
<asrwt>0</asrwt>
<pdfrwt beam="1">  1        1 0.30276186E-01 0.58438020E+03</pdfrwt>
<pdfrwt beam="2">  1       -1 0.66742599E-01 0.58438020E+03</pdfrwt>
<totfact> 0.35047824E+02</totfact>
</mgrwt>
</event>
<event>
 5    0  0.5719562E-003  0.7270092E+03  0.7546771E-02  0.9672126E-01
          1   -1    0    0  502    0  0.00000000000E+00  0.00000000000E+00  0.16354322770E+04  0.16354322770E+04  0.00000000000E+00 0. -1.
         -1   -1    0    0    0  501 -0.00000000000E+00 -0.00000000000E+00 -0.80795510695E+02  0.80795510695E+02  0.00000000000E+00 0.  1.
         25    1    1    2    0    0  0.10790402395E+03 -0.28016128026E+03  0.37848523559E+03  0.49900871225E+03  0.12500000000E+03 0.  0.
          2    1    1    2  502    0 -0.37803756256E+02  0.12145102400E+03  0.33445509482E+03  0.35782633451E+03  0.00000000000E+00 0.  1.
         -2    1    1    2    0  501 -0.70100267698E+02  0.15871025626E+03  0.84169643590E+03  0.85939274094E+03  0.00000000000E+00 0. -1.
<mgrwt>
<rscale>  4 0.72700918E+03</rscale>
<asrwt>0</asrwt>
<pdfrwt beam="1">  1        1 0.25160494E+00 0.72700918E+03</pdfrwt>
<pdfrwt beam="2">  1       -1 0.12430080E-01 0.72700918E+03</pdfrwt>
<totfact> 0.24061169E+02</totfact>
</mgrwt>
</event>
<event>
 5    0  0.5719562E-003  0.5296023E+03  0.7546771E-02  0.1006329E+00
          2   -1    0    0  502    0  0.00000000000E+00  0.00000000000E+00  0.16964038102E+04  0.16964038102E+04  0.00000000000E+00 0. -1.
         -2   -1    0    0    0  501 -0.00000000000E+00 -0.00000000000E+00 -0.41334293725E+02  0.41334293725E+02  0.00000000000E+00 0.  1.
         25    1    1    2    0    0 -0.18654183497E+03  0.75331106807E+02  0.10746439569E+04  0.11004350348E+04  0.12500000000E+03 0.  0.
          2    1    1    2  502    0 -0.13593120387E+02 -0.46358505831E+02  0.20779922311E+03  0.21334104412E+03  0.00000000000E+00 0. -1.
         -2    1    1    2    0  501  0.20013495536E+03 -0.28972600976E+02  0.37262633652E+03  0.42396202499E+03  0.00000000000E+00 0.  1.
<mgrwt>
<rscale>  4 0.52960232E+03</rscale>
<asrwt>0</asrwt>
<pdfrwt beam="1">  1        2 0.26098515E+00 0.52960232E+03</pdfrwt>
<pdfrwt beam="2">  1       -2 0.63591234E-02 0.52960232E+03</pdfrwt>
<totfact> 0.14317297E+03</totfact>
</mgrwt>
</event>
<event>
 5    0  0.5719562E-003  0.9368257E+03  0.7546771E-02  0.9380683E-01
          2   -1    0    0  502    0  0.00000000000E+00  0.00000000000E+00  0.14230036276E+04  0.14230036276E+04  0.00000000000E+00 0. -1.
         -2   -1    0    0    0  501 -0.00000000000E+00 -0.00000000000E+00 -0.15418836881E+03  0.15418836881E+03  0.00000000000E+00 0.  1.
         25    1    1    2    0    0  0.31645659483E+02 -0.20042904676E+03  0.51265980632E+03  0.56534797034E+03  0.12500000000E+03 0.  0.
          1    1    1    2  502    0 -0.41642322829E+02  0.22770016358E+03 -0.22572440250E+02  0.23257463878E+03  0.00000000000E+00 0.  1.
         -1    1    1    2    0  501  0.99966633465E+01 -0.27271116820E+02  0.77872789274E+03  0.77926938732E+03  0.00000000000E+00 0. -1.
<mgrwt>
<rscale>  4 0.93682572E+03</rscale>
<asrwt>0</asrwt>
<pdfrwt beam="1">  1        2 0.21892363E+00 0.93682572E+03</pdfrwt>
<pdfrwt beam="2">  1       -2 0.23721288E-01 0.93682572E+03</pdfrwt>
<totfact> 0.22153591E+02</totfact>
</mgrwt>
</event>
<event>
 5    0  0.5719562E-003  0.6323833E+03  0.7546771E-02  0.9840409E-01
         -2   -1    0    0    0  501 -0.00000000000E+00  0.00000000000E+00  0.12413421465E+03  0.12413421465E+03  0.00000000000E+00 0.  1.
          2   -1    0    0  502    0  0.00000000000E+00 -0.00000000000E+00 -0.80539562877E+03  0.80539562877E+03  0.00000000000E+00 0. -1.
         25    1    1    2    0    0 -0.19049785192E+03  0.65035734295E+02 -0.49191244801E+02  0.24199970431E+03  0.12500000000E+03 0.  0.
          2    1    1    2  502    0  0.11898196488E+03 -0.97029807869E+02 -0.56141656267E+03  0.58203096861E+03  0.00000000000E+00 0. -1.
         -2    1    1    2    0  501  0.71515887044E+02  0.31994073574E+02 -0.70653606647E+02  0.10549917050E+03  0.00000000000E+00 0.  1.
<mgrwt>
<rscale>  4 0.63238328E+03</rscale>
<asrwt>0</asrwt>
<pdfrwt beam="1">  1        2 0.12390702E+00 0.63238328E+03</pdfrwt>
<pdfrwt beam="2">  1       -2 0.19097571E-01 0.63238328E+03</pdfrwt>
<totfact> 0.79443533E+02</totfact>
</mgrwt>
</event>
<event>
 5    0  0.5719562E-003  0.4733452E+03  0.7546771E-02  0.1020980E+00
          2   -1    0    0  502    0  0.00000000000E+00  0.00000000000E+00  0.13257779582E+04  0.13257779582E+04  0.00000000000E+00 0. -1.
         -2   -1    0    0    0  501 -0.00000000000E+00 -0.00000000000E+00 -0.42249843138E+02  0.42249843138E+02  0.00000000000E+00 0.  1.
         25    1    1    2    0    0  0.20893541217E+03  0.25164392726E+01  0.68461682538E+03  0.72662613256E+03  0.12500000000E+03 0.  0.
          3    1    1    2  502    0 -0.18171155527E+03  0.14728335276E+02  0.39602887836E+03  0.43597578565E+03  0.00000000000E+00 0.  1.
         -3    1    1    2    0  501 -0.27223856905E+02 -0.17244774548E+02  0.20288241130E+03  0.20542588310E+03  0.00000000000E+00 0. -1.
<mgrwt>
<rscale>  4 0.47334516E+03</rscale>
<asrwt>0</asrwt>
<pdfrwt beam="1">  1        2 0.20396581E+00 0.47334516E+03</pdfrwt>
<pdfrwt beam="2">  1       -2 0.64999769E-02 0.47334516E+03</pdfrwt>
<totfact> 0.22153032E+03</totfact>
</mgrwt>
</event>
<event>
 5    0  0.5719562E-003  0.4866911E+03  0.7546771E-02  0.1017312E+00
          1   -1    0    0  502    0  0.00000000000E+00  0.00000000000E+00  0.17861200640E+04  0.17861200640E+04  0.00000000000E+00 0.  1.
         -1   -1    0    0    0  501 -0.00000000000E+00 -0.00000000000E+00 -0.33154011862E+02  0.33154011862E+02  0.00000000000E+00 0. -1.
         25    1    1    2    0    0  0.12249746407E+03 -0.17004969783E+03  0.12306720915E+04  0.12546319481E+04  0.12500000000E+03 0.  0.
          2    1    1    2  502    0 -0.54354955708E+02  0.94040270496E+02  0.32214019217E+03  0.33995931683E+03  0.00000000000E+00 0. -1.
         -2    1    1    2    0  501 -0.68142508364E+02  0.76009427333E+02  0.20015376844E+03  0.22468281089E+03  0.00000000000E+00 0.  1.
<mgrwt>
<rscale>  4 0.48669106E+03</rscale>
<asrwt>0</asrwt>
<pdfrwt beam="1">  1        1 0.27478763E+00 0.48669106E+03</pdfrwt>
<pdfrwt beam="2">  1       -1 0.51006186E-02 0.48669106E+03</pdfrwt>
<totfact> 0.77958337E+02</totfact>
</mgrwt>
</event>
<event>
 5    0  0.5719562E-003  0.1072168E+04  0.7546771E-02  0.9232751E-01
          2   -1    0    0  502    0  0.00000000000E+00  0.00000000000E+00  0.75978028076E+03  0.75978028076E+03  0.00000000000E+00 0.  1.
         -2   -1    0    0    0  501 -0.00000000000E+00 -0.00000000000E+00 -0.37824899420E+03  0.37824899420E+03  0.00000000000E+00 0. -1.
         25    1    1    2    0    0 -0.36387255875E+03 -0.30690946934E+02 -0.20814023083E+03  0.43851172040E+03  0.12500000000E+03 0.  0.
          4    1    1    2  502    0  0.16635971960E+03  0.19249623003E+00  0.18912644566E+03  0.25188172980E+03  0.00000000000E+00 0. -1.
         -4    1    1    2    0  501  0.19751283915E+03  0.30498450704E+02  0.40054507173E+03  0.44763582476E+03  0.00000000000E+00 0.  1.
<mgrwt>
<rscale>  4 0.10721681E+04</rscale>
<asrwt>0</asrwt>
<pdfrwt beam="1">  1        2 0.11688927E+00 0.10721681E+04</pdfrwt>
<pdfrwt beam="2">  1       -2 0.58192153E-01 0.10721681E+04</pdfrwt>
<totfact> 0.10133974E+02</totfact>
</mgrwt>
</event>
<event>
 5    0  0.5719562E-003  0.8927015E+03  0.7546771E-02  0.9434751E-01
         -1   -1    0    0    0  501 -0.00000000000E+00  0.00000000000E+00  0.72421355609E+03  0.72421355609E+03  0.00000000000E+00 0.  1.
          1   -1    0    0  502    0  0.00000000000E+00 -0.00000000000E+00 -0.27509703489E+03  0.27509703489E+03  0.00000000000E+00 0. -1.
         25    1    1    2    0    0  0.27857870308E+03  0.22714686560E+03  0.45516860942E+03  0.59330030790E+03  0.12500000000E+03 0.  0.
          4    1    1    2  502    0 -0.12612367647E+03 -0.11970992324E+03  0.90458739239E+02  0.19601130323E+03  0.00000000000E+00 0.  1.
         -4    1    1    2    0  501 -0.15245502660E+03 -0.10743694236E+03 -0.96510827451E+02  0.20999897984E+03  0.00000000000E+00 0. -1.
<mgrwt>
<rscale>  4 0.89270152E+03</rscale>
<asrwt>0</asrwt>
<pdfrwt beam="1">  1        1 0.42322621E-01 0.89270152E+03</pdfrwt>
<pdfrwt beam="2">  1       -1 0.11141747E+00 0.89270152E+03</pdfrwt>
<totfact> 0.73323277E+01</totfact>
</mgrwt>
</event>
<event>
 5    0  0.5719562E-003  0.5425854E+03  0.7546771E-02  0.1003225E+00
         -2   -1    0    0    0  501 -0.00000000000E+00  0.00000000000E+00  0.21256945970E+03  0.21256945970E+03  0.00000000000E+00 0.  1.
          2   -1    0    0  502    0  0.00000000000E+00 -0.00000000000E+00 -0.34623849433E+03  0.34623849433E+03  0.00000000000E+00 0. -1.
         25    1    1    2    0    0 -0.22978421990E+03  0.82809260700E+02 -0.62104398625E+02  0.28131853423E+03  0.12500000000E+03 0.  0.
          2    1    1    2  502    0  0.19749297354E+03 -0.51116459145E+02 -0.96668923341E+02  0.22574598055E+03  0.00000000000E+00 0.  1.
         -2    1    1    2    0  501  0.32291246360E+02 -0.31692801554E+02  0.25104287342E+02  0.51743439244E+02  0.00000000000E+00 0. -1.
<mgrwt>
<rscale>  4 0.54258540E+03</rscale>
<asrwt>0</asrwt>
<pdfrwt beam="1">  1        2 0.53267461E-01 0.54258540E+03</pdfrwt>
<pdfrwt beam="2">  1       -2 0.32702994E-01 0.54258540E+03</pdfrwt>
<totfact> 0.81876854E+02</totfact>
</mgrwt>
</event>
<event>
 5    0  0.5719562E-003  0.5042456E+03  0.7546771E-02  0.1012677E+00
         -2   -1    0    0    0  501 -0.00000000000E+00  0.00000000000E+00  0.34384821208E+02  0.34384821208E+02  0.00000000000E+00 0.  1.
          2   -1    0    0  502    0  0.00000000000E+00 -0.00000000000E+00 -0.18486618533E+04  0.18486618533E+04  0.00000000000E+00 0. -1.
         25    1    1    2    0    0  0.18716516688E+03 -0.94309849380E+02 -0.13255423065E+04  0.13478177005E+04  0.12500000000E+03 0.  0.
          3    1    1    2  502    0 -0.78005926200E+02  0.50871113910E+02 -0.28752890403E+03  0.30223445436E+03  0.00000000000E+00 0. -1.
         -3    1    1    2    0  501 -0.10915924068E+03  0.43438735470E+02 -0.20120582156E+03  0.23299451966E+03  0.00000000000E+00 0.  1.
<mgrwt>
<rscale>  4 0.50424560E+03</rscale>
<asrwt>0</asrwt>
<pdfrwt beam="1">  1        2 0.28440953E+00 0.50424560E+03</pdfrwt>
<pdfrwt beam="2">  1       -2 0.52899723E-02 0.50424560E+03</pdfrwt>
<totfact> 0.15809877E+03</totfact>
</mgrwt>
</event>
<event>
 5    0  0.5719562E-003  0.5841299E+03  0.7546771E-02  0.9938890E-01
          2   -1    0    0  502    0  0.00000000000E+00  0.00000000000E+00  0.45304520554E+03  0.45304520554E+03  0.00000000000E+00 0.  1.
         -2   -1    0    0    0  501 -0.00000000000E+00 -0.00000000000E+00 -0.18828571331E+03  0.18828571331E+03  0.00000000000E+00 0. -1.
         25    1    1    2    0    0 -0.12106867846E+03  0.16179002593E+03  0.12530054847E+03  0.26862402134E+03  0.12500000000E+03 0.  0.
          3    1    1    2  502    0  0.19510175580E+03 -0.18401666828E+03  0.10375959301E+03  0.28756370157E+03  0.00000000000E+00 0. -1.
         -3    1    1    2    0  501 -0.74033077343E+02  0.22226642349E+02  0.35699350762E+02  0.85143195945E+02  0.00000000000E+00 0.  1.
<mgrwt>
<rscale>  4 0.58412992E+03</rscale>
<asrwt>0</asrwt>
<pdfrwt beam="1">  1        2 0.69699262E-01 0.58412992E+03</pdfrwt>
<pdfrwt beam="2">  1       -2 0.28967033E-01 0.58412992E+03</pdfrwt>
<totfact> 0.75890923E+02</totfact>
</mgrwt>
</event>
<event>
 5    0  0.5719562E-003  0.6538924E+03  0.7546771E-02  0.9799503E-01
         -1   -1    0    0    0  501 -0.00000000000E+00  0.00000000000E+00  0.32649880343E+03  0.32649880343E+03  0.00000000000E+00 0.  1.
          1   -1    0    0  502    0  0.00000000000E+00 -0.00000000000E+00 -0.32739419187E+03  0.32739419187E+03  0.00000000000E+00 0. -1.
         25    1    1    2    0    0 -0.20901028226E+03  0.71460514752E+02 -0.36792652002E+02  0.25645779867E+03  0.12500000000E+03 0.  0.
          1    1    1    2  502    0 -0.39524843743E+02  0.79212646033E+02 -0.39856015875E+02  0.97084285885E+02  0.00000000000E+00 0. -1.
         -1    1    1    2    0  501  0.24853512600E+03 -0.15067316079E+03  0.75753279438E+02  0.30035091074E+03  0.00000000000E+00 0.  1.
<mgrwt>
<rscale>  4 0.65389238E+03</rscale>
<asrwt>0</asrwt>
<pdfrwt beam="1">  1        1 0.50368337E-01 0.65389238E+03</pdfrwt>
<pdfrwt beam="2">  1       -1 0.50230585E-01 0.65389238E+03</pdfrwt>
<totfact> 0.31540470E+02</totfact>
</mgrwt>
</event>
<event>
 5    0  0.5719562E-003  0.6261794E+03  0.7546771E-02  0.9852533E-01
         -1   -1    0    0    0  501 -0.00000000000E+00  0.00000000000E+00  0.68277361489E+02  0.68277361489E+02  0.00000000000E+00 0.  1.
          1   -1    0    0  502    0  0.00000000000E+00 -0.00000000000E+00 -0.14356906792E+04  0.14356906792E+04  0.00000000000E+00 0. -1.
         25    1    1    2    0    0 -0.18983165415E+03  0.87580768080E+02 -0.56947538320E+03  0.61938167548E+03  0.12500000000E+03 0.  0.
          2    1    1    2  502    0  0.14515907481E+03 -0.15095421134E+03 -0.77635088193E+03  0.80410137594E+03  0.00000000000E+00 0. -1.
         -2    1    1    2    0  501  0.44672579334E+02  0.63373443261E+02 -0.21587052564E+02  0.80484989243E+02  0.00000000000E+00 0.  1.
<mgrwt>
<rscale>  4 0.62617944E+03</rscale>
<asrwt>0</asrwt>
<pdfrwt beam="1">  1        1 0.22087550E+00 0.62617944E+03</pdfrwt>
<pdfrwt beam="2">  1       -1 0.10504209E-01 0.62617944E+03</pdfrwt>
<totfact> 0.43330127E+02</totfact>
</mgrwt>
</event>
<event>
 5    0  0.5719562E-003  0.4951484E+03  0.7546771E-02  0.1015053E+00
          1   -1    0    0  502    0  0.00000000000E+00  0.00000000000E+00  0.61251950987E+03  0.61251950987E+03  0.00000000000E+00 0.  1.
         -1   -1    0    0    0  501 -0.00000000000E+00 -0.00000000000E+00 -0.10006700201E+03  0.10006700201E+03  0.00000000000E+00 0. -1.
         25    1    1    2    0    0 -0.31097104812E+02 -0.20749333213E+03  0.38016647906E+03  0.45185403020E+03  0.12500000000E+03 0.  0.
          3    1    1    2  502    0 -0.20298427960E+02  0.45234134011E+02  0.54245575644E+02  0.73489696790E+02  0.00000000000E+00 0.  1.
         -3    1    1    2    0  501  0.51395532772E+02  0.16225919812E+03  0.78040453163E+02  0.18724278489E+03  0.00000000000E+00 0. -1.
<mgrwt>
<rscale>  4 0.49514843E+03</rscale>
<asrwt>0</asrwt>
<pdfrwt beam="1">  1        1 0.94233768E-01 0.49514843E+03</pdfrwt>
<pdfrwt beam="2">  1       -1 0.15394924E-01 0.49514843E+03</pdfrwt>
<totfact> 0.10533678E+03</totfact>
</mgrwt>
</event>
<event>
 5    0  0.5719562E-003  0.1256452E+04  0.7546771E-02  0.9064831E-01
         -2   -1    0    0    0  501 -0.00000000000E+00  0.00000000000E+00  0.43016841792E+03  0.43016841792E+03  0.00000000000E+00 0.  1.
          2   -1    0    0  502    0  0.00000000000E+00 -0.00000000000E+00 -0.91747258554E+03  0.91747258554E+03  0.00000000000E+00 0. -1.
         25    1    1    2    0    0 -0.26061342502E+02 -0.42238496790E+03 -0.73362949885E+03  0.85611067991E+03  0.12500000000E+03 0.  0.
          4    1    1    2  502    0 -0.69991225031E+01  0.27452778849E+02  0.96737884841E+01  0.29937016652E+02  0.00000000000E+00 0. -1.
         -4    1    1    2    0  501  0.33060465005E+02  0.39493218905E+03  0.23665154275E+03  0.46159330690E+03  0.00000000000E+00 0.  1.
<mgrwt>
<rscale>  4 0.12564517E+04</rscale>
<asrwt>0</asrwt>
<pdfrwt beam="1">  1        2 0.14114963E+00 0.12564517E+04</pdfrwt>
<pdfrwt beam="2">  1       -2 0.66179757E-01 0.12564517E+04</pdfrwt>
<totfact> 0.58932258E+01</totfact>
</mgrwt>
</event>
<event>
 5    0  0.5719562E-003  0.5377314E+03  0.7546771E-02  0.1004374E+00
          2   -1    0    0  502    0  0.00000000000E+00  0.00000000000E+00  0.63146256266E+03  0.63146256266E+03  0.00000000000E+00 0.  1.
         -2   -1    0    0    0  501 -0.00000000000E+00 -0.00000000000E+00 -0.11447829714E+03  0.11447829714E+03  0.00000000000E+00 0. -1.
         25    1    1    2    0    0 -0.26521294706E+02 -0.24122134269E+03  0.32810227472E+03  0.42681051758E+03  0.12500000000E+03 0.  0.
          2    1    1    2  502    0  0.51544835915E+02  0.19184265812E+03  0.12546430161E+03  0.23495056195E+03  0.00000000000E+00 0. -1.
         -2    1    1    2    0  501 -0.25023541210E+02  0.49378684572E+02  0.63417689190E+02  0.84179780273E+02  0.00000000000E+00 0.  1.
<mgrwt>
<rscale>  4 0.53773138E+03</rscale>
<asrwt>0</asrwt>
<pdfrwt beam="1">  1        2 0.97148084E-01 0.53773138E+03</pdfrwt>
<pdfrwt beam="2">  1       -2 0.17612046E-01 0.53773138E+03</pdfrwt>
<totfact> 0.12434791E+03</totfact>
</mgrwt>
</event>
<event>
 5    0  0.5719562E-003  0.5955346E+03  0.7546771E-02  0.9914714E-01
          2   -1    0    0  502    0  0.00000000000E+00  0.00000000000E+00  0.28731321352E+03  0.28731321352E+03  0.00000000000E+00 0. -1.
         -2   -1    0    0    0  501 -0.00000000000E+00 -0.00000000000E+00 -0.30860174297E+03  0.30860174297E+03  0.00000000000E+00 0.  1.
         25    1    1    2    0    0  0.66592363004E+02 -0.23865398134E+03 -0.14071674074E+03  0.31115344566E+03  0.12500000000E+03 0.  0.
          1    1    1    2  502    0 -0.70441829014E+02  0.11751981098E+03  0.56547632672E+02  0.14822480227E+03  0.00000000000E+00 0. -1.
         -1    1    1    2    0  501  0.38494660106E+01  0.12113417035E+03  0.62880578619E+02  0.13653670856E+03  0.00000000000E+00 0.  1.
<mgrwt>
<rscale>  4 0.59553458E+03</rscale>
<asrwt>0</asrwt>
<pdfrwt beam="1">  1        2 0.44202033E-01 0.59553458E+03</pdfrwt>
<pdfrwt beam="2">  1       -2 0.47477191E-01 0.59553458E+03</pdfrwt>
<totfact> 0.48851612E+02</totfact>
</mgrwt>
</event>
<event>
 5    0  0.5719562E-003  0.7984086E+03  0.7546771E-02  0.9562323E-01
          2   -1    0    0  502    0  0.00000000000E+00  0.00000000000E+00  0.15940700839E+04  0.15940700839E+04  0.00000000000E+00 0. -1.
         -2   -1    0    0    0  501 -0.00000000000E+00 -0.00000000000E+00 -0.99973066156E+02  0.99973066156E+02  0.00000000000E+00 0.  1.
         25    1    1    2    0    0 -0.29200421818E+03  0.23983193347E+03  0.68742395719E+03  0.79433149042E+03  0.12500000000E+03 0.  0.
          2    1    1    2  502    0  0.25117731986E+03 -0.25148990039E+03  0.73432292680E+03  0.81582312840E+03  0.00000000000E+00 0.  1.
         -2    1    1    2    0  501  0.40826898324E+02  0.11657966926E+02  0.72350133777E+02  0.83888531261E+02  0.00000000000E+00 0. -1.
<mgrwt>
<rscale>  4 0.79840860E+03</rscale>
<asrwt>0</asrwt>
<pdfrwt beam="1">  1        2 0.24524153E+00 0.79840860E+03</pdfrwt>
<pdfrwt beam="2">  1       -2 0.15380473E-01 0.79840860E+03</pdfrwt>
<totfact> 0.38164091E+02</totfact>
</mgrwt>
</event>
<event>
 5    0  0.5719562E-003  0.7000861E+03  0.7546771E-02  0.9717085E-01
          1   -1    0    0  502    0  0.00000000000E+00  0.00000000000E+00  0.32078557007E+03  0.32078557007E+03  0.00000000000E+00 0. -1.
         -1   -1    0    0    0  501 -0.00000000000E+00 -0.00000000000E+00 -0.38196900066E+03  0.38196900066E+03  0.00000000000E+00 0.  1.
         25    1    1    2    0    0 -0.24482103631E+03 -0.17900754704E+03  0.63278988126E+02  0.33408123571E+03  0.12500000000E+03 0.  0.
          3    1    1    2  502    0  0.62216202110E+02  0.17453612642E+02 -0.10602633360E+03  0.12416548561E+03  0.00000000000E+00 0.  1.
         -3    1    1    2    0  501  0.18260483420E+03  0.16155393439E+03 -0.18436085114E+02  0.24450784942E+03  0.00000000000E+00 0. -1.
<mgrwt>
<rscale>  4 0.70008612E+03</rscale>
<asrwt>0</asrwt>
<pdfrwt beam="1">  1        1 0.49351626E-01 0.70008612E+03</pdfrwt>
<pdfrwt beam="2">  1       -1 0.58764462E-01 0.70008612E+03</pdfrwt>
<totfact> 0.23905701E+02</totfact>
</mgrwt>
</event>
<event>
 5    0  0.5719562E-003  0.6799396E+03  0.7546771E-02  0.9752167E-01
         -2   -1    0    0    0  501 -0.00000000000E+00  0.00000000000E+00  0.89482641827E+02  0.89482641827E+02  0.00000000000E+00 0.  1.
          2   -1    0    0  502    0  0.00000000000E+00 -0.00000000000E+00 -0.12916412313E+04  0.12916412313E+04  0.00000000000E+00 0. -1.
         25    1    1    2    0    0 -0.13388999416E+03 -0.28825598182E+03 -0.49918945526E+03  0.60484142867E+03  0.12500000000E+03 0.  0.
          2    1    1    2  502    0  0.10739547494E+03  0.28141199347E+03 -0.62862898450E+03  0.69706592103E+03  0.00000000000E+00 0. -1.
         -2    1    1    2    0  501  0.26494519220E+02  0.68439883508E+01 -0.74340149733E+02  0.79216523450E+02  0.00000000000E+00 0.  1.
<mgrwt>
<rscale>  4 0.67993961E+03</rscale>
<asrwt>0</asrwt>
<pdfrwt beam="1">  1        2 0.19871402E+00 0.67993961E+03</pdfrwt>
<pdfrwt beam="2">  1       -2 0.13766561E-01 0.67993961E+03</pdfrwt>
<totfact> 0.68475839E+02</totfact>
</mgrwt>
</event>
<event>
 5    0  0.5719562E-003  0.5009229E+03  0.7546771E-02  0.1013538E+00
         -2   -1    0    0    0  501 -0.00000000000E+00  0.00000000000E+00  0.45528947405E+02  0.45528947405E+02  0.00000000000E+00 0.  1.
          2   -1    0    0  502    0  0.00000000000E+00 -0.00000000000E+00 -0.13778250839E+04  0.13778250839E+04  0.00000000000E+00 0. -1.
         25    1    1    2    0    0  0.82048971104E+02 -0.19764214440E+03 -0.72814742921E+03  0.76916716621E+03  0.12500000000E+03 0.  0.
          2    1    1    2  502    0  0.25563405514E+02  0.43904401873E+02 -0.23084572517E+03  0.23637011874E+03  0.00000000000E+00 0. -1.
         -2    1    1    2    0  501 -0.10761237662E+03  0.15373774253E+03 -0.37330298209E+03  0.41781674633E+03  0.00000000000E+00 0.  1.
<mgrwt>
<rscale>  4 0.50092285E+03</rscale>
<asrwt>0</asrwt>
<pdfrwt beam="1">  1        2 0.21197311E+00 0.50092285E+03</pdfrwt>
<pdfrwt beam="2">  1       -2 0.70044527E-02 0.50092285E+03</pdfrwt>
<totfact> 0.18406724E+03</totfact>
</mgrwt>
</event>
<event>
 5    0  0.5719562E-003  0.5298943E+03  0.7546771E-02  0.1006258E+00
          2   -1    0    0  502    0  0.00000000000E+00  0.00000000000E+00  0.25228115784E+04  0.25228115784E+04  0.00000000000E+00 0. -1.
         -2   -1    0    0    0  501 -0.00000000000E+00 -0.00000000000E+00 -0.27824909001E+02  0.27824909001E+02  0.00000000000E+00 0.  1.
         25    1    1    2    0    0 -0.12397763660E+03 -0.17529706261E+03  0.15364171531E+04  0.15563746923E+04  0.12500000000E+03 0.  0.
          4    1    1    2  502    0  0.66653989206E+02  0.25343592377E+02  0.11322948528E+03  0.13381318428E+03  0.00000000000E+00 0.  1.
         -4    1    1    2    0  501  0.57323647396E+02  0.14995347024E+03  0.84534003110E+03  0.86044861088E+03  0.00000000000E+00 0. -1.
<mgrwt>
<rscale>  4 0.52989434E+03</rscale>
<asrwt>0</asrwt>
<pdfrwt beam="1">  1        2 0.38812468E+00 0.52989434E+03</pdfrwt>
<pdfrwt beam="2">  1       -2 0.42807572E-02 0.52989434E+03</pdfrwt>
<totfact> 0.93750523E+02</totfact>
</mgrwt>
</event>
<event>
 5    0  0.5719562E-003  0.6610522E+03  0.7546771E-02  0.9786259E-01
          2   -1    0    0  502    0  0.00000000000E+00  0.00000000000E+00  0.11528075798E+04  0.11528075798E+04  0.00000000000E+00 0.  1.
         -2   -1    0    0    0  501 -0.00000000000E+00 -0.00000000000E+00 -0.94766474527E+02  0.94766474527E+02  0.00000000000E+00 0. -1.
         25    1    1    2    0    0  0.47757004164E+02  0.23250837824E+03  0.42064099690E+03  0.49890352341E+03  0.12500000000E+03 0.  0.
          2    1    1    2  502    0  0.22743407019E+02 -0.74636324558E+02  0.54893841360E+03  0.55445579214E+03  0.00000000000E+00 0.  1.
         -2    1    1    2    0  501 -0.70500411183E+02 -0.15787205369E+03  0.88461694749E+02  0.19421473876E+03  0.00000000000E+00 0. -1.
<mgrwt>
<rscale>  4 0.66105222E+03</rscale>
<asrwt>0</asrwt>
<pdfrwt beam="1">  1        2 0.17735500E+00 0.66105222E+03</pdfrwt>
<pdfrwt beam="2">  1       -2 0.14579458E-01 0.66105222E+03</pdfrwt>
<totfact> 0.75066554E+02</totfact>
</mgrwt>
</event>
<event>
 5    0  0.5719562E-003  0.4755212E+03  0.7546771E-02  0.1020373E+00
         -1   -1    0    0    0  501 -0.00000000000E+00  0.00000000000E+00  0.55322747596E+02  0.55322747596E+02  0.00000000000E+00 0. -1.
          1   -1    0    0  502    0  0.00000000000E+00 -0.00000000000E+00 -0.10218238187E+04  0.10218238187E+04  0.00000000000E+00 0.  1.
         25    1    1    2    0    0 -0.20826381211E+03  0.14887758581E+02 -0.39744964477E+03  0.46603291828E+03  0.12500000000E+03 0.  0.
          4    1    1    2  502    0  0.73504276527E+02 -0.42119996789E+02 -0.19553949883E+03  0.21310248333E+03  0.00000000000E+00 0. -1.
         -4    1    1    2    0  501  0.13475953559E+03  0.27232238209E+02 -0.37351192746E+03  0.39801116465E+03  0.00000000000E+00 0.  1.
<mgrwt>
<rscale>  4 0.47552119E+03</rscale>
<asrwt>0</asrwt>
<pdfrwt beam="1">  1        1 0.15720367E+00 0.47552119E+03</pdfrwt>
<pdfrwt beam="2">  1       -1 0.85111918E-02 0.47552119E+03</pdfrwt>
<totfact> 0.12006250E+03</totfact>
</mgrwt>
</event>
<event>
 5    0  0.5719562E-003  0.6884223E+03  0.7546771E-02  0.9737239E-01
         -2   -1    0    0    0  501 -0.00000000000E+00  0.00000000000E+00  0.10014676621E+03  0.10014676621E+03  0.00000000000E+00 0.  1.
          2   -1    0    0  502    0  0.00000000000E+00 -0.00000000000E+00 -0.11830767412E+04  0.11830767412E+04  0.00000000000E+00 0. -1.
         25    1    1    2    0    0 -0.16714676538E+03 -0.23700537334E+03 -0.75442791737E+03  0.81786066703E+03  0.12500000000E+03 0.  0.
          2    1    1    2  502    0  0.19302183578E+03  0.16806827391E+03 -0.25177153597E+03  0.35901710281E+03  0.00000000000E+00 0. -1.
         -2    1    1    2    0  501 -0.25875070404E+02  0.68937099430E+02 -0.76730521633E+02  0.10634573756E+03  0.00000000000E+00 0.  1.
<mgrwt>
<rscale>  4 0.68842228E+03</rscale>
<asrwt>0</asrwt>
<pdfrwt beam="1">  1        2 0.18201181E+00 0.68842228E+03</pdfrwt>
<pdfrwt beam="2">  1       -2 0.15407195E-01 0.68842228E+03</pdfrwt>
<totfact> 0.65532060E+02</totfact>
</mgrwt>
</event>
<event>
 5    0  0.5719562E-003  0.5359353E+03  0.7546771E-02  0.1004803E+00
         -2   -1    0    0    0  501 -0.00000000000E+00  0.00000000000E+00  0.30700799790E+02  0.30700799790E+02  0.00000000000E+00 0. -1.
          2   -1    0    0  502    0  0.00000000000E+00 -0.00000000000E+00 -0.23389183481E+04  0.23389183481E+04  0.00000000000E+00 0.  1.
         25    1    1    2    0    0  0.17455257481E+03 -0.14963813377E+03 -0.15471074863E+04  0.15690846843E+04  0.12500000000E+03 0.  0.
          2    1    1    2  502    0 -0.11426426943E+03  0.51434707187E+02 -0.29739071517E+03  0.32271208505E+03  0.00000000000E+00 0. -1.
         -2    1    1    2    0  501 -0.60288305383E+02  0.98203426587E+02 -0.46371934683E+03  0.47782237849E+03  0.00000000000E+00 0.  1.
<mgrwt>
<rscale>  4 0.53593531E+03</rscale>
<asrwt>0</asrwt>
<pdfrwt beam="1">  1        2 0.35983361E+00 0.53593531E+03</pdfrwt>
<pdfrwt beam="2">  1       -2 0.47231997E-02 0.53593531E+03</pdfrwt>
<totfact> 0.10193680E+03</totfact>
</mgrwt>
</event>
<event>
 5    0  0.5719562E-003  0.6729585E+03  0.7546771E-02  0.9764628E-01
          2   -1    0    0  502    0  0.00000000000E+00  0.00000000000E+00  0.12170341246E+03  0.12170341246E+03  0.00000000000E+00 0.  1.
         -2   -1    0    0    0  501 -0.00000000000E+00 -0.00000000000E+00 -0.93028019097E+03  0.93028019097E+03  0.00000000000E+00 0. -1.
         25    1    1    2    0    0  0.21203063511E+03 -0.11673308376E+03 -0.65186924117E+03  0.70649990138E+03  0.12500000000E+03 0.  0.
          4    1    1    2  502    0  0.29149530605E+02  0.21376813770E+02 -0.57277515566E+02  0.67730178583E+02  0.00000000000E+00 0. -1.
         -4    1    1    2    0  501 -0.24118016572E+03  0.95356269994E+02 -0.99430021774E+02  0.27775352346E+03  0.00000000000E+00 0.  1.
<mgrwt>
<rscale>  4 0.67295846E+03</rscale>
<asrwt>0</asrwt>
<pdfrwt beam="1">  1        2 0.18723602E-01 0.67295846E+03</pdfrwt>
<pdfrwt beam="2">  1       -2 0.14312003E+00 0.67295846E+03</pdfrwt>
<totfact> 0.10557388E+02</totfact>
</mgrwt>
</event>
<event>
 5    0  0.5719562E-003  0.5147373E+03  0.7546771E-02  0.1010002E+00
         -1   -1    0    0    0  501 -0.00000000000E+00  0.00000000000E+00  0.25939273019E+03  0.25939273019E+03  0.00000000000E+00 0. -1.
          1   -1    0    0  502    0  0.00000000000E+00 -0.00000000000E+00 -0.25536033186E+03  0.25536033186E+03  0.00000000000E+00 0.  1.
         25    1    1    2    0    0  0.19097677862E+03 -0.75142693978E+02  0.12204082147E+03  0.26951348118E+03  0.12500000000E+03 0.  0.
          1    1    1    2  502    0 -0.14671968004E+03  0.37930199257E+02 -0.10911038199E+03  0.18673628460E+03  0.00000000000E+00 0.  1.
         -1    1    1    2    0  501 -0.44257098580E+02  0.37212494721E+02 -0.88980411588E+01  0.58503296271E+02  0.00000000000E+00 0. -1.
<mgrwt>
<rscale>  4 0.51473727E+03</rscale>
<asrwt>0</asrwt>
<pdfrwt beam="1">  1        1 0.39286205E-01 0.51473727E+03</pdfrwt>
<pdfrwt beam="2">  1       -1 0.39906574E-01 0.51473727E+03</pdfrwt>
<totfact> 0.66697980E+02</totfact>
</mgrwt>
</event>
<event>
 5    0  0.5719562E-003  0.5536636E+03  0.7546771E-02  0.1000649E+00
         -1   -1    0    0    0  501 -0.00000000000E+00  0.00000000000E+00  0.23582218013E+03  0.23582218013E+03  0.00000000000E+00 0. -1.
          1   -1    0    0  502    0  0.00000000000E+00 -0.00000000000E+00 -0.32497307478E+03  0.32497307478E+03  0.00000000000E+00 0.  1.
         25    1    1    2    0    0 -0.24811031465E+01 -0.20781291018E+03 -0.17309737401E+03  0.29795983353E+03  0.12500000000E+03 0.  0.
          1    1    1    2  502    0 -0.19175666087E+02  0.18120270080E+03  0.11382943798E+02  0.18256970274E+03  0.00000000000E+00 0.  1.
         -1    1    1    2    0  501  0.21656769233E+02  0.26610209374E+02  0.72563535560E+02  0.80265718645E+02  0.00000000000E+00 0. -1.
<mgrwt>
<rscale>  4 0.55366365E+03</rscale>
<asrwt>0</asrwt>
<pdfrwt beam="1">  1        1 0.49995857E-01 0.55366365E+03</pdfrwt>
<pdfrwt beam="2">  1       -1 0.36280336E-01 0.55366365E+03</pdfrwt>
<totfact> 0.57988124E+02</totfact>
</mgrwt>
</event>
<event>
 5    0  0.5719562E-003  0.6908711E+03  0.7546771E-02  0.9732972E-01
          3   -1    0    0  502    0  0.00000000000E+00  0.00000000000E+00  0.12610905904E+03  0.12610905904E+03  0.00000000000E+00 0. -1.
         -3   -1    0    0    0  501 -0.00000000000E+00 -0.00000000000E+00 -0.94621064137E+03  0.94621064137E+03  0.00000000000E+00 0.  1.
         25    1    1    2    0    0 -0.20160763127E+03 -0.24839139755E+02 -0.68328755282E+03  0.72371921329E+03  0.12500000000E+03 0.  0.
          1    1    1    2  502    0  0.14426026832E+03  0.10127367141E+03 -0.17247505196E+03  0.24660702562E+03  0.00000000000E+00 0.  1.
         -1    1    1    2    0  501  0.57347362946E+02 -0.76434531654E+02  0.35661022449E+02  0.10199346150E+03  0.00000000000E+00 0. -1.
<mgrwt>
<rscale>  4 0.69087114E+03</rscale>
<asrwt>0</asrwt>
<pdfrwt beam="1">  1        3 0.19401394E-01 0.69087114E+03</pdfrwt>
<pdfrwt beam="2">  1       -3 0.14557087E+00 0.69087114E+03</pdfrwt>
<totfact> 0.22324116E+01</totfact>
</mgrwt>
</event>
<event>
 5    0  0.5719562E-003  0.5230560E+03  0.7546771E-02  0.1007930E+00
         -2   -1    0    0    0  501 -0.00000000000E+00  0.00000000000E+00  0.13356589686E+03  0.13356589686E+03  0.00000000000E+00 0.  1.
          2   -1    0    0  502    0  0.00000000000E+00 -0.00000000000E+00 -0.51208356366E+03  0.51208356366E+03  0.00000000000E+00 0. -1.
         25    1    1    2    0    0  0.20487979643E+03  0.19111457008E+02 -0.18489474913E+03  0.30356555640E+03  0.12500000000E+03 0.  0.
          3    1    1    2  502    0 -0.14300079946E+03  0.80977132762E+02 -0.11186341455E+03  0.19879624793E+03  0.00000000000E+00 0.  1.
         -3    1    1    2    0  501 -0.61878996973E+02 -0.10008858977E+03 -0.81759503120E+02  0.14328765620E+03  0.00000000000E+00 0. -1.
<mgrwt>
<rscale>  4 0.52305602E+03</rscale>
<asrwt>0</asrwt>
<pdfrwt beam="1">  1        2 0.78782088E-01 0.52305602E+03</pdfrwt>
<pdfrwt beam="2">  1       -2 0.20548599E-01 0.52305602E+03</pdfrwt>
<totfact> 0.12198632E+03</totfact>
</mgrwt>
</event>
<event>
 5    0  0.5719562E-003  0.4790794E+03  0.7546771E-02  0.1019388E+00
          2   -1    0    0  502    0  0.00000000000E+00  0.00000000000E+00  0.54766488178E+03  0.54766488178E+03  0.00000000000E+00 0. -1.
         -2   -1    0    0    0  501 -0.00000000000E+00 -0.00000000000E+00 -0.10477078302E+03  0.10477078302E+03  0.00000000000E+00 0.  1.
         25    1    1    2    0    0 -0.11578032135E+03  0.17665095716E+03  0.20421038879E+03  0.31927656721E+03  0.12500000000E+03 0.  0.
          2    1    1    2  502    0  0.68562515259E+02 -0.30659452071E+02  0.51222035021E+02  0.90909390998E+02  0.00000000000E+00 0.  1.
         -2    1    1    2    0  501  0.47217806093E+02 -0.14599150509E+03  0.18746167494E+03  0.24224970659E+03  0.00000000000E+00 0. -1.
<mgrwt>
<rscale>  4 0.47907944E+03</rscale>
<asrwt>0</asrwt>
<pdfrwt beam="1">  1        2 0.84256134E-01 0.47907944E+03</pdfrwt>
<pdfrwt beam="2">  1       -2 0.16118582E-01 0.47907944E+03</pdfrwt>
<totfact> 0.17116361E+03</totfact>
</mgrwt>
</event>
<event>
 5    0  0.5719562E-003  0.5490882E+03  0.7546771E-02  0.1001705E+00
         -2   -1    0    0    0  501 -0.00000000000E+00  0.00000000000E+00  0.58321461200E+02  0.58321461200E+02  0.00000000000E+00 0.  1.
          2   -1    0    0  502    0  0.00000000000E+00 -0.00000000000E+00 -0.12923968757E+04  0.12923968757E+04  0.00000000000E+00 0. -1.
         25    1    1    2    0    0  0.88999295268E+02  0.23932622479E+03 -0.55858811482E+03  0.62677236573E+03  0.12500000000E+03 0.  0.
          3    1    1    2  502    0 -0.61725205964E+02 -0.20510956135E+03 -0.59423405763E+03  0.63165975687E+03  0.00000000000E+00 0. -1.
         -3    1    1    2    0  501 -0.27274089304E+02 -0.34216663440E+02 -0.81253242029E+02  0.92286214271E+02  0.00000000000E+00 0.  1.
<mgrwt>
<rscale>  4 0.54908824E+03</rscale>
<asrwt>0</asrwt>
<pdfrwt beam="1">  1        2 0.19883030E+00 0.54908824E+03</pdfrwt>
<pdfrwt beam="2">  1       -2 0.89725321E-02 0.54908824E+03</pdfrwt>
<totfact> 0.13859289E+03</totfact>
</mgrwt>
</event>
<event>
 5    0  0.5719562E-003  0.7404976E+03  0.7546771E-02  0.9650377E-01
         -1   -1    0    0    0  501 -0.00000000000E+00  0.00000000000E+00  0.35370860688E+03  0.35370860688E+03  0.00000000000E+00 0.  1.
          1   -1    0    0  502    0  0.00000000000E+00 -0.00000000000E+00 -0.38756247086E+03  0.38756247086E+03  0.00000000000E+00 0. -1.
         25    1    1    2    0    0 -0.15726557231E+03  0.21558611608E+03  0.13634947902E+02  0.29499278887E+03  0.12500000000E+03 0.  0.
          4    1    1    2  502    0  0.10037990043E+03 -0.79354280792E+02 -0.19780780339E+03  0.23558682767E+03  0.00000000000E+00 0. -1.
         -4    1    1    2    0  501  0.56885671878E+02 -0.13623183529E+03  0.15031899151E+03  0.21069146120E+03  0.00000000000E+00 0.  1.
<mgrwt>
<rscale>  4 0.74049762E+03</rscale>
<asrwt>0</asrwt>
<pdfrwt beam="1">  1        1 0.59624995E-01 0.74049762E+03</pdfrwt>
<pdfrwt beam="2">  1       -1 0.54416709E-01 0.74049762E+03</pdfrwt>
<totfact> 0.21629680E+02</totfact>
</mgrwt>
</event>
<event>
 5    0  0.5719562E-003  0.4597263E+03  0.7546771E-02  0.1024861E+00
          2   -1    0    0  502    0  0.00000000000E+00  0.00000000000E+00  0.27817600141E+04  0.27817600141E+04  0.00000000000E+00 0. -1.
         -2   -1    0    0    0  501 -0.00000000000E+00 -0.00000000000E+00 -0.18994116762E+02  0.18994116762E+02  0.00000000000E+00 0.  1.
         25    1    1    2    0    0 -0.15853218106E+03 -0.13781879190E+03  0.16032904730E+04  0.16218174412E+04  0.12500000000E+03 0.  0.
          4    1    1    2  502    0  0.36874684784E+02  0.23775346649E+02  0.17361641226E+03  0.17907447638E+03  0.00000000000E+00 0.  1.
         -4    1    1    2    0  501  0.12165749628E+03  0.11404344525E+03  0.98585901202E+03  0.99986221320E+03  0.00000000000E+00 0. -1.
<mgrwt>
<rscale>  4 0.45972633E+03</rscale>
<asrwt>0</asrwt>
<pdfrwt beam="1">  1        2 0.42796276E+00 0.45972633E+03</pdfrwt>
<pdfrwt beam="2">  1       -2 0.29221740E-02 0.45972633E+03</pdfrwt>
<totfact> 0.12006179E+03</totfact>
</mgrwt>
</event>
<event>
 5    0  0.5719562E-003  0.6446306E+03  0.7546771E-02  0.9816907E-01
         -2   -1    0    0    0  501 -0.00000000000E+00  0.00000000000E+00  0.60238411493E+02  0.60238411493E+02  0.00000000000E+00 0.  1.
          2   -1    0    0  502    0  0.00000000000E+00 -0.00000000000E+00 -0.17245995886E+04  0.17245995886E+04  0.00000000000E+00 0. -1.
         25    1    1    2    0    0  0.18700416972E+03  0.82980861225E+02 -0.11462171680E+04  0.11710231334E+04  0.12500000000E+03 0.  0.
          3    1    1    2  502    0 -0.38954403051E+02 -0.79703388756E+02 -0.15814168016E+02  0.90111950407E+02  0.00000000000E+00 0.  1.
         -3    1    1    2    0  501 -0.14804976667E+03 -0.32774724690E+01 -0.50232984108E+03  0.52370291624E+03  0.00000000000E+00 0. -1.
<mgrwt>
<rscale>  4 0.64463056E+03</rscale>
<asrwt>0</asrwt>
<pdfrwt beam="1">  1        2 0.26532300E+00 0.64463056E+03</pdfrwt>
<pdfrwt beam="2">  1       -2 0.92674484E-02 0.64463056E+03</pdfrwt>
<totfact> 0.75490805E+02</totfact>
</mgrwt>
</event>
<event>
 5    0  0.5719562E-003  0.1155783E+04  0.7546771E-02  0.9152465E-01
         -1   -1    0    0    0  501 -0.00000000000E+00  0.00000000000E+00  0.39373399754E+03  0.39373399754E+03  0.00000000000E+00 0. -1.
          1   -1    0    0  502    0  0.00000000000E+00 -0.00000000000E+00 -0.84818389714E+03  0.84818389714E+03  0.00000000000E+00 0.  1.
         25    1    1    2    0    0 -0.20372045705E+03  0.47437104155E+02 -0.56900821586E+03  0.61898921896E+03  0.12500000000E+03 0.  0.
          2    1    1    2  502    0 -0.25101835946E+02  0.20384395307E+03  0.18434610143E+03  0.27598178288E+03  0.00000000000E+00 0. -1.
         -2    1    1    2    0  501  0.22882229300E+03 -0.25128105722E+03 -0.69787785162E+02  0.34694689284E+03  0.00000000000E+00 0.  1.
<mgrwt>
<rscale>  4 0.11557834E+04</rscale>
<asrwt>0</asrwt>
<pdfrwt beam="1">  1        1 0.13048983E+00 0.11557834E+04</pdfrwt>
<pdfrwt beam="2">  1       -1 0.60574461E-01 0.11557834E+04</pdfrwt>
<totfact> 0.55150990E+01</totfact>
</mgrwt>
</event>
<event>
 5    0  0.5719562E-003  0.7048058E+03  0.7546771E-02  0.9709049E-01
          2   -1    0    0  502    0  0.00000000000E+00  0.00000000000E+00  0.19831573185E+04  0.19831573185E+04  0.00000000000E+00 0.  1.
         -2   -1    0    0    0  501 -0.00000000000E+00 -0.00000000000E+00 -0.62621259446E+02  0.62621259446E+02  0.00000000000E+00 0. -1.
         25    1    1    2    0    0 -0.19600723460E+03  0.15122376613E+03  0.15942385366E+04  0.16181807609E+04  0.12500000000E+03 0.  0.
          2    1    1    2  502    0  0.19591605809E+03 -0.10016368425E+03  0.22817624958E+03  0.31698622420E+03  0.00000000000E+00 0. -1.
         -2    1    1    2    0  501  0.91176507636E-01 -0.51060081881E+02  0.98121272830E+02  0.11061159278E+03  0.00000000000E+00 0.  1.
<mgrwt>
<rscale>  4 0.70480581E+03</rscale>
<asrwt>0</asrwt>
<pdfrwt beam="1">  1        2 0.30510108E+00 0.70480581E+03</pdfrwt>
<pdfrwt beam="2">  1       -2 0.96340415E-02 0.70480581E+03</pdfrwt>
<totfact> 0.51101350E+02</totfact>
</mgrwt>
</event>
<event>
 5    0  0.5719562E-003  0.8491004E+03  0.7546771E-02  0.9491545E-01
          1   -1    0    0  502    0  0.00000000000E+00  0.00000000000E+00  0.42679812519E+03  0.42679812519E+03  0.00000000000E+00 0.  1.
         -1   -1    0    0    0  501 -0.00000000000E+00 -0.00000000000E+00 -0.42231414656E+03  0.42231414656E+03  0.00000000000E+00 0. -1.
         25    1    1    2    0    0  0.21305938096E+03 -0.25242687166E+03 -0.18343589046E+02  0.35365959991E+03  0.12500000000E+03 0.  0.
          4    1    1    2  502    0 -0.18255128119E+03  0.60050002638E+02 -0.14308207887E+03  0.23959018005E+03  0.00000000000E+00 0. -1.
         -4    1    1    2    0  501 -0.30508099766E+02  0.19237686902E+03  0.16590964655E+03  0.25586249179E+03  0.00000000000E+00 0.  1.
<mgrwt>
<rscale>  4 0.84910043E+03</rscale>
<asrwt>0</asrwt>
<pdfrwt beam="1">  1        1 0.65661250E-01 0.84910043E+03</pdfrwt>
<pdfrwt beam="2">  1       -1 0.64971407E-01 0.84910043E+03</pdfrwt>
<totfact> 0.13349093E+02</totfact>
</mgrwt>
</event>
<event>
 5    0  0.5719562E-003  0.5349981E+03  0.7546771E-02  0.1005027E+00
         -2   -1    0    0    0  501 -0.00000000000E+00  0.00000000000E+00  0.96252135652E+02  0.96252135652E+02  0.00000000000E+00 0. -1.
          2   -1    0    0  502    0  0.00000000000E+00 -0.00000000000E+00 -0.74341969397E+03  0.74341969397E+03  0.00000000000E+00 0.  1.
         25    1    1    2    0    0 -0.53564492933E+00  0.23924511139E+03 -0.43433517435E+03  0.51138102616E+03  0.12500000000E+03 0.  0.
          3    1    1    2  502    0  0.13605548068E+02 -0.16746952329E+03 -0.10511571532E+03  0.19819300133E+03  0.00000000000E+00 0. -1.
         -3    1    1    2    0  501 -0.13069903139E+02 -0.71775588093E+02 -0.10771666866E+03  0.13009780214E+03  0.00000000000E+00 0.  1.
<mgrwt>
<rscale>  4 0.53499807E+03</rscale>
<asrwt>0</asrwt>
<pdfrwt beam="1">  1        2 0.11437226E+00 0.53499807E+03</pdfrwt>
<pdfrwt beam="2">  1       -2 0.14808021E-01 0.53499807E+03</pdfrwt>
<totfact> 0.13624465E+03</totfact>
</mgrwt>
</event>
<event>
 5    0  0.5719562E-003  0.7059245E+03  0.7546771E-02  0.9707154E-01
          2   -1    0    0  502    0  0.00000000000E+00  0.00000000000E+00  0.51566591910E+03  0.51566591910E+03  0.00000000000E+00 0.  1.
         -2   -1    0    0    0  501 -0.00000000000E+00 -0.00000000000E+00 -0.24159506757E+03  0.24159506757E+03  0.00000000000E+00 0. -1.
         25    1    1    2    0    0 -0.30575009706E+03  0.55882661711E+02  0.96105110680E+00  0.33501032424E+03  0.12500000000E+03 0.  0.
          1    1    1    2  502    0  0.16855737625E+03 -0.89848864888E+01  0.19374879880E+03  0.25696481143E+03  0.00000000000E+00 0.  1.
         -1    1    1    2    0  501  0.13719272081E+03 -0.46897775222E+02  0.79361001613E+02  0.16528585100E+03  0.00000000000E+00 0. -1.
<mgrwt>
<rscale>  4 0.70592448E+03</rscale>
<asrwt>0</asrwt>
<pdfrwt beam="1">  1        2 0.79333218E-01 0.70592448E+03</pdfrwt>
<pdfrwt beam="2">  1       -2 0.37168472E-01 0.70592448E+03</pdfrwt>
<totfact> 0.40831757E+02</totfact>
</mgrwt>
</event>
<event>
 5    0  0.5719562E-003  0.5259622E+03  0.7546771E-02  0.1007216E+00
          2   -1    0    0  502    0  0.00000000000E+00  0.00000000000E+00  0.31879186392E+03  0.31879186392E+03  0.00000000000E+00 0. -1.
         -2   -1    0    0    0  501 -0.00000000000E+00 -0.00000000000E+00 -0.21694109804E+03  0.21694109804E+03  0.00000000000E+00 0.  1.
         25    1    1    2    0    0  0.21923519330E+03  0.54384763471E+02 -0.48051770292E+02  0.26259425948E+03  0.12500000000E+03 0.  0.
          1    1    1    2  502    0 -0.19524123962E+03 -0.46280374989E+02  0.11938735220E+03  0.23348309280E+03  0.00000000000E+00 0.  1.
         -1    1    1    2    0  501 -0.23993953683E+02 -0.81043884815E+01  0.30515183977E+02  0.39655609680E+02  0.00000000000E+00 0. -1.
<mgrwt>
<rscale>  4 0.52596219E+03</rscale>
<asrwt>0</asrwt>
<pdfrwt beam="1">  1        2 0.49044902E-01 0.52596219E+03</pdfrwt>
<pdfrwt beam="2">  1       -2 0.33375554E-01 0.52596219E+03</pdfrwt>
<totfact> 0.86342345E+02</totfact>
</mgrwt>
</event>
<event>
 5    0  0.5719562E-003  0.8633738E+03  0.7546771E-02  0.9472561E-01
         -1   -1    0    0    0  501 -0.00000000000E+00  0.00000000000E+00  0.81956971784E+03  0.81956971784E+03  0.00000000000E+00 0. -1.
          1   -1    0    0  502    0  0.00000000000E+00 -0.00000000000E+00 -0.22737979752E+03  0.22737979752E+03  0.00000000000E+00 0.  1.
         25    1    1    2    0    0 -0.25813989561E+03 -0.25976889452E+03  0.53448112698E+03  0.65985692341E+03  0.12500000000E+03 0.  0.
          1    1    1    2  502    0  0.43745204808E+02  0.71869328440E+02  0.57684194725E+02  0.10201132111E+03  0.00000000000E+00 0. -1.
         -1    1    1    2    0  501  0.21439469081E+03  0.18789956608E+03  0.24598615763E-01  0.28508127084E+03  0.00000000000E+00 0.  1.
<mgrwt>
<rscale>  4 0.86337384E+03</rscale>
<asrwt>0</asrwt>
<pdfrwt beam="1">  1        1 0.34981508E-01 0.86337384E+03</pdfrwt>
<pdfrwt beam="2">  1       -1 0.12608765E+00 0.86337384E+03</pdfrwt>
<totfact> 0.69628030E+01</totfact>
</mgrwt>
</event>
<event>
 5    0  0.5719562E-003  0.5980438E+03  0.7546771E-02  0.9909473E-01
          2   -1    0    0  502    0  0.00000000000E+00  0.00000000000E+00  0.31224915351E+04  0.31224915351E+04  0.00000000000E+00 0.  1.
         -2   -1    0    0    0  501 -0.00000000000E+00 -0.00000000000E+00 -0.28635495582E+02  0.28635495582E+02  0.00000000000E+00 0. -1.
         25    1    1    2    0    0  0.13596297568E+03 -0.22065077211E+03  0.20535757552E+04  0.20736371612E+04  0.12500000000E+03 0.  0.
          1    1    1    2  502    0 -0.64282877279E+02  0.81399252559E+02  0.62714796734E+03  0.63566712953E+03  0.00000000000E+00 0.  1.
         -1    1    1    2    0  501 -0.71680098400E+02  0.13925151955E+03  0.41313231702E+03  0.44182273999E+03  0.00000000000E+00 0. -1.
<mgrwt>
<rscale>  4 0.59804379E+03</rscale>
<asrwt>0</asrwt>
<pdfrwt beam="1">  1        2 0.48038304E+00 0.59804379E+03</pdfrwt>
<pdfrwt beam="2">  1       -2 0.44054633E-02 0.59804379E+03</pdfrwt>
<totfact> 0.39450524E+02</totfact>
</mgrwt>
</event>
<event>
 5    0  0.5719562E-003  0.5271229E+03  0.7546771E-02  0.1006932E+00
          4   -1    0    0  502    0  0.00000000000E+00  0.00000000000E+00  0.51332737364E+03  0.51332737364E+03  0.00000000000E+00 0. -1.
         -4   -1    0    0    0  501 -0.00000000000E+00 -0.00000000000E+00 -0.13532229574E+03  0.13532229574E+03  0.00000000000E+00 0.  1.
         25    1    1    2    0    0 -0.91382646603E+02 -0.19166286202E+03  0.35130439851E+03  0.42909814867E+03  0.12500000000E+03 0.  0.
          4    1    1    2  502    0  0.78781731572E+02  0.11760047933E+03  0.62360788808E+01  0.14168741175E+03  0.00000000000E+00 0.  1.
         -4    1    1    2    0  501  0.12600915031E+02  0.74062382688E+02  0.20464600500E+02  0.77864108950E+02  0.00000000000E+00 0. -1.
<mgrwt>
<rscale>  4 0.52712290E+03</rscale>
<asrwt>0</asrwt>
<pdfrwt beam="1">  1        4 0.78973441E-01 0.52712290E+03</pdfrwt>
<pdfrwt beam="2">  1       -4 0.20818815E-01 0.52712290E+03</pdfrwt>
<totfact> 0.59986842E+01</totfact>
</mgrwt>
</event>
<event>
 5    0  0.5719562E-003  0.9628501E+03  0.7546771E-02  0.9350256E-01
          2   -1    0    0  502    0  0.00000000000E+00  0.00000000000E+00  0.50203840085E+03  0.50203840085E+03  0.00000000000E+00 0.  1.
         -2   -1    0    0    0  501 -0.00000000000E+00 -0.00000000000E+00 -0.46165808480E+03  0.46165808480E+03  0.00000000000E+00 0. -1.
         25    1    1    2    0    0  0.35473919520E+03  0.25491376287E+03 -0.92715861925E+02  0.46372637855E+03  0.12500000000E+03 0.  0.
          4    1    1    2  502    0 -0.28065969553E+03 -0.12537975982E+03  0.11714384470E+02  0.30761530467E+03  0.00000000000E+00 0. -1.
         -4    1    1    2    0  501 -0.74079499676E+02 -0.12953400306E+03  0.12138179351E+03  0.19235480242E+03  0.00000000000E+00 0.  1.
<mgrwt>
<rscale>  4 0.96285012E+03</rscale>
<asrwt>0</asrwt>
<pdfrwt beam="1">  1        2 0.77236677E-01 0.96285012E+03</pdfrwt>
<pdfrwt beam="2">  1       -2 0.71024321E-01 0.96285012E+03</pdfrwt>
<totfact> 0.11048331E+02</totfact>
</mgrwt>
</event>
<event>
 5    0  0.5719562E-003  0.1111337E+04  0.7546771E-02  0.9194212E-01
          2   -1    0    0  502    0  0.00000000000E+00  0.00000000000E+00  0.18815925509E+04  0.18815925509E+04  0.00000000000E+00 0. -1.
         -2   -1    0    0    0  501 -0.00000000000E+00 -0.00000000000E+00 -0.16409893901E+03  0.16409893901E+03  0.00000000000E+00 0.  1.
         25    1    1    2    0    0  0.39254460308E+03  0.23247251094E+03  0.68184456073E+03  0.82986248183E+03  0.12500000000E+03 0.  0.
          4    1    1    2  502    0 -0.41890174145E+03 -0.24137751067E+03  0.56190392712E+03  0.74126769453E+03  0.00000000000E+00 0.  1.
         -4    1    1    2    0  501  0.26357138371E+02  0.89049997304E+01  0.47374512399E+03  0.47456131349E+03  0.00000000000E+00 0. -1.
<mgrwt>
<rscale>  4 0.11113367E+04</rscale>
<asrwt>0</asrwt>
<pdfrwt beam="1">  1        2 0.28947576E+00 0.11113367E+04</pdfrwt>
<pdfrwt beam="2">  1       -2 0.25245992E-01 0.11113367E+04</pdfrwt>
<totfact> 0.10882538E+02</totfact>
</mgrwt>
</event>
<event>
 5    0  0.5719562E-003  0.6229917E+03  0.7546771E-02  0.9858821E-01
          1   -1    0    0  502    0  0.00000000000E+00  0.00000000000E+00  0.27427258493E+03  0.27427258493E+03  0.00000000000E+00 0.  1.
         -1   -1    0    0    0  501 -0.00000000000E+00 -0.00000000000E+00 -0.35377095328E+03  0.35377095328E+03  0.00000000000E+00 0. -1.
         25    1    1    2    0    0  0.59062606521E+02  0.22980942077E+03  0.68351641698E+01  0.26827687346E+03  0.12500000000E+03 0.  0.
          3    1    1    2  502    0 -0.95624660810E+02 -0.22743787144E+03 -0.14823900249E+03  0.28783130994E+03  0.00000000000E+00 0. -1.
         -3    1    1    2    0  501  0.36562054289E+02 -0.23715493311E+01  0.61905469971E+02  0.71935354815E+02  0.00000000000E+00 0.  1.
<mgrwt>
<rscale>  4 0.62299173E+03</rscale>
<asrwt>0</asrwt>
<pdfrwt beam="1">  1        1 0.42195782E-01 0.62299173E+03</pdfrwt>
<pdfrwt beam="2">  1       -1 0.54426301E-01 0.62299173E+03</pdfrwt>
<totfact> 0.34070639E+02</totfact>
</mgrwt>
</event>
<event>
 5    0  0.5719562E-003  0.1523410E+04  0.7546771E-02  0.8869033E-01
          1   -1    0    0  502    0  0.00000000000E+00  0.00000000000E+00  0.80781095831E+03  0.80781095831E+03  0.00000000000E+00 0. -1.
         -1   -1    0    0    0  501 -0.00000000000E+00 -0.00000000000E+00 -0.71823069986E+03  0.71823069986E+03  0.00000000000E+00 0.  1.
         25    1    1    2    0    0 -0.49226050916E+03  0.40749203809E+02  0.59001555989E+03  0.77956671774E+03  0.12500000000E+03 0.  0.
          4    1    1    2  502    0  0.48819622669E+03 -0.93300159243E+01 -0.51665507252E+03  0.71088330190E+03  0.00000000000E+00 0.  1.
         -4    1    1    2    0  501  0.40642824690E+01 -0.31419187885E+02  0.16219771090E+02  0.35591638534E+02  0.00000000000E+00 0. -1.
<mgrwt>
<rscale>  4 0.15234102E+04</rscale>
<asrwt>0</asrwt>
<pdfrwt beam="1">  1        1 0.12427861E+00 0.15234102E+04</pdfrwt>
<pdfrwt beam="2">  1       -1 0.11049703E+00 0.15234102E+04</pdfrwt>
<totfact> 0.15873318E+01</totfact>
</mgrwt>
</event>
<event>
 5    0  0.5719562E-003  0.1125699E+04  0.7546771E-02  0.9180500E-01
          1   -1    0    0  502    0  0.00000000000E+00  0.00000000000E+00  0.70255687176E+03  0.70255687176E+03  0.00000000000E+00 0. -1.
         -1   -1    0    0    0  501 -0.00000000000E+00 -0.00000000000E+00 -0.45092346742E+03  0.45092346742E+03  0.00000000000E+00 0.  1.
         25    1    1    2    0    0 -0.26904489710E+03 -0.24099457677E+03 -0.30049605931E+03  0.48619587035E+03  0.12500000000E+03 0.  0.
          3    1    1    2  502    0  0.14901876671E+02  0.13481182257E+02  0.93953917826E+02  0.96078857603E+02  0.00000000000E+00 0.  1.
         -3    1    1    2    0  501  0.25414302043E+03  0.22751339451E+03  0.45817554581E+03  0.57120561122E+03  0.00000000000E+00 0. -1.
<mgrwt>
<rscale>  4 0.11256987E+04</rscale>
<asrwt>0</asrwt>
<pdfrwt beam="1">  1        1 0.10808567E+00 0.11256987E+04</pdfrwt>
<pdfrwt beam="2">  1       -1 0.69372842E-01 0.11256987E+04</pdfrwt>
<totfact> 0.56666930E+01</totfact>
</mgrwt>
</event>
<event>
 5    0  0.5719562E-003  0.5314954E+03  0.7546771E-02  0.1005870E+00
          1   -1    0    0  502    0  0.00000000000E+00  0.00000000000E+00  0.82432825651E+02  0.82432825651E+02  0.00000000000E+00 0. -1.
         -1   -1    0    0    0  501 -0.00000000000E+00 -0.00000000000E+00 -0.85671990551E+03  0.85671990551E+03  0.00000000000E+00 0.  1.
         25    1    1    2    0    0  0.19939932450E+03  0.14509942223E+03 -0.37049281684E+03  0.46228114851E+03  0.12500000000E+03 0.  0.
          3    1    1    2  502    0 -0.74962142441E+02 -0.88175634636E+02 -0.20741270539E+03  0.23751693771E+03  0.00000000000E+00 0.  1.
         -3    1    1    2    0  501 -0.12443718206E+03 -0.56923787593E+02 -0.19638155763E+03  0.23935464494E+03  0.00000000000E+00 0. -1.
<mgrwt>
<rscale>  4 0.53149541E+03</rscale>
<asrwt>0</asrwt>
<pdfrwt beam="1">  1        1 0.12681974E-01 0.53149541E+03</pdfrwt>
<pdfrwt beam="2">  1       -1 0.13180306E+00 0.53149541E+03</pdfrwt>
<totfact> 0.24250490E+02</totfact>
</mgrwt>
</event>
<event>
 5    0  0.5719562E-003  0.6560691E+03  0.7546771E-02  0.9795457E-01
         -2   -1    0    0    0  501 -0.00000000000E+00  0.00000000000E+00  0.91726210481E+03  0.91726210481E+03  0.00000000000E+00 0.  1.
          2   -1    0    0  502    0  0.00000000000E+00 -0.00000000000E+00 -0.11731288448E+03  0.11731288448E+03  0.00000000000E+00 0. -1.
         25    1    1    2    0    0  0.20406523503E+03 -0.36879788847E+02  0.77749934932E+03  0.81432977176E+03  0.12500000000E+03 0.  0.
          2    1    1    2  502    0 -0.17748786862E+03  0.47288500216E+02 -0.40453825370E+00  0.18367991020E+03  0.00000000000E+00 0. -1.
         -2    1    1    2    0  501 -0.26577366412E+02 -0.10408711369E+02  0.22854409265E+02  0.36565307336E+02  0.00000000000E+00 0.  1.
<mgrwt>
<rscale>  4 0.65606909E+03</rscale>
<asrwt>0</asrwt>
<pdfrwt beam="1">  1        2 0.18048137E-01 0.65606909E+03</pdfrwt>
<pdfrwt beam="2">  1       -2 0.14111724E+00 0.65606909E+03</pdfrwt>
<totfact> 0.11447102E+02</totfact>
</mgrwt>
</event>
<event>
 5    0  0.5719562E-003  0.4891746E+03  0.7546771E-02  0.1016644E+00
         -2   -1    0    0    0  501 -0.00000000000E+00  0.00000000000E+00  0.25144944790E+03  0.25144944790E+03  0.00000000000E+00 0.  1.
          2   -1    0    0  502    0  0.00000000000E+00 -0.00000000000E+00 -0.23791238318E+03  0.23791238318E+03  0.00000000000E+00 0. -1.
         25    1    1    2    0    0 -0.21350846488E+03 -0.13623228919E+02 -0.53704006326E+02  0.25353614582E+03  0.12500000000E+03 0.  0.
          4    1    1    2  502    0  0.43029905618E+02  0.18228736679E+02  0.43122662991E+02  0.63587920880E+02  0.00000000000E+00 0.  1.
         -4    1    1    2    0  501  0.17047855926E+03 -0.46055077606E+01  0.24118408060E+02  0.17223776438E+03  0.00000000000E+00 0. -1.
<mgrwt>
<rscale>  4 0.48917456E+03</rscale>
<asrwt>0</asrwt>
<pdfrwt beam="1">  1        2 0.36601905E-01 0.48917456E+03</pdfrwt>
<pdfrwt beam="2">  1       -2 0.38684530E-01 0.48917456E+03</pdfrwt>
<totfact> 0.90038676E+02</totfact>
</mgrwt>
</event>
<event>
 5    0  0.5719562E-003  0.1078041E+04  0.7546771E-02  0.9226863E-01
         -2   -1    0    0    0  501 -0.00000000000E+00  0.00000000000E+00  0.18694371540E+03  0.18694371540E+03  0.00000000000E+00 0.  1.
          2   -1    0    0  502    0  0.00000000000E+00 -0.00000000000E+00 -0.15541732823E+04  0.15541732823E+04  0.00000000000E+00 0. -1.
         25    1    1    2    0    0  0.26970366592E+03 -0.82357260145E+02  0.30985736303E+02  0.31001274420E+03  0.12500000000E+03 0.  0.
          4    1    1    2  502    0 -0.19647522943E+03  0.72218741290E+02 -0.74925299798E+03  0.77794480354E+03  0.00000000000E+00 0.  1.
         -4    1    1    2    0  501 -0.73228436493E+02  0.10138518855E+02 -0.64896230523E+03  0.65315944997E+03  0.00000000000E+00 0. -1.
<mgrwt>
<rscale>  4 0.10780407E+04</rscale>
<asrwt>0</asrwt>
<pdfrwt beam="1">  1        2 0.23910358E+00 0.10780407E+04</pdfrwt>
<pdfrwt beam="2">  1       -2 0.28760572E-01 0.10780407E+04</pdfrwt>
<totfact> 0.13039422E+02</totfact>
</mgrwt>
</event>
<event>
 5    0  0.5719562E-003  0.1057257E+04  0.7546771E-02  0.9247884E-01
          1   -1    0    0  502    0  0.00000000000E+00  0.00000000000E+00  0.14513797240E+04  0.14513797240E+04  0.00000000000E+00 0. -1.
         -1   -1    0    0    0  501 -0.00000000000E+00 -0.00000000000E+00 -0.19253947327E+03  0.19253947327E+03  0.00000000000E+00 0.  1.
         25    1    1    2    0    0  0.17194658832E+03 -0.10838831197E+03  0.13066593102E+04  0.13282685001E+04  0.12500000000E+03 0.  0.
          4    1    1    2  502    0 -0.19733744323E+03  0.77104536370E+02  0.43098720207E+02  0.21620517041E+03  0.00000000000E+00 0. -1.
         -4    1    1    2    0  501  0.25390854908E+02  0.31283775595E+02 -0.90917779689E+02  0.99445526758E+02  0.00000000000E+00 0.  1.
<mgrwt>
<rscale>  4 0.10572566E+04</rscale>
<asrwt>0</asrwt>
<pdfrwt beam="1">  1        1 0.22328918E+00 0.10572566E+04</pdfrwt>
<pdfrwt beam="2">  1       -1 0.29621458E-01 0.10572566E+04</pdfrwt>
<totfact> 0.73697409E+01</totfact>
</mgrwt>
</event>
<event>
 5    0  0.5719562E-003  0.6595101E+03  0.7546771E-02  0.9789096E-01
          1   -1    0    0  502    0  0.00000000000E+00  0.00000000000E+00  0.53702875805E+03  0.53702875805E+03  0.00000000000E+00 0.  1.
         -1   -1    0    0    0  501 -0.00000000000E+00 -0.00000000000E+00 -0.20248152712E+03  0.20248152712E+03  0.00000000000E+00 0. -1.
         25    1    1    2    0    0 -0.11809215628E+03 -0.19951946948E+03  0.21129482485E+03  0.33767481263E+03  0.12500000000E+03 0.  0.
          1    1    1    2  502    0  0.16441369182E+03  0.11962074405E+03  0.19740916299E+03  0.28339259358E+03  0.00000000000E+00 0. -1.
         -1    1    1    2    0  501 -0.46321535535E+02  0.79898725434E+02 -0.74156756912E+02  0.11844287896E+03  0.00000000000E+00 0.  1.
<mgrwt>
<rscale>  4 0.65951013E+03</rscale>
<asrwt>0</asrwt>
<pdfrwt beam="1">  1        1 0.82619808E-01 0.65951013E+03</pdfrwt>
<pdfrwt beam="2">  1       -1 0.31151004E-01 0.65951013E+03</pdfrwt>
<totfact> 0.38750429E+02</totfact>
</mgrwt>
</event>
<event>
 5    0  0.5719562E-003  0.4621228E+03  0.7546771E-02  0.1024167E+00
          1   -1    0    0  502    0  0.00000000000E+00  0.00000000000E+00  0.70959194881E+02  0.70959194881E+02  0.00000000000E+00 0. -1.
         -1   -1    0    0    0  501 -0.00000000000E+00 -0.00000000000E+00 -0.75239531928E+03  0.75239531928E+03  0.00000000000E+00 0.  1.
         25    1    1    2    0    0  0.21037113648E+03  0.15159378129E+02 -0.31338055553E+03  0.39789218941E+03  0.12500000000E+03 0.  0.
          4    1    1    2  502    0 -0.19127877751E+03 -0.22736875197E+02 -0.33849649692E+03  0.38946683382E+03  0.00000000000E+00 0.  1.
         -4    1    1    2    0  501 -0.19092358973E+02  0.75774970680E+01 -0.29559071943E+02  0.35995490927E+02  0.00000000000E+00 0. -1.
<mgrwt>
<rscale>  4 0.46212278E+03</rscale>
<asrwt>0</asrwt>
<pdfrwt beam="1">  1        1 0.10916799E-01 0.46212278E+03</pdfrwt>
<pdfrwt beam="2">  1       -1 0.11575313E+00 0.46212278E+03</pdfrwt>
<totfact> 0.40930134E+02</totfact>
</mgrwt>
</event>
<event>
 5    0  0.5719562E-003  0.5516700E+03  0.7546771E-02  0.1001108E+00
         -2   -1    0    0    0  501 -0.00000000000E+00  0.00000000000E+00  0.23248060536E+02  0.23248060536E+02  0.00000000000E+00 0. -1.
          2   -1    0    0  502    0  0.00000000000E+00 -0.00000000000E+00 -0.32727440673E+04  0.32727440673E+04  0.00000000000E+00 0.  1.
         25    1    1    2    0    0  0.21389474939E+03  0.49337039346E+02 -0.17368268730E+04  0.17551004798E+04  0.12500000000E+03 0.  0.
          1    1    1    2  502    0 -0.85357103729E+02  0.40256800361E+02 -0.10092730308E+04  0.10136757351E+04  0.00000000000E+00 0.  1.
         -1    1    1    2    0  501 -0.12853764566E+03 -0.89593839707E+02 -0.50339610289E+03  0.52721591295E+03  0.00000000000E+00 0. -1.
<mgrwt>
<rscale>  4 0.55167002E+03</rscale>
<asrwt>0</asrwt>
<pdfrwt beam="1">  1        2 0.50349914E+00 0.55167002E+03</pdfrwt>
<pdfrwt beam="2">  1       -2 0.35766243E-02 0.55167002E+03</pdfrwt>
<totfact> 0.43914202E+02</totfact>
</mgrwt>
</event>
<event>
 5    0  0.5719562E-003  0.6210113E+03  0.7546771E-02  0.9862748E-01
          2   -1    0    0  502    0  0.00000000000E+00  0.00000000000E+00  0.13215609010E+04  0.13215609010E+04  0.00000000000E+00 0. -1.
         -2   -1    0    0    0  501 -0.00000000000E+00 -0.00000000000E+00 -0.72954457148E+02  0.72954457148E+02  0.00000000000E+00 0.  1.
         25    1    1    2    0    0  0.26686373464E+03  0.72773803270E+02  0.41063386066E+03  0.51064414892E+03  0.12500000000E+03 0.  0.
          3    1    1    2  502    0 -0.19768649750E+03 -0.41049937198E+02  0.66307269791E+03  0.69313090492E+03  0.00000000000E+00 0. -1.
         -3    1    1    2    0  501 -0.69177237136E+02 -0.31723866072E+02  0.17489988532E+03  0.19074030434E+03  0.00000000000E+00 0.  1.
<mgrwt>
<rscale>  4 0.62101130E+03</rscale>
<asrwt>0</asrwt>
<pdfrwt beam="1">  1        2 0.20331704E+00 0.62101130E+03</pdfrwt>
<pdfrwt beam="2">  1       -2 0.11223764E-01 0.62101130E+03</pdfrwt>
<totfact> 0.92538345E+02</totfact>
</mgrwt>
</event>
<event>
 5    0  0.5719562E-003  0.4864364E+03  0.7546771E-02  0.1017381E+00
         -1   -1    0    0    0  501 -0.00000000000E+00  0.00000000000E+00  0.15174603422E+03  0.15174603422E+03  0.00000000000E+00 0. -1.
          1   -1    0    0  502    0  0.00000000000E+00 -0.00000000000E+00 -0.38982950062E+03  0.38982950062E+03  0.00000000000E+00 0.  1.
         25    1    1    2    0    0 -0.51953994828E+02 -0.21507340018E+03 -0.97602852384E+02  0.27222619609E+03  0.12500000000E+03 0.  0.
          4    1    1    2  502    0  0.23149429343E+02  0.86871866547E+02 -0.22309835583E+02  0.92630157293E+02  0.00000000000E+00 0.  1.
         -4    1    1    2    0  501  0.28804565485E+02  0.12820153363E+03 -0.11817077843E+03  0.17671918145E+03  0.00000000000E+00 0. -1.
<mgrwt>
<rscale>  4 0.48643635E+03</rscale>
<asrwt>0</asrwt>
<pdfrwt beam="1">  1        1 0.59973769E-01 0.48643635E+03</pdfrwt>
<pdfrwt beam="2">  1       -1 0.23345544E-01 0.48643635E+03</pdfrwt>
<totfact> 0.98059541E+02</totfact>
</mgrwt>
</event>
<event>
 5    0  0.5719562E-003  0.4836081E+03  0.7546771E-02  0.1018148E+00
          2   -1    0    0  502    0  0.00000000000E+00  0.00000000000E+00  0.23876322971E+04  0.23876322971E+04  0.00000000000E+00 0.  1.
         -2   -1    0    0    0  501 -0.00000000000E+00 -0.00000000000E+00 -0.24488360858E+02  0.24488360858E+02  0.00000000000E+00 0. -1.
         25    1    1    2    0    0 -0.21516310729E+03  0.10374559703E+01  0.11173314930E+04  0.11447055973E+04  0.12500000000E+03 0.  0.
          4    1    1    2  502    0  0.81668995711E+02 -0.21809471732E+01  0.73191935130E+03  0.73646487913E+03  0.00000000000E+00 0.  1.
         -4    1    1    2    0  501  0.13349411158E+03  0.11434912028E+01  0.51389309191E+03  0.53095018157E+03  0.00000000000E+00 0. -1.
<mgrwt>
<rscale>  4 0.48360811E+03</rscale>
<asrwt>0</asrwt>
<pdfrwt beam="1">  1        2 0.36732786E+00 0.48360811E+03</pdfrwt>
<pdfrwt beam="2">  1       -2 0.37674420E-02 0.48360811E+03</pdfrwt>
<totfact> 0.13609797E+03</totfact>
</mgrwt>
</event>
<event>
 5    0  0.5719562E-003  0.6746721E+03  0.7546771E-02  0.9761554E-01
         -2   -1    0    0    0  501 -0.00000000000E+00  0.00000000000E+00  0.11735512345E+03  0.11735512345E+03  0.00000000000E+00 0. -1.
          2   -1    0    0  502    0  0.00000000000E+00 -0.00000000000E+00 -0.96966883923E+03  0.96966883923E+03  0.00000000000E+00 0.  1.
         25    1    1    2    0    0  0.20410047360E+03  0.11524059316E+03 -0.80779295428E+02  0.27764670393E+03  0.12500000000E+03 0.  0.
          3    1    1    2  502    0 -0.15879600877E+02 -0.19067299235E+02 -0.33607468554E+02  0.41775418212E+02  0.00000000000E+00 0. -1.
         -3    1    1    2    0  501 -0.18822087272E+03 -0.96173293924E+02 -0.73792695180E+03  0.76760184053E+03  0.00000000000E+00 0.  1.
<mgrwt>
<rscale>  4 0.67467209E+03</rscale>
<asrwt>0</asrwt>
<pdfrwt beam="1">  1        2 0.14917982E+00 0.67467209E+03</pdfrwt>
<pdfrwt beam="2">  1       -2 0.18054635E-01 0.67467209E+03</pdfrwt>
<totfact> 0.67703939E+02</totfact>
</mgrwt>
</event>
<event>
 5    0  0.5719562E-003  0.8419247E+03  0.7546771E-02  0.9501240E-01
          1   -1    0    0  502    0  0.00000000000E+00  0.00000000000E+00  0.28904831353E+04  0.28904831353E+04  0.00000000000E+00 0. -1.
         -1   -1    0    0    0  501 -0.00000000000E+00 -0.00000000000E+00 -0.61307841750E+02  0.61307841750E+02  0.00000000000E+00 0.  1.
         25    1    1    2    0    0 -0.19145578397E+03 -0.28562050140E+03  0.15723209118E+04  0.16143272400E+04  0.12500000000E+03 0.  0.
          2    1    1    2  502    0  0.82790381029E+02  0.13187998548E+03  0.10343170372E+04  0.10459724237E+04  0.00000000000E+00 0. -1.
         -2    1    1    2    0  501  0.10866540294E+03  0.15374051592E+03  0.22253734452E+03  0.29149131331E+03  0.00000000000E+00 0.  1.
<mgrwt>
<rscale>  4 0.84192466E+03</rscale>
<asrwt>0</asrwt>
<pdfrwt beam="1">  1        1 0.44468961E+00 0.84192466E+03</pdfrwt>
<pdfrwt beam="2">  1       -1 0.94319779E-02 0.84192466E+03</pdfrwt>
<totfact> 0.51798340E+01</totfact>
</mgrwt>
</event>
<event>
 5    0  0.5719562E-003  0.5287048E+03  0.7546771E-02  0.1006547E+00
          2   -1    0    0  502    0  0.00000000000E+00  0.00000000000E+00  0.33537036045E+03  0.33537036045E+03  0.00000000000E+00 0.  1.
         -2   -1    0    0    0  501 -0.00000000000E+00 -0.00000000000E+00 -0.20837320541E+03  0.20837320541E+03  0.00000000000E+00 0. -1.
         25    1    1    2    0    0  0.82963565852E+02 -0.20924052782E+03  0.10951151911E+03  0.27978978637E+03  0.12500000000E+03 0.  0.
          3    1    1    2  502    0 -0.11031175715E+03  0.18097604255E+03 -0.15655038525E+02  0.21252315632E+03  0.00000000000E+00 0. -1.
         -3    1    1    2    0  501  0.27348191299E+02  0.28264485274E+02  0.33140674457E+02  0.51430623160E+02  0.00000000000E+00 0.  1.
<mgrwt>
<rscale>  4 0.52870482E+03</rscale>
<asrwt>0</asrwt>
<pdfrwt beam="1">  1        2 0.51595440E-01 0.52870482E+03</pdfrwt>
<pdfrwt beam="2">  1       -2 0.32057416E-01 0.52870482E+03</pdfrwt>
<totfact> 0.88038126E+02</totfact>
</mgrwt>
</event>
<event>
 5    0  0.5719562E-003  0.7574016E+03  0.7546771E-02  0.9623809E-01
          1   -1    0    0  502    0  0.00000000000E+00  0.00000000000E+00  0.55690823780E+03  0.55690823780E+03  0.00000000000E+00 0. -1.
         -1   -1    0    0    0  501 -0.00000000000E+00 -0.00000000000E+00 -0.25751874884E+03  0.25751874884E+03  0.00000000000E+00 0.  1.
         25    1    1    2    0    0 -0.34237373637E+03  0.46690464308E+02  0.49130969767E+02  0.37072715979E+03  0.12500000000E+03 0.  0.
          1    1    1    2  502    0  0.30727489515E+03 -0.25171495885E+02  0.25774952926E+03  0.40185356192E+03  0.00000000000E+00 0. -1.
         -1    1    1    2    0  501  0.35098841218E+02 -0.21518968423E+02 -0.74910100637E+01  0.41846264931E+02  0.00000000000E+00 0.  1.
<mgrwt>
<rscale>  4 0.75740164E+03</rscale>
<asrwt>0</asrwt>
<pdfrwt beam="1">  1        1 0.85678190E-01 0.75740164E+03</pdfrwt>
<pdfrwt beam="2">  1       -1 0.39618269E-01 0.75740164E+03</pdfrwt>
<totfact> 0.23900725E+02</totfact>
</mgrwt>
</event>
<event>
 5    0  0.5719562E-003  0.5792391E+03  0.7546771E-02  0.9949440E-01
          2   -1    0    0  502    0  0.00000000000E+00  0.00000000000E+00  0.10450602441E+04  0.10450602441E+04  0.00000000000E+00 0. -1.
         -2   -1    0    0    0  501 -0.00000000000E+00 -0.00000000000E+00 -0.80262819100E+02  0.80262819100E+02  0.00000000000E+00 0.  1.
         25    1    1    2    0    0  0.66379698534E+02 -0.25195109042E+03  0.36184799242E+03  0.46308161911E+03  0.12500000000E+03 0.  0.
          2    1    1    2  502    0 -0.25456338961E+02  0.15409399028E+03  0.26040641767E+03  0.30365191485E+03  0.00000000000E+00 0.  1.
         -2    1    1    2    0  501 -0.40923359574E+02  0.97857100142E+02  0.34254301491E+03  0.35858952923E+03  0.00000000000E+00 0. -1.
<mgrwt>
<rscale>  4 0.57923909E+03</rscale>
<asrwt>0</asrwt>
<pdfrwt beam="1">  1        2 0.16077849E+00 0.57923909E+03</pdfrwt>
<pdfrwt beam="2">  1       -2 0.12348127E-01 0.57923909E+03</pdfrwt>
<totfact> 0.11544345E+03</totfact>
</mgrwt>
</event>
<event>
 5    0  0.5719562E-003  0.5356043E+03  0.7546771E-02  0.1004882E+00
          1   -1    0    0  502    0  0.00000000000E+00  0.00000000000E+00  0.34555114494E+03  0.34555114494E+03  0.00000000000E+00 0. -1.
         -1   -1    0    0    0  501 -0.00000000000E+00 -0.00000000000E+00 -0.20754666867E+03  0.20754666867E+03  0.00000000000E+00 0.  1.
         25    1    1    2    0    0 -0.24747315257E+02 -0.21544823935E+03  0.97263699259E+02  0.26854347999E+03  0.12500000000E+03 0.  0.
          4    1    1    2  502    0  0.95096621937E+02  0.10707240469E+03  0.57394356235E+02  0.15427890160E+03  0.00000000000E+00 0. -1.
         -4    1    1    2    0  501 -0.70349306680E+02  0.10837583466E+03 -0.16653579224E+02  0.13027543202E+03  0.00000000000E+00 0.  1.
<mgrwt>
<rscale>  4 0.53560429E+03</rscale>
<asrwt>0</asrwt>
<pdfrwt beam="1">  1        1 0.53161715E-01 0.53560429E+03</pdfrwt>
<pdfrwt beam="2">  1       -1 0.31930257E-01 0.53560429E+03</pdfrwt>
<totfact> 0.67104249E+02</totfact>
</mgrwt>
</event>
<event>
 5    0  0.5719562E-003  0.5877216E+03  0.7546771E-02  0.9931212E-01
          2   -1    0    0  502    0  0.00000000000E+00  0.00000000000E+00  0.25399657550E+04  0.25399657550E+04  0.00000000000E+00 0. -1.
         -2   -1    0    0    0  501 -0.00000000000E+00 -0.00000000000E+00 -0.33998160568E+02  0.33998160568E+02  0.00000000000E+00 0.  1.
         25    1    1    2    0    0  0.14915673334E+02 -0.22132062314E+03  0.82050142408E+03  0.85910004217E+03  0.12500000000E+03 0.  0.
          3    1    1    2  502    0  0.54980799054E+01  0.84252168018E+02  0.13397378578E+04  0.13423956884E+04  0.00000000000E+00 0. -1.
         -3    1    1    2    0  501 -0.20413753240E+02  0.13706845513E+03  0.34572831256E+03  0.37246818498E+03  0.00000000000E+00 0.  1.
<mgrwt>
<rscale>  4 0.58772158E+03</rscale>
<asrwt>0</asrwt>
<pdfrwt beam="1">  1        2 0.39076381E+00 0.58772158E+03</pdfrwt>
<pdfrwt beam="2">  1       -2 0.52304882E-02 0.58772158E+03</pdfrwt>
<totfact> 0.66919440E+02</totfact>
</mgrwt>
</event>
<event>
 5    0  0.5719562E-003  0.5450517E+03  0.7546771E-02  0.1002646E+00
          2   -1    0    0  502    0  0.00000000000E+00  0.00000000000E+00  0.29125931721E+03  0.29125931721E+03  0.00000000000E+00 0.  1.
         -2   -1    0    0    0  501 -0.00000000000E+00 -0.00000000000E+00 -0.25499727751E+03  0.25499727751E+03  0.00000000000E+00 0. -1.
         25    1    1    2    0    0  0.18455139754E+03  0.82139046286E+02  0.39401179518E+02  0.24079762085E+03  0.12500000000E+03 0.  0.
          2    1    1    2  502    0  0.14631513939E+02 -0.44835144736E+02  0.74729273202E+02  0.88367050856E+02  0.00000000000E+00 0.  1.
         -2    1    1    2    0  501 -0.19918291148E+03 -0.37303901550E+02 -0.77868413021E+02  0.21709192302E+03  0.00000000000E+00 0. -1.
<mgrwt>
<rscale>  4 0.54505168E+03</rscale>
<asrwt>0</asrwt>
<pdfrwt beam="1">  1        2 0.44809126E-01 0.54505168E+03</pdfrwt>
<pdfrwt beam="2">  1       -2 0.39230350E-01 0.54505168E+03</pdfrwt>
<totfact> 0.70104893E+02</totfact>
</mgrwt>
</event>
<event>
 5    0  0.5719562E-003  0.6537702E+03  0.7546771E-02  0.9799730E-01
         -1   -1    0    0    0  501 -0.00000000000E+00  0.00000000000E+00  0.61102072661E+03  0.61102072661E+03  0.00000000000E+00 0.  1.
          1   -1    0    0  502    0  0.00000000000E+00 -0.00000000000E+00 -0.17487763755E+03  0.17487763755E+03  0.00000000000E+00 0. -1.
         25    1    1    2    0    0  0.11252598376E+03  0.20363632351E+03  0.28601272877E+03  0.38930467541E+03  0.12500000000E+03 0.  0.
          3    1    1    2  502    0 -0.35951052823E+02  0.14464926923E+02  0.16059427190E+03  0.16520360916E+03  0.00000000000E+00 0.  1.
         -3    1    1    2    0  501 -0.76574930939E+02 -0.21810125043E+03 -0.10463911618E+02  0.23139007959E+03  0.00000000000E+00 0. -1.
<mgrwt>
<rscale>  4 0.65377018E+03</rscale>
<asrwt>0</asrwt>
<pdfrwt beam="1">  1        1 0.26904252E-01 0.65377018E+03</pdfrwt>
<pdfrwt beam="2">  1       -1 0.94003188E-01 0.65377018E+03</pdfrwt>
<totfact> 0.19761531E+02</totfact>
</mgrwt>
</event>
<event>
 5    0  0.5719562E-003  0.6161757E+03  0.7546771E-02  0.9872404E-01
          1   -1    0    0  502    0  0.00000000000E+00  0.00000000000E+00  0.11866339388E+04  0.11866339388E+04  0.00000000000E+00 0. -1.
         -1   -1    0    0    0  501 -0.00000000000E+00 -0.00000000000E+00 -0.79989386006E+02  0.79989386006E+02  0.00000000000E+00 0.  1.
         25    1    1    2    0    0  0.18872298152E+03 -0.18019538416E+03  0.68589380321E+03  0.74442061330E+03  0.12500000000E+03 0.  0.
          4    1    1    2  502    0 -0.11821546916E+03  0.78260011553E+02  0.87381889714E+02  0.16653864778E+03  0.00000000000E+00 0.  1.
         -4    1    1    2    0  501 -0.70507512363E+02  0.10193537261E+03  0.33336885986E+03  0.35566406371E+03  0.00000000000E+00 0. -1.
<mgrwt>
<rscale>  4 0.61617569E+03</rscale>
<asrwt>0</asrwt>
<pdfrwt beam="1">  1        1 0.18255906E+00 0.61617569E+03</pdfrwt>
<pdfrwt beam="2">  1       -1 0.12306060E-01 0.61617569E+03</pdfrwt>
<totfact> 0.50429542E+02</totfact>
</mgrwt>
</event>
<event>
 5    0  0.5719562E-003  0.1267965E+04  0.7546771E-02  0.9055362E-01
         -2   -1    0    0    0  501 -0.00000000000E+00  0.00000000000E+00  0.56384937231E+03  0.56384937231E+03  0.00000000000E+00 0. -1.
          2   -1    0    0  502    0  0.00000000000E+00 -0.00000000000E+00 -0.71283928829E+03  0.71283928829E+03  0.00000000000E+00 0.  1.
         25    1    1    2    0    0  0.91707166358E+02 -0.42156650685E+03  0.36634817557E+03  0.57962445583E+03  0.12500000000E+03 0.  0.
          2    1    1    2  502    0 -0.71466617475E+02  0.28453710099E+03 -0.20702818816E+03  0.35906755624E+03  0.00000000000E+00 0.  1.
         -2    1    1    2    0  501 -0.20240548884E+02  0.13702940586E+03 -0.30830990339E+03  0.33799664853E+03  0.00000000000E+00 0. -1.
<mgrwt>
<rscale>  4 0.12679653E+04</rscale>
<asrwt>0</asrwt>
<pdfrwt beam="1">  1        2 0.10966758E+00 0.12679653E+04</pdfrwt>
<pdfrwt beam="2">  1       -2 0.86746058E-01 0.12679653E+04</pdfrwt>
<totfact> 0.45255082E+01</totfact>
</mgrwt>
</event>
<event>
 5    0  0.5719562E-003  0.5235808E+03  0.7546771E-02  0.1007801E+00
          1   -1    0    0  502    0  0.00000000000E+00  0.00000000000E+00  0.42059398171E+03  0.42059398171E+03  0.00000000000E+00 0.  1.
         -1   -1    0    0    0  501 -0.00000000000E+00 -0.00000000000E+00 -0.16294627083E+03  0.16294627083E+03  0.00000000000E+00 0. -1.
         25    1    1    2    0    0  0.63340329271E+02 -0.19815073714E+03  0.26604399005E+03  0.36011125584E+03  0.12500000000E+03 0.  0.
          3    1    1    2  502    0 -0.32997022950E+02  0.14878495867E+03  0.28070365667E+02  0.15496358566E+03  0.00000000000E+00 0.  1.
         -3    1    1    2    0  501 -0.30343306321E+02  0.49365778469E+02 -0.36466644840E+02  0.68465411036E+02  0.00000000000E+00 0. -1.
<mgrwt>
<rscale>  4 0.52358083E+03</rscale>
<asrwt>0</asrwt>
<pdfrwt beam="1">  1        1 0.64706766E-01 0.52358083E+03</pdfrwt>
<pdfrwt beam="2">  1       -1 0.25068657E-01 0.52358083E+03</pdfrwt>
<totfact> 0.78677203E+02</totfact>
</mgrwt>
</event>
<event>
 5    0  0.5719562E-003  0.5286690E+03  0.7546771E-02  0.1006555E+00
          1   -1    0    0  502    0  0.00000000000E+00  0.00000000000E+00  0.87450691890E+03  0.87450691890E+03  0.00000000000E+00 0. -1.
         -1   -1    0    0    0  501 -0.00000000000E+00 -0.00000000000E+00 -0.79899571223E+02  0.79899571223E+02  0.00000000000E+00 0.  1.
         25    1    1    2    0    0  0.22453033015E+02 -0.21245412459E+03  0.20735651748E+03  0.32289722683E+03  0.12500000000E+03 0.  0.
          2    1    1    2  502    0  0.15859463077E+02  0.11505359786E+03  0.40519694213E+03  0.42151324399E+03  0.00000000000E+00 0. -1.
         -2    1    1    2    0  501 -0.38312496092E+02  0.97400526733E+02  0.18205388806E+03  0.20999601930E+03  0.00000000000E+00 0.  1.
<mgrwt>
<rscale>  4 0.52866900E+03</rscale>
<asrwt>0</asrwt>
<pdfrwt beam="1">  1        1 0.13453952E+00 0.52866900E+03</pdfrwt>
<pdfrwt beam="2">  1       -1 0.12292242E-01 0.52866900E+03</pdfrwt>
<totfact> 0.87731724E+02</totfact>
</mgrwt>
</event>
<event>
 5    0  0.5719562E-003  0.5211323E+03  0.7546771E-02  0.1008406E+00
          1   -1    0    0  502    0  0.00000000000E+00  0.00000000000E+00  0.44159781494E+03  0.44159781494E+03  0.00000000000E+00 0.  1.
         -1   -1    0    0    0  501 -0.00000000000E+00 -0.00000000000E+00 -0.15374784963E+03  0.15374784963E+03  0.00000000000E+00 0. -1.
         25    1    1    2    0    0 -0.20116136984E+03  0.77605435687E+02  0.20921706318E+03  0.32540018422E+03  0.12500000000E+03 0.  0.
          2    1    1    2  502    0  0.21103333973E+02  0.32024801909E+02 -0.12421343214E+02  0.40314121711E+02  0.00000000000E+00 0.  1.
         -2    1    1    2    0  501  0.18005803587E+03 -0.10963023760E+03  0.91054245331E+02  0.22963135864E+03  0.00000000000E+00 0. -1.
<mgrwt>
<rscale>  4 0.52113228E+03</rscale>
<asrwt>0</asrwt>
<pdfrwt beam="1">  1        1 0.67938125E-01 0.52113228E+03</pdfrwt>
<pdfrwt beam="2">  1       -1 0.23653515E-01 0.52113228E+03</pdfrwt>
<totfact> 0.81357352E+02</totfact>
</mgrwt>
</event>
<event>
 5    0  0.5719562E-003  0.7611575E+03  0.7546771E-02  0.9618007E-01
         -1   -1    0    0    0  501 -0.00000000000E+00  0.00000000000E+00  0.12853390765E+03  0.12853390765E+03  0.00000000000E+00 0. -1.
          1   -1    0    0  502    0  0.00000000000E+00 -0.00000000000E+00 -0.11268635088E+04  0.11268635088E+04  0.00000000000E+00 0.  1.
         25    1    1    2    0    0 -0.24492788374E+02  0.32436441504E+03 -0.23932370817E+03  0.42274461288E+03  0.12500000000E+03 0.  0.
          2    1    1    2  502    0 -0.16165329125E+02 -0.14921548958E+02 -0.17399037461E+02  0.28048119252E+02  0.00000000000E+00 0. -1.
         -2    1    1    2    0  501  0.40658117499E+02 -0.30944286608E+03 -0.74160685553E+03  0.80460468434E+03  0.00000000000E+00 0.  1.
<mgrwt>
<rscale>  4 0.76115746E+03</rscale>
<asrwt>0</asrwt>
<pdfrwt beam="1">  1        1 0.17336362E+00 0.76115746E+03</pdfrwt>
<pdfrwt beam="2">  1       -1 0.19774447E-01 0.76115746E+03</pdfrwt>
<totfact> 0.25532423E+02</totfact>
</mgrwt>
</event>
<event>
 5    0  0.5719562E-003  0.6097559E+03  0.7546771E-02  0.9885370E-01
          1   -1    0    0  502    0  0.00000000000E+00  0.00000000000E+00  0.48434728041E+03  0.48434728041E+03  0.00000000000E+00 0. -1.
         -1   -1    0    0    0  501 -0.00000000000E+00 -0.00000000000E+00 -0.19190892153E+03  0.19190892153E+03  0.00000000000E+00 0.  1.
         25    1    1    2    0    0 -0.26330733475E+03  0.10440639663E+03  0.83678446563E+02  0.32071565382E+03  0.12500000000E+03 0.  0.
          2    1    1    2  502    0  0.28496349576E+02 -0.10409853425E+01  0.37356079881E+02  0.46995768892E+02  0.00000000000E+00 0.  1.
         -2    1    1    2    0  501  0.23481098517E+03 -0.10336541128E+03  0.17140383244E+03  0.30854477922E+03  0.00000000000E+00 0. -1.
<mgrwt>
<rscale>  4 0.60975590E+03</rscale>
<asrwt>0</asrwt>
<pdfrwt beam="1">  1        1 0.74514966E-01 0.60975590E+03</pdfrwt>
<pdfrwt beam="2">  1       -1 0.29524450E-01 0.60975590E+03</pdfrwt>
<totfact> 0.49113116E+02</totfact>
</mgrwt>
</event>
<event>
 5    0  0.5719562E-003  0.5208267E+03  0.7546771E-02  0.1008481E+00
          2   -1    0    0  502    0  0.00000000000E+00  0.00000000000E+00  0.94129112233E+03  0.94129112233E+03  0.00000000000E+00 0. -1.
         -2   -1    0    0    0  501 -0.00000000000E+00 -0.00000000000E+00 -0.72044784940E+02  0.72044784940E+02  0.00000000000E+00 0.  1.
         25    1    1    2    0    0 -0.14287383009E+03  0.18235542121E+03  0.54460142413E+03  0.60488192413E+03  0.12500000000E+03 0.  0.
          3    1    1    2  502    0  0.43434966759E+02 -0.51205979295E+02  0.16932258310E+03  0.18215044826E+03  0.00000000000E+00 0. -1.
         -3    1    1    2    0  501  0.99438863332E+02 -0.13114944191E+03  0.15532233015E+03  0.22630353487E+03  0.00000000000E+00 0.  1.
<mgrwt>
<rscale>  4 0.52082671E+03</rscale>
<asrwt>0</asrwt>
<pdfrwt beam="1">  1        2 0.14481401E+00 0.52082671E+03</pdfrwt>
<pdfrwt beam="2">  1       -2 0.11083814E-01 0.52082671E+03</pdfrwt>
<totfact> 0.16052787E+03</totfact>
</mgrwt>
</event>
<event>
 5    0  0.5719562E-003  0.9316911E+03  0.7546771E-02  0.9386811E-01
          1   -1    0    0  502    0  0.00000000000E+00  0.00000000000E+00  0.73873186536E+03  0.73873186536E+03  0.00000000000E+00 0.  1.
         -1   -1    0    0    0  501 -0.00000000000E+00 -0.00000000000E+00 -0.29376298835E+03  0.29376298835E+03  0.00000000000E+00 0. -1.
         25    1    1    2    0    0 -0.29239530998E+03 -0.25203340670E+03  0.33232419101E+03  0.52448090844E+03  0.12500000000E+03 0.  0.
          2    1    1    2  502    0 -0.33745977788E+02 -0.25660435901E+02 -0.34957950417E+02  0.54948223673E+02  0.00000000000E+00 0.  1.
         -2    1    1    2    0  501  0.32614128777E+03  0.27769384260E+03  0.14760263643E+03  0.45306572160E+03  0.00000000000E+00 0. -1.
<mgrwt>
<rscale>  4 0.93169111E+03</rscale>
<asrwt>0</asrwt>
<pdfrwt beam="1">  1        1 0.11365106E+00 0.93169111E+03</pdfrwt>
<pdfrwt beam="2">  1       -1 0.45194306E-01 0.93169111E+03</pdfrwt>
<totfact> 0.12251651E+02</totfact>
</mgrwt>
</event>
<event>
 5    0  0.5719562E-003  0.7081380E+03  0.7546771E-02  0.9703415E-01
          2   -1    0    0  502    0  0.00000000000E+00  0.00000000000E+00  0.88046958068E+03  0.88046958068E+03  0.00000000000E+00 0.  1.
         -2   -1    0    0    0  501 -0.00000000000E+00 -0.00000000000E+00 -0.14238409852E+03  0.14238409852E+03  0.00000000000E+00 0. -1.
         25    1    1    2    0    0  0.19945000002E+03  0.64454051256E+02  0.74952940567E+03  0.78826008220E+03  0.12500000000E+03 0.  0.
          3    1    1    2  502    0 -0.15674025497E+03 -0.82387704231E+02 -0.38132082601E+02  0.18113336816E+03  0.00000000000E+00 0. -1.
         -3    1    1    2    0  501 -0.42709745049E+02  0.17933652975E+02  0.26688159101E+02  0.53460228838E+02  0.00000000000E+00 0.  1.
<mgrwt>
<rscale>  4 0.70813803E+03</rscale>
<asrwt>0</asrwt>
<pdfrwt beam="1">  1        2 0.13545686E+00 0.70813803E+03</pdfrwt>
<pdfrwt beam="2">  1       -2 0.21905246E-01 0.70813803E+03</pdfrwt>
<totfact> 0.55271505E+02</totfact>
</mgrwt>
</event>
<event>
 5    0  0.5719562E-003  0.7096118E+03  0.7546771E-02  0.9700934E-01
          1   -1    0    0  502    0  0.00000000000E+00  0.00000000000E+00  0.87503688077E+03  0.87503688077E+03  0.00000000000E+00 0. -1.
         -1   -1    0    0    0  501 -0.00000000000E+00 -0.00000000000E+00 -0.14386505773E+03  0.14386505773E+03  0.00000000000E+00 0.  1.
         25    1    1    2    0    0 -0.21296216134E+03  0.18343714121E+02  0.51484195381E+03  0.57129380481E+03  0.12500000000E+03 0.  0.
          1    1    1    2  502    0  0.95015490976E+02  0.53666603193E+02  0.27622208993E+03  0.29699611242E+03  0.00000000000E+00 0. -1.
         -1    1    1    2    0  501  0.11794667037E+03 -0.72010317314E+02 -0.59892220698E+02  0.15061202127E+03  0.00000000000E+00 0.  1.
<mgrwt>
<rscale>  4 0.70961181E+03</rscale>
<asrwt>0</asrwt>
<pdfrwt beam="1">  1        1 0.13462105E+00 0.70961181E+03</pdfrwt>
<pdfrwt beam="2">  1       -1 0.22133086E-01 0.70961181E+03</pdfrwt>
<totfact> 0.33274642E+02</totfact>
</mgrwt>
</event>
<event>
 5    0  0.5719562E-003  0.8873455E+03  0.7546771E-02  0.9441540E-01
          2   -1    0    0  502    0  0.00000000000E+00  0.00000000000E+00  0.14662987037E+04  0.14662987037E+04  0.00000000000E+00 0.  1.
         -2   -1    0    0    0  501 -0.00000000000E+00 -0.00000000000E+00 -0.13424653562E+03  0.13424653562E+03  0.00000000000E+00 0. -1.
         25    1    1    2    0    0 -0.15902712783E+02 -0.31246387124E+03  0.24956878319E+03  0.41928050831E+03  0.12500000000E+03 0.  0.
          1    1    1    2  502    0 -0.12262719765E+03  0.30158015818E+02  0.14415245222E+03  0.19164254487E+03  0.00000000000E+00 0. -1.
         -1    1    1    2    0  501  0.13852991043E+03  0.28230585543E+03  0.93833093264E+03  0.98962218611E+03  0.00000000000E+00 0.  1.
<mgrwt>
<rscale>  4 0.88734553E+03</rscale>
<asrwt>0</asrwt>
<pdfrwt beam="1">  1        2 0.22558440E+00 0.88734553E+03</pdfrwt>
<pdfrwt beam="2">  1       -2 0.20653314E-01 0.88734553E+03</pdfrwt>
<totfact> 0.26869105E+02</totfact>
</mgrwt>
</event>
<event>
 5    0  0.5719562E-003  0.8633244E+03  0.7546771E-02  0.9472626E-01
          2   -1    0    0  502    0  0.00000000000E+00  0.00000000000E+00  0.54284281282E+03  0.54284281282E+03  0.00000000000E+00 0. -1.
         -2   -1    0    0    0  501 -0.00000000000E+00 -0.00000000000E+00 -0.34325272390E+03  0.34325272390E+03  0.00000000000E+00 0.  1.
         25    1    1    2    0    0 -0.31355484992E+03  0.18249190432E+03  0.74921144497E+02  0.39097073669E+03  0.12500000000E+03 0.  0.
          2    1    1    2  502    0  0.26134226012E+03 -0.40520899999E+02  0.19472735415E+03  0.32842116667E+03  0.00000000000E+00 0. -1.
         -2    1    1    2    0  501  0.52212589799E+02 -0.14197100433E+03 -0.70058409724E+02  0.16670363336E+03  0.00000000000E+00 0.  1.
<mgrwt>
<rscale>  4 0.86332444E+03</rscale>
<asrwt>0</asrwt>
<pdfrwt beam="1">  1        2 0.83514279E-01 0.86332444E+03</pdfrwt>
<pdfrwt beam="2">  1       -2 0.52808111E-01 0.86332444E+03</pdfrwt>
<totfact> 0.19008343E+02</totfact>
</mgrwt>
</event>
<event>
 5    0  0.5719562E-003  0.5291140E+03  0.7546771E-02  0.1006447E+00
         -2   -1    0    0    0  501 -0.00000000000E+00  0.00000000000E+00  0.12766786351E+03  0.12766786351E+03  0.00000000000E+00 0. -1.
          2   -1    0    0  502    0  0.00000000000E+00 -0.00000000000E+00 -0.54822261580E+03  0.54822261580E+03  0.00000000000E+00 0.  1.
         25    1    1    2    0    0 -0.16084032551E+03 -0.13027854280E+03 -0.39237658792E+03  0.46089748944E+03  0.12500000000E+03 0.  0.
          3    1    1    2  502    0  0.35266689232E+02  0.21060506618E+02  0.13840138585E+02  0.43345515852E+02  0.00000000000E+00 0.  1.
         -3    1    1    2    0  501  0.12557363628E+03  0.10921803619E+03 -0.42018302955E+02  0.17164747403E+03  0.00000000000E+00 0. -1.
<mgrwt>
<rscale>  4 0.52911401E+03</rscale>
<asrwt>0</asrwt>
<pdfrwt beam="1">  1        2 0.84341940E-01 0.52911401E+03</pdfrwt>
<pdfrwt beam="2">  1       -2 0.19641210E-01 0.52911401E+03</pdfrwt>
<totfact> 0.12191099E+03</totfact>
</mgrwt>
</event>
<event>
 5    0  0.5719562E-003  0.5675147E+03  0.7546771E-02  0.9975193E-01
          2   -1    0    0  502    0  0.00000000000E+00  0.00000000000E+00  0.57532953381E+03  0.57532953381E+03  0.00000000000E+00 0. -1.
         -2   -1    0    0    0  501 -0.00000000000E+00 -0.00000000000E+00 -0.13995150444E+03  0.13995150444E+03  0.00000000000E+00 0.  1.
         25    1    1    2    0    0 -0.58068874136E+01 -0.22296109056E+03  0.41621506362E+02  0.25904192255E+03  0.12500000000E+03 0.  0.
          2    1    1    2  502    0  0.19036953339E+02  0.23440138283E+02  0.59908951911E+02  0.67088957319E+02  0.00000000000E+00 0.  1.
         -2    1    1    2    0  501 -0.13230065925E+02  0.19952095228E+03  0.33384757109E+03  0.38915015838E+03  0.00000000000E+00 0. -1.
<mgrwt>
<rscale>  4 0.56751470E+03</rscale>
<asrwt>0</asrwt>
<pdfrwt beam="1">  1        2 0.88512235E-01 0.56751470E+03</pdfrwt>
<pdfrwt beam="2">  1       -2 0.21531001E-01 0.56751470E+03</pdfrwt>
<totfact> 0.98083939E+02</totfact>
</mgrwt>
</event>
<event>
 5    0  0.5719562E-003  0.5190069E+03  0.7546771E-02  0.1008934E+00
          2   -1    0    0  502    0  0.00000000000E+00  0.00000000000E+00  0.13988177011E+04  0.13988177011E+04  0.00000000000E+00 0. -1.
         -2   -1    0    0    0  501 -0.00000000000E+00 -0.00000000000E+00 -0.48142108826E+02  0.48142108826E+02  0.00000000000E+00 0.  1.
         25    1    1    2    0    0  0.16181441357E+03  0.17307278435E+03  0.66113356039E+03  0.71334471176E+03  0.12500000000E+03 0.  0.
          4    1    1    2  502    0 -0.16410023042E+02 -0.49888347128E+02  0.23394625038E+03  0.23976860533E+03  0.00000000000E+00 0. -1.
         -4    1    1    2    0  501 -0.14540439053E+03 -0.12318443722E+03  0.45559578146E+03  0.49384649280E+03  0.00000000000E+00 0.  1.
<mgrwt>
<rscale>  4 0.51900687E+03</rscale>
<asrwt>0</asrwt>
<pdfrwt beam="1">  1        2 0.21520269E+00 0.51900687E+03</pdfrwt>
<pdfrwt beam="2">  1       -2 0.74064794E-02 0.51900687E+03</pdfrwt>
<totfact> 0.16397468E+03</totfact>
</mgrwt>
</event>
<event>
 5    0  0.5719562E-003  0.5954294E+03  0.7546771E-02  0.9914934E-01
         -2   -1    0    0    0  501 -0.00000000000E+00  0.00000000000E+00  0.71820727439E+02  0.71820727439E+02  0.00000000000E+00 0.  1.
          2   -1    0    0  502    0  0.00000000000E+00 -0.00000000000E+00 -0.12341012960E+04  0.12341012960E+04  0.00000000000E+00 0. -1.
         25    1    1    2    0    0 -0.20475512907E+03 -0.13467914372E+03 -0.77512338881E+03  0.82249887691E+03  0.12500000000E+03 0.  0.
          3    1    1    2  502    0  0.11935379557E+03 -0.10810270223E+02 -0.14172996952E+03  0.18560596628E+03  0.00000000000E+00 0.  1.
         -3    1    1    2    0  501  0.85401333499E+02  0.14548941394E+03 -0.24542721025E+03  0.29781718027E+03  0.00000000000E+00 0. -1.
<mgrwt>
<rscale>  4 0.59542943E+03</rscale>
<asrwt>0</asrwt>
<pdfrwt beam="1">  1        2 0.18986172E+00 0.59542943E+03</pdfrwt>
<pdfrwt beam="2">  1       -2 0.11049344E-01 0.59542943E+03</pdfrwt>
<totfact> 0.10671223E+03</totfact>
</mgrwt>
</event>
<event>
 5    0  0.5719562E-003  0.5856322E+03  0.7546771E-02  0.9935671E-01
         -1   -1    0    0    0  501 -0.00000000000E+00  0.00000000000E+00  0.32776259986E+02  0.32776259986E+02  0.00000000000E+00 0. -1.
          1   -1    0    0  502    0  0.00000000000E+00 -0.00000000000E+00 -0.26159566982E+04  0.26159566982E+04  0.00000000000E+00 0.  1.
         25    1    1    2    0    0 -0.72504391713E+02 -0.22739423940E+03 -0.18949676251E+04  0.19140251636E+04  0.12500000000E+03 0.  0.
          3    1    1    2  502    0  0.32623304501E+02  0.16490464180E+03 -0.57749985369E+03  0.60146812210E+03  0.00000000000E+00 0.  1.
         -3    1    1    2    0  501  0.39881087212E+02  0.62489597607E+02 -0.11071295943E+03  0.13323967244E+03  0.00000000000E+00 0. -1.
<mgrwt>
<rscale>  4 0.58563223E+03</rscale>
<asrwt>0</asrwt>
<pdfrwt beam="1">  1        1 0.40245483E+00 0.58563223E+03</pdfrwt>
<pdfrwt beam="2">  1       -1 0.50425021E-02 0.58563223E+03</pdfrwt>
<totfact> 0.21924244E+02</totfact>
</mgrwt>
</event>
<event>
 5    0  0.5719562E-003  0.4846441E+03  0.7546771E-02  0.1017867E+00
         -1   -1    0    0    0  501 -0.00000000000E+00  0.00000000000E+00  0.28882271006E+03  0.28882271006E+03  0.00000000000E+00 0.  1.
          1   -1    0    0  502    0  0.00000000000E+00 -0.00000000000E+00 -0.20330800739E+03  0.20330800739E+03  0.00000000000E+00 0. -1.
         25    1    1    2    0    0  0.14011457252E+03  0.17162000145E+03  0.13977585359E+02  0.25476634633E+03  0.12500000000E+03 0.  0.
          1    1    1    2  502    0 -0.11557319028E+03 -0.16096319469E+03  0.54033504224E+02  0.20539214186E+03  0.00000000000E+00 0. -1.
         -1    1    1    2    0  501 -0.24541382238E+02 -0.10656806757E+02  0.17503613086E+02  0.31972229254E+02  0.00000000000E+00 0.  1.
<mgrwt>
<rscale>  4 0.48464407E+03</rscale>
<asrwt>0</asrwt>
<pdfrwt beam="1">  1        1 0.31278155E-01 0.48464407E+03</pdfrwt>
<pdfrwt beam="2">  1       -1 0.44434263E-01 0.48464407E+03</pdfrwt>
<totfact> 0.73499773E+02</totfact>
</mgrwt>
</event>
<event>
 5    0  0.5719562E-003  0.9245070E+03  0.7546771E-02  0.9395455E-01
         -2   -1    0    0    0  501 -0.00000000000E+00  0.00000000000E+00  0.20528248999E+03  0.20528248999E+03  0.00000000000E+00 0. -1.
          2   -1    0    0  502    0  0.00000000000E+00 -0.00000000000E+00 -0.10408988115E+04  0.10408988115E+04  0.00000000000E+00 0.  1.
         25    1    1    2    0    0  0.37544291644E+02  0.29042145848E+03  0.19600954806E+02  0.31900375360E+03  0.12500000000E+03 0.  0.
          1    1    1    2  502    0  0.24252666049E+02 -0.29350474238E+03 -0.66912790467E+03  0.73107139078E+03  0.00000000000E+00 0. -1.
         -1    1    1    2    0  501 -0.61796957693E+02  0.30832838945E+01 -0.18608937168E+03  0.19610615715E+03  0.00000000000E+00 0.  1.
<mgrwt>
<rscale>  4 0.92450700E+03</rscale>
<asrwt>0</asrwt>
<pdfrwt beam="1">  1        2 0.16013828E+00 0.92450700E+03</pdfrwt>
<pdfrwt beam="2">  1       -2 0.31581921E-01 0.92450700E+03</pdfrwt>
<totfact> 0.22094321E+02</totfact>
</mgrwt>
</event>
<event>
 5    0  0.5719562E-003  0.5440546E+03  0.7546771E-02  0.1002879E+00
          2   -1    0    0  502    0  0.00000000000E+00  0.00000000000E+00  0.41814857818E+03  0.41814857818E+03  0.00000000000E+00 0.  1.
         -2   -1    0    0    0  501 -0.00000000000E+00 -0.00000000000E+00 -0.17696784265E+03  0.17696784265E+03  0.00000000000E+00 0. -1.
         25    1    1    2    0    0  0.57348881637E+02 -0.20762021751E+03  0.27602356117E+03  0.37176478486E+03  0.12500000000E+03 0.  0.
          3    1    1    2  502    0  0.74470385000E+01  0.24179895218E+02  0.18714127201E+01  0.25369822639E+02  0.00000000000E+00 0. -1.
         -3    1    1    2    0  501 -0.64795920137E+02  0.18344032229E+03 -0.36714238362E+02  0.19798181332E+03  0.00000000000E+00 0.  1.
<mgrwt>
<rscale>  4 0.54405460E+03</rscale>
<asrwt>0</asrwt>
<pdfrwt beam="1">  1        2 0.64330550E-01 0.54405460E+03</pdfrwt>
<pdfrwt beam="2">  1       -2 0.27225822E-01 0.54405460E+03</pdfrwt>
<totfact> 0.93065816E+02</totfact>
</mgrwt>
</event>
<event>
 5    0  0.5719562E-003  0.6973882E+03  0.7546771E-02  0.9721709E-01
         -2   -1    0    0    0  501 -0.00000000000E+00  0.00000000000E+00  0.51744521471E+02  0.51744521471E+02  0.00000000000E+00 0. -1.
          2   -1    0    0  502    0  0.00000000000E+00 -0.00000000000E+00 -0.23497667887E+04  0.23497667887E+04  0.00000000000E+00 0.  1.
         25    1    1    2    0    0  0.28568779537E+03  0.14956506551E+02 -0.17746017996E+04  0.18018539787E+04  0.12500000000E+03 0.  0.
          4    1    1    2  502    0 -0.54623187654E+02  0.21330411939E+02 -0.11032646591E+03  0.12494241947E+03  0.00000000000E+00 0.  1.
         -4    1    1    2    0  501 -0.23106460771E+03 -0.36286918490E+02 -0.41309400171E+03  0.47471491196E+03  0.00000000000E+00 0. -1.
<mgrwt>
<rscale>  4 0.69738815E+03</rscale>
<asrwt>0</asrwt>
<pdfrwt beam="1">  1        2 0.36150246E+00 0.69738815E+03</pdfrwt>
<pdfrwt beam="2">  1       -2 0.79606983E-02 0.69738815E+03</pdfrwt>
<totfact> 0.43717815E+02</totfact>
</mgrwt>
</event>
<event>
 5    0  0.5719562E-003  0.5660869E+03  0.7546771E-02  0.9978375E-01
          2   -1    0    0  502    0  0.00000000000E+00  0.00000000000E+00  0.16578838536E+04  0.16578838536E+04  0.00000000000E+00 0. -1.
         -2   -1    0    0    0  501 -0.00000000000E+00 -0.00000000000E+00 -0.48322797445E+02  0.48322797445E+02  0.00000000000E+00 0.  1.
         25    1    1    2    0    0 -0.19188576463E+03  0.92693471522E+02  0.11240355659E+04  0.11508662736E+04  0.12500000000E+03 0.  0.
          1    1    1    2  502    0  0.36192958484E+02 -0.82944798668E+02  0.79790418616E+02  0.12064941265E+03  0.00000000000E+00 0.  1.
         -1    1    1    2    0  501  0.15569280615E+03 -0.97486728539E+01  0.40573507171E+03  0.43469096485E+03  0.00000000000E+00 0. -1.
<mgrwt>
<rscale>  4 0.56608687E+03</rscale>
<asrwt>0</asrwt>
<pdfrwt beam="1">  1        2 0.25505901E+00 0.56608687E+03</pdfrwt>
<pdfrwt beam="2">  1       -2 0.74342778E-02 0.56608687E+03</pdfrwt>
<totfact> 0.11723650E+03</totfact>
</mgrwt>
</event>
<event>
 5    0  0.5719562E-003  0.4793026E+03  0.7546771E-02  0.1019327E+00
         -1   -1    0    0    0  501 -0.00000000000E+00  0.00000000000E+00  0.94558720190E+02  0.94558720190E+02  0.00000000000E+00 0.  1.
          1   -1    0    0  502    0  0.00000000000E+00 -0.00000000000E+00 -0.60737642512E+03  0.60737642512E+03  0.00000000000E+00 0. -1.
         25    1    1    2    0    0  0.16844037930E+03  0.13387032584E+03 -0.31252990903E+03  0.39949138859E+03  0.12500000000E+03 0.  0.
          2    1    1    2  502    0 -0.13349966020E+03 -0.13004562352E+03 -0.18922643766E+03  0.26559493252E+03  0.00000000000E+00 0. -1.
         -2    1    1    2    0  501 -0.34940719096E+02 -0.38247023126E+01 -0.11061358241E+02  0.36848824199E+02  0.00000000000E+00 0.  1.
<mgrwt>
<rscale>  4 0.47930257E+03</rscale>
<asrwt>0</asrwt>
<pdfrwt beam="1">  1        1 0.93442528E-01 0.47930257E+03</pdfrwt>
<pdfrwt beam="2">  1       -1 0.14547495E-01 0.47930257E+03</pdfrwt>
<totfact> 0.11681986E+03</totfact>
</mgrwt>
</event>
<event>
 5    0  0.5719562E-003  0.4634434E+03  0.7546771E-02  0.1023787E+00
          2   -1    0    0  502    0  0.00000000000E+00  0.00000000000E+00  0.12116804467E+04  0.12116804467E+04  0.00000000000E+00 0.  1.
         -2   -1    0    0    0  501 -0.00000000000E+00 -0.00000000000E+00 -0.44314451818E+02  0.44314451818E+02  0.00000000000E+00 0. -1.
         25    1    1    2    0    0 -0.18707390764E+03  0.95076433894E+02  0.72733030917E+03  0.76724869100E+03  0.12500000000E+03 0.  0.
          2    1    1    2  502    0  0.24354566205E+02 -0.22939693289E+02  0.51973775336E+02  0.61811388481E+02  0.00000000000E+00 0. -1.
         -2    1    1    2    0  501  0.16271934144E+03 -0.72136740605E+02  0.38806191037E+03  0.42693481904E+03  0.00000000000E+00 0.  1.
<mgrwt>
<rscale>  4 0.46344344E+03</rscale>
<asrwt>0</asrwt>
<pdfrwt beam="1">  1        2 0.18641235E+00 0.46344344E+03</pdfrwt>
<pdfrwt beam="2">  1       -2 0.68176089E-02 0.46344344E+03</pdfrwt>
<totfact> 0.23888502E+03</totfact>
</mgrwt>
</event>
<event>
 5    0  0.5719562E-003  0.6375892E+03  0.7546771E-02  0.9830350E-01
          2   -1    0    0  502    0  0.00000000000E+00  0.00000000000E+00  0.56227851156E+03  0.56227851156E+03  0.00000000000E+00 0. -1.
         -2   -1    0    0    0  501 -0.00000000000E+00 -0.00000000000E+00 -0.18074670068E+03  0.18074670068E+03  0.00000000000E+00 0.  1.
         25    1    1    2    0    0  0.63701090669E+02 -0.24854805258E+03  0.37883787421E+02  0.28791343273E+03  0.12500000000E+03 0.  0.
          2    1    1    2  502    0 -0.95692273996E+02  0.23132331416E+03  0.24621975909E+03  0.35112911691E+03  0.00000000000E+00 0. -1.
         -2    1    1    2    0  501  0.31991183327E+02  0.17224738422E+02  0.97428264360E+02  0.10398266260E+03  0.00000000000E+00 0.  1.
<mgrwt>
<rscale>  4 0.63758916E+03</rscale>
<asrwt>0</asrwt>
<pdfrwt beam="1">  1        2 0.86504386E-01 0.63758916E+03</pdfrwt>
<pdfrwt beam="2">  1       -2 0.27807185E-01 0.63758916E+03</pdfrwt>
<totfact> 0.63650615E+02</totfact>
</mgrwt>
</event>
<event>
 5    0  0.5719562E-003  0.5262639E+03  0.7546771E-02  0.1007142E+00
          2   -1    0    0  502    0  0.00000000000E+00  0.00000000000E+00  0.96473343505E+03  0.96473343505E+03  0.00000000000E+00 0. -1.
         -2   -1    0    0    0  501 -0.00000000000E+00 -0.00000000000E+00 -0.71769495539E+02  0.71769495539E+02  0.00000000000E+00 0.  1.
         25    1    1    2    0    0 -0.20844990524E+03 -0.52767528642E+02  0.40672434870E+03  0.47674466006E+03  0.12500000000E+03 0.  0.
          4    1    1    2  502    0  0.22392614895E+03  0.84139850044E+02  0.39186047175E+03  0.45910463281E+03  0.00000000000E+00 0. -1.
         -4    1    1    2    0  501 -0.15476243712E+02 -0.31372321402E+02  0.94379119066E+02  0.10065363771E+03  0.00000000000E+00 0.  1.
<mgrwt>
<rscale>  4 0.52626393E+03</rscale>
<asrwt>0</asrwt>
<pdfrwt beam="1">  1        2 0.14842052E+00 0.52626393E+03</pdfrwt>
<pdfrwt beam="2">  1       -2 0.11041462E-01 0.52626393E+03</pdfrwt>
<totfact> 0.15599569E+03</totfact>
</mgrwt>
</event>
<event>
 5    0  0.5719562E-003  0.4723058E+03  0.7546771E-02  0.1021271E+00
         -2   -1    0    0    0  501 -0.00000000000E+00  0.00000000000E+00  0.43284301680E+02  0.43284301680E+02  0.00000000000E+00 0.  1.
          2   -1    0    0  502    0  0.00000000000E+00 -0.00000000000E+00 -0.12884160616E+04  0.12884160616E+04  0.00000000000E+00 0. -1.
         25    1    1    2    0    0  0.19812152723E+03  0.76072700682E+02 -0.53417182460E+03  0.58822082039E+03  0.12500000000E+03 0.  0.
          2    1    1    2  502    0 -0.17016544641E+03 -0.45690413853E+02 -0.57525326979E+03  0.60163129695E+03  0.00000000000E+00 0.  1.
         -2    1    1    2    0  501 -0.27956080820E+02 -0.30382286829E+02 -0.13570666555E+03  0.14184824597E+03  0.00000000000E+00 0. -1.
<mgrwt>
<rscale>  4 0.47230579E+03</rscale>
<asrwt>0</asrwt>
<pdfrwt beam="1">  1        2 0.19821789E+00 0.47230579E+03</pdfrwt>
<pdfrwt beam="2">  1       -2 0.66591223E-02 0.47230579E+03</pdfrwt>
<totfact> 0.22394100E+03</totfact>
</mgrwt>
</event>
<event>
 5    0  0.5719562E-003  0.5642601E+03  0.7546771E-02  0.9982461E-01
          2   -1    0    0  502    0  0.00000000000E+00  0.00000000000E+00  0.39888908031E+03  0.39888908031E+03  0.00000000000E+00 0.  1.
         -2   -1    0    0    0  501 -0.00000000000E+00 -0.00000000000E+00 -0.19954763388E+03  0.19954763388E+03  0.00000000000E+00 0. -1.
         25    1    1    2    0    0  0.12700148992E+03 -0.22753201078E+03  0.73421245168E+02  0.29818764832E+03  0.12500000000E+03 0.  0.
          2    1    1    2  502    0 -0.80021906707E+02  0.18904391939E+03  0.67805994323E+02  0.21619149354E+03  0.00000000000E+00 0. -1.
         -2    1    1    2    0  501 -0.46979583211E+02  0.38488091390E+02  0.58114206945E+02  0.84057572332E+02  0.00000000000E+00 0.  1.
<mgrwt>
<rscale>  4 0.56426012E+03</rscale>
<asrwt>0</asrwt>
<pdfrwt beam="1">  1        2 0.61367551E-01 0.56426012E+03</pdfrwt>
<pdfrwt beam="2">  1       -2 0.30699636E-01 0.56426012E+03</pdfrwt>
<totfact> 0.78691023E+02</totfact>
</mgrwt>
</event>
<event>
 5    0  0.5719562E-003  0.6055809E+03  0.7546771E-02  0.9893895E-01
         -2   -1    0    0    0  501 -0.00000000000E+00  0.00000000000E+00  0.14127153542E+04  0.14127153542E+04  0.00000000000E+00 0.  1.
          2   -1    0    0  502    0  0.00000000000E+00 -0.00000000000E+00 -0.64897755484E+02  0.64897755484E+02  0.00000000000E+00 0. -1.
         25    1    1    2    0    0 -0.11601046567E+03  0.19409455563E+03  0.85696307813E+03  0.89506527245E+03  0.12500000000E+03 0.  0.
          3    1    1    2  502    0  0.16174553988E+03 -0.17183275180E+03  0.47307208304E+03  0.52866370220E+03  0.00000000000E+00 0. -1.
         -3    1    1    2    0  501 -0.45735074217E+02 -0.22261803822E+02  0.17782437532E+02  0.53884135027E+02  0.00000000000E+00 0.  1.
<mgrwt>
<rscale>  4 0.60558090E+03</rscale>
<asrwt>0</asrwt>
<pdfrwt beam="1">  1        2 0.99842711E-02 0.60558090E+03</pdfrwt>
<pdfrwt beam="2">  1       -2 0.21734080E+00 0.60558090E+03</pdfrwt>
<totfact> 0.70462888E+01</totfact>
</mgrwt>
</event>
<event>
 5    0  0.5719562E-003  0.6088358E+03  0.7546771E-02  0.9887242E-01
          1   -1    0    0  502    0  0.00000000000E+00  0.00000000000E+00  0.16068641644E+03  0.16068641644E+03  0.00000000000E+00 0.  1.
         -1   -1    0    0    0  501 -0.00000000000E+00 -0.00000000000E+00 -0.57671496549E+03  0.57671496549E+03  0.00000000000E+00 0. -1.
         25    1    1    2    0    0 -0.17053540641E+03  0.16214141419E+03 -0.41539470742E+03  0.49350777703E+03  0.12500000000E+03 0.  0.
          4    1    1    2  502    0  0.48418265712E+02 -0.39506010932E+02 -0.28352149373E+02  0.68621408674E+02  0.00000000000E+00 0. -1.
         -4    1    1    2    0  501  0.12211714070E+03 -0.12263540326E+03  0.27718307739E+02  0.17527219623E+03  0.00000000000E+00 0.  1.
<mgrwt>
<rscale>  4 0.60883581E+03</rscale>
<asrwt>0</asrwt>
<pdfrwt beam="1">  1        1 0.24720987E-01 0.60883581E+03</pdfrwt>
<pdfrwt beam="2">  1       -1 0.88725379E-01 0.60883581E+03</pdfrwt>
<totfact> 0.25110655E+02</totfact>
</mgrwt>
</event>
<event>
 5    0  0.5719562E-003  0.5367515E+03  0.7546771E-02  0.1004608E+00
         -2   -1    0    0    0  501 -0.00000000000E+00  0.00000000000E+00  0.97347835133E+02  0.97347835133E+02  0.00000000000E+00 0. -1.
          2   -1    0    0  502    0  0.00000000000E+00 -0.00000000000E+00 -0.73987811908E+03  0.73987811908E+03  0.00000000000E+00 0.  1.
         25    1    1    2    0    0  0.49891463293E+02  0.20507080659E+03 -0.38540239491E+03  0.45684045336E+03  0.12500000000E+03 0.  0.
          2    1    1    2  502    0 -0.58900565250E+02 -0.12941780679E+03 -0.36252613745E+02  0.14673955603E+03  0.00000000000E+00 0. -1.
         -2    1    1    2    0  501  0.90091019563E+01 -0.75652999799E+02 -0.22087527529E+03  0.23364594482E+03  0.00000000000E+00 0.  1.
<mgrwt>
<rscale>  4 0.53675146E+03</rscale>
<asrwt>0</asrwt>
<pdfrwt beam="1">  1        2 0.11382740E+00 0.53675146E+03</pdfrwt>
<pdfrwt beam="2">  1       -2 0.14976590E-01 0.53675146E+03</pdfrwt>
<totfact> 0.13449203E+03</totfact>
</mgrwt>
</event>
<event>
 5    0  0.5719562E-003  0.7285517E+03  0.7546771E-02  0.9669613E-01
         -3   -1    0    0    0  501 -0.00000000000E+00  0.00000000000E+00  0.57077411852E+03  0.57077411852E+03  0.00000000000E+00 0.  1.
          3   -1    0    0  502    0  0.00000000000E+00 -0.00000000000E+00 -0.23248582053E+03  0.23248582053E+03  0.00000000000E+00 0. -1.
         25    1    1    2    0    0  0.34230998883E+03 -0.47774432069E+01  0.23894053456E+03  0.43579413886E+03  0.12500000000E+03 0.  0.
          2    1    1    2  502    0 -0.15893263401E+03  0.98077321448E+01  0.82552278711E+00  0.15923710388E+03  0.00000000000E+00 0. -1.
         -2    1    1    2    0  501 -0.18337735482E+03 -0.50302889380E+01  0.98522240648E+02  0.20822869631E+03  0.00000000000E+00 0.  1.
<mgrwt>
<rscale>  4 0.72855168E+03</rscale>
<asrwt>0</asrwt>
<pdfrwt beam="1">  1        3 0.35767050E-01 0.72855168E+03</pdfrwt>
<pdfrwt beam="2">  1       -3 0.87811402E-01 0.72855168E+03</pdfrwt>
<totfact> 0.24041833E+01</totfact>
</mgrwt>
</event>
<event>
 5    0  0.5719562E-003  0.5582739E+03  0.7546771E-02  0.9995968E-01
         -2   -1    0    0    0  501 -0.00000000000E+00  0.00000000000E+00  0.34229120812E+03  0.34229120812E+03  0.00000000000E+00 0. -1.
          2   -1    0    0  502    0  0.00000000000E+00 -0.00000000000E+00 -0.22763495004E+03  0.22763495004E+03  0.00000000000E+00 0.  1.
         25    1    1    2    0    0 -0.29904061557E+02  0.19814649268E+03  0.23069512792E+03  0.33015379372E+03  0.12500000000E+03 0.  0.
          1    1    1    2  502    0 -0.15232811313E+02 -0.27860745838E+02 -0.30138561556E+02  0.43778905785E+02  0.00000000000E+00 0. -1.
         -1    1    1    2    0  501  0.45136872870E+02 -0.17028574684E+03 -0.85900308287E+02  0.19599345865E+03  0.00000000000E+00 0.  1.
<mgrwt>
<rscale>  4 0.55827392E+03</rscale>
<asrwt>0</asrwt>
<pdfrwt beam="1">  1        2 0.35020761E-01 0.55827392E+03</pdfrwt>
<pdfrwt beam="2">  1       -2 0.52660186E-01 0.55827392E+03</pdfrwt>
<totfact> 0.51272727E+02</totfact>
</mgrwt>
</event>
<event>
 5    0  0.5719562E-003  0.5448451E+03  0.7546771E-02  0.1002694E+00
          1   -1    0    0  502    0  0.00000000000E+00  0.00000000000E+00  0.93312393292E+02  0.93312393292E+02  0.00000000000E+00 0. -1.
         -1   -1    0    0    0  501 -0.00000000000E+00 -0.00000000000E+00 -0.79532888377E+03  0.79532888377E+03  0.00000000000E+00 0.  1.
         25    1    1    2    0    0  0.11235379023E+02  0.25194596127E+03 -0.34888512585E+03  0.44827316692E+03  0.12500000000E+03 0.  0.
          1    1    1    2  502    0 -0.12549215085E+01 -0.21951867462E+03 -0.25466647065E+03  0.33622170454E+03  0.00000000000E+00 0. -1.
         -1    1    1    2    0  501 -0.99804575147E+01 -0.32427286659E+02 -0.98464893977E+02  0.10414640559E+03  0.00000000000E+00 0.  1.
<mgrwt>
<rscale>  4 0.54484508E+03</rscale>
<asrwt>0</asrwt>
<pdfrwt beam="1">  1        1 0.14355752E-01 0.54484508E+03</pdfrwt>
<pdfrwt beam="2">  1       -1 0.12235829E+00 0.54484508E+03</pdfrwt>
<totfact> 0.24654105E+02</totfact>
</mgrwt>
</event>
<event>
 5    0  0.5719562E-003  0.7766041E+03  0.7546771E-02  0.9594513E-01
         -2   -1    0    0    0  501 -0.00000000000E+00  0.00000000000E+00  0.24458287627E+03  0.24458287627E+03  0.00000000000E+00 0. -1.
          2   -1    0    0  502    0  0.00000000000E+00 -0.00000000000E+00 -0.61647197723E+03  0.61647197723E+03  0.00000000000E+00 0.  1.
         25    1    1    2    0    0  0.20470667390E+03  0.93627991364E+02 -0.48570820549E+03  0.54973492156E+03  0.12500000000E+03 0.  0.
          4    1    1    2  502    0 -0.13527318545E+03 -0.56688707007E+02 -0.27842532948E+02  0.14929049148E+03  0.00000000000E+00 0.  1.
         -4    1    1    2    0  501 -0.69433488447E+02 -0.36939284357E+02  0.14166163747E+03  0.16202944046E+03  0.00000000000E+00 0. -1.
<mgrwt>
<rscale>  4 0.77660412E+03</rscale>
<asrwt>0</asrwt>
<pdfrwt beam="1">  1        2 0.94841842E-01 0.77660412E+03</pdfrwt>
<pdfrwt beam="2">  1       -2 0.37628135E-01 0.77660412E+03</pdfrwt>
<totfact> 0.32172693E+02</totfact>
</mgrwt>
</event>
<event>
 5    0  0.5719562E-003  0.5828925E+03  0.7546771E-02  0.9941548E-01
         -2   -1    0    0    0  501 -0.00000000000E+00  0.00000000000E+00  0.40436207090E+02  0.40436207090E+02  0.00000000000E+00 0.  1.
          2   -1    0    0  502    0  0.00000000000E+00 -0.00000000000E+00 -0.21006149906E+04  0.21006149906E+04  0.00000000000E+00 0. -1.
         25    1    1    2    0    0 -0.15865662204E+03  0.13508725996E+03 -0.48840395484E+03  0.54551252472E+03  0.12500000000E+03 0.  0.
          1    1    1    2  502    0  0.78341132708E+02 -0.52426427702E+02 -0.12534866121E+04  0.12570260738E+04  0.00000000000E+00 0. -1.
         -1    1    1    2    0  501  0.80315489330E+02 -0.82660832262E+02 -0.31828821653E+03  0.33851259918E+03  0.00000000000E+00 0.  1.
<mgrwt>
<rscale>  4 0.58289245E+03</rscale>
<asrwt>0</asrwt>
<pdfrwt beam="1">  1        2 0.32317156E+00 0.58289245E+03</pdfrwt>
<pdfrwt beam="2">  1       -2 0.62209544E-02 0.58289245E+03</pdfrwt>
<totfact> 0.89342730E+02</totfact>
</mgrwt>
</event>
<event>
 5    0  0.5719562E-003  0.6457213E+03  0.7546771E-02  0.9814841E-01
          1   -1    0    0  502    0  0.00000000000E+00  0.00000000000E+00  0.17223827411E+04  0.17223827411E+04  0.00000000000E+00 0. -1.
         -1   -1    0    0    0  501 -0.00000000000E+00 -0.00000000000E+00 -0.60520233839E+02  0.60520233839E+02  0.00000000000E+00 0.  1.
         25    1    1    2    0    0  0.13737278874E+03  0.14917972052E+03  0.94132277815E+03  0.97099919916E+03  0.12500000000E+03 0.  0.
          3    1    1    2  502    0 -0.19239409094E+03 -0.43091400437E+02  0.63508939964E+03  0.66498939883E+03  0.00000000000E+00 0. -1.
         -3    1    1    2    0  501  0.55021302197E+02 -0.10608832008E+03  0.85450329503E+02  0.14691437698E+03  0.00000000000E+00 0.  1.
<mgrwt>
<rscale>  4 0.64572132E+03</rscale>
<asrwt>0</asrwt>
<pdfrwt beam="1">  1        1 0.26498192E+00 0.64572132E+03</pdfrwt>
<pdfrwt beam="2">  1       -1 0.93108065E-02 0.64572132E+03</pdfrwt>
<totfact> 0.33486471E+02</totfact>
</mgrwt>
</event>
<event>
 5    0  0.5719562E-003  0.1242293E+04  0.7546771E-02  0.9076622E-01
          2   -1    0    0  502    0  0.00000000000E+00  0.00000000000E+00  0.24116505355E+04  0.24116505355E+04  0.00000000000E+00 0.  1.
         -2   -1    0    0    0  501 -0.00000000000E+00 -0.00000000000E+00 -0.15998297370E+03  0.15998297370E+03  0.00000000000E+00 0. -1.
         25    1    1    2    0    0 -0.44910258132E+03  0.83985227329E+02  0.14533814685E+04  0.15286233479E+04  0.12500000000E+03 0.  0.
          2    1    1    2  502    0  0.28810401611E+03  0.11947288306E+03  0.69860713339E+03  0.76506837650E+03  0.00000000000E+00 0.  1.
         -2    1    1    2    0  501  0.16099856520E+03 -0.20345811039E+03  0.99678959967E+02  0.27794178481E+03  0.00000000000E+00 0. -1.
<mgrwt>
<rscale>  4 0.12422931E+04</rscale>
<asrwt>0</asrwt>
<pdfrwt beam="1">  1        2 0.37102313E+00 0.12422931E+04</pdfrwt>
<pdfrwt beam="2">  1       -2 0.24612767E-01 0.12422931E+04</pdfrwt>
<totfact> 0.57113312E+01</totfact>
</mgrwt>
</event>
<event>
 5    0  0.5719562E-003  0.5779852E+03  0.7546771E-02  0.9952163E-01
         -2   -1    0    0    0  501 -0.00000000000E+00  0.00000000000E+00  0.13526300359E+03  0.13526300359E+03  0.00000000000E+00 0.  1.
          2   -1    0    0  502    0  0.00000000000E+00 -0.00000000000E+00 -0.61743950223E+03  0.61743950223E+03  0.00000000000E+00 0. -1.
         25    1    1    2    0    0  0.89992274840E+02 -0.24643556462E+03 -0.30891017066E+03  0.42412214111E+03  0.12500000000E+03 0.  0.
          2    1    1    2  502    0 -0.40124868932E+02  0.15772063370E+02 -0.23982130526E+02  0.49334629565E+02  0.00000000000E+00 0. -1.
         -2    1    1    2    0  501 -0.49867405908E+02  0.23066350125E+03 -0.14928419746E+03  0.27924573514E+03  0.00000000000E+00 0.  1.
<mgrwt>
<rscale>  4 0.57798520E+03</rscale>
<asrwt>0</asrwt>
<pdfrwt beam="1">  1        2 0.94990691E-01 0.57798520E+03</pdfrwt>
<pdfrwt beam="2">  1       -2 0.20809693E-01 0.57798520E+03</pdfrwt>
<totfact> 0.95685744E+02</totfact>
</mgrwt>
</event>
<event>
 5    0  0.5719562E-003  0.6319894E+03  0.7546771E-02  0.9841174E-01
         -2   -1    0    0    0  501 -0.00000000000E+00  0.00000000000E+00  0.78493643745E+02  0.78493643745E+02  0.00000000000E+00 0.  1.
          2   -1    0    0  502    0  0.00000000000E+00 -0.00000000000E+00 -0.12721112615E+04  0.12721112615E+04  0.00000000000E+00 0. -1.
         25    1    1    2    0    0  0.20473876067E+03 -0.28486661724E+02 -0.15275016099E+03  0.28580948497E+03  0.12500000000E+03 0.  0.
          1    1    1    2  502    0 -0.26857942805E+02 -0.24935818456E+02 -0.23212349819E+03  0.23499885648E+03  0.00000000000E+00 0.  1.
         -1    1    1    2    0  501 -0.17788081787E+03  0.53422480180E+02 -0.80874395858E+03  0.82979656380E+03  0.00000000000E+00 0. -1.
<mgrwt>
<rscale>  4 0.63198939E+03</rscale>
<asrwt>0</asrwt>
<pdfrwt beam="1">  1        2 0.19570941E+00 0.63198939E+03</pdfrwt>
<pdfrwt beam="2">  1       -2 0.12075946E-01 0.63198939E+03</pdfrwt>
<totfact> 0.87545321E+02</totfact>
</mgrwt>
</event>
<event>
 5    0  0.5719562E-003  0.7159009E+03  0.7546771E-02  0.9690419E-01
         -2   -1    0    0    0  501 -0.00000000000E+00  0.00000000000E+00  0.23715735645E+03  0.23715735645E+03  0.00000000000E+00 0. -1.
          2   -1    0    0  502    0  0.00000000000E+00 -0.00000000000E+00 -0.54026804973E+03  0.54026804973E+03  0.00000000000E+00 0.  1.
         25    1    1    2    0    0  0.15238705784E+03 -0.25529707626E+03 -0.10877865273E+03  0.34037656769E+03  0.12500000000E+03 0.  0.
          4    1    1    2  502    0 -0.94273993310E+02  0.10215801922E+02 -0.15559092472E+03  0.18221000049E+03  0.00000000000E+00 0.  1.
         -4    1    1    2    0  501 -0.58113064530E+02  0.24508127434E+03 -0.38741115823E+02  0.25483883800E+03  0.00000000000E+00 0. -1.
<mgrwt>
<rscale>  4 0.71590095E+03</rscale>
<asrwt>0</asrwt>
<pdfrwt beam="1">  1        2 0.83118161E-01 0.71590095E+03</pdfrwt>
<pdfrwt beam="2">  1       -2 0.36485747E-01 0.71590095E+03</pdfrwt>
<totfact> 0.40052008E+02</totfact>
</mgrwt>
</event>
<event>
 5    0  0.5719562E-003  0.7361975E+03  0.7546771E-02  0.9657257E-01
          2   -1    0    0  502    0  0.00000000000E+00  0.00000000000E+00  0.29895418030E+03  0.29895418030E+03  0.00000000000E+00 0. -1.
         -2   -1    0    0    0  501 -0.00000000000E+00 -0.00000000000E+00 -0.45323558177E+03  0.45323558177E+03  0.00000000000E+00 0.  1.
         25    1    1    2    0    0 -0.69387568904E+02 -0.20877866487E+03 -0.33456540171E+03  0.41947845432E+03  0.12500000000E+03 0.  0.
          2    1    1    2  502    0  0.55538994231E+02  0.15882407964E+02  0.11483250369E+03  0.12854312377E+03  0.00000000000E+00 0.  1.
         -2    1    1    2    0  501  0.13848574673E+02  0.19289625691E+03  0.65451496536E+02  0.20416818398E+03  0.00000000000E+00 0. -1.
<mgrwt>
<rscale>  4 0.73619745E+03</rscale>
<asrwt>0</asrwt>
<pdfrwt beam="1">  1        2 0.45992951E-01 0.73619745E+03</pdfrwt>
<pdfrwt beam="2">  1       -2 0.69728551E-01 0.73619745E+03</pdfrwt>
<totfact> 0.20855931E+02</totfact>
</mgrwt>
</event>
<event>
 5    0  0.5719562E-003  0.5145660E+03  0.7546771E-02  0.1010045E+00
         -2   -1    0    0    0  501 -0.00000000000E+00  0.00000000000E+00  0.65002015145E+02  0.65002015145E+02  0.00000000000E+00 0. -1.
          2   -1    0    0  502    0  0.00000000000E+00 -0.00000000000E+00 -0.10183460452E+04  0.10183460452E+04  0.00000000000E+00 0.  1.
         25    1    1    2    0    0  0.17437725774E+03 -0.13959716591E+03 -0.37858192442E+03  0.45699460636E+03  0.12500000000E+03 0.  0.
          1    1    1    2  502    0 -0.17107734993E+02 -0.19007479346E+02 -0.59491019253E+02  0.64754461155E+02  0.00000000000E+00 0.  1.
         -1    1    1    2    0  501 -0.15726952275E+03  0.15860464526E+03 -0.51527108638E+03  0.56159899283E+03  0.00000000000E+00 0. -1.
<mgrwt>
<rscale>  4 0.51456601E+03</rscale>
<asrwt>0</asrwt>
<pdfrwt beam="1">  1        2 0.15666862E+00 0.51456601E+03</pdfrwt>
<pdfrwt beam="2">  1       -2 0.10000310E-01 0.51456601E+03</pdfrwt>
<totfact> 0.16947557E+03</totfact>
</mgrwt>
</event>
<event>
 5    0  0.5719562E-003  0.5603018E+03  0.7546771E-02  0.9991372E-01
          1   -1    0    0  502    0  0.00000000000E+00  0.00000000000E+00  0.23158757236E+04  0.23158757236E+04  0.00000000000E+00 0. -1.
         -1   -1    0    0    0  501 -0.00000000000E+00 -0.00000000000E+00 -0.33889784889E+02  0.33889784889E+02  0.00000000000E+00 0.  1.
         25    1    1    2    0    0  0.53636860415E+02 -0.22963530454E+03  0.15207034287E+04  0.15439472802E+04  0.12500000000E+03 0.  0.
          1    1    1    2  502    0  0.32329200687E+01  0.19355986978E+03  0.50496769707E+03  0.54080333768E+03  0.00000000000E+00 0.  1.
         -1    1    1    2    0  501 -0.56869780484E+02  0.36075434760E+02  0.25631481291E+03  0.26501489060E+03  0.00000000000E+00 0. -1.
<mgrwt>
<rscale>  4 0.56030181E+03</rscale>
<asrwt>0</asrwt>
<pdfrwt beam="1">  1        1 0.35628845E+00 0.56030181E+03</pdfrwt>
<pdfrwt beam="2">  1       -1 0.52138149E-02 0.56030181E+03</pdfrwt>
<totfact> 0.33345402E+02</totfact>
</mgrwt>
</event>
<event>
 5    0  0.5719562E-003  0.4421901E+03  0.7546771E-02  0.1030077E+00
          1   -1    0    0  502    0  0.00000000000E+00  0.00000000000E+00  0.21822667220E+03  0.21822667220E+03  0.00000000000E+00 0.  1.
         -1   -1    0    0    0  501 -0.00000000000E+00 -0.00000000000E+00 -0.22400110518E+03  0.22400110518E+03  0.00000000000E+00 0. -1.
         25    1    1    2    0    0 -0.18914687832E+03  0.67097383071E+02  0.12472339604E+02  0.23676815590E+03  0.12500000000E+03 0.  0.
          1    1    1    2  502    0  0.40738849506E+02 -0.40725961425E+01  0.90475096466E+01  0.41929671227E+02  0.00000000000E+00 0.  1.
         -1    1    1    2    0  501  0.14840802882E+03 -0.63024786929E+02 -0.27294282234E+02  0.16352995025E+03  0.00000000000E+00 0. -1.
<mgrwt>
<rscale>  4 0.44219008E+03</rscale>
<asrwt>0</asrwt>
<pdfrwt beam="1">  1        1 0.33573334E-01 0.44219008E+03</pdfrwt>
<pdfrwt beam="2">  1       -1 0.34461708E-01 0.44219008E+03</pdfrwt>
<totfact> 0.10594105E+03</totfact>
</mgrwt>
</event>
<event>
 5    0  0.5719562E-003  0.4887794E+03  0.7546771E-02  0.1016750E+00
         -2   -1    0    0    0  501 -0.00000000000E+00  0.00000000000E+00  0.33386856570E+02  0.33386856570E+02  0.00000000000E+00 0. -1.
          2   -1    0    0  502    0  0.00000000000E+00 -0.00000000000E+00 -0.17889171035E+04  0.17889171035E+04  0.00000000000E+00 0.  1.
         25    1    1    2    0    0  0.16464486929E+03  0.14973681333E+03 -0.10809942571E+04  0.11107216709E+04  0.12500000000E+03 0.  0.
          1    1    1    2  502    0 -0.12790871832E+03 -0.98096109810E+02 -0.52449635646E+03  0.54870749486E+03  0.00000000000E+00 0. -1.
         -1    1    1    2    0  501 -0.36736150974E+02 -0.51640703520E+02 -0.15003963335E+03  0.16287479432E+03  0.00000000000E+00 0.  1.
<mgrwt>
<rscale>  4 0.48877937E+03</rscale>
<asrwt>0</asrwt>
<pdfrwt beam="1">  1        2 0.27521817E+00 0.48877937E+03</pdfrwt>
<pdfrwt beam="2">  1       -2 0.51364367E-02 0.48877937E+03</pdfrwt>
<totfact> 0.17830277E+03</totfact>
</mgrwt>
</event>
<event>
 5    0  0.5719562E-003  0.9141653E+03  0.7546771E-02  0.9408045E-01
          2   -1    0    0  502    0  0.00000000000E+00  0.00000000000E+00  0.15719613435E+04  0.15719613435E+04  0.00000000000E+00 0.  1.
         -2   -1    0    0    0  501 -0.00000000000E+00 -0.00000000000E+00 -0.13290693887E+03  0.13290693887E+03  0.00000000000E+00 0. -1.
         25    1    1    2    0    0 -0.11943602443E+03  0.30318951025E+03  0.26895985993E+03  0.44062824388E+03  0.12500000000E+03 0.  0.
          4    1    1    2  502    0  0.34763260635E+02 -0.21479377103E+03  0.23153275887E+03  0.31772986450E+03  0.00000000000E+00 0. -1.
         -4    1    1    2    0  501  0.84672763792E+02 -0.88395739217E+02  0.93856178583E+03  0.94651017398E+03  0.00000000000E+00 0.  1.
<mgrwt>
<rscale>  4 0.91416535E+03</rscale>
<asrwt>0</asrwt>
<pdfrwt beam="1">  1        2 0.24184019E+00 0.91416535E+03</pdfrwt>
<pdfrwt beam="2">  1       -2 0.20447222E-01 0.91416535E+03</pdfrwt>
<totfact> 0.23831658E+02</totfact>
</mgrwt>
</event>
<event>
 5    0  0.5719562E-003  0.4831190E+03  0.7546771E-02  0.1018281E+00
         -3   -1    0    0    0  501 -0.00000000000E+00  0.00000000000E+00  0.32464065398E+03  0.32464065398E+03  0.00000000000E+00 0. -1.
          3   -1    0    0  502    0  0.00000000000E+00 -0.00000000000E+00 -0.17974026503E+03  0.17974026503E+03  0.00000000000E+00 0.  1.
         25    1    1    2    0    0  0.93860837550E+02  0.19400208870E+03  0.17342219686E+02  0.24974470931E+03  0.12500000000E+03 0.  0.
          1    1    1    2  502    0 -0.43373502082E+02 -0.84013401196E+02  0.82550871214E+02  0.12551557115E+03  0.00000000000E+00 0. -1.
         -1    1    1    2    0  501 -0.50487335468E+02 -0.10998868750E+03  0.45007298054E+02  0.12912063855E+03  0.00000000000E+00 0.  1.
<mgrwt>
<rscale>  4 0.48311902E+03</rscale>
<asrwt>0</asrwt>
<pdfrwt beam="1">  1        3 0.27652348E-01 0.48311902E+03</pdfrwt>
<pdfrwt beam="2">  1       -3 0.49944716E-01 0.48311902E+03</pdfrwt>
<totfact> 0.13069753E+02</totfact>
</mgrwt>
</event>
<event>
 5    0  0.5719562E-003  0.6023931E+03  0.7546771E-02  0.9900454E-01
         -1   -1    0    0    0  501 -0.00000000000E+00  0.00000000000E+00  0.15073019977E+03  0.15073019977E+03  0.00000000000E+00 0.  1.
          1   -1    0    0  502    0  0.00000000000E+00 -0.00000000000E+00 -0.60186587482E+03  0.60186587482E+03  0.00000000000E+00 0. -1.
         25    1    1    2    0    0  0.17521561887E+03 -0.16974352938E+03 -0.85916673054E+02  0.28726303899E+03  0.12500000000E+03 0.  0.
          3    1    1    2  502    0 -0.17669759746E+03  0.90525413639E+02 -0.31226090116E+03  0.37003210922E+03  0.00000000000E+00 0. -1.
         -3    1    1    2    0  501  0.14819785900E+01  0.79218115745E+02 -0.52958100840E+02  0.95300926372E+02  0.00000000000E+00 0.  1.
<mgrwt>
<rscale>  4 0.60239311E+03</rscale>
<asrwt>0</asrwt>
<pdfrwt beam="1">  1        1 0.92594748E-01 0.60239311E+03</pdfrwt>
<pdfrwt beam="2">  1       -1 0.23189262E-01 0.60239311E+03</pdfrwt>
<totfact> 0.54841392E+02</totfact>
</mgrwt>
</event>
<event>
 5    0  0.5719562E-003  0.4621982E+03  0.7546771E-02  0.1024146E+00
          1   -1    0    0  502    0  0.00000000000E+00  0.00000000000E+00  0.33389942344E+03  0.33389942344E+03  0.00000000000E+00 0. -1.
         -1   -1    0    0    0  501 -0.00000000000E+00 -0.00000000000E+00 -0.15994877687E+03  0.15994877687E+03  0.00000000000E+00 0.  1.
         25    1    1    2    0    0  0.14001000271E+03  0.15572073808E+03  0.10477415271E+03  0.26543242493E+03  0.12500000000E+03 0.  0.
          2    1    1    2  502    0 -0.11410357536E+03 -0.10624236385E+03  0.73568411701E+02  0.17239308857E+03  0.00000000000E+00 0. -1.
         -2    1    1    2    0  501 -0.25906427341E+02 -0.49478374234E+02 -0.43919178367E+01  0.56022686804E+02  0.00000000000E+00 0.  1.
<mgrwt>
<rscale>  4 0.46219824E+03</rscale>
<asrwt>0</asrwt>
<pdfrwt beam="1">  1        1 0.51369142E-01 0.46219824E+03</pdfrwt>
<pdfrwt beam="2">  1       -1 0.24607504E-01 0.46219824E+03</pdfrwt>
<totfact> 0.10971785E+03</totfact>
</mgrwt>
</event>
<event>
 5    0  0.5719562E-003  0.9750083E+03  0.7546771E-02  0.9336388E-01
         -2   -1    0    0    0  501 -0.00000000000E+00  0.00000000000E+00  0.22094703969E+03  0.22094703969E+03  0.00000000000E+00 0. -1.
          2   -1    0    0  502    0  0.00000000000E+00 -0.00000000000E+00 -0.10756437367E+04  0.10756437367E+04  0.00000000000E+00 0.  1.
         25    1    1    2    0    0 -0.42882883537E+03 -0.19840148188E+03 -0.37119895918E+03  0.61373527303E+03  0.12500000000E+03 0.  0.
          1    1    1    2  502    0  0.25503220853E+02  0.98931224711E+01 -0.70368128778E+02  0.75498090663E+02  0.00000000000E+00 0.  1.
         -1    1    1    2    0  501  0.40332561452E+03  0.18850835941E+03 -0.41312960908E+03  0.60735741273E+03  0.00000000000E+00 0. -1.
<mgrwt>
<rscale>  4 0.97500831E+03</rscale>
<asrwt>0</asrwt>
<pdfrwt beam="1">  1        2 0.16548365E+00 0.97500831E+03</pdfrwt>
<pdfrwt beam="2">  1       -2 0.33991852E-01 0.97500831E+03</pdfrwt>
<totfact> 0.18241717E+02</totfact>
</mgrwt>
</event>
<event>
 5    0  0.5719562E-003  0.8454005E+03  0.7546771E-02  0.9496531E-01
          2   -1    0    0  502    0  0.00000000000E+00  0.00000000000E+00  0.13869503321E+04  0.13869503321E+04  0.00000000000E+00 0.  1.
         -2   -1    0    0    0  501 -0.00000000000E+00 -0.00000000000E+00 -0.12882617385E+03  0.12882617385E+03  0.00000000000E+00 0. -1.
         25    1    1    2    0    0 -0.13389577726E+03  0.32508791388E+03  0.25881921894E+03  0.45411740663E+03  0.12500000000E+03 0.  0.
          1    1    1    2  502    0  0.11974186556E+03 -0.24437761637E+03  0.83179942648E+03  0.87518502023E+03  0.00000000000E+00 0.  1.
         -1    1    1    2    0  501  0.14153911697E+02 -0.80710297507E+02  0.16750551281E+03  0.18647407907E+03  0.00000000000E+00 0. -1.
<mgrwt>
<rscale>  4 0.84540051E+03</rscale>
<asrwt>0</asrwt>
<pdfrwt beam="1">  1        2 0.21337696E+00 0.84540051E+03</pdfrwt>
<pdfrwt beam="2">  1       -2 0.19819412E-01 0.84540051E+03</pdfrwt>
<totfact> 0.32107759E+02</totfact>
</mgrwt>
</event>
<event>
 5    0  0.5719562E-003  0.4539087E+03  0.7546771E-02  0.1026563E+00
          2   -1    0    0  502    0  0.00000000000E+00  0.00000000000E+00  0.62882408328E+03  0.62882408328E+03  0.00000000000E+00 0.  1.
         -2   -1    0    0    0  501 -0.00000000000E+00 -0.00000000000E+00 -0.81912064067E+02  0.81912064067E+02  0.00000000000E+00 0. -1.
         25    1    1    2    0    0 -0.19243116293E+03  0.64206972963E+02  0.34916807457E+03  0.42272406147E+03  0.12500000000E+03 0.  0.
          4    1    1    2  502    0  0.80690857883E+02 -0.18380340411E+02  0.11472020536E+03  0.14145521191E+03  0.00000000000E+00 0. -1.
         -4    1    1    2    0  501  0.11174030505E+03 -0.45826632552E+02  0.83023739289E+02  0.14655687397E+03  0.00000000000E+00 0.  1.
<mgrwt>
<rscale>  4 0.45390871E+03</rscale>
<asrwt>0</asrwt>
<pdfrwt beam="1">  1        2 0.96742163E-01 0.45390871E+03</pdfrwt>
<pdfrwt beam="2">  1       -2 0.12601856E-01 0.45390871E+03</pdfrwt>
<totfact> 0.21902553E+03</totfact>
</mgrwt>
</event>
<event>
 5    0  0.5719562E-003  0.8062499E+03  0.7546771E-02  0.9551014E-01
         -2   -1    0    0    0  501 -0.00000000000E+00  0.00000000000E+00  0.45837155109E+03  0.45837155109E+03  0.00000000000E+00 0.  1.
          2   -1    0    0  502    0  0.00000000000E+00 -0.00000000000E+00 -0.35453708983E+03  0.35453708983E+03  0.00000000000E+00 0. -1.
         25    1    1    2    0    0  0.24805643814E+03 -0.75956403908E+02 -0.11029246117E+03  0.30836796005E+03  0.12500000000E+03 0.  0.
          1    1    1    2  502    0 -0.27328190562E+03 -0.50644062826E+02  0.24645268555E+03  0.37146567439E+03  0.00000000000E+00 0.  1.
         -1    1    1    2    0  501  0.25225467479E+02  0.12660046673E+03 -0.32325763122E+02  0.13307500647E+03  0.00000000000E+00 0. -1.
<mgrwt>
<rscale>  4 0.80624988E+03</rscale>
<asrwt>0</asrwt>
<pdfrwt beam="1">  1        2 0.54544168E-01 0.80624988E+03</pdfrwt>
<pdfrwt beam="2">  1       -2 0.70518700E-01 0.80624988E+03</pdfrwt>
<totfact> 0.16786286E+02</totfact>
</mgrwt>
</event>
<event>
 5    0  0.5719562E-003  0.6188177E+03  0.7546771E-02  0.9867116E-01
         -2   -1    0    0    0  501 -0.00000000000E+00  0.00000000000E+00  0.70703519422E+02  0.70703519422E+02  0.00000000000E+00 0. -1.
          2   -1    0    0  502    0  0.00000000000E+00 -0.00000000000E+00 -0.13540181459E+04  0.13540181459E+04  0.00000000000E+00 0.  1.
         25    1    1    2    0    0  0.24687821005E+03 -0.85076168085E+02 -0.48825454604E+03  0.56763043144E+03  0.12500000000E+03 0.  0.
          4    1    1    2  502    0  0.16697525970E+02  0.36807847011E+02 -0.44413401042E+02  0.60051437678E+02  0.00000000000E+00 0.  1.
         -4    1    1    2    0  501 -0.26357573602E+03  0.48268321074E+02 -0.75064667940E+03  0.79703979621E+03  0.00000000000E+00 0. -1.
<mgrwt>
<rscale>  4 0.61881774E+03</rscale>
<asrwt>0</asrwt>
<pdfrwt beam="1">  1        2 0.20831049E+00 0.61881774E+03</pdfrwt>
<pdfrwt beam="2">  1       -2 0.10877464E-01 0.61881774E+03</pdfrwt>
<totfact> 0.93366325E+02</totfact>
</mgrwt>
</event>
<event>
 5    0  0.5719562E-003  0.4595148E+03  0.7546771E-02  0.1024922E+00
         -2   -1    0    0    0  501 -0.00000000000E+00  0.00000000000E+00  0.31568726717E+02  0.31568726717E+02  0.00000000000E+00 0.  1.
          2   -1    0    0  502    0  0.00000000000E+00 -0.00000000000E+00 -0.16721759410E+04  0.16721759410E+04  0.00000000000E+00 0. -1.
         25    1    1    2    0    0  0.53176304253E+02  0.20012821634E+03 -0.80262251442E+03  0.83827616152E+03  0.12500000000E+03 0.  0.
          2    1    1    2  502    0 -0.66222175142E+02 -0.15869185511E+03 -0.63368323911E+03  0.65659951941E+03  0.00000000000E+00 0.  1.
         -2    1    1    2    0  501  0.13045870889E+02 -0.41436361232E+02 -0.20430146080E+03  0.20886898684E+03  0.00000000000E+00 0. -1.
<mgrwt>
<rscale>  4 0.45951481E+03</rscale>
<asrwt>0</asrwt>
<pdfrwt beam="1">  1        2 0.25725784E+00 0.45951481E+03</pdfrwt>
<pdfrwt beam="2">  1       -2 0.48567271E-02 0.45951481E+03</pdfrwt>
<totfact> 0.22489194E+03</totfact>
</mgrwt>
</event>
<event>
 5    0  0.5719562E-003  0.8064304E+03  0.7546771E-02  0.9550756E-01
          1   -1    0    0  502    0  0.00000000000E+00  0.00000000000E+00  0.49456905752E+03  0.49456905752E+03  0.00000000000E+00 0. -1.
         -1   -1    0    0    0  501 -0.00000000000E+00 -0.00000000000E+00 -0.32873571230E+03  0.32873571230E+03  0.00000000000E+00 0.  1.
         25    1    1    2    0    0 -0.31385421892E+03  0.15983706348E+03  0.25770725425E+03  0.45397179041E+03  0.12500000000E+03 0.  0.
          4    1    1    2  502    0  0.28644093119E+03 -0.16347961877E+03 -0.80940568058E+02  0.33959588981E+03  0.00000000000E+00 0.  1.
         -4    1    1    2    0  501  0.27413287732E+02  0.36425552877E+01 -0.10933340962E+02  0.29737089600E+02  0.00000000000E+00 0. -1.
<mgrwt>
<rscale>  4 0.80643043E+03</rscale>
<asrwt>0</asrwt>
<pdfrwt beam="1">  1        1 0.76087547E-01 0.80643043E+03</pdfrwt>
<pdfrwt beam="2">  1       -1 0.50574725E-01 0.80643043E+03</pdfrwt>
<totfact> 0.17871930E+02</totfact>
</mgrwt>
</event>
<event>
 5    0  0.5719562E-003  0.5457184E+03  0.7546771E-02  0.1002490E+00
          1   -1    0    0  502    0  0.00000000000E+00  0.00000000000E+00  0.15159322405E+04  0.15159322405E+04  0.00000000000E+00 0. -1.
         -1   -1    0    0    0  501 -0.00000000000E+00 -0.00000000000E+00 -0.49113111041E+02  0.49113111041E+02  0.00000000000E+00 0.  1.
         25    1    1    2    0    0  0.14467953911E+03  0.17127581847E+03  0.41735318290E+03  0.48997576910E+03  0.12500000000E+03 0.  0.
          1    1    1    2  502    0  0.45277316372E+01 -0.20126196855E+02  0.80675971376E+02  0.83271702943E+02  0.00000000000E+00 0.  1.
         -1    1    1    2    0  501 -0.14920727075E+03 -0.15114962161E+03  0.96878997516E+03  0.99179787947E+03  0.00000000000E+00 0. -1.
<mgrwt>
<rscale>  4 0.54571842E+03</rscale>
<asrwt>0</asrwt>
<pdfrwt beam="1">  1        1 0.23322031E+00 0.54571842E+03</pdfrwt>
<pdfrwt beam="2">  1       -1 0.75558644E-02 0.54571842E+03</pdfrwt>
<totfact> 0.64341532E+02</totfact>
</mgrwt>
</event>
<event>
 5    0  0.5719562E-003  0.5169461E+03  0.7546771E-02  0.1009448E+00
          2   -1    0    0  502    0  0.00000000000E+00  0.00000000000E+00  0.14540547194E+04  0.14540547194E+04  0.00000000000E+00 0.  1.
         -2   -1    0    0    0  501 -0.00000000000E+00 -0.00000000000E+00 -0.45946218997E+02  0.45946218997E+02  0.00000000000E+00 0. -1.
         25    1    1    2    0    0 -0.91002570302E+02 -0.18411119066E+03  0.38111390798E+03  0.45061203844E+03  0.12500000000E+03 0.  0.
          2    1    1    2  502    0  0.29543246884E+02  0.97327245751E+02  0.64073877132E+03  0.64876156581E+03  0.00000000000E+00 0.  1.
         -2    1    1    2    0  501  0.61459323418E+02  0.86783944911E+02  0.38625582106E+03  0.40062733411E+03  0.00000000000E+00 0. -1.
<mgrwt>
<rscale>  4 0.51694610E+03</rscale>
<asrwt>0</asrwt>
<pdfrwt beam="1">  1        2 0.22370069E+00 0.51694610E+03</pdfrwt>
<pdfrwt beam="2">  1       -2 0.70686502E-02 0.51694610E+03</pdfrwt>
<totfact> 0.16449142E+03</totfact>
</mgrwt>
</event>
<event>
 5    0  0.5719562E-003  0.6428872E+03  0.7546771E-02  0.9820218E-01
         -2   -1    0    0    0  501 -0.00000000000E+00  0.00000000000E+00  0.63543628726E+03  0.63543628726E+03  0.00000000000E+00 0. -1.
          2   -1    0    0  502    0  0.00000000000E+00 -0.00000000000E+00 -0.16260636338E+03  0.16260636338E+03  0.00000000000E+00 0.  1.
         25    1    1    2    0    0 -0.16841714202E+03  0.11120371204E+03  0.26001143321E+03  0.35208173014E+03  0.12500000000E+03 0.  0.
          3    1    1    2  502    0 -0.13471627881E+02 -0.11265107268E+03  0.23671923329E+03  0.26250284635E+03  0.00000000000E+00 0. -1.
         -3    1    1    2    0  501  0.18188876990E+03  0.14473606353E+01 -0.23900742621E+02  0.18345807414E+03  0.00000000000E+00 0.  1.
<mgrwt>
<rscale>  4 0.64288719E+03</rscale>
<asrwt>0</asrwt>
<pdfrwt beam="1">  1        2 0.25016364E-01 0.64288719E+03</pdfrwt>
<pdfrwt beam="2">  1       -2 0.97759427E-01 0.64288719E+03</pdfrwt>
<totfact> 0.19301700E+02</totfact>
</mgrwt>
</event>
<event>
 5    0  0.5719562E-003  0.5053114E+03  0.7546771E-02  0.1012402E+00
         -2   -1    0    0    0  501 -0.00000000000E+00  0.00000000000E+00  0.33557935075E+03  0.33557935075E+03  0.00000000000E+00 0. -1.
          2   -1    0    0  502    0  0.00000000000E+00 -0.00000000000E+00 -0.19022295401E+03  0.19022295401E+03  0.00000000000E+00 0.  1.
         25    1    1    2    0    0 -0.20570503730E+03 -0.47757594982E+02  0.18469617280E+03  0.30713682048E+03  0.12500000000E+03 0.  0.
          2    1    1    2  502    0  0.18309404233E+03  0.49723561471E+02 -0.45585804752E+02  0.19512541223E+03  0.00000000000E+00 0.  1.
         -2    1    1    2    0  501  0.22610994969E+02 -0.19659664897E+01  0.62460286919E+01  0.23540072051E+02  0.00000000000E+00 0. -1.
<mgrwt>
<rscale>  4 0.50531137E+03</rscale>
<asrwt>0</asrwt>
<pdfrwt beam="1">  1        2 0.29265070E-01 0.50531137E+03</pdfrwt>
<pdfrwt beam="2">  1       -2 0.51627592E-01 0.50531137E+03</pdfrwt>
<totfact> 0.65270133E+02</totfact>
</mgrwt>
</event>
<event>
 5    0  0.5719562E-003  0.8538397E+03  0.7546771E-02  0.9485198E-01
          4   -1    0    0  502    0  0.00000000000E+00  0.00000000000E+00  0.14588753108E+03  0.14588753108E+03  0.00000000000E+00 0.  1.
         -4   -1    0    0    0  501 -0.00000000000E+00 -0.00000000000E+00 -0.12493222687E+04  0.12493222687E+04  0.00000000000E+00 0. -1.
         25    1    1    2    0    0 -0.20179351022E+03 -0.22785194070E+03 -0.49110120512E+03  0.59113663507E+03  0.12500000000E+03 0.  0.
          1    1    1    2  502    0 -0.72972103708E+02  0.75866969172E+02  0.11281076061E+02  0.10586778362E+03  0.00000000000E+00 0.  1.
         -1    1    1    2    0  501  0.27476561393E+03  0.15198497153E+03 -0.62361460854E+03  0.69820538107E+03  0.00000000000E+00 0. -1.
<mgrwt>
<rscale>  4 0.85383966E+03</rscale>
<asrwt>0</asrwt>
<pdfrwt beam="1">  1        4 0.22444236E-01 0.85383966E+03</pdfrwt>
<pdfrwt beam="2">  1       -4 0.19220342E+00 0.85383966E+03</pdfrwt>
<totfact> 0.55451127E+00</totfact>
</mgrwt>
</event>
<event>
 5    0  0.5719562E-003  0.5346012E+03  0.7546771E-02  0.1005122E+00
         -2   -1    0    0    0  501 -0.00000000000E+00  0.00000000000E+00  0.29414895601E+02  0.29414895601E+02  0.00000000000E+00 0.  1.
          2   -1    0    0  502    0  0.00000000000E+00 -0.00000000000E+00 -0.24290282613E+04  0.24290282613E+04  0.00000000000E+00 0. -1.
         25    1    1    2    0    0  0.12183980127E+03 -0.17860468381E+03 -0.94114950860E+03  0.97372068264E+03  0.12500000000E+03 0.  0.
          1    1    1    2  502    0  0.18201539650E+02  0.69139182891E+02 -0.17549808885E+03  0.18950224760E+03  0.00000000000E+00 0.  1.
         -1    1    1    2    0  501 -0.14004134092E+03  0.10946550092E+03 -0.12829657682E+04  0.12952202266E+04  0.00000000000E+00 0. -1.
<mgrwt>
<rscale>  4 0.53460121E+03</rscale>
<asrwt>0</asrwt>
<pdfrwt beam="1">  1        2 0.37369668E+00 0.53460121E+03</pdfrwt>
<pdfrwt beam="2">  1       -2 0.45253682E-02 0.53460121E+03</pdfrwt>
<totfact> 0.97078646E+02</totfact>
</mgrwt>
</event>
<event>
 5    0  0.5719562E-003  0.5020772E+03  0.7546771E-02  0.1013238E+00
          1   -1    0    0  502    0  0.00000000000E+00  0.00000000000E+00  0.37242401197E+03  0.37242401197E+03  0.00000000000E+00 0. -1.
         -1   -1    0    0    0  501 -0.00000000000E+00 -0.00000000000E+00 -0.16921676683E+03  0.16921676683E+03  0.00000000000E+00 0.  1.
         25    1    1    2    0    0 -0.19280100479E+03  0.78089940896E+02  0.21462702994E+03  0.32397535137E+03  0.12500000000E+03 0.  0.
          1    1    1    2  502    0  0.76130944572E+02 -0.58457440512E+02 -0.23261876896E+02  0.98763900234E+02  0.00000000000E+00 0.  1.
         -1    1    1    2    0  501  0.11667006022E+03 -0.19632500384E+02  0.11842092096E+02  0.11890152719E+03  0.00000000000E+00 0. -1.
<mgrwt>
<rscale>  4 0.50207723E+03</rscale>
<asrwt>0</asrwt>
<pdfrwt beam="1">  1        1 0.57296001E-01 0.50207723E+03</pdfrwt>
<pdfrwt beam="2">  1       -1 0.26033349E-01 0.50207723E+03</pdfrwt>
<totfact> 0.86578374E+02</totfact>
</mgrwt>
</event>
<event>
 5    0  0.5719562E-003  0.5522405E+03  0.7546771E-02  0.1000977E+00
         -1   -1    0    0    0  501 -0.00000000000E+00  0.00000000000E+00  0.29074787554E+02  0.29074787554E+02  0.00000000000E+00 0. -1.
          1   -1    0    0  502    0  0.00000000000E+00 -0.00000000000E+00 -0.26222858588E+04  0.26222858588E+04  0.00000000000E+00 0.  1.
         25    1    1    2    0    0 -0.37060792307E+02 -0.22650668641E+03 -0.83143300616E+03  0.87154152227E+03  0.12500000000E+03 0.  0.
          4    1    1    2  502    0  0.35875031118E+02  0.86973012135E+02 -0.40021682474E+03  0.41112629385E+03  0.00000000000E+00 0. -1.
         -4    1    1    2    0  501  0.11857611893E+01  0.13953367427E+03 -0.13615612403E+04  0.13686928302E+04  0.00000000000E+00 0.  1.
<mgrwt>
<rscale>  4 0.55224054E+03</rscale>
<asrwt>0</asrwt>
<pdfrwt beam="1">  1        1 0.40342855E+00 0.55224054E+03</pdfrwt>
<pdfrwt beam="2">  1       -1 0.44730447E-02 0.55224054E+03</pdfrwt>
<totfact> 0.26158398E+02</totfact>
</mgrwt>
</event>
<event>
 5    0  0.5719562E-003  0.6405727E+03  0.7546771E-02  0.9824631E-01
          2   -1    0    0  502    0  0.00000000000E+00  0.00000000000E+00  0.72191966028E+03  0.72191966028E+03  0.00000000000E+00 0. -1.
         -2   -1    0    0    0  501 -0.00000000000E+00 -0.00000000000E+00 -0.14209802184E+03  0.14209802184E+03  0.00000000000E+00 0.  1.
         25    1    1    2    0    0  0.47076794069E+01 -0.25028256889E+03  0.41334207709E+03  0.49913945870E+03  0.12500000000E+03 0.  0.
          4    1    1    2  502    0 -0.71753185386E+02  0.41526470021E+02  0.11130063918E+03  0.13878328288E+03  0.00000000000E+00 0. -1.
         -4    1    1    2    0  501  0.67045505979E+02  0.20875609887E+03  0.55178922167E+02  0.22609494054E+03  0.00000000000E+00 0.  1.
<mgrwt>
<rscale>  4 0.64057273E+03</rscale>
<asrwt>0</asrwt>
<pdfrwt beam="1">  1        2 0.11106456E+00 0.64057273E+03</pdfrwt>
<pdfrwt beam="2">  1       -2 0.21861235E-01 0.64057273E+03</pdfrwt>
<totfact> 0.72235090E+02</totfact>
</mgrwt>
</event>
<event>
 5    0  0.5719562E-003  0.5643390E+03  0.7546771E-02  0.9982285E-01
          1   -1    0    0  502    0  0.00000000000E+00  0.00000000000E+00  0.14732317837E+04  0.14732317837E+04  0.00000000000E+00 0. -1.
         -1   -1    0    0    0  501 -0.00000000000E+00 -0.00000000000E+00 -0.54044187562E+02  0.54044187562E+02  0.00000000000E+00 0.  1.
         25    1    1    2    0    0  0.24080936735E+03 -0.91693522420E+02  0.86446404093E+03  0.91067004536E+03  0.12500000000E+03 0.  0.
          4    1    1    2  502    0 -0.32710825076E+02  0.20857614246E+01  0.14249034623E+03  0.14621165222E+03  0.00000000000E+00 0. -1.
         -4    1    1    2    0  501 -0.20809854227E+03  0.89607760996E+02  0.41223320902E+03  0.47039427372E+03  0.00000000000E+00 0.  1.
<mgrwt>
<rscale>  4 0.56433896E+03</rscale>
<asrwt>0</asrwt>
<pdfrwt beam="1">  1        1 0.22665101E+00 0.56433896E+03</pdfrwt>
<pdfrwt beam="2">  1       -1 0.83144915E-02 0.56433896E+03</pdfrwt>
<totfact> 0.59202872E+02</totfact>
</mgrwt>
</event>
<event>
 5    0  0.5719562E-003  0.4703915E+03  0.7546771E-02  0.1021810E+00
          2   -1    0    0  502    0  0.00000000000E+00  0.00000000000E+00  0.52965192559E+03  0.52965192559E+03  0.00000000000E+00 0.  1.
         -2   -1    0    0    0  501 -0.00000000000E+00 -0.00000000000E+00 -0.10444037764E+03  0.10444037764E+03  0.00000000000E+00 0. -1.
         25    1    1    2    0    0  0.37801435633E+02  0.19930700601E+03  0.29241730535E+03  0.37720698781E+03  0.12500000000E+03 0.  0.
          4    1    1    2  502    0 -0.20339431955E+02 -0.68040169330E+02  0.24238914506E+01  0.71056543572E+02  0.00000000000E+00 0. -1.
         -4    1    1    2    0  501 -0.17462003678E+02 -0.13126683668E+03  0.13037035115E+03  0.18582877184E+03  0.00000000000E+00 0.  1.
<mgrwt>
<rscale>  4 0.47039153E+03</rscale>
<asrwt>0</asrwt>
<pdfrwt beam="1">  1        2 0.81484910E-01 0.47039153E+03</pdfrwt>
<pdfrwt beam="2">  1       -2 0.16067751E-01 0.47039153E+03</pdfrwt>
<totfact> 0.17886900E+03</totfact>
</mgrwt>
</event>
<event>
 5    0  0.5719562E-003  0.6015693E+03  0.7546771E-02  0.9902156E-01
         -2   -1    0    0    0  501 -0.00000000000E+00  0.00000000000E+00  0.21950892089E+03  0.21950892089E+03  0.00000000000E+00 0. -1.
          2   -1    0    0  502    0  0.00000000000E+00 -0.00000000000E+00 -0.41215361059E+03  0.41215361059E+03  0.00000000000E+00 0.  1.
         25    1    1    2    0    0 -0.21850208924E+03  0.98996199779E+02 -0.10515073425E+03  0.29021558794E+03  0.12500000000E+03 0.  0.
          4    1    1    2  502    0  0.21312834226E+03 -0.16143919999E+03 -0.71509798503E+02  0.27676697211E+03  0.00000000000E+00 0. -1.
         -4    1    1    2    0  501  0.53737469766E+01  0.62443000211E+02 -0.15984156948E+02  0.64679971438E+02  0.00000000000E+00 0.  1.
<mgrwt>
<rscale>  4 0.60156926E+03</rscale>
<asrwt>0</asrwt>
<pdfrwt beam="1">  1        2 0.63408248E-01 0.60156926E+03</pdfrwt>
<pdfrwt beam="2">  1       -2 0.33770603E-01 0.60156926E+03</pdfrwt>
<totfact> 0.63448678E+02</totfact>
</mgrwt>
</event>
<event>
 5    0  0.5719562E-003  0.4985538E+03  0.7546771E-02  0.1014157E+00
          2   -1    0    0  502    0  0.00000000000E+00  0.00000000000E+00  0.99187588829E+03  0.99187588829E+03  0.00000000000E+00 0.  1.
         -2   -1    0    0    0  501 -0.00000000000E+00 -0.00000000000E+00 -0.62647923334E+02  0.62647923334E+02  0.00000000000E+00 0. -1.
         25    1    1    2    0    0  0.20367635476E+03 -0.37311525441E+02  0.39933827173E+03  0.46687499686E+03  0.12500000000E+03 0.  0.
          1    1    1    2  502    0 -0.17568971466E+03  0.42200601075E+02  0.26203999831E+03  0.31829660269E+03  0.00000000000E+00 0. -1.
         -1    1    1    2    0  501 -0.27986640102E+02 -0.48890756332E+01  0.26784969491E+03  0.26935221208E+03  0.00000000000E+00 0.  1.
<mgrwt>
<rscale>  4 0.49855377E+03</rscale>
<asrwt>0</asrwt>
<pdfrwt beam="1">  1        2 0.15259628E+00 0.49855377E+03</pdfrwt>
<pdfrwt beam="2">  1       -2 0.96381427E-02 0.49855377E+03</pdfrwt>
<totfact> 0.18691876E+03</totfact>
</mgrwt>
</event>
<event>
 5    0  0.5719562E-003  0.7705522E+03  0.7546771E-02  0.9603648E-01
         -2   -1    0    0    0  501 -0.00000000000E+00  0.00000000000E+00  0.15141876931E+03  0.15141876931E+03  0.00000000000E+00 0. -1.
          2   -1    0    0  502    0  0.00000000000E+00 -0.00000000000E+00 -0.98031231329E+03  0.98031231329E+03  0.00000000000E+00 0.  1.
         25    1    1    2    0    0  0.24314871748E+03  0.76520103269E+02 -0.35714801905E+02  0.28614187406E+03  0.12500000000E+03 0.  0.
          4    1    1    2  502    0 -0.19044159690E+03 -0.36607274161E+02 -0.37460050799E+03  0.42182180472E+03  0.00000000000E+00 0. -1.
         -4    1    1    2    0  501 -0.52707120576E+02 -0.39912829109E+02 -0.41857823409E+03  0.42376740382E+03  0.00000000000E+00 0.  1.
<mgrwt>
<rscale>  4 0.77055223E+03</rscale>
<asrwt>0</asrwt>
<pdfrwt beam="1">  1        2 0.15081728E+00 0.77055223E+03</pdfrwt>
<pdfrwt beam="2">  1       -2 0.23295195E-01 0.77055223E+03</pdfrwt>
<totfact> 0.42454616E+02</totfact>
</mgrwt>
</event>
<event>
 5    0  0.5719562E-003  0.6135550E+03  0.7546771E-02  0.9877676E-01
          1   -1    0    0  502    0  0.00000000000E+00  0.00000000000E+00  0.88764572908E+03  0.88764572908E+03  0.00000000000E+00 0.  1.
         -1   -1    0    0    0  501 -0.00000000000E+00 -0.00000000000E+00 -0.10602476114E+03  0.10602476114E+03  0.00000000000E+00 0. -1.
         25    1    1    2    0    0  0.14803574237E+03 -0.18809351852E+03  0.55766197873E+03  0.61960119049E+03  0.12500000000E+03 0.  0.
          1    1    1    2  502    0 -0.14072426375E+03  0.53554848909E+02  0.17464478978E+03  0.23059107278E+03  0.00000000000E+00 0.  1.
         -1    1    1    2    0  501 -0.73114786232E+01  0.13453866961E+03  0.49314199421E+02  0.14347822694E+03  0.00000000000E+00 0. -1.
<mgrwt>
<rscale>  4 0.61355497E+03</rscale>
<asrwt>0</asrwt>
<pdfrwt beam="1">  1        1 0.13656088E+00 0.61355497E+03</pdfrwt>
<pdfrwt beam="2">  1       -1 0.16311502E-01 0.61355497E+03</pdfrwt>
<totfact> 0.54089203E+02</totfact>
</mgrwt>
</event>
<event>
 5    0  0.5719562E-003  0.9043538E+03  0.7546771E-02  0.9420155E-01
         -1   -1    0    0    0  501 -0.00000000000E+00  0.00000000000E+00  0.96371173323E+03  0.96371173323E+03  0.00000000000E+00 0. -1.
          1   -1    0    0  502    0  0.00000000000E+00 -0.00000000000E+00 -0.21216297871E+03  0.21216297871E+03  0.00000000000E+00 0.  1.
         25    1    1    2    0    0 -0.25538624232E+03  0.66779212476E+02 -0.39657664661E+02  0.29475299210E+03  0.12500000000E+03 0.  0.
          1    1    1    2  502    0 -0.39418254837E+02 -0.19545932285E+02  0.10444218718E+02  0.45220835772E+02  0.00000000000E+00 0.  1.
         -1    1    1    2    0  501  0.29480449716E+03 -0.47233280192E+02  0.78076220046E+03  0.83590088406E+03  0.00000000000E+00 0. -1.
<mgrwt>
<rscale>  4 0.90435381E+03</rscale>
<asrwt>0</asrwt>
<pdfrwt beam="1">  1        1 0.32640459E-01 0.90435381E+03</pdfrwt>
<pdfrwt beam="2">  1       -1 0.14826334E+00 0.90435381E+03</pdfrwt>
<totfact> 0.50014230E+01</totfact>
</mgrwt>
</event>
<event>
 5    0  0.5719562E-003  0.5308864E+03  0.7546771E-02  0.1006017E+00
          1   -1    0    0  502    0  0.00000000000E+00  0.00000000000E+00  0.12840925465E+04  0.12840925465E+04  0.00000000000E+00 0.  1.
         -1   -1    0    0    0  501 -0.00000000000E+00 -0.00000000000E+00 -0.54871500121E+02  0.54871500121E+02  0.00000000000E+00 0. -1.
         25    1    1    2    0    0 -0.18073108101E+03 -0.13740553371E+03  0.41896304824E+03  0.49264494327E+03  0.12500000000E+03 0.  0.
          3    1    1    2  502    0  0.94102592436E+01  0.42828325493E+02  0.92587589787E+02  0.10244647493E+03  0.00000000000E+00 0. -1.
         -3    1    1    2    0  501  0.17132082177E+03  0.94577208213E+02  0.71767040833E+03  0.74387262839E+03  0.00000000000E+00 0.  1.
<mgrwt>
<rscale>  4 0.53088637E+03</rscale>
<asrwt>0</asrwt>
<pdfrwt beam="1">  1        1 0.19755268E+00 0.53088637E+03</pdfrwt>
<pdfrwt beam="2">  1       -1 0.84417702E-02 0.53088637E+03</pdfrwt>
<totfact> 0.78254001E+02</totfact>
</mgrwt>
</event>
<event>
 5    0  0.5719562E-003  0.6374904E+03  0.7546771E-02  0.9830540E-01
         -1   -1    0    0    0  501 -0.00000000000E+00  0.00000000000E+00  0.14574952336E+03  0.14574952336E+03  0.00000000000E+00 0. -1.
          1   -1    0    0  502    0  0.00000000000E+00 -0.00000000000E+00 -0.69707602615E+03  0.69707602615E+03  0.00000000000E+00 0.  1.
         25    1    1    2    0    0 -0.91098423010E+02  0.18419437911E+03 -0.52707300635E+03  0.57935951359E+03  0.12500000000E+03 0.  0.
          1    1    1    2  502    0  0.50528300673E+02 -0.94687457377E+02 -0.94232856174E+02  0.14282385983E+03  0.00000000000E+00 0.  1.
         -1    1    1    2    0  501  0.40570122337E+02 -0.89506921730E+02  0.69979359734E+02  0.12064217609E+03  0.00000000000E+00 0. -1.
<mgrwt>
<rscale>  4 0.63749039E+03</rscale>
<asrwt>0</asrwt>
<pdfrwt beam="1">  1        1 0.10724246E+00 0.63749039E+03</pdfrwt>
<pdfrwt beam="2">  1       -1 0.22423004E-01 0.63749039E+03</pdfrwt>
<totfact> 0.46736627E+02</totfact>
</mgrwt>
</event>
<event>
 5    0  0.5719562E-003  0.1139271E+04  0.7546771E-02  0.9167739E-01
          1   -1    0    0  502    0  0.00000000000E+00  0.00000000000E+00  0.35374332621E+03  0.35374332621E+03  0.00000000000E+00 0.  1.
         -1   -1    0    0    0  501 -0.00000000000E+00 -0.00000000000E+00 -0.91728823338E+03  0.91728823338E+03  0.00000000000E+00 0. -1.
         25    1    1    2    0    0  0.40410526289E+03 -0.36302533731E+03 -0.31849315874E+03  0.64199014882E+03  0.12500000000E+03 0.  0.
          3    1    1    2  502    0 -0.86158144559E+02  0.88701734885E+00  0.46422322603E+01  0.86287675794E+02  0.00000000000E+00 0.  1.
         -3    1    1    2    0  501 -0.31794711833E+03  0.36213831996E+03 -0.24969398070E+03  0.54275373498E+03  0.00000000000E+00 0. -1.
<mgrwt>
<rscale>  4 0.11392710E+04</rscale>
<asrwt>0</asrwt>
<pdfrwt beam="1">  1        1 0.54422051E-01 0.11392710E+04</pdfrwt>
<pdfrwt beam="2">  1       -1 0.14112126E+00 0.11392710E+04</pdfrwt>
<totfact> 0.28815776E+01</totfact>
</mgrwt>
</event>
<event>
 5    0  0.5719562E-003  0.6963745E+03  0.7546771E-02  0.9723452E-01
          2   -1    0    0  502    0  0.00000000000E+00  0.00000000000E+00  0.16977237298E+04  0.16977237298E+04  0.00000000000E+00 0.  1.
         -2   -1    0    0    0  501 -0.00000000000E+00 -0.00000000000E+00 -0.71409940553E+02  0.71409940553E+02  0.00000000000E+00 0. -1.
         25    1    1    2    0    0 -0.25346142242E+03 -0.11772468431E+03  0.87034811997E+03  0.92262269856E+03  0.12500000000E+03 0.  0.
          3    1    1    2  502    0  0.36095800753E+02  0.10140245714E+03  0.74163600854E+02  0.13071191544E+03  0.00000000000E+00 0. -1.
         -3    1    1    2    0  501  0.21736562167E+03  0.16322227175E+02  0.68180206838E+03  0.71579905632E+03  0.00000000000E+00 0.  1.
<mgrwt>
<rscale>  4 0.69637447E+03</rscale>
<asrwt>0</asrwt>
<pdfrwt beam="1">  1        2 0.26118823E+00 0.69637447E+03</pdfrwt>
<pdfrwt beam="2">  1       -2 0.10986146E-01 0.69637447E+03</pdfrwt>
<totfact> 0.59024728E+02</totfact>
</mgrwt>
</event>
<event>
 5    0  0.5719562E-003  0.6142205E+03  0.7546771E-02  0.9876335E-01
         -2   -1    0    0    0  501 -0.00000000000E+00  0.00000000000E+00  0.61219972163E+02  0.61219972163E+02  0.00000000000E+00 0.  1.
          2   -1    0    0  502    0  0.00000000000E+00 -0.00000000000E+00 -0.15406197749E+04  0.15406197749E+04  0.00000000000E+00 0. -1.
         25    1    1    2    0    0 -0.11345295214E+03 -0.21340521517E+03 -0.33520597941E+03  0.43174229217E+03  0.12500000000E+03 0.  0.
          3    1    1    2  502    0  0.16793037915E+02  0.39678345277E+02 -0.28251642257E+03  0.28578297050E+03  0.00000000000E+00 0.  1.
         -3    1    1    2    0  501  0.96659914222E+02  0.17372686990E+03 -0.86167740077E+03  0.88431448441E+03  0.00000000000E+00 0. -1.
<mgrwt>
<rscale>  4 0.61422048E+03</rscale>
<asrwt>0</asrwt>
<pdfrwt beam="1">  1        2 0.23701841E+00 0.61422048E+03</pdfrwt>
<pdfrwt beam="2">  1       -2 0.94184581E-02 0.61422048E+03</pdfrwt>
<totfact> 0.92861236E+02</totfact>
</mgrwt>
</event>
<event>
 5    0  0.5719562E-003  0.5099219E+03  0.7546771E-02  0.1011221E+00
          3   -1    0    0  502    0  0.00000000000E+00  0.00000000000E+00  0.52384810394E+03  0.52384810394E+03  0.00000000000E+00 0. -1.
         -3   -1    0    0    0  501 -0.00000000000E+00 -0.00000000000E+00 -0.12409149403E+03  0.12409149403E+03  0.00000000000E+00 0.  1.
         25    1    1    2    0    0 -0.31679483124E+02 -0.21406162646E+03  0.21359244520E+03  0.32874412880E+03  0.12500000000E+03 0.  0.
          2    1    1    2  502    0  0.73122164149E+02  0.88732890761E+02  0.38788979103E+02  0.12134645315E+03  0.00000000000E+00 0.  1.
         -2    1    1    2    0  501 -0.41442681025E+02  0.12532873570E+03  0.14737518562E+03  0.19784901602E+03  0.00000000000E+00 0. -1.
<mgrwt>
<rscale>  4 0.50992193E+03</rscale>
<asrwt>0</asrwt>
<pdfrwt beam="1">  1        3 0.80592015E-01 0.50992193E+03</pdfrwt>
<pdfrwt beam="2">  1       -3 0.19090999E-01 0.50992193E+03</pdfrwt>
<totfact> 0.93320059E+01</totfact>
</mgrwt>
</event>
<event>
 5    0  0.5719562E-003  0.7395809E+03  0.7546771E-02  0.9651839E-01
          2   -1    0    0  502    0  0.00000000000E+00  0.00000000000E+00  0.19864748003E+04  0.19864748003E+04  0.00000000000E+00 0. -1.
         -2   -1    0    0    0  501 -0.00000000000E+00 -0.00000000000E+00 -0.68838017260E+02  0.68838017260E+02  0.00000000000E+00 0.  1.
         25    1    1    2    0    0 -0.21526272505E+03 -0.78295788089E+02  0.21873522966E+03  0.34049724217E+03  0.12500000000E+03 0.  0.
          1    1    1    2  502    0  0.25261394769E+02  0.19536748528E+01  0.29108180859E+03  0.29218243308E+03  0.00000000000E+00 0.  1.
         -1    1    1    2    0  501  0.19000133029E+03  0.76342113237E+02  0.14078197448E+04  0.14226331423E+04  0.00000000000E+00 0. -1.
<mgrwt>
<rscale>  4 0.73958093E+03</rscale>
<asrwt>0</asrwt>
<pdfrwt beam="1">  1        2 0.30561146E+00 0.73958093E+03</pdfrwt>
<pdfrwt beam="2">  1       -2 0.10590466E-01 0.73958093E+03</pdfrwt>
<totfact> 0.43510662E+02</totfact>
</mgrwt>
</event>
<event>
 5    0  0.5719562E-003  0.4752542E+03  0.7546771E-02  0.1020448E+00
          1   -1    0    0  502    0  0.00000000000E+00  0.00000000000E+00  0.82470861776E+03  0.82470861776E+03  0.00000000000E+00 0. -1.
         -1   -1    0    0    0  501 -0.00000000000E+00 -0.00000000000E+00 -0.68468601780E+02  0.68468601780E+02  0.00000000000E+00 0.  1.
         25    1    1    2    0    0 -0.20464451952E+03 -0.91767128841E+00  0.49367323760E+03  0.54883375171E+03  0.12500000000E+03 0.  0.
          2    1    1    2  502    0  0.67137314911E+02  0.23489649974E+02  0.39584797285E+02  0.81401098797E+02  0.00000000000E+00 0.  1.
         -2    1    1    2    0  501  0.13750720461E+03 -0.22571978686E+02  0.22298198109E+03  0.26294236903E+03  0.00000000000E+00 0. -1.
<mgrwt>
<rscale>  4 0.47525423E+03</rscale>
<asrwt>0</asrwt>
<pdfrwt beam="1">  1        1 0.12687824E+00 0.47525423E+03</pdfrwt>
<pdfrwt beam="2">  1       -1 0.10533632E-01 0.47525423E+03</pdfrwt>
<totfact> 0.12334197E+03</totfact>
</mgrwt>
</event>
<event>
 5    0  0.5719562E-003  0.4946293E+03  0.7546771E-02  0.1015190E+00
          4   -1    0    0  502    0  0.00000000000E+00  0.00000000000E+00  0.99362230610E+02  0.99362230610E+02  0.00000000000E+00 0. -1.
         -4   -1    0    0    0  501 -0.00000000000E+00 -0.00000000000E+00 -0.61557127984E+03  0.61557127984E+03  0.00000000000E+00 0.  1.
         25    1    1    2    0    0  0.19898989827E+03 -0.80170642667E+02 -0.20810166717E+03  0.32396854082E+03  0.12500000000E+03 0.  0.
          1    1    1    2  502    0 -0.19469386833E+03  0.52293310999E+02 -0.30031237358E+03  0.36170127794E+03  0.00000000000E+00 0. -1.
         -1    1    1    2    0  501 -0.42960299451E+01  0.27877331668E+02 -0.77950084775E+01  0.29263691691E+02  0.00000000000E+00 0.  1.
<mgrwt>
<rscale>  4 0.49462930E+03</rscale>
<asrwt>0</asrwt>
<pdfrwt beam="1">  1        4 0.15286497E-01 0.49462930E+03</pdfrwt>
<pdfrwt beam="2">  1       -4 0.94703272E-01 0.49462930E+03</pdfrwt>
<totfact> 0.68915691E+01</totfact>
</mgrwt>
</event>
<event>
 5    0  0.5719562E-003  0.6986748E+03  0.7546771E-02  0.9719501E-01
         -2   -1    0    0    0  501 -0.00000000000E+00  0.00000000000E+00  0.23188252895E+03  0.23188252895E+03  0.00000000000E+00 0.  1.
          2   -1    0    0  502    0  0.00000000000E+00 -0.00000000000E+00 -0.52628637516E+03  0.52628637516E+03  0.00000000000E+00 0. -1.
         25    1    1    2    0    0 -0.50366425262E+02  0.27270991004E+03 -0.17845275265E+03  0.35267244967E+03  0.12500000000E+03 0.  0.
          1    1    1    2  502    0 -0.13688228794E+02  0.27975136077E+02 -0.92004752207E+02  0.97133157442E+02  0.00000000000E+00 0. -1.
         -1    1    1    2    0  501  0.64054654057E+02 -0.30068504612E+03 -0.23946341346E+02  0.30836329699E+03  0.00000000000E+00 0.  1.
<mgrwt>
<rscale>  4 0.69867479E+03</rscale>
<asrwt>0</asrwt>
<pdfrwt beam="1">  1        2 0.80967133E-01 0.69867479E+03</pdfrwt>
<pdfrwt beam="2">  1       -2 0.35674236E-01 0.69867479E+03</pdfrwt>
<totfact> 0.43139553E+02</totfact>
</mgrwt>
</event>
<event>
 5    0  0.5719562E-003  0.9976670E+03  0.7546771E-02  0.9311107E-01
          2   -1    0    0  502    0  0.00000000000E+00  0.00000000000E+00  0.22839976422E+03  0.22839976422E+03  0.00000000000E+00 0.  1.
         -2   -1    0    0    0  501 -0.00000000000E+00 -0.00000000000E+00 -0.10894707866E+04  0.10894707866E+04  0.00000000000E+00 0. -1.
         25    1    1    2    0    0  0.13553293924E+03 -0.26242622321E+03 -0.76313262461E+03  0.82778807856E+03  0.12500000000E+03 0.  0.
          3    1    1    2  502    0  0.26797604063E+02  0.21111208319E+03 -0.19962222485E+03  0.29177980723E+03  0.00000000000E+00 0. -1.
         -3    1    1    2    0  501 -0.16233054331E+03  0.51314140027E+02  0.10168382711E+03  0.19830266502E+03  0.00000000000E+00 0.  1.
<mgrwt>
<rscale>  4 0.99766702E+03</rscale>
<asrwt>0</asrwt>
<pdfrwt beam="1">  1        2 0.35138425E-01 0.99766702E+03</pdfrwt>
<pdfrwt beam="2">  1       -2 0.16761089E+00 0.99766702E+03</pdfrwt>
<totfact> 0.32950105E+01</totfact>
</mgrwt>
</event>
<event>
 5    0  0.5719562E-003  0.8746302E+03  0.7546771E-02  0.9457863E-01
          1   -1    0    0  502    0  0.00000000000E+00  0.00000000000E+00  0.94773269307E+03  0.94773269307E+03  0.00000000000E+00 0. -1.
         -1   -1    0    0    0  501 -0.00000000000E+00 -0.00000000000E+00 -0.20179160080E+03  0.20179160080E+03  0.00000000000E+00 0.  1.
         25    1    1    2    0    0  0.39241105761E+03 -0.50576173530E+02  0.55725171545E+03  0.69476532861E+03  0.12500000000E+03 0.  0.
          3    1    1    2  502    0 -0.16624299994E+03  0.27745094904E+02  0.16027829257E+02  0.16930273663E+03  0.00000000000E+00 0.  1.
         -3    1    1    2    0  501 -0.22616805767E+03  0.22831078626E+02  0.17266154757E+03  0.28545622864E+03  0.00000000000E+00 0. -1.
<mgrwt>
<rscale>  4 0.87463020E+03</rscale>
<asrwt>0</asrwt>
<pdfrwt beam="1">  1        1 0.14580503E+00 0.87463020E+03</pdfrwt>
<pdfrwt beam="2">  1       -1 0.31044862E-01 0.87463020E+03</pdfrwt>
<totfact> 0.16105176E+02</totfact>
</mgrwt>
</event>
<event>
 5    0  0.5719562E-003  0.7670647E+03  0.7546771E-02  0.9608952E-01
          1   -1    0    0  502    0  0.00000000000E+00  0.00000000000E+00  0.21419463935E+03  0.21419463935E+03  0.00000000000E+00 0. -1.
         -1   -1    0    0    0  501 -0.00000000000E+00 -0.00000000000E+00 -0.68674486338E+03  0.68674486338E+03  0.00000000000E+00 0.  1.
         25    1    1    2    0    0 -0.17220642112E+03 -0.16100902726E+03 -0.76688798893E+02  0.27764209013E+03  0.12500000000E+03 0.  0.
          2    1    1    2  502    0 -0.37838056285E+02 -0.11955603928E+03 -0.64684812343E+02  0.14110099213E+03  0.00000000000E+00 0.  1.
         -2    1    1    2    0  501  0.21004447741E+03  0.28056506654E+03 -0.33117661280E+03  0.48219642047E+03  0.00000000000E+00 0. -1.
<mgrwt>
<rscale>  4 0.76706471E+03</rscale>
<asrwt>0</asrwt>
<pdfrwt beam="1">  1        1 0.32953022E-01 0.76706471E+03</pdfrwt>
<pdfrwt beam="2">  1       -1 0.10565305E+00 0.76706471E+03</pdfrwt>
<totfact> 0.11574773E+02</totfact>
</mgrwt>
</event>
<event>
 5    0  0.5719562E-003  0.6234303E+03  0.7546771E-02  0.9857954E-01
          2   -1    0    0  502    0  0.00000000000E+00  0.00000000000E+00  0.17254036562E+04  0.17254036562E+04  0.00000000000E+00 0. -1.
         -2   -1    0    0    0  501 -0.00000000000E+00 -0.00000000000E+00 -0.56315135588E+02  0.56315135588E+02  0.00000000000E+00 0.  1.
         25    1    1    2    0    0 -0.19057623837E+03  0.12483388952E+03  0.40831877686E+03  0.48399589476E+03  0.12500000000E+03 0.  0.
          2    1    1    2  502    0  0.15557330381E+03 -0.77764255941E+02  0.12026019253E+04  0.12151138725E+04  0.00000000000E+00 0. -1.
         -2    1    1    2    0  501  0.35002934558E+02 -0.47069633578E+02  0.58167818434E+02  0.82609024533E+02  0.00000000000E+00 0.  1.
<mgrwt>
<rscale>  4 0.62343032E+03</rscale>
<asrwt>0</asrwt>
<pdfrwt beam="1">  1        2 0.26544668E+00 0.62343032E+03</pdfrwt>
<pdfrwt beam="2">  1       -2 0.86638683E-02 0.62343032E+03</pdfrwt>
<totfact> 0.84151567E+02</totfact>
</mgrwt>
</event>
<event>
 5    0  0.5719562E-003  0.5122719E+03  0.7546771E-02  0.1010624E+00
         -2   -1    0    0    0  501 -0.00000000000E+00  0.00000000000E+00  0.32717232991E+02  0.32717232991E+02  0.00000000000E+00 0. -1.
          2   -1    0    0  502    0  0.00000000000E+00 -0.00000000000E+00 -0.20052314769E+04  0.20052314769E+04  0.00000000000E+00 0.  1.
         25    1    1    2    0    0  0.12112304352E+03  0.16828629536E+03 -0.14739910989E+04  0.14937422229E+04  0.12500000000E+03 0.  0.
          3    1    1    2  502    0 -0.56744533819E+02 -0.79093292902E+02 -0.15071032428E+03  0.17941374793E+03  0.00000000000E+00 0.  1.
         -3    1    1    2    0  501 -0.64378509703E+02 -0.89193002462E+02 -0.34781282069E+03  0.36479273901E+03  0.00000000000E+00 0. -1.
<mgrwt>
<rscale>  4 0.51227190E+03</rscale>
<asrwt>0</asrwt>
<pdfrwt beam="1">  1        2 0.30849732E+00 0.51227190E+03</pdfrwt>
<pdfrwt beam="2">  1       -2 0.50334178E-02 0.51227190E+03</pdfrwt>
<totfact> 0.14058638E+03</totfact>
</mgrwt>
</event>
<event>
 5    0  0.5719562E-003  0.6342978E+03  0.7546771E-02  0.9836698E-01
          2   -1    0    0  502    0  0.00000000000E+00  0.00000000000E+00  0.36193489164E+04  0.36193489164E+04  0.00000000000E+00 0. -1.
         -2   -1    0    0    0  501 -0.00000000000E+00 -0.00000000000E+00 -0.27790475499E+02  0.27790475499E+02  0.00000000000E+00 0.  1.
         25    1    1    2    0    0  0.19478509121E+03 -0.53426360978E+02  0.12873929881E+04  0.13091223447E+04  0.12500000000E+03 0.  0.
          3    1    1    2  502    0  0.80142941495E+01 -0.12475910788E+03  0.63969565296E+03  0.65179720184E+03  0.00000000000E+00 0.  1.
         -3    1    1    2    0  501 -0.20279938536E+03  0.17818546886E+03  0.16644697999E+04  0.16862198453E+04  0.00000000000E+00 0. -1.
<mgrwt>
<rscale>  4 0.63429781E+03</rscale>
<asrwt>0</asrwt>
<pdfrwt beam="1">  1        2 0.55682254E+00 0.63429781E+03</pdfrwt>
<pdfrwt beam="2">  1       -2 0.42754606E-02 0.63429781E+03</pdfrwt>
<totfact> 0.19348416E+02</totfact>
</mgrwt>
</event>
<event>
 5    0  0.5719562E-003  0.7297496E+03  0.7546771E-02  0.9667667E-01
         -2   -1    0    0    0  501 -0.00000000000E+00  0.00000000000E+00  0.50370752197E+02  0.50370752197E+02  0.00000000000E+00 0.  1.
          2   -1    0    0  502    0  0.00000000000E+00 -0.00000000000E+00 -0.26430738649E+04  0.26430738649E+04  0.00000000000E+00 0. -1.
         25    1    1    2    0    0  0.98098799677E+01  0.22907694326E+03 -0.14423919333E+04  0.14658417271E+04  0.12500000000E+03 0.  0.
          1    1    1    2  502    0  0.14192987935E+02  0.85916169948E+02 -0.46367794046E+03  0.47178412609E+03  0.00000000000E+00 0. -1.
         -1    1    1    2    0  501 -0.24002867903E+02 -0.31499311321E+03 -0.68663323895E+03  0.75581876390E+03  0.00000000000E+00 0.  1.
<mgrwt>
<rscale>  4 0.72974960E+03</rscale>
<asrwt>0</asrwt>
<pdfrwt beam="1">  1        2 0.40662687E+00 0.72974960E+03</pdfrwt>
<pdfrwt beam="2">  1       -2 0.77493441E-02 0.72974960E+03</pdfrwt>
<totfact> 0.31043981E+02</totfact>
</mgrwt>
</event>
<event>
 5    0  0.5719562E-003  0.5087819E+03  0.7546771E-02  0.1011512E+00
          1   -1    0    0  502    0  0.00000000000E+00  0.00000000000E+00  0.56826566636E+03  0.56826566636E+03  0.00000000000E+00 0. -1.
         -1   -1    0    0    0  501 -0.00000000000E+00 -0.00000000000E+00 -0.11388117909E+03  0.11388117909E+03  0.00000000000E+00 0.  1.
         25    1    1    2    0    0  0.13787460015E+03 -0.18597962227E+03  0.27303597962E+03  0.37917208683E+03  0.12500000000E+03 0.  0.
          4    1    1    2  502    0 -0.69023144212E+02  0.87225829316E+02  0.42177310877E+02  0.11895993145E+03  0.00000000000E+00 0.  1.
         -4    1    1    2    0  501 -0.68851455943E+02  0.98753792954E+02  0.13917119677E+03  0.18401482717E+03  0.00000000000E+00 0. -1.
<mgrwt>
<rscale>  4 0.50878193E+03</rscale>
<asrwt>0</asrwt>
<pdfrwt beam="1">  1        1 0.87425486E-01 0.50878193E+03</pdfrwt>
<pdfrwt beam="2">  1       -1 0.17520182E-01 0.50878193E+03</pdfrwt>
<totfact> 0.94909714E+02</totfact>
</mgrwt>
</event>
<event>
 5    0  0.5719562E-003  0.5597365E+03  0.7546771E-02  0.9992651E-01
          2   -1    0    0  502    0  0.00000000000E+00  0.00000000000E+00  0.81843320768E+03  0.81843320768E+03  0.00000000000E+00 0.  1.
         -2   -1    0    0    0  501 -0.00000000000E+00 -0.00000000000E+00 -0.95702672609E+02  0.95702672609E+02  0.00000000000E+00 0. -1.
         25    1    1    2    0    0 -0.18725216078E+03  0.11511077483E+03  0.14161553800E+03  0.28981687805E+03  0.12500000000E+03 0.  0.
          3    1    1    2  502    0  0.18058832929E+03 -0.90005964875E+02  0.50130349860E+03  0.54038728344E+03  0.00000000000E+00 0.  1.
         -3    1    1    2    0  501  0.66638314961E+01 -0.25104809955E+02  0.79811498469E+02  0.83931718801E+02  0.00000000000E+00 0. -1.
<mgrwt>
<rscale>  4 0.55973653E+03</rscale>
<asrwt>0</asrwt>
<pdfrwt beam="1">  1        2 0.12591280E+00 0.55973653E+03</pdfrwt>
<pdfrwt beam="2">  1       -2 0.14723489E-01 0.55973653E+03</pdfrwt>
<totfact> 0.12138439E+03</totfact>
</mgrwt>
</event>
<event>
 5    0  0.5719562E-003  0.8896399E+03  0.7546771E-02  0.9438625E-01
          1   -1    0    0  502    0  0.00000000000E+00  0.00000000000E+00  0.12474632863E+03  0.12474632863E+03  0.00000000000E+00 0.  1.
         -1   -1    0    0    0  501 -0.00000000000E+00 -0.00000000000E+00 -0.15861372156E+04  0.15861372156E+04  0.00000000000E+00 0. -1.
         25    1    1    2    0    0 -0.41704314228E+03  0.14291421562E+01 -0.52143246623E+03  0.67929657868E+03  0.12500000000E+03 0.  0.
          2    1    1    2  502    0  0.36236310917E+03  0.64049536668E+01 -0.86985890311E+03  0.94233887622E+03  0.00000000000E+00 0.  1.
         -2    1    1    2    0  501  0.54680033112E+02 -0.78340958229E+01 -0.70099517667E+02  0.89248089367E+02  0.00000000000E+00 0. -1.
<mgrwt>
<rscale>  4 0.88963991E+03</rscale>
<asrwt>0</asrwt>
<pdfrwt beam="1">  1        1 0.19191743E-01 0.88963991E+03</pdfrwt>
<pdfrwt beam="2">  1       -1 0.24402110E+00 0.88963991E+03</pdfrwt>
<totfact> 0.21520797E+01</totfact>
</mgrwt>
</event>
<event>
 5    0  0.5719562E-003  0.7888700E+03  0.7546771E-02  0.9576268E-01
         -1   -1    0    0    0  501 -0.00000000000E+00  0.00000000000E+00  0.10765391740E+03  0.10765391740E+03  0.00000000000E+00 0.  1.
          1   -1    0    0  502    0  0.00000000000E+00 -0.00000000000E+00 -0.14451771312E+04  0.14451771312E+04  0.00000000000E+00 0. -1.
         25    1    1    2    0    0  0.16738723683E+03  0.32510492055E+03 -0.63240707720E+03  0.74113116769E+03  0.12500000000E+03 0.  0.
          3    1    1    2  502    0 -0.18154993955E+03 -0.28033714954E+03 -0.50008161798E+03  0.60135756635E+03  0.00000000000E+00 0.  1.
         -3    1    1    2    0  501  0.14162702711E+02 -0.44767771006E+02 -0.20503451866E+03  0.21034231460E+03  0.00000000000E+00 0. -1.
<mgrwt>
<rscale>  4 0.78887003E+03</rscale>
<asrwt>0</asrwt>
<pdfrwt beam="1">  1        1 0.22233495E+00 0.78887003E+03</pdfrwt>
<pdfrwt beam="2">  1       -1 0.16562141E-01 0.78887003E+03</pdfrwt>
<totfact> 0.20277647E+02</totfact>
</mgrwt>
</event>
<event>
 5    0  0.5719562E-003  0.6541558E+03  0.7546771E-02  0.9799012E-01
         -2   -1    0    0    0  501 -0.00000000000E+00  0.00000000000E+00  0.45099668407E+03  0.45099668407E+03  0.00000000000E+00 0. -1.
          2   -1    0    0  502    0  0.00000000000E+00 -0.00000000000E+00 -0.23720784013E+03  0.23720784013E+03  0.00000000000E+00 0.  1.
         25    1    1    2    0    0 -0.17635100899E+03  0.15034756110E+03  0.23878294111E+03  0.35545233220E+03  0.12500000000E+03 0.  0.
          3    1    1    2  502    0  0.20402006480E+03 -0.92631261201E+02  0.54594592887E+02  0.23061939850E+03  0.00000000000E+00 0. -1.
         -3    1    1    2    0  501 -0.27669055814E+02 -0.57716299903E+02 -0.79588690050E+02  0.10213279350E+03  0.00000000000E+00 0.  1.
<mgrwt>
<rscale>  4 0.65415579E+03</rscale>
<asrwt>0</asrwt>
<pdfrwt beam="1">  1        2 0.36493514E-01 0.65415579E+03</pdfrwt>
<pdfrwt beam="2">  1       -2 0.69384105E-01 0.65415579E+03</pdfrwt>
<totfact> 0.27327636E+02</totfact>
</mgrwt>
</event>
<event>
 5    0  0.5719562E-003  0.5179839E+03  0.7546771E-02  0.1009189E+00
         -1   -1    0    0    0  501 -0.00000000000E+00  0.00000000000E+00  0.63851097290E+02  0.63851097290E+02  0.00000000000E+00 0.  1.
          1   -1    0    0  502    0  0.00000000000E+00 -0.00000000000E+00 -0.10505195463E+04  0.10505195463E+04  0.00000000000E+00 0. -1.
         25    1    1    2    0    0  0.15019066636E+03 -0.16510603912E+03 -0.36776618176E+03  0.44798906779E+03  0.12500000000E+03 0.  0.
          2    1    1    2  502    0 -0.90031004442E+02  0.11495578445E+03 -0.52062229622E+03  0.54071063375E+03  0.00000000000E+00 0. -1.
         -2    1    1    2    0  501 -0.60159661913E+02  0.50150254679E+02 -0.98279971014E+02  0.12567094202E+03  0.00000000000E+00 0.  1.
<mgrwt>
<rscale>  4 0.51798388E+03</rscale>
<asrwt>0</asrwt>
<pdfrwt beam="1">  1        1 0.16161838E+00 0.51798388E+03</pdfrwt>
<pdfrwt beam="2">  1       -1 0.98232466E-02 0.51798388E+03</pdfrwt>
<totfact> 0.91165200E+02</totfact>
</mgrwt>
</event>
<event>
 5    0  0.5719562E-003  0.6932166E+03  0.7546771E-02  0.9728904E-01
          2   -1    0    0  502    0  0.00000000000E+00  0.00000000000E+00  0.31237223050E+03  0.31237223050E+03  0.00000000000E+00 0. -1.
         -2   -1    0    0    0  501 -0.00000000000E+00 -0.00000000000E+00 -0.38459664595E+03  0.38459664595E+03  0.00000000000E+00 0.  1.
         25    1    1    2    0    0  0.13327750243E+02  0.31423642794E+03  0.12670696295E+02  0.33868526409E+03  0.12500000000E+03 0.  0.
          4    1    1    2  502    0 -0.56684027787E+02 -0.29432997378E+03 -0.65671675428E+02  0.30684846655E+03  0.00000000000E+00 0. -1.
         -4    1    1    2    0  501  0.43356277544E+02 -0.19906454157E+02 -0.19223436316E+02  0.51435145799E+02  0.00000000000E+00 0.  1.
<mgrwt>
<rscale>  4 0.69321660E+03</rscale>
<asrwt>0</asrwt>
<pdfrwt beam="1">  1        2 0.48057266E-01 0.69321660E+03</pdfrwt>
<pdfrwt beam="2">  1       -2 0.59168715E-01 0.69321660E+03</pdfrwt>
<totfact> 0.28267688E+02</totfact>
</mgrwt>
</event>
<event>
 5    0  0.5719562E-003  0.5745847E+03  0.7546771E-02  0.9959584E-01
          1   -1    0    0  502    0  0.00000000000E+00  0.00000000000E+00  0.11475153771E+03  0.11475153771E+03  0.00000000000E+00 0.  1.
         -1   -1    0    0    0  501 -0.00000000000E+00 -0.00000000000E+00 -0.71926604664E+03  0.71926604664E+03  0.00000000000E+00 0. -1.
         25    1    1    2    0    0  0.28625360460E+02  0.26002201609E+03 -0.39242791315E+03  0.48790934315E+03  0.12500000000E+03 0.  0.
          4    1    1    2  502    0 -0.45629054106E+02 -0.22069355927E+03 -0.15016672991E+03  0.27080935075E+03  0.00000000000E+00 0. -1.
         -4    1    1    2    0  501  0.17003693646E+02 -0.39328456818E+02 -0.61919865873E+02  0.75298890450E+02  0.00000000000E+00 0.  1.
<mgrwt>
<rscale>  4 0.57458467E+03</rscale>
<asrwt>0</asrwt>
<pdfrwt beam="1">  1        1 0.17654083E-01 0.57458467E+03</pdfrwt>
<pdfrwt beam="2">  1       -1 0.11065631E+00 0.57458467E+03</pdfrwt>
<totfact> 0.23756769E+02</totfact>
</mgrwt>
</event>
<event>
 5    0  0.5719562E-003  0.6852876E+03  0.7546771E-02  0.9742728E-01
         -2   -1    0    0    0  501 -0.00000000000E+00  0.00000000000E+00  0.29248478865E+02  0.29248478865E+02  0.00000000000E+00 0. -1.
          2   -1    0    0  502    0  0.00000000000E+00 -0.00000000000E+00 -0.40140473919E+04  0.40140473919E+04  0.00000000000E+00 0.  1.
         25    1    1    2    0    0 -0.12944418341E+03 -0.18347826999E+03 -0.63381375520E+03  0.68393343862E+03  0.12500000000E+03 0.  0.
          3    1    1    2  502    0  0.34401651832E+02  0.48657856654E+01 -0.47360480697E+03  0.47487752390E+03  0.00000000000E+00 0. -1.
         -3    1    1    2    0  501  0.95042531576E+02  0.17861248433E+03 -0.28773803508E+04  0.28844849082E+04  0.00000000000E+00 0.  1.
<mgrwt>
<rscale>  4 0.68528762E+03</rscale>
<asrwt>0</asrwt>
<pdfrwt beam="1">  1        2 0.61754538E+00 0.68528762E+03</pdfrwt>
<pdfrwt beam="2">  1       -2 0.44997687E-02 0.68528762E+03</pdfrwt>
<totfact> 0.90289321E+01</totfact>
</mgrwt>
</event>
<event>
 5    0  0.5719562E-003  0.5008652E+03  0.7546771E-02  0.1013553E+00
         -2   -1    0    0    0  501 -0.00000000000E+00  0.00000000000E+00  0.53226393167E+02  0.53226393167E+02  0.00000000000E+00 0. -1.
          2   -1    0    0  502    0  0.00000000000E+00 -0.00000000000E+00 -0.11782969479E+04  0.11782969479E+04  0.00000000000E+00 0.  1.
         25    1    1    2    0    0 -0.20660408339E+02  0.22327431735E+03 -0.63908124798E+03  0.68871482835E+03  0.12500000000E+03 0.  0.
          4    1    1    2  502    0  0.21843236966E+02 -0.11080658505E+03 -0.34157736065E+03  0.35976425559E+03  0.00000000000E+00 0.  1.
         -4    1    1    2    0  501 -0.11828286264E+01 -0.11246773230E+03 -0.14441194610E+03  0.18304425713E+03  0.00000000000E+00 0. -1.
<mgrwt>
<rscale>  4 0.50086524E+03</rscale>
<asrwt>0</asrwt>
<pdfrwt beam="1">  1        2 0.18127645E+00 0.50086524E+03</pdfrwt>
<pdfrwt beam="2">  1       -2 0.81886758E-02 0.50086524E+03</pdfrwt>
<totfact> 0.18694649E+03</totfact>
</mgrwt>
</event>
<event>
 5    0  0.5719562E-003  0.6921546E+03  0.7546771E-02  0.9730744E-01
         -1   -1    0    0    0  501 -0.00000000000E+00  0.00000000000E+00  0.40650034602E+03  0.40650034602E+03  0.00000000000E+00 0. -1.
          1   -1    0    0  502    0  0.00000000000E+00 -0.00000000000E+00 -0.29463566572E+03  0.29463566572E+03  0.00000000000E+00 0.  1.
         25    1    1    2    0    0 -0.24530654437E+03 -0.64781470241E+02  0.27121036099E+03  0.39185711619E+03  0.12500000000E+03 0.  0.
          1    1    1    2  502    0  0.20497976547E+03  0.43631404721E+02 -0.94135510360E+02  0.22974311315E+03  0.00000000000E+00 0.  1.
         -1    1    1    2    0  501  0.40326778905E+02  0.21150065520E+02 -0.65210170328E+02  0.79535782404E+02  0.00000000000E+00 0. -1.
<mgrwt>
<rscale>  4 0.69215461E+03</rscale>
<asrwt>0</asrwt>
<pdfrwt beam="1">  1        1 0.45328564E-01 0.69215461E+03</pdfrwt>
<pdfrwt beam="2">  1       -1 0.62538515E-01 0.69215461E+03</pdfrwt>
<totfact> 0.23615764E+02</totfact>
</mgrwt>
</event>
<event>
 5    0  0.5719562E-003  0.4622945E+03  0.7546771E-02  0.1024118E+00
         -4   -1    0    0    0  501 -0.00000000000E+00  0.00000000000E+00  0.25486142435E+03  0.25486142435E+03  0.00000000000E+00 0. -1.
          4   -1    0    0  502    0  0.00000000000E+00 -0.00000000000E+00 -0.20963960429E+03  0.20963960429E+03  0.00000000000E+00 0.  1.
         25    1    1    2    0    0 -0.20086345394E+03 -0.44151055239E+02  0.75910449208E+02  0.25235459002E+03  0.12500000000E+03 0.  0.
          1    1    1    2  502    0  0.14663200382E+03  0.47209144999E+02 -0.11247023416E+02  0.15445434099E+03  0.00000000000E+00 0. -1.
         -1    1    1    2    0  501  0.54231450119E+02 -0.30580897600E+01 -0.19441605738E+02  0.57692097628E+02  0.00000000000E+00 0.  1.
<mgrwt>
<rscale>  4 0.46229449E+03</rscale>
<asrwt>0</asrwt>
<pdfrwt beam="1">  1        4 0.32252247E-01 0.46229449E+03</pdfrwt>
<pdfrwt beam="2">  1       -4 0.39209450E-01 0.46229449E+03</pdfrwt>
<totfact> 0.11458099E+02</totfact>
</mgrwt>
</event>
<event>
 5    0  0.5719562E-003  0.4526298E+03  0.7546771E-02  0.1026941E+00
         -2   -1    0    0    0  501 -0.00000000000E+00  0.00000000000E+00  0.17850402021E+02  0.17850402021E+02  0.00000000000E+00 0.  1.
          2   -1    0    0  502    0  0.00000000000E+00 -0.00000000000E+00 -0.28693151484E+04  0.28693151484E+04  0.00000000000E+00 0. -1.
         25    1    1    2    0    0  0.13657252081E+03  0.14881354982E+03 -0.14737054943E+04  0.14927258322E+04  0.12500000000E+03 0.  0.
          3    1    1    2  502    0 -0.13012363263E+03 -0.11596303177E+03 -0.12605552680E+04  0.12725482970E+04  0.00000000000E+00 0. -1.
         -3    1    1    2    0  501 -0.64488881788E+01 -0.32850518051E+02 -0.11720398400E+03  0.12189142119E+03  0.00000000000E+00 0.  1.
<mgrwt>
<rscale>  4 0.45262978E+03</rscale>
<asrwt>0</asrwt>
<pdfrwt beam="1">  1        2 0.44143269E+00 0.45262978E+03</pdfrwt>
<pdfrwt beam="2">  1       -2 0.27462182E-02 0.45262978E+03</pdfrwt>
<totfact> 0.11727224E+03</totfact>
</mgrwt>
</event>
<event>
 5    0  0.5719562E-003  0.6537063E+03  0.7546771E-02  0.9799849E-01
          2   -1    0    0  502    0  0.00000000000E+00  0.00000000000E+00  0.15013165201E+04  0.15013165201E+04  0.00000000000E+00 0. -1.
         -2   -1    0    0    0  501 -0.00000000000E+00 -0.00000000000E+00 -0.71159523669E+02  0.71159523669E+02  0.00000000000E+00 0.  1.
         25    1    1    2    0    0  0.24915486313E+02 -0.22964073299E+03  0.23694963215E+03  0.35373121983E+03  0.12500000000E+03 0.  0.
          1    1    1    2  502    0  0.30621247016E+02  0.87344613842E+02  0.36382795664E+03  0.37541646790E+03  0.00000000000E+00 0.  1.
         -1    1    1    2    0  501 -0.55536733329E+02  0.14229611915E+03  0.82937940759E+03  0.84332835599E+03  0.00000000000E+00 0. -1.
<mgrwt>
<rscale>  4 0.65370626E+03</rscale>
<asrwt>0</asrwt>
<pdfrwt beam="1">  1        2 0.23097175E+00 0.65370626E+03</pdfrwt>
<pdfrwt beam="2">  1       -2 0.10947620E-01 0.65370626E+03</pdfrwt>
<totfact> 0.76291764E+02</totfact>
</mgrwt>
</event>
<event>
 5    0  0.5719562E-003  0.9888764E+03  0.7546771E-02  0.9320830E-01
          2   -1    0    0  502    0  0.00000000000E+00  0.00000000000E+00  0.86407111444E+03  0.86407111444E+03  0.00000000000E+00 0. -1.
         -2   -1    0    0    0  501 -0.00000000000E+00 -0.00000000000E+00 -0.28292708020E+03  0.28292708020E+03  0.00000000000E+00 0.  1.
         25    1    1    2    0    0  0.22215580605E+03 -0.37317560935E+03  0.46965728424E+02  0.45436110883E+03  0.12500000000E+03 0.  0.
          3    1    1    2  502    0 -0.18363352393E+03  0.35055378955E+03  0.48944611117E+03  0.62941776763E+03  0.00000000000E+00 0. -1.
         -3    1    1    2    0  501 -0.38522282125E+02  0.22621819800E+02  0.44732194654E+02  0.63219318169E+02  0.00000000000E+00 0.  1.
<mgrwt>
<rscale>  4 0.98887637E+03</rscale>
<asrwt>0</asrwt>
<pdfrwt beam="1">  1        2 0.13293402E+00 0.98887637E+03</pdfrwt>
<pdfrwt beam="2">  1       -2 0.43527244E-01 0.98887637E+03</pdfrwt>
<totfact> 0.15506682E+02</totfact>
</mgrwt>
</event>
<event>
 5    0  0.5719562E-003  0.5225662E+03  0.7546771E-02  0.1008051E+00
         -1   -1    0    0    0  501 -0.00000000000E+00  0.00000000000E+00  0.16466892675E+03  0.16466892675E+03  0.00000000000E+00 0.  1.
          1   -1    0    0  502    0  0.00000000000E+00 -0.00000000000E+00 -0.41458251055E+03  0.41458251055E+03  0.00000000000E+00 0. -1.
         25    1    1    2    0    0  0.16257259119E+03  0.15214860600E+03 -0.91029838598E+02  0.27109127103E+03  0.12500000000E+03 0.  0.
          3    1    1    2  502    0 -0.18856498434E+03 -0.12515657332E+03 -0.14089285329E+03  0.26659279299E+03  0.00000000000E+00 0. -1.
         -3    1    1    2    0  501  0.25992393150E+02 -0.26992032678E+02 -0.17990891911E+02  0.41567373282E+02  0.00000000000E+00 0.  1.
<mgrwt>
<rscale>  4 0.52256620E+03</rscale>
<asrwt>0</asrwt>
<pdfrwt beam="1">  1        1 0.63781925E-01 0.52256620E+03</pdfrwt>
<pdfrwt beam="2">  1       -1 0.25333681E-01 0.52256620E+03</pdfrwt>
<totfact> 0.78771903E+02</totfact>
</mgrwt>
</event>
<event>
 5    0  0.5719562E-003  0.6007976E+03  0.7546771E-02  0.9903753E-01
         -2   -1    0    0    0  501 -0.00000000000E+00  0.00000000000E+00  0.52782209939E+02  0.52782209939E+02  0.00000000000E+00 0.  1.
          2   -1    0    0  502    0  0.00000000000E+00 -0.00000000000E+00 -0.17096565888E+04  0.17096565888E+04  0.00000000000E+00 0. -1.
         25    1    1    2    0    0 -0.19268773367E+03 -0.77640535972E+02 -0.67097272377E+03  0.71343255573E+03  0.12500000000E+03 0.  0.
          4    1    1    2  502    0 -0.14697324479E+02 -0.86839254270E+02 -0.17355315207E+03  0.19462210569E+03  0.00000000000E+00 0.  1.
         -4    1    1    2    0  501  0.20738505815E+03  0.16447979024E+03 -0.81234850298E+03  0.85438413728E+03  0.00000000000E+00 0. -1.
<mgrwt>
<rscale>  4 0.60079765E+03</rscale>
<asrwt>0</asrwt>
<pdfrwt beam="1">  1        2 0.26302407E+00 0.60079765E+03</pdfrwt>
<pdfrwt beam="2">  1       -2 0.81203406E-02 0.60079765E+03</pdfrwt>
<totfact> 0.95321222E+02</totfact>
</mgrwt>
</event>
<event>
 5    0  0.5719562E-003  0.6013748E+03  0.7546771E-02  0.9902558E-01
          2   -1    0    0  502    0  0.00000000000E+00  0.00000000000E+00  0.46645130970E+03  0.46645130970E+03  0.00000000000E+00 0.  1.
         -2   -1    0    0    0  501 -0.00000000000E+00 -0.00000000000E+00 -0.19383142048E+03  0.19383142048E+03  0.00000000000E+00 0. -1.
         25    1    1    2    0    0  0.37654519349E+02  0.21443054015E+03 -0.10338641354E+02  0.25125725239E+03  0.12500000000E+03 0.  0.
          3    1    1    2  502    0  0.25263787605E+02 -0.38449236887E+02 -0.22279361431E+02  0.51117244909E+02  0.00000000000E+00 0. -1.
         -3    1    1    2    0  501 -0.62918306953E+02 -0.17598130326E+03  0.30523789200E+03  0.35790823288E+03  0.00000000000E+00 0.  1.
<mgrwt>
<rscale>  4 0.60137482E+03</rscale>
<asrwt>0</asrwt>
<pdfrwt beam="1">  1        2 0.71761740E-01 0.60137482E+03</pdfrwt>
<pdfrwt beam="2">  1       -2 0.29820219E-01 0.60137482E+03</pdfrwt>
<totfact> 0.69575244E+02</totfact>
</mgrwt>
</event>
<event>
 5    0  0.5719562E-003  0.6174897E+03  0.7546771E-02  0.9869770E-01
          2   -1    0    0  502    0  0.00000000000E+00  0.00000000000E+00  0.10278475941E+03  0.10278475941E+03  0.00000000000E+00 0. -1.
         -2   -1    0    0    0  501 -0.00000000000E+00 -0.00000000000E+00 -0.92740783916E+03  0.92740783916E+03  0.00000000000E+00 0.  1.
         25    1    1    2    0    0  0.82496367363E+02  0.21483874830E+03 -0.22998322773E+03  0.34853783645E+03  0.12500000000E+03 0.  0.
          1    1    1    2  502    0  0.21353127284E+02 -0.76887121237E+02 -0.20891572899E+02  0.82486624826E+02  0.00000000000E+00 0. -1.
         -1    1    1    2    0  501 -0.10384949465E+03 -0.13795162706E+03 -0.57374827912E+03  0.59916813729E+03  0.00000000000E+00 0.  1.
<mgrwt>
<rscale>  4 0.61748973E+03</rscale>
<asrwt>0</asrwt>
<pdfrwt beam="1">  1        2 0.15813039E-01 0.61748973E+03</pdfrwt>
<pdfrwt beam="2">  1       -2 0.14267813E+00 0.61748973E+03</pdfrwt>
<totfact> 0.13054214E+02</totfact>
</mgrwt>
</event>
<event>
 5    0  0.5719562E-003  0.4558951E+03  0.7546771E-02  0.1025979E+00
         -4   -1    0    0    0  501 -0.00000000000E+00  0.00000000000E+00  0.97413523948E+03  0.97413523948E+03  0.00000000000E+00 0.  1.
          4   -1    0    0  502    0  0.00000000000E+00 -0.00000000000E+00 -0.53339713101E+02  0.53339713101E+02  0.00000000000E+00 0. -1.
         25    1    1    2    0    0 -0.47889396057E+01 -0.20482210997E+03  0.51869213339E+03  0.57152564239E+03  0.12500000000E+03 0.  0.
          3    1    1    2  502    0  0.27710544729E+01  0.22296881056E+02  0.12515901586E+02  0.25719203725E+02  0.00000000000E+00 0. -1.
         -3    1    1    2    0  501  0.20178851327E+01  0.18252522891E+03  0.38958749141E+03  0.43023010647E+03  0.00000000000E+00 0.  1.
<mgrwt>
<rscale>  4 0.45589514E+03</rscale>
<asrwt>0</asrwt>
<pdfrwt beam="1">  1        4 0.82061104E-02 0.45589514E+03</pdfrwt>
<pdfrwt beam="2">  1       -4 0.14986695E+00 0.45589514E+03</pdfrwt>
<totfact> 0.64833408E+01</totfact>
</mgrwt>
</event>
<event>
 5    0  0.5719562E-003  0.5719618E+03  0.7546771E-02  0.9965347E-01
         -2   -1    0    0    0  501 -0.00000000000E+00  0.00000000000E+00  0.21707516945E+02  0.21707516945E+02  0.00000000000E+00 0. -1.
          2   -1    0    0  502    0  0.00000000000E+00 -0.00000000000E+00 -0.37675920374E+04  0.37675920374E+04  0.00000000000E+00 0.  1.
         25    1    1    2    0    0  0.13725990486E+03  0.15703048644E+03 -0.82180617264E+03  0.85702347724E+03  0.12500000000E+03 0.  0.
          3    1    1    2  502    0 -0.22031497095E+02 -0.72883598937E+02 -0.94726369876E+03  0.95031885220E+03  0.00000000000E+00 0. -1.
         -3    1    1    2    0  501 -0.11522840776E+03 -0.84146887501E+02 -0.19768146490E+04  0.19819572249E+04  0.00000000000E+00 0.  1.
<mgrwt>
<rscale>  4 0.57196177E+03</rscale>
<asrwt>0</asrwt>
<pdfrwt beam="1">  1        2 0.57962950E+00 0.57196177E+03</pdfrwt>
<pdfrwt beam="2">  1       -2 0.33396182E-02 0.57196177E+03</pdfrwt>
<totfact> 0.22352747E+02</totfact>
</mgrwt>
</event>
<event>
 5    0  0.5719562E-003  0.5073711E+03  0.7546771E-02  0.1011873E+00
         -1   -1    0    0    0  501 -0.00000000000E+00  0.00000000000E+00  0.72392202394E+02  0.72392202394E+02  0.00000000000E+00 0.  1.
          1   -1    0    0  502    0  0.00000000000E+00 -0.00000000000E+00 -0.88899578911E+03  0.88899578911E+03  0.00000000000E+00 0. -1.
         25    1    1    2    0    0  0.11756921303E+03  0.17022817135E+03 -0.49646810545E+03  0.55218269613E+03  0.12500000000E+03 0.  0.
          3    1    1    2  502    0 -0.12843069355E+03 -0.56822642938E+02 -0.16378249736E+03  0.21574976764E+03  0.00000000000E+00 0. -1.
         -3    1    1    2    0  501  0.10861480526E+02 -0.11340552841E+03 -0.15635298390E+03  0.19345552773E+03  0.00000000000E+00 0.  1.
<mgrwt>
<rscale>  4 0.50737112E+03</rscale>
<asrwt>0</asrwt>
<pdfrwt beam="1">  1        1 0.13676858E+00 0.50737112E+03</pdfrwt>
<pdfrwt beam="2">  1       -1 0.11137262E-01 0.50737112E+03</pdfrwt>
<totfact> 0.99922437E+02</totfact>
</mgrwt>
</event>
<event>
 5    0  0.5719562E-003  0.8343044E+03  0.7546771E-02  0.9511649E-01
          1   -1    0    0  502    0  0.00000000000E+00  0.00000000000E+00  0.16175865788E+04  0.16175865788E+04  0.00000000000E+00 0.  1.
         -1   -1    0    0    0  501 -0.00000000000E+00 -0.00000000000E+00 -0.10757752390E+03  0.10757752390E+03  0.00000000000E+00 0. -1.
         25    1    1    2    0    0 -0.30434714499E+03 -0.12408036874E+02  0.67125965373E+03  0.74766012784E+03  0.12500000000E+03 0.  0.
          1    1    1    2  502    0  0.49038203035E+02  0.17345479904E+03  0.45399308138E+03  0.48846804461E+03  0.00000000000E+00 0.  1.
         -1    1    1    2    0  501  0.25530894196E+03 -0.16104676216E+03  0.38475631977E+03  0.48903593023E+03  0.00000000000E+00 0. -1.
<mgrwt>
<rscale>  4 0.83430440E+03</rscale>
<asrwt>0</asrwt>
<pdfrwt beam="1">  1        1 0.24885946E+00 0.83430440E+03</pdfrwt>
<pdfrwt beam="2">  1       -1 0.16550389E-01 0.83430440E+03</pdfrwt>
<totfact> 0.15422367E+02</totfact>
</mgrwt>
</event>
<event>
 5    0  0.5719562E-003  0.1231012E+04  0.7546771E-02  0.9086137E-01
          2   -1    0    0  502    0  0.00000000000E+00  0.00000000000E+00  0.12862648158E+04  0.12862648158E+04  0.00000000000E+00 0.  1.
         -2   -1    0    0    0  501 -0.00000000000E+00 -0.00000000000E+00 -0.29453312972E+03  0.29453312972E+03  0.00000000000E+00 0. -1.
         25    1    1    2    0    0 -0.36407290836E+03 -0.38903330886E+03  0.19713081018E+03  0.58170572829E+03  0.12500000000E+03 0.  0.
          2    1    1    2  502    0  0.16236925539E+03  0.25230185261E+03  0.21139690357E+03  0.36702677118E+03  0.00000000000E+00 0. -1.
         -2    1    1    2    0  501  0.20170365297E+03  0.13673145624E+03  0.58320397233E+03  0.63206544605E+03  0.00000000000E+00 0.  1.
<mgrwt>
<rscale>  4 0.12310119E+04</rscale>
<asrwt>0</asrwt>
<pdfrwt beam="1">  1        2 0.19788689E+00 0.12310119E+04</pdfrwt>
<pdfrwt beam="2">  1       -2 0.45312790E-01 0.12310119E+04</pdfrwt>
<totfact> 0.76557247E+01</totfact>
</mgrwt>
</event>
<event>
 5    0  0.5719562E-003  0.4859983E+03  0.7546771E-02  0.1017500E+00
          2   -1    0    0  502    0  0.00000000000E+00  0.00000000000E+00  0.41195506436E+03  0.41195506436E+03  0.00000000000E+00 0. -1.
         -2   -1    0    0    0  501 -0.00000000000E+00 -0.00000000000E+00 -0.14333746531E+03  0.14333746531E+03  0.00000000000E+00 0.  1.
         25    1    1    2    0    0  0.13185152840E+03  0.16243631189E+03  0.52485220161E+02  0.24929917629E+03  0.12500000000E+03 0.  0.
          3    1    1    2  502    0 -0.19981632665E+02 -0.49317438304E+01  0.81709714567E+01  0.22143904708E+02  0.00000000000E+00 0.  1.
         -3    1    1    2    0  501 -0.11186989574E+03 -0.15750456806E+03  0.20796140744E+03  0.28384944868E+03  0.00000000000E+00 0. -1.
<mgrwt>
<rscale>  4 0.48599833E+03</rscale>
<asrwt>0</asrwt>
<pdfrwt beam="1">  1        2 0.63377701E-01 0.48599833E+03</pdfrwt>
<pdfrwt beam="2">  1       -2 0.22051918E-01 0.48599833E+03</pdfrwt>
<totfact> 0.13789573E+03</totfact>
</mgrwt>
</event>
<event>
 5    0  0.5719562E-003  0.5551442E+03  0.7546771E-02  0.1000310E+00
         -1   -1    0    0    0  501 -0.00000000000E+00  0.00000000000E+00  0.25469523913E+03  0.25469523913E+03  0.00000000000E+00 0.  1.
          1   -1    0    0  502    0  0.00000000000E+00 -0.00000000000E+00 -0.30250375861E+03  0.30250375861E+03  0.00000000000E+00 0. -1.
         25    1    1    2    0    0 -0.16899483249E+03  0.11932717106E+03  0.34287583373E+02  0.24412878883E+03  0.12500000000E+03 0.  0.
          2    1    1    2  502    0  0.20413186431E+03 -0.73865642711E+02 -0.52884546288E+01  0.21714953132E+03  0.00000000000E+00 0.  1.
         -2    1    1    2    0  501 -0.35137031819E+02 -0.45461528350E+02 -0.76807648220E+02  0.95920677594E+02  0.00000000000E+00 0. -1.
<mgrwt>
<rscale>  4 0.55514419E+03</rscale>
<asrwt>0</asrwt>
<pdfrwt beam="1">  1        1 0.46539040E-01 0.55514419E+03</pdfrwt>
<pdfrwt beam="2">  1       -1 0.39183883E-01 0.55514419E+03</pdfrwt>
<totfact> 0.55412912E+02</totfact>
</mgrwt>
</event>
<event>
 5    0  0.5719562E-003  0.5170347E+03  0.7546771E-02  0.1009426E+00
          2   -1    0    0  502    0  0.00000000000E+00  0.00000000000E+00  0.12324071275E+03  0.12324071275E+03  0.00000000000E+00 0. -1.
         -2   -1    0    0    0  501 -0.00000000000E+00 -0.00000000000E+00 -0.54228201877E+03  0.54228201877E+03  0.00000000000E+00 0.  1.
         25    1    1    2    0    0  0.21535493185E+03  0.43404139482E+02 -0.10240050480E+03  0.27271327320E+03  0.12500000000E+03 0.  0.
          2    1    1    2  502    0 -0.15086039318E+03 -0.19320648587E+02 -0.15518667569E+03  0.21729024369E+03  0.00000000000E+00 0. -1.
         -2    1    1    2    0  501 -0.64494538678E+02 -0.24083490895E+02 -0.16145412553E+03  0.17551921463E+03  0.00000000000E+00 0.  1.
<mgrwt>
<rscale>  4 0.51703471E+03</rscale>
<asrwt>0</asrwt>
<pdfrwt beam="1">  1        2 0.18960109E-01 0.51703471E+03</pdfrwt>
<pdfrwt beam="2">  1       -2 0.83428004E-01 0.51703471E+03</pdfrwt>
<totfact> 0.38442735E+02</totfact>
</mgrwt>
</event>
<event>
 5    0  0.5719562E-003  0.5050089E+03  0.7546771E-02  0.1012480E+00
          2   -1    0    0  502    0  0.00000000000E+00  0.00000000000E+00  0.16140102198E+04  0.16140102198E+04  0.00000000000E+00 0.  1.
         -2   -1    0    0    0  501 -0.00000000000E+00 -0.00000000000E+00 -0.39503159065E+02  0.39503159065E+02  0.00000000000E+00 0. -1.
         25    1    1    2    0    0 -0.12594698604E+03  0.18866161446E+03  0.67788952207E+03  0.72568247340E+03  0.12500000000E+03 0.  0.
          2    1    1    2  502    0  0.10381537308E+03 -0.17138386633E+03  0.66541111042E+03  0.69492590051E+03  0.00000000000E+00 0.  1.
         -2    1    1    2    0  501  0.22131612955E+02 -0.17277748131E+02  0.23120642821E+03  0.23290500492E+03  0.00000000000E+00 0. -1.
<mgrwt>
<rscale>  4 0.50500892E+03</rscale>
<asrwt>0</asrwt>
<pdfrwt beam="1">  1        2 0.24830921E+00 0.50500892E+03</pdfrwt>
<pdfrwt beam="2">  1       -2 0.60774103E-02 0.50500892E+03</pdfrwt>
<totfact> 0.17050322E+03</totfact>
</mgrwt>
</event>
<event>
 5    0  0.5719562E-003  0.5263515E+03  0.7546771E-02  0.1007121E+00
         -2   -1    0    0    0  501 -0.00000000000E+00  0.00000000000E+00  0.20563225418E+02  0.20563225418E+02  0.00000000000E+00 0.  1.
          2   -1    0    0  502    0  0.00000000000E+00 -0.00000000000E+00 -0.33682200100E+04  0.33682200100E+04  0.00000000000E+00 0. -1.
         25    1    1    2    0    0  0.20376654082E+03 -0.83681959347E+02 -0.11627739186E+04  0.11900385117E+04  0.12500000000E+03 0.  0.
          4    1    1    2  502    0 -0.39053836430E+02  0.59181032500E+02 -0.95670462931E+03  0.95932859047E+03  0.00000000000E+00 0. -1.
         -4    1    1    2    0  501 -0.16471270439E+03  0.24500926847E+02 -0.12281782366E+04  0.12394161332E+04  0.00000000000E+00 0.  1.
<mgrwt>
<rscale>  4 0.52635147E+03</rscale>
<asrwt>0</asrwt>
<pdfrwt beam="1">  1        2 0.51818763E+00 0.52635147E+03</pdfrwt>
<pdfrwt beam="2">  1       -2 0.31635735E-02 0.52635147E+03</pdfrwt>
<totfact> 0.46066517E+02</totfact>
</mgrwt>
</event>
<event>
 5    0  0.5719562E-003  0.1193079E+04  0.7546771E-02  0.9118936E-01
         -2   -1    0    0    0  501 -0.00000000000E+00  0.00000000000E+00  0.23040615509E+03  0.23040615509E+03  0.00000000000E+00 0.  1.
          2   -1    0    0  502    0  0.00000000000E+00 -0.00000000000E+00 -0.15444867329E+04  0.15444867329E+04  0.00000000000E+00 0. -1.
         25    1    1    2    0    0 -0.14267924284E+03  0.43191347073E+03 -0.48236720296E+03  0.67469232323E+03  0.12500000000E+03 0.  0.
          1    1    1    2  502    0  0.86414592279E+02  0.80768086900E+02  0.37716041871E+01  0.11834352800E+03  0.00000000000E+00 0.  1.
         -1    1    1    2    0  501  0.56264650557E+02 -0.51268155763E+03 -0.83548497903E+03  0.98185703676E+03  0.00000000000E+00 0. -1.
<mgrwt>
<rscale>  4 0.11930788E+04</rscale>
<asrwt>0</asrwt>
<pdfrwt beam="1">  1        2 0.23761334E+00 0.11930788E+04</pdfrwt>
<pdfrwt beam="2">  1       -2 0.35447101E-01 0.11930788E+04</pdfrwt>
<totfact> 0.88384983E+01</totfact>
</mgrwt>
</event>
<event>
 5    0  0.5719562E-003  0.5079265E+03  0.7546771E-02  0.1011730E+00
         -1   -1    0    0    0  501 -0.00000000000E+00  0.00000000000E+00  0.19090794206E+03  0.19090794206E+03  0.00000000000E+00 0. -1.
          1   -1    0    0  502    0  0.00000000000E+00 -0.00000000000E+00 -0.33784520829E+03  0.33784520829E+03  0.00000000000E+00 0.  1.
         25    1    1    2    0    0  0.20924665057E+03 -0.44862171684E+02 -0.15832528262E+03  0.29408956176E+03  0.12500000000E+03 0.  0.
          4    1    1    2  502    0 -0.63100781222E+02 -0.20773642904E+02 -0.23925877653E+02  0.70609492646E+02  0.00000000000E+00 0.  1.
         -4    1    1    2    0  501 -0.14614586935E+03  0.65635814588E+02  0.35313894039E+02  0.16405409594E+03  0.00000000000E+00 0. -1.
<mgrwt>
<rscale>  4 0.50792650E+03</rscale>
<asrwt>0</asrwt>
<pdfrwt beam="1">  1        1 0.51976186E-01 0.50792650E+03</pdfrwt>
<pdfrwt beam="2">  1       -1 0.29370453E-01 0.50792650E+03</pdfrwt>
<totfact> 0.79911079E+02</totfact>
</mgrwt>
</event>
<event>
 5    0  0.5719562E-003  0.4980108E+03  0.7546771E-02  0.1014299E+00
          2   -1    0    0  502    0  0.00000000000E+00  0.00000000000E+00  0.11470621253E+04  0.11470621253E+04  0.00000000000E+00 0.  1.
         -2   -1    0    0    0  501 -0.00000000000E+00 -0.00000000000E+00 -0.54054342576E+02  0.54054342576E+02  0.00000000000E+00 0. -1.
         25    1    1    2    0    0 -0.97865010313E+02  0.17635476737E+03  0.61316354741E+03  0.65747479046E+03  0.12500000000E+03 0.  0.
          1    1    1    2  502    0  0.11349197750E+03 -0.15480759153E+03  0.26533935546E+03  0.32749166846E+03  0.00000000000E+00 0. -1.
         -1    1    1    2    0  501 -0.15626967189E+02 -0.21547175841E+02  0.21450487982E+03  0.21615000892E+03  0.00000000000E+00 0.  1.
<mgrwt>
<rscale>  4 0.49801080E+03</rscale>
<asrwt>0</asrwt>
<pdfrwt beam="1">  1        2 0.17647108E+00 0.49801080E+03</pdfrwt>
<pdfrwt beam="2">  1       -2 0.83160536E-02 0.49801080E+03</pdfrwt>
<totfact> 0.19032435E+03</totfact>
</mgrwt>
</event>
<event>
 5    0  0.5719562E-003  0.5385948E+03  0.7546771E-02  0.1004169E+00
         -2   -1    0    0    0  501 -0.00000000000E+00  0.00000000000E+00  0.18556078994E+03  0.18556078994E+03  0.00000000000E+00 0. -1.
          2   -1    0    0  502    0  0.00000000000E+00 -0.00000000000E+00 -0.39082123056E+03  0.39082123056E+03  0.00000000000E+00 0.  1.
         25    1    1    2    0    0 -0.21181530348E+03  0.10352726777E+03 -0.11488287400E+02  0.26709660931E+03  0.12500000000E+03 0.  0.
          4    1    1    2  502    0  0.15572643577E+03 -0.81596151738E+02 -0.11480251342E+03  0.20997207401E+03  0.00000000000E+00 0.  1.
         -4    1    1    2    0  501  0.56088867708E+02 -0.21931116034E+02 -0.78969639795E+02  0.99313337174E+02  0.00000000000E+00 0. -1.
<mgrwt>
<rscale>  4 0.53859482E+03</rscale>
<asrwt>0</asrwt>
<pdfrwt beam="1">  1        2 0.60126343E-01 0.53859482E+03</pdfrwt>
<pdfrwt beam="2">  1       -2 0.28547814E-01 0.53859482E+03</pdfrwt>
<totfact> 0.92050581E+02</totfact>
</mgrwt>
</event>
<event>
 5    0  0.5719562E-003  0.5503739E+03  0.7546771E-02  0.1001407E+00
         -1   -1    0    0    0  501 -0.00000000000E+00  0.00000000000E+00  0.39579133048E+02  0.39579133048E+02  0.00000000000E+00 0.  1.
          1   -1    0    0  502    0  0.00000000000E+00 -0.00000000000E+00 -0.19133275409E+04  0.19133275409E+04  0.00000000000E+00 0. -1.
         25    1    1    2    0    0 -0.10373138057E+03 -0.21756396502E+03 -0.90860037848E+03  0.94830054622E+03  0.12500000000E+03 0.  0.
          1    1    1    2  502    0  0.45972057878E+02  0.19901698719E+03 -0.58467262632E+03  0.61932485116E+03  0.00000000000E+00 0.  1.
         -1    1    1    2    0  501  0.57759322691E+02  0.18546977828E+02 -0.38047540310E+03  0.38528127662E+03  0.00000000000E+00 0. -1.
<mgrwt>
<rscale>  4 0.55037386E+03</rscale>
<asrwt>0</asrwt>
<pdfrwt beam="1">  1        1 0.29435812E+00 0.55037386E+03</pdfrwt>
<pdfrwt beam="2">  1       -1 0.60890966E-02 0.55037386E+03</pdfrwt>
<totfact> 0.48729635E+02</totfact>
</mgrwt>
</event>
<event>
 5    0  0.5719562E-003  0.4773013E+03  0.7546771E-02  0.1019880E+00
          2   -1    0    0  502    0  0.00000000000E+00  0.00000000000E+00  0.76690906492E+03  0.76690906492E+03  0.00000000000E+00 0. -1.
         -2   -1    0    0    0  501 -0.00000000000E+00 -0.00000000000E+00 -0.74264504485E+02  0.74264504485E+02  0.00000000000E+00 0.  1.
         25    1    1    2    0    0 -0.12174798067E+03 -0.16630594761E+03  0.27081356588E+03  0.36255375667E+03  0.12500000000E+03 0.  0.
          3    1    1    2  502    0  0.25766080957E+02  0.36493557241E+02  0.27346780156E+02  0.52378593269E+02  0.00000000000E+00 0.  1.
         -3    1    1    2    0  501  0.95981899717E+02  0.12981239037E+03  0.39448421440E+03  0.42624121947E+03  0.00000000000E+00 0. -1.
<mgrwt>
<rscale>  4 0.47730125E+03</rscale>
<asrwt>0</asrwt>
<pdfrwt beam="1">  1        2 0.11798600E+00 0.47730125E+03</pdfrwt>
<pdfrwt beam="2">  1       -2 0.11425309E-01 0.47730125E+03</pdfrwt>
<totfact> 0.20111715E+03</totfact>
</mgrwt>
</event>
<event>
 5    0  0.5719562E-003  0.5309714E+03  0.7546771E-02  0.1005997E+00
          2   -1    0    0  502    0  0.00000000000E+00  0.00000000000E+00  0.78400873166E+03  0.78400873166E+03  0.00000000000E+00 0. -1.
         -2   -1    0    0    0  501 -0.00000000000E+00 -0.00000000000E+00 -0.89900339198E+02  0.89900339198E+02  0.00000000000E+00 0.  1.
         25    1    1    2    0    0 -0.64766372871E+02 -0.20717342096E+03  0.30062262225E+03  0.39129844163E+03  0.12500000000E+03 0.  0.
          1    1    1    2  502    0  0.75275467293E+02  0.29597761869E+02  0.21889323222E+03  0.23335953076E+03  0.00000000000E+00 0. -1.
         -1    1    1    2    0  501 -0.10509094423E+02  0.17757565909E+03  0.17459253799E+03  0.24925109847E+03  0.00000000000E+00 0.  1.
<mgrwt>
<rscale>  4 0.53097138E+03</rscale>
<asrwt>0</asrwt>
<pdfrwt beam="1">  1        2 0.12061672E+00 0.53097138E+03</pdfrwt>
<pdfrwt beam="2">  1       -2 0.13830822E-01 0.53097138E+03</pdfrwt>
<totfact> 0.14263357E+03</totfact>
</mgrwt>
</event>
<event>
 5    0  0.5719562E-003  0.6463367E+03  0.7546771E-02  0.9813677E-01
         -2   -1    0    0    0  501 -0.00000000000E+00  0.00000000000E+00  0.81655797195E+03  0.81655797195E+03  0.00000000000E+00 0. -1.
          2   -1    0    0  502    0  0.00000000000E+00 -0.00000000000E+00 -0.12790003122E+03  0.12790003122E+03  0.00000000000E+00 0.  1.
         25    1    1    2    0    0  0.94604004511E+02  0.18644737177E+03  0.68693062290E+03  0.72884238405E+03  0.12500000000E+03 0.  0.
          3    1    1    2  502    0 -0.23853355737E+02 -0.21247254816E+02 -0.14678967433E+02  0.35155376574E+02  0.00000000000E+00 0.  1.
         -3    1    1    2    0  501 -0.70750648774E+02 -0.16520011696E+03  0.16406285255E+02  0.18046024255E+03  0.00000000000E+00 0. -1.
<mgrwt>
<rscale>  4 0.64633672E+03</rscale>
<asrwt>0</asrwt>
<pdfrwt beam="1">  1        2 0.19676928E-01 0.64633672E+03</pdfrwt>
<pdfrwt beam="2">  1       -2 0.12562430E+00 0.64633672E+03</pdfrwt>
<totfact> 0.13893369E+02</totfact>
</mgrwt>
</event>
<event>
 5    0  0.5719562E-003  0.6764907E+03  0.7546771E-02  0.9758303E-01
         -1   -1    0    0    0  501 -0.00000000000E+00  0.00000000000E+00  0.87876645900E+02  0.87876645900E+02  0.00000000000E+00 0. -1.
          1   -1    0    0  502    0  0.00000000000E+00 -0.00000000000E+00 -0.13019375597E+04  0.13019375597E+04  0.00000000000E+00 0.  1.
         25    1    1    2    0    0  0.87878524106E+02 -0.18670862920E+03 -0.16625417698E+03  0.29299863239E+03  0.12500000000E+03 0.  0.
          2    1    1    2  502    0 -0.16345323796E+03  0.13025158153E+03 -0.51624615356E+03  0.55694930340E+03  0.00000000000E+00 0. -1.
         -2    1    1    2    0  501  0.75574713851E+02  0.56457047669E+02 -0.53156058324E+03  0.53986626980E+03  0.00000000000E+00 0.  1.
<mgrwt>
<rscale>  4 0.67649067E+03</rscale>
<asrwt>0</asrwt>
<pdfrwt beam="1">  1        1 0.20029809E+00 0.67649067E+03</pdfrwt>
<pdfrwt beam="2">  1       -1 0.13519484E-01 0.67649067E+03</pdfrwt>
<totfact> 0.35761349E+02</totfact>
</mgrwt>
</event>
<event>
 5    0  0.5719562E-003  0.7408566E+03  0.7546771E-02  0.9649805E-01
          1   -1    0    0  502    0  0.00000000000E+00  0.00000000000E+00  0.62832763752E+03  0.62832763752E+03  0.00000000000E+00 0.  1.
         -1   -1    0    0    0  501 -0.00000000000E+00 -0.00000000000E+00 -0.21838465981E+03  0.21838465981E+03  0.00000000000E+00 0. -1.
         25    1    1    2    0    0 -0.10926258802E+03  0.21047605669E+03 -0.60895481475E+02  0.27490315248E+03  0.12500000000E+03 0.  0.
          2    1    1    2  502    0  0.11436472262E+03 -0.18648311885E+03  0.49261789067E+03  0.53900614987E+03  0.00000000000E+00 0.  1.
         -2    1    1    2    0  501 -0.51021346030E+01 -0.23992937835E+02 -0.21779431489E+02  0.32802994977E+02  0.00000000000E+00 0. -1.
<mgrwt>
<rscale>  4 0.74085658E+03</rscale>
<asrwt>0</asrwt>
<pdfrwt beam="1">  1        1 0.96665789E-01 0.74085658E+03</pdfrwt>
<pdfrwt beam="2">  1       -1 0.33597640E-01 0.74085658E+03</pdfrwt>
<totfact> 0.27037069E+02</totfact>
</mgrwt>
</event>
<event>
 5    0  0.5719562E-003  0.5233245E+03  0.7546771E-02  0.1007864E+00
         -1   -1    0    0    0  501 -0.00000000000E+00  0.00000000000E+00  0.61494888359E+02  0.61494888359E+02  0.00000000000E+00 0.  1.
          1   -1    0    0  502    0  0.00000000000E+00 -0.00000000000E+00 -0.11133791317E+04  0.11133791317E+04  0.00000000000E+00 0. -1.
         25    1    1    2    0    0 -0.68188303377E+02 -0.19005797987E+03 -0.85026397844E+03  0.88280547883E+03  0.12500000000E+03 0.  0.
          3    1    1    2  502    0  0.19751642213E+02  0.73196460198E+02 -0.36731443044E+02  0.84243979392E+02  0.00000000000E+00 0.  1.
         -3    1    1    2    0  501  0.48436661163E+02  0.11686151967E+03 -0.16488882183E+03  0.20782456181E+03  0.00000000000E+00 0. -1.
<mgrwt>
<rscale>  4 0.52332447E+03</rscale>
<asrwt>0</asrwt>
<pdfrwt beam="1">  1        1 0.17128911E+00 0.52332447E+03</pdfrwt>
<pdfrwt beam="2">  1       -1 0.94607514E-02 0.52332447E+03</pdfrwt>
<totfact> 0.86834470E+02</totfact>
</mgrwt>
</event>
<event>
 5    0  0.5719562E-003  0.6433966E+03  0.7546771E-02  0.9819249E-01
         -1   -1    0    0    0  501 -0.00000000000E+00  0.00000000000E+00  0.24891294327E+03  0.24891294327E+03  0.00000000000E+00 0. -1.
          1   -1    0    0  502    0  0.00000000000E+00 -0.00000000000E+00 -0.41576704811E+03  0.41576704811E+03  0.00000000000E+00 0.  1.
         25    1    1    2    0    0 -0.22308775535E+03  0.32260398705E+02 -0.29515684568E+03  0.39185640669E+03  0.12500000000E+03 0.  0.
          3    1    1    2  502    0  0.11496403871E+03  0.86067715853E+01  0.10278222036E+03  0.15445061196E+03  0.00000000000E+00 0.  1.
         -3    1    1    2    0  501  0.10812371664E+03 -0.40867170290E+02  0.25520520484E+02  0.11837297273E+03  0.00000000000E+00 0. -1.
<mgrwt>
<rscale>  4 0.64339661E+03</rscale>
<asrwt>0</asrwt>
<pdfrwt beam="1">  1        1 0.63964161E-01 0.64339661E+03</pdfrwt>
<pdfrwt beam="2">  1       -1 0.38294299E-01 0.64339661E+03</pdfrwt>
<totfact> 0.38042553E+02</totfact>
</mgrwt>
</event>
<event>
 5    0  0.5719562E-003  0.4799117E+03  0.7546771E-02  0.1019159E+00
         -2   -1    0    0    0  501 -0.00000000000E+00  0.00000000000E+00  0.45074884974E+02  0.45074884974E+02  0.00000000000E+00 0. -1.
          2   -1    0    0  502    0  0.00000000000E+00 -0.00000000000E+00 -0.12774034577E+04  0.12774034577E+04  0.00000000000E+00 0.  1.
         25    1    1    2    0    0  0.15356611268E+03  0.13878982003E+03 -0.87073806488E+03  0.90368962744E+03  0.12500000000E+03 0.  0.
          1    1    1    2  502    0 -0.11478004564E+03 -0.84100998280E+02 -0.21819031005E+03  0.26048886384E+03  0.00000000000E+00 0.  1.
         -1    1    1    2    0  501 -0.38786067038E+02 -0.54688821752E+02 -0.14340019777E+03  0.15829985136E+03  0.00000000000E+00 0. -1.
<mgrwt>
<rscale>  4 0.47991172E+03</rscale>
<asrwt>0</asrwt>
<pdfrwt beam="1">  1        2 0.19652362E+00 0.47991172E+03</pdfrwt>
<pdfrwt beam="2">  1       -2 0.69345971E-02 0.47991172E+03</pdfrwt>
<totfact> 0.21316407E+03</totfact>
</mgrwt>
</event>
<event>
 5    0  0.5719562E-003  0.4948110E+03  0.7546771E-02  0.1015142E+00
         -1   -1    0    0    0  501 -0.00000000000E+00  0.00000000000E+00  0.69248580186E+02  0.69248580186E+02  0.00000000000E+00 0.  1.
          1   -1    0    0  502    0  0.00000000000E+00 -0.00000000000E+00 -0.88390958366E+03  0.88390958366E+03  0.00000000000E+00 0. -1.
         25    1    1    2    0    0  0.63425163389E+02 -0.20435611609E+03 -0.56409265781E+03  0.61612474397E+03  0.12500000000E+03 0.  0.
          1    1    1    2  502    0 -0.47217536485E+02  0.19058899534E+03 -0.24689447524E+03  0.31545291693E+03  0.00000000000E+00 0. -1.
         -1    1    1    2    0  501 -0.16207626904E+02  0.13767120751E+02 -0.36738704277E+01  0.21580502950E+02  0.00000000000E+00 0.  1.
<mgrwt>
<rscale>  4 0.49481101E+03</rscale>
<asrwt>0</asrwt>
<pdfrwt beam="1">  1        1 0.13598609E+00 0.49481101E+03</pdfrwt>
<pdfrwt beam="2">  1       -1 0.10653628E-01 0.49481101E+03</pdfrwt>
<totfact> 0.10823608E+03</totfact>
</mgrwt>
</event>
<event>
 5    0  0.5719562E-003  0.6184453E+03  0.7546771E-02  0.9867860E-01
          1   -1    0    0  502    0  0.00000000000E+00  0.00000000000E+00  0.31498525602E+03  0.31498525602E+03  0.00000000000E+00 0.  1.
         -1   -1    0    0    0  501 -0.00000000000E+00 -0.00000000000E+00 -0.30356542924E+03  0.30356542924E+03  0.00000000000E+00 0. -1.
         25    1    1    2    0    0  0.10618741107E+03  0.23332018706E+03  0.43969521092E+02  0.28856956656E+03  0.12500000000E+03 0.  0.
          1    1    1    2  502    0 -0.16141187995E+03 -0.20153467747E+03 -0.51939660823E+02  0.26337757987E+03  0.00000000000E+00 0. -1.
         -1    1    1    2    0  501  0.55224468886E+02 -0.31785509592E+02  0.19389966515E+02  0.66603538835E+02  0.00000000000E+00 0.  1.
<mgrwt>
<rscale>  4 0.61844526E+03</rscale>
<asrwt>0</asrwt>
<pdfrwt beam="1">  1        1 0.48459270E-01 0.61844526E+03</pdfrwt>
<pdfrwt beam="2">  1       -1 0.46702374E-01 0.61844526E+03</pdfrwt>
<totfact> 0.38065088E+02</totfact>
</mgrwt>
</event>
<event>
 5    0  0.5719562E-003  0.1749639E+04  0.7546771E-02  0.8733549E-01
          2   -1    0    0  502    0  0.00000000000E+00  0.00000000000E+00  0.24765253909E+04  0.24765253909E+04  0.00000000000E+00 0.  1.
         -2   -1    0    0    0  501 -0.00000000000E+00 -0.00000000000E+00 -0.30902548255E+03  0.30902548255E+03  0.00000000000E+00 0. -1.
         25    1    1    2    0    0  0.48209575075E+03  0.43964427692E+03  0.27831446926E+03  0.72026894069E+03  0.12500000000E+03 0.  0.
          3    1    1    2  502    0 -0.63057736676E+02  0.11977446932E+03  0.32209045854E+03  0.34937725332E+03  0.00000000000E+00 0. -1.
         -3    1    1    2    0  501 -0.41903801408E+03 -0.55941874623E+03  0.15670949805E+04  0.17159046794E+04  0.00000000000E+00 0.  1.
<mgrwt>
<rscale>  4 0.17496393E+04</rscale>
<asrwt>0</asrwt>
<pdfrwt beam="1">  1        2 0.38100389E+00 0.17496393E+04</pdfrwt>
<pdfrwt beam="2">  1       -2 0.47542384E-01 0.17496393E+04</pdfrwt>
<totfact> 0.14292571E+01</totfact>
</mgrwt>
</event>
<event>
 5    0  0.5719562E-003  0.4582813E+03  0.7546771E-02  0.1025281E+00
          2   -1    0    0  502    0  0.00000000000E+00  0.00000000000E+00  0.23979031522E+04  0.23979031522E+04  0.00000000000E+00 0. -1.
         -2   -1    0    0    0  501 -0.00000000000E+00 -0.00000000000E+00 -0.21896394593E+02  0.21896394593E+02  0.00000000000E+00 0.  1.
         25    1    1    2    0    0  0.20271873001E+03  0.20684473767E+02  0.12217530699E+04  0.12449209994E+04  0.12500000000E+03 0.  0.
          1    1    1    2  502    0 -0.15080488173E+03 -0.39624476121E+02  0.97214434506E+03  0.98456936733E+03  0.00000000000E+00 0. -1.
         -1    1    1    2    0  501 -0.51913848281E+02  0.18940002354E+02  0.18210934260E+03  0.19030918001E+03  0.00000000000E+00 0.  1.
<mgrwt>
<rscale>  4 0.45828128E+03</rscale>
<asrwt>0</asrwt>
<pdfrwt beam="1">  1        2 0.36890797E+00 0.45828128E+03</pdfrwt>
<pdfrwt beam="2">  1       -2 0.33686780E-02 0.45828128E+03</pdfrwt>
<totfact> 0.15955955E+03</totfact>
</mgrwt>
</event>
<event>
 5    0  0.5719562E-003  0.4501587E+03  0.7546771E-02  0.1027675E+00
          1   -1    0    0  502    0  0.00000000000E+00  0.00000000000E+00  0.38312678363E+03  0.38312678363E+03  0.00000000000E+00 0.  1.
         -1   -1    0    0    0  501 -0.00000000000E+00 -0.00000000000E+00 -0.13222963594E+03  0.13222963594E+03  0.00000000000E+00 0. -1.
         25    1    1    2    0    0 -0.33006898013E+02  0.19892799052E+03  0.93869275696E+02  0.25514357066E+03  0.12500000000E+03 0.  0.
          4    1    1    2  502    0 -0.43770215200E+01 -0.26854946650E+02  0.51860385482E+01  0.27699124044E+02  0.00000000000E+00 0. -1.
         -4    1    1    2    0  501  0.37383919533E+02 -0.17207304387E+03  0.15184183344E+03  0.23251372486E+03  0.00000000000E+00 0.  1.
<mgrwt>
<rscale>  4 0.45015871E+03</rscale>
<asrwt>0</asrwt>
<pdfrwt beam="1">  1        1 0.58942582E-01 0.45015871E+03</pdfrwt>
<pdfrwt beam="2">  1       -1 0.20343021E-01 0.45015871E+03</pdfrwt>
<totfact> 0.12613006E+03</totfact>
</mgrwt>
</event>
<event>
 5    0  0.5719562E-003  0.1126964E+04  0.7546771E-02  0.9179302E-01
         -2   -1    0    0    0  501 -0.00000000000E+00  0.00000000000E+00  0.14551549697E+03  0.14551549697E+03  0.00000000000E+00 0. -1.
          2   -1    0    0  502    0  0.00000000000E+00 -0.00000000000E+00 -0.21819816327E+04  0.21819816327E+04  0.00000000000E+00 0.  1.
         25    1    1    2    0    0 -0.14125067537E+03  0.50573173168E+03 -0.86314571926E+03  0.10180186002E+04  0.12500000000E+03 0.  0.
          3    1    1    2  502    0  0.29409747634E+02 -0.23109700705E+03 -0.79709125741E+03  0.83043677217E+03  0.00000000000E+00 0.  1.
         -3    1    1    2    0  501  0.11184092773E+03 -0.27463472462E+03 -0.37622915905E+03  0.47904175727E+03  0.00000000000E+00 0. -1.
<mgrwt>
<rscale>  4 0.11269643E+04</rscale>
<asrwt>0</asrwt>
<pdfrwt beam="1">  1        2 0.33568949E+00 0.11269643E+04</pdfrwt>
<pdfrwt beam="2">  1       -2 0.22386999E-01 0.11269643E+04</pdfrwt>
<totfact> 0.92048764E+01</totfact>
</mgrwt>
</event>
<event>
 5    0  0.5719562E-003  0.8164456E+03  0.7546771E-02  0.9536513E-01
          1   -1    0    0  502    0  0.00000000000E+00  0.00000000000E+00  0.11940872931E+04  0.11940872931E+04  0.00000000000E+00 0. -1.
         -1   -1    0    0    0  501 -0.00000000000E+00 -0.00000000000E+00 -0.13955919617E+03  0.13955919617E+03  0.00000000000E+00 0.  1.
         25    1    1    2    0    0  0.16475755219E+03 -0.17244466141E+03  0.40774109012E+02  0.27234122019E+03  0.12500000000E+03 0.  0.
          3    1    1    2  502    0 -0.13849735826E+03  0.97408125391E+02  0.93205663171E+03  0.94731168358E+03  0.00000000000E+00 0. -1.
         -3    1    1    2    0  501 -0.26260193929E+02  0.75036536018E+02  0.81697356187E+02  0.11399358548E+03  0.00000000000E+00 0.  1.
<mgrwt>
<rscale>  4 0.81644562E+03</rscale>
<asrwt>0</asrwt>
<pdfrwt beam="1">  1        1 0.18370573E+00 0.81644562E+03</pdfrwt>
<pdfrwt beam="2">  1       -1 0.21470646E-01 0.81644562E+03</pdfrwt>
<totfact> 0.19793981E+02</totfact>
</mgrwt>
</event>
<event>
 5    0  0.5719562E-003  0.4594226E+03  0.7546771E-02  0.1024949E+00
          1   -1    0    0  502    0  0.00000000000E+00  0.00000000000E+00  0.27783101728E+03  0.27783101728E+03  0.00000000000E+00 0.  1.
         -1   -1    0    0    0  501 -0.00000000000E+00 -0.00000000000E+00 -0.18992578232E+03  0.18992578232E+03  0.00000000000E+00 0. -1.
         25    1    1    2    0    0 -0.16888000792E+03 -0.10773484482E+03  0.10239463359E+03  0.25736533343E+03  0.12500000000E+03 0.  0.
          2    1    1    2  502    0  0.22637498404E+02 -0.96268073596E-01 -0.17586773191E+02  0.28666359950E+02  0.00000000000E+00 0.  1.
         -2    1    1    2    0  501  0.14624250952E+03  0.10783111289E+03  0.30973745551E+01  0.18172510621E+03  0.00000000000E+00 0. -1.
<mgrwt>
<rscale>  4 0.45942257E+03</rscale>
<asrwt>0</asrwt>
<pdfrwt beam="1">  1        1 0.42743234E-01 0.45942257E+03</pdfrwt>
<pdfrwt beam="2">  1       -1 0.29219351E-01 0.45942257E+03</pdfrwt>
<totfact> 0.10367412E+03</totfact>
</mgrwt>
</event>
<event>
 5    0  0.5719562E-003  0.6943201E+03  0.7546771E-02  0.9726995E-01
         -1   -1    0    0    0  501 -0.00000000000E+00  0.00000000000E+00  0.16000807449E+03  0.16000807449E+03  0.00000000000E+00 0. -1.
          1   -1    0    0  502    0  0.00000000000E+00 -0.00000000000E+00 -0.75321254799E+03  0.75321254799E+03  0.00000000000E+00 0.  1.
         25    1    1    2    0    0  0.15919035392E+03  0.27260562469E+03 -0.38518850055E+03  0.51346915813E+03  0.12500000000E+03 0.  0.
          1    1    1    2  502    0 -0.38423594929E+02 -0.72943228494E+02 -0.12956648516E+03  0.15357265807E+03  0.00000000000E+00 0.  1.
         -1    1    1    2    0  501 -0.12076675899E+03 -0.19966239619E+03 -0.78449487787E+02  0.24617880629E+03  0.00000000000E+00 0. -1.
<mgrwt>
<rscale>  4 0.69432007E+03</rscale>
<asrwt>0</asrwt>
<pdfrwt beam="1">  1        1 0.11587885E+00 0.69432007E+03</pdfrwt>
<pdfrwt beam="2">  1       -1 0.24616627E-01 0.69432007E+03</pdfrwt>
<totfact> 0.35381556E+02</totfact>
</mgrwt>
</event>
<event>
 5    0  0.5719562E-003  0.9830046E+03  0.7546771E-02  0.9327384E-01
         -1   -1    0    0    0  501 -0.00000000000E+00  0.00000000000E+00  0.30535429814E+03  0.30535429814E+03  0.00000000000E+00 0. -1.
          1   -1    0    0  502    0  0.00000000000E+00 -0.00000000000E+00 -0.79112851892E+03  0.79112851892E+03  0.00000000000E+00 0.  1.
         25    1    1    2    0    0  0.19052784259E+03  0.19024906925E+03  0.31542910187E+02  0.29852223089E+03  0.12500000000E+03 0.  0.
          3    1    1    2  502    0 -0.32826788059E+03 -0.12004048382E+03 -0.53842236072E+03  0.64192535213E+03  0.00000000000E+00 0.  1.
         -3    1    1    2    0  501  0.13774003801E+03 -0.70208585430E+02  0.21105229755E+02  0.15603523404E+03  0.00000000000E+00 0. -1.
<mgrwt>
<rscale>  4 0.98300456E+03</rscale>
<asrwt>0</asrwt>
<pdfrwt beam="1">  1        1 0.12171208E+00 0.98300456E+03</pdfrwt>
<pdfrwt beam="2">  1       -1 0.46977585E-01 0.98300456E+03</pdfrwt>
<totfact> 0.10199288E+02</totfact>
</mgrwt>
</event>
<event>
 5    0  0.5719562E-003  0.1416258E+04  0.7546771E-02  0.8942134E-01
         -1   -1    0    0    0  501 -0.00000000000E+00  0.00000000000E+00  0.53380600624E+03  0.53380600624E+03  0.00000000000E+00 0.  1.
          1   -1    0    0  502    0  0.00000000000E+00 -0.00000000000E+00 -0.93937966548E+03  0.93937966548E+03  0.00000000000E+00 0. -1.
         25    1    1    2    0    0  0.14978813819E+02 -0.22089507733E+03 -0.84794024902E+03  0.88523819730E+03  0.12500000000E+03 0.  0.
          4    1    1    2  502    0  0.14313646772E+02  0.30133911487E+03  0.34496306660E+03  0.45826810925E+03  0.00000000000E+00 0. -1.
         -4    1    1    2    0  501 -0.29292460590E+02 -0.80444037541E+02  0.97403523173E+02  0.12967936517E+03  0.00000000000E+00 0.  1.
<mgrwt>
<rscale>  4 0.14162578E+04</rscale>
<asrwt>0</asrwt>
<pdfrwt beam="1">  1        1 0.14451995E+00 0.14162578E+04</pdfrwt>
<pdfrwt beam="2">  1       -1 0.82124001E-01 0.14162578E+04</pdfrwt>
<totfact> 0.24283385E+01</totfact>
</mgrwt>
</event>
<event>
 5    0  0.5719562E-003  0.4532197E+03  0.7546771E-02  0.1026766E+00
          1   -1    0    0  502    0  0.00000000000E+00  0.00000000000E+00  0.92501801479E+03  0.92501801479E+03  0.00000000000E+00 0.  1.
         -1   -1    0    0    0  501 -0.00000000000E+00 -0.00000000000E+00 -0.55514631435E+02  0.55514631435E+02  0.00000000000E+00 0. -1.
         25    1    1    2    0    0 -0.15605327095E+03 -0.12995678885E+03  0.38655881529E+03  0.45419611185E+03  0.12500000000E+03 0.  0.
          4    1    1    2  502    0  0.14443200150E+02  0.27255901237E+02  0.11272629809E+03  0.11687047730E+03  0.00000000000E+00 0. -1.
         -4    1    1    2    0  501  0.14161007080E+03  0.10270088762E+03  0.37021826997E+03  0.40946605707E+03  0.00000000000E+00 0.  1.
<mgrwt>
<rscale>  4 0.45321974E+03</rscale>
<asrwt>0</asrwt>
<pdfrwt beam="1">  1        1 0.14231045E+00 0.45321974E+03</pdfrwt>
<pdfrwt beam="2">  1       -1 0.85407132E-02 0.45321974E+03</pdfrwt>
<totfact> 0.14194459E+03</totfact>
</mgrwt>
</event>
<event>
 5    0  0.5719562E-003  0.5545469E+03  0.7546771E-02  0.1000447E+00
          2   -1    0    0  502    0  0.00000000000E+00  0.00000000000E+00  0.56502075950E+03  0.56502075950E+03  0.00000000000E+00 0.  1.
         -2   -1    0    0    0  501 -0.00000000000E+00 -0.00000000000E+00 -0.13606681815E+03  0.13606681815E+03  0.00000000000E+00 0. -1.
         25    1    1    2    0    0 -0.13019844605E+03  0.16823344796E+03  0.20318178259E+03  0.31962785414E+03  0.12500000000E+03 0.  0.
          2    1    1    2  502    0  0.56937420142E+02 -0.67060872982E+02 -0.33126916209E+02  0.94002250372E+02  0.00000000000E+00 0. -1.
         -2    1    1    2    0  501  0.73261025906E+02 -0.10117257498E+03  0.25889907497E+03  0.28745747314E+03  0.00000000000E+00 0.  1.
<mgrwt>
<rscale>  4 0.55454694E+03</rscale>
<asrwt>0</asrwt>
<pdfrwt beam="1">  1        2 0.86926269E-01 0.55454694E+03</pdfrwt>
<pdfrwt beam="2">  1       -2 0.20933357E-01 0.55454694E+03</pdfrwt>
<totfact> 0.10528710E+03</totfact>
</mgrwt>
</event>
<event>
 5    0  0.5719562E-003  0.4682917E+03  0.7546771E-02  0.1022403E+00
         -2   -1    0    0    0  501 -0.00000000000E+00  0.00000000000E+00  0.14551946347E+03  0.14551946347E+03  0.00000000000E+00 0. -1.
          2   -1    0    0  502    0  0.00000000000E+00 -0.00000000000E+00 -0.37674877485E+03  0.37674877485E+03  0.00000000000E+00 0.  1.
         25    1    1    2    0    0 -0.21054325833E+03  0.35160688010E+01 -0.15887103990E+03  0.29190038316E+03  0.12500000000E+03 0.  0.
          4    1    1    2  502    0  0.79457147711E+02 -0.94144564663E+01 -0.57029114001E+02  0.98256756290E+02  0.00000000000E+00 0.  1.
         -4    1    1    2    0  501  0.13108611062E+03  0.58983876653E+01 -0.15329157468E+02  0.13211109887E+03  0.00000000000E+00 0. -1.
<mgrwt>
<rscale>  4 0.46829170E+03</rscale>
<asrwt>0</asrwt>
<pdfrwt beam="1">  1        2 0.57961350E-01 0.46829170E+03</pdfrwt>
<pdfrwt beam="2">  1       -2 0.22387610E-01 0.46829170E+03</pdfrwt>
<totfact> 0.14824071E+03</totfact>
</mgrwt>
</event>
<event>
 5    0  0.5719562E-003  0.5916518E+03  0.7546771E-02  0.9922879E-01
         -1   -1    0    0    0  501 -0.00000000000E+00  0.00000000000E+00  0.71341832336E+02  0.71341832336E+02  0.00000000000E+00 0.  1.
          1   -1    0    0  502    0  0.00000000000E+00 -0.00000000000E+00 -0.12266711049E+04  0.12266711049E+04  0.00000000000E+00 0. -1.
         25    1    1    2    0    0 -0.24847838662E+03  0.82180805716E+02 -0.67182484329E+03  0.73175734606E+03  0.12500000000E+03 0.  0.
          3    1    1    2  502    0  0.14684510402E+03 -0.29173151991E+02 -0.14323358431E+03  0.20719656620E+03  0.00000000000E+00 0.  1.
         -3    1    1    2    0  501  0.10163328260E+03 -0.53007653725E+02 -0.34027084495E+03  0.35905902496E+03  0.00000000000E+00 0. -1.
<mgrwt>
<rscale>  4 0.59165180E+03</rscale>
<asrwt>0</asrwt>
<pdfrwt beam="1">  1        1 0.18871864E+00 0.59165180E+03</pdfrwt>
<pdfrwt beam="2">  1       -1 0.10975666E-01 0.59165180E+03</pdfrwt>
<totfact> 0.56700524E+02</totfact>
</mgrwt>
</event>
<event>
 5    0  0.5719562E-003  0.6511070E+03  0.7546771E-02  0.9804704E-01
         -1   -1    0    0    0  501 -0.00000000000E+00  0.00000000000E+00  0.61784741051E+03  0.61784741051E+03  0.00000000000E+00 0. -1.
          1   -1    0    0  502    0  0.00000000000E+00 -0.00000000000E+00 -0.17153924292E+03  0.17153924292E+03  0.00000000000E+00 0.  1.
         25    1    1    2    0    0  0.24559430147E+03  0.42013657124E+02  0.32506657747E+03  0.42822305880E+03  0.12500000000E+03 0.  0.
          2    1    1    2  502    0 -0.16651884087E+03  0.86332392580E+02  0.86026110698E+02  0.20635478695E+03  0.00000000000E+00 0. -1.
         -2    1    1    2    0  501 -0.79075460599E+02 -0.12834604970E+03  0.35215479420E+02  0.15480880768E+03  0.00000000000E+00 0.  1.
<mgrwt>
<rscale>  4 0.65110699E+03</rscale>
<asrwt>0</asrwt>
<pdfrwt beam="1">  1        1 0.26390653E-01 0.65110699E+03</pdfrwt>
<pdfrwt beam="2">  1       -1 0.95053447E-01 0.65110699E+03</pdfrwt>
<totfact> 0.19770645E+02</totfact>
</mgrwt>
</event>
<event>
 5    0  0.5719562E-003  0.9218656E+03  0.7546771E-02  0.9398654E-01
         -2   -1    0    0    0  501 -0.00000000000E+00  0.00000000000E+00  0.38294857269E+03  0.38294857269E+03  0.00000000000E+00 0. -1.
          2   -1    0    0  502    0  0.00000000000E+00 -0.00000000000E+00 -0.55479785261E+03  0.55479785261E+03  0.00000000000E+00 0.  1.
         25    1    1    2    0    0 -0.22678215225E+03  0.62870716784E+02  0.29720625930E+03  0.39917343621E+03  0.12500000000E+03 0.  0.
          4    1    1    2  502    0  0.12431289098E+03  0.27248137691E+02 -0.24908392897E+03  0.27971227993E+03  0.00000000000E+00 0.  1.
         -4    1    1    2    0  501  0.10246926126E+03 -0.90118854475E+02 -0.21997161024E+03  0.25886070916E+03  0.00000000000E+00 0. -1.
<mgrwt>
<rscale>  4 0.92186560E+03</rscale>
<asrwt>0</asrwt>
<pdfrwt beam="1">  1        2 0.85353515E-01 0.92186560E+03</pdfrwt>
<pdfrwt beam="2">  1       -2 0.58915165E-01 0.92186560E+03</pdfrwt>
<totfact> 0.14708117E+02</totfact>
</mgrwt>
</event>
<event>
 5    0  0.5719562E-003  0.8684509E+03  0.7546771E-02  0.9465902E-01
         -1   -1    0    0    0  501 -0.00000000000E+00  0.00000000000E+00  0.12605565274E+03  0.12605565274E+03  0.00000000000E+00 0. -1.
          1   -1    0    0  502    0  0.00000000000E+00 -0.00000000000E+00 -0.14957815637E+04  0.14957815637E+04  0.00000000000E+00 0.  1.
         25    1    1    2    0    0 -0.27004695015E+03 -0.44102559992E+02 -0.34070758404E+03  0.45450747949E+03  0.12500000000E+03 0.  0.
          4    1    1    2  502    0 -0.80845443131E+02  0.73858427764E+02 -0.38499990752E+02  0.11607455498E+03  0.00000000000E+00 0.  1.
         -4    1    1    2    0  501  0.35089239328E+03 -0.29755867772E+02 -0.99051833621E+03  0.10512551820E+04  0.00000000000E+00 0. -1.
<mgrwt>
<rscale>  4 0.86845085E+03</rscale>
<asrwt>0</asrwt>
<pdfrwt beam="1">  1        1 0.23012025E+00 0.86845085E+03</pdfrwt>
<pdfrwt beam="2">  1       -1 0.19393177E-01 0.86845085E+03</pdfrwt>
<totfact> 0.14334951E+02</totfact>
</mgrwt>
</event>
<event>
 5    0  0.5719562E-003  0.6613309E+03  0.7546771E-02  0.9785747E-01
         -2   -1    0    0    0  501 -0.00000000000E+00  0.00000000000E+00  0.30354903532E+02  0.30354903532E+02  0.00000000000E+00 0.  1.
          2   -1    0    0  502    0  0.00000000000E+00 -0.00000000000E+00 -0.36020417446E+04  0.36020417446E+04  0.00000000000E+00 0. -1.
         25    1    1    2    0    0  0.21637069962E+03 -0.20470731045E+02 -0.15862704997E+04  0.16059621505E+04  0.12500000000E+03 0.  0.
          1    1    1    2  502    0 -0.10821043254E+03  0.17547281003E+03 -0.80481863830E+03  0.83080277161E+03  0.00000000000E+00 0.  1.
         -1    1    1    2    0  501 -0.10816026709E+03 -0.15500207898E+03 -0.11805977030E+04  0.11956317260E+04  0.00000000000E+00 0. -1.
<mgrwt>
<rscale>  4 0.66133087E+03</rscale>
<asrwt>0</asrwt>
<pdfrwt beam="1">  1        2 0.55416020E+00 0.66133087E+03</pdfrwt>
<pdfrwt beam="2">  1       -2 0.46699858E-02 0.66133087E+03</pdfrwt>
<totfact> 0.17290370E+02</totfact>
</mgrwt>
</event>
<event>
 5    0  0.5719562E-003  0.5238144E+03  0.7546771E-02  0.1007743E+00
         -2   -1    0    0    0  501 -0.00000000000E+00  0.00000000000E+00  0.56679799797E+02  0.56679799797E+02  0.00000000000E+00 0.  1.
          2   -1    0    0  502    0  0.00000000000E+00 -0.00000000000E+00 -0.12102260326E+04  0.12102260326E+04  0.00000000000E+00 0. -1.
         25    1    1    2    0    0 -0.60209807578E+02 -0.22297635205E+03 -0.80212058857E+03  0.84401783933E+03  0.12500000000E+03 0.  0.
          3    1    1    2  502    0  0.23582791254E+02  0.50239945906E+02 -0.56888771558E+02  0.79476616293E+02  0.00000000000E+00 0. -1.
         -3    1    1    2    0  501  0.36627016324E+02  0.17273640615E+03 -0.29453687270E+03  0.34341137679E+03  0.00000000000E+00 0.  1.
<mgrwt>
<rscale>  4 0.52381435E+03</rscale>
<asrwt>0</asrwt>
<pdfrwt beam="1">  1        2 0.18618863E+00 0.52381435E+03</pdfrwt>
<pdfrwt beam="2">  1       -2 0.87199690E-02 0.52381435E+03</pdfrwt>
<totfact> 0.16191634E+03</totfact>
</mgrwt>
</event>
<event>
 5    0  0.5719562E-003  0.5166946E+03  0.7546771E-02  0.1009511E+00
          1   -1    0    0  502    0  0.00000000000E+00  0.00000000000E+00  0.39342326042E+03  0.39342326042E+03  0.00000000000E+00 0. -1.
         -1   -1    0    0    0  501 -0.00000000000E+00 -0.00000000000E+00 -0.16964760839E+03  0.16964760839E+03  0.00000000000E+00 0.  1.
         25    1    1    2    0    0  0.21501384833E+03 -0.29095500377E+02  0.14658854375E+03  0.29015634453E+03  0.12500000000E+03 0.  0.
          2    1    1    2  502    0 -0.16003397864E+03  0.74563237754E+02  0.13142066452E+02  0.17704029105E+03  0.00000000000E+00 0.  1.
         -2    1    1    2    0  501 -0.54979869685E+02 -0.45467737377E+02  0.64045041833E+02  0.95874233223E+02  0.00000000000E+00 0. -1.
<mgrwt>
<rscale>  4 0.51669455E+03</rscale>
<asrwt>0</asrwt>
<pdfrwt beam="1">  1        1 0.60526655E-01 0.51669455E+03</pdfrwt>
<pdfrwt beam="2">  1       -1 0.26099632E-01 0.51669455E+03</pdfrwt>
<totfact> 0.80231979E+02</totfact>
</mgrwt>
</event>
<event>
 5    0  0.5719562E-003  0.4964931E+03  0.7546771E-02  0.1014698E+00
         -2   -1    0    0    0  501 -0.00000000000E+00  0.00000000000E+00  0.17979983703E+03  0.17979983703E+03  0.00000000000E+00 0. -1.
          2   -1    0    0  502    0  0.00000000000E+00 -0.00000000000E+00 -0.34274968397E+03  0.34274968397E+03  0.00000000000E+00 0.  1.
         25    1    1    2    0    0 -0.18075232739E+03  0.10372038872E+03 -0.53533358214E+02  0.24883758424E+03  0.12500000000E+03 0.  0.
          2    1    1    2  502    0  0.13017477019E+03 -0.13448925391E+03 -0.10435116254E+03  0.21429417942E+03  0.00000000000E+00 0.  1.
         -2    1    1    2    0  501  0.50577557200E+02  0.30768865194E+02 -0.50653261784E+01  0.59417757337E+02  0.00000000000E+00 0. -1.
<mgrwt>
<rscale>  4 0.49649305E+03</rscale>
<asrwt>0</asrwt>
<pdfrwt beam="1">  1        2 0.52730720E-01 0.49649305E+03</pdfrwt>
<pdfrwt beam="2">  1       -2 0.27661514E-01 0.49649305E+03</pdfrwt>
<totfact> 0.11276387E+03</totfact>
</mgrwt>
</event>
<event>
 5    0  0.5719562E-003  0.6367095E+03  0.7546771E-02  0.9832043E-01
         -2   -1    0    0    0  501 -0.00000000000E+00  0.00000000000E+00  0.40013242176E+02  0.40013242176E+02  0.00000000000E+00 0. -1.
          2   -1    0    0  502    0  0.00000000000E+00 -0.00000000000E+00 -0.25329048474E+04  0.25329048474E+04  0.00000000000E+00 0.  1.
         25    1    1    2    0    0 -0.24771348825E+03  0.26626622031E+02 -0.84435886707E+03  0.88917818555E+03  0.12500000000E+03 0.  0.
          2    1    1    2  502    0  0.11593661664E+03  0.79976133664E+02 -0.40680191883E+03  0.43049423015E+03  0.00000000000E+00 0. -1.
         -2    1    1    2    0  501  0.13177687161E+03 -0.10660275569E+03 -0.12417308194E+04  0.12532456739E+04  0.00000000000E+00 0.  1.
<mgrwt>
<rscale>  4 0.63670946E+03</rscale>
<asrwt>0</asrwt>
<pdfrwt beam="1">  1        2 0.38967777E+00 0.63670946E+03</pdfrwt>
<pdfrwt beam="2">  1       -2 0.61558818E-02 0.63670946E+03</pdfrwt>
<totfact> 0.52130863E+02</totfact>
</mgrwt>
</event>
<event>
 5    0  0.5719562E-003  0.1003900E+04  0.7546771E-02  0.9304278E-01
         -2   -1    0    0    0  501 -0.00000000000E+00  0.00000000000E+00  0.18841926654E+03  0.18841926654E+03  0.00000000000E+00 0.  1.
          2   -1    0    0  502    0  0.00000000000E+00 -0.00000000000E+00 -0.13371972048E+04  0.13371972048E+04  0.00000000000E+00 0. -1.
         25    1    1    2    0    0 -0.19766038565E+03  0.26240288054E+03 -0.10314915825E+04  0.10897361077E+04  0.12500000000E+03 0.  0.
          2    1    1    2  502    0  0.30113550093E+02  0.18754987124E+01 -0.11920154228E+03  0.12296077048E+03  0.00000000000E+00 0. -1.
         -2    1    1    2    0  501  0.16754683555E+03 -0.26427837925E+03  0.19151864689E+01  0.31291959316E+03  0.00000000000E+00 0.  1.
<mgrwt>
<rscale>  4 0.10038998E+04</rscale>
<asrwt>0</asrwt>
<pdfrwt beam="1">  1        2 0.20572265E+00 0.10038998E+04</pdfrwt>
<pdfrwt beam="2">  1       -2 0.28987580E-01 0.10038998E+04</pdfrwt>
<totfact> 0.17139463E+02</totfact>
</mgrwt>
</event>
<event>
 5    0  0.5719562E-003  0.6190323E+03  0.7546771E-02  0.9866688E-01
         -2   -1    0    0    0  501 -0.00000000000E+00  0.00000000000E+00  0.47269455773E+03  0.47269455773E+03  0.00000000000E+00 0.  1.
          2   -1    0    0  502    0  0.00000000000E+00 -0.00000000000E+00 -0.20266840390E+03  0.20266840390E+03  0.00000000000E+00 0. -1.
         25    1    1    2    0    0  0.11222821990E+03  0.24813346378E+03  0.21220835085E+03  0.36718220730E+03  0.12500000000E+03 0.  0.
          2    1    1    2  502    0 -0.59340378923E+02 -0.18352199380E+02  0.34985556382E+02  0.71288659324E+02  0.00000000000E+00 0.  1.
         -2    1    1    2    0  501 -0.52887840973E+02 -0.22978126440E+03  0.22832246594E+02  0.23689209500E+03  0.00000000000E+00 0. -1.
<mgrwt>
<rscale>  4 0.61903231E+03</rscale>
<asrwt>0</asrwt>
<pdfrwt beam="1">  1        2 0.31179754E-01 0.61903231E+03</pdfrwt>
<pdfrwt beam="2">  1       -2 0.72722240E-01 0.61903231E+03</pdfrwt>
<totfact> 0.29433894E+02</totfact>
</mgrwt>
</event>
<event>
 5    0  0.5719562E-003  0.5555009E+03  0.7546771E-02  0.1000229E+00
         -1   -1    0    0    0  501 -0.00000000000E+00  0.00000000000E+00  0.21057948502E+03  0.21057948502E+03  0.00000000000E+00 0.  1.
          1   -1    0    0  502    0  0.00000000000E+00 -0.00000000000E+00 -0.36634773497E+03  0.36634773497E+03  0.00000000000E+00 0. -1.
         25    1    1    2    0    0 -0.20387781926E+03 -0.67513209285E+02  0.40459837012E+02  0.25176615544E+03  0.12500000000E+03 0.  0.
          3    1    1    2  502    0  0.10833097690E+03  0.11018172792E+03 -0.12178712448E+03  0.19674276966E+03  0.00000000000E+00 0. -1.
         -3    1    1    2    0  501  0.95546842361E+02 -0.42668518638E+02 -0.74440962476E+02  0.12841829489E+03  0.00000000000E+00 0.  1.
<mgrwt>
<rscale>  4 0.55550092E+03</rscale>
<asrwt>0</asrwt>
<pdfrwt beam="1">  1        1 0.56361189E-01 0.55550092E+03</pdfrwt>
<pdfrwt beam="2">  1       -1 0.32396844E-01 0.55550092E+03</pdfrwt>
<totfact> 0.60611560E+02</totfact>
</mgrwt>
</event>
<event>
 5    0  0.5719562E-003  0.5935864E+03  0.7546771E-02  0.9918802E-01
          2   -1    0    0  502    0  0.00000000000E+00  0.00000000000E+00  0.18061330179E+03  0.18061330179E+03  0.00000000000E+00 0.  1.
         -2   -1    0    0    0  501 -0.00000000000E+00 -0.00000000000E+00 -0.48770612083E+03  0.48770612083E+03  0.00000000000E+00 0. -1.
         25    1    1    2    0    0  0.85651249847E+02  0.20285420515E+03 -0.25621671691E+03  0.36021933759E+03  0.12500000000E+03 0.  0.
          2    1    1    2  502    0  0.68889470670E+02 -0.47197948649E+02 -0.25384943746E+02  0.87280014292E+02  0.00000000000E+00 0. -1.
         -2    1    1    2    0  501 -0.15454072052E+03 -0.15565625650E+03 -0.25491158385E+02  0.22082007074E+03  0.00000000000E+00 0.  1.
<mgrwt>
<rscale>  4 0.59358643E+03</rscale>
<asrwt>0</asrwt>
<pdfrwt beam="1">  1        2 0.27786663E-01 0.59358643E+03</pdfrwt>
<pdfrwt beam="2">  1       -2 0.75031709E-01 0.59358643E+03</pdfrwt>
<totfact> 0.31306218E+02</totfact>
</mgrwt>
</event>
<event>
 5    0  0.5719562E-003  0.1073890E+04  0.7546771E-02  0.9231021E-01
          1   -1    0    0  502    0  0.00000000000E+00  0.00000000000E+00  0.40767162634E+04  0.40767162634E+04  0.00000000000E+00 0. -1.
         -1   -1    0    0    0  501 -0.00000000000E+00 -0.00000000000E+00 -0.70721060577E+02  0.70721060577E+02  0.00000000000E+00 0.  1.
         25    1    1    2    0    0 -0.48217916973E+03  0.77004728091E+02  0.19086255225E+04  0.19740574625E+04  0.12500000000E+03 0.  0.
          2    1    1    2  502    0  0.30866598579E+03 -0.80244243061E+02  0.18083666872E+04  0.18362744634E+04  0.00000000000E+00 0. -1.
         -2    1    1    2    0  501  0.17351318394E+03  0.32395149703E+01  0.28900299305E+03  0.33710539813E+03  0.00000000000E+00 0.  1.
<mgrwt>
<rscale>  4 0.10738896E+04</rscale>
<asrwt>0</asrwt>
<pdfrwt beam="1">  1        1 0.62718694E+00 0.10738896E+04</pdfrwt>
<pdfrwt beam="2">  1       -1 0.10880166E-01 0.10738896E+04</pdfrwt>
<totfact> 0.47310326E+00</totfact>
</mgrwt>
</event>
<event>
 5    0  0.5719562E-003  0.5222317E+03  0.7546771E-02  0.1008134E+00
         -2   -1    0    0    0  501 -0.00000000000E+00  0.00000000000E+00  0.37711080287E+02  0.37711080287E+02  0.00000000000E+00 0.  1.
          2   -1    0    0  502    0  0.00000000000E+00 -0.00000000000E+00 -0.18079959386E+04  0.18079959386E+04  0.00000000000E+00 0. -1.
         25    1    1    2    0    0  0.11127564568E+03 -0.19947929157E+03 -0.11658659008E+04  0.11945888647E+04  0.12500000000E+03 0.  0.
          4    1    1    2  502    0 -0.67682350965E+02  0.14651531584E+03 -0.50627617116E+03  0.53137858433E+03  0.00000000000E+00 0. -1.
         -4    1    1    2    0  501 -0.43593294711E+02  0.52963975735E+02 -0.98142786391E+02  0.11973956986E+03  0.00000000000E+00 0.  1.
<mgrwt>
<rscale>  4 0.52223167E+03</rscale>
<asrwt>0</asrwt>
<pdfrwt beam="1">  1        2 0.27815321E+00 0.52223167E+03</pdfrwt>
<pdfrwt beam="2">  1       -2 0.58017048E-02 0.52223167E+03</pdfrwt>
<totfact> 0.14390878E+03</totfact>
</mgrwt>
</event>
<event>
 5    0  0.5719562E-003  0.6910682E+03  0.7546771E-02  0.9732630E-01
          1   -1    0    0  502    0  0.00000000000E+00  0.00000000000E+00  0.94064206797E+03  0.94064206797E+03  0.00000000000E+00 0. -1.
         -1   -1    0    0    0  501 -0.00000000000E+00 -0.00000000000E+00 -0.12692798019E+03  0.12692798019E+03  0.00000000000E+00 0.  1.
         25    1    1    2    0    0 -0.27905039668E+03  0.14594738331E+03  0.40161505935E+03  0.52544211715E+03  0.12500000000E+03 0.  0.
          1    1    1    2  502    0  0.89258709333E+02 -0.99841224599E+02  0.77594978485E+02  0.15477844814E+03  0.00000000000E+00 0.  1.
         -1    1    1    2    0  501  0.18979168734E+03 -0.46106158710E+02  0.33450404994E+03  0.38734948287E+03  0.00000000000E+00 0. -1.
<mgrwt>
<rscale>  4 0.69106815E+03</rscale>
<asrwt>0</asrwt>
<pdfrwt beam="1">  1        1 0.14471416E+00 0.69106815E+03</pdfrwt>
<pdfrwt beam="2">  1       -1 0.19527382E-01 0.69106815E+03</pdfrwt>
<totfact> 0.36334801E+02</totfact>
</mgrwt>
</event>
<event>
 5    0  0.5719562E-003  0.4513204E+03  0.7546771E-02  0.1027329E+00
          4   -1    0    0  502    0  0.00000000000E+00  0.00000000000E+00  0.12503096154E+03  0.12503096154E+03  0.00000000000E+00 0.  1.
         -4   -1    0    0    0  501 -0.00000000000E+00 -0.00000000000E+00 -0.40727926430E+03  0.40727926430E+03  0.00000000000E+00 0. -1.
         25    1    1    2    0    0  0.21961802730E+02  0.20453486180E+03 -0.12370113458E+03  0.27063591995E+03  0.12500000000E+03 0.  0.
          1    1    1    2  502    0  0.64557110209E+01 -0.32178142238E+02 -0.17745731976E+02  0.37309784856E+02  0.00000000000E+00 0.  1.
         -1    1    1    2    0  501 -0.28417513751E+02 -0.17235671956E+03 -0.14080143620E+03  0.22436452104E+03  0.00000000000E+00 0. -1.
<mgrwt>
<rscale>  4 0.45132037E+03</rscale>
<asrwt>0</asrwt>
<pdfrwt beam="1">  1        4 0.19235533E-01 0.45132037E+03</pdfrwt>
<pdfrwt beam="2">  1       -4 0.62658348E-01 0.45132037E+03</pdfrwt>
<totfact> 0.11430122E+02</totfact>
</mgrwt>
</event>
<event>
 5    0  0.5719562E-003  0.7101220E+03  0.7546771E-02  0.9700077E-01
          1   -1    0    0  502    0  0.00000000000E+00  0.00000000000E+00  0.66749359961E+03  0.66749359961E+03  0.00000000000E+00 0.  1.
         -1   -1    0    0    0  501 -0.00000000000E+00 -0.00000000000E+00 -0.18886819455E+03  0.18886819455E+03  0.00000000000E+00 0. -1.
         25    1    1    2    0    0  0.12804406909E+03  0.29936644516E+03  0.13065229555E+03  0.37243868549E+03  0.12500000000E+03 0.  0.
          1    1    1    2  502    0 -0.21775500629E+02 -0.11876792178E+03  0.17277580448E+03  0.21078773751E+03  0.00000000000E+00 0.  1.
         -1    1    1    2    0  501 -0.10626856846E+03 -0.18059852338E+03  0.17519730504E+03  0.27313537116E+03  0.00000000000E+00 0. -1.
<mgrwt>
<rscale>  4 0.71012199E+03</rscale>
<asrwt>0</asrwt>
<pdfrwt beam="1">  1        1 0.10269132E+00 0.71012199E+03</pdfrwt>
<pdfrwt beam="2">  1       -1 0.29056646E-01 0.71012199E+03</pdfrwt>
<totfact> 0.31946842E+02</totfact>
</mgrwt>
</event>
<event>
 5    0  0.5719562E-003  0.4448816E+03  0.7546771E-02  0.1029259E+00
          1   -1    0    0  502    0  0.00000000000E+00  0.00000000000E+00  0.52429666090E+03  0.52429666090E+03  0.00000000000E+00 0.  1.
         -1   -1    0    0    0  501 -0.00000000000E+00 -0.00000000000E+00 -0.94373882965E+02  0.94373882965E+02  0.00000000000E+00 0. -1.
         25    1    1    2    0    0  0.58832910057E+02  0.19281288898E+03  0.23612717705E+03  0.33469264289E+03  0.12500000000E+03 0.  0.
          3    1    1    2  502    0 -0.27244606373E+01 -0.74677592588E+02  0.90219528914E+02  0.11714832017E+03  0.00000000000E+00 0.  1.
         -3    1    1    2    0  501 -0.56108449420E+02 -0.11813529639E+03  0.10357607197E+03  0.16682958081E+03  0.00000000000E+00 0. -1.
<mgrwt>
<rscale>  4 0.44488161E+03</rscale>
<asrwt>0</asrwt>
<pdfrwt beam="1">  1        1 0.80661023E-01 0.44488161E+03</pdfrwt>
<pdfrwt beam="2">  1       -1 0.14519059E-01 0.44488161E+03</pdfrwt>
<totfact> 0.14388261E+03</totfact>
</mgrwt>
</event>
<event>
 5    0  0.5719562E-003  0.7330121E+03  0.7546771E-02  0.9662385E-01
          2   -1    0    0  502    0  0.00000000000E+00  0.00000000000E+00  0.18211421935E+04  0.18211421935E+04  0.00000000000E+00 0. -1.
         -2   -1    0    0    0  501 -0.00000000000E+00 -0.00000000000E+00 -0.73759585536E+02  0.73759585536E+02  0.00000000000E+00 0.  1.
         25    1    1    2    0    0  0.59021050045E+02  0.25349608639E+03  0.27987068852E+03  0.40211484983E+03  0.12500000000E+03 0.  0.
          2    1    1    2  502    0  0.30554987874E+01 -0.30577846345E+02  0.72967471295E+02  0.79174444280E+02  0.00000000000E+00 0.  1.
         -2    1    1    2    0  501 -0.62076548832E+02 -0.22291824005E+03  0.13945444481E+04  0.14136124849E+04  0.00000000000E+00 0. -1.
<mgrwt>
<rscale>  4 0.73301212E+03</rscale>
<asrwt>0</asrwt>
<pdfrwt beam="1">  1        2 0.28017569E+00 0.73301212E+03</pdfrwt>
<pdfrwt beam="2">  1       -2 0.11347630E-01 0.73301212E+03</pdfrwt>
<totfact> 0.47825290E+02</totfact>
</mgrwt>
</event>
<event>
 5    0  0.5719562E-003  0.1594842E+04  0.7546771E-02  0.8823723E-01
         -2   -1    0    0    0  501 -0.00000000000E+00  0.00000000000E+00  0.27602990807E+03  0.27602990807E+03  0.00000000000E+00 0. -1.
          2   -1    0    0  502    0  0.00000000000E+00 -0.00000000000E+00 -0.23036631129E+04  0.23036631129E+04  0.00000000000E+00 0.  1.
         25    1    1    2    0    0 -0.47878618673E+03  0.35481925227E+03 -0.16181240527E+04  0.17288965742E+04  0.12500000000E+03 0.  0.
          2    1    1    2  502    0  0.12447273220E+03 -0.33521583456E+03 -0.33121179721E+03  0.48740575644E+03  0.00000000000E+00 0.  1.
         -2    1    1    2    0  501  0.35431345453E+03 -0.19603417705E+02 -0.78297354958E+02  0.36339069036E+03  0.00000000000E+00 0. -1.
<mgrwt>
<rscale>  4 0.15948416E+04</rscale>
<asrwt>0</asrwt>
<pdfrwt beam="1">  1        2 0.35440972E+00 0.15948416E+04</pdfrwt>
<pdfrwt beam="2">  1       -2 0.42466139E-01 0.15948416E+04</pdfrwt>
<totfact> 0.22778470E+01</totfact>
</mgrwt>
</event>
<event>
 5    0  0.5719562E-003  0.5822860E+03  0.7546771E-02  0.9942854E-01
         -1   -1    0    0    0  501 -0.00000000000E+00  0.00000000000E+00  0.84155297680E+02  0.84155297680E+02  0.00000000000E+00 0. -1.
          1   -1    0    0  502    0  0.00000000000E+00 -0.00000000000E+00 -0.10072358988E+04  0.10072358988E+04  0.00000000000E+00 0.  1.
         25    1    1    2    0    0 -0.21193815296E+03 -0.10541204422E+03 -0.22506508938E+03  0.34972671360E+03  0.12500000000E+03 0.  0.
          2    1    1    2  502    0  0.15994439478E+03  0.81116039031E+02 -0.40275609737E+03  0.44087922969E+03  0.00000000000E+00 0.  1.
         -2    1    1    2    0  501  0.51993758180E+02  0.24296005188E+02 -0.29525941442E+03  0.30078525323E+03  0.00000000000E+00 0. -1.
<mgrwt>
<rscale>  4 0.58228597E+03</rscale>
<asrwt>0</asrwt>
<pdfrwt beam="1">  1        1 0.15495937E+00 0.58228597E+03</pdfrwt>
<pdfrwt beam="2">  1       -1 0.12946969E-01 0.58228597E+03</pdfrwt>
<totfact> 0.63299532E+02</totfact>
</mgrwt>
</event>
<event>
 5    0  0.5719562E-003  0.6000905E+03  0.7546771E-02  0.9905218E-01
         -2   -1    0    0    0  501 -0.00000000000E+00  0.00000000000E+00  0.60077803791E+02  0.60077803791E+02  0.00000000000E+00 0. -1.
          2   -1    0    0  502    0  0.00000000000E+00 -0.00000000000E+00 -0.14985095006E+04  0.14985095006E+04  0.00000000000E+00 0.  1.
         25    1    1    2    0    0 -0.21417848159E+03  0.73532693341E+02 -0.73940942089E+03  0.78334588189E+03  0.12500000000E+03 0.  0.
          1    1    1    2  502    0  0.14320555049E+03 -0.26879079978E+02 -0.66973279104E+03  0.68539939161E+03  0.00000000000E+00 0.  1.
         -1    1    1    2    0  501  0.70972931104E+02 -0.46653613363E+02 -0.29289484874E+02  0.89842030885E+02  0.00000000000E+00 0. -1.
<mgrwt>
<rscale>  4 0.60009053E+03</rscale>
<asrwt>0</asrwt>
<pdfrwt beam="1">  1        2 0.23053993E+00 0.60009053E+03</pdfrwt>
<pdfrwt beam="2">  1       -2 0.92427390E-02 0.60009053E+03</pdfrwt>
<totfact> 0.10105191E+03</totfact>
</mgrwt>
</event>
<event>
 5    0  0.5719562E-003  0.6976902E+03  0.7546771E-02  0.9721190E-01
         -1   -1    0    0    0  501 -0.00000000000E+00  0.00000000000E+00  0.37639729439E+03  0.37639729439E+03  0.00000000000E+00 0. -1.
          1   -1    0    0  502    0  0.00000000000E+00 -0.00000000000E+00 -0.32330969798E+03  0.32330969798E+03  0.00000000000E+00 0.  1.
         25    1    1    2    0    0  0.19906282612E+03  0.49536445126E+02 -0.48086584529E+02  0.24498405612E+03  0.12500000000E+03 0.  0.
          3    1    1    2  502    0 -0.17573195370E+02 -0.11346516080E+03  0.20582628794E+03  0.23568542746E+03  0.00000000000E+00 0. -1.
         -3    1    1    2    0  501 -0.18148963075E+03  0.63928715669E+02 -0.10465210701E+03  0.21903750879E+03  0.00000000000E+00 0.  1.
<mgrwt>
<rscale>  4 0.69769018E+03</rscale>
<asrwt>0</asrwt>
<pdfrwt beam="1">  1        1 0.49739954E-01 0.69769018E+03</pdfrwt>
<pdfrwt beam="2">  1       -1 0.57907276E-01 0.69769018E+03</pdfrwt>
<totfact> 0.24355744E+02</totfact>
</mgrwt>
</event>
<event>
 5    0  0.5719562E-003  0.4931507E+03  0.7546771E-02  0.1015582E+00
         -4   -1    0    0    0  501 -0.00000000000E+00  0.00000000000E+00  0.20177698923E+04  0.20177698923E+04  0.00000000000E+00 0.  1.
          4   -1    0    0  502    0  0.00000000000E+00 -0.00000000000E+00 -0.30131978687E+02  0.30131978687E+02  0.00000000000E+00 0. -1.
         25    1    1    2    0    0  0.20562639809E+03  0.97051085835E+02  0.10321722663E+04  0.10642864822E+04  0.12500000000E+03 0.  0.
          2    1    1    2  502    0 -0.15425834692E+03 -0.58327389465E+02  0.59393266725E+03  0.61640387344E+03  0.00000000000E+00 0.  1.
         -2    1    1    2    0  501 -0.51368051170E+02 -0.38723696371E+02  0.36153298005E+03  0.36721151535E+03  0.00000000000E+00 0. -1.
<mgrwt>
<rscale>  4 0.49315068E+03</rscale>
<asrwt>0</asrwt>
<pdfrwt beam="1">  1        4 0.46356906E-02 0.49315068E+03</pdfrwt>
<pdfrwt beam="2">  1       -4 0.31042603E+00 0.49315068E+03</pdfrwt>
<totfact> 0.15897183E+01</totfact>
</mgrwt>
</event>
<event>
 5    0  0.5719562E-003  0.7441368E+03  0.7546771E-02  0.9644594E-01
         -2   -1    0    0    0  501 -0.00000000000E+00  0.00000000000E+00  0.19761729443E+03  0.19761729443E+03  0.00000000000E+00 0.  1.
          2   -1    0    0  502    0  0.00000000000E+00 -0.00000000000E+00 -0.70052014515E+03  0.70052014515E+03  0.00000000000E+00 0. -1.
         25    1    1    2    0    0  0.10491574817E+03 -0.19792183450E+03  0.82494845938E+02  0.26946384988E+03  0.12500000000E+03 0.  0.
          2    1    1    2  502    0  0.30634437681E+01  0.25495964811E+02 -0.60198938278E+02  0.65447238896E+02  0.00000000000E+00 0.  1.
         -2    1    1    2    0  501 -0.10797919194E+03  0.17242586969E+03 -0.52519875839E+03  0.56322635080E+03  0.00000000000E+00 0. -1.
<mgrwt>
<rscale>  4 0.74413680E+03</rscale>
<asrwt>0</asrwt>
<pdfrwt beam="1">  1        2 0.10777233E+00 0.74413680E+03</pdfrwt>
<pdfrwt beam="2">  1       -2 0.30402661E-01 0.74413680E+03</pdfrwt>
<totfact> 0.41169710E+02</totfact>
</mgrwt>
</event>
<event>
 5    0  0.5719562E-003  0.5709778E+03  0.7546771E-02  0.9967517E-01
         -1   -1    0    0    0  501 -0.00000000000E+00  0.00000000000E+00  0.12608514514E+03  0.12608514514E+03  0.00000000000E+00 0.  1.
          1   -1    0    0  502    0  0.00000000000E+00 -0.00000000000E+00 -0.64641959921E+03  0.64641959921E+03  0.00000000000E+00 0. -1.
         25    1    1    2    0    0  0.13002642564E+03  0.16920003457E+03 -0.50470234288E+02  0.25240397702E+03  0.12500000000E+03 0.  0.
          4    1    1    2  502    0 -0.97368914103E+02 -0.11105924785E+03 -0.25025011703E+03  0.29058558643E+03  0.00000000000E+00 0. -1.
         -4    1    1    2    0  501 -0.32657511539E+02 -0.58140786724E+02 -0.21961410275E+03  0.22951518091E+03  0.00000000000E+00 0.  1.
<mgrwt>
<rscale>  4 0.57097779E+03</rscale>
<asrwt>0</asrwt>
<pdfrwt beam="1">  1        1 0.99449170E-01 0.57097779E+03</pdfrwt>
<pdfrwt beam="2">  1       -1 0.19397714E-01 0.57097779E+03</pdfrwt>
<totfact> 0.66691441E+02</totfact>
</mgrwt>
</event>
<event>
 5    0  0.5719562E-003  0.4552201E+03  0.7546771E-02  0.1026177E+00
         -2   -1    0    0    0  501 -0.00000000000E+00  0.00000000000E+00  0.23996003779E+03  0.23996003779E+03  0.00000000000E+00 0.  1.
          2   -1    0    0  502    0  0.00000000000E+00 -0.00000000000E+00 -0.21589568584E+03  0.21589568584E+03  0.00000000000E+00 0. -1.
         25    1    1    2    0    0 -0.65069529404E+02  0.19731556822E+03  0.51624699875E+01  0.24252655157E+03  0.12500000000E+03 0.  0.
          1    1    1    2  502    0 -0.28610688926E+01 -0.38206268864E+02 -0.51632208186E+01  0.38659585421E+02  0.00000000000E+00 0. -1.
         -1    1    1    2    0  501  0.67930598296E+02 -0.15910929936E+03  0.24065102776E+02  0.17466958664E+03  0.00000000000E+00 0.  1.
<mgrwt>
<rscale>  4 0.45522011E+03</rscale>
<asrwt>0</asrwt>
<pdfrwt beam="1">  1        2 0.33214721E-01 0.45522011E+03</pdfrwt>
<pdfrwt beam="2">  1       -2 0.36916929E-01 0.45522011E+03</pdfrwt>
<totfact> 0.10961261E+03</totfact>
</mgrwt>
</event>
<event>
 5    0  0.5719562E-003  0.4989030E+03  0.7546771E-02  0.1014066E+00
         -1   -1    0    0    0  501 -0.00000000000E+00  0.00000000000E+00  0.17344261197E+03  0.17344261197E+03  0.00000000000E+00 0.  1.
          1   -1    0    0  502    0  0.00000000000E+00 -0.00000000000E+00 -0.35877030413E+03  0.35877030413E+03  0.00000000000E+00 0. -1.
         25    1    1    2    0    0  0.21110382436E+03 -0.17346171374E+02 -0.13980403867E+03  0.28290613911E+03  0.12500000000E+03 0.  0.
          3    1    1    2  502    0 -0.35370722438E+02 -0.16583521301E+02 -0.57960577844E+02  0.69896564784E+02  0.00000000000E+00 0. -1.
         -3    1    1    2    0  501 -0.17573310192E+03  0.33929692676E+02  0.12436924355E+02  0.17941021220E+03  0.00000000000E+00 0.  1.
<mgrwt>
<rscale>  4 0.49890303E+03</rscale>
<asrwt>0</asrwt>
<pdfrwt beam="1">  1        1 0.55195431E-01 0.49890303E+03</pdfrwt>
<pdfrwt beam="2">  1       -1 0.26683479E-01 0.49890303E+03</pdfrwt>
<totfact> 0.87154449E+02</totfact>
</mgrwt>
</event>
<event>
 5    0  0.5719562E-003  0.5211507E+03  0.7546771E-02  0.1008401E+00
          2   -1    0    0  502    0  0.00000000000E+00  0.00000000000E+00  0.20010278589E+03  0.20010278589E+03  0.00000000000E+00 0. -1.
         -2   -1    0    0    0  501 -0.00000000000E+00 -0.00000000000E+00 -0.33932313035E+03  0.33932313035E+03  0.00000000000E+00 0.  1.
         25    1    1    2    0    0 -0.18032505700E+03 -0.12705029834E+03 -0.52736702282E+02  0.25896923419E+03  0.12500000000E+03 0.  0.
          3    1    1    2  502    0  0.24487501410E+02 -0.13688204848E+02  0.29385827245E+02  0.40626734057E+02  0.00000000000E+00 0. -1.
         -3    1    1    2    0  501  0.15583755559E+03  0.14073850318E+03 -0.11586946942E+03  0.23982994799E+03  0.00000000000E+00 0.  1.
<mgrwt>
<rscale>  4 0.52115066E+03</rscale>
<asrwt>0</asrwt>
<pdfrwt beam="1">  1        2 0.30785044E-01 0.52115066E+03</pdfrwt>
<pdfrwt beam="2">  1       -2 0.52203558E-01 0.52115066E+03</pdfrwt>
<totfact> 0.60285308E+02</totfact>
</mgrwt>
</event>
<event>
 5    0  0.5719562E-003  0.5953081E+03  0.7546771E-02  0.9915188E-01
         -1   -1    0    0    0  501 -0.00000000000E+00  0.00000000000E+00  0.22046772775E+02  0.22046772775E+02  0.00000000000E+00 0.  1.
          1   -1    0    0  502    0  0.00000000000E+00 -0.00000000000E+00 -0.40186355724E+04  0.40186355724E+04  0.00000000000E+00 0. -1.
         25    1    1    2    0    0  0.26917416799E+03  0.72629569664E+02 -0.20305139024E+04  0.20533731991E+04  0.12500000000E+03 0.  0.
          4    1    1    2  502    0 -0.24798012501E+03 -0.87650003892E+02 -0.17442621950E+04  0.17639805188E+04  0.00000000000E+00 0.  1.
         -4    1    1    2    0  501 -0.21194042980E+02  0.15020434227E+02 -0.22181270218E+03  0.22332862725E+03  0.00000000000E+00 0. -1.
<mgrwt>
<rscale>  4 0.59530814E+03</rscale>
<asrwt>0</asrwt>
<pdfrwt beam="1">  1        1 0.61825224E+00 0.59530814E+03</pdfrwt>
<pdfrwt beam="2">  1       -1 0.33918078E-02 0.59530814E+03</pdfrwt>
<totfact> 0.34906253E+01</totfact>
</mgrwt>
</event>
<event>
 5    0  0.5719562E-003  0.8433289E+03  0.7546771E-02  0.9499335E-01
         -1   -1    0    0    0  501 -0.00000000000E+00  0.00000000000E+00  0.37014319619E+03  0.37014319619E+03  0.00000000000E+00 0. -1.
          1   -1    0    0  502    0  0.00000000000E+00 -0.00000000000E+00 -0.48035705616E+03  0.48035705616E+03  0.00000000000E+00 0.  1.
         25    1    1    2    0    0  0.14164993198E+03  0.28366585303E+03  0.79524393623E+02  0.34997163968E+03  0.12500000000E+03 0.  0.
          3    1    1    2  502    0 -0.18912353812E+03 -0.31257089316E+03 -0.74878575227E+02  0.37292771009E+03  0.00000000000E+00 0.  1.
         -3    1    1    2    0  501  0.47473606146E+02  0.28905040132E+02 -0.11485967836E+03  0.12760090258E+03  0.00000000000E+00 0. -1.
<mgrwt>
<rscale>  4 0.84332887E+03</rscale>
<asrwt>0</asrwt>
<pdfrwt beam="1">  1        1 0.73901085E-01 0.84332887E+03</pdfrwt>
<pdfrwt beam="2">  1       -1 0.56945107E-01 0.84332887E+03</pdfrwt>
<totfact> 0.14775767E+02</totfact>
</mgrwt>
</event>
<event>
 5    0  0.5719562E-003  0.8491811E+03  0.7546771E-02  0.9491437E-01
          2   -1    0    0  502    0  0.00000000000E+00  0.00000000000E+00  0.71339610253E+03  0.71339610253E+03  0.00000000000E+00 0. -1.
         -2   -1    0    0    0  501 -0.00000000000E+00 -0.00000000000E+00 -0.25270271495E+03  0.25270271495E+03  0.00000000000E+00 0.  1.
         25    1    1    2    0    0 -0.27626261735E+03  0.20037872628E+03  0.15532274353E+02  0.36378416573E+03  0.12500000000E+03 0.  0.
          1    1    1    2  502    0  0.23889434859E+03 -0.70418019992E+02  0.18899536996E+03  0.31264749671E+03  0.00000000000E+00 0. -1.
         -1    1    1    2    0  501  0.37368268757E+02 -0.12996070629E+03  0.25616574326E+03  0.28966715504E+03  0.00000000000E+00 0.  1.
<mgrwt>
<rscale>  4 0.84918109E+03</rscale>
<asrwt>0</asrwt>
<pdfrwt beam="1">  1        2 0.10975325E+00 0.84918109E+03</pdfrwt>
<pdfrwt beam="2">  1       -2 0.38877341E-01 0.84918109E+03</pdfrwt>
<totfact> 0.25112680E+02</totfact>
</mgrwt>
</event>
<event>
 5    0  0.5719562E-003  0.6907543E+03  0.7546771E-02  0.9733175E-01
          1   -1    0    0  502    0  0.00000000000E+00  0.00000000000E+00  0.52233095390E+03  0.52233095390E+03  0.00000000000E+00 0. -1.
         -1   -1    0    0    0  501 -0.00000000000E+00 -0.00000000000E+00 -0.22837128412E+03  0.22837128412E+03  0.00000000000E+00 0.  1.
         25    1    1    2    0    0  0.32517951213E+03 -0.36976005373E+02  0.16043830688E+03  0.38532374751E+03  0.12500000000E+03 0.  0.
          4    1    1    2  502    0 -0.24275349368E+03  0.54755394189E+02  0.13052001519E+03  0.28100335630E+03  0.00000000000E+00 0. -1.
         -4    1    1    2    0  501 -0.82426018448E+02 -0.17779388816E+02  0.30013476996E+01  0.84375134203E+02  0.00000000000E+00 0.  1.
<mgrwt>
<rscale>  4 0.69075434E+03</rscale>
<asrwt>0</asrwt>
<pdfrwt beam="1">  1        1 0.80358608E-01 0.69075434E+03</pdfrwt>
<pdfrwt beam="2">  1       -1 0.35134044E-01 0.69075434E+03</pdfrwt>
<totfact> 0.32533293E+02</totfact>
</mgrwt>
</event>
<event>
 5    0  0.5719562E-003  0.6649250E+03  0.7546771E-02  0.9779170E-01
          2   -1    0    0  502    0  0.00000000000E+00  0.00000000000E+00  0.77589627362E+03  0.77589627362E+03  0.00000000000E+00 0.  1.
         -2   -1    0    0    0  501 -0.00000000000E+00 -0.00000000000E+00 -0.14245632023E+03  0.14245632023E+03  0.00000000000E+00 0. -1.
         25    1    1    2    0    0  0.16194273065E+03 -0.14009572318E+03  0.65522535536E+03  0.70056942980E+03  0.12500000000E+03 0.  0.
          2    1    1    2  502    0 -0.29576224716E+02  0.13338725230E+02 -0.10753238773E+02  0.34180503263E+02  0.00000000000E+00 0.  1.
         -2    1    1    2    0  501 -0.13236650594E+03  0.12675699795E+03 -0.11032163196E+02  0.18360266079E+03  0.00000000000E+00 0. -1.
<mgrwt>
<rscale>  4 0.66492504E+03</rscale>
<asrwt>0</asrwt>
<pdfrwt beam="1">  1        2 0.11936866E+00 0.66492504E+03</pdfrwt>
<pdfrwt beam="2">  1       -2 0.21916357E-01 0.66492504E+03</pdfrwt>
<totfact> 0.65503102E+02</totfact>
</mgrwt>
</event>
<event>
 5    0  0.5719562E-003  0.6936733E+03  0.7546771E-02  0.9728113E-01
         -2   -1    0    0    0  501 -0.00000000000E+00  0.00000000000E+00  0.85662149893E+03  0.85662149893E+03  0.00000000000E+00 0. -1.
          2   -1    0    0  502    0  0.00000000000E+00 -0.00000000000E+00 -0.14043037152E+03  0.14043037152E+03  0.00000000000E+00 0.  1.
         25    1    1    2    0    0  0.24338308763E+03 -0.80070622952E+02  0.57189136944E+03  0.63900811453E+03  0.12500000000E+03 0.  0.
          3    1    1    2  502    0 -0.12806008659E+03  0.72905832248E+02 -0.28581068015E+02  0.15010504189E+03  0.00000000000E+00 0.  1.
         -3    1    1    2    0  501 -0.11532300104E+03  0.71647907033E+01  0.17288082598E+03  0.20793871402E+03  0.00000000000E+00 0. -1.
<mgrwt>
<rscale>  4 0.69367334E+03</rscale>
<asrwt>0</asrwt>
<pdfrwt beam="1">  1        2 0.21604673E-01 0.69367334E+03</pdfrwt>
<pdfrwt beam="2">  1       -2 0.13178792E+00 0.69367334E+03</pdfrwt>
<totfact> 0.11018187E+02</totfact>
</mgrwt>
</event>
<event>
 5    0  0.5719562E-003  0.1240071E+04  0.7546771E-02  0.9078488E-01
         -2   -1    0    0    0  501 -0.00000000000E+00  0.00000000000E+00  0.49341546663E+03  0.49341546663E+03  0.00000000000E+00 0. -1.
          2   -1    0    0  502    0  0.00000000000E+00 -0.00000000000E+00 -0.77914907679E+03  0.77914907679E+03  0.00000000000E+00 0.  1.
         25    1    1    2    0    0  0.24571961786E+03 -0.46783866176E+03 -0.23434675416E+03  0.59143431184E+03  0.12500000000E+03 0.  0.
          3    1    1    2  502    0 -0.27715363165E+03  0.45740308402E+03  0.84332894056E+02  0.54142751484E+03  0.00000000000E+00 0. -1.
         -3    1    1    2    0  501  0.31434013790E+02  0.10435577734E+02 -0.13571975006E+03  0.13970271673E+03  0.00000000000E+00 0.  1.
<mgrwt>
<rscale>  4 0.12400713E+04</rscale>
<asrwt>0</asrwt>
<pdfrwt beam="1">  1        2 0.11986909E+00 0.12400713E+04</pdfrwt>
<pdfrwt beam="2">  1       -2 0.75910072E-01 0.12400713E+04</pdfrwt>
<totfact> 0.54604083E+01</totfact>
</mgrwt>
</event>
<event>
 5    0  0.5719562E-003  0.4841579E+03  0.7546771E-02  0.1017999E+00
         -2   -1    0    0    0  501 -0.00000000000E+00  0.00000000000E+00  0.40930349012E+02  0.40930349012E+02  0.00000000000E+00 0. -1.
          2   -1    0    0  502    0  0.00000000000E+00 -0.00000000000E+00 -0.14317544400E+04  0.14317544400E+04  0.00000000000E+00 0.  1.
         25    1    1    2    0    0 -0.41326255476E+02 -0.20691225009E+03 -0.96200832325E+03  0.99277668820E+03  0.12500000000E+03 0.  0.
          2    1    1    2  502    0  0.32719188499E+02  0.96931229401E+02 -0.24542284813E+03  0.26589205124E+03  0.00000000000E+00 0.  1.
         -2    1    1    2    0  501  0.86070669764E+01  0.10998102069E+03 -0.18339291963E+03  0.21401604959E+03  0.00000000000E+00 0. -1.
<mgrwt>
<rscale>  4 0.48415786E+03</rscale>
<asrwt>0</asrwt>
<pdfrwt beam="1">  1        2 0.22026987E+00 0.48415786E+03</pdfrwt>
<pdfrwt beam="2">  1       -2 0.62969779E-02 0.48415786E+03</pdfrwt>
<totfact> 0.20310429E+03</totfact>
</mgrwt>
</event>
<event>
 5    0  0.5719562E-003  0.6318913E+03  0.7546771E-02  0.9841365E-01
          1   -1    0    0  502    0  0.00000000000E+00  0.00000000000E+00  0.61638554696E+03  0.61638554696E+03  0.00000000000E+00 0.  1.
         -1   -1    0    0    0  501 -0.00000000000E+00 -0.00000000000E+00 -0.16194676154E+03  0.16194676154E+03  0.00000000000E+00 0. -1.
         25    1    1    2    0    0 -0.10979725996E+03  0.19216980587E+03  0.15859503515E+03  0.29960316713E+03  0.12500000000E+03 0.  0.
          4    1    1    2  502    0 -0.18309852376E+02 -0.14468762015E+03 -0.75038325480E+01  0.14603446724E+03  0.00000000000E+00 0. -1.
         -4    1    1    2    0  501  0.12810711233E+03 -0.47482185720E+02  0.30334758282E+03  0.33269467413E+03  0.00000000000E+00 0.  1.
<mgrwt>
<rscale>  4 0.63189127E+03</rscale>
<asrwt>0</asrwt>
<pdfrwt beam="1">  1        1 0.94828545E-01 0.63189127E+03</pdfrwt>
<pdfrwt beam="2">  1       -1 0.24914887E-01 0.63189127E+03</pdfrwt>
<totfact> 0.46888459E+02</totfact>
</mgrwt>
</event>
<event>
 5    0  0.5719562E-003  0.7768873E+03  0.7546771E-02  0.9594088E-01
          2   -1    0    0  502    0  0.00000000000E+00  0.00000000000E+00  0.32092974732E+03  0.32092974732E+03  0.00000000000E+00 0. -1.
         -2   -1    0    0    0  501 -0.00000000000E+00 -0.00000000000E+00 -0.47016045693E+03  0.47016045693E+03  0.00000000000E+00 0.  1.
         25    1    1    2    0    0 -0.99036924113E+01 -0.31339658109E+03 -0.49283510314E+02  0.34112954218E+03  0.12500000000E+03 0.  0.
          3    1    1    2  502    0 -0.21688853148E+02  0.33507731765E+03  0.75245379211E+01  0.33586281995E+03  0.00000000000E+00 0. -1.
         -3    1    1    2    0  501  0.31592545559E+02 -0.21680736561E+02 -0.10747173722E+03  0.11409784211E+03  0.00000000000E+00 0.  1.
<mgrwt>
<rscale>  4 0.77688732E+03</rscale>
<asrwt>0</asrwt>
<pdfrwt beam="1">  1        2 0.49373808E-01 0.77688732E+03</pdfrwt>
<pdfrwt beam="2">  1       -2 0.72332377E-01 0.77688732E+03</pdfrwt>
<totfact> 0.17762530E+02</totfact>
</mgrwt>
</event>
<event>
 5    0  0.5719562E-003  0.7427100E+03  0.7546771E-02  0.9646857E-01
          1   -1    0    0  502    0  0.00000000000E+00  0.00000000000E+00  0.63591369500E+02  0.63591369500E+02  0.00000000000E+00 0.  1.
         -1   -1    0    0    0  501 -0.00000000000E+00 -0.00000000000E+00 -0.21686043480E+04  0.21686043480E+04  0.00000000000E+00 0. -1.
         25    1    1    2    0    0 -0.19832665793E+03 -0.62456539246E+02 -0.21021593936E+03  0.32101405530E+03  0.12500000000E+03 0.  0.
          2    1    1    2  502    0 -0.13023400725E+02  0.30453408205E+02 -0.17067630515E+03  0.17386034676E+03  0.00000000000E+00 0. -1.
         -2    1    1    2    0  501  0.21135005865E+03  0.32003131041E+02 -0.17241207340E+04  0.17373213154E+04  0.00000000000E+00 0.  1.
<mgrwt>
<rscale>  4 0.74270996E+03</rscale>
<asrwt>0</asrwt>
<pdfrwt beam="1">  1        1 0.97832866E-02 0.74270996E+03</pdfrwt>
<pdfrwt beam="2">  1       -1 0.33363147E+00 0.74270996E+03</pdfrwt>
<totfact> 0.14476527E+01</totfact>
</mgrwt>
</event>
<event>
 5    0  0.5719562E-003  0.8451662E+03  0.7546771E-02  0.9496848E-01
         -3   -1    0    0    0  501 -0.00000000000E+00  0.00000000000E+00  0.22239580844E+03  0.22239580844E+03  0.00000000000E+00 0.  1.
          3   -1    0    0  502    0  0.00000000000E+00 -0.00000000000E+00 -0.80296690292E+03  0.80296690292E+03  0.00000000000E+00 0. -1.
         25    1    1    2    0    0  0.19665304096E+03  0.26069948307E+03 -0.29100000588E+02  0.35086813623E+03  0.12500000000E+03 0.  0.
          2    1    1    2  502    0  0.31965139728E+02  0.97897001954E+01 -0.36525321697E+02  0.49514720163E+02  0.00000000000E+00 0.  1.
         -2    1    1    2    0  501 -0.22861818069E+03 -0.27048918326E+03 -0.51494577220E+03  0.62497985496E+03  0.00000000000E+00 0. -1.
<mgrwt>
<rscale>  4 0.84516619E+03</rscale>
<asrwt>0</asrwt>
<pdfrwt beam="1">  1        3 0.12353337E+00 0.84516619E+03</pdfrwt>
<pdfrwt beam="2">  1       -3 0.34214740E-01 0.84516619E+03</pdfrwt>
<totfact> 0.11717347E+01</totfact>
</mgrwt>
</event>
<event>
 5    0  0.5719562E-003  0.5419436E+03  0.7546771E-02  0.1003376E+00
          1   -1    0    0  502    0  0.00000000000E+00  0.00000000000E+00  0.71564732683E+02  0.71564732683E+02  0.00000000000E+00 0. -1.
         -1   -1    0    0    0  501 -0.00000000000E+00 -0.00000000000E+00 -0.10260041216E+04  0.10260041216E+04  0.00000000000E+00 0.  1.
         25    1    1    2    0    0  0.11197560062E+03  0.18923477474E+03 -0.38171407592E+03  0.45790716402E+03  0.12500000000E+03 0.  0.
          4    1    1    2  502    0 -0.40613614378E+02 -0.74330366332E+02 -0.47110659848E+02  0.96922047560E+02  0.00000000000E+00 0. -1.
         -4    1    1    2    0  501 -0.71361986244E+02 -0.11490440841E+03 -0.52561465312E+03  0.54273964267E+03  0.00000000000E+00 0.  1.
<mgrwt>
<rscale>  4 0.54194358E+03</rscale>
<asrwt>0</asrwt>
<pdfrwt beam="1">  1        1 0.11009959E-01 0.54194358E+03</pdfrwt>
<pdfrwt beam="2">  1       -1 0.15784679E+00 0.54194358E+03</pdfrwt>
<totfact> 0.18311442E+02</totfact>
</mgrwt>
</event>
<event>
 5    0  0.5719562E-003  0.4724162E+03  0.7546771E-02  0.1021240E+00
         -2   -1    0    0    0  501 -0.00000000000E+00  0.00000000000E+00  0.40124884689E+02  0.40124884689E+02  0.00000000000E+00 0.  1.
          2   -1    0    0  502    0  0.00000000000E+00 -0.00000000000E+00 -0.13905152654E+04  0.13905152654E+04  0.00000000000E+00 0. -1.
         25    1    1    2    0    0 -0.17472639801E+03  0.10315314286E+03 -0.59360838726E+03  0.63966069324E+03  0.12500000000E+03 0.  0.
          1    1    1    2  502    0 -0.53450035498E+01 -0.27803332308E+02 -0.17622305360E+03  0.17848293747E+03  0.00000000000E+00 0. -1.
         -1    1    1    2    0  501  0.18007140156E+03 -0.75349810551E+02 -0.58055893984E+03  0.61249651936E+03  0.00000000000E+00 0.  1.
<mgrwt>
<rscale>  4 0.47241619E+03</rscale>
<asrwt>0</asrwt>
<pdfrwt beam="1">  1        2 0.21392542E+00 0.47241619E+03</pdfrwt>
<pdfrwt beam="2">  1       -2 0.61730594E-02 0.47241619E+03</pdfrwt>
<totfact> 0.22090718E+03</totfact>
</mgrwt>
</event>
<event>
 5    0  0.5719562E-003  0.6057150E+03  0.7546771E-02  0.9893620E-01
          2   -1    0    0  502    0  0.00000000000E+00  0.00000000000E+00  0.23252881140E+04  0.23252881140E+04  0.00000000000E+00 0. -1.
         -2   -1    0    0    0  501 -0.00000000000E+00 -0.00000000000E+00 -0.39445717474E+02  0.39445717474E+02  0.00000000000E+00 0.  1.
         25    1    1    2    0    0  0.22005655158E+03  0.14178790436E+03  0.16217240910E+04  0.16474655454E+04  0.12500000000E+03 0.  0.
          2    1    1    2  502    0 -0.10138601463E+03 -0.25950745213E+02  0.27786988256E+03  0.29692463147E+03  0.00000000000E+00 0.  1.
         -2    1    1    2    0  501 -0.11867053695E+03 -0.11583715915E+03  0.38624842293E+03  0.42034365464E+03  0.00000000000E+00 0. -1.
<mgrwt>
<rscale>  4 0.60571498E+03</rscale>
<asrwt>0</asrwt>
<pdfrwt beam="1">  1        2 0.35773652E+00 0.60571498E+03</pdfrwt>
<pdfrwt beam="2">  1       -2 0.60685738E-02 0.60571498E+03</pdfrwt>
<totfact> 0.69841829E+02</totfact>
</mgrwt>
</event>
<event>
 5    0  0.5719562E-003  0.4787707E+03  0.7546771E-02  0.1019474E+00
         -2   -1    0    0    0  501 -0.00000000000E+00  0.00000000000E+00  0.32837542089E+02  0.32837542089E+02  0.00000000000E+00 0.  1.
          2   -1    0    0  502    0  0.00000000000E+00 -0.00000000000E+00 -0.17451167753E+04  0.17451167753E+04  0.00000000000E+00 0. -1.
         25    1    1    2    0    0  0.16466230387E+03  0.14650589299E+03 -0.85023407330E+03  0.88718691965E+03  0.12500000000E+03 0.  0.
          4    1    1    2  502    0 -0.14921908157E+02 -0.24630178980E+02 -0.16422967701E+03  0.16673540677E+03  0.00000000000E+00 0. -1.
         -4    1    1    2    0  501 -0.14974039571E+03 -0.12187571401E+03 -0.69781548288E+03  0.72403199095E+03  0.00000000000E+00 0.  1.
<mgrwt>
<rscale>  4 0.47877070E+03</rscale>
<asrwt>0</asrwt>
<pdfrwt beam="1">  1        2 0.26847950E+00 0.47877070E+03</pdfrwt>
<pdfrwt beam="2">  1       -2 0.50519296E-02 0.47877070E+03</pdfrwt>
<totfact> 0.19320692E+03</totfact>
</mgrwt>
</event>
<event>
 5    0  0.5719562E-003  0.5760399E+03  0.7546771E-02  0.9956402E-01
          1   -1    0    0  502    0  0.00000000000E+00  0.00000000000E+00  0.20004670159E+04  0.20004670159E+04  0.00000000000E+00 0.  1.
         -1   -1    0    0    0  501 -0.00000000000E+00 -0.00000000000E+00 -0.41468056153E+02  0.41468056153E+02  0.00000000000E+00 0. -1.
         25    1    1    2    0    0  0.20286554263E+03 -0.12327051577E+03  0.10476343908E+04  0.10814401811E+04  0.12500000000E+03 0.  0.
          3    1    1    2  502    0 -0.12214719610E+03  0.73471764341E+02  0.21665081411E+03  0.25933687151E+03  0.00000000000E+00 0. -1.
         -3    1    1    2    0  501 -0.80718346535E+02  0.49798751427E+02  0.69471375483E+03  0.70115801946E+03  0.00000000000E+00 0.  1.
<mgrwt>
<rscale>  4 0.57603985E+03</rscale>
<asrwt>0</asrwt>
<pdfrwt beam="1">  1        1 0.30776408E+00 0.57603985E+03</pdfrwt>
<pdfrwt beam="2">  1       -1 0.63797025E-02 0.57603985E+03</pdfrwt>
<totfact> 0.39617104E+02</totfact>
</mgrwt>
</event>
<event>
 5    0  0.5719562E-003  0.6335098E+03  0.7546771E-02  0.9838224E-01
         -2   -1    0    0    0  501 -0.00000000000E+00  0.00000000000E+00  0.36492657459E+03  0.36492657459E+03  0.00000000000E+00 0.  1.
          2   -1    0    0  502    0  0.00000000000E+00 -0.00000000000E+00 -0.27494203194E+03  0.27494203194E+03  0.00000000000E+00 0. -1.
         25    1    1    2    0    0  0.25648469574E+03 -0.59622609220E+02  0.19137427842E+03  0.34869523817E+03  0.12500000000E+03 0.  0.
          4    1    1    2  502    0 -0.14681203053E+03  0.46035752580E+02 -0.94247255604E+02  0.18043172674E+03  0.00000000000E+00 0. -1.
         -4    1    1    2    0  501 -0.10967266521E+03  0.13586856640E+02 -0.71424801646E+01  0.11074164163E+03  0.00000000000E+00 0.  1.
<mgrwt>
<rscale>  4 0.63350976E+03</rscale>
<asrwt>0</asrwt>
<pdfrwt beam="1">  1        2 0.42298774E-01 0.63350976E+03</pdfrwt>
<pdfrwt beam="2">  1       -2 0.56142550E-01 0.63350976E+03</pdfrwt>
<totfact> 0.36393141E+02</totfact>
</mgrwt>
</event>
<event>
 5    0  0.5719562E-003  0.7031315E+03  0.7546771E-02  0.9711892E-01
         -1   -1    0    0    0  501 -0.00000000000E+00  0.00000000000E+00  0.40946661119E+02  0.40946661119E+02  0.00000000000E+00 0. -1.
          1   -1    0    0  502    0  0.00000000000E+00 -0.00000000000E+00 -0.30185240843E+04  0.30185240843E+04  0.00000000000E+00 0.  1.
         25    1    1    2    0    0  0.14067454443E+03  0.15105211377E+03 -0.79789759856E+03  0.83358961504E+03  0.12500000000E+03 0.  0.
          4    1    1    2  502    0 -0.23741583481E+03  0.13057919215E+01 -0.80120079910E+03  0.83563790256E+03  0.00000000000E+00 0. -1.
         -4    1    1    2    0  501  0.96741290379E+02 -0.15235790569E+03 -0.13784790255E+04  0.13902432278E+04  0.00000000000E+00 0.  1.
<mgrwt>
<rscale>  4 0.70313152E+03</rscale>
<asrwt>0</asrwt>
<pdfrwt beam="1">  1        1 0.46438834E+00 0.70313152E+03</pdfrwt>
<pdfrwt beam="2">  1       -1 0.62994861E-02 0.70313152E+03</pdfrwt>
<totfact> 0.80215544E+01</totfact>
</mgrwt>
</event>
<event>
 5    0  0.5719562E-003  0.8460833E+03  0.7546771E-02  0.9495609E-01
          2   -1    0    0  502    0  0.00000000000E+00  0.00000000000E+00  0.11260125232E+04  0.11260125232E+04  0.00000000000E+00 0. -1.
         -2   -1    0    0    0  501 -0.00000000000E+00 -0.00000000000E+00 -0.15893627944E+03  0.15893627944E+03  0.00000000000E+00 0.  1.
         25    1    1    2    0    0 -0.88736034503E+02 -0.38855995688E+03  0.65048090298E+03  0.77304807681E+03  0.12500000000E+03 0.  0.
          3    1    1    2  502    0 -0.38495793486E+01  0.42967065180E+02  0.21901000933E+02  0.48380179756E+02  0.00000000000E+00 0.  1.
         -3    1    1    2    0  501  0.92585613851E+02  0.34559289170E+03  0.29469433984E+03  0.46352054606E+03  0.00000000000E+00 0. -1.
<mgrwt>
<rscale>  4 0.84608331E+03</rscale>
<asrwt>0</asrwt>
<pdfrwt beam="1">  1        2 0.17323269E+00 0.84608331E+03</pdfrwt>
<pdfrwt beam="2">  1       -2 0.24451736E-01 0.84608331E+03</pdfrwt>
<totfact> 0.31445907E+02</totfact>
</mgrwt>
</event>
<event>
 5    0  0.5719562E-003  0.6642660E+03  0.7546771E-02  0.9780372E-01
          2   -1    0    0  502    0  0.00000000000E+00  0.00000000000E+00  0.15546932833E+04  0.15546932833E+04  0.00000000000E+00 0.  1.
         -2   -1    0    0    0  501 -0.00000000000E+00 -0.00000000000E+00 -0.70954410751E+02  0.70954410751E+02  0.00000000000E+00 0. -1.
         25    1    1    2    0    0 -0.19823304969E+03 -0.47025795450E+02  0.24773362944E+03  0.34424514315E+03  0.12500000000E+03 0.  0.
          1    1    1    2  502    0  0.26494779042E+03  0.24813960858E+02  0.92287281378E+03  0.96047243309E+03  0.00000000000E+00 0.  1.
         -1    1    1    2    0  501 -0.66714740728E+02  0.22211834593E+02  0.31313242934E+03  0.32093011783E+03  0.00000000000E+00 0. -1.
<mgrwt>
<rscale>  4 0.66426605E+03</rscale>
<asrwt>0</asrwt>
<pdfrwt beam="1">  1        2 0.23918356E+00 0.66426605E+03</pdfrwt>
<pdfrwt beam="2">  1       -2 0.10916064E-01 0.66426605E+03</pdfrwt>
<totfact> 0.71580661E+02</totfact>
</mgrwt>
</event>
<event>
 5    0  0.5719562E-003  0.6353656E+03  0.7546771E-02  0.9834634E-01
         -1   -1    0    0    0  501 -0.00000000000E+00  0.00000000000E+00  0.63947122924E+02  0.63947122924E+02  0.00000000000E+00 0. -1.
          1   -1    0    0  502    0  0.00000000000E+00 -0.00000000000E+00 -0.15782156842E+04  0.15782156842E+04  0.00000000000E+00 0.  1.
         25    1    1    2    0    0 -0.19153827771E+03  0.16796108135E+03 -0.12060101715E+04  0.12389444582E+04  0.12500000000E+03 0.  0.
          2    1    1    2  502    0  0.13180550781E+03 -0.10193697983E+03 -0.23410448919E+03  0.28734778859E+03  0.00000000000E+00 0. -1.
         -2    1    1    2    0  501  0.59732769902E+02 -0.66024101519E+02 -0.74153900521E+02  0.11587056030E+03  0.00000000000E+00 0.  1.
<mgrwt>
<rscale>  4 0.63536557E+03</rscale>
<asrwt>0</asrwt>
<pdfrwt beam="1">  1        1 0.24280243E+00 0.63536557E+03</pdfrwt>
<pdfrwt beam="2">  1       -1 0.98380182E-02 0.63536557E+03</pdfrwt>
<totfact> 0.38409321E+02</totfact>
</mgrwt>
</event>
<event>
 5    0  0.5719562E-003  0.5194823E+03  0.7546771E-02  0.1008815E+00
          2   -1    0    0  502    0  0.00000000000E+00  0.00000000000E+00  0.48861027530E+03  0.48861027530E+03  0.00000000000E+00 0.  1.
         -2   -1    0    0    0  501 -0.00000000000E+00 -0.00000000000E+00 -0.13807621494E+03  0.13807621494E+03  0.00000000000E+00 0. -1.
         25    1    1    2    0    0 -0.18834448273E+03 -0.11532234981E+03  0.14425222454E+03  0.29190168349E+03  0.12500000000E+03 0.  0.
          1    1    1    2  502    0  0.14210974905E+03  0.14139445560E+03  0.12046431778E+03  0.23387865380E+03  0.00000000000E+00 0. -1.
         -1    1    1    2    0  501  0.46234733681E+02 -0.26072105784E+02  0.85817518050E+02  0.10090615295E+03  0.00000000000E+00 0.  1.
<mgrwt>
<rscale>  4 0.51948227E+03</rscale>
<asrwt>0</asrwt>
<pdfrwt beam="1">  1        2 0.75170811E-01 0.51948227E+03</pdfrwt>
<pdfrwt beam="2">  1       -2 0.21242495E-01 0.51948227E+03</pdfrwt>
<totfact> 0.12147811E+03</totfact>
</mgrwt>
</event>
<event>
 5    0  0.5719562E-003  0.7773797E+03  0.7546771E-02  0.9593349E-01
         -1   -1    0    0    0  501 -0.00000000000E+00  0.00000000000E+00  0.25193256846E+03  0.25193256846E+03  0.00000000000E+00 0. -1.
          1   -1    0    0  502    0  0.00000000000E+00 -0.00000000000E+00 -0.59968345939E+03  0.59968345939E+03  0.00000000000E+00 0.  1.
         25    1    1    2    0    0  0.17113100109E+03 -0.19467673457E+03  0.11807088873E+03  0.31104756113E+03  0.12500000000E+03 0.  0.
          4    1    1    2  502    0 -0.55177959133E+02  0.14715198607E+02 -0.13423629284E+03  0.14587846503E+03  0.00000000000E+00 0. -1.
         -4    1    1    2    0  501 -0.11595304196E+03  0.17996153596E+03 -0.33158548682E+03  0.39469000169E+03  0.00000000000E+00 0.  1.
<mgrwt>
<rscale>  4 0.77737969E+03</rscale>
<asrwt>0</asrwt>
<pdfrwt beam="1">  1        1 0.92258992E-01 0.77737969E+03</pdfrwt>
<pdfrwt beam="2">  1       -1 0.38758857E-01 0.77737969E+03</pdfrwt>
<totfact> 0.22360769E+02</totfact>
</mgrwt>
</event>
<event>
 5    0  0.6635680E-003  0.6387916E+03  0.7546771E-02  0.9828041E-01
         -1   -1    0    0    0  501 -0.00000000000E+00  0.00000000000E+00  0.56382109249E+03  0.56382109249E+03  0.00000000000E+00 0.  1.
          1   -1    0    0  502    0  0.00000000000E+00 -0.00000000000E+00 -0.18093272483E+03  0.18093272483E+03  0.00000000000E+00 0. -1.
         25    1    1    2    0    0 -0.19733225485E+03  0.47475198339E+02  0.20042587675E+03  0.31143128509E+03  0.12500000000E+03 0.  0.
          1    1    1    2  502    0  0.99700855143E+02 -0.42645940299E+02  0.27691759192E+03  0.29739248386E+03  0.00000000000E+00 0.  1.
         -1    1    1    2    0  501  0.97631399707E+02 -0.48292580400E+01 -0.94455101013E+02  0.13593004837E+03  0.00000000000E+00 0. -1.
<mgrwt>
<rscale>  4 0.63879163E+03</rscale>
<asrwt>0</asrwt>
<pdfrwt beam="1">  1        1 0.27835804E-01 0.63879163E+03</pdfrwt>
<pdfrwt beam="2">  1       -1 0.86741706E-01 0.63879163E+03</pdfrwt>
<totfact> 0.22571673E+02</totfact>
</mgrwt>
</event>
<event>
 5    0  0.5719562E-003  0.1096563E+04  0.7546771E-02  0.9208548E-01
          2   -1    0    0  502    0  0.00000000000E+00  0.00000000000E+00  0.13524457076E+04  0.13524457076E+04  0.00000000000E+00 0.  1.
         -2   -1    0    0    0  501 -0.00000000000E+00 -0.00000000000E+00 -0.22227333198E+03  0.22227333198E+03  0.00000000000E+00 0. -1.
         25    1    1    2    0    0  0.26595554870E+02 -0.25882719858E+03  0.12409568340E+04  0.12740870088E+04  0.12500000000E+03 0.  0.
          2    1    1    2  502    0  0.64017942186E+01  0.20214699267E+03 -0.43901819834E+02  0.20695835185E+03  0.00000000000E+00 0.  1.
         -2    1    1    2    0  501 -0.32997349088E+02  0.56680205904E+02 -0.66882638511E+02  0.93673678919E+02  0.00000000000E+00 0. -1.
<mgrwt>
<rscale>  4 0.10965630E+04</rscale>
<asrwt>0</asrwt>
<pdfrwt beam="1">  1        2 0.20806857E+00 0.10965630E+04</pdfrwt>
<pdfrwt beam="2">  1       -2 0.34195898E-01 0.10965630E+04</pdfrwt>
<totfact> 0.12245686E+02</totfact>
</mgrwt>
</event>
<event>
 5    0  0.5719562E-003  0.9395097E+03  0.7546771E-02  0.9377497E-01
         -3   -1    0    0    0  501 -0.00000000000E+00  0.00000000000E+00  0.39244157615E+03  0.39244157615E+03  0.00000000000E+00 0. -1.
          3   -1    0    0  502    0  0.00000000000E+00 -0.00000000000E+00 -0.56229931776E+03  0.56229931776E+03  0.00000000000E+00 0.  1.
         25    1    1    2    0    0 -0.31236774760E+03  0.14250138415E+03 -0.27719608465E+03  0.45863157716E+03  0.12500000000E+03 0.  0.
          3    1    1    2  502    0  0.96102765698E+02 -0.11999354335E+03 -0.10972409229E+03  0.18887447802E+03  0.00000000000E+00 0.  1.
         -3    1    1    2    0  501  0.21626498190E+03 -0.22507840806E+02  0.21706243534E+03  0.30723483873E+03  0.00000000000E+00 0. -1.
<mgrwt>
<rscale>  4 0.93950972E+03</rscale>
<asrwt>0</asrwt>
<pdfrwt beam="1">  1        3 0.86507587E-01 0.93950972E+03</pdfrwt>
<pdfrwt beam="2">  1       -3 0.60375627E-01 0.93950972E+03</pdfrwt>
<totfact> 0.85826948E+00</totfact>
</mgrwt>
</event>
<event>
 5    0  0.5719562E-003  0.6263697E+03  0.7546771E-02  0.9852159E-01
         -1   -1    0    0    0  501 -0.00000000000E+00  0.00000000000E+00  0.10521310292E+03  0.10521310292E+03  0.00000000000E+00 0.  1.
          1   -1    0    0  502    0  0.00000000000E+00 -0.00000000000E+00 -0.93224840862E+03  0.93224840862E+03  0.00000000000E+00 0. -1.
         25    1    1    2    0    0  0.94090679149E+02  0.22031952061E+03 -0.28671972274E+03  0.39398851059E+03  0.12500000000E+03 0.  0.
          4    1    1    2  502    0 -0.12651767303E+03 -0.25739173119E+03 -0.51147004788E+03  0.58639477722E+03  0.00000000000E+00 0. -1.
         -4    1    1    2    0  501  0.32426993878E+02  0.37072210587E+02 -0.28845535082E+02  0.57078223728E+02  0.00000000000E+00 0.  1.
<mgrwt>
<rscale>  4 0.62636969E+03</rscale>
<asrwt>0</asrwt>
<pdfrwt beam="1">  1        1 0.14342284E+00 0.62636969E+03</pdfrwt>
<pdfrwt beam="2">  1       -1 0.16186631E-01 0.62636969E+03</pdfrwt>
<totfact> 0.50395898E+02</totfact>
</mgrwt>
</event>
<event>
 5    0  0.5719562E-003  0.5339769E+03  0.7546771E-02  0.1005272E+00
          2   -1    0    0  502    0  0.00000000000E+00  0.00000000000E+00  0.44529949843E+03  0.44529949843E+03  0.00000000000E+00 0.  1.
         -2   -1    0    0    0  501 -0.00000000000E+00 -0.00000000000E+00 -0.16007837599E+03  0.16007837599E+03  0.00000000000E+00 0. -1.
         25    1    1    2    0    0 -0.11419565452E+03  0.21096028420E+03  0.13341429379E+03  0.30161111188E+03  0.12500000000E+03 0.  0.
          1    1    1    2  502    0  0.21910399505E+02 -0.37744415803E+01  0.50859983911E+02  0.55507206551E+02  0.00000000000E+00 0.  1.
         -1    1    1    2    0  501  0.92285255017E+02 -0.20718584262E+03  0.10094684473E+03  0.24825955599E+03  0.00000000000E+00 0. -1.
<mgrwt>
<rscale>  4 0.53397686E+03</rscale>
<asrwt>0</asrwt>
<pdfrwt beam="1">  1        2 0.68507615E-01 0.53397686E+03</pdfrwt>
<pdfrwt beam="2">  1       -2 0.24627443E-01 0.53397686E+03</pdfrwt>
<totfact> 0.10389756E+03</totfact>
</mgrwt>
</event>
<event>
 5    0  0.5719562E-003  0.8297572E+03  0.7546771E-02  0.9517916E-01
         -2   -1    0    0    0  501 -0.00000000000E+00  0.00000000000E+00  0.29966599385E+03  0.29966599385E+03  0.00000000000E+00 0. -1.
          2   -1    0    0  502    0  0.00000000000E+00 -0.00000000000E+00 -0.57438703555E+03  0.57438703555E+03  0.00000000000E+00 0.  1.
         25    1    1    2    0    0 -0.22181669125E+03 -0.47933217892E+02  0.48415959743E+02  0.26357037590E+03  0.12500000000E+03 0.  0.
          2    1    1    2  502    0  0.36820664841E+02  0.17110971099E+03  0.44764222121E+02  0.18066026165E+03  0.00000000000E+00 0. -1.
         -2    1    1    2    0  501  0.18499602641E+03 -0.12317649310E+03 -0.36790122356E+03  0.42982239185E+03  0.00000000000E+00 0.  1.
<mgrwt>
<rscale>  4 0.82975722E+03</rscale>
<asrwt>0</asrwt>
<pdfrwt beam="1">  1        2 0.88367235E-01 0.82975722E+03</pdfrwt>
<pdfrwt beam="2">  1       -2 0.46102461E-01 0.82975722E+03</pdfrwt>
<totfact> 0.23453900E+02</totfact>
</mgrwt>
</event>
<event>
 5    0  0.5719562E-003  0.6920953E+03  0.7546771E-02  0.9730847E-01
         -1   -1    0    0    0  501 -0.00000000000E+00  0.00000000000E+00  0.22016754667E+03  0.22016754667E+03  0.00000000000E+00 0.  1.
          1   -1    0    0  502    0  0.00000000000E+00 -0.00000000000E+00 -0.54389935527E+03  0.54389935527E+03  0.00000000000E+00 0. -1.
         25    1    1    2    0    0 -0.88468272242E+02 -0.21703953429E+03  0.78766426208E+02  0.27705946029E+03  0.12500000000E+03 0.  0.
          3    1    1    2  502    0  0.20970680715E+02  0.65013115845E+01 -0.14912838805E+03  0.15073590357E+03  0.00000000000E+00 0. -1.
         -3    1    1    2    0  501  0.67497591527E+02  0.21053822270E+03 -0.25336984676E+03  0.33627153809E+03  0.00000000000E+00 0.  1.
<mgrwt>
<rscale>  4 0.69209533E+03</rscale>
<asrwt>0</asrwt>
<pdfrwt beam="1">  1        1 0.83676824E-01 0.69209533E+03</pdfrwt>
<pdfrwt beam="2">  1       -1 0.33871930E-01 0.69209533E+03</pdfrwt>
<totfact> 0.32813296E+02</totfact>
</mgrwt>
</event>
<event>
 5    0  0.5719562E-003  0.8379788E+03  0.7546771E-02  0.9506615E-01
          1   -1    0    0  502    0  0.00000000000E+00  0.00000000000E+00  0.17623935744E+04  0.17623935744E+04  0.00000000000E+00 0. -1.
         -1   -1    0    0    0  501 -0.00000000000E+00 -0.00000000000E+00 -0.99610057583E+02  0.99610057583E+02  0.00000000000E+00 0.  1.
         25    1    1    2    0    0  0.17183943333E+03 -0.15923145078E+03  0.34683127570E+03  0.43680702784E+03  0.12500000000E+03 0.  0.
          2    1    1    2  502    0 -0.24590384698E+03  0.83202828367E+02  0.27250442133E+03  0.37636428132E+03  0.00000000000E+00 0.  1.
         -2    1    1    2    0  501  0.74064413644E+02  0.76028622410E+02  0.10434478198E+04  0.10488323228E+04  0.00000000000E+00 0. -1.
<mgrwt>
<rscale>  4 0.83797882E+03</rscale>
<asrwt>0</asrwt>
<pdfrwt beam="1">  1        1 0.27113745E+00 0.83797882E+03</pdfrwt>
<pdfrwt beam="2">  1       -1 0.15324626E-01 0.83797882E+03</pdfrwt>
<totfact> 0.13961251E+02</totfact>
</mgrwt>
</event>
<event>
 5    0  0.5719562E-003  0.4910127E+03  0.7546771E-02  0.1016152E+00
         -1   -1    0    0    0  501 -0.00000000000E+00  0.00000000000E+00  0.29688895902E+03  0.29688895902E+03  0.00000000000E+00 0. -1.
          1   -1    0    0  502    0  0.00000000000E+00 -0.00000000000E+00 -0.20301652194E+03  0.20301652194E+03  0.00000000000E+00 0.  1.
         25    1    1    2    0    0  0.11091235511E+03 -0.16727330921E+03 -0.39185739793E+02  0.23967150998E+03  0.12500000000E+03 0.  0.
          2    1    1    2  502    0  0.74547629081E+01  0.49437170478E+02  0.59542930957E+02  0.77749391907E+02  0.00000000000E+00 0. -1.
         -2    1    1    2    0  501 -0.11836711802E+03  0.11783613873E+03  0.73515245910E+02  0.18248457908E+03  0.00000000000E+00 0.  1.
<mgrwt>
<rscale>  4 0.49101268E+03</rscale>
<asrwt>0</asrwt>
<pdfrwt beam="1">  1        1 0.31233311E-01 0.49101268E+03</pdfrwt>
<pdfrwt beam="2">  1       -1 0.45675225E-01 0.49101268E+03</pdfrwt>
<totfact> 0.69990107E+02</totfact>
</mgrwt>
</event>
<event>
 5    0  0.5719562E-003  0.6559665E+03  0.7546771E-02  0.9795647E-01
          2   -1    0    0  502    0  0.00000000000E+00  0.00000000000E+00  0.22028717196E+03  0.22028717196E+03  0.00000000000E+00 0. -1.
         -2   -1    0    0    0  501 -0.00000000000E+00 -0.00000000000E+00 -0.48833082098E+03  0.48833082098E+03  0.00000000000E+00 0.  1.
         25    1    1    2    0    0 -0.14602135980E+03  0.26179493389E+03 -0.15998407143E+03  0.36204796372E+03  0.12500000000E+03 0.  0.
          2    1    1    2  502    0  0.97190481618E+01 -0.84103149625E+02  0.22159256630E+02  0.87514754918E+02  0.00000000000E+00 0. -1.
         -2    1    1    2    0  501  0.13630231164E+03 -0.17769178426E+03 -0.13021883422E+03  0.25905527429E+03  0.00000000000E+00 0.  1.
<mgrwt>
<rscale>  4 0.65596651E+03</rscale>
<asrwt>0</asrwt>
<pdfrwt beam="1">  1        2 0.33890334E-01 0.65596651E+03</pdfrwt>
<pdfrwt beam="2">  1       -2 0.75127818E-01 0.65596651E+03</pdfrwt>
<totfact> 0.24930007E+02</totfact>
</mgrwt>
</event>
<event>
 5    0  0.5719562E-003  0.1128278E+04  0.7546771E-02  0.9178061E-01
         -1   -1    0    0    0  501 -0.00000000000E+00  0.00000000000E+00  0.22971483328E+03  0.22971483328E+03  0.00000000000E+00 0.  1.
          1   -1    0    0  502    0  0.00000000000E+00 -0.00000000000E+00 -0.13854246633E+04  0.13854246633E+04  0.00000000000E+00 0. -1.
         25    1    1    2    0    0  0.20752695603E+03 -0.31127956182E+03 -0.49036053984E+01  0.39447616966E+03  0.12500000000E+03 0.  0.
          3    1    1    2  502    0 -0.12581423052E+03  0.89486251434E+02 -0.29686218302E+03  0.33461046831E+03  0.00000000000E+00 0.  1.
         -3    1    1    2    0  501 -0.81712725505E+02  0.22179331038E+03 -0.85394404157E+03  0.88605285857E+03  0.00000000000E+00 0. -1.
<mgrwt>
<rscale>  4 0.11282776E+04</rscale>
<asrwt>0</asrwt>
<pdfrwt beam="1">  1        1 0.21314226E+00 0.11282776E+04</pdfrwt>
<pdfrwt beam="2">  1       -1 0.35340743E-01 0.11282776E+04</pdfrwt>
<totfact> 0.59636883E+01</totfact>
</mgrwt>
</event>
<event>
 5    0  0.5719562E-003  0.6065213E+03  0.7546771E-02  0.9891968E-01
         -1   -1    0    0    0  501 -0.00000000000E+00  0.00000000000E+00  0.30181571006E+02  0.30181571006E+02  0.00000000000E+00 0.  1.
          1   -1    0    0  502    0  0.00000000000E+00 -0.00000000000E+00 -0.30471249990E+04  0.30471249990E+04  0.00000000000E+00 0. -1.
         25    1    1    2    0    0  0.23085216102E+03  0.86407555332E+02 -0.17168856380E+04  0.17389882920E+04  0.12500000000E+03 0.  0.
          1    1    1    2  502    0 -0.16660713723E+03 -0.45394995978E+02 -0.12008990378E+04  0.12132506513E+04  0.00000000000E+00 0. -1.
         -1    1    1    2    0  501 -0.64245023788E+02 -0.41012559354E+02 -0.99158752120E+02  0.12506762662E+03  0.00000000000E+00 0.  1.
<mgrwt>
<rscale>  4 0.60652129E+03</rscale>
<asrwt>0</asrwt>
<pdfrwt beam="1">  1        1 0.46878846E+00 0.60652129E+03</pdfrwt>
<pdfrwt beam="2">  1       -1 0.46433187E-02 0.60652129E+03</pdfrwt>
<totfact> 0.12376247E+02</totfact>
</mgrwt>
</event>
<event>
 5    0  0.5719562E-003  0.4837000E+03  0.7546771E-02  0.1018123E+00
         -2   -1    0    0    0  501 -0.00000000000E+00  0.00000000000E+00  0.38597487890E+02  0.38597487890E+02  0.00000000000E+00 0.  1.
          2   -1    0    0  502    0  0.00000000000E+00 -0.00000000000E+00 -0.15154202407E+04  0.15154202407E+04  0.00000000000E+00 0. -1.
         25    1    1    2    0    0 -0.20985543549E+03  0.42351896525E+02 -0.94606335221E+03  0.97800503748E+03  0.12500000000E+03 0.  0.
          2    1    1    2  502    0  0.12601219286E+03 -0.67065504546E+01 -0.37383373120E+03  0.39455761196E+03  0.00000000000E+00 0. -1.
         -2    1    1    2    0  501  0.83843242636E+02 -0.35645346071E+02 -0.15692566936E+03  0.18145507911E+03  0.00000000000E+00 0.  1.
<mgrwt>
<rscale>  4 0.48369997E+03</rscale>
<asrwt>0</asrwt>
<pdfrwt beam="1">  1        2 0.23314160E+00 0.48369997E+03</pdfrwt>
<pdfrwt beam="2">  1       -2 0.59380744E-02 0.48369997E+03</pdfrwt>
<totfact> 0.20020234E+03</totfact>
</mgrwt>
</event>
<event>
 5    0  0.5719562E-003  0.7504505E+03  0.7546771E-02  0.9634644E-01
         -2   -1    0    0    0  501 -0.00000000000E+00  0.00000000000E+00  0.20998460974E+03  0.20998460974E+03  0.00000000000E+00 0. -1.
          2   -1    0    0  502    0  0.00000000000E+00 -0.00000000000E+00 -0.67049676636E+03  0.67049676636E+03  0.00000000000E+00 0.  1.
         25    1    1    2    0    0 -0.12022007301E+03 -0.22041159273E+03 -0.53550948104E+03  0.60450768436E+03  0.12500000000E+03 0.  0.
          3    1    1    2  502    0  0.83831987229E+02  0.21237308099E+03  0.64860688060E+02  0.23735424258E+03  0.00000000000E+00 0. -1.
         -3    1    1    2    0  501  0.36388085782E+02  0.80385117399E+01  0.10136636358E+02  0.38619449174E+02  0.00000000000E+00 0.  1.
<mgrwt>
<rscale>  4 0.75045054E+03</rscale>
<asrwt>0</asrwt>
<pdfrwt beam="1">  1        2 0.10315335E+00 0.75045054E+03</pdfrwt>
<pdfrwt beam="2">  1       -2 0.32305325E-01 0.75045054E+03</pdfrwt>
<totfact> 0.38820703E+02</totfact>
</mgrwt>
</event>
<event>
 5    0  0.5719562E-003  0.9256997E+03  0.7546771E-02  0.9394014E-01
         -2   -1    0    0    0  501 -0.00000000000E+00  0.00000000000E+00  0.13786110936E+03  0.13786110936E+03  0.00000000000E+00 0.  1.
          2   -1    0    0  502    0  0.00000000000E+00 -0.00000000000E+00 -0.15539551079E+04  0.15539551079E+04  0.00000000000E+00 0. -1.
         25    1    1    2    0    0  0.26356136103E+03  0.25420493028E+03 -0.86028382534E+03  0.94329104615E+03  0.12500000000E+03 0.  0.
          3    1    1    2  502    0  0.49262363960E+02  0.29966031574E+02 -0.15773237172E+03  0.16794119400E+03  0.00000000000E+00 0. -1.
         -3    1    1    2    0  501 -0.31282372499E+03 -0.28417096185E+03 -0.39807780151E+03  0.58058397716E+03  0.00000000000E+00 0.  1.
<mgrwt>
<rscale>  4 0.92569968E+03</rscale>
<asrwt>0</asrwt>
<pdfrwt beam="1">  1        2 0.23907002E+00 0.92569968E+03</pdfrwt>
<pdfrwt beam="2">  1       -2 0.21209401E-01 0.92569968E+03</pdfrwt>
<totfact> 0.22846449E+02</totfact>
</mgrwt>
</event>
<event>
 5    0  0.5719562E-003  0.6795703E+03  0.7546771E-02  0.9752822E-01
         -2   -1    0    0    0  501 -0.00000000000E+00  0.00000000000E+00  0.10873763669E+03  0.10873763669E+03  0.00000000000E+00 0.  1.
          2   -1    0    0  502    0  0.00000000000E+00 -0.00000000000E+00 -0.10617661332E+04  0.10617661332E+04  0.00000000000E+00 0. -1.
         25    1    1    2    0    0  0.27685483582E+02 -0.29416132951E+03 -0.54040320701E+03  0.62845684015E+03  0.12500000000E+03 0.  0.
          1    1    1    2  502    0  0.41824745382E+02  0.79033506313E+02 -0.24227276777E+02  0.92642136128E+02  0.00000000000E+00 0.  1.
         -1    1    1    2    0  501 -0.69510228964E+02  0.21512782320E+03 -0.38839801271E+03  0.44940479361E+03  0.00000000000E+00 0. -1.
<mgrwt>
<rscale>  4 0.67957028E+03</rscale>
<asrwt>0</asrwt>
<pdfrwt beam="1">  1        2 0.16334864E+00 0.67957028E+03</pdfrwt>
<pdfrwt beam="2">  1       -2 0.16728866E-01 0.67957028E+03</pdfrwt>
<totfact> 0.67487820E+02</totfact>
</mgrwt>
</event>
<event>
 5    0  0.5719562E-003  0.6286562E+03  0.7546771E-02  0.9847675E-01
         -2   -1    0    0    0  501 -0.00000000000E+00  0.00000000000E+00  0.50007886731E+02  0.50007886731E+02  0.00000000000E+00 0. -1.
          2   -1    0    0  502    0  0.00000000000E+00 -0.00000000000E+00 -0.19757314547E+04  0.19757314547E+04  0.00000000000E+00 0.  1.
         25    1    1    2    0    0 -0.16820374972E+03 -0.20765690515E+03 -0.64261259750E+03  0.70709959846E+03  0.12500000000E+03 0.  0.
          2    1    1    2  502    0  0.19315513312E+03  0.16582343291E+03 -0.10407193551E+04  0.10714023952E+04  0.00000000000E+00 0. -1.
         -2    1    1    2    0  501 -0.24951383402E+02  0.41833472240E+02 -0.24239161535E+03  0.24723734776E+03  0.00000000000E+00 0.  1.
<mgrwt>
<rscale>  4 0.62865620E+03</rscale>
<asrwt>0</asrwt>
<pdfrwt beam="1">  1        2 0.30395861E+00 0.62865620E+03</pdfrwt>
<pdfrwt beam="2">  1       -2 0.76935230E-02 0.62865620E+03</pdfrwt>
<totfact> 0.74418733E+02</totfact>
</mgrwt>
</event>
<event>
 5    0  0.5719562E-003  0.7024741E+03  0.7546771E-02  0.9713010E-01
          2   -1    0    0  502    0  0.00000000000E+00  0.00000000000E+00  0.74323044318E+03  0.74323044318E+03  0.00000000000E+00 0. -1.
         -2   -1    0    0    0  501 -0.00000000000E+00 -0.00000000000E+00 -0.16598819445E+03  0.16598819445E+03  0.00000000000E+00 0.  1.
         25    1    1    2    0    0 -0.24437577727E+03  0.13585947684E+03  0.41221508492E+03  0.51354025567E+03  0.12500000000E+03 0.  0.
          1    1    1    2  502    0  0.13693201289E+03 -0.23699948377E+02  0.19303545292E+03  0.23785447188E+03  0.00000000000E+00 0. -1.
         -1    1    1    2    0  501  0.10744376438E+03 -0.11215952847E+03 -0.28008289112E+02  0.15782391007E+03  0.00000000000E+00 0.  1.
<mgrwt>
<rscale>  4 0.70247414E+03</rscale>
<asrwt>0</asrwt>
<pdfrwt beam="1">  1        2 0.11434314E+00 0.70247414E+03</pdfrwt>
<pdfrwt beam="2">  1       -2 0.25536646E-01 0.70247414E+03</pdfrwt>
<totfact> 0.52637867E+02</totfact>
</mgrwt>
</event>
<event>
 5    0  0.5719562E-003  0.9293707E+03  0.7546771E-02  0.9389593E-01
          2   -1    0    0  502    0  0.00000000000E+00  0.00000000000E+00  0.24428923007E+04  0.24428923007E+04  0.00000000000E+00 0. -1.
         -2   -1    0    0    0  501 -0.00000000000E+00 -0.00000000000E+00 -0.88392134475E+02  0.88392134475E+02  0.00000000000E+00 0.  1.
         25    1    1    2    0    0  0.32761744923E+03  0.21032665437E+03  0.57540416024E+03  0.70589336461E+03  0.12500000000E+03 0.  0.
          1    1    1    2  502    0 -0.81872199795E+02 -0.27240130559E+01  0.25974497315E+03  0.27235625277E+03  0.00000000000E+00 0.  1.
         -1    1    1    2    0  501 -0.24574524944E+03 -0.20760264131E+03  0.15193510328E+04  0.15530348178E+04  0.00000000000E+00 0. -1.
<mgrwt>
<rscale>  4 0.92937068E+03</rscale>
<asrwt>0</asrwt>
<pdfrwt beam="1">  1        2 0.37582953E+00 0.92937068E+03</pdfrwt>
<pdfrwt beam="2">  1       -2 0.13598792E-01 0.92937068E+03</pdfrwt>
<totfact> 0.15813685E+02</totfact>
</mgrwt>
</event>
<event>
 5    0  0.5719562E-003  0.5441505E+03  0.7546771E-02  0.1002857E+00
         -1   -1    0    0    0  501 -0.00000000000E+00  0.00000000000E+00  0.88575961055E+02  0.88575961055E+02  0.00000000000E+00 0.  1.
          1   -1    0    0  502    0  0.00000000000E+00 -0.00000000000E+00 -0.83572264965E+03  0.83572264965E+03  0.00000000000E+00 0. -1.
         25    1    1    2    0    0  0.59787700805E+02 -0.24214946965E+03 -0.36753066724E+03  0.46142683730E+03  0.12500000000E+03 0.  0.
          1    1    1    2  502    0 -0.29862450187E+02  0.16710385122E+03 -0.32078199149E+03  0.36292774637E+03  0.00000000000E+00 0. -1.
         -1    1    1    2    0  501 -0.29925250618E+02  0.75045618427E+02 -0.58834029863E+02  0.99944027033E+02  0.00000000000E+00 0.  1.
<mgrwt>
<rscale>  4 0.54415048E+03</rscale>
<asrwt>0</asrwt>
<pdfrwt beam="1">  1        1 0.12857272E+00 0.54415048E+03</pdfrwt>
<pdfrwt beam="2">  1       -1 0.13627071E-01 0.54415048E+03</pdfrwt>
<totfact> 0.80062550E+02</totfact>
</mgrwt>
</event>
<event>
 5    0  0.5719562E-003  0.4807149E+03  0.7546771E-02  0.1018939E+00
         -2   -1    0    0    0  501 -0.00000000000E+00  0.00000000000E+00  0.18266299010E+02  0.18266299010E+02  0.00000000000E+00 0. -1.
          2   -1    0    0  502    0  0.00000000000E+00 -0.00000000000E+00 -0.31627482675E+04  0.31627482675E+04  0.00000000000E+00 0.  1.
         25    1    1    2    0    0  0.13296106015E+03 -0.17540766172E+03 -0.15736929288E+04  0.15939199872E+04  0.12500000000E+03 0.  0.
          2    1    1    2  502    0 -0.97163247599E+02  0.10524634989E+03 -0.84628423601E+03  0.85832074364E+03  0.00000000000E+00 0. -1.
         -2    1    1    2    0  501 -0.35797812547E+02  0.70161311823E+02 -0.72450480364E+03  0.72877383567E+03  0.00000000000E+00 0.  1.
<mgrwt>
<rscale>  4 0.48071491E+03</rscale>
<asrwt>0</asrwt>
<pdfrwt beam="1">  1        2 0.48657664E+00 0.48071491E+03</pdfrwt>
<pdfrwt beam="2">  1       -2 0.28101999E-02 0.48071491E+03</pdfrwt>
<totfact> 0.74996599E+02</totfact>
</mgrwt>
</event>
<event>
 5    0  0.5719562E-003  0.7539375E+03  0.7546771E-02  0.9629193E-01
         -2   -1    0    0    0  501 -0.00000000000E+00  0.00000000000E+00  0.14596687882E+04  0.14596687882E+04  0.00000000000E+00 0.  1.
          2   -1    0    0  502    0  0.00000000000E+00 -0.00000000000E+00 -0.97354581631E+02  0.97354581631E+02  0.00000000000E+00 0. -1.
         25    1    1    2    0    0  0.26314468738E+03 -0.24811024575E+03  0.60405952686E+03  0.71506414574E+03  0.12500000000E+03 0.  0.
          3    1    1    2  502    0 -0.22911935307E+03  0.22084960215E+03  0.70220757782E+03  0.77095117035E+03  0.00000000000E+00 0.  1.
         -3    1    1    2    0  501 -0.34025334311E+02  0.27260643593E+02  0.56047101892E+02  0.71008053730E+02  0.00000000000E+00 0. -1.
<mgrwt>
<rscale>  4 0.75393752E+03</rscale>
<asrwt>0</asrwt>
<pdfrwt beam="1">  1        2 0.14977629E-01 0.75393752E+03</pdfrwt>
<pdfrwt beam="2">  1       -2 0.22456441E+00 0.75393752E+03</pdfrwt>
<totfact> 0.37958492E+01</totfact>
</mgrwt>
</event>
<event>
 5    0  0.5719562E-003  0.7133775E+03  0.7546771E-02  0.9694624E-01
         -2   -1    0    0    0  501 -0.00000000000E+00  0.00000000000E+00  0.59796826397E+02  0.59796826397E+02  0.00000000000E+00 0.  1.
          2   -1    0    0  502    0  0.00000000000E+00 -0.00000000000E+00 -0.21276525766E+04  0.21276525766E+04  0.00000000000E+00 0. -1.
         25    1    1    2    0    0  0.22975427352E+02  0.23249016859E+03 -0.17829680803E+04  0.18025481198E+04  0.12500000000E+03 0.  0.
          1    1    1    2  502    0 -0.27543624247E+02 -0.65858288345E+02 -0.16437376590E+03  0.17920574851E+03  0.00000000000E+00 0. -1.
         -1    1    1    2    0  501  0.45681968947E+01 -0.16663188025E+03 -0.12051390397E+03  0.20569553468E+03  0.00000000000E+00 0.  1.
<mgrwt>
<rscale>  4 0.71337752E+03</rscale>
<asrwt>0</asrwt>
<pdfrwt beam="1">  1        2 0.32733112E+00 0.71337752E+03</pdfrwt>
<pdfrwt beam="2">  1       -2 0.91995131E-02 0.71337752E+03</pdfrwt>
<totfact> 0.45890188E+02</totfact>
</mgrwt>
</event>
<event>
 5    0  0.5719562E-003  0.8177071E+03  0.7546771E-02  0.9534735E-01
         -1   -1    0    0    0  501 -0.00000000000E+00  0.00000000000E+00  0.63485980141E+03  0.63485980141E+03  0.00000000000E+00 0. -1.
          1   -1    0    0  502    0  0.00000000000E+00 -0.00000000000E+00 -0.26330418426E+03  0.26330418426E+03  0.00000000000E+00 0.  1.
         25    1    1    2    0    0  0.22457605828E+03 -0.65061363144E+02  0.10078341855E+03  0.28363653569E+03  0.12500000000E+03 0.  0.
          3    1    1    2  502    0 -0.23435885904E+02 -0.78077845858E+02 -0.12431051783E+03  0.14865562756E+03  0.00000000000E+00 0.  1.
         -3    1    1    2    0  501 -0.20114017237E+03  0.14313920900E+03  0.39508271644E+03  0.46587182242E+03  0.00000000000E+00 0. -1.
<mgrwt>
<rscale>  4 0.81770714E+03</rscale>
<asrwt>0</asrwt>
<pdfrwt beam="1">  1        1 0.40508336E-01 0.81770714E+03</pdfrwt>
<pdfrwt beam="2">  1       -1 0.97670739E-01 0.81770714E+03</pdfrwt>
<totfact> 0.10579642E+02</totfact>
</mgrwt>
</event>
<event>
 5    0  0.5719562E-003  0.6693863E+03  0.7546771E-02  0.9771067E-01
         -1   -1    0    0    0  501 -0.00000000000E+00  0.00000000000E+00  0.29710633931E+03  0.29710633931E+03  0.00000000000E+00 0.  1.
          1   -1    0    0  502    0  0.00000000000E+00 -0.00000000000E+00 -0.37703503379E+03  0.37703503379E+03  0.00000000000E+00 0. -1.
         25    1    1    2    0    0 -0.18111298417E+03 -0.15403048489E+03 -0.10207267988E+03  0.28735193629E+03  0.12500000000E+03 0.  0.
          2    1    1    2  502    0  0.21395815406E+02 -0.65780210167E+02 -0.71414848828E+02  0.99422822327E+02  0.00000000000E+00 0. -1.
         -2    1    1    2    0  501  0.15971716877E+03  0.21981069505E+03  0.93558834230E+02  0.28736661449E+03  0.00000000000E+00 0.  1.
<mgrwt>
<rscale>  4 0.66938628E+03</rscale>
<asrwt>0</asrwt>
<pdfrwt beam="1">  1        1 0.58005390E-01 0.66938628E+03</pdfrwt>
<pdfrwt beam="2">  1       -1 0.45708668E-01 0.66938628E+03</pdfrwt>
<totfact> 0.31284947E+02</totfact>
</mgrwt>
</event>
<event>
 5    0  0.5719562E-003  0.5373573E+03  0.7546771E-02  0.1004463E+00
         -2   -1    0    0    0  501 -0.00000000000E+00  0.00000000000E+00  0.38601733429E+03  0.38601733429E+03  0.00000000000E+00 0.  1.
          2   -1    0    0  502    0  0.00000000000E+00 -0.00000000000E+00 -0.18700769379E+03  0.18700769379E+03  0.00000000000E+00 0. -1.
         25    1    1    2    0    0  0.85842843789E+01  0.21573024035E+03  0.42592971346E+01  0.24951226052E+03  0.12500000000E+03 0.  0.
          3    1    1    2  502    0 -0.57162294551E+02 -0.11555180177E+03  0.16284235636E+03  0.20769540158E+03  0.00000000000E+00 0.  1.
         -3    1    1    2    0  501  0.48578010172E+02 -0.10017843858E+03  0.31907987001E+02  0.11581736598E+03  0.00000000000E+00 0. -1.
<mgrwt>
<rscale>  4 0.53735728E+03</rscale>
<asrwt>0</asrwt>
<pdfrwt beam="1">  1        2 0.28770414E-01 0.53735728E+03</pdfrwt>
<pdfrwt beam="2">  1       -2 0.59387282E-01 0.53735728E+03</pdfrwt>
<totfact> 0.49814670E+02</totfact>
</mgrwt>
</event>
<event>
 5    0  0.5719562E-003  0.6957008E+03  0.7546771E-02  0.9724613E-01
          1   -1    0    0  502    0  0.00000000000E+00  0.00000000000E+00  0.17107820809E+04  0.17107820809E+04  0.00000000000E+00 0.  1.
         -1   -1    0    0    0  501 -0.00000000000E+00 -0.00000000000E+00 -0.70727838006E+02  0.70727838006E+02  0.00000000000E+00 0. -1.
         25    1    1    2    0    0  0.47697084364E+02 -0.24600147633E+03  0.94168892028E+03  0.98244326085E+03  0.12500000000E+03 0.  0.
          3    1    1    2  502    0 -0.21990327539E+02  0.22331963432E+03  0.20324307864E+03  0.30275895130E+03  0.00000000000E+00 0. -1.
         -3    1    1    2    0  501 -0.25706756825E+02  0.22681842007E+02  0.49512224401E+03  0.49630770679E+03  0.00000000000E+00 0.  1.
<mgrwt>
<rscale>  4 0.69570085E+03</rscale>
<asrwt>0</asrwt>
<pdfrwt beam="1">  1        1 0.26319721E+00 0.69570085E+03</pdfrwt>
<pdfrwt beam="2">  1       -1 0.10881207E-01 0.69570085E+03</pdfrwt>
<totfact> 0.26541133E+02</totfact>
</mgrwt>
</event>
<event>
 5    0  0.5719562E-003  0.1236901E+04  0.7546771E-02  0.9081156E-01
         -2   -1    0    0    0  501 -0.00000000000E+00  0.00000000000E+00  0.48604268373E+03  0.48604268373E+03  0.00000000000E+00 0. -1.
          2   -1    0    0  502    0  0.00000000000E+00 -0.00000000000E+00 -0.78692893023E+03  0.78692893023E+03  0.00000000000E+00 0.  1.
         25    1    1    2    0    0  0.39643283574E+03  0.27010735617E+03  0.22427253327E+03  0.54409571427E+03  0.12500000000E+03 0.  0.
          4    1    1    2  502    0 -0.66745271470E+02 -0.10350633942E+03 -0.20933346730E+03  0.24287649968E+03  0.00000000000E+00 0. -1.
         -4    1    1    2    0  501 -0.32968756427E+03 -0.16660101675E+03 -0.31582531247E+03  0.48599940001E+03  0.00000000000E+00 0.  1.
<mgrwt>
<rscale>  4 0.12369010E+04</rscale>
<asrwt>0</asrwt>
<pdfrwt beam="1">  1        2 0.12106599E+00 0.12369010E+04</pdfrwt>
<pdfrwt beam="2">  1       -2 0.74775798E-01 0.12369010E+04</pdfrwt>
<totfact> 0.55736205E+01</totfact>
</mgrwt>
</event>
<event>
 5    0  0.5719562E-003  0.6073718E+03  0.7546771E-02  0.9890229E-01
         -1   -1    0    0    0  501 -0.00000000000E+00  0.00000000000E+00  0.25483034655E+03  0.25483034655E+03  0.00000000000E+00 0.  1.
          1   -1    0    0  502    0  0.00000000000E+00 -0.00000000000E+00 -0.36190792552E+03  0.36190792552E+03  0.00000000000E+00 0. -1.
         25    1    1    2    0    0  0.17988228059E+03 -0.10333401239E+03 -0.11736386735E+03  0.26913719614E+03  0.12500000000E+03 0.  0.
          4    1    1    2  502    0 -0.58449562497E+02  0.94407732918E+02  0.13399517931E+03  0.17402264068E+03  0.00000000000E+00 0.  1.
         -4    1    1    2    0  501 -0.12143271810E+03  0.89262794752E+01 -0.12370889093E+03  0.17357843525E+03  0.00000000000E+00 0. -1.
<mgrwt>
<rscale>  4 0.60737179E+03</rscale>
<asrwt>0</asrwt>
<pdfrwt beam="1">  1        1 0.55678142E-01 0.60737179E+03</pdfrwt>
<pdfrwt beam="2">  1       -1 0.39204669E-01 0.60737179E+03</pdfrwt>
<totfact> 0.43819010E+02</totfact>
</mgrwt>
</event>
<event>
 5    0  0.5719562E-003  0.7527412E+03  0.7546771E-02  0.9631060E-01
          2   -1    0    0  502    0  0.00000000000E+00  0.00000000000E+00  0.86839220617E+03  0.86839220617E+03  0.00000000000E+00 0.  1.
         -2   -1    0    0    0  501 -0.00000000000E+00 -0.00000000000E+00 -0.16312308010E+03  0.16312308010E+03  0.00000000000E+00 0. -1.
         25    1    1    2    0    0 -0.45515192820E+02 -0.25998401598E+03  0.47295251134E+03  0.55585285763E+03  0.12500000000E+03 0.  0.
          2    1    1    2  502    0 -0.13622670249E+03  0.74196472422E+02  0.83251380118E+02  0.17605005903E+03  0.00000000000E+00 0. -1.
         -2    1    1    2    0  501  0.18174189531E+03  0.18578754356E+03  0.14906523461E+03  0.29961236961E+03  0.00000000000E+00 0.  1.
<mgrwt>
<rscale>  4 0.75274115E+03</rscale>
<asrwt>0</asrwt>
<pdfrwt beam="1">  1        2 0.13359880E+00 0.75274115E+03</pdfrwt>
<pdfrwt beam="2">  1       -2 0.25095859E-01 0.75274115E+03</pdfrwt>
<totfact> 0.44107024E+02</totfact>
</mgrwt>
</event>
<event>
 5    0  0.5719562E-003  0.6624708E+03  0.7546771E-02  0.9783656E-01
         -2   -1    0    0    0  501 -0.00000000000E+00  0.00000000000E+00  0.82449376713E+02  0.82449376713E+02  0.00000000000E+00 0. -1.
          2   -1    0    0  502    0  0.00000000000E+00 -0.00000000000E+00 -0.13307181438E+04  0.13307181438E+04  0.00000000000E+00 0.  1.
         25    1    1    2    0    0 -0.27368912427E+02  0.28681798051E+03 -0.57207700903E+03  0.65261835369E+03  0.12500000000E+03 0.  0.
          1    1    1    2  502    0  0.62215985949E+01 -0.20554814649E+03 -0.23867787647E+03  0.31504900814E+03  0.00000000000E+00 0. -1.
         -1    1    1    2    0  501  0.21147313832E+02 -0.81269834027E+02 -0.43751388163E+03  0.44550015872E+03  0.00000000000E+00 0.  1.
<mgrwt>
<rscale>  4 0.66247077E+03</rscale>
<asrwt>0</asrwt>
<pdfrwt beam="1">  1        2 0.20472586E+00 0.66247077E+03</pdfrwt>
<pdfrwt beam="2">  1       -2 0.12684520E-01 0.66247077E+03</pdfrwt>
<totfact> 0.74598494E+02</totfact>
</mgrwt>
</event>
<event>
 5    0  0.5719562E-003  0.7970036E+03  0.7546771E-02  0.9564364E-01
         -1   -1    0    0    0  501 -0.00000000000E+00  0.00000000000E+00  0.57045506722E+02  0.57045506722E+02  0.00000000000E+00 0. -1.
          1   -1    0    0  502    0  0.00000000000E+00 -0.00000000000E+00 -0.27838069275E+04  0.27838069275E+04  0.00000000000E+00 0.  1.
         25    1    1    2    0    0 -0.22418296827E+03 -0.15552903340E+03 -0.62859670310E+03  0.69656736834E+03  0.12500000000E+03 0.  0.
          2    1    1    2  502    0  0.59934869568E+02  0.47368472968E+02 -0.16847111955E+04  0.16864423421E+04  0.00000000000E+00 0.  1.
         -2    1    1    2    0  501  0.16424809871E+03  0.10816056043E+03 -0.41345352220E+03  0.45784272385E+03  0.00000000000E+00 0. -1.
<mgrwt>
<rscale>  4 0.79700358E+03</rscale>
<asrwt>0</asrwt>
<pdfrwt beam="1">  1        1 0.42827801E+00 0.79700358E+03</pdfrwt>
<pdfrwt beam="2">  1       -1 0.87762314E-02 0.79700358E+03</pdfrwt>
<totfact> 0.69363860E+01</totfact>
</mgrwt>
</event>
<event>
 5    0  0.5719562E-003  0.6138082E+03  0.7546771E-02  0.9877165E-01
         -2   -1    0    0    0  501 -0.00000000000E+00  0.00000000000E+00  0.87063818734E+02  0.87063818734E+02  0.00000000000E+00 0.  1.
          2   -1    0    0  502    0  0.00000000000E+00 -0.00000000000E+00 -0.10818516612E+04  0.10818516612E+04  0.00000000000E+00 0. -1.
         25    1    1    2    0    0 -0.24517772938E+03  0.78234984214E+02 -0.70126611758E+03  0.75738497437E+03  0.12500000000E+03 0.  0.
          2    1    1    2  502    0  0.21116483531E+02 -0.37684834910E+02 -0.42707932422E+01  0.43408436206E+02  0.00000000000E+00 0.  1.
         -2    1    1    2    0  501  0.22406124585E+03 -0.40550149303E+02 -0.28925093169E+03  0.36812206941E+03  0.00000000000E+00 0. -1.
<mgrwt>
<rscale>  4 0.61380823E+03</rscale>
<asrwt>0</asrwt>
<pdfrwt beam="1">  1        2 0.16643872E+00 0.61380823E+03</pdfrwt>
<pdfrwt beam="2">  1       -2 0.13394434E-01 0.61380823E+03</pdfrwt>
<totfact> 0.95657432E+02</totfact>
</mgrwt>
</event>
<event>
 5    0  0.5719562E-003  0.6352535E+03  0.7546771E-02  0.9834850E-01
          2   -1    0    0  502    0  0.00000000000E+00  0.00000000000E+00  0.16336923360E+04  0.16336923360E+04  0.00000000000E+00 0. -1.
         -2   -1    0    0    0  501 -0.00000000000E+00 -0.00000000000E+00 -0.61753819487E+02  0.61753819487E+02  0.00000000000E+00 0.  1.
         25    1    1    2    0    0  0.20413369704E+03  0.10486122373E+03  0.12101844336E+04  0.12380782713E+04  0.12500000000E+03 0.  0.
          4    1    1    2  502    0 -0.21843454081E+03 -0.67806553603E+02  0.34573464895E+03  0.41454049840E+03  0.00000000000E+00 0.  1.
         -4    1    1    2    0  501  0.14300843767E+02 -0.37054670129E+02  0.16019433981E+02  0.42827385817E+02  0.00000000000E+00 0. -1.
<mgrwt>
<rscale>  4 0.63525347E+03</rscale>
<asrwt>0</asrwt>
<pdfrwt beam="1">  1        2 0.25133725E+00 0.63525347E+03</pdfrwt>
<pdfrwt beam="2">  1       -2 0.95005888E-02 0.63525347E+03</pdfrwt>
<totfact> 0.81327779E+02</totfact>
</mgrwt>
</event>
<event>
 5    0  0.5719562E-003  0.5467361E+03  0.7546771E-02  0.1002252E+00
          1   -1    0    0  502    0  0.00000000000E+00  0.00000000000E+00  0.54611550456E+03  0.54611550456E+03  0.00000000000E+00 0. -1.
         -1   -1    0    0    0  501 -0.00000000000E+00 -0.00000000000E+00 -0.13683936006E+03  0.13683936006E+03  0.00000000000E+00 0.  1.
         25    1    1    2    0    0 -0.14602908423E+03 -0.18959424967E+03  0.13360987980E+03  0.30124254834E+03  0.12500000000E+03 0.  0.
          4    1    1    2  502    0 -0.14811270335E+02  0.45948757992E+02  0.46291975179E+02  0.66885043589E+02  0.00000000000E+00 0.  1.
         -4    1    1    2    0  501  0.16084035457E+03  0.14364549167E+03  0.22937428952E+03  0.31482727269E+03  0.00000000000E+00 0. -1.
<mgrwt>
<rscale>  4 0.54673612E+03</rscale>
<asrwt>0</asrwt>
<pdfrwt beam="1">  1        1 0.84017769E-01 0.54673612E+03</pdfrwt>
<pdfrwt beam="2">  1       -1 0.21052210E-01 0.54673612E+03</pdfrwt>
<totfact> 0.74059776E+02</totfact>
</mgrwt>
</event>
<event>
 5    0  0.5719562E-003  0.6227821E+03  0.7546771E-02  0.9859236E-01
         -2   -1    0    0    0  501 -0.00000000000E+00  0.00000000000E+00  0.14695408142E+03  0.14695408142E+03  0.00000000000E+00 0.  1.
          2   -1    0    0  502    0  0.00000000000E+00 -0.00000000000E+00 -0.65982784575E+03  0.65982784575E+03  0.00000000000E+00 0. -1.
         25    1    1    2    0    0 -0.57156608732E+02  0.23514061936E+03 -0.45031050694E+03  0.52627230732E+03  0.12500000000E+03 0.  0.
          3    1    1    2  502    0 -0.10199825070E+02 -0.35734916081E+02 -0.59333157573E+02  0.70010315285E+02  0.00000000000E+00 0. -1.
         -3    1    1    2    0  501  0.67356433802E+02 -0.19940570328E+03 -0.32300998194E+01  0.21049930456E+03  0.00000000000E+00 0.  1.
<mgrwt>
<rscale>  4 0.62278213E+03</rscale>
<asrwt>0</asrwt>
<pdfrwt beam="1">  1        2 0.10151198E+00 0.62278213E+03</pdfrwt>
<pdfrwt beam="2">  1       -2 0.22608320E-01 0.62278213E+03</pdfrwt>
<totfact> 0.76195577E+02</totfact>
</mgrwt>
</event>
<event>
 5    0  0.5719562E-003  0.4494105E+03  0.7546771E-02  0.1027898E+00
          2   -1    0    0  502    0  0.00000000000E+00  0.00000000000E+00  0.18813237261E+04  0.18813237261E+04  0.00000000000E+00 0.  1.
         -2   -1    0    0    0  501 -0.00000000000E+00 -0.00000000000E+00 -0.26838784415E+02  0.26838784415E+02  0.00000000000E+00 0. -1.
         25    1    1    2    0    0  0.50453811652E+02 -0.19456631317E+03  0.80308523833E+03  0.83724102704E+03  0.12500000000E+03 0.  0.
          4    1    1    2  502    0  0.41912025823E+01  0.25046457681E+02  0.13863252228E+03  0.14093923321E+03  0.00000000000E+00 0.  1.
         -4    1    1    2    0  501 -0.54645014234E+02  0.16951985549E+03  0.91276718110E+03  0.92998225031E+03  0.00000000000E+00 0. -1.
<mgrwt>
<rscale>  4 0.44941047E+03</rscale>
<asrwt>0</asrwt>
<pdfrwt beam="1">  1        2 0.28943432E+00 0.44941047E+03</pdfrwt>
<pdfrwt beam="2">  1       -2 0.41290452E-02 0.44941047E+03</pdfrwt>
<totfact> 0.22289834E+03</totfact>
</mgrwt>
</event>
<event>
 5    0  0.5719562E-003  0.1094338E+04  0.7546771E-02  0.9210728E-01
         -2   -1    0    0    0  501 -0.00000000000E+00  0.00000000000E+00  0.15390085978E+03  0.15390085978E+03  0.00000000000E+00 0. -1.
          2   -1    0    0  502    0  0.00000000000E+00 -0.00000000000E+00 -0.19453681495E+04  0.19453681495E+04  0.00000000000E+00 0.  1.
         25    1    1    2    0    0 -0.26881760878E+03 -0.21344848497E+03 -0.95060333858E+03  0.10183785494E+04  0.12500000000E+03 0.  0.
          1    1    1    2  502    0 -0.48801774971E+02  0.22558368657E+03 -0.60980467373E+02  0.23872207750E+03  0.00000000000E+00 0. -1.
         -1    1    1    2    0  501  0.31761938375E+03 -0.12135201593E+02 -0.77988348373E+03  0.84216838235E+03  0.00000000000E+00 0.  1.
<mgrwt>
<rscale>  4 0.10943378E+04</rscale>
<asrwt>0</asrwt>
<pdfrwt beam="1">  1        2 0.29928742E+00 0.10943378E+04</pdfrwt>
<pdfrwt beam="2">  1       -2 0.23677055E-01 0.10943378E+04</pdfrwt>
<totfact> 0.11284020E+02</totfact>
</mgrwt>
</event>
<event>
 5    0  0.5719562E-003  0.5195009E+03  0.7546771E-02  0.1008811E+00
          1   -1    0    0  502    0  0.00000000000E+00  0.00000000000E+00  0.15595791722E+03  0.15595791722E+03  0.00000000000E+00 0. -1.
         -1   -1    0    0    0  501 -0.00000000000E+00 -0.00000000000E+00 -0.43261854167E+03  0.43261854167E+03  0.00000000000E+00 0.  1.
         25    1    1    2    0    0 -0.21443386664E+03  0.35876135049E+02 -0.25048241399E+03  0.35445087099E+03  0.12500000000E+03 0.  0.
          3    1    1    2  502    0  0.17968847535E+03 -0.61019376652E+02 -0.21770777744E+02  0.19101120194E+03  0.00000000000E+00 0. -1.
         -3    1    1    2    0  501  0.34745391288E+02  0.25143241603E+02 -0.44074327136E+01  0.43114385966E+02  0.00000000000E+00 0.  1.
<mgrwt>
<rscale>  4 0.51950086E+03</rscale>
<asrwt>0</asrwt>
<pdfrwt beam="1">  1        1 0.23993526E-01 0.51950086E+03</pdfrwt>
<pdfrwt beam="2">  1       -1 0.66556698E-01 0.51950086E+03</pdfrwt>
<totfact> 0.47735109E+02</totfact>
</mgrwt>
</event>
<event>
 5    0  0.5719562E-003  0.4954220E+03  0.7546771E-02  0.1014981E+00
         -1   -1    0    0    0  501 -0.00000000000E+00  0.00000000000E+00  0.44993911930E+02  0.44993911930E+02  0.00000000000E+00 0.  1.
          1   -1    0    0  502    0  0.00000000000E+00 -0.00000000000E+00 -0.13637563367E+04  0.13637563367E+04  0.00000000000E+00 0. -1.
         25    1    1    2    0    0  0.87018502946E+02  0.19636263547E+03 -0.58420029721E+03  0.63485863917E+03  0.12500000000E+03 0.  0.
          4    1    1    2  502    0 -0.22404499716E+02 -0.16116116003E+03 -0.41028635312E+03  0.44137260072E+03  0.00000000000E+00 0.  1.
         -4    1    1    2    0  501 -0.64614003229E+02 -0.35201475447E+02 -0.32427577440E+03  0.33251900871E+03  0.00000000000E+00 0. -1.
<mgrwt>
<rscale>  4 0.49542197E+03</rscale>
<asrwt>0</asrwt>
<pdfrwt beam="1">  1        1 0.20980867E+00 0.49542197E+03</pdfrwt>
<pdfrwt beam="2">  1       -1 0.69221402E-02 0.49542197E+03</pdfrwt>
<totfact> 0.93861861E+02</totfact>
</mgrwt>
</event>
<event>
 5    0  0.5719562E-003  0.5570036E+03  0.7546771E-02  0.9998857E-01
          1   -1    0    0  502    0  0.00000000000E+00  0.00000000000E+00  0.96511447603E+03  0.96511447603E+03  0.00000000000E+00 0.  1.
         -1   -1    0    0    0  501 -0.00000000000E+00 -0.00000000000E+00 -0.80366893507E+02  0.80366893507E+02  0.00000000000E+00 0. -1.
         25    1    1    2    0    0 -0.17073732085E+03 -0.13680377525E+03  0.21212335527E+03  0.32937489811E+03  0.12500000000E+03 0.  0.
          2    1    1    2  502    0  0.71252977657E+02  0.11713053473E+03  0.46897800234E+03  0.48860711791E+03  0.00000000000E+00 0.  1.
         -2    1    1    2    0  501  0.99484343188E+02  0.19673240517E+02  0.20364622491E+03  0.22749935352E+03  0.00000000000E+00 0. -1.
<mgrwt>
<rscale>  4 0.55700360E+03</rscale>
<asrwt>0</asrwt>
<pdfrwt beam="1">  1        1 0.14847914E+00 0.55700360E+03</pdfrwt>
<pdfrwt beam="2">  1       -1 0.12364138E-01 0.55700360E+03</pdfrwt>
<totfact> 0.73519610E+02</totfact>
</mgrwt>
</event>
<event>
 5    0  0.5719562E-003  0.4801766E+03  0.7546771E-02  0.1019087E+00
         -2   -1    0    0    0  501 -0.00000000000E+00  0.00000000000E+00  0.13996996843E+03  0.13996996843E+03  0.00000000000E+00 0.  1.
          2   -1    0    0  502    0  0.00000000000E+00 -0.00000000000E+00 -0.41181978938E+03  0.41181978938E+03  0.00000000000E+00 0. -1.
         25    1    1    2    0    0  0.16030694285E+03  0.12097087859E+03 -0.69055536868E+02  0.24642633091E+03  0.12500000000E+03 0.  0.
          2    1    1    2  502    0  0.78800868750E+01 -0.40039083906E+02 -0.26752746313E+02  0.48794809606E+02  0.00000000000E+00 0.  1.
         -2    1    1    2    0  501 -0.16818702973E+03 -0.80931794686E+02 -0.17604153777E+03  0.25656861729E+03  0.00000000000E+00 0. -1.
<mgrwt>
<rscale>  4 0.48017665E+03</rscale>
<asrwt>0</asrwt>
<pdfrwt beam="1">  1        2 0.63356890E-01 0.48017665E+03</pdfrwt>
<pdfrwt beam="2">  1       -2 0.21533842E-01 0.48017665E+03</pdfrwt>
<totfact> 0.14381447E+03</totfact>
</mgrwt>
</event>
<event>
 5    0  0.5719562E-003  0.5876932E+03  0.7546771E-02  0.9931273E-01
         -2   -1    0    0    0  501 -0.00000000000E+00  0.00000000000E+00  0.55070387246E+02  0.55070387246E+02  0.00000000000E+00 0.  1.
          2   -1    0    0  502    0  0.00000000000E+00 -0.00000000000E+00 -0.15679175666E+04  0.15679175666E+04  0.00000000000E+00 0. -1.
         25    1    1    2    0    0 -0.21990563675E+03  0.10975514005E+02 -0.33852651623E+03  0.42273414006E+03  0.12500000000E+03 0.  0.
          1    1    1    2  502    0  0.91831229238E+02  0.25530823410E+02 -0.27328829261E+03  0.28943270113E+03  0.00000000000E+00 0.  1.
         -1    1    1    2    0  501  0.12807440752E+03 -0.36506337415E+02 -0.90103237051E+03  0.91082111265E+03  0.00000000000E+00 0. -1.
<mgrwt>
<rscale>  4 0.58769321E+03</rscale>
<asrwt>0</asrwt>
<pdfrwt beam="1">  1        2 0.24121806E+00 0.58769321E+03</pdfrwt>
<pdfrwt beam="2">  1       -2 0.84723682E-02 0.58769321E+03</pdfrwt>
<totfact> 0.10648701E+03</totfact>
</mgrwt>
</event>
<event>
 5    0  0.5719562E-003  0.4580886E+03  0.7546771E-02  0.1025337E+00
          1   -1    0    0  502    0  0.00000000000E+00  0.00000000000E+00  0.33925242997E+03  0.33925242997E+03  0.00000000000E+00 0. -1.
         -1   -1    0    0    0  501 -0.00000000000E+00 -0.00000000000E+00 -0.15463794567E+03  0.15463794567E+03  0.00000000000E+00 0.  1.
         25    1    1    2    0    0  0.89525665170E+02  0.18189975540E+03  0.85363479065E+02  0.25301045294E+03  0.12500000000E+03 0.  0.
          1    1    1    2  502    0 -0.41006984847E+02 -0.26936287493E+02 -0.27163246662E+01  0.49137712704E+02  0.00000000000E+00 0.  1.
         -1    1    1    2    0  501 -0.48518680323E+02 -0.15496346791E+03  0.10196732989E+03  0.19174220999E+03  0.00000000000E+00 0. -1.
<mgrwt>
<rscale>  4 0.45808863E+03</rscale>
<asrwt>0</asrwt>
<pdfrwt beam="1">  1        1 0.52192681E-01 0.45808863E+03</pdfrwt>
<pdfrwt beam="2">  1       -1 0.23790453E-01 0.45808863E+03</pdfrwt>
<totfact> 0.11377190E+03</totfact>
</mgrwt>
</event>
<event>
 5    0  0.5719562E-003  0.5947280E+03  0.7546771E-02  0.9916405E-01
         -2   -1    0    0    0  501 -0.00000000000E+00  0.00000000000E+00  0.60574672103E+02  0.60574672103E+02  0.00000000000E+00 0.  1.
          2   -1    0    0  502    0  0.00000000000E+00 -0.00000000000E+00 -0.14597743488E+04  0.14597743488E+04  0.00000000000E+00 0. -1.
         25    1    1    2    0    0  0.19982523662E+03  0.11770316086E+02 -0.68479974559E+03  0.72432337881E+03  0.12500000000E+03 0.  0.
          1    1    1    2  502    0 -0.22585180437E+03 -0.10712208268E+03 -0.55113859176E+03  0.60517594587E+03  0.00000000000E+00 0. -1.
         -1    1    1    2    0  501  0.26026567752E+02  0.95351766597E+02 -0.16326133936E+03  0.19084969623E+03  0.00000000000E+00 0.  1.
<mgrwt>
<rscale>  4 0.59472801E+03</rscale>
<asrwt>0</asrwt>
<pdfrwt beam="1">  1        2 0.22458066E+00 0.59472801E+03</pdfrwt>
<pdfrwt beam="2">  1       -2 0.93191808E-02 0.59472801E+03</pdfrwt>
<totfact> 0.10479560E+03</totfact>
</mgrwt>
</event>
<event>
 5    0  0.5719562E-003  0.6112462E+03  0.7546771E-02  0.9882345E-01
          2   -1    0    0  502    0  0.00000000000E+00  0.00000000000E+00  0.14061801353E+04  0.14061801353E+04  0.00000000000E+00 0. -1.
         -2   -1    0    0    0  501 -0.00000000000E+00 -0.00000000000E+00 -0.66424973057E+02  0.66424973057E+02  0.00000000000E+00 0.  1.
         25    1    1    2    0    0 -0.26642908619E+03 -0.77755348599E+02  0.86348657637E+03  0.91556781277E+03  0.12500000000E+03 0.  0.
          1    1    1    2  502    0  0.21500459748E+03  0.77639110380E+02  0.43379764033E+03  0.49034192270E+03  0.00000000000E+00 0. -1.
         -1    1    1    2    0  501  0.51424488717E+02  0.11623821871E+00  0.42470945560E+02  0.66695372912E+02  0.00000000000E+00 0.  1.
<mgrwt>
<rscale>  4 0.61124619E+03</rscale>
<asrwt>0</asrwt>
<pdfrwt beam="1">  1        2 0.21633538E+00 0.61124619E+03</pdfrwt>
<pdfrwt beam="2">  1       -2 0.10219228E-01 0.61124619E+03</pdfrwt>
<totfact> 0.96631809E+02</totfact>
</mgrwt>
</event>
<event>
 5    0  0.5719562E-003  0.5246208E+03  0.7546771E-02  0.1007545E+00
         -1   -1    0    0    0  501 -0.00000000000E+00  0.00000000000E+00  0.11135567493E+03  0.11135567493E+03  0.00000000000E+00 0. -1.
          1   -1    0    0  502    0  0.00000000000E+00 -0.00000000000E+00 -0.61790066956E+03  0.61790066956E+03  0.00000000000E+00 0.  1.
         25    1    1    2    0    0 -0.15637379552E+03  0.16922174698E+03 -0.21867550100E+03  0.34136891820E+03  0.12500000000E+03 0.  0.
          4    1    1    2  502    0  0.51491443735E+02 -0.26150294170E+02 -0.15745218789E+03  0.16770926670E+03  0.00000000000E+00 0.  1.
         -4    1    1    2    0  501  0.10488235179E+03 -0.14307145281E+03 -0.13041730573E+03  0.22017815959E+03  0.00000000000E+00 0. -1.
<mgrwt>
<rscale>  4 0.52462080E+03</rscale>
<asrwt>0</asrwt>
<pdfrwt beam="1">  1        1 0.95061640E-01 0.52462080E+03</pdfrwt>
<pdfrwt beam="2">  1       -1 0.17131643E-01 0.52462080E+03</pdfrwt>
<totfact> 0.87403559E+02</totfact>
</mgrwt>
</event>
<event>
 5    0  0.5719562E-003  0.6955736E+03  0.7546771E-02  0.9724832E-01
         -2   -1    0    0    0  501 -0.00000000000E+00  0.00000000000E+00  0.17066340017E+03  0.17066340017E+03  0.00000000000E+00 0.  1.
          2   -1    0    0  502    0  0.00000000000E+00 -0.00000000000E+00 -0.70873803391E+03  0.70873803391E+03  0.00000000000E+00 0. -1.
         25    1    1    2    0    0 -0.78401584417E+02  0.32377112082E+03 -0.28107314424E+03  0.45343319191E+03  0.12500000000E+03 0.  0.
          1    1    1    2  502    0  0.60706701071E+01 -0.40392848512E+02 -0.62745365914E+02  0.74869327432E+02  0.00000000000E+00 0. -1.
         -1    1    1    2    0  501  0.72330914310E+02 -0.28337827231E+03 -0.19425612358E+03  0.35109891474E+03  0.00000000000E+00 0.  1.
<mgrwt>
<rscale>  4 0.69557356E+03</rscale>
<asrwt>0</asrwt>
<pdfrwt beam="1">  1        2 0.10903662E+00 0.69557356E+03</pdfrwt>
<pdfrwt beam="2">  1       -2 0.26255908E-01 0.69557356E+03</pdfrwt>
<totfact> 0.53192803E+02</totfact>
</mgrwt>
</event>
<event>
 5    0  0.5719562E-003  0.5779462E+03  0.7546771E-02  0.9952247E-01
         -1   -1    0    0    0  501 -0.00000000000E+00  0.00000000000E+00  0.16728926541E+03  0.16728926541E+03  0.00000000000E+00 0.  1.
          1   -1    0    0  502    0  0.00000000000E+00 -0.00000000000E+00 -0.49916794291E+03  0.49916794291E+03  0.00000000000E+00 0. -1.
         25    1    1    2    0    0  0.43187446306E+02 -0.19602750631E+03  0.40552672626E+02  0.23991969074E+03  0.12500000000E+03 0.  0.
          3    1    1    2  502    0 -0.54689557790E+02  0.14454139634E+03 -0.29144789194E+03  0.32988639969E+03  0.00000000000E+00 0. -1.
         -3    1    1    2    0  501  0.11502111484E+02  0.51486109974E+02 -0.80983458190E+02  0.96651117890E+02  0.00000000000E+00 0.  1.
<mgrwt>
<rscale>  4 0.57794615E+03</rscale>
<asrwt>0</asrwt>
<pdfrwt beam="1">  1        1 0.76795066E-01 0.57794615E+03</pdfrwt>
<pdfrwt beam="2">  1       -1 0.25736811E-01 0.57794615E+03</pdfrwt>
<totfact> 0.59727645E+02</totfact>
</mgrwt>
</event>
<event>
 5    0  0.5719562E-003  0.5249902E+03  0.7546771E-02  0.1007454E+00
          2   -1    0    0  502    0  0.00000000000E+00  0.00000000000E+00  0.41345131686E+03  0.41345131686E+03  0.00000000000E+00 0.  1.
         -2   -1    0    0    0  501 -0.00000000000E+00 -0.00000000000E+00 -0.16665489259E+03  0.16665489259E+03  0.00000000000E+00 0. -1.
         25    1    1    2    0    0 -0.17615065797E+03 -0.13206816191E+03  0.10772964669E+03  0.27513947458E+03  0.12500000000E+03 0.  0.
          1    1    1    2  502    0  0.12388002824E+03  0.15013798446E+03  0.51412260455E+02  0.20132286581E+03  0.00000000000E+00 0.  1.
         -1    1    1    2    0  501  0.52270629735E+02 -0.18069822549E+02  0.87654517135E+02  0.10364386906E+03  0.00000000000E+00 0. -1.
<mgrwt>
<rscale>  4 0.52499023E+03</rscale>
<asrwt>0</asrwt>
<pdfrwt beam="1">  1        2 0.63607894E-01 0.52499023E+03</pdfrwt>
<pdfrwt beam="2">  1       -2 0.25639214E-01 0.52499023E+03</pdfrwt>
<totfact> 0.10506286E+03</totfact>
</mgrwt>
</event>
<event>
 5    0  0.5719562E-003  0.5848973E+03  0.7546771E-02  0.9937244E-01
          1   -1    0    0  502    0  0.00000000000E+00  0.00000000000E+00  0.22337964154E+03  0.22337964154E+03  0.00000000000E+00 0. -1.
         -1   -1    0    0    0  501 -0.00000000000E+00 -0.00000000000E+00 -0.38287380665E+03  0.38287380665E+03  0.00000000000E+00 0.  1.
         25    1    1    2    0    0  0.15414611586E+03  0.18111318304E+03  0.11789361441E+02  0.26893679397E+03  0.12500000000E+03 0.  0.
          2    1    1    2  502    0 -0.73189787611E+02 -0.11553072097E+02  0.11733763874E+02  0.75019328843E+02  0.00000000000E+00 0. -1.
         -2    1    1    2    0  501 -0.80956328246E+02 -0.16956011095E+03 -0.18301729043E+03  0.26229732538E+03  0.00000000000E+00 0.  1.
<mgrwt>
<rscale>  4 0.58489730E+03</rscale>
<asrwt>0</asrwt>
<pdfrwt beam="1">  1        1 0.34366099E-01 0.58489730E+03</pdfrwt>
<pdfrwt beam="2">  1       -1 0.58903662E-01 0.58489730E+03</pdfrwt>
<totfact> 0.38126845E+02</totfact>
</mgrwt>
</event>
<event>
 5    0  0.5719562E-003  0.5671733E+03  0.7546771E-02  0.9975953E-01
         -2   -1    0    0    0  501 -0.00000000000E+00  0.00000000000E+00  0.55232184538E+02  0.55232184538E+02  0.00000000000E+00 0. -1.
          2   -1    0    0  502    0  0.00000000000E+00 -0.00000000000E+00 -0.14560602638E+04  0.14560602638E+04  0.00000000000E+00 0.  1.
         25    1    1    2    0    0 -0.19393564618E+03 -0.14858198541E+03 -0.10179622022E+04  0.10543053099E+04  0.12500000000E+03 0.  0.
          2    1    1    2  502    0  0.67099295364E+02  0.70057878137E+02 -0.18825750489E+03  0.21178127839E+03  0.00000000000E+00 0.  1.
         -2    1    1    2    0  501  0.12683635082E+03  0.78524107269E+02 -0.19460837213E+03  0.24520586007E+03  0.00000000000E+00 0. -1.
<mgrwt>
<rscale>  4 0.56717330E+03</rscale>
<asrwt>0</asrwt>
<pdfrwt beam="1">  1        2 0.22400924E+00 0.56717330E+03</pdfrwt>
<pdfrwt beam="2">  1       -2 0.84972602E-02 0.56717330E+03</pdfrwt>
<totfact> 0.12226432E+03</totfact>
</mgrwt>
</event>
<event>
 5    0  0.5719562E-003  0.5445115E+03  0.7546771E-02  0.1002772E+00
         -2   -1    0    0    0  501 -0.00000000000E+00  0.00000000000E+00  0.18986329422E+03  0.18986329422E+03  0.00000000000E+00 0. -1.
          2   -1    0    0  502    0  0.00000000000E+00 -0.00000000000E+00 -0.39040293736E+03  0.39040293736E+03  0.00000000000E+00 0.  1.
         25    1    1    2    0    0  0.13535899401E+03  0.20209050970E+03 -0.17844180463E+02  0.27405482325E+03  0.12500000000E+03 0.  0.
          2    1    1    2  502    0 -0.43338035568E+01 -0.23585386515E+02 -0.22756116240E+02  0.33058934294E+02  0.00000000000E+00 0. -1.
         -2    1    1    2    0  501 -0.13102519045E+03 -0.17850512319E+03 -0.15993934643E+03  0.27315247404E+03  0.00000000000E+00 0.  1.
<mgrwt>
<rscale>  4 0.54451148E+03</rscale>
<asrwt>0</asrwt>
<pdfrwt beam="1">  1        2 0.60061990E-01 0.54451148E+03</pdfrwt>
<pdfrwt beam="2">  1       -2 0.29209738E-01 0.54451148E+03</pdfrwt>
<totfact> 0.88363797E+02</totfact>
</mgrwt>
</event>
<event>
 5    0  0.5719562E-003  0.5846440E+03  0.7546771E-02  0.9937787E-01
          2   -1    0    0  502    0  0.00000000000E+00  0.00000000000E+00  0.59416685441E+03  0.59416685441E+03  0.00000000000E+00 0.  1.
         -2   -1    0    0    0  501 -0.00000000000E+00 -0.00000000000E+00 -0.14381845299E+03  0.14381845299E+03  0.00000000000E+00 0. -1.
         25    1    1    2    0    0  0.14846883484E+03  0.15812226820E+03  0.17738607369E+03  0.30681666474E+03  0.12500000000E+03 0.  0.
          1    1    1    2  502    0 -0.14021463193E+03 -0.66134962726E+02  0.29762020790E+03  0.33557676388E+03  0.00000000000E+00 0.  1.
         -1    1    1    2    0  501 -0.82542029122E+01 -0.91987305478E+02 -0.24657880174E+02  0.95591878784E+02  0.00000000000E+00 0. -1.
<mgrwt>
<rscale>  4 0.58464402E+03</rscale>
<asrwt>0</asrwt>
<pdfrwt beam="1">  1        2 0.91410284E-01 0.58464402E+03</pdfrwt>
<pdfrwt beam="2">  1       -2 0.22125916E-01 0.58464402E+03</pdfrwt>
<totfact> 0.89951987E+02</totfact>
</mgrwt>
</event>
<event>
 5    0  0.5719562E-003  0.6736258E+03  0.7546771E-02  0.9763430E-01
          1   -1    0    0  502    0  0.00000000000E+00  0.00000000000E+00  0.14316442063E+04  0.14316442063E+04  0.00000000000E+00 0.  1.
         -1   -1    0    0    0  501 -0.00000000000E+00 -0.00000000000E+00 -0.79239615098E+02  0.79239615098E+02  0.00000000000E+00 0. -1.
         25    1    1    2    0    0  0.28060882884E+03  0.51285642864E+02  0.10199329916E+04  0.10664238554E+04  0.12500000000E+03 0.  0.
          4    1    1    2  502    0 -0.11901311917E+03  0.80294076964E+01  0.10299668103E+03  0.15759730399E+03  0.00000000000E+00 0.  1.
         -4    1    1    2    0  501 -0.16159570967E+03 -0.59315050560E+02  0.22947491858E+03  0.28686266202E+03  0.00000000000E+00 0. -1.
<mgrwt>
<rscale>  4 0.67362582E+03</rscale>
<asrwt>0</asrwt>
<pdfrwt beam="1">  1        1 0.22025294E+00 0.67362582E+03</pdfrwt>
<pdfrwt beam="2">  1       -1 0.12190711E-01 0.67362582E+03</pdfrwt>
<totfact> 0.34302159E+02</totfact>
</mgrwt>
</event>
<event>
 5    0  0.5719562E-003  0.7772736E+03  0.7546771E-02  0.9593508E-01
         -2   -1    0    0    0  501 -0.00000000000E+00  0.00000000000E+00  0.32063149443E+03  0.32063149443E+03  0.00000000000E+00 0.  1.
          2   -1    0    0  502    0  0.00000000000E+00 -0.00000000000E+00 -0.47106595165E+03  0.47106595165E+03  0.00000000000E+00 0. -1.
         25    1    1    2    0    0  0.14882222128E+03  0.13495245412E+03  0.22170307857E+03  0.32424909170E+03  0.12500000000E+03 0.  0.
          4    1    1    2  502    0  0.24075168460E+02 -0.17610552761E+02 -0.18360028654E+03  0.18600755502E+03  0.00000000000E+00 0.  1.
         -4    1    1    2    0  501 -0.17289738974E+03 -0.11734190136E+03 -0.18853724924E+03  0.28144079936E+03  0.00000000000E+00 0. -1.
<mgrwt>
<rscale>  4 0.77727365E+03</rscale>
<asrwt>0</asrwt>
<pdfrwt beam="1">  1        2 0.72471684E-01 0.77727365E+03</pdfrwt>
<pdfrwt beam="2">  1       -2 0.49327923E-01 0.77727365E+03</pdfrwt>
<totfact> 0.25866446E+02</totfact>
</mgrwt>
</event>
<event>
 5    0  0.5719562E-003  0.5513307E+03  0.7546771E-02  0.1001186E+00
         -2   -1    0    0    0  501 -0.00000000000E+00  0.00000000000E+00  0.35226970799E+02  0.35226970799E+02  0.00000000000E+00 0. -1.
          2   -1    0    0  502    0  0.00000000000E+00 -0.00000000000E+00 -0.21571929763E+04  0.21571929763E+04  0.00000000000E+00 0.  1.
         25    1    1    2    0    0  0.10412791827E+03  0.18679674716E+03 -0.16938746086E+04  0.17118913043E+04  0.12500000000E+03 0.  0.
          1    1    1    2  502    0 -0.71522941536E+02 -0.12717933368E+03 -0.24403264758E+03  0.28432735916E+03  0.00000000000E+00 0. -1.
         -1    1    1    2    0  501 -0.32604976736E+02 -0.59617413482E+02 -0.18405874935E+03  0.19620128366E+03  0.00000000000E+00 0.  1.
<mgrwt>
<rscale>  4 0.55133066E+03</rscale>
<asrwt>0</asrwt>
<pdfrwt beam="1">  1        2 0.33187592E+00 0.55133066E+03</pdfrwt>
<pdfrwt beam="2">  1       -2 0.54195328E-02 0.55133066E+03</pdfrwt>
<totfact> 0.10346685E+03</totfact>
</mgrwt>
</event>
<event>
 5    0  0.5719562E-003  0.6141681E+03  0.7546771E-02  0.9876440E-01
         -2   -1    0    0    0  501 -0.00000000000E+00  0.00000000000E+00  0.25646666731E+03  0.25646666731E+03  0.00000000000E+00 0.  1.
          2   -1    0    0  502    0  0.00000000000E+00 -0.00000000000E+00 -0.36769149527E+03  0.36769149527E+03  0.00000000000E+00 0. -1.
         25    1    1    2    0    0  0.69527032926E+02 -0.22205455237E+03  0.12150047221E+03  0.29073974149E+03  0.12500000000E+03 0.  0.
          1    1    1    2  502    0 -0.95412418940E+01  0.98316005712E+02 -0.74074600791E+02  0.12346707560E+03  0.00000000000E+00 0.  1.
         -1    1    1    2    0  501 -0.59985791032E+02  0.12373854666E+03 -0.15865069938E+03  0.20995134548E+03  0.00000000000E+00 0. -1.
<mgrwt>
<rscale>  4 0.61416810E+03</rscale>
<asrwt>0</asrwt>
<pdfrwt beam="1">  1        2 0.56567922E-01 0.61416810E+03</pdfrwt>
<pdfrwt beam="2">  1       -2 0.39456411E-01 0.61416810E+03</pdfrwt>
<totfact> 0.53522997E+02</totfact>
</mgrwt>
</event>
<event>
 5    0  0.5719562E-003  0.5951232E+03  0.7546771E-02  0.9915576E-01
          2   -1    0    0  502    0  0.00000000000E+00  0.00000000000E+00  0.16922473022E+04  0.16922473022E+04  0.00000000000E+00 0.  1.
         -2   -1    0    0    0  501 -0.00000000000E+00 -0.00000000000E+00 -0.52322668894E+02  0.52322668894E+02  0.00000000000E+00 0. -1.
         25    1    1    2    0    0 -0.17457468040E+03 -0.15494543281E+03  0.10231406080E+04  0.10568472500E+04  0.12500000000E+03 0.  0.
          1    1    1    2  502    0  0.87084363848E+02  0.15199611316E+03  0.21910977056E+03  0.28052735410E+03  0.00000000000E+00 0. -1.
         -1    1    1    2    0  501  0.87490316550E+02  0.29493196485E+01  0.39767425477E+03  0.40719536697E+03  0.00000000000E+00 0.  1.
<mgrwt>
<rscale>  4 0.59512316E+03</rscale>
<asrwt>0</asrwt>
<pdfrwt beam="1">  1        2 0.26034570E+00 0.59512316E+03</pdfrwt>
<pdfrwt beam="2">  1       -2 0.80496427E-02 0.59512316E+03</pdfrwt>
<totfact> 0.98817991E+02</totfact>
</mgrwt>
</event>
<event>
 5    0  0.5719562E-003  0.9665886E+03  0.7546771E-02  0.9345969E-01
         -2   -1    0    0    0  501 -0.00000000000E+00  0.00000000000E+00  0.21624918604E+03  0.21624918604E+03  0.00000000000E+00 0.  1.
          2   -1    0    0  502    0  0.00000000000E+00 -0.00000000000E+00 -0.10801121083E+04  0.10801121083E+04  0.00000000000E+00 0. -1.
         25    1    1    2    0    0  0.14560685892E+03  0.22602737291E+03 -0.79979911942E+03  0.85299083353E+03  0.12500000000E+03 0.  0.
          3    1    1    2  502    0 -0.18559833292E+03 -0.70420558077E+02 -0.16112001299E+03  0.25566668686E+03  0.00000000000E+00 0. -1.
         -3    1    1    2    0  501  0.39991473995E+02 -0.15560681484E+03  0.97056210167E+02  0.18770377393E+03  0.00000000000E+00 0.  1.
<mgrwt>
<rscale>  4 0.96658857E+03</rscale>
<asrwt>0</asrwt>
<pdfrwt beam="1">  1        2 0.16617109E+00 0.96658857E+03</pdfrwt>
<pdfrwt beam="2">  1       -2 0.33269106E-01 0.96658857E+03</pdfrwt>
<totfact> 0.18888194E+02</totfact>
</mgrwt>
</event>
<event>
 5    0  0.5719562E-003  0.5644918E+03  0.7546771E-02  0.9981942E-01
         -2   -1    0    0    0  501 -0.00000000000E+00  0.00000000000E+00  0.22615081085E+02  0.22615081085E+02  0.00000000000E+00 0. -1.
          2   -1    0    0  502    0  0.00000000000E+00 -0.00000000000E+00 -0.35225496939E+04  0.35225496939E+04  0.00000000000E+00 0.  1.
         25    1    1    2    0    0 -0.18085529086E+03  0.98565284794E+02 -0.84056821827E+03  0.87441619448E+03  0.12500000000E+03 0.  0.
          2    1    1    2  502    0  0.27501761610E+02 -0.33068562657E+02 -0.15558995363E+03  0.16142524709E+03  0.00000000000E+00 0. -1.
         -2    1    1    2    0  501  0.15335352925E+03 -0.65496722137E+02 -0.25037764409E+04  0.25093233334E+04  0.00000000000E+00 0.  1.
<mgrwt>
<rscale>  4 0.56449180E+03</rscale>
<asrwt>0</asrwt>
<pdfrwt beam="1">  1        2 0.54193048E+00 0.56449180E+03</pdfrwt>
<pdfrwt beam="2">  1       -2 0.34792448E-02 0.56449180E+03</pdfrwt>
<totfact> 0.31273520E+02</totfact>
</mgrwt>
</event>
<event>
 5    0  0.5719562E-003  0.5022756E+03  0.7546771E-02  0.1013187E+00
          1   -1    0    0  502    0  0.00000000000E+00  0.00000000000E+00  0.55484976192E+03  0.55484976192E+03  0.00000000000E+00 0. -1.
         -1   -1    0    0    0  501 -0.00000000000E+00 -0.00000000000E+00 -0.11367077093E+03  0.11367077093E+03  0.00000000000E+00 0.  1.
         25    1    1    2    0    0 -0.94109581600E+02  0.21196174962E+03  0.20519829071E+03  0.33393971785E+03  0.12500000000E+03 0.  0.
          1    1    1    2  502    0 -0.29383163628E+01 -0.26481738853E+02  0.38322785237E+02  0.46674961854E+02  0.00000000000E+00 0. -1.
         -1    1    1    2    0  501  0.97047897963E+02 -0.18548001076E+03  0.19765791504E+03  0.28790585314E+03  0.00000000000E+00 0.  1.
<mgrwt>
<rscale>  4 0.50227562E+03</rscale>
<asrwt>0</asrwt>
<pdfrwt beam="1">  1        1 0.85361501E-01 0.50227562E+03</pdfrwt>
<pdfrwt beam="2">  1       -1 0.17487811E-01 0.50227562E+03</pdfrwt>
<totfact> 0.98436414E+02</totfact>
</mgrwt>
</event>
<event>
 5    0  0.5719562E-003  0.1075658E+04  0.7546771E-02  0.9229247E-01
         -2   -1    0    0    0  501 -0.00000000000E+00  0.00000000000E+00  0.11649860979E+03  0.11649860979E+03  0.00000000000E+00 0.  1.
          2   -1    0    0  502    0  0.00000000000E+00 -0.00000000000E+00 -0.24829483479E+04  0.24829483479E+04  0.00000000000E+00 0. -1.
         25    1    1    2    0    0  0.46567789137E+03  0.38503367597E+02 -0.75627990441E+03  0.89773197650E+03  0.12500000000E+03 0.  0.
          4    1    1    2  502    0  0.21990418337E+02 -0.19502536538E+02 -0.13914568721E+02  0.32519880885E+02  0.00000000000E+00 0. -1.
         -4    1    1    2    0  501 -0.48766830971E+03 -0.19000831059E+02 -0.15962552650E+04  0.16691951003E+04  0.00000000000E+00 0.  1.
<mgrwt>
<rscale>  4 0.10756580E+04</rscale>
<asrwt>0</asrwt>
<pdfrwt beam="1">  1        2 0.38199208E+00 0.10756580E+04</pdfrwt>
<pdfrwt beam="2">  1       -2 0.17922862E-01 0.10756580E+04</pdfrwt>
<totfact> 0.92502571E+01</totfact>
</mgrwt>
</event>
<event>
 5    0  0.5719562E-003  0.5096947E+03  0.7546771E-02  0.1011279E+00
          2   -1    0    0  502    0  0.00000000000E+00  0.00000000000E+00  0.41830918522E+03  0.41830918522E+03  0.00000000000E+00 0. -1.
         -2   -1    0    0    0  501 -0.00000000000E+00 -0.00000000000E+00 -0.15526117931E+03  0.15526117931E+03  0.00000000000E+00 0.  1.
         25    1    1    2    0    0  0.18566759243E+03  0.13670633792E+03  0.13673836220E+03  0.29577602574E+03  0.12500000000E+03 0.  0.
          2    1    1    2  502    0 -0.74039277582E+02 -0.40915496338E+02  0.95370992876E+02  0.12748144472E+03  0.00000000000E+00 0. -1.
         -2    1    1    2    0  501 -0.11162831485E+03 -0.95790841586E+02  0.30938650826E+02  0.15031289407E+03  0.00000000000E+00 0.  1.
<mgrwt>
<rscale>  4 0.50969472E+03</rscale>
<asrwt>0</asrwt>
<pdfrwt beam="1">  1        2 0.64355259E-01 0.50969472E+03</pdfrwt>
<pdfrwt beam="2">  1       -2 0.23886336E-01 0.50969472E+03</pdfrwt>
<totfact> 0.11770667E+03</totfact>
</mgrwt>
</event>
<event>
 5    0  0.5719562E-003  0.4877562E+03  0.7546771E-02  0.1017025E+00
         -2   -1    0    0    0  501 -0.00000000000E+00  0.00000000000E+00  0.85574332370E+02  0.85574332370E+02  0.00000000000E+00 0. -1.
          2   -1    0    0  502    0  0.00000000000E+00 -0.00000000000E+00 -0.69502777231E+03  0.69502777231E+03  0.00000000000E+00 0.  1.
         25    1    1    2    0    0  0.53315893251E+01  0.22579527836E+03 -0.32826001828E+03  0.41760217094E+03  0.12500000000E+03 0.  0.
          4    1    1    2  502    0  0.81674531806E+01 -0.19996949732E+02 -0.15176805533E+02  0.26399255979E+02  0.00000000000E+00 0. -1.
         -4    1    1    2    0  501 -0.13499042506E+02 -0.20579832863E+03 -0.26601661613E+03  0.33660067776E+03  0.00000000000E+00 0.  1.
<mgrwt>
<rscale>  4 0.48775624E+03</rscale>
<asrwt>0</asrwt>
<pdfrwt beam="1">  1        2 0.10692735E+00 0.48775624E+03</pdfrwt>
<pdfrwt beam="2">  1       -2 0.13165282E-01 0.48775624E+03</pdfrwt>
<totfact> 0.18040095E+03</totfact>
</mgrwt>
</event>
<event>
 5    0  0.5719562E-003  0.5800424E+03  0.7546771E-02  0.9947699E-01
          1   -1    0    0  502    0  0.00000000000E+00  0.00000000000E+00  0.19000979650E+04  0.19000979650E+04  0.00000000000E+00 0. -1.
         -1   -1    0    0    0  501 -0.00000000000E+00 -0.00000000000E+00 -0.44267342914E+02  0.44267342914E+02  0.00000000000E+00 0.  1.
         25    1    1    2    0    0  0.25224120166E+03 -0.35308163558E+02  0.99607938103E+03  0.10356985196E+04  0.12500000000E+03 0.  0.
          2    1    1    2  502    0 -0.30127631569E+02  0.29482437494E+02  0.35866204458E+02  0.55346842067E+02  0.00000000000E+00 0.  1.
         -2    1    1    2    0  501 -0.22211357009E+03  0.58257260643E+01  0.82388503663E+03  0.85331994626E+03  0.00000000000E+00 0. -1.
<mgrwt>
<rscale>  4 0.58004237E+03</rscale>
<asrwt>0</asrwt>
<pdfrwt beam="1">  1        1 0.29232270E+00 0.58004237E+03</pdfrwt>
<pdfrwt beam="2">  1       -1 0.68103619E-02 0.58004237E+03</pdfrwt>
<totfact> 0.41738201E+02</totfact>
</mgrwt>
</event>
<event>
 5    0  0.5719562E-003  0.1575548E+04  0.7546771E-02  0.8835712E-01
          1   -1    0    0  502    0  0.00000000000E+00  0.00000000000E+00  0.19461926368E+04  0.19461926368E+04  0.00000000000E+00 0.  1.
         -1   -1    0    0    0  501 -0.00000000000E+00 -0.00000000000E+00 -0.31887280065E+03  0.31887280065E+03  0.00000000000E+00 0. -1.
         25    1    1    2    0    0  0.49353524342E+03  0.21783156385E+03  0.53613301675E+03  0.77077314325E+03  0.12500000000E+03 0.  0.
          1    1    1    2  502    0 -0.86579965621E+02 -0.23544960542E+03  0.10560566008E+04  0.10854437578E+04  0.00000000000E+00 0.  1.
         -1    1    1    2    0  501 -0.40695527780E+03  0.17618041567E+02  0.35130218623E+02  0.40884853648E+03  0.00000000000E+00 0. -1.
<mgrwt>
<rscale>  4 0.15755480E+04</rscale>
<asrwt>0</asrwt>
<pdfrwt beam="1">  1        1 0.29941424E+00 0.15755480E+04</pdfrwt>
<pdfrwt beam="2">  1       -1 0.49057355E-01 0.15755480E+04</pdfrwt>
<totfact> 0.12975390E+01</totfact>
</mgrwt>
</event>
<event>
 5    0  0.5719562E-003  0.6028954E+03  0.7546771E-02  0.9899417E-01
         -2   -1    0    0    0  501 -0.00000000000E+00  0.00000000000E+00  0.91724084963E+02  0.91724084963E+02  0.00000000000E+00 0. -1.
          2   -1    0    0  502    0  0.00000000000E+00 -0.00000000000E+00 -0.99069619972E+03  0.99069619972E+03  0.00000000000E+00 0.  1.
         25    1    1    2    0    0  0.21521242223E+03 -0.25064802930E+02 -0.17671784959E+03  0.30626594553E+03  0.12500000000E+03 0.  0.
          2    1    1    2  502    0 -0.12133473816E+03  0.70055402523E+02 -0.20355910463E+03  0.24711573641E+03  0.00000000000E+00 0. -1.
         -2    1    1    2    0  501 -0.93877684069E+02 -0.44990599593E+02 -0.51869516054E+03  0.52903860273E+03  0.00000000000E+00 0.  1.
<mgrwt>
<rscale>  4 0.60289536E+03</rscale>
<asrwt>0</asrwt>
<pdfrwt beam="1">  1        2 0.15241480E+00 0.60289536E+03</pdfrwt>
<pdfrwt beam="2">  1       -2 0.14111398E-01 0.60289536E+03</pdfrwt>
<totfact> 0.99969814E+02</totfact>
</mgrwt>
</event>
<event>
 5    0  0.5719562E-003  0.4834314E+03  0.7546771E-02  0.1018196E+00
         -2   -1    0    0    0  501 -0.00000000000E+00  0.00000000000E+00  0.12166905571E+04  0.12166905571E+04  0.00000000000E+00 0. -1.
          2   -1    0    0  502    0  0.00000000000E+00 -0.00000000000E+00 -0.48020826356E+02  0.48020826356E+02  0.00000000000E+00 0.  1.
         25    1    1    2    0    0  0.41756778571E+02  0.19627078562E+03  0.54840271690E+03  0.59719041331E+03  0.12500000000E+03 0.  0.
          2    1    1    2  502    0 -0.89989030850E+01 -0.20417935268E+03  0.58032578075E+03  0.61526270821E+03  0.00000000000E+00 0.  1.
         -2    1    1    2    0  501 -0.32757875486E+02  0.79085670603E+01  0.39941233094E+02  0.52258261935E+02  0.00000000000E+00 0. -1.
<mgrwt>
<rscale>  4 0.48343143E+03</rscale>
<asrwt>0</asrwt>
<pdfrwt beam="1">  1        2 0.73878203E-02 0.48343143E+03</pdfrwt>
<pdfrwt beam="2">  1       -2 0.18718314E+00 0.48343143E+03</pdfrwt>
<totfact> 0.16329467E+02</totfact>
</mgrwt>
</event>
<event>
 5    0  0.5719562E-003  0.5352578E+03  0.7546771E-02  0.1004965E+00
         -2   -1    0    0    0  501 -0.00000000000E+00  0.00000000000E+00  0.11882820469E+03  0.11882820469E+03  0.00000000000E+00 0. -1.
          2   -1    0    0  502    0  0.00000000000E+00 -0.00000000000E+00 -0.60276276321E+03  0.60276276321E+03  0.00000000000E+00 0.  1.
         25    1    1    2    0    0  0.21340901570E+03 -0.10047349627E+03 -0.15182023544E+03  0.30710375335E+03  0.12500000000E+03 0.  0.
          2    1    1    2  502    0 -0.20884237005E+03  0.74716371891E+02 -0.29516736244E+03  0.36921733925E+03  0.00000000000E+00 0.  1.
         -2    1    1    2    0  501 -0.45666456525E+01  0.25757124376E+02 -0.36946960645E+02  0.45269875299E+02  0.00000000000E+00 0. -1.
<mgrwt>
<rscale>  4 0.53525776E+03</rscale>
<asrwt>0</asrwt>
<pdfrwt beam="1">  1        2 0.92732733E-01 0.53525776E+03</pdfrwt>
<pdfrwt beam="2">  1       -2 0.18281262E-01 0.53525776E+03</pdfrwt>
<totfact> 0.12335810E+03</totfact>
</mgrwt>
</event>
<event>
 5    0  0.5719562E-003  0.7298280E+03  0.7546771E-02  0.9667540E-01
         -2   -1    0    0    0  501 -0.00000000000E+00  0.00000000000E+00  0.75200669756E+02  0.75200669756E+02  0.00000000000E+00 0.  1.
          2   -1    0    0  502    0  0.00000000000E+00 -0.00000000000E+00 -0.17707584596E+04  0.17707584596E+04  0.00000000000E+00 0. -1.
         25    1    1    2    0    0 -0.18087462133E+03  0.27619886857E+03 -0.11609307801E+04  0.12134194328E+04  0.12500000000E+03 0.  0.
          3    1    1    2  502    0  0.35284636981E+02 -0.90476410996E+02 -0.20829907696E+03  0.22982491600E+03  0.00000000000E+00 0. -1.
         -3    1    1    2    0  501  0.14558998435E+03 -0.18572245757E+03 -0.32632793282E+03  0.40271478062E+03  0.00000000000E+00 0.  1.
<mgrwt>
<rscale>  4 0.72982799E+03</rscale>
<asrwt>0</asrwt>
<pdfrwt beam="1">  1        2 0.27242439E+00 0.72982799E+03</pdfrwt>
<pdfrwt beam="2">  1       -2 0.11569333E-01 0.72982799E+03</pdfrwt>
<totfact> 0.49359232E+02</totfact>
</mgrwt>
</event>
<event>
 5    0  0.5719562E-003  0.6206848E+03  0.7546771E-02  0.9863397E-01
         -2   -1    0    0    0  501 -0.00000000000E+00  0.00000000000E+00  0.38042440174E+03  0.38042440174E+03  0.00000000000E+00 0.  1.
          2   -1    0    0  502    0  0.00000000000E+00 -0.00000000000E+00 -0.25317098366E+03  0.25317098366E+03  0.00000000000E+00 0. -1.
         25    1    1    2    0    0  0.12851458019E+03  0.21375552159E+03  0.22751064342E+03  0.35999099044E+03  0.12500000000E+03 0.  0.
          1    1    1    2  502    0 -0.45950991403E+02 -0.70562538713E+02 -0.60251573340E+02  0.10354138096E+03  0.00000000000E+00 0. -1.
         -1    1    1    2    0  501 -0.82563588788E+02 -0.14319298288E+03 -0.40005651995E+02  0.17006301400E+03  0.00000000000E+00 0.  1.
<mgrwt>
<rscale>  4 0.62068485E+03</rscale>
<asrwt>0</asrwt>
<pdfrwt beam="1">  1        2 0.38949382E-01 0.62068485E+03</pdfrwt>
<pdfrwt beam="2">  1       -2 0.58526831E-01 0.62068485E+03</pdfrwt>
<totfact> 0.36572481E+02</totfact>
</mgrwt>
</event>
<event>
 5    0  0.5719562E-003  0.9305052E+03  0.7546771E-02  0.9388232E-01
         -2   -1    0    0    0  501 -0.00000000000E+00  0.00000000000E+00  0.16596873239E+03  0.16596873239E+03  0.00000000000E+00 0.  1.
          2   -1    0    0  502    0  0.00000000000E+00 -0.00000000000E+00 -0.13042214395E+04  0.13042214395E+04  0.00000000000E+00 0. -1.
         25    1    1    2    0    0  0.33778390437E+03  0.75511614143E+02 -0.27117822888E+03  0.45712427385E+03  0.12500000000E+03 0.  0.
          1    1    1    2  502    0 -0.36038781923E+03 -0.16582510322E+03 -0.52191113469E+03  0.65556737078E+03  0.00000000000E+00 0. -1.
         -1    1    1    2    0  501  0.22603914863E+02  0.90313489078E+02 -0.34516334351E+03  0.35749852724E+03  0.00000000000E+00 0.  1.
<mgrwt>
<rscale>  4 0.93050519E+03</rscale>
<asrwt>0</asrwt>
<pdfrwt beam="1">  1        2 0.20064945E+00 0.93050519E+03</pdfrwt>
<pdfrwt beam="2">  1       -2 0.25533651E-01 0.93050519E+03</pdfrwt>
<totfact> 0.22695879E+02</totfact>
</mgrwt>
</event>
<event>
 5    0  0.5719562E-003  0.4662381E+03  0.7546771E-02  0.1022987E+00
          2   -1    0    0  502    0  0.00000000000E+00  0.00000000000E+00  0.10948422574E+03  0.10948422574E+03  0.00000000000E+00 0. -1.
         -2   -1    0    0    0  501 -0.00000000000E+00 -0.00000000000E+00 -0.49636825963E+03  0.49636825963E+03  0.00000000000E+00 0.  1.
         25    1    1    2    0    0  0.29775693204E+01 -0.20952706285E+03 -0.16492953321E+03  0.29451181116E+03  0.12500000000E+03 0.  0.
          1    1    1    2  502    0 -0.22865206762E+02  0.13856460136E+03 -0.11532487017E+03  0.18172174364E+03  0.00000000000E+00 0. -1.
         -1    1    1    2    0  501  0.19887637441E+02  0.70962461486E+02 -0.10662963050E+03  0.12961893058E+03  0.00000000000E+00 0.  1.
<mgrwt>
<rscale>  4 0.46623811E+03</rscale>
<asrwt>0</asrwt>
<pdfrwt beam="1">  1        2 0.16843727E-01 0.46623811E+03</pdfrwt>
<pdfrwt beam="2">  1       -2 0.76364348E-01 0.46623811E+03</pdfrwt>
<totfact> 0.53886274E+02</totfact>
</mgrwt>
</event>
<event>
 5    0  0.5719562E-003  0.4760328E+03  0.7546771E-02  0.1020231E+00
         -2   -1    0    0    0  501 -0.00000000000E+00  0.00000000000E+00  0.88934054428E+03  0.88934054428E+03  0.00000000000E+00 0.  1.
          2   -1    0    0  502    0  0.00000000000E+00 -0.00000000000E+00 -0.63700923730E+02  0.63700923730E+02  0.00000000000E+00 0. -1.
         25    1    1    2    0    0 -0.20892438769E+03  0.40300963885E+02  0.33837961359E+03  0.41880703236E+03  0.12500000000E+03 0.  0.
          4    1    1    2  502    0  0.12348184193E+03 -0.25569659122E+01  0.31364469849E+03  0.33708648779E+03  0.00000000000E+00 0. -1.
         -4    1    1    2    0  501  0.85442545760E+02 -0.37743997973E+02  0.17361530847E+03  0.19714794786E+03  0.00000000000E+00 0.  1.
<mgrwt>
<rscale>  4 0.47603283E+03</rscale>
<asrwt>0</asrwt>
<pdfrwt beam="1">  1        2 0.98001428E-02 0.47603283E+03</pdfrwt>
<pdfrwt beam="2">  1       -2 0.13682161E+00 0.47603283E+03</pdfrwt>
<totfact> 0.26391321E+02</totfact>
</mgrwt>
</event>
<event>
 5    0  0.5719562E-003  0.7689677E+03  0.7546771E-02  0.9606054E-01
         -2   -1    0    0    0  501 -0.00000000000E+00  0.00000000000E+00  0.87611187648E+02  0.87611187648E+02  0.00000000000E+00 0.  1.
          2   -1    0    0  502    0  0.00000000000E+00 -0.00000000000E+00 -0.16873168644E+04  0.16873168644E+04  0.00000000000E+00 0. -1.
         25    1    1    2    0    0  0.10314465173E+03  0.23938894006E+03 -0.32978009146E+03  0.43854964659E+03  0.12500000000E+03 0.  0.
          3    1    1    2  502    0 -0.11761050730E+03 -0.17065890407E+02 -0.87424863142E+03  0.88228915078E+03  0.00000000000E+00 0. -1.
         -3    1    1    2    0  501  0.14465855564E+02 -0.22232304965E+03 -0.39567695387E+03  0.45408925467E+03  0.00000000000E+00 0.  1.
<mgrwt>
<rscale>  4 0.76896771E+03</rscale>
<asrwt>0</asrwt>
<pdfrwt beam="1">  1        2 0.25958722E+00 0.76896771E+03</pdfrwt>
<pdfrwt beam="2">  1       -2 0.13478644E-01 0.76896771E+03</pdfrwt>
<totfact> 0.42438797E+02</totfact>
</mgrwt>
</event>
<event>
 5    0  0.5719562E-003  0.6042900E+03  0.7546771E-02  0.9896545E-01
         -2   -1    0    0    0  501 -0.00000000000E+00  0.00000000000E+00  0.52867672985E+02  0.52867672985E+02  0.00000000000E+00 0.  1.
          2   -1    0    0  502    0  0.00000000000E+00 -0.00000000000E+00 -0.17267944845E+04  0.17267944845E+04  0.00000000000E+00 0. -1.
         25    1    1    2    0    0 -0.95600070287E+02  0.22290524199E+03 -0.12893974099E+04  0.13179517446E+04  0.12500000000E+03 0.  0.
          3    1    1    2  502    0  0.44298782258E+02 -0.26879482470E+02 -0.61861344347E+02  0.80695195717E+02  0.00000000000E+00 0. -1.
         -3    1    1    2    0  501  0.51301288028E+02 -0.19602575952E+03 -0.32266805720E+03  0.38101521713E+03  0.00000000000E+00 0.  1.
<mgrwt>
<rscale>  4 0.60429002E+03</rscale>
<asrwt>0</asrwt>
<pdfrwt beam="1">  1        2 0.26566065E+00 0.60429002E+03</pdfrwt>
<pdfrwt beam="2">  1       -2 0.81334895E-02 0.60429002E+03</pdfrwt>
<totfact> 0.93042841E+02</totfact>
</mgrwt>
</event>
<event>
 5    0  0.5719562E-003  0.7594943E+03  0.7546771E-02  0.9620572E-01
          2   -1    0    0  502    0  0.00000000000E+00  0.00000000000E+00  0.25414754186E+04  0.25414754186E+04  0.00000000000E+00 0.  1.
         -2   -1    0    0    0  501 -0.00000000000E+00 -0.00000000000E+00 -0.56741804893E+02  0.56741804893E+02  0.00000000000E+00 0. -1.
         25    1    1    2    0    0  0.30587911170E+03 -0.11200318494E+03  0.72486871285E+03  0.80446652837E+03  0.12500000000E+03 0.  0.
          1    1    1    2  502    0 -0.17405663194E+03  0.66733877333E+01  0.75627616172E+03  0.77607594861E+03  0.00000000000E+00 0. -1.
         -1    1    1    2    0  501 -0.13182247975E+03  0.10532979721E+03  0.10035887391E+04  0.10176747465E+04  0.00000000000E+00 0.  1.
<mgrwt>
<rscale>  4 0.75949431E+03</rscale>
<asrwt>0</asrwt>
<pdfrwt beam="1">  1        2 0.39099613E+00 0.75949431E+03</pdfrwt>
<pdfrwt beam="2">  1       -2 0.87295104E-02 0.75949431E+03</pdfrwt>
<totfact> 0.29245825E+02</totfact>
</mgrwt>
</event>
<event>
 5    0  0.5719562E-003  0.9566090E+03  0.7546771E-02  0.9357459E-01
         -2   -1    0    0    0  501 -0.00000000000E+00  0.00000000000E+00  0.67816853093E+02  0.67816853093E+02  0.00000000000E+00 0. -1.
          2   -1    0    0  502    0  0.00000000000E+00 -0.00000000000E+00 -0.33734272077E+04  0.33734272077E+04  0.00000000000E+00 0.  1.
         25    1    1    2    0    0  0.17380986023E+03 -0.14947740864E+03 -0.26055744396E+03  0.36887470069E+03  0.12500000000E+03 0.  0.
          2    1    1    2  502    0  0.62892796168E+02 -0.63118661031E+02 -0.78233570822E+03  0.78739356712E+03  0.00000000000E+00 0. -1.
         -2    1    1    2    0  501 -0.23670265639E+03  0.21259606967E+03 -0.22627172024E+04  0.22849757930E+04  0.00000000000E+00 0.  1.
<mgrwt>
<rscale>  4 0.95660905E+03</rscale>
<asrwt>0</asrwt>
<pdfrwt beam="1">  1        2 0.51898896E+00 0.95660905E+03</pdfrwt>
<pdfrwt beam="2">  1       -2 0.10433359E-01 0.95660905E+03</pdfrwt>
<totfact> 0.66365088E+01</totfact>
</mgrwt>
</event>
<event>
 5    0  0.5719562E-003  0.8240099E+03  0.7546771E-02  0.9525900E-01
          1   -1    0    0  502    0  0.00000000000E+00  0.00000000000E+00  0.35527078839E+04  0.35527078839E+04  0.00000000000E+00 0.  1.
         -1   -1    0    0    0  501 -0.00000000000E+00 -0.00000000000E+00 -0.47779912878E+02  0.47779912878E+02  0.00000000000E+00 0. -1.
         25    1    1    2    0    0 -0.82998423582E+02  0.22260303827E+03  0.25856283928E+04  0.25995268871E+04  0.12500000000E+03 0.  0.
          1    1    1    2  502    0  0.18865401882E+03 -0.10140939555E+03  0.35888879531E+03  0.41794182816E+03  0.00000000000E+00 0.  1.
         -1    1    1    2    0  501 -0.10565559524E+03 -0.12119364272E+03  0.56041078285E+03  0.58301908148E+03  0.00000000000E+00 0. -1.
<mgrwt>
<rscale>  4 0.82400989E+03</rscale>
<asrwt>0</asrwt>
<pdfrwt beam="1">  1        1 0.54657024E+00 0.82400989E+03</pdfrwt>
<pdfrwt beam="2">  1       -1 0.73507586E-02 0.82400989E+03</pdfrwt>
<totfact> 0.24765051E+01</totfact>
</mgrwt>
</event>
<event>
 5    0  0.5719562E-003  0.6097414E+03  0.7546771E-02  0.9885399E-01
         -2   -1    0    0    0  501 -0.00000000000E+00  0.00000000000E+00  0.13546529639E+03  0.13546529639E+03  0.00000000000E+00 0.  1.
          2   -1    0    0  502    0  0.00000000000E+00 -0.00000000000E+00 -0.68612515242E+03  0.68612515242E+03  0.00000000000E+00 0. -1.
         25    1    1    2    0    0  0.16660756059E+02 -0.27077490165E+03 -0.41185619901E+03  0.50877023971E+03  0.12500000000E+03 0.  0.
          3    1    1    2  502    0 -0.13738411138E+02  0.24088762716E+03 -0.94127635063E+02  0.25898958385E+03  0.00000000000E+00 0.  1.
         -3    1    1    2    0  501 -0.29223449206E+01  0.29887274490E+02 -0.44676021958E+02  0.53830625245E+02  0.00000000000E+00 0. -1.
<mgrwt>
<rscale>  4 0.60974141E+03</rscale>
<asrwt>0</asrwt>
<pdfrwt beam="1">  1        2 0.10555771E+00 0.60974141E+03</pdfrwt>
<pdfrwt beam="2">  1       -2 0.20840815E-01 0.60974141E+03</pdfrwt>
<totfact> 0.83819132E+02</totfact>
</mgrwt>
</event>
<event>
 5    0  0.5719562E-003  0.1028149E+04  0.7546771E-02  0.9278199E-01
         -2   -1    0    0    0  501 -0.00000000000E+00  0.00000000000E+00  0.69805073340E+02  0.69805073340E+02  0.00000000000E+00 0. -1.
          2   -1    0    0  502    0  0.00000000000E+00 -0.00000000000E+00 -0.37858637225E+04  0.37858637225E+04  0.00000000000E+00 0.  1.
         25    1    1    2    0    0 -0.32713277726E+03 -0.98387021160E+01 -0.31783016852E+04  0.31975520725E+04  0.12500000000E+03 0.  0.
          3    1    1    2  502    0  0.13351666554E+03 -0.30347058067E+02 -0.38384685487E+03  0.40753656511E+03  0.00000000000E+00 0. -1.
         -3    1    1    2    0  501  0.19361611171E+03  0.40185760183E+02 -0.15391010912E+03  0.25058015828E+03  0.00000000000E+00 0.  1.
<mgrwt>
<rscale>  4 0.10281488E+04</rscale>
<asrwt>0</asrwt>
<pdfrwt beam="1">  1        2 0.58244055E+00 0.10281488E+04</pdfrwt>
<pdfrwt beam="2">  1       -2 0.10739242E-01 0.10281488E+04</pdfrwt>
<totfact> 0.32199366E+01</totfact>
</mgrwt>
</event>
<event>
 5    0  0.5719562E-003  0.5383172E+03  0.7546771E-02  0.1004235E+00
         -1   -1    0    0    0  501 -0.00000000000E+00  0.00000000000E+00  0.10685689018E+04  0.10685689018E+04  0.00000000000E+00 0. -1.
          1   -1    0    0  502    0  0.00000000000E+00 -0.00000000000E+00 -0.67797540359E+02  0.67797540359E+02  0.00000000000E+00 0.  1.
         25    1    1    2    0    0 -0.17879470721E+03 -0.14925053796E+03  0.34937619675E+03  0.43810044198E+03  0.12500000000E+03 0.  0.
          2    1    1    2  502    0  0.10792085018E+03  0.11007821200E+03  0.29571412147E+03  0.33348307948E+03  0.00000000000E+00 0.  1.
         -2    1    1    2    0  501  0.70873857035E+02  0.39172325957E+02  0.35568104326E+03  0.36478292074E+03  0.00000000000E+00 0. -1.
<mgrwt>
<rscale>  4 0.53831717E+03</rscale>
<asrwt>0</asrwt>
<pdfrwt beam="1">  1        1 0.10430392E-01 0.53831717E+03</pdfrwt>
<pdfrwt beam="2">  1       -1 0.16439520E+00 0.53831717E+03</pdfrwt>
<totfact> 0.17622833E+02</totfact>
</mgrwt>
</event>
<event>
 5    0  0.5719562E-003  0.5840686E+03  0.7546771E-02  0.9939021E-01
          1   -1    0    0  502    0  0.00000000000E+00  0.00000000000E+00  0.81727534384E+03  0.81727534384E+03  0.00000000000E+00 0.  1.
         -1   -1    0    0    0  501 -0.00000000000E+00 -0.00000000000E+00 -0.10435163752E+03  0.10435163752E+03  0.00000000000E+00 0. -1.
         25    1    1    2    0    0 -0.11861822911E+03 -0.21975823895E+03  0.18519256158E+03  0.33508991738E+03  0.12500000000E+03 0.  0.
          1    1    1    2  502    0  0.25413422793E+02  0.13556186898E+02  0.76533565794E+02  0.81774072629E+02  0.00000000000E+00 0. -1.
         -1    1    1    2    0  501  0.93204806320E+02  0.20620205205E+03  0.45119757894E+03  0.50476299135E+03  0.00000000000E+00 0.  1.
<mgrwt>
<rscale>  4 0.58406856E+03</rscale>
<asrwt>0</asrwt>
<pdfrwt beam="1">  1        1 0.12573466E+00 0.58406856E+03</pdfrwt>
<pdfrwt beam="2">  1       -1 0.16054099E-01 0.58406856E+03</pdfrwt>
<totfact> 0.63587264E+02</totfact>
</mgrwt>
</event>
<event>
 5    0  0.5719562E-003  0.5455367E+03  0.7546771E-02  0.1002532E+00
          1   -1    0    0  502    0  0.00000000000E+00  0.00000000000E+00  0.88398380250E+03  0.88398380250E+03  0.00000000000E+00 0.  1.
         -1   -1    0    0    0  501 -0.00000000000E+00 -0.00000000000E+00 -0.84167356291E+02  0.84167356291E+02  0.00000000000E+00 0. -1.
         25    1    1    2    0    0 -0.17520301590E+03  0.97262702077E+02  0.46231451921E+03  0.51914915455E+03  0.12500000000E+03 0.  0.
          3    1    1    2  502    0  0.14710376516E+03 -0.16568150438E+03  0.24022868500E+03  0.32680223334E+03  0.00000000000E+00 0.  1.
         -3    1    1    2    0  501  0.28099250737E+02  0.68418802303E+02  0.97273241993E+02  0.12219977090E+03  0.00000000000E+00 0. -1.
<mgrwt>
<rscale>  4 0.54553673E+03</rscale>
<asrwt>0</asrwt>
<pdfrwt beam="1">  1        1 0.13599750E+00 0.54553673E+03</pdfrwt>
<pdfrwt beam="2">  1       -1 0.12948825E-01 0.54553673E+03</pdfrwt>
<totfact> 0.79273952E+02</totfact>
</mgrwt>
</event>
<event>
 5    0  0.5719562E-003  0.5634667E+03  0.7546771E-02  0.9984241E-01
          2   -1    0    0  502    0  0.00000000000E+00  0.00000000000E+00  0.53287285211E+03  0.53287285211E+03  0.00000000000E+00 0. -1.
         -2   -1    0    0    0  501 -0.00000000000E+00 -0.00000000000E+00 -0.14895425027E+03  0.14895425027E+03  0.00000000000E+00 0.  1.
         25    1    1    2    0    0 -0.19924483299E+03 -0.13379903774E+03  0.33819005115E+03  0.43312607480E+03  0.12500000000E+03 0.  0.
          4    1    1    2  502    0  0.17478542732E+03  0.97893415369E+02  0.30371347287E+02  0.20262153171E+03  0.00000000000E+00 0.  1.
         -4    1    1    2    0  501  0.24459405673E+02  0.35905622366E+02  0.15357203392E+02  0.46079495868E+02  0.00000000000E+00 0. -1.
<mgrwt>
<rscale>  4 0.56346668E+03</rscale>
<asrwt>0</asrwt>
<pdfrwt beam="1">  1        2 0.81980438E-01 0.56346668E+03</pdfrwt>
<pdfrwt beam="2">  1       -2 0.22916039E-01 0.56346668E+03</pdfrwt>
<totfact> 0.96141180E+02</totfact>
</mgrwt>
</event>
<event>
 5    0  0.5719562E-003  0.5802449E+03  0.7546771E-02  0.9947261E-01
         -2   -1    0    0    0  501 -0.00000000000E+00  0.00000000000E+00  0.86470562162E+02  0.86470562162E+02  0.00000000000E+00 0.  1.
          2   -1    0    0  502    0  0.00000000000E+00 -0.00000000000E+00 -0.97340687379E+03  0.97340687379E+03  0.00000000000E+00 0. -1.
         25    1    1    2    0    0  0.15689157369E+03 -0.18665319258E+03 -0.27967590569E+03  0.39153287527E+03  0.12500000000E+03 0.  0.
          4    1    1    2  502    0 -0.66554192921E+01  0.88085044139E+02 -0.29646216316E+03  0.30934298731E+03  0.00000000000E+00 0. -1.
         -4    1    1    2    0  501 -0.15023615439E+03  0.98568148442E+02 -0.31079824277E+03  0.35900157337E+03  0.00000000000E+00 0.  1.
<mgrwt>
<rscale>  4 0.58024491E+03</rscale>
<asrwt>0</asrwt>
<pdfrwt beam="1">  1        2 0.14975490E+00 0.58024491E+03</pdfrwt>
<pdfrwt beam="2">  1       -2 0.13303164E-01 0.58024491E+03</pdfrwt>
<totfact> 0.11321184E+03</totfact>
</mgrwt>
</event>
<event>
 5    0  0.5719562E-003  0.5900955E+03  0.7546771E-02  0.9926170E-01
          2   -1    0    0  502    0  0.00000000000E+00  0.00000000000E+00  0.23847906973E+04  0.23847906973E+04  0.00000000000E+00 0.  1.
         -2   -1    0    0    0  501 -0.00000000000E+00 -0.00000000000E+00 -0.36503488332E+02  0.36503488332E+02  0.00000000000E+00 0. -1.
         25    1    1    2    0    0 -0.22112250078E+03  0.71294034581E+02  0.18330750142E+04  0.18519630146E+04  0.12500000000E+03 0.  0.
          4    1    1    2  502    0  0.20132610365E+03 -0.48019711609E+02  0.47993024412E+03  0.52265775794E+03  0.00000000000E+00 0. -1.
         -4    1    1    2    0  501  0.19796397134E+02 -0.23274322972E+02  0.35281950655E+02  0.46673413110E+02  0.00000000000E+00 0.  1.
<mgrwt>
<rscale>  4 0.59009552E+03</rscale>
<asrwt>0</asrwt>
<pdfrwt beam="1">  1        2 0.36689075E+00 0.59009552E+03</pdfrwt>
<pdfrwt beam="2">  1       -2 0.56159232E-02 0.59009552E+03</pdfrwt>
<totfact> 0.73170527E+02</totfact>
</mgrwt>
</event>
<event>
 5    0  0.5719562E-003  0.4438502E+03  0.7546771E-02  0.1029572E+00
          2   -1    0    0  502    0  0.00000000000E+00  0.00000000000E+00  0.89227197133E+03  0.89227197133E+03  0.00000000000E+00 0.  1.
         -2   -1    0    0    0  501 -0.00000000000E+00 -0.00000000000E+00 -0.55197012137E+02  0.55197012137E+02  0.00000000000E+00 0. -1.
         25    1    1    2    0    0  0.19104518262E+03 -0.60327354388E+02  0.48609409452E+03  0.54041661727E+03  0.12500000000E+03 0.  0.
          3    1    1    2  502    0 -0.15902164196E+03  0.37441596702E+02  0.24973641197E+03  0.29842592253E+03  0.00000000000E+00 0. -1.
         -3    1    1    2    0  501 -0.32023540659E+02  0.22885757686E+02  0.10124445270E+03  0.10862644366E+03  0.00000000000E+00 0.  1.
<mgrwt>
<rscale>  4 0.44385019E+03</rscale>
<asrwt>0</asrwt>
<pdfrwt beam="1">  1        2 0.13727260E+00 0.44385019E+03</pdfrwt>
<pdfrwt beam="2">  1       -2 0.84918486E-02 0.44385019E+03</pdfrwt>
<totfact> 0.26547874E+03</totfact>
</mgrwt>
</event>
<event>
 5    0  0.5719562E-003  0.7098037E+03  0.7546771E-02  0.9700612E-01
         -2   -1    0    0    0  501 -0.00000000000E+00  0.00000000000E+00  0.28267462594E+03  0.28267462594E+03  0.00000000000E+00 0.  1.
          2   -1    0    0  502    0  0.00000000000E+00 -0.00000000000E+00 -0.44558407435E+03  0.44558407435E+03  0.00000000000E+00 0. -1.
         25    1    1    2    0    0  0.24517013834E+03  0.92613143510E+02 -0.14329086094E+03  0.32379447481E+03  0.12500000000E+03 0.  0.
          3    1    1    2  502    0 -0.30631207587E+03 -0.24230669844E+02 -0.41775092813E+02  0.31009574580E+03  0.00000000000E+00 0.  1.
         -3    1    1    2    0  501  0.61141937531E+02 -0.68382473666E+02  0.22156505345E+02  0.94368479690E+02  0.00000000000E+00 0. -1.
<mgrwt>
<rscale>  4 0.70980367E+03</rscale>
<asrwt>0</asrwt>
<pdfrwt beam="1">  1        2 0.68551397E-01 0.70980367E+03</pdfrwt>
<pdfrwt beam="2">  1       -2 0.43488404E-01 0.70980367E+03</pdfrwt>
<totfact> 0.35561850E+02</totfact>
</mgrwt>
</event>
<event>
 5    0  0.5719562E-003  0.6209796E+03  0.7546771E-02  0.9862811E-01
         -2   -1    0    0    0  501 -0.00000000000E+00  0.00000000000E+00  0.13641569433E+03  0.13641569433E+03  0.00000000000E+00 0.  1.
          2   -1    0    0  502    0  0.00000000000E+00 -0.00000000000E+00 -0.70669233759E+03  0.70669233759E+03  0.00000000000E+00 0. -1.
         25    1    1    2    0    0 -0.26731053751E+02 -0.28717413601E+03 -0.28211966728E+03  0.42237428934E+03  0.12500000000E+03 0.  0.
          1    1    1    2  502    0 -0.23148901778E+02  0.18771180526E+03 -0.13934479733E+03  0.23492246813E+03  0.00000000000E+00 0.  1.
         -1    1    1    2    0  501  0.49879955528E+02  0.99462330742E+02 -0.14881217864E+03  0.18581127445E+03  0.00000000000E+00 0. -1.
<mgrwt>
<rscale>  4 0.62097963E+03</rscale>
<asrwt>0</asrwt>
<pdfrwt beam="1">  1        2 0.10872190E+00 0.62097963E+03</pdfrwt>
<pdfrwt beam="2">  1       -2 0.20987030E-01 0.62097963E+03</pdfrwt>
<totfact> 0.79771980E+02</totfact>
</mgrwt>
</event>
<event>
 5    0  0.5719562E-003  0.6122061E+03  0.7546771E-02  0.9880401E-01
          2   -1    0    0  502    0  0.00000000000E+00  0.00000000000E+00  0.10657995589E+04  0.10657995589E+04  0.00000000000E+00 0. -1.
         -2   -1    0    0    0  501 -0.00000000000E+00 -0.00000000000E+00 -0.87914359427E+02  0.87914359427E+02  0.00000000000E+00 0.  1.
         25    1    1    2    0    0 -0.72544685208E+02  0.27369151318E+03  0.45579285653E+03  0.55094637108E+03  0.12500000000E+03 0.  0.
          3    1    1    2  502    0 -0.82795415123E+01 -0.13615079081E+03  0.29753803122E+03  0.32731402150E+03  0.00000000000E+00 0. -1.
         -3    1    1    2    0  501  0.80824226720E+02 -0.13754072237E+03  0.22455431172E+03  0.27545352575E+03  0.00000000000E+00 0.  1.
<mgrwt>
<rscale>  4 0.61220613E+03</rscale>
<asrwt>0</asrwt>
<pdfrwt beam="1">  1        2 0.16396915E+00 0.61220613E+03</pdfrwt>
<pdfrwt beam="2">  1       -2 0.13525287E-01 0.61220613E+03</pdfrwt>
<totfact> 0.96284138E+02</totfact>
</mgrwt>
</event>
<event>
 5    0  0.5719562E-003  0.7933458E+03  0.7546771E-02  0.9569699E-01
          2   -1    0    0  502    0  0.00000000000E+00  0.00000000000E+00  0.29488059811E+04  0.29488059811E+04  0.00000000000E+00 0. -1.
         -2   -1    0    0    0  501 -0.00000000000E+00 -0.00000000000E+00 -0.53360377006E+02  0.53360377006E+02  0.00000000000E+00 0.  1.
         25    1    1    2    0    0  0.62927664148E+02 -0.26318236689E+03  0.15640322943E+04  0.15921830506E+04  0.12500000000E+03 0.  0.
          4    1    1    2  502    0 -0.17977853666E+03  0.29052968125E+03  0.10453947517E+04  0.10998081673E+04  0.00000000000E+00 0.  1.
         -4    1    1    2    0  501  0.11685087251E+03 -0.27347314359E+02  0.28601855804E+03  0.31017514012E+03  0.00000000000E+00 0. -1.
<mgrwt>
<rscale>  4 0.79334582E+03</rscale>
<asrwt>0</asrwt>
<pdfrwt beam="1">  1        2 0.45366233E+00 0.79334582E+03</pdfrwt>
<pdfrwt beam="2">  1       -2 0.82092910E-02 0.79334582E+03</pdfrwt>
<totfact> 0.18548884E+02</totfact>
</mgrwt>
</event>
<event>
 5    0  0.5719562E-003  0.6313000E+03  0.7546771E-02  0.9842515E-01
         -1   -1    0    0    0  501 -0.00000000000E+00  0.00000000000E+00  0.25516602186E+02  0.25516602186E+02  0.00000000000E+00 0. -1.
          1   -1    0    0  502    0  0.00000000000E+00 -0.00000000000E+00 -0.39047093978E+04  0.39047093978E+04  0.00000000000E+00 0.  1.
         25    1    1    2    0    0  0.16971753410E+03  0.11294294070E+03 -0.80978783947E+03  0.84435862890E+03  0.12500000000E+03 0.  0.
          3    1    1    2  502    0 -0.20239848451E+03 -0.13710728629E+03 -0.18877336026E+04  0.19034972311E+04  0.00000000000E+00 0.  1.
         -3    1    1    2    0  501  0.32680950417E+02  0.24164345591E+02 -0.11816713535E+04  0.11823701400E+04  0.00000000000E+00 0. -1.
<mgrwt>
<rscale>  4 0.63129998E+03</rscale>
<asrwt>0</asrwt>
<pdfrwt beam="1">  1        1 0.60072414E+00 0.63129998E+03</pdfrwt>
<pdfrwt beam="2">  1       -1 0.39256336E-02 0.63129998E+03</pdfrwt>
<totfact> 0.34750680E+01</totfact>
</mgrwt>
</event>
<event>
 5    0  0.5719562E-003  0.4720889E+03  0.7546771E-02  0.1021332E+00
         -1   -1    0    0    0  501 -0.00000000000E+00  0.00000000000E+00  0.52780535072E+02  0.52780535072E+02  0.00000000000E+00 0.  1.
          1   -1    0    0  502    0  0.00000000000E+00 -0.00000000000E+00 -0.10556349754E+04  0.10556349754E+04  0.00000000000E+00 0. -1.
         25    1    1    2    0    0 -0.19798522079E+03  0.82947885737E+02 -0.61180034526E+03  0.66030535501E+03  0.12500000000E+03 0.  0.
          3    1    1    2  502    0  0.55092809782E+02 -0.44536497066E+02 -0.12511257367E+03  0.14377716561E+03  0.00000000000E+00 0. -1.
         -3    1    1    2    0  501  0.14289241101E+03 -0.38411388671E+02 -0.26594152137E+03  0.30433298982E+03  0.00000000000E+00 0.  1.
<mgrwt>
<rscale>  4 0.47208889E+03</rscale>
<asrwt>0</asrwt>
<pdfrwt beam="1">  1        1 0.16240536E+00 0.47208889E+03</pdfrwt>
<pdfrwt beam="2">  1       -1 0.81200834E-02 0.47208889E+03</pdfrwt>
<totfact> 0.12183265E+03</totfact>
</mgrwt>
</event>
<event>
 5    0  0.5719562E-003  0.5317374E+03  0.7546771E-02  0.1005812E+00
          2   -1    0    0  502    0  0.00000000000E+00  0.00000000000E+00  0.25882026711E+04  0.25882026711E+04  0.00000000000E+00 0. -1.
         -2   -1    0    0    0  501 -0.00000000000E+00 -0.00000000000E+00 -0.27310908088E+02  0.27310908088E+02  0.00000000000E+00 0.  1.
         25    1    1    2    0    0 -0.19110382921E+03  0.11904711823E+03  0.18200962521E+04  0.18382242129E+04  0.12500000000E+03 0.  0.
          1    1    1    2  502    0  0.14907691928E+03 -0.12281626637E+03  0.61235066672E+03  0.64209119460E+03  0.00000000000E+00 0. -1.
         -1    1    1    2    0  501  0.42026909928E+02  0.37691481490E+01  0.12844484423E+03  0.13519817175E+03  0.00000000000E+00 0.  1.
<mgrwt>
<rscale>  4 0.53173740E+03</rscale>
<asrwt>0</asrwt>
<pdfrwt beam="1">  1        2 0.39818484E+00 0.53173740E+03</pdfrwt>
<pdfrwt beam="2">  1       -2 0.42016802E-02 0.53173740E+03</pdfrwt>
<totfact> 0.88595587E+02</totfact>
</mgrwt>
</event>
<event>
 5    0  0.5719562E-003  0.5802881E+03  0.7546771E-02  0.9947167E-01
          1   -1    0    0  502    0  0.00000000000E+00  0.00000000000E+00  0.33191335276E+03  0.33191335276E+03  0.00000000000E+00 0.  1.
         -1   -1    0    0    0  501 -0.00000000000E+00 -0.00000000000E+00 -0.25363116772E+03  0.25363116772E+03  0.00000000000E+00 0. -1.
         25    1    1    2    0    0  0.20646073176E+03  0.15073085512E+02  0.20369083554E+03  0.31617746306E+03  0.12500000000E+03 0.  0.
          2    1    1    2  502    0 -0.71722187098E+02  0.40443180083E+02 -0.89544641252E+01  0.82824545668E+02  0.00000000000E+00 0.  1.
         -2    1    1    2    0  501 -0.13473854466E+03 -0.55516265595E+02 -0.11645418638E+03  0.18654251175E+03  0.00000000000E+00 0. -1.
<mgrwt>
<rscale>  4 0.58028811E+03</rscale>
<asrwt>0</asrwt>
<pdfrwt beam="1">  1        1 0.51063592E-01 0.58028811E+03</pdfrwt>
<pdfrwt beam="2">  1       -1 0.39020180E-01 0.58028811E+03</pdfrwt>
<totfact> 0.49495659E+02</totfact>
</mgrwt>
</event>
<event>
 5    0  0.5719562E-003  0.5909719E+03  0.7546771E-02  0.9924316E-01
         -2   -1    0    0    0  501 -0.00000000000E+00  0.00000000000E+00  0.71638670169E+02  0.71638670169E+02  0.00000000000E+00 0. -1.
          2   -1    0    0  502    0  0.00000000000E+00 -0.00000000000E+00 -0.12187823446E+04  0.12187823446E+04  0.00000000000E+00 0.  1.
         25    1    1    2    0    0  0.56774399801E+02 -0.25449791244E+03 -0.81683167353E+03  0.86650533916E+03  0.12500000000E+03 0.  0.
          1    1    1    2  502    0 -0.81399220585E+00  0.24324722076E+02 -0.11998493401E+02  0.27135189907E+02  0.00000000000E+00 0.  1.
         -1    1    1    2    0  501 -0.55960407595E+02  0.23017319036E+03 -0.31831350750E+03  0.39678048571E+03  0.00000000000E+00 0. -1.
<mgrwt>
<rscale>  4 0.59097190E+03</rscale>
<asrwt>0</asrwt>
<pdfrwt beam="1">  1        2 0.18750496E+00 0.59097190E+03</pdfrwt>
<pdfrwt beam="2">  1       -2 0.11021335E-01 0.59097190E+03</pdfrwt>
<totfact> 0.10939731E+03</totfact>
</mgrwt>
</event>
<event>
 5    0  0.5719562E-003  0.4659512E+03  0.7546771E-02  0.1023069E+00
          1   -1    0    0  502    0  0.00000000000E+00  0.00000000000E+00  0.26542806574E+04  0.26542806574E+04  0.00000000000E+00 0.  1.
         -1   -1    0    0    0  501 -0.00000000000E+00 -0.00000000000E+00 -0.20449089412E+02  0.20449089412E+02  0.00000000000E+00 0. -1.
         25    1    1    2    0    0 -0.14898811711E+03 -0.13487536814E+03  0.96829454800E+03  0.99679895448E+03  0.12500000000E+03 0.  0.
          4    1    1    2  502    0  0.11814132931E+03  0.11746424088E+03  0.12864909194E+04  0.12972332510E+04  0.00000000000E+00 0.  1.
         -4    1    1    2    0  501  0.30846787800E+02  0.17411127255E+02  0.37904610051E+03  0.38069754134E+03  0.00000000000E+00 0. -1.
<mgrwt>
<rscale>  4 0.46595117E+03</rscale>
<asrwt>0</asrwt>
<pdfrwt beam="1">  1        1 0.40835060E+00 0.46595117E+03</pdfrwt>
<pdfrwt beam="2">  1       -1 0.31460159E-02 0.46595117E+03</pdfrwt>
<totfact> 0.42732026E+02</totfact>
</mgrwt>
</event>
<event>
 5    0  0.5719562E-003  0.7570546E+03  0.7546771E-02  0.9624347E-01
         -3   -1    0    0    0  501 -0.00000000000E+00  0.00000000000E+00  0.15748087748E+03  0.15748087748E+03  0.00000000000E+00 0. -1.
          3   -1    0    0  502    0  0.00000000000E+00 -0.00000000000E+00 -0.90984333951E+03  0.90984333951E+03  0.00000000000E+00 0.  1.
         25    1    1    2    0    0  0.50253166221E+02  0.34105066007E+03 -0.23123840167E+03  0.43351716443E+03  0.12500000000E+03 0.  0.
          4    1    1    2  502    0  0.23030778064E+02 -0.20346679596E+03 -0.28844661089E+03  0.35373804027E+03  0.00000000000E+00 0. -1.
         -4    1    1    2    0  501 -0.73283944285E+02 -0.13758386411E+03 -0.23267744947E+03  0.28006901229E+03  0.00000000000E+00 0.  1.
<mgrwt>
<rscale>  4 0.75705463E+03</rscale>
<asrwt>0</asrwt>
<pdfrwt beam="1">  1        3 0.13997590E+00 0.75705463E+03</pdfrwt>
<pdfrwt beam="2">  1       -3 0.24227827E-01 0.75705463E+03</pdfrwt>
<totfact> 0.16506394E+01</totfact>
</mgrwt>
</event>
<event>
 5    0  0.5719562E-003  0.5512675E+03  0.7546771E-02  0.1001201E+00
          1   -1    0    0  502    0  0.00000000000E+00  0.00000000000E+00  0.45424513849E+03  0.45424513849E+03  0.00000000000E+00 0. -1.
         -1   -1    0    0    0  501 -0.00000000000E+00 -0.00000000000E+00 -0.16725323795E+03  0.16725323795E+03  0.00000000000E+00 0.  1.
         25    1    1    2    0    0  0.21799473263E+03 -0.76342769971E+02  0.68686115365E+02  0.27146400208E+03  0.12500000000E+03 0.  0.
          1    1    1    2  502    0 -0.70883829841E+02 -0.73232288953E+00  0.15830067008E+03  0.17344784743E+03  0.00000000000E+00 0. -1.
         -1    1    1    2    0  501 -0.14711090279E+03  0.77075092860E+02  0.60005115102E+02  0.17658652694E+03  0.00000000000E+00 0.  1.
<mgrwt>
<rscale>  4 0.55126752E+03</rscale>
<asrwt>0</asrwt>
<pdfrwt beam="1">  1        1 0.69883867E-01 0.55126752E+03</pdfrwt>
<pdfrwt beam="2">  1       -1 0.25731268E-01 0.55126752E+03</pdfrwt>
<totfact> 0.67911977E+02</totfact>
</mgrwt>
</event>
<event>
 5    0  0.5719562E-003  0.4735766E+03  0.7546771E-02  0.1020916E+00
         -2   -1    0    0    0  501 -0.00000000000E+00  0.00000000000E+00  0.49374784320E+02  0.49374784320E+02  0.00000000000E+00 0. -1.
          2   -1    0    0  502    0  0.00000000000E+00 -0.00000000000E+00 -0.11355736484E+04  0.11355736484E+04  0.00000000000E+00 0.  1.
         25    1    1    2    0    0 -0.20232972125E+03 -0.63154853001E+02 -0.45351842754E+03  0.51597462697E+03  0.12500000000E+03 0.  0.
          4    1    1    2  502    0  0.22296688985E+02  0.46907401464E+01 -0.12698363643E+03  0.12901158593E+03  0.00000000000E+00 0. -1.
         -4    1    1    2    0  501  0.18003303226E+03  0.58464112855E+02 -0.50569680014E+03  0.53996221985E+03  0.00000000000E+00 0.  1.
<mgrwt>
<rscale>  4 0.47357662E+03</rscale>
<asrwt>0</asrwt>
<pdfrwt beam="1">  1        2 0.17470363E+00 0.47357662E+03</pdfrwt>
<pdfrwt beam="2">  1       -2 0.75961208E-02 0.47357662E+03</pdfrwt>
<totfact> 0.22326794E+03</totfact>
</mgrwt>
</event>
<event>
 5    0  0.5719562E-003  0.7072446E+03  0.7546771E-02  0.9704923E-01
          2   -1    0    0  502    0  0.00000000000E+00  0.00000000000E+00  0.67732978773E+03  0.67732978773E+03  0.00000000000E+00 0. -1.
         -2   -1    0    0    0  501 -0.00000000000E+00 -0.00000000000E+00 -0.18462016330E+03  0.18462016330E+03  0.00000000000E+00 0.  1.
         25    1    1    2    0    0 -0.20132875992E+03 -0.21970798137E+03  0.73222354987E+02  0.33134782316E+03  0.12500000000E+03 0.  0.
          2    1    1    2  502    0  0.17126399723E+03  0.23070740596E+03  0.40199055905E+03  0.49411908836E+03  0.00000000000E+00 0. -1.
         -2    1    1    2    0  501  0.30064762691E+02 -0.10999424595E+02  0.17496710396E+02  0.36483039508E+02  0.00000000000E+00 0.  1.
<mgrwt>
<rscale>  4 0.70724461E+03</rscale>
<asrwt>0</asrwt>
<pdfrwt beam="1">  1        2 0.10420458E+00 0.70724461E+03</pdfrwt>
<pdfrwt beam="2">  1       -2 0.28403102E-01 0.70724461E+03</pdfrwt>
<totfact> 0.48760424E+02</totfact>
</mgrwt>
</event>
<event>
 5    0  0.5719562E-003  0.9322951E+03  0.7546771E-02  0.9386088E-01
          4   -1    0    0  502    0  0.00000000000E+00  0.00000000000E+00  0.29747180374E+03  0.29747180374E+03  0.00000000000E+00 0.  1.
         -4   -1    0    0    0  501 -0.00000000000E+00 -0.00000000000E+00 -0.73046760500E+03  0.73046760500E+03  0.00000000000E+00 0. -1.
         25    1    1    2    0    0 -0.11181657318E+03  0.36003708587E+03 -0.19330345885E+03  0.44172488773E+03  0.12500000000E+03 0.  0.
          3    1    1    2  502    0 -0.70514190851E+02  0.33062061606E+01  0.50452693091E+02  0.86767830160E+02  0.00000000000E+00 0.  1.
         -3    1    1    2    0  501  0.18233076403E+03 -0.36334329203E+03 -0.29014503550E+03  0.49944669085E+03  0.00000000000E+00 0. -1.
<mgrwt>
<rscale>  4 0.93229505E+03</rscale>
<asrwt>0</asrwt>
<pdfrwt beam="1">  1        4 0.45764893E-01 0.93229505E+03</pdfrwt>
<pdfrwt beam="2">  1       -4 0.11237963E+00 0.93229505E+03</pdfrwt>
<totfact> 0.57345027E+00</totfact>
</mgrwt>
</event>
<event>
 5    0  0.5719562E-003  0.5821852E+03  0.7546771E-02  0.9943071E-01
          2   -1    0    0  502    0  0.00000000000E+00  0.00000000000E+00  0.31100932668E+03  0.31100932668E+03  0.00000000000E+00 0.  1.
         -2   -1    0    0    0  501 -0.00000000000E+00 -0.00000000000E+00 -0.27245128536E+03  0.27245128536E+03  0.00000000000E+00 0. -1.
         25    1    1    2    0    0  0.15183909936E+03 -0.13157752717E+03  0.15568478549E+03  0.28324990765E+03  0.12500000000E+03 0.  0.
          3    1    1    2  502    0 -0.89888315410E+02  0.37093894661E+02 -0.15333367219E+03  0.18156839289E+03  0.00000000000E+00 0. -1.
         -3    1    1    2    0  501 -0.61950783946E+02  0.94483632506E+02  0.36206928020E+02  0.11864231151E+03  0.00000000000E+00 0.  1.
<mgrwt>
<rscale>  4 0.58218516E+03</rscale>
<asrwt>0</asrwt>
<pdfrwt beam="1">  1        2 0.47847589E-01 0.58218516E+03</pdfrwt>
<pdfrwt beam="2">  1       -2 0.41915582E-01 0.58218516E+03</pdfrwt>
<totfact> 0.57307377E+02</totfact>
</mgrwt>
</event>
<event>
 5    0  0.5719562E-003  0.5680159E+03  0.7546771E-02  0.9974079E-01
          2   -1    0    0  502    0  0.00000000000E+00  0.00000000000E+00  0.26426083021E+04  0.26426083021E+04  0.00000000000E+00 0. -1.
         -2   -1    0    0    0  501 -0.00000000000E+00 -0.00000000000E+00 -0.30523072798E+02  0.30523072798E+02  0.00000000000E+00 0.  1.
         25    1    1    2    0    0  0.18445712085E+03  0.16389095321E+03  0.10812499955E+04  0.11160695439E+04  0.12500000000E+03 0.  0.
          4    1    1    2  502    0 -0.83965456943E+02 -0.14960105870E+02  0.26104633396E+03  0.27462554725E+03  0.00000000000E+00 0.  1.
         -4    1    1    2    0  501 -0.10049166391E+03 -0.14893084734E+03  0.12697888998E+04  0.12824362838E+04  0.00000000000E+00 0. -1.
<mgrwt>
<rscale>  4 0.56801593E+03</rscale>
<asrwt>0</asrwt>
<pdfrwt beam="1">  1        2 0.40655494E+00 0.56801593E+03</pdfrwt>
<pdfrwt beam="2">  1       -2 0.46958595E-02 0.56801593E+03</pdfrwt>
<totfact> 0.69269396E+02</totfact>
</mgrwt>
</event>
<event>
 5    0  0.5719562E-003  0.6824246E+03  0.7546771E-02  0.9747770E-01
          1   -1    0    0  502    0  0.00000000000E+00  0.00000000000E+00  0.26841980640E+04  0.26841980640E+04  0.00000000000E+00 0. -1.
         -1   -1    0    0    0  501 -0.00000000000E+00 -0.00000000000E+00 -0.43374534475E+02  0.43374534475E+02  0.00000000000E+00 0.  1.
         25    1    1    2    0    0  0.20036406644E+03  0.84866960984E+02  0.18262024963E+04  0.18433634253E+04  0.12500000000E+03 0.  0.
          2    1    1    2  502    0 -0.33710532607E+02 -0.28486045469E+02 -0.63587284674E+01  0.44590225642E+02  0.00000000000E+00 0.  1.
         -2    1    1    2    0  501 -0.16665353383E+03 -0.56380915515E+02  0.82097976172E+03  0.83961894758E+03  0.00000000000E+00 0. -1.
<mgrwt>
<rscale>  4 0.68242462E+03</rscale>
<asrwt>0</asrwt>
<pdfrwt beam="1">  1        1 0.41295342E+00 0.68242462E+03</pdfrwt>
<pdfrwt beam="2">  1       -1 0.66730074E-02 0.68242462E+03</pdfrwt>
<totfact> 0.12645235E+02</totfact>
</mgrwt>
</event>
<event>
 5    0  0.5719562E-003  0.5761806E+03  0.7546771E-02  0.9956094E-01
          1   -1    0    0  502    0  0.00000000000E+00  0.00000000000E+00  0.34748300190E+03  0.34748300190E+03  0.00000000000E+00 0. -1.
         -1   -1    0    0    0  501 -0.00000000000E+00 -0.00000000000E+00 -0.23884914148E+03  0.23884914148E+03  0.00000000000E+00 0.  1.
         25    1    1    2    0    0  0.40898472597E+02 -0.24430247725E+03  0.14502450890E+03  0.31307106802E+03  0.12500000000E+03 0.  0.
          4    1    1    2  502    0 -0.87281554730E+01  0.92147996083E+02 -0.67631304967E+02  0.11463606453E+03  0.00000000000E+00 0.  1.
         -4    1    1    2    0  501 -0.32170317124E+02  0.15215448116E+03  0.31240656492E+02  0.15862501083E+03  0.00000000000E+00 0. -1.
<mgrwt>
<rscale>  4 0.57618059E+03</rscale>
<asrwt>0</asrwt>
<pdfrwt beam="1">  1        1 0.53458924E-01 0.57618059E+03</pdfrwt>
<pdfrwt beam="2">  1       -1 0.36746022E-01 0.57618059E+03</pdfrwt>
<totfact> 0.51944340E+02</totfact>
</mgrwt>
</event>
<event>
 5    0  0.5719562E-003  0.6626161E+03  0.7546771E-02  0.9783390E-01
          2   -1    0    0  502    0  0.00000000000E+00  0.00000000000E+00  0.11307361695E+04  0.11307361695E+04  0.00000000000E+00 0. -1.
         -2   -1    0    0    0  501 -0.00000000000E+00 -0.00000000000E+00 -0.97073948762E+02  0.97073948762E+02  0.00000000000E+00 0.  1.
         25    1    1    2    0    0  0.26540398709E+03  0.13079295443E+03  0.36285002688E+03  0.48459386635E+03  0.12500000000E+03 0.  0.
          1    1    1    2  502    0 -0.73687265238E+02 -0.80793849574E+02  0.14719583562E+03  0.18336868111E+03  0.00000000000E+00 0.  1.
         -1    1    1    2    0  501 -0.19171672185E+03 -0.49999104853E+02  0.52361635821E+03  0.55984757078E+03  0.00000000000E+00 0. -1.
<mgrwt>
<rscale>  4 0.66261610E+03</rscale>
<asrwt>0</asrwt>
<pdfrwt beam="1">  1        2 0.17395940E+00 0.66261610E+03</pdfrwt>
<pdfrwt beam="2">  1       -2 0.14934454E-01 0.66261610E+03</pdfrwt>
<totfact> 0.74312851E+02</totfact>
</mgrwt>
</event>
<event>
 5    0  0.5719562E-003  0.5252355E+03  0.7546771E-02  0.1007394E+00
          1   -1    0    0  502    0  0.00000000000E+00  0.00000000000E+00  0.55627747839E+03  0.55627747839E+03  0.00000000000E+00 0.  1.
         -1   -1    0    0    0  501 -0.00000000000E+00 -0.00000000000E+00 -0.12398143964E+03  0.12398143964E+03  0.00000000000E+00 0. -1.
         25    1    1    2    0    0  0.77402650446E+02  0.20939775760E+03  0.10490933970E+03  0.27653130156E+03  0.12500000000E+03 0.  0.
          3    1    1    2  502    0 -0.79445693564E+02 -0.16305657025E+03  0.20987746909E+03  0.27739433188E+03  0.00000000000E+00 0.  1.
         -3    1    1    2    0  501  0.20430431178E+01 -0.46341187348E+02  0.11750922996E+03  0.12633328459E+03  0.00000000000E+00 0. -1.
<mgrwt>
<rscale>  4 0.52523550E+03</rscale>
<asrwt>0</asrwt>
<pdfrwt beam="1">  1        1 0.85581149E-01 0.52523550E+03</pdfrwt>
<pdfrwt beam="2">  1       -1 0.19074068E-01 0.52523550E+03</pdfrwt>
<totfact> 0.85033087E+02</totfact>
</mgrwt>
</event>
<event>
 5    0  0.5719562E-003  0.5179743E+03  0.7546771E-02  0.1009191E+00
          2   -1    0    0  502    0  0.00000000000E+00  0.00000000000E+00  0.12488092136E+04  0.12488092136E+04  0.00000000000E+00 0. -1.
         -2   -1    0    0    0  501 -0.00000000000E+00 -0.00000000000E+00 -0.53710642551E+02  0.53710642551E+02  0.00000000000E+00 0.  1.
         25    1    1    2    0    0  0.23134158552E+03  0.32625087644E+02  0.78787809257E+03  0.83124016643E+03  0.12500000000E+03 0.  0.
          4    1    1    2  502    0 -0.20007177113E+03 -0.15290583425E+02  0.33060782010E+03  0.38673511123E+03  0.00000000000E+00 0.  1.
         -4    1    1    2    0  501 -0.31269814392E+02 -0.17334504219E+02  0.76612658341E+02  0.84544578458E+02  0.00000000000E+00 0. -1.
<mgrwt>
<rscale>  4 0.51797431E+03</rscale>
<asrwt>0</asrwt>
<pdfrwt beam="1">  1        2 0.19212447E+00 0.51797431E+03</pdfrwt>
<pdfrwt beam="2">  1       -2 0.82631767E-02 0.51797431E+03</pdfrwt>
<totfact> 0.16761098E+03</totfact>
</mgrwt>
</event>
<event>
 5    0  0.5719562E-003  0.5423954E+03  0.7546771E-02  0.1003270E+00
         -1   -1    0    0    0  501 -0.00000000000E+00  0.00000000000E+00  0.38924926830E+02  0.38924926830E+02  0.00000000000E+00 0.  1.
          1   -1    0    0  502    0  0.00000000000E+00 -0.00000000000E+00 -0.18894879562E+04  0.18894879562E+04  0.00000000000E+00 0. -1.
         25    1    1    2    0    0  0.18639306269E+02 -0.23783815963E+03 -0.75040899230E+03  0.79727853956E+03  0.12500000000E+03 0.  0.
          3    1    1    2  502    0  0.19180231777E+02  0.12541190309E+03 -0.36379614009E+03  0.38528386713E+03  0.00000000000E+00 0.  1.
         -3    1    1    2    0  501 -0.37819538046E+02  0.11242625654E+03 -0.73635789700E+03  0.74585047636E+03  0.00000000000E+00 0. -1.
<mgrwt>
<rscale>  4 0.54239536E+03</rscale>
<asrwt>0</asrwt>
<pdfrwt beam="1">  1        1 0.29069046E+00 0.54239536E+03</pdfrwt>
<pdfrwt beam="2">  1       -1 0.59884503E-02 0.54239536E+03</pdfrwt>
<totfact> 0.51879512E+02</totfact>
</mgrwt>
</event>
<event>
 5    0  0.5719562E-003  0.4666376E+03  0.7546771E-02  0.1022874E+00
          2   -1    0    0  502    0  0.00000000000E+00  0.00000000000E+00  0.88202168869E+03  0.88202168869E+03  0.00000000000E+00 0.  1.
         -2   -1    0    0    0  501 -0.00000000000E+00 -0.00000000000E+00 -0.61719186426E+02  0.61719186426E+02  0.00000000000E+00 0. -1.
         25    1    1    2    0    0  0.99674605842E+02  0.18017283720E+03  0.49494687662E+03  0.55044953355E+03  0.12500000000E+03 0.  0.
          4    1    1    2  502    0 -0.51757642303E+02 -0.15940056605E+03  0.23017977013E+03  0.28472815205E+03  0.00000000000E+00 0. -1.
         -4    1    1    2    0  501 -0.47916963539E+02 -0.20772271157E+02  0.95175855520E+02  0.10856318952E+03  0.00000000000E+00 0.  1.
<mgrwt>
<rscale>  4 0.46663759E+03</rscale>
<asrwt>0</asrwt>
<pdfrwt beam="1">  1        2 0.13569564E+00 0.46663759E+03</pdfrwt>
<pdfrwt beam="2">  1       -2 0.94952601E-02 0.46663759E+03</pdfrwt>
<totfact> 0.22563318E+03</totfact>
</mgrwt>
</event>
<event>
 5    0  0.5719562E-003  0.6804437E+03  0.7546771E-02  0.9751273E-01
         -2   -1    0    0    0  501 -0.00000000000E+00  0.00000000000E+00  0.65492624635E+02  0.65492624635E+02  0.00000000000E+00 0. -1.
          2   -1    0    0  502    0  0.00000000000E+00 -0.00000000000E+00 -0.17673882035E+04  0.17673882035E+04  0.00000000000E+00 0.  1.
         25    1    1    2    0    0  0.14980940154E+03  0.26868180277E+03 -0.11158054190E+04  0.11641647225E+04  0.12500000000E+03 0.  0.
          2    1    1    2  502    0 -0.38478772934E+02 -0.73050258100E+02 -0.80639389052E+02  0.11541086275E+03  0.00000000000E+00 0. -1.
         -2    1    1    2    0  501 -0.11133062861E+03 -0.19563154467E+03 -0.50545077080E+03  0.55330524292E+03  0.00000000000E+00 0.  1.
<mgrwt>
<rscale>  4 0.68044366E+03</rscale>
<asrwt>0</asrwt>
<pdfrwt beam="1">  1        2 0.27190590E+00 0.68044366E+03</pdfrwt>
<pdfrwt beam="2">  1       -2 0.10075788E-01 0.68044366E+03</pdfrwt>
<totfact> 0.62349206E+02</totfact>
</mgrwt>
</event>
<event>
 5    0  0.5719562E-003  0.6959018E+03  0.7546771E-02  0.9724266E-01
          1   -1    0    0  502    0  0.00000000000E+00  0.00000000000E+00  0.65476557985E+03  0.65476557985E+03  0.00000000000E+00 0. -1.
         -1   -1    0    0    0  501 -0.00000000000E+00 -0.00000000000E+00 -0.18490559401E+03  0.18490559401E+03  0.00000000000E+00 0.  1.
         25    1    1    2    0    0  0.15269766246E+03 -0.26000067092E+03  0.19393028231E+03  0.37967206823E+03  0.12500000000E+03 0.  0.
          4    1    1    2  502    0 -0.16316219393E+03  0.19583181799E+03  0.10241138156E+03  0.27470000644E+03  0.00000000000E+00 0. -1.
         -4    1    1    2    0  501  0.10464531465E+02  0.64168852926E+02  0.17351832197E+03  0.18529909919E+03  0.00000000000E+00 0.  1.
<mgrwt>
<rscale>  4 0.69590177E+03</rscale>
<asrwt>0</asrwt>
<pdfrwt beam="1">  1        1 0.10073317E+00 0.69590177E+03</pdfrwt>
<pdfrwt beam="2">  1       -1 0.28447015E-01 0.69590177E+03</pdfrwt>
<totfact> 0.34121334E+02</totfact>
</mgrwt>
</event>
<event>
 5    0  0.5719562E-003  0.9959066E+03  0.7546771E-02  0.9313046E-01
          2   -1    0    0  502    0  0.00000000000E+00  0.00000000000E+00  0.33516035761E+03  0.33516035761E+03  0.00000000000E+00 0.  1.
         -2   -1    0    0    0  501 -0.00000000000E+00 -0.00000000000E+00 -0.73981745998E+03  0.73981745998E+03  0.00000000000E+00 0. -1.
         25    1    1    2    0    0  0.32857970564E+03  0.30880185709E+03 -0.37782049798E+03  0.60141212043E+03  0.12500000000E+03 0.  0.
          2    1    1    2  502    0 -0.17053494516E+03 -0.22482178185E+03  0.34705246467E+02  0.28430873227E+03  0.00000000000E+00 0.  1.
         -2    1    1    2    0  501 -0.15804476048E+03 -0.83980075245E+02 -0.61541850854E+02  0.18925696489E+03  0.00000000000E+00 0. -1.
<mgrwt>
<rscale>  4 0.99590659E+03</rscale>
<asrwt>0</asrwt>
<pdfrwt beam="1">  1        2 0.51563132E-01 0.99590659E+03</pdfrwt>
<pdfrwt beam="2">  1       -2 0.11381807E+00 0.99590659E+03</pdfrwt>
<totfact> 0.58565496E+01</totfact>
</mgrwt>
</event>
<event>
 5    0  0.5719562E-003  0.6380755E+03  0.7546771E-02  0.9829415E-01
         -2   -1    0    0    0  501 -0.00000000000E+00  0.00000000000E+00  0.10960126712E+03  0.10960126712E+03  0.00000000000E+00 0. -1.
          2   -1    0    0  502    0  0.00000000000E+00 -0.00000000000E+00 -0.92868542481E+03  0.92868542481E+03  0.00000000000E+00 0.  1.
         25    1    1    2    0    0 -0.95830859452E+02  0.19986445578E+03 -0.27435346302E+03  0.37419804513E+03  0.12500000000E+03 0.  0.
          2    1    1    2  502    0 -0.99582519716E+02 -0.98561264993E+01 -0.20841532089E+03  0.23119422018E+03  0.00000000000E+00 0.  1.
         -2    1    1    2    0  501  0.19541337917E+03 -0.19000832928E+03 -0.33631537378E+03  0.43289442662E+03  0.00000000000E+00 0. -1.
<mgrwt>
<rscale>  4 0.63807554E+03</rscale>
<asrwt>0</asrwt>
<pdfrwt beam="1">  1        2 0.14287468E+00 0.63807554E+03</pdfrwt>
<pdfrwt beam="2">  1       -2 0.16861733E-01 0.63807554E+03</pdfrwt>
<totfact> 0.81053958E+02</totfact>
</mgrwt>
</event>
<event>
 5    0  0.5719562E-003  0.5214097E+03  0.7546771E-02  0.1008337E+00
         -1   -1    0    0    0  501 -0.00000000000E+00  0.00000000000E+00  0.56420603034E+02  0.56420603034E+02  0.00000000000E+00 0.  1.
          1   -1    0    0  502    0  0.00000000000E+00 -0.00000000000E+00 -0.12046491240E+04  0.12046491240E+04  0.00000000000E+00 0. -1.
         25    1    1    2    0    0  0.17955764822E+03  0.12462103417E+03 -0.86252532210E+03  0.89852450298E+03  0.12500000000E+03 0.  0.
          3    1    1    2  502    0 -0.93713843867E+02 -0.64380881259E+02 -0.11172690860E+03  0.15940540929E+03  0.00000000000E+00 0.  1.
         -3    1    1    2    0  501 -0.85843804355E+02 -0.60240152907E+02 -0.17397629024E+03  0.20313981475E+03  0.00000000000E+00 0. -1.
<mgrwt>
<rscale>  4 0.52140974E+03</rscale>
<asrwt>0</asrwt>
<pdfrwt beam="1">  1        1 0.18533064E+00 0.52140974E+03</pdfrwt>
<pdfrwt beam="2">  1       -1 0.86800923E-02 0.52140974E+03</pdfrwt>
<totfact> 0.85332590E+02</totfact>
</mgrwt>
</event>
<event>
 5    0  0.5719562E-003  0.6724771E+03  0.7546771E-02  0.9765493E-01
          2   -1    0    0  502    0  0.00000000000E+00  0.00000000000E+00  0.49701900034E+03  0.49701900034E+03  0.00000000000E+00 0. -1.
         -2   -1    0    0    0  501 -0.00000000000E+00 -0.00000000000E+00 -0.22746887616E+03  0.22746887616E+03  0.00000000000E+00 0.  1.
         25    1    1    2    0    0  0.16226155615E+03  0.19931218290E+03  0.25850049365E+03  0.38535913649E+03  0.12500000000E+03 0.  0.
          3    1    1    2  502    0 -0.21566215079E+03 -0.14257075520E+03  0.25852393657E+02  0.25981710832E+03  0.00000000000E+00 0.  1.
         -3    1    1    2    0  501  0.53400594641E+02 -0.56741427706E+02 -0.14802763132E+02  0.79311631697E+02  0.00000000000E+00 0. -1.
<mgrwt>
<rscale>  4 0.67247707E+03</rscale>
<asrwt>0</asrwt>
<pdfrwt beam="1">  1        2 0.76464461E-01 0.67247707E+03</pdfrwt>
<pdfrwt beam="2">  1       -2 0.34995212E-01 0.67247707E+03</pdfrwt>
<totfact> 0.47858708E+02</totfact>
</mgrwt>
</event>
<event>
 5    0  0.5719562E-003  0.5935066E+03  0.7546771E-02  0.9918970E-01
          2   -1    0    0  502    0  0.00000000000E+00  0.00000000000E+00  0.63914825394E+03  0.63914825394E+03  0.00000000000E+00 0.  1.
         -2   -1    0    0    0  501 -0.00000000000E+00 -0.00000000000E+00 -0.13778106711E+03  0.13778106711E+03  0.00000000000E+00 0. -1.
         25    1    1    2    0    0  0.65257535331E+02  0.21555681877E+03  0.87550834789E+02  0.27205410621E+03  0.12500000000E+03 0.  0.
          3    1    1    2  502    0 -0.85600479332E+02 -0.35257118210E+02  0.69800087252E+02  0.11594204857E+03  0.00000000000E+00 0. -1.
         -3    1    1    2    0  501  0.20342944001E+02 -0.18029970056E+03  0.34401626479E+03  0.38893316628E+03  0.00000000000E+00 0.  1.
<mgrwt>
<rscale>  4 0.59350662E+03</rscale>
<asrwt>0</asrwt>
<pdfrwt beam="1">  1        2 0.98330499E-01 0.59350662E+03</pdfrwt>
<pdfrwt beam="2">  1       -2 0.21197088E-01 0.59350662E+03</pdfrwt>
<totfact> 0.88820029E+02</totfact>
</mgrwt>
</event>
