<event>
 5    0  0.3372079E-003  0.5791852E+03  0.7546771E-02  0.9949557E-01
         21   -1    0    0  503  502  0.00000000000E+00  0.00000000000E+00  0.64572754482E+03  0.64572754482E+03  0.00000000000E+00 0. -1.
         21   -1    0    0  501  503 -0.00000000000E+00 -0.00000000000E+00 -0.12987500993E+03  0.12987500993E+03  0.00000000000E+00 0. -1.
         25    1    1    2    0    0 -0.21801183035E+03 -0.16019589458E+03  0.28368747758E+03  0.41145530467E+03  0.12500000000E+03 0.  0.
          4    1    1    2  501    0  0.19864082162E+03  0.12893465603E+03  0.16857549081E+03  0.29068886742E+03  0.00000000000E+00 0. -1.
         -4    1    1    2    0  502  0.19371008733E+02  0.31261238546E+02  0.63589566506E+02  0.73458382661E+02  0.00000000000E+00 0.  1.
<mgrwt>
<rscale>  4 0.57918519E+03</rscale>
<asrwt>0</asrwt>
<pdfrwt beam="1">  1       21 0.99342697E-01 0.57918519E+03</pdfrwt>
<pdfrwt beam="2">  1       21 0.19980771E-01 0.57918519E+03</pdfrwt>
<totfact> 0.16807606E+04</totfact>
</mgrwt>
</event>
<event>
 5    0  0.3372079E-003  0.4668032E+03  0.7546771E-02  0.1022826E+00
         21   -1    0    0  501  502  0.00000000000E+00  0.00000000000E+00  0.31375175230E+02  0.31375175230E+02  0.00000000000E+00 0. -1.
         21   -1    0    0  502  503 -0.00000000000E+00 -0.00000000000E+00 -0.17362867489E+04  0.17362867489E+04  0.00000000000E+00 0. -1.
         25    1    1    2    0    0 -0.84330883864E+02 -0.18784207688E+03 -0.11233652400E+04  0.11488998243E+04  0.12500000000E+03 0.  0.
          4    1    1    2  501    0  0.40770096404E+02  0.12926763055E+03 -0.32762829362E+03  0.35455975498E+03  0.00000000000E+00 0. -1.
         -4    1    1    2    0  503  0.43560787460E+02  0.58574446323E+02 -0.25391804000E+03  0.26420234481E+03  0.00000000000E+00 0.  1.
<mgrwt>
<rscale>  4 0.46680317E+03</rscale>
<asrwt>0</asrwt>
<pdfrwt beam="1">  1       21 0.48269494E-02 0.46680317E+03</pdfrwt>
<pdfrwt beam="2">  1       21 0.26712107E+00 0.46680317E+03</pdfrwt>
<totfact> 0.12813913E+04</totfact>
</mgrwt>
</event>
<event>
 5    0  0.3372079E-003  0.6044800E+03  0.7546771E-02  0.9896155E-01
         21   -1    0    0  503  502  0.00000000000E+00  0.00000000000E+00  0.13050834183E+03  0.13050834183E+03  0.00000000000E+00 0. -1.
         21   -1    0    0  501  503 -0.00000000000E+00 -0.00000000000E+00 -0.69994773633E+03  0.69994773633E+03  0.00000000000E+00 0. -1.
         25    1    1    2    0    0 -0.16455124371E+03 -0.20737604792E+03 -0.41668004492E+03  0.50924374998E+03  0.12500000000E+03 0.  0.
          3    1    1    2  501    0  0.16474305865E+02  0.53547645611E+02 -0.75781031466E+02  0.94241805130E+02  0.00000000000E+00 0.  1.
         -3    1    1    2    0  502  0.14807693784E+03  0.15382840230E+03 -0.76978318105E+02  0.22697052305E+03  0.00000000000E+00 0. -1.
<mgrwt>
<rscale>  4 0.60448000E+03</rscale>
<asrwt>0</asrwt>
<pdfrwt beam="1">  1       21 0.20078207E-01 0.60448000E+03</pdfrwt>
<pdfrwt beam="2">  1       21 0.10768426E+00 0.60448000E+03</pdfrwt>
<totfact> 0.13571032E+04</totfact>
</mgrwt>
</event>
<event>
 5    0  0.3372079E-003  0.5077717E+03  0.7546771E-02  0.1011770E+00
         21   -1    0    0  501  502  0.00000000000E+00  0.00000000000E+00  0.11110952650E+04  0.11110952650E+04  0.00000000000E+00 0.  1.
         21   -1    0    0  502  503 -0.00000000000E+00 -0.00000000000E+00 -0.58013050542E+02  0.58013050542E+02  0.00000000000E+00 0.  1.
         25    1    1    2    0    0 -0.17470685974E+03  0.15249637419E+03  0.53918824849E+03  0.60010548930E+03  0.12500000000E+03 0.  0.
          2    1    1    2  501    0  0.13316280355E+03 -0.15084145726E+03  0.39997324813E+03  0.44773214839E+03  0.00000000000E+00 0.  1.
         -2    1    1    2    0  503  0.41544056182E+02 -0.16549169323E+01  0.11392071782E+03  0.12127067784E+03  0.00000000000E+00 0. -1.
<mgrwt>
<rscale>  4 0.50777170E+03</rscale>
<asrwt>0</asrwt>
<pdfrwt beam="1">  1       21 0.17093772E+00 0.50777170E+03</pdfrwt>
<pdfrwt beam="2">  1       21 0.89250855E-02 0.50777170E+03</pdfrwt>
<totfact> 0.18192102E+04</totfact>
</mgrwt>
</event>
<event>
 5    0  0.3372079E-003  0.6308409E+03  0.7546771E-02  0.9843409E-01
         21   -1    0    0  503  502  0.00000000000E+00  0.00000000000E+00  0.27659387067E+04  0.27659387067E+04  0.00000000000E+00 0.  1.
         21   -1    0    0  501  503 -0.00000000000E+00 -0.00000000000E+00 -0.35969725442E+02  0.35969725442E+02  0.00000000000E+00 0.  1.
         25    1    1    2    0    0  0.19226006085E+03 -0.80151736539E+02  0.19025271871E+04  0.19179736519E+04  0.12500000000E+03 0.  0.
          3    1    1    2  501    0 -0.25431708396E+02 -0.16692278906E+02 -0.37518335181E+01  0.30650941613E+02  0.00000000000E+00 0.  1.
         -3    1    1    2    0  502 -0.16682835246E+03  0.96844015446E+02  0.83119362765E+03  0.85328383856E+03  0.00000000000E+00 0. -1.
<mgrwt>
<rscale>  4 0.63084089E+03</rscale>
<asrwt>0</asrwt>
<pdfrwt beam="1">  1       21 0.42552886E+00 0.63084089E+03</pdfrwt>
<pdfrwt beam="2">  1       21 0.55338061E-02 0.63084089E+03</pdfrwt>
<totfact> 0.97355556E+02</totfact>
</mgrwt>
</event>
<event>
 5    0  0.3372079E-003  0.7400718E+03  0.7546771E-02  0.9651056E-01
         21   -1    0    0  501  502  0.00000000000E+00  0.00000000000E+00  0.12937932047E+04  0.12937932047E+04  0.00000000000E+00 0.  1.
         21   -1    0    0  502  503 -0.00000000000E+00 -0.00000000000E+00 -0.10583343251E+03  0.10583343251E+03  0.00000000000E+00 0.  1.
         25    1    1    2    0    0  0.27575129075E+03 -0.76987298937E+02  0.26174492179E+03  0.40755517741E+03  0.12500000000E+03 0.  0.
          1    1    1    2  501    0 -0.17857182051E+03  0.12903340046E+03  0.76984748269E+03  0.80075130978E+03  0.00000000000E+00 0. -1.
         -1    1    1    2    0  503 -0.97179470239E+02 -0.52046101520E+02  0.15636736776E+03  0.19132015006E+03  0.00000000000E+00 0.  1.
<mgrwt>
<rscale>  4 0.74007182E+03</rscale>
<asrwt>0</asrwt>
<pdfrwt beam="1">  1       21 0.19904510E+00 0.74007182E+03</pdfrwt>
<pdfrwt beam="2">  1       21 0.16282068E-01 0.74007182E+03</pdfrwt>
<totfact> 0.36095641E+03</totfact>
</mgrwt>
</event>
<event>
 5    0  0.3372079E-003  0.6160568E+03  0.7546771E-02  0.9872642E-01
         21   -1    0    0  503  502  0.00000000000E+00  0.00000000000E+00  0.52695328807E+03  0.52695328807E+03  0.00000000000E+00 0. -1.
         21   -1    0    0  501  503 -0.00000000000E+00 -0.00000000000E+00 -0.18005673983E+03  0.18005673983E+03  0.00000000000E+00 0. -1.
         25    1    1    2    0    0 -0.19965970332E+03  0.19884921179E+03  0.12870206487E+03  0.33405722213E+03  0.12500000000E+03 0.  0.
          2    1    1    2  501    0  0.55654646244E+02 -0.24296971093E+02  0.10167153194E+03  0.11842669826E+03  0.00000000000E+00 0. -1.
         -2    1    1    2    0  502  0.14400505707E+03 -0.17455224069E+03  0.11652295143E+03  0.25452610751E+03  0.00000000000E+00 0.  1.
<mgrwt>
<rscale>  4 0.61605679E+03</rscale>
<asrwt>0</asrwt>
<pdfrwt beam="1">  1       21 0.81069736E-01 0.61605679E+03</pdfrwt>
<pdfrwt beam="2">  1       21 0.27701037E-01 0.61605679E+03</pdfrwt>
<totfact> 0.14343666E+04</totfact>
</mgrwt>
</event>
<event>
 5    0  0.3372079E-003  0.9509004E+03  0.7546771E-02  0.9364099E-01
         21   -1    0    0  501  502  0.00000000000E+00  0.00000000000E+00  0.13153906669E+04  0.13153906669E+04  0.00000000000E+00 0.  1.
         21   -1    0    0  502  503 -0.00000000000E+00 -0.00000000000E+00 -0.17185227542E+03  0.17185227542E+03  0.00000000000E+00 0.  1.
         25    1    1    2    0    0 -0.26939488459E+03  0.23153104777E+03  0.91513125813E+03  0.98958094643E+03  0.12500000000E+03 0.  0.
          1    1    1    2  501    0  0.19993018743E+03 -0.27348552672E+03  0.24071315247E+03  0.41558300608E+03  0.00000000000E+00 0.  1.
         -1    1    1    2    0  503  0.69464697158E+02  0.41954478953E+02 -0.12306019156E+02  0.82078989778E+02  0.00000000000E+00 0. -1.
<mgrwt>
<rscale>  4 0.95090037E+03</rscale>
<asrwt>0</asrwt>
<pdfrwt beam="1">  1       21 0.20236779E+00 0.95090037E+03</pdfrwt>
<pdfrwt beam="2">  1       21 0.26438812E-01 0.95090037E+03</pdfrwt>
<totfact> 0.12821692E+03</totfact>
</mgrwt>
</event>
<event>
 5    0  0.3372079E-003  0.6021607E+03  0.7546771E-02  0.9900933E-01
         21   -1    0    0  503  502  0.00000000000E+00  0.00000000000E+00  0.19198000157E+03  0.19198000157E+03  0.00000000000E+00 0. -1.
         21   -1    0    0  501  503 -0.00000000000E+00 -0.00000000000E+00 -0.47218135728E+03  0.47218135728E+03  0.00000000000E+00 0. -1.
         25    1    1    2    0    0  0.80160241112E+02 -0.19195473382E+03  0.51947044763E+02  0.24818497044E+03  0.12500000000E+03 0.  0.
          2    1    1    2  501    0 -0.47328537653E+02  0.20621132364E+03 -0.25812907831E+03  0.33375697977E+03  0.00000000000E+00 0. -1.
         -2    1    1    2    0  502 -0.32831703460E+02 -0.14256589824E+02 -0.74019322156E+02  0.82219408645E+02  0.00000000000E+00 0.  1.
<mgrwt>
<rscale>  4 0.60216070E+03</rscale>
<asrwt>0</asrwt>
<pdfrwt beam="1">  1       21 0.29535385E-01 0.60216070E+03</pdfrwt>
<pdfrwt beam="2">  1       21 0.72643285E-01 0.60216070E+03</pdfrwt>
<totfact> 0.16310875E+04</totfact>
</mgrwt>
</event>
<event>
 5    0  0.3372079E-003  0.1072784E+04  0.7546771E-02  0.9232132E-01
         21   -1    0    0  501  502  0.00000000000E+00  0.00000000000E+00  0.17885068444E+03  0.17885068444E+03  0.00000000000E+00 0. -1.
         21   -1    0    0  502  503 -0.00000000000E+00 -0.00000000000E+00 -0.16086955928E+04  0.16086955928E+04  0.00000000000E+00 0. -1.
         25    1    1    2    0    0 -0.48962489199E+02  0.37715677844E+03 -0.36824437598E+03  0.54394253493E+03  0.12500000000E+03 0.  0.
          1    1    1    2  501    0  0.13950719574E+03  0.33658881956E+02 -0.60904686539E+03  0.62572618791E+03  0.00000000000E+00 0.  1.
         -1    1    1    2    0  503 -0.90544706537E+02 -0.41081566040E+03 -0.45255366696E+03  0.61787755437E+03  0.00000000000E+00 0. -1.
<mgrwt>
<rscale>  4 0.10727839E+04</rscale>
<asrwt>0</asrwt>
<pdfrwt beam="1">  1       21 0.27515489E-01 0.10727839E+04</pdfrwt>
<pdfrwt beam="2">  1       21 0.24749163E+00 0.10727839E+04</pdfrwt>
<totfact> 0.58370739E+02</totfact>
</mgrwt>
</event>
<event>
 5    0  0.3372079E-003  0.5217778E+03  0.7546771E-02  0.1008246E+00
         21   -1    0    0  501  502  0.00000000000E+00  0.00000000000E+00  0.22441753068E+03  0.22441753068E+03  0.00000000000E+00 0.  1.
         21   -1    0    0  502  503 -0.00000000000E+00 -0.00000000000E+00 -0.30328742034E+03  0.30328742034E+03  0.00000000000E+00 0.  1.
         25    1    1    2    0    0  0.21718723266E+03 -0.25364860275E+02 -0.65035428363E+02  0.26013126900E+03  0.12500000000E+03 0.  0.
          4    1    1    2  501    0 -0.18679116035E+02  0.14945000019E+02  0.52763151113E+02  0.57932827627E+02  0.00000000000E+00 0. -1.
         -4    1    1    2    0  503 -0.19850811663E+03  0.10419860256E+02 -0.66597612405E+02  0.20964085440E+03  0.00000000000E+00 0.  1.
<mgrwt>
<rscale>  4 0.52177778E+03</rscale>
<asrwt>0</asrwt>
<pdfrwt beam="1">  1       21 0.34525774E-01 0.52177778E+03</pdfrwt>
<pdfrwt beam="2">  1       21 0.46659603E-01 0.52177778E+03</pdfrwt>
<totfact> 0.31972992E+04</totfact>
</mgrwt>
</event>
<event>
 5    0  0.3372079E-003  0.5702625E+03  0.7546771E-02  0.9969098E-01
         21   -1    0    0  501  502  0.00000000000E+00  0.00000000000E+00  0.16724928326E+04  0.16724928326E+04  0.00000000000E+00 0. -1.
         21   -1    0    0  502  503 -0.00000000000E+00 -0.00000000000E+00 -0.48609970544E+02  0.48609970544E+02  0.00000000000E+00 0. -1.
         25    1    1    2    0    0 -0.14096475337E+03  0.17346595762E+03  0.66135277340E+03  0.70920659263E+03  0.12500000000E+03 0.  0.
          4    1    1    2  501    0  0.50995291835E+02  0.42681871691E+02  0.34760610734E+03  0.35390997135E+03  0.00000000000E+00 0. -1.
         -4    1    1    2    0  503  0.89969461539E+02 -0.21614782931E+03  0.61492398127E+03  0.65798623912E+03  0.00000000000E+00 0.  1.
<mgrwt>
<rscale>  4 0.57026249E+03</rscale>
<asrwt>0</asrwt>
<pdfrwt beam="1">  1       21 0.25730655E+00 0.57026249E+03</pdfrwt>
<pdfrwt beam="2">  1       21 0.74784583E-02 0.57026249E+03</pdfrwt>
<totfact> 0.66008849E+03</totfact>
</mgrwt>
</event>
<event>
 5    0  0.3372079E-003  0.9833382E+03  0.7546771E-02  0.9327010E-01
         21   -1    0    0  501  502  0.00000000000E+00  0.00000000000E+00  0.13349695898E+04  0.13349695898E+04  0.00000000000E+00 0. -1.
         21   -1    0    0  502  503 -0.00000000000E+00 -0.00000000000E+00 -0.18108164787E+03  0.18108164787E+03  0.00000000000E+00 0. -1.
         25    1    1    2    0    0 -0.32113547281E+03  0.14174679421E+03  0.10072886023E+04  0.10739997551E+04  0.12500000000E+03 0.  0.
          2    1    1    2  501    0  0.79853288256E+02 -0.15604583915E+03  0.58655961995E+02  0.18484418692E+03  0.00000000000E+00 0.  1.
         -2    1    1    2    0  503  0.24128218455E+03  0.14299044945E+02  0.87943377591E+02  0.25720729564E+03  0.00000000000E+00 0. -1.
<mgrwt>
<rscale>  4 0.98333818E+03</rscale>
<asrwt>0</asrwt>
<pdfrwt beam="1">  1       21 0.20537993E+00 0.98333818E+03</pdfrwt>
<pdfrwt beam="2">  1       21 0.27858716E-01 0.98333818E+03</pdfrwt>
<totfact> 0.10949027E+03</totfact>
</mgrwt>
</event>
<event>
 5    0  0.3372079E-003  0.6071935E+03  0.7546771E-02  0.9890593E-01
         21   -1    0    0  501  502  0.00000000000E+00  0.00000000000E+00  0.55979089624E+02  0.55979089624E+02  0.00000000000E+00 0. -1.
         21   -1    0    0  502  503 -0.00000000000E+00 -0.00000000000E+00 -0.16465254176E+04  0.16465254176E+04  0.00000000000E+00 0. -1.
         25    1    1    2    0    0  0.14782469079E+03 -0.23892385068E+03 -0.97143080036E+03  0.10189404033E+04  0.12500000000E+03 0.  0.
          3    1    1    2  501    0 -0.27784890598E+02  0.27868484064E+02 -0.42545757219E+02  0.57955103372E+02  0.00000000000E+00 0.  1.
         -3    1    1    2    0  503 -0.12003980019E+03  0.21105536662E+03 -0.57656977039E+03  0.62560900052E+03  0.00000000000E+00 0. -1.
<mgrwt>
<rscale>  4 0.60719352E+03</rscale>
<asrwt>0</asrwt>
<pdfrwt beam="1">  1       21 0.86121672E-02 0.60719352E+03</pdfrwt>
<pdfrwt beam="2">  1       21 0.25331162E+00 0.60719352E+03</pdfrwt>
<totfact> 0.53703092E+03</totfact>
</mgrwt>
</event>
<event>
 5    0  0.3372079E-003  0.6163775E+03  0.7546771E-02  0.9871999E-01
         21   -1    0    0  501  502  0.00000000000E+00  0.00000000000E+00  0.18005528196E+03  0.18005528196E+03  0.00000000000E+00 0. -1.
         21   -1    0    0  502  503 -0.00000000000E+00 -0.00000000000E+00 -0.52750639214E+03  0.52750639214E+03  0.00000000000E+00 0. -1.
         25    1    1    2    0    0  0.71401287204E+02 -0.24950802596E+03 -0.53130212746E+02  0.29291674302E+03  0.12500000000E+03 0.  0.
          1    1    1    2  501    0 -0.50316445396E+02  0.23784627779E+02 -0.10681336908E+03  0.12044313600E+03  0.00000000000E+00 0.  1.
         -1    1    1    2    0  503 -0.21084841808E+02  0.22572339818E+03 -0.18750752835E+03  0.29420179508E+03  0.00000000000E+00 0. -1.
<mgrwt>
<rscale>  4 0.61637752E+03</rscale>
<asrwt>0</asrwt>
<pdfrwt beam="1">  1       21 0.27700813E-01 0.61637752E+03</pdfrwt>
<pdfrwt beam="2">  1       21 0.81154829E-01 0.61637752E+03</pdfrwt>
<totfact> 0.14307905E+04</totfact>
</mgrwt>
</event>
<event>
 5    0  0.3372079E-003  0.6390795E+03  0.7546771E-02  0.9827489E-01
         21   -1    0    0  501  502  0.00000000000E+00  0.00000000000E+00  0.29215429359E+03  0.29215429359E+03  0.00000000000E+00 0. -1.
         21   -1    0    0  502  503 -0.00000000000E+00 -0.00000000000E+00 -0.34949225289E+03  0.34949225289E+03  0.00000000000E+00 0. -1.
         25    1    1    2    0    0  0.25460912117E+03  0.52727099178E+02  0.71863308071E+02  0.29731344843E+03  0.12500000000E+03 0.  0.
          4    1    1    2  501    0 -0.99399250542E+02  0.66588924100E+02 -0.23782986820E+02  0.12198330330E+03  0.00000000000E+00 0. -1.
         -4    1    1    2    0  503 -0.15520987063E+03 -0.11931602328E+03 -0.10541828056E+03  0.22234979475E+03  0.00000000000E+00 0.  1.
<mgrwt>
<rscale>  4 0.63907953E+03</rscale>
<asrwt>0</asrwt>
<pdfrwt beam="1">  1       21 0.44946814E-01 0.63907953E+03</pdfrwt>
<pdfrwt beam="2">  1       21 0.53768039E-01 0.63907953E+03</pdfrwt>
<totfact> 0.13370560E+04</totfact>
</mgrwt>
</event>
<event>
 5    0  0.3372079E-003  0.5409439E+03  0.7546771E-02  0.1003612E+00
         21   -1    0    0  503  502  0.00000000000E+00  0.00000000000E+00  0.84422181621E+03  0.84422181621E+03  0.00000000000E+00 0.  1.
         21   -1    0    0  501  503 -0.00000000000E+00 -0.00000000000E+00 -0.86653858686E+02  0.86653858686E+02  0.00000000000E+00 0.  1.
         25    1    1    2    0    0 -0.12667721725E+03 -0.18966219586E+03  0.27475820787E+03  0.37833310548E+03  0.12500000000E+03 0.  0.
          1    1    1    2  501    0 -0.10614417149E+02  0.10003311910E+03  0.13838572280E+03  0.17108447925E+03  0.00000000000E+00 0.  1.
         -1    1    1    2    0  502  0.13729163440E+03  0.89629076762E+02  0.34442402686E+03  0.38145809017E+03  0.00000000000E+00 0. -1.
<mgrwt>
<rscale>  4 0.54094391E+03</rscale>
<asrwt>0</asrwt>
<pdfrwt beam="1">  1       21 0.12988027E+00 0.54094391E+03</pdfrwt>
<pdfrwt beam="2">  1       21 0.13331363E-01 0.54094391E+03</pdfrwt>
<totfact> 0.18431075E+04</totfact>
</mgrwt>
</event>
<event>
 5    0  0.3372079E-003  0.6613329E+03  0.7546771E-02  0.9785743E-01
         21   -1    0    0  501  502  0.00000000000E+00  0.00000000000E+00  0.34832182448E+03  0.34832182448E+03  0.00000000000E+00 0. -1.
         21   -1    0    0  502  503 -0.00000000000E+00 -0.00000000000E+00 -0.31390595011E+03  0.31390595011E+03  0.00000000000E+00 0. -1.
         25    1    1    2    0    0 -0.15170891430E+03 -0.21838548624E+03  0.19387657800E+02  0.29446340444E+03  0.12500000000E+03 0.  0.
          3    1    1    2  501    0  0.20071150209E+02 -0.10014698590E+02  0.90753512923E+02  0.93484465910E+02  0.00000000000E+00 0. -1.
         -3    1    1    2    0  503  0.13163776409E+03  0.22840018483E+03 -0.75725296356E+02  0.27427990424E+03  0.00000000000E+00 0.  1.
<mgrwt>
<rscale>  4 0.66133288E+03</rscale>
<asrwt>0</asrwt>
<pdfrwt beam="1">  1       21 0.53587973E-01 0.66133288E+03</pdfrwt>
<pdfrwt beam="2">  1       21 0.48293223E-01 0.66133288E+03</pdfrwt>
<totfact> 0.11515675E+04</totfact>
</mgrwt>
</event>
<event>
 5    0  0.3372079E-003  0.4747276E+03  0.7546771E-02  0.1020594E+00
         21   -1    0    0  503  502  0.00000000000E+00  0.00000000000E+00  0.17272024123E+03  0.17272024123E+03  0.00000000000E+00 0. -1.
         21   -1    0    0  501  503 -0.00000000000E+00 -0.00000000000E+00 -0.32620133293E+03  0.32620133293E+03  0.00000000000E+00 0. -1.
         25    1    1    2    0    0  0.16240730007E+03  0.12463572607E+03 -0.54457945268E+02  0.24596923209E+03  0.12500000000E+03 0.  0.
          3    1    1    2  501    0 -0.15084641922E+03 -0.71999321782E+02 -0.10701630117E+03  0.19847174420E+03  0.00000000000E+00 0.  1.
         -3    1    1    2    0  502 -0.11560880855E+02 -0.52636404291E+02  0.79931547472E+01  0.54480597882E+02  0.00000000000E+00 0. -1.
<mgrwt>
<rscale>  4 0.47472760E+03</rscale>
<asrwt>0</asrwt>
<pdfrwt beam="1">  1       21 0.26572345E-01 0.47472760E+03</pdfrwt>
<pdfrwt beam="2">  1       21 0.50184820E-01 0.47472760E+03</pdfrwt>
<totfact> 0.46620148E+04</totfact>
</mgrwt>
</event>
<event>
 5    0  0.3372079E-003  0.8486979E+03  0.7546771E-02  0.9492086E-01
         21   -1    0    0  501  502  0.00000000000E+00  0.00000000000E+00  0.57284288068E+03  0.57284288068E+03  0.00000000000E+00 0.  1.
         21   -1    0    0  502  503 -0.00000000000E+00 -0.00000000000E+00 -0.31434802868E+03  0.31434802868E+03  0.00000000000E+00 0.  1.
         25    1    1    2    0    0  0.48844029702E+01 -0.37029052193E+03  0.32576074684E+03  0.50880643884E+03  0.12500000000E+03 0.  0.
          2    1    1    2  501    0  0.35766758820E+01  0.35202258969E+03 -0.60898278042E+02  0.35726922136E+03  0.00000000000E+00 0.  1.
         -2    1    1    2    0  503 -0.84610788521E+01  0.18267932233E+02 -0.63676167888E+01  0.21115249157E+02  0.00000000000E+00 0. -1.
<mgrwt>
<rscale>  4 0.84869790E+03</rscale>
<asrwt>0</asrwt>
<pdfrwt beam="1">  1       21 0.88129674E-01 0.84869790E+03</pdfrwt>
<pdfrwt beam="2">  1       21 0.48361235E-01 0.84869790E+03</pdfrwt>
<totfact> 0.35804410E+03</totfact>
</mgrwt>
</event>
<event>
 5    0  0.3372079E-003  0.5858909E+03  0.7546771E-02  0.9935118E-01
         21   -1    0    0  501  502  0.00000000000E+00  0.00000000000E+00  0.85700041412E+03  0.85700041412E+03  0.00000000000E+00 0.  1.
         21   -1    0    0  502  503 -0.00000000000E+00 -0.00000000000E+00 -0.10013653094E+03  0.10013653094E+03  0.00000000000E+00 0.  1.
         25    1    1    2    0    0 -0.19992558979E+03  0.15255897397E+03  0.42551118279E+03  0.50983256925E+03  0.12500000000E+03 0.  0.
          4    1    1    2  501    0  0.22440342959E+03 -0.10682319676E+03  0.27040072315E+03  0.36726645050E+03  0.00000000000E+00 0.  1.
         -4    1    1    2    0  503 -0.24477839797E+02 -0.45735777204E+02  0.60951977238E+02  0.80037925303E+02  0.00000000000E+00 0. -1.
<mgrwt>
<rscale>  4 0.58589094E+03</rscale>
<asrwt>0</asrwt>
<pdfrwt beam="1">  1       21 0.13184621E+00 0.58589094E+03</pdfrwt>
<pdfrwt beam="2">  1       21 0.15405621E-01 0.58589094E+03</pdfrwt>
<totfact> 0.13407479E+04</totfact>
</mgrwt>
</event>
<event>
 5    0  0.3372079E-003  0.4761109E+03  0.7546771E-02  0.1020210E+00
         21   -1    0    0  501  502  0.00000000000E+00  0.00000000000E+00  0.26959111053E+03  0.26959111053E+03  0.00000000000E+00 0. -1.
         21   -1    0    0  502  503 -0.00000000000E+00 -0.00000000000E+00 -0.21020870248E+03  0.21020870248E+03  0.00000000000E+00 0. -1.
         25    1    1    2    0    0 -0.77465072915E+02  0.19248833308E+03  0.34429917068E+02  0.24466919520E+03  0.12500000000E+03 0.  0.
          1    1    1    2  501    0  0.86949587222E+02 -0.78502534039E+02  0.28994265079E+02  0.12067951763E+03  0.00000000000E+00 0.  1.
         -1    1    1    2    0  503 -0.94845143073E+01 -0.11398579904E+03 -0.40417740966E+01  0.11445110018E+03  0.00000000000E+00 0. -1.
<mgrwt>
<rscale>  4 0.47611090E+03</rscale>
<asrwt>0</asrwt>
<pdfrwt beam="1">  1       21 0.41475556E-01 0.47611090E+03</pdfrwt>
<pdfrwt beam="2">  1       21 0.32339800E-01 0.47611090E+03</pdfrwt>
<totfact> 0.47117063E+04</totfact>
</mgrwt>
</event>
<event>
 5    0  0.3372079E-003  0.5105087E+03  0.7546771E-02  0.1011072E+00
         21   -1    0    0  501  502  0.00000000000E+00  0.00000000000E+00  0.12948104063E+04  0.12948104063E+04  0.00000000000E+00 0.  1.
         21   -1    0    0  502  503 -0.00000000000E+00 -0.00000000000E+00 -0.50319950419E+02  0.50319950419E+02  0.00000000000E+00 0.  1.
         25    1    1    2    0    0 -0.15836673656E+03 -0.15397845683E+03  0.42580835662E+03  0.49570872999E+03  0.12500000000E+03 0.  0.
          4    1    1    2  501    0  0.10421280879E+02  0.26395711985E+02  0.15531427384E+03  0.15788559265E+03  0.00000000000E+00 0. -1.
         -4    1    1    2    0  503  0.14794545568E+03  0.12758274484E+03  0.66336782539E+03  0.69153603405E+03  0.00000000000E+00 0.  1.
<mgrwt>
<rscale>  4 0.51050875E+03</rscale>
<asrwt>0</asrwt>
<pdfrwt beam="1">  1       21 0.19920158E+00 0.51050875E+03</pdfrwt>
<pdfrwt beam="2">  1       21 0.77415318E-02 0.51050875E+03</pdfrwt>
<totfact> 0.14865181E+04</totfact>
</mgrwt>
</event>
<event>
 5    0  0.3372079E-003  0.5641213E+03  0.7546771E-02  0.9982772E-01
         21   -1    0    0  501  502  0.00000000000E+00  0.00000000000E+00  0.34342933318E+03  0.34342933318E+03  0.00000000000E+00 0. -1.
         21   -1    0    0  502  503 -0.00000000000E+00 -0.00000000000E+00 -0.23165813495E+03  0.23165813495E+03  0.00000000000E+00 0. -1.
         25    1    1    2    0    0 -0.31889948548E+02  0.22214819429E+03 -0.57924923128E+02  0.26333834845E+03  0.12500000000E+03 0.  0.
          4    1    1    2  501    0  0.50093620445E+02 -0.16107109253E+03  0.18056467705E+03  0.24709688435E+03  0.00000000000E+00 0.  1.
         -4    1    1    2    0  503 -0.18203671897E+02 -0.61077101759E+02 -0.10868555693E+02  0.64652235327E+02  0.00000000000E+00 0. -1.
<mgrwt>
<rscale>  4 0.56412126E+03</rscale>
<asrwt>0</asrwt>
<pdfrwt beam="1">  1       21 0.52835282E-01 0.56412126E+03</pdfrwt>
<pdfrwt beam="2">  1       21 0.35639713E-01 0.56412126E+03</pdfrwt>
<totfact> 0.22796054E+04</totfact>
</mgrwt>
</event>
<event>
 5    0  0.3372079E-003  0.5151648E+03  0.7546771E-02  0.1009895E+00
         21   -1    0    0  501  502  0.00000000000E+00  0.00000000000E+00  0.22326143471E+03  0.22326143471E+03  0.00000000000E+00 0. -1.
         21   -1    0    0  502  503 -0.00000000000E+00 -0.00000000000E+00 -0.29717938324E+03  0.29717938324E+03  0.00000000000E+00 0. -1.
         25    1    1    2    0    0 -0.14714071249E+03 -0.14060857206E+03 -0.15399311602E+03  0.28418310926E+03  0.12500000000E+03 0.  0.
          2    1    1    2  501    0  0.10220879168E+03  0.48857814035E+02  0.70993252950E+02  0.13369280105E+03  0.00000000000E+00 0. -1.
         -2    1    1    2    0  503  0.44931920804E+02  0.91750758028E+02  0.90819145424E+01  0.10256490763E+03  0.00000000000E+00 0.  1.
<mgrwt>
<rscale>  4 0.51516481E+03</rscale>
<asrwt>0</asrwt>
<pdfrwt beam="1">  1       21 0.34347913E-01 0.51516481E+03</pdfrwt>
<pdfrwt beam="2">  1       21 0.45719905E-01 0.51516481E+03</pdfrwt>
<totfact> 0.33771093E+04</totfact>
</mgrwt>
</event>
<event>
 5    0  0.3372079E-003  0.5023589E+03  0.7546771E-02  0.1013165E+00
         21   -1    0    0  503  502  0.00000000000E+00  0.00000000000E+00  0.13672005167E+03  0.13672005167E+03  0.00000000000E+00 0.  1.
         21   -1    0    0  501  503 -0.00000000000E+00 -0.00000000000E+00 -0.46146205661E+03  0.46146205661E+03  0.00000000000E+00 0.  1.
         25    1    1    2    0    0 -0.15652033064E+03 -0.16197202483E+03 -0.11573930083E+03  0.28240774863E+03  0.12500000000E+03 0.  0.
          3    1    1    2  501    0  0.23186861677E+02 -0.30912449097E+01 -0.12257757617E+02  0.26409069869E+02  0.00000000000E+00 0. -1.
         -3    1    1    2    0  502  0.13333346896E+03  0.16506326974E+03 -0.19674494649E+03  0.28936528978E+03  0.00000000000E+00 0.  1.
<mgrwt>
<rscale>  4 0.50235890E+03</rscale>
<asrwt>0</asrwt>
<pdfrwt beam="1">  1       21 0.21033854E-01 0.50235890E+03</pdfrwt>
<pdfrwt beam="2">  1       21 0.70994161E-01 0.50235890E+03</pdfrwt>
<totfact> 0.34055762E+04</totfact>
</mgrwt>
</event>
<event>
 5    0  0.3372079E-003  0.4897029E+03  0.7546771E-02  0.1016502E+00
         21   -1    0    0  501  502  0.00000000000E+00  0.00000000000E+00  0.78331042334E+02  0.78331042334E+02  0.00000000000E+00 0.  1.
         21   -1    0    0  502  503 -0.00000000000E+00 -0.00000000000E+00 -0.76537016648E+03  0.76537016648E+03  0.00000000000E+00 0.  1.
         25    1    1    2    0    0 -0.21473643763E+03  0.26306646086E+00 -0.37797642625E+03  0.45233061543E+03  0.12500000000E+03 0.  0.
          2    1    1    2  501    0  0.18498676089E+03  0.40645669990E+02 -0.24897477872E+03  0.31282680933E+03  0.00000000000E+00 0.  1.
         -2    1    1    2    0  503  0.29749676740E+02 -0.40908736451E+02 -0.60087919167E+02  0.78543784057E+02  0.00000000000E+00 0. -1.
<mgrwt>
<rscale>  4 0.48970294E+03</rscale>
<asrwt>0</asrwt>
<pdfrwt beam="1">  1       21 0.12050929E-01 0.48970294E+03</pdfrwt>
<pdfrwt beam="2">  1       21 0.11774926E+00 0.48970294E+03</pdfrwt>
<totfact> 0.28898391E+04</totfact>
</mgrwt>
</event>
<event>
 5    0  0.3372079E-003  0.5347284E+03  0.7546771E-02  0.1005092E+00
         21   -1    0    0  501  502  0.00000000000E+00  0.00000000000E+00  0.22133605582E+03  0.22133605582E+03  0.00000000000E+00 0. -1.
         21   -1    0    0  502  503 -0.00000000000E+00 -0.00000000000E+00 -0.32296413233E+03  0.32296413233E+03  0.00000000000E+00 0. -1.
         25    1    1    2    0    0  0.13849534679E+02  0.24859366199E+03 -0.70548585623E+02  0.28738949411E+03  0.12500000000E+03 0.  0.
          4    1    1    2  501    0  0.19274949613E+02 -0.14464710106E+03 -0.17372341687E+02  0.14695613558E+03  0.00000000000E+00 0. -1.
         -4    1    1    2    0  503 -0.33124484292E+02 -0.10394656093E+03 -0.13707149202E+02  0.10995455847E+03  0.00000000000E+00 0.  1.
<mgrwt>
<rscale>  4 0.53472837E+03</rscale>
<asrwt>0</asrwt>
<pdfrwt beam="1">  1       21 0.34051701E-01 0.53472837E+03</pdfrwt>
<pdfrwt beam="2">  1       21 0.49686789E-01 0.53472837E+03</pdfrwt>
<totfact> 0.28698229E+04</totfact>
</mgrwt>
</event>
<event>
 5    0  0.3372079E-003  0.5101241E+03  0.7546771E-02  0.1011170E+00
         21   -1    0    0  501  502  0.00000000000E+00  0.00000000000E+00  0.54481289891E+03  0.54481289891E+03  0.00000000000E+00 0. -1.
         21   -1    0    0  502  503 -0.00000000000E+00 -0.00000000000E+00 -0.11941100900E+03  0.11941100900E+03  0.00000000000E+00 0. -1.
         25    1    1    2    0    0  0.17843097241E+03 -0.91080871400E+02  0.10171102353E+03  0.25710594967E+03  0.12500000000E+03 0.  0.
          4    1    1    2  501    0 -0.63855655582E+02 -0.34296981285E+01  0.21157370229E+03  0.22102655741E+03  0.00000000000E+00 0.  1.
         -4    1    1    2    0  503 -0.11457531682E+03  0.94510569529E+02  0.11211716410E+03  0.18609140083E+03  0.00000000000E+00 0. -1.
<mgrwt>
<rscale>  4 0.51012413E+03</rscale>
<asrwt>0</asrwt>
<pdfrwt beam="1">  1       21 0.83817368E-01 0.51012413E+03</pdfrwt>
<pdfrwt beam="2">  1       21 0.18370925E-01 0.51012413E+03</pdfrwt>
<totfact> 0.30030627E+04</totfact>
</mgrwt>
</event>
<event>
 5    0  0.3372079E-003  0.6543917E+03  0.7546771E-02  0.9798573E-01
         21   -1    0    0  503  502  0.00000000000E+00  0.00000000000E+00  0.43018997331E+03  0.43018997331E+03  0.00000000000E+00 0.  1.
         21   -1    0    0  501  503 -0.00000000000E+00 -0.00000000000E+00 -0.24886008272E+03  0.24886008272E+03  0.00000000000E+00 0.  1.
         25    1    1    2    0    0  0.14369171884E+02  0.29250437078E+03  0.53636750806E+02  0.32290429087E+03  0.12500000000E+03 0.  0.
          3    1    1    2  501    0 -0.42108889919E+02 -0.29120016973E+03  0.86893214436E+02  0.30679166902E+03  0.00000000000E+00 0.  1.
         -3    1    1    2    0  502  0.27739718035E+02 -0.13042010467E+01  0.40799925354E+02  0.49354096142E+02  0.00000000000E+00 0. -1.
<mgrwt>
<rscale>  4 0.65439166E+03</rscale>
<asrwt>0</asrwt>
<pdfrwt beam="1">  1       21 0.66183073E-01 0.65439166E+03</pdfrwt>
<pdfrwt beam="2">  1       21 0.38286167E-01 0.65439166E+03</pdfrwt>
<totfact> 0.11778837E+04</totfact>
</mgrwt>
</event>
<event>
 5    0  0.3372079E-003  0.4873993E+03  0.7546771E-02  0.1017121E+00
         21   -1    0    0  501  502  0.00000000000E+00  0.00000000000E+00  0.31886110267E+03  0.31886110267E+03  0.00000000000E+00 0. -1.
         21   -1    0    0  502  503 -0.00000000000E+00 -0.00000000000E+00 -0.18625512139E+03  0.18625512139E+03  0.00000000000E+00 0. -1.
         25    1    1    2    0    0  0.16305160870E+03  0.12517449378E+03  0.18215988905E+00  0.24058161645E+03  0.12500000000E+03 0.  0.
          2    1    1    2  501    0 -0.83806630849E+02 -0.90161190562E+01  0.74363896855E+02  0.11240476383E+03  0.00000000000E+00 0.  1.
         -2    1    1    2    0  503 -0.79244977846E+02 -0.11615837472E+03  0.58059924533E+02  0.15212984378E+03  0.00000000000E+00 0. -1.
<mgrwt>
<rscale>  4 0.48739928E+03</rscale>
<asrwt>0</asrwt>
<pdfrwt beam="1">  1       21 0.49055554E-01 0.48739928E+03</pdfrwt>
<pdfrwt beam="2">  1       21 0.28654634E-01 0.48739928E+03</pdfrwt>
<totfact> 0.42062536E+04</totfact>
</mgrwt>
</event>
<event>
 5    0  0.3372079E-003  0.7001341E+03  0.7546771E-02  0.9717003E-01
         21   -1    0    0  501  502  0.00000000000E+00  0.00000000000E+00  0.56636583610E+03  0.56636583610E+03  0.00000000000E+00 0. -1.
         21   -1    0    0  502  503 -0.00000000000E+00 -0.00000000000E+00 -0.21637414714E+03  0.21637414714E+03  0.00000000000E+00 0. -1.
         25    1    1    2    0    0 -0.12674014183E+03  0.22206615785E+03 -0.44271277426E+02  0.28803018595E+03  0.12500000000E+03 0.  0.
          2    1    1    2  501    0  0.16163999515E+02 -0.20483608094E+02  0.17522210272E+03  0.17715427842E+03  0.00000000000E+00 0.  1.
         -2    1    1    2    0  503  0.11057614231E+03 -0.20158254976E+03  0.21904086366E+03  0.31755551888E+03  0.00000000000E+00 0. -1.
<mgrwt>
<rscale>  4 0.70013406E+03</rscale>
<asrwt>0</asrwt>
<pdfrwt beam="1">  1       21 0.87133205E-01 0.70013406E+03</pdfrwt>
<pdfrwt beam="2">  1       21 0.33288331E-01 0.70013406E+03</pdfrwt>
<totfact> 0.82356750E+03</totfact>
</mgrwt>
</event>
<event>
 5    0  0.3372079E-003  0.4730947E+03  0.7546771E-02  0.1021050E+00
         21   -1    0    0  503  502  0.00000000000E+00  0.00000000000E+00  0.10553241705E+04  0.10553241705E+04  0.00000000000E+00 0. -1.
         21   -1    0    0  501  503 -0.00000000000E+00 -0.00000000000E+00 -0.53021280817E+02  0.53021280817E+02  0.00000000000E+00 0. -1.
         25    1    1    2    0    0 -0.14907715635E+02 -0.21106499068E+03  0.52566297690E+03  0.58027341449E+03  0.12500000000E+03 0.  0.
          1    1    1    2  501    0 -0.26782098479E+02  0.10997518022E+03  0.29612602516E+03  0.31702120409E+03  0.00000000000E+00 0. -1.
         -1    1    1    2    0  502  0.41689814114E+02  0.10108981045E+03  0.18051388764E+03  0.21105083276E+03  0.00000000000E+00 0.  1.
<mgrwt>
<rscale>  4 0.47309466E+03</rscale>
<asrwt>0</asrwt>
<pdfrwt beam="1">  1       21 0.16235755E+00 0.47309466E+03</pdfrwt>
<pdfrwt beam="2">  1       21 0.81571209E-02 0.47309466E+03</pdfrwt>
<totfact> 0.24949561E+04</totfact>
</mgrwt>
</event>
<event>
 5    0  0.3372079E-003  0.6599053E+03  0.7546771E-02  0.9788368E-01
         21   -1    0    0  503  502  0.00000000000E+00  0.00000000000E+00  0.16169024158E+03  0.16169024158E+03  0.00000000000E+00 0.  1.
         21   -1    0    0  501  503 -0.00000000000E+00 -0.00000000000E+00 -0.67331670345E+03  0.67331670345E+03  0.00000000000E+00 0.  1.
         25    1    1    2    0    0  0.25838788202E+03  0.15935215569E+03 -0.24815134568E+03  0.41153553608E+03  0.12500000000E+03 0.  0.
          1    1    1    2  501    0 -0.22419025038E+02 -0.10421540915E+01 -0.85009277638E+02  0.87921988452E+02  0.00000000000E+00 0. -1.
         -1    1    1    2    0  502 -0.23596885698E+03 -0.15831000160E+03 -0.17846583855E+03  0.33554942050E+03  0.00000000000E+00 0.  1.
<mgrwt>
<rscale>  4 0.65990527E+03</rscale>
<asrwt>0</asrwt>
<pdfrwt beam="1">  1       21 0.24875421E-01 0.65990527E+03</pdfrwt>
<pdfrwt beam="2">  1       21 0.10358719E+00 0.65990527E+03</pdfrwt>
<totfact> 0.97561479E+03</totfact>
</mgrwt>
</event>
<event>
 5    0  0.3372079E-003  0.5472938E+03  0.7546771E-02  0.1002122E+00
         21   -1    0    0  503  502  0.00000000000E+00  0.00000000000E+00  0.11426594040E+04  0.11426594040E+04  0.00000000000E+00 0.  1.
         21   -1    0    0  501  503 -0.00000000000E+00 -0.00000000000E+00 -0.65533630455E+02  0.65533630455E+02  0.00000000000E+00 0.  1.
         25    1    1    2    0    0  0.17274752684E+03  0.13786641278E+03  0.57557478058E+03  0.62909473360E+03  0.12500000000E+03 0.  0.
          3    1    1    2  501    0 -0.21292577758E+02  0.55712403357E+00 -0.13132963247E+02  0.25023168833E+02  0.00000000000E+00 0. -1.
         -3    1    1    2    0  502 -0.15145494908E+03 -0.13842353682E+03  0.51468395623E+03  0.55407513204E+03  0.00000000000E+00 0.  1.
<mgrwt>
<rscale>  4 0.54729378E+03</rscale>
<asrwt>0</asrwt>
<pdfrwt beam="1">  1       21 0.17579374E+00 0.54729378E+03</pdfrwt>
<pdfrwt beam="2">  1       21 0.10082098E-01 0.54729378E+03</pdfrwt>
<totfact> 0.13333645E+04</totfact>
</mgrwt>
</event>
<event>
 5    0  0.3372079E-003  0.4619823E+03  0.7546771E-02  0.1024208E+00
         21   -1    0    0  503  502  0.00000000000E+00  0.00000000000E+00  0.35798238573E+02  0.35798238573E+02  0.00000000000E+00 0. -1.
         21   -1    0    0  501  503 -0.00000000000E+00 -0.00000000000E+00 -0.14904897490E+04  0.14904897490E+04  0.00000000000E+00 0. -1.
         25    1    1    2    0    0  0.85377242231E+02  0.18664522225E+03 -0.91560743734E+03  0.94661908484E+03  0.12500000000E+03 0.  0.
          4    1    1    2  501    0 -0.75791377742E+02 -0.14772298973E+03 -0.48294132158E+03  0.51068457459E+03  0.00000000000E+00 0. -1.
         -4    1    1    2    0  502 -0.95858644884E+01 -0.38922232528E+02 -0.56142751550E+02  0.68984328181E+02  0.00000000000E+00 0.  1.
<mgrwt>
<rscale>  4 0.46198228E+03</rscale>
<asrwt>0</asrwt>
<pdfrwt beam="1">  1       21 0.55074219E-02 0.46198228E+03</pdfrwt>
<pdfrwt beam="2">  1       21 0.22930609E+00 0.46198228E+03</pdfrwt>
<totfact> 0.17489254E+04</totfact>
</mgrwt>
</event>
<event>
 5    0  0.3372079E-003  0.5434750E+03  0.7546771E-02  0.1003016E+00
         21   -1    0    0  501  502  0.00000000000E+00  0.00000000000E+00  0.24629423719E+03  0.24629423719E+03  0.00000000000E+00 0. -1.
         21   -1    0    0  502  503 -0.00000000000E+00 -0.00000000000E+00 -0.29980912879E+03  0.29980912879E+03  0.00000000000E+00 0. -1.
         25    1    1    2    0    0  0.25094130941E+03 -0.28078728200E+01 -0.61954568896E+02  0.28712853137E+03  0.12500000000E+03 0.  0.
          3    1    1    2  501    0 -0.11414856682E+03  0.32640811378E+02  0.75572797253E+01  0.11896398762E+03  0.00000000000E+00 0. -1.
         -3    1    1    2    0  503 -0.13679274259E+03 -0.29832938558E+02  0.88239756697E+00  0.14001084699E+03  0.00000000000E+00 0.  1.
<mgrwt>
<rscale>  4 0.54347497E+03</rscale>
<asrwt>0</asrwt>
<pdfrwt beam="1">  1       21 0.37891421E-01 0.54347497E+03</pdfrwt>
<pdfrwt beam="2">  1       21 0.46124481E-01 0.54347497E+03</pdfrwt>
<totfact> 0.26982047E+04</totfact>
</mgrwt>
</event>
<event>
 5    0  0.3372079E-003  0.5021992E+03  0.7546771E-02  0.1013206E+00
         21   -1    0    0  503  502  0.00000000000E+00  0.00000000000E+00  0.11246785463E+04  0.11246785463E+04  0.00000000000E+00 0. -1.
         21   -1    0    0  501  503 -0.00000000000E+00 -0.00000000000E+00 -0.56061354810E+02  0.56061354810E+02  0.00000000000E+00 0. -1.
         25    1    1    2    0    0 -0.14872540863E+03  0.13515391170E+03  0.77155818083E+03  0.80703956126E+03  0.12500000000E+03 0.  0.
          2    1    1    2  501    0  0.25741429729E+02 -0.47974671408E+02  0.19473497853E+02  0.57822205249E+02  0.00000000000E+00 0.  1.
         -2    1    1    2    0  502  0.12298397890E+03 -0.87179240295E+02  0.27758551283E+03  0.31587813464E+03  0.00000000000E+00 0. -1.
<mgrwt>
<rscale>  4 0.50219918E+03</rscale>
<asrwt>0</asrwt>
<pdfrwt beam="1">  1       21 0.17302745E+00 0.50219918E+03</pdfrwt>
<pdfrwt beam="2">  1       21 0.86248247E-02 0.50219918E+03</pdfrwt>
<totfact> 0.18704114E+04</totfact>
</mgrwt>
</event>
<event>
 5    0  0.3372079E-003  0.7337156E+03  0.7546771E-02  0.9661250E-01
         21   -1    0    0  503  502  0.00000000000E+00  0.00000000000E+00  0.57297502383E+03  0.57297502383E+03  0.00000000000E+00 0. -1.
         21   -1    0    0  501  503 -0.00000000000E+00 -0.00000000000E+00 -0.23488744341E+03  0.23488744341E+03  0.00000000000E+00 0. -1.
         25    1    1    2    0    0  0.22087747212E+03 -0.68348178822E+02 -0.98717323927E+02  0.28076403132E+03  0.12500000000E+03 0.  0.
          3    1    1    2  501    0 -0.13411064390E+03  0.10979548652E+03  0.16706278560E+03  0.24072949134E+03  0.00000000000E+00 0. -1.
         -3    1    1    2    0  502 -0.86766828219E+02 -0.41447307697E+02  0.26974211874E+03  0.28636894457E+03  0.00000000000E+00 0.  1.
<mgrwt>
<rscale>  4 0.73371558E+03</rscale>
<asrwt>0</asrwt>
<pdfrwt beam="1">  1       21 0.88150003E-01 0.73371558E+03</pdfrwt>
<pdfrwt beam="2">  1       21 0.36136530E-01 0.73371558E+03</pdfrwt>
<totfact> 0.67323745E+03</totfact>
</mgrwt>
</event>
<event>
 5    0  0.3372079E-003  0.5114319E+03  0.7546771E-02  0.1010837E+00
         21   -1    0    0  501  502  0.00000000000E+00  0.00000000000E+00  0.44985081304E+03  0.44985081304E+03  0.00000000000E+00 0.  1.
         21   -1    0    0  502  503 -0.00000000000E+00 -0.00000000000E+00 -0.14536073583E+03  0.14536073583E+03  0.00000000000E+00 0.  1.
         25    1    1    2    0    0  0.16265093580E+03 -0.15234717675E+03  0.19509393060E+03  0.32148348470E+03  0.12500000000E+03 0.  0.
          2    1    1    2  501    0 -0.32280963715E+02 -0.13380789293E+02  0.36731912699E+02  0.50698516260E+02  0.00000000000E+00 0. -1.
         -2    1    1    2    0  503 -0.13036997208E+03  0.16572796604E+03  0.72664233915E+02  0.22302954791E+03  0.00000000000E+00 0.  1.
<mgrwt>
<rscale>  4 0.51143189E+03</rscale>
<asrwt>0</asrwt>
<pdfrwt beam="1">  1       21 0.69207817E-01 0.51143189E+03</pdfrwt>
<pdfrwt beam="2">  1       21 0.22363190E-01 0.51143189E+03</pdfrwt>
<totfact> 0.32002239E+04</totfact>
</mgrwt>
</event>
<event>
 5    0  0.3372079E-003  0.5716797E+03  0.7546771E-02  0.9965969E-01
         21   -1    0    0  501  502  0.00000000000E+00  0.00000000000E+00  0.17780922672E+03  0.17780922672E+03  0.00000000000E+00 0. -1.
         21   -1    0    0  502  503 -0.00000000000E+00 -0.00000000000E+00 -0.45950608877E+03  0.45950608877E+03  0.00000000000E+00 0. -1.
         25    1    1    2    0    0 -0.19137998371E+03  0.16756945507E+03 -0.15045545729E+03  0.32088575079E+03  0.12500000000E+03 0.  0.
          3    1    1    2  501    0  0.80108389950E+02 -0.47300756777E+01 -0.13238014336E+01  0.80258832577E+02  0.00000000000E+00 0. -1.
         -3    1    1    2    0  503  0.11127159376E+03 -0.16283937939E+03 -0.12991760333E+03  0.23617073212E+03  0.00000000000E+00 0.  1.
<mgrwt>
<rscale>  4 0.57167971E+03</rscale>
<asrwt>0</asrwt>
<pdfrwt beam="1">  1       21 0.27355266E-01 0.57167971E+03</pdfrwt>
<pdfrwt beam="2">  1       21 0.70693243E-01 0.57167971E+03</pdfrwt>
<totfact> 0.20331635E+04</totfact>
</mgrwt>
</event>
<event>
 5    0  0.3372079E-003  0.5702460E+03  0.7546771E-02  0.9969134E-01
         21   -1    0    0  501  502  0.00000000000E+00  0.00000000000E+00  0.57372605741E+03  0.57372605741E+03  0.00000000000E+00 0.  1.
         21   -1    0    0  502  503 -0.00000000000E+00 -0.00000000000E+00 -0.14169676047E+03  0.14169676047E+03  0.00000000000E+00 0.  1.
         25    1    1    2    0    0  0.60296413463E+01 -0.21548894946E+03  0.74869689903E+02  0.26019668403E+03  0.12500000000E+03 0.  0.
          1    1    1    2  501    0 -0.65320636015E+02  0.21134236692E+03  0.30025456672E+03  0.37294126398E+03  0.00000000000E+00 0.  1.
         -1    1    1    2    0  503  0.59290994668E+02  0.41465825397E+01  0.56905040316E+02  0.82284869866E+02  0.00000000000E+00 0. -1.
<mgrwt>
<rscale>  4 0.57024600E+03</rscale>
<asrwt>0</asrwt>
<pdfrwt beam="1">  1       21 0.88265546E-01 0.57024600E+03</pdfrwt>
<pdfrwt beam="2">  1       21 0.21799502E-01 0.57024600E+03</pdfrwt>
<totfact> 0.18928200E+04</totfact>
</mgrwt>
</event>
<event>
 5    0  0.3372079E-003  0.7503837E+03  0.7546771E-02  0.9634749E-01
         21   -1    0    0  501  502  0.00000000000E+00  0.00000000000E+00  0.11148176957E+03  0.11148176957E+03  0.00000000000E+00 0. -1.
         21   -1    0    0  502  503 -0.00000000000E+00 -0.00000000000E+00 -0.12627080109E+04  0.12627080109E+04  0.00000000000E+00 0. -1.
         25    1    1    2    0    0 -0.30648407441E+03 -0.54683714828E+02 -0.66389156150E+03  0.74384124782E+03  0.12500000000E+03 0.  0.
          4    1    1    2  501    0  0.26340310050E+02 -0.69562544923E+02 -0.30832548781E+02  0.80519597950E+02  0.00000000000E+00 0.  1.
         -4    1    1    2    0  503  0.28014376436E+03  0.12424625975E+03 -0.45650213101E+03  0.54982893466E+03  0.00000000000E+00 0. -1.
<mgrwt>
<rscale>  4 0.75038370E+03</rscale>
<asrwt>0</asrwt>
<pdfrwt beam="1">  1       21 0.17151041E-01 0.75038370E+03</pdfrwt>
<pdfrwt beam="2">  1       21 0.19426278E+00 0.75038370E+03</pdfrwt>
<totfact> 0.35202902E+03</totfact>
</mgrwt>
</event>
<event>
 5    0  0.3372079E-003  0.4874929E+03  0.7546771E-02  0.1017096E+00
         21   -1    0    0  503  502  0.00000000000E+00  0.00000000000E+00  0.27003116768E+03  0.27003116768E+03  0.00000000000E+00 0.  1.
         21   -1    0    0  501  503 -0.00000000000E+00 -0.00000000000E+00 -0.22002027457E+03  0.22002027457E+03  0.00000000000E+00 0.  1.
         25    1    1    2    0    0  0.20649948729E+03  0.35395874542E+02  0.69608440498E+02  0.25370305708E+03  0.12500000000E+03 0.  0.
          2    1    1    2  501    0 -0.50265829158E+02 -0.43724522316E+01 -0.53454134037E+02  0.73505893404E+02  0.00000000000E+00 0. -1.
         -2    1    1    2    0  502 -0.15623365813E+03 -0.31023422311E+02  0.33856586652E+02  0.16284249176E+03  0.00000000000E+00 0.  1.
<mgrwt>
<rscale>  4 0.48749290E+03</rscale>
<asrwt>0</asrwt>
<pdfrwt beam="1">  1       21 0.41543257E-01 0.48749290E+03</pdfrwt>
<pdfrwt beam="2">  1       21 0.33849273E-01 0.48749290E+03</pdfrwt>
<totfact> 0.42737314E+04</totfact>
</mgrwt>
</event>
<event>
 5    0  0.3372079E-003  0.5504051E+03  0.7546771E-02  0.1001400E+00
         21   -1    0    0  503  502  0.00000000000E+00  0.00000000000E+00  0.24858327511E+04  0.24858327511E+04  0.00000000000E+00 0.  1.
         21   -1    0    0  501  503 -0.00000000000E+00 -0.00000000000E+00 -0.30467236000E+02  0.30467236000E+02  0.00000000000E+00 0.  1.
         25    1    1    2    0    0 -0.61526913242E+02  0.23473929605E+03  0.96448146783E+03  0.10023660010E+04  0.12500000000E+03 0.  0.
          3    1    1    2  501    0  0.58247053245E+02 -0.21484043835E+03  0.14611345427E+04  0.14779929922E+04  0.00000000000E+00 0.  1.
         -3    1    1    2    0  502  0.32798599976E+01 -0.19898857703E+02  0.29749504553E+02  0.35940993873E+02  0.00000000000E+00 0. -1.
<mgrwt>
<rscale>  4 0.55040513E+03</rscale>
<asrwt>0</asrwt>
<pdfrwt beam="1">  1       21 0.38243565E+00 0.55040513E+03</pdfrwt>
<pdfrwt beam="2">  1       21 0.46872690E-02 0.55040513E+03</pdfrwt>
<totfact> 0.25607887E+03</totfact>
</mgrwt>
</event>
<event>
 5    0  0.3372079E-003  0.4880281E+03  0.7546771E-02  0.1016952E+00
         21   -1    0    0  503  502  0.00000000000E+00  0.00000000000E+00  0.55269847722E+03  0.55269847722E+03  0.00000000000E+00 0.  1.
         21   -1    0    0  501  503 -0.00000000000E+00 -0.00000000000E+00 -0.10773117051E+03  0.10773117051E+03  0.00000000000E+00 0.  1.
         25    1    1    2    0    0  0.21076818348E+03 -0.27472470320E+02  0.30949869724E+03  0.39571758539E+03  0.12500000000E+03 0.  0.
          2    1    1    2  501    0 -0.14024056064E+03  0.48413375057E+02  0.62175817753E+02  0.16086361318E+03  0.00000000000E+00 0.  1.
         -2    1    1    2    0  502 -0.70527622839E+02 -0.20940904737E+02  0.73292791719E+02  0.10384844916E+03  0.00000000000E+00 0. -1.
<mgrwt>
<rscale>  4 0.48802809E+03</rscale>
<asrwt>0</asrwt>
<pdfrwt beam="1">  1       21 0.85030533E-01 0.48802809E+03</pdfrwt>
<pdfrwt beam="2">  1       21 0.16574027E-01 0.48802809E+03</pdfrwt>
<totfact> 0.35415228E+04</totfact>
</mgrwt>
</event>
<event>
 5    0  0.3372079E-003  0.6519323E+03  0.7546771E-02  0.9803160E-01
         21   -1    0    0  503  502  0.00000000000E+00  0.00000000000E+00  0.10839274113E+03  0.10839274113E+03  0.00000000000E+00 0.  1.
         21   -1    0    0  501  503 -0.00000000000E+00 -0.00000000000E+00 -0.98026798438E+03  0.98026798438E+03  0.00000000000E+00 0.  1.
         25    1    1    2    0    0 -0.15266268302E+03 -0.17015344930E+03 -0.33049712897E+03  0.42084610412E+03  0.12500000000E+03 0.  0.
          4    1    1    2  501    0  0.19769123427E+02 -0.38857209413E+02 -0.35544695204E+03  0.35811064865E+03  0.00000000000E+00 0. -1.
         -4    1    1    2    0  502  0.13289355959E+03  0.20901065871E+03 -0.18593116224E+03  0.30970397274E+03  0.00000000000E+00 0.  1.
<mgrwt>
<rscale>  4 0.65193231E+03</rscale>
<asrwt>0</asrwt>
<pdfrwt beam="1">  1       21 0.16675806E-01 0.65193231E+03</pdfrwt>
<pdfrwt beam="2">  1       21 0.15081047E+00 0.65193231E+03</pdfrwt>
<totfact> 0.79304582E+03</totfact>
</mgrwt>
</event>
<event>
 5    0  0.3372079E-003  0.7236009E+03  0.7546771E-02  0.9677702E-01
         21   -1    0    0  503  502  0.00000000000E+00  0.00000000000E+00  0.92052909097E+03  0.92052909097E+03  0.00000000000E+00 0.  1.
         21   -1    0    0  501  503 -0.00000000000E+00 -0.00000000000E+00 -0.14220034855E+03  0.14220034855E+03  0.00000000000E+00 0.  1.
         25    1    1    2    0    0 -0.21114614182E+03 -0.24531948569E+03  0.31915074352E+03  0.47143031336E+03  0.12500000000E+03 0.  0.
          1    1    1    2  501    0  0.66303912545E+02 -0.13761913562E+02  0.43355892840E+02  0.80407291508E+02  0.00000000000E+00 0. -1.
         -1    1    1    2    0  502  0.14484222927E+03  0.25908139926E+03  0.41582210607E+03  0.51089183465E+03  0.00000000000E+00 0.  1.
<mgrwt>
<rscale>  4 0.72360088E+03</rscale>
<asrwt>0</asrwt>
<pdfrwt beam="1">  1       21 0.14161986E+00 0.72360088E+03</pdfrwt>
<pdfrwt beam="2">  1       21 0.21876977E-01 0.72360088E+03</pdfrwt>
<totfact> 0.55186371E+03</totfact>
</mgrwt>
</event>
<event>
 5    0  0.3372079E-003  0.4509910E+03  0.7546771E-02  0.1027427E+00
         21   -1    0    0  501  502  0.00000000000E+00  0.00000000000E+00  0.63954656927E+03  0.63954656927E+03  0.00000000000E+00 0. -1.
         21   -1    0    0  502  503 -0.00000000000E+00 -0.00000000000E+00 -0.79506666402E+02  0.79506666402E+02  0.00000000000E+00 0. -1.
         25    1    1    2    0    0 -0.11425093414E+03  0.16567894546E+03  0.30365340984E+03  0.38514047078E+03  0.12500000000E+03 0.  0.
          4    1    1    2  501    0  0.61788579489E+02 -0.41455468141E+02  0.12604804993E+03  0.14637108760E+03  0.00000000000E+00 0. -1.
         -4    1    1    2    0  503  0.52462354652E+02 -0.12422347732E+03  0.13033844309E+03  0.18754167729E+03  0.00000000000E+00 0.  1.
<mgrwt>
<rscale>  4 0.45099098E+03</rscale>
<asrwt>0</asrwt>
<pdfrwt beam="1">  1       21 0.98391777E-01 0.45099098E+03</pdfrwt>
<pdfrwt beam="2">  1       21 0.12231795E-01 0.45099098E+03</pdfrwt>
<totfact> 0.44253783E+04</totfact>
</mgrwt>
</event>
<event>
 5    0  0.3372079E-003  0.5217450E+03  0.7546771E-02  0.1008254E+00
         21   -1    0    0  501  502  0.00000000000E+00  0.00000000000E+00  0.53274213432E+02  0.53274213432E+02  0.00000000000E+00 0. -1.
         21   -1    0    0  502  503 -0.00000000000E+00 -0.00000000000E+00 -0.12774370718E+04  0.12774370718E+04  0.00000000000E+00 0. -1.
         25    1    1    2    0    0 -0.19200949710E+03 -0.13584923006E+03 -0.49307968781E+03  0.56042415973E+03  0.12500000000E+03 0.  0.
          2    1    1    2  501    0  0.33904126193E+02  0.42553148685E+02 -0.11129132566E+03  0.12387905151E+03  0.00000000000E+00 0.  1.
         -2    1    1    2    0  503  0.15810537091E+03  0.93296081379E+02 -0.61979184495E+03  0.64640807404E+03  0.00000000000E+00 0. -1.
<mgrwt>
<rscale>  4 0.52174498E+03</rscale>
<asrwt>0</asrwt>
<pdfrwt beam="1">  1       21 0.81960326E-02 0.52174498E+03</pdfrwt>
<pdfrwt beam="2">  1       21 0.19652879E+00 0.52174498E+03</pdfrwt>
<totfact> 0.13956438E+04</totfact>
</mgrwt>
</event>
<event>
 5    0  0.3372079E-003  0.4971235E+03  0.7546771E-02  0.1014532E+00
         21   -1    0    0  503  502  0.00000000000E+00  0.00000000000E+00  0.10165997674E+03  0.10165997674E+03  0.00000000000E+00 0. -1.
         21   -1    0    0  501  503 -0.00000000000E+00 -0.00000000000E+00 -0.60774112081E+03  0.60774112081E+03  0.00000000000E+00 0. -1.
         25    1    1    2    0    0 -0.20457554484E+03  0.76978254685E+02 -0.24470506130E+03  0.35111589578E+03  0.12500000000E+03 0.  0.
          2    1    1    2  501    0  0.17480659143E+03 -0.54071128383E+02 -0.13762151642E+03  0.22895570121E+03  0.00000000000E+00 0. -1.
         -2    1    1    2    0  502  0.29768953411E+02 -0.22907126302E+02 -0.12375456636E+03  0.12932950057E+03  0.00000000000E+00 0.  1.
<mgrwt>
<rscale>  4 0.49712352E+03</rscale>
<asrwt>0</asrwt>
<pdfrwt beam="1">  1       21 0.15639997E-01 0.49712352E+03</pdfrwt>
<pdfrwt beam="2">  1       21 0.93498633E-01 0.49712352E+03</pdfrwt>
<totfact> 0.31456930E+04</totfact>
</mgrwt>
</event>
<event>
 5    0  0.3372079E-003  0.4758628E+03  0.7546771E-02  0.1020278E+00
         21   -1    0    0  503  502  0.00000000000E+00  0.00000000000E+00  0.40236854799E+03  0.40236854799E+03  0.00000000000E+00 0.  1.
         21   -1    0    0  501  503 -0.00000000000E+00 -0.00000000000E+00 -0.14069526720E+03  0.14069526720E+03  0.00000000000E+00 0.  1.
         25    1    1    2    0    0  0.14878575775E+03  0.15027395632E+03  0.11892739590E+03  0.27292524462E+03  0.12500000000E+03 0.  0.
          1    1    1    2  501    0 -0.11776760375E+03 -0.10145238395E+03  0.54683419120E+02  0.16477885492E+03  0.00000000000E+00 0.  1.
         -1    1    1    2    0  502 -0.31018153997E+02 -0.48821572370E+02  0.88062465771E+02  0.10535971566E+03  0.00000000000E+00 0. -1.
<mgrwt>
<rscale>  4 0.47586280E+03</rscale>
<asrwt>0</asrwt>
<pdfrwt beam="1">  1       21 0.61902853E-01 0.47586280E+03</pdfrwt>
<pdfrwt beam="2">  1       21 0.21645426E-01 0.47586280E+03</pdfrwt>
<totfact> 0.44027885E+04</totfact>
</mgrwt>
</event>
<event>
 5    0  0.3372079E-003  0.4538388E+03  0.7546771E-02  0.1026583E+00
         21   -1    0    0  501  502  0.00000000000E+00  0.00000000000E+00  0.28913761975E+03  0.28913761975E+03  0.00000000000E+00 0.  1.
         21   -1    0    0  502  503 -0.00000000000E+00 -0.00000000000E+00 -0.17808962064E+03  0.17808962064E+03  0.00000000000E+00 0.  1.
         25    1    1    2    0    0 -0.17179660335E+03  0.10489197971E+03  0.91627968143E+02  0.25404150227E+03  0.12500000000E+03 0.  0.
          4    1    1    2  501    0  0.12215440298E+03 -0.10261844968E+03  0.30111544748E+02  0.16235439479E+03  0.00000000000E+00 0.  1.
         -4    1    1    2    0  503  0.49642200377E+02 -0.22735300334E+01 -0.10691513781E+02  0.50831343322E+02  0.00000000000E+00 0. -1.
<mgrwt>
<rscale>  4 0.45383878E+03</rscale>
<asrwt>0</asrwt>
<pdfrwt beam="1">  1       21 0.44482711E-01 0.45383878E+03</pdfrwt>
<pdfrwt beam="2">  1       21 0.27398403E-01 0.45383878E+03</pdfrwt>
<totfact> 0.56877995E+04</totfact>
</mgrwt>
</event>
<event>
 5    0  0.3372079E-003  0.5971551E+03  0.7546771E-02  0.9911326E-01
         21   -1    0    0  503  502  0.00000000000E+00  0.00000000000E+00  0.22748438182E+03  0.22748438182E+03  0.00000000000E+00 0.  1.
         21   -1    0    0  501  503 -0.00000000000E+00 -0.00000000000E+00 -0.39188862098E+03  0.39188862098E+03  0.00000000000E+00 0.  1.
         25    1    1    2    0    0  0.95858393220E+02 -0.26021246141E+03 -0.35246636534E+02  0.30621345825E+03  0.12500000000E+03 0.  0.
          3    1    1    2  501    0 -0.96900059996E+02  0.21186673150E+03 -0.85987899841E+02  0.24833657093E+03  0.00000000000E+00 0.  1.
         -3    1    1    2    0  502  0.10416667764E+01  0.48345729911E+02 -0.43169702787E+02  0.64822973620E+02  0.00000000000E+00 0. -1.
<mgrwt>
<rscale>  4 0.59715506E+03</rscale>
<asrwt>0</asrwt>
<pdfrwt beam="1">  1       21 0.34997598E-01 0.59715506E+03</pdfrwt>
<pdfrwt beam="2">  1       21 0.60290556E-01 0.59715506E+03</pdfrwt>
<totfact> 0.17622009E+04</totfact>
</mgrwt>
</event>
<event>
 5    0  0.3372079E-003  0.4998271E+03  0.7546771E-02  0.1013824E+00
         21   -1    0    0  503  502  0.00000000000E+00  0.00000000000E+00  0.19978207814E+03  0.19978207814E+03  0.00000000000E+00 0.  1.
         21   -1    0    0  501  503 -0.00000000000E+00 -0.00000000000E+00 -0.31262456643E+03  0.31262456643E+03  0.00000000000E+00 0.  1.
         25    1    1    2    0    0 -0.23042366927E+03 -0.39967244037E+01 -0.55915052194E+02  0.26807188257E+03  0.12500000000E+03 0.  0.
          4    1    1    2  501    0  0.21885409603E+02  0.12968008106E+02 -0.20006194882E+02  0.32363377781E+02  0.00000000000E+00 0. -1.
         -4    1    1    2    0  502  0.20853825966E+03 -0.89712837022E+01 -0.36921241221E+02  0.21197138422E+03  0.00000000000E+00 0.  1.
<mgrwt>
<rscale>  4 0.49982711E+03</rscale>
<asrwt>0</asrwt>
<pdfrwt beam="1">  1       21 0.30735704E-01 0.49982711E+03</pdfrwt>
<pdfrwt beam="2">  1       21 0.48096087E-01 0.49982711E+03</pdfrwt>
<totfact> 0.38057943E+04</totfact>
</mgrwt>
</event>
<event>
 5    0  0.3372079E-003  0.5716583E+03  0.7546771E-02  0.9966016E-01
         21   -1    0    0  501  502  0.00000000000E+00  0.00000000000E+00  0.10450637358E+03  0.10450637358E+03  0.00000000000E+00 0. -1.
         21   -1    0    0  502  503 -0.00000000000E+00 -0.00000000000E+00 -0.78175423053E+03  0.78175423053E+03  0.00000000000E+00 0. -1.
         25    1    1    2    0    0  0.46592346382E+02  0.20885744162E+03 -0.44773622407E+03  0.51174701173E+03  0.12500000000E+03 0.  0.
          4    1    1    2  501    0 -0.10791263027E+03 -0.19268021729E+03 -0.12926457239E+03  0.25589085874E+03  0.00000000000E+00 0. -1.
         -4    1    1    2    0  503  0.61320283893E+02 -0.16177224330E+02 -0.10024706049E+03  0.11862273366E+03  0.00000000000E+00 0.  1.
<mgrwt>
<rscale>  4 0.57165829E+03</rscale>
<asrwt>0</asrwt>
<pdfrwt beam="1">  1       21 0.16077904E-01 0.57165829E+03</pdfrwt>
<pdfrwt beam="2">  1       21 0.12026988E+00 0.57165829E+03</pdfrwt>
<totfact> 0.15761898E+04</totfact>
</mgrwt>
</event>
<event>
 5    0  0.3372079E-003  0.8069129E+03  0.7546771E-02  0.9550065E-01
         21   -1    0    0  503  502  0.00000000000E+00  0.00000000000E+00  0.68964085985E+03  0.68964085985E+03  0.00000000000E+00 0. -1.
         21   -1    0    0  501  503 -0.00000000000E+00 -0.00000000000E+00 -0.23603168205E+03  0.23603168205E+03  0.00000000000E+00 0. -1.
         25    1    1    2    0    0 -0.23670841281E+03 -0.25445214229E+03  0.31510537274E+03  0.48548240065E+03  0.12500000000E+03 0.  0.
          1    1    1    2  501    0  0.22835294156E+03  0.10345954609E+03  0.26679902284E+02  0.25211259544E+03  0.00000000000E+00 0. -1.
         -1    1    1    2    0  502  0.83554712529E+01  0.15099259619E+03  0.11182390278E+03  0.18807754581E+03  0.00000000000E+00 0.  1.
<mgrwt>
<rscale>  4 0.80691286E+03</rscale>
<asrwt>0</asrwt>
<pdfrwt beam="1">  1       21 0.10609859E+00 0.80691286E+03</pdfrwt>
<pdfrwt beam="2">  1       21 0.36312567E-01 0.80691286E+03</pdfrwt>
<totfact> 0.41812783E+03</totfact>
</mgrwt>
</event>
<event>
 5    0  0.3372079E-003  0.9788135E+03  0.7546771E-02  0.9332092E-01
         21   -1    0    0  503  502  0.00000000000E+00  0.00000000000E+00  0.69028371455E+03  0.69028371455E+03  0.00000000000E+00 0.  1.
         21   -1    0    0  501  503 -0.00000000000E+00 -0.00000000000E+00 -0.34698624183E+03  0.34698624183E+03  0.00000000000E+00 0.  1.
         25    1    1    2    0    0 -0.27646324216E+03 -0.11633008717E+03  0.16738009172E+03  0.36552114651E+03  0.12500000000E+03 0.  0.
          4    1    1    2  501    0  0.17845183258E+03 -0.21776143610E+03  0.15861709990E+03  0.32314777422E+03  0.00000000000E+00 0. -1.
         -4    1    1    2    0  502  0.98011409578E+02  0.33409152327E+03  0.17300281107E+02  0.34860103565E+03  0.00000000000E+00 0.  1.
<mgrwt>
<rscale>  4 0.97881347E+03</rscale>
<asrwt>0</asrwt>
<pdfrwt beam="1">  1       21 0.10619749E+00 0.97881347E+03</pdfrwt>
<pdfrwt beam="2">  1       21 0.53382499E-01 0.97881347E+03</pdfrwt>
<totfact> 0.17898114E+03</totfact>
</mgrwt>
</event>
<event>
 5    0  0.3372079E-003  0.6182891E+03  0.7546771E-02  0.9868172E-01
         21   -1    0    0  501  502  0.00000000000E+00  0.00000000000E+00  0.94582529226E+02  0.94582529226E+02  0.00000000000E+00 0. -1.
         21   -1    0    0  502  503 -0.00000000000E+00 -0.00000000000E+00 -0.10104440524E+04  0.10104440524E+04  0.00000000000E+00 0. -1.
         25    1    1    2    0    0 -0.22708966788E+02  0.27424599281E+03 -0.34787608728E+03  0.46083547373E+03  0.12500000000E+03 0.  0.
          2    1    1    2  501    0  0.48777700349E+02 -0.99234527746E+02 -0.12342710799E+03  0.16571362809E+03  0.00000000000E+00 0. -1.
         -2    1    1    2    0  503 -0.26068733561E+02 -0.17501146506E+03 -0.44455832791E+03  0.47847747981E+03  0.00000000000E+00 0.  1.
<mgrwt>
<rscale>  4 0.61828910E+03</rscale>
<asrwt>0</asrwt>
<pdfrwt beam="1">  1       21 0.14551159E-01 0.61828910E+03</pdfrwt>
<pdfrwt beam="2">  1       21 0.15545293E+00 0.61828910E+03</pdfrwt>
<totfact> 0.94867874E+03</totfact>
</mgrwt>
</event>
<event>
 5    0  0.3372079E-003  0.4752337E+03  0.7546771E-02  0.1020453E+00
         21   -1    0    0  503  502  0.00000000000E+00  0.00000000000E+00  0.92168689644E+03  0.92168689644E+03  0.00000000000E+00 0.  1.
         21   -1    0    0  501  503 -0.00000000000E+00 -0.00000000000E+00 -0.61259162731E+02  0.61259162731E+02  0.00000000000E+00 0.  1.
         25    1    1    2    0    0  0.11381092058E+03  0.18089793495E+03  0.39286052147E+03  0.46437202526E+03  0.12500000000E+03 0.  0.
          3    1    1    2  501    0 -0.14662127516E+02 -0.56167472081E+02  0.74545011118E+02  0.94481329298E+02  0.00000000000E+00 0. -1.
         -3    1    1    2    0  502 -0.99148793063E+02 -0.12473046287E+03  0.39302220112E+03  0.42409270461E+03  0.00000000000E+00 0.  1.
<mgrwt>
<rscale>  4 0.47523370E+03</rscale>
<asrwt>0</asrwt>
<pdfrwt beam="1">  1       21 0.14179797E+00 0.47523370E+03</pdfrwt>
<pdfrwt beam="2">  1       21 0.94244873E-02 0.47523370E+03</pdfrwt>
<totfact> 0.27908837E+04</totfact>
</mgrwt>
</event>
<event>
 5    0  0.3372079E-003  0.6692680E+03  0.7546771E-02  0.9771281E-01
         21   -1    0    0  501  502  0.00000000000E+00  0.00000000000E+00  0.51828242208E+03  0.51828242208E+03  0.00000000000E+00 0.  1.
         21   -1    0    0  502  503 -0.00000000000E+00 -0.00000000000E+00 -0.21605965401E+03  0.21605965401E+03  0.00000000000E+00 0.  1.
         25    1    1    2    0    0  0.67509435342E+02 -0.25265402507E+03  0.33371615301E+03  0.44202155041E+03  0.12500000000E+03 0.  0.
          1    1    1    2  501    0 -0.77147975169E+02  0.65413013914E+02 -0.27377406046E+02  0.10478642481E+03  0.00000000000E+00 0.  1.
         -1    1    1    2    0  503  0.96385398273E+01  0.18724101116E+03 -0.41159788936E+01  0.18753410088E+03  0.00000000000E+00 0. -1.
<mgrwt>
<rscale>  4 0.66926802E+03</rscale>
<asrwt>0</asrwt>
<pdfrwt beam="1">  1       21 0.79735757E-01 0.66926802E+03</pdfrwt>
<pdfrwt beam="2">  1       21 0.33239947E-01 0.66926802E+03</pdfrwt>
<totfact> 0.10239025E+04</totfact>
</mgrwt>
</event>
<event>
 5    0  0.3372079E-003  0.4901811E+03  0.7546771E-02  0.1016374E+00
         21   -1    0    0  503  502  0.00000000000E+00  0.00000000000E+00  0.46253484257E+03  0.46253484257E+03  0.00000000000E+00 0. -1.
         21   -1    0    0  501  503 -0.00000000000E+00 -0.00000000000E+00 -0.12986995603E+03  0.12986995603E+03  0.00000000000E+00 0. -1.
         25    1    1    2    0    0  0.10587515526E+03  0.19057810851E+03  0.21289769658E+03  0.32936301121E+03  0.12500000000E+03 0.  0.
          4    1    1    2  501    0 -0.30960641372E+02 -0.38891211920E+02 -0.88923721916E+01  0.50499128328E+02  0.00000000000E+00 0.  1.
         -4    1    1    2    0  502 -0.74914513889E+02 -0.15168689659E+03  0.12865956215E+03  0.21254265906E+03  0.00000000000E+00 0. -1.
<mgrwt>
<rscale>  4 0.49018111E+03</rscale>
<asrwt>0</asrwt>
<pdfrwt beam="1">  1       21 0.71159206E-01 0.49018111E+03</pdfrwt>
<pdfrwt beam="2">  1       21 0.19979993E-01 0.49018111E+03</pdfrwt>
<totfact> 0.37472266E+04</totfact>
</mgrwt>
</event>
<event>
 5    0  0.3372079E-003  0.5121698E+03  0.7546771E-02  0.1010650E+00
         21   -1    0    0  501  502  0.00000000000E+00  0.00000000000E+00  0.17434437691E+03  0.17434437691E+03  0.00000000000E+00 0. -1.
         21   -1    0    0  502  503 -0.00000000000E+00 -0.00000000000E+00 -0.37614914194E+03  0.37614914194E+03  0.00000000000E+00 0. -1.
         25    1    1    2    0    0 -0.11825329763E+03  0.18602784444E+03 -0.90367052262E+02  0.26903792566E+03  0.12500000000E+03 0.  0.
          3    1    1    2  501    0  0.47604233499E+02 -0.13582625846E+03 -0.47556161173E+01  0.14400538677E+03  0.00000000000E+00 0.  1.
         -3    1    1    2    0  503  0.70649064131E+02 -0.50201585976E+02 -0.10668209665E+03  0.13745020641E+03  0.00000000000E+00 0. -1.
<mgrwt>
<rscale>  4 0.51216985E+03</rscale>
<asrwt>0</asrwt>
<pdfrwt beam="1">  1       21 0.26822212E-01 0.51216985E+03</pdfrwt>
<pdfrwt beam="2">  1       21 0.57869098E-01 0.51216985E+03</pdfrwt>
<totfact> 0.33403238E+04</totfact>
</mgrwt>
</event>
<event>
 5    0  0.3372079E-003  0.5053158E+03  0.7546771E-02  0.1012401E+00
         21   -1    0    0  501  502  0.00000000000E+00  0.00000000000E+00  0.12578596082E+03  0.12578596082E+03  0.00000000000E+00 0.  1.
         21   -1    0    0  502  503 -0.00000000000E+00 -0.00000000000E+00 -0.50749709139E+03  0.50749709139E+03  0.00000000000E+00 0.  1.
         25    1    1    2    0    0 -0.20304744194E+03 -0.38579517772E+02 -0.16711655824E+03  0.29371684818E+03  0.12500000000E+03 0.  0.
          1    1    1    2  501    0  0.19845849641E+03 -0.24063918591E+02 -0.17146935068E+03  0.26337536938E+03  0.00000000000E+00 0.  1.
         -1    1    1    2    0  503  0.45889455315E+01  0.62643436363E+02 -0.43125221652E+02  0.76190834639E+02  0.00000000000E+00 0. -1.
<mgrwt>
<rscale>  4 0.50531578E+03</rscale>
<asrwt>0</asrwt>
<pdfrwt beam="1">  1       21 0.19351687E-01 0.50531578E+03</pdfrwt>
<pdfrwt beam="2">  1       21 0.78076475E-01 0.50531578E+03</pdfrwt>
<totfact> 0.32115503E+04</totfact>
</mgrwt>
</event>
<event>
 5    0  0.3372079E-003  0.5600347E+03  0.7546771E-02  0.9991976E-01
         21   -1    0    0  501  502  0.00000000000E+00  0.00000000000E+00  0.12480009700E+04  0.12480009700E+04  0.00000000000E+00 0. -1.
         21   -1    0    0  502  503 -0.00000000000E+00 -0.00000000000E+00 -0.62828248618E+02  0.62828248618E+02  0.00000000000E+00 0. -1.
         25    1    1    2    0    0  0.20120667875E+03 -0.67745741718E+02  0.49232714091E+03  0.55053122234E+03  0.12500000000E+03 0.  0.
          4    1    1    2  501    0 -0.36984581927E+02  0.13100838000E+03  0.27289677895E+03  0.30496509126E+03  0.00000000000E+00 0.  1.
         -4    1    1    2    0  503 -0.16422209682E+03 -0.63262638282E+02  0.41994880155E+03  0.45533290504E+03  0.00000000000E+00 0. -1.
<mgrwt>
<rscale>  4 0.56003470E+03</rscale>
<asrwt>0</asrwt>
<pdfrwt beam="1">  1       21 0.19200013E+00 0.56003470E+03</pdfrwt>
<pdfrwt beam="2">  1       21 0.96658853E-02 0.56003470E+03</pdfrwt>
<totfact> 0.11032964E+04</totfact>
</mgrwt>
</event>
<event>
 5    0  0.3372079E-003  0.5419561E+03  0.7546771E-02  0.1003373E+00
         21   -1    0    0  503  502  0.00000000000E+00  0.00000000000E+00  0.99803421476E+03  0.99803421476E+03  0.00000000000E+00 0. -1.
         21   -1    0    0  501  503 -0.00000000000E+00 -0.00000000000E+00 -0.73573739875E+02  0.73573739875E+02  0.00000000000E+00 0. -1.
         25    1    1    2    0    0  0.16737237817E+03  0.18755174440E+03  0.51957592536E+03  0.59057032775E+03  0.12500000000E+03 0.  0.
          3    1    1    2  501    0 -0.15803347125E+03 -0.13979563718E+03  0.33384676815E+03  0.39493171918E+03  0.00000000000E+00 0. -1.
         -3    1    1    2    0  502 -0.93389069197E+01 -0.47756107222E+02  0.71037781370E+02  0.86105907703E+02  0.00000000000E+00 0.  1.
<mgrwt>
<rscale>  4 0.54195612E+03</rscale>
<asrwt>0</asrwt>
<pdfrwt beam="1">  1       21 0.15354372E+00 0.54195612E+03</pdfrwt>
<pdfrwt beam="2">  1       21 0.11319038E-01 0.54195612E+03</pdfrwt>
<totfact> 0.15879777E+04</totfact>
</mgrwt>
</event>
<event>
 5    0  0.3372079E-003  0.5700991E+03  0.7546771E-02  0.9969459E-01
         21   -1    0    0  501  502  0.00000000000E+00  0.00000000000E+00  0.33623706827E+03  0.33623706827E+03  0.00000000000E+00 0.  1.
         21   -1    0    0  502  503 -0.00000000000E+00 -0.00000000000E+00 -0.24165465494E+03  0.24165465494E+03  0.00000000000E+00 0.  1.
         25    1    1    2    0    0  0.19342329380E+03 -0.84511291312E+02  0.18795618733E+03  0.30904248462E+03  0.12500000000E+03 0.  0.
          4    1    1    2  501    0 -0.15958621674E+03  0.10086395826E+03 -0.24477019854E+02  0.19036917595E+03  0.00000000000E+00 0. -1.
         -4    1    1    2    0  503 -0.33837077060E+02 -0.16352666953E+02 -0.68896754146E+02  0.78480062642E+02  0.00000000000E+00 0.  1.
<mgrwt>
<rscale>  4 0.57009912E+03</rscale>
<asrwt>0</asrwt>
<pdfrwt beam="1">  1       21 0.51728780E-01 0.57009912E+03</pdfrwt>
<pdfrwt beam="2">  1       21 0.37177639E-01 0.57009912E+03</pdfrwt>
<totfact> 0.21858993E+04</totfact>
</mgrwt>
</event>
<event>
 5    0  0.3372079E-003  0.4994849E+03  0.7546771E-02  0.1013913E+00
         21   -1    0    0  501  502  0.00000000000E+00  0.00000000000E+00  0.14321252708E+03  0.14321252708E+03  0.00000000000E+00 0. -1.
         21   -1    0    0  502  503 -0.00000000000E+00 -0.00000000000E+00 -0.43551568518E+03  0.43551568518E+03  0.00000000000E+00 0. -1.
         25    1    1    2    0    0 -0.19827788088E+03 -0.32033158950E+02 -0.21833622760E+03  0.32192537893E+03  0.12500000000E+03 0.  0.
          3    1    1    2  501    0 -0.83202072474E+01 -0.28631228579E+02 -0.15898848725E+02  0.33789739410E+02  0.00000000000E+00 0.  1.
         -3    1    1    2    0  503  0.20659808813E+03  0.60664387530E+02 -0.58068081778E+02  0.22301309391E+03  0.00000000000E+00 0. -1.
<mgrwt>
<rscale>  4 0.49948494E+03</rscale>
<asrwt>0</asrwt>
<pdfrwt beam="1">  1       21 0.22032696E-01 0.49948494E+03</pdfrwt>
<pdfrwt beam="2">  1       21 0.67002414E-01 0.49948494E+03</pdfrwt>
<totfact> 0.35508081E+04</totfact>
</mgrwt>
</event>
<event>
 5    0  0.3372079E-003  0.6441737E+03  0.7546771E-02  0.9817774E-01
         21   -1    0    0  501  502  0.00000000000E+00  0.00000000000E+00  0.23719141539E+03  0.23719141539E+03  0.00000000000E+00 0. -1.
         21   -1    0    0  502  503 -0.00000000000E+00 -0.00000000000E+00 -0.43736799180E+03  0.43736799180E+03  0.00000000000E+00 0. -1.
         25    1    1    2    0    0 -0.20811421767E+03 -0.16058590071E+03  0.63508883362E+02  0.29792236802E+03  0.12500000000E+03 0.  0.
          4    1    1    2  501    0  0.97826150360E+02  0.10233816315E+03 -0.16627059192E+03  0.21837803248E+03  0.00000000000E+00 0. -1.
         -4    1    1    2    0  503  0.11028806731E+03  0.58247737565E+02 -0.97414867846E+02  0.15825900669E+03  0.00000000000E+00 0.  1.
<mgrwt>
<rscale>  4 0.64417368E+03</rscale>
<asrwt>0</asrwt>
<pdfrwt beam="1">  1       21 0.36490987E-01 0.64417368E+03</pdfrwt>
<pdfrwt beam="2">  1       21 0.67287383E-01 0.64417368E+03</pdfrwt>
<totfact> 0.12550511E+04</totfact>
</mgrwt>
</event>
<event>
 5    0  0.3372079E-003  0.4814348E+03  0.7546771E-02  0.1018742E+00
         21   -1    0    0  501  502  0.00000000000E+00  0.00000000000E+00  0.30721018542E+03  0.30721018542E+03  0.00000000000E+00 0.  1.
         21   -1    0    0  502  503 -0.00000000000E+00 -0.00000000000E+00 -0.18861638416E+03  0.18861638416E+03  0.00000000000E+00 0.  1.
         25    1    1    2    0    0 -0.32416013194E+02  0.19917173512E+03 -0.19410253035E+02  0.23816367461E+03  0.12500000000E+03 0.  0.
          3    1    1    2  501    0  0.57581217673E+02 -0.10995339885E+03  0.68205327624E+02  0.14162384426E+03  0.00000000000E+00 0. -1.
         -3    1    1    2    0  503 -0.25165204479E+02 -0.89218336276E+02  0.69798726672E+02  0.11603905071E+03  0.00000000000E+00 0.  1.
<mgrwt>
<rscale>  4 0.48143483E+03</rscale>
<asrwt>0</asrwt>
<pdfrwt beam="1">  1       21 0.47263105E-01 0.48143483E+03</pdfrwt>
<pdfrwt beam="2">  1       21 0.29017905E-01 0.48143483E+03</pdfrwt>
<totfact> 0.44447530E+04</totfact>
</mgrwt>
</event>
