<event>
 5    0  0.1702508E-001  0.2695255E+03  0.7546771E-02  0.1101551E+00
         21   -1    0    0  503  502  0.00000000000E+00  0.00000000000E+00  0.10482218910E+04  0.10482218910E+04  0.00000000000E+00 0.  1.
         21   -1    0    0  501  503 -0.00000000000E+00 -0.00000000000E+00 -0.28275289019E+03  0.28275289019E+03  0.00000000000E+00 0. -1.
         25    1    1    2    0    0 -0.24553002243E+03  0.68664814662E+01  0.92967648098E+03  0.96966772647E+03  0.12500000000E+03 0.  0.
          2    1    1    2  501    0  0.20218378290E+03 -0.25475718388E+01 -0.11520497763E+02  0.20252776121E+03  0.00000000000E+00 0. -1.
         -2    1    1    2    0  502  0.43346239526E+02 -0.43189096273E+01 -0.15268698239E+03  0.15877929353E+03  0.00000000000E+00 0.  1.
<mgrwt>
<rscale>  4 0.26952554E+03</rscale>
<asrwt>0</asrwt>
<pdfrwt beam="1">  1       21 0.16126490E+00 0.26952554E+03</pdfrwt>
<pdfrwt beam="2">  1       21 0.43500445E-01 0.26952554E+03</pdfrwt>
<totfact> 0.11687742E+03</totfact>
</mgrwt>
</event>
<event>
 5    0  0.1702508E-001  0.2495217E+03  0.7546771E-02  0.1113607E+00
         21   -1    0    0  503  502  0.00000000000E+00  0.00000000000E+00  0.32824833606E+03  0.32824833606E+03  0.00000000000E+00 0. -1.
         21   -1    0    0  501  503 -0.00000000000E+00 -0.00000000000E+00 -0.83934740568E+03  0.83934740568E+03  0.00000000000E+00 0. -1.
         25    1    1    2    0    0  0.98146761780E+02  0.18206994099E+03  0.17739528429E+03  0.29979382440E+03  0.12500000000E+03 0.  0.
          4    1    1    2  501    0  0.60893667573E+02  0.45504927620E+01 -0.60604712450E+03  0.60911563997E+03  0.00000000000E+00 0.  1.
         -4    1    1    2    0  502 -0.15904042935E+03 -0.18662043375E+03 -0.82447229416E+02  0.25868627737E+03  0.00000000000E+00 0. -1.
<mgrwt>
<rscale>  4 0.24952166E+03</rscale>
<asrwt>0</asrwt>
<pdfrwt beam="1">  1       21 0.50499743E-01 0.24952166E+03</pdfrwt>
<pdfrwt beam="2">  1       21 0.12913037E+00 0.24952166E+03</pdfrwt>
<totfact> 0.15621154E+03</totfact>
</mgrwt>
</event>
<event>
 5    0  0.1702508E-001  0.2666478E+03  0.7546771E-02  0.1103214E+00
         21   -1    0    0  503  502  0.00000000000E+00  0.00000000000E+00  0.69865283483E+02  0.69865283483E+02  0.00000000000E+00 0. -1.
         21   -1    0    0  501  503 -0.00000000000E+00 -0.00000000000E+00 -0.10889567374E+04  0.10889567374E+04  0.00000000000E+00 0. -1.
         25    1    1    2    0    0  0.22886790716E+03 -0.91397659092E+02 -0.46195510519E+03  0.53829505870E+03  0.12500000000E+03 0.  0.
          1    1    1    2  501    0 -0.21449283795E+03  0.73130769401E+02 -0.38434987440E+03  0.44618394516E+03  0.00000000000E+00 0. -1.
         -1    1    1    2    0  502 -0.14375069207E+02  0.18266889691E+02 -0.17278647429E+03  0.17434301698E+03  0.00000000000E+00 0.  1.
<mgrwt>
<rscale>  4 0.26664778E+03</rscale>
<asrwt>0</asrwt>
<pdfrwt beam="1">  1       21 0.10748505E-01 0.26664778E+03</pdfrwt>
<pdfrwt beam="2">  1       21 0.16753181E+00 0.26664778E+03</pdfrwt>
<totfact> 0.15126827E+04</totfact>
</mgrwt>
</event>
<event>
 5    0  0.1702508E-001  0.2471813E+03  0.7546771E-02  0.1115099E+00
         21   -1    0    0  503  502  0.00000000000E+00  0.00000000000E+00  0.31167170667E+03  0.31167170667E+03  0.00000000000E+00 0. -1.
         21   -1    0    0  501  503 -0.00000000000E+00 -0.00000000000E+00 -0.54462528889E+03  0.54462528889E+03  0.00000000000E+00 0.  1.
         25    1    1    2    0    0  0.14780587177E+02 -0.20226725601E+03  0.18192304755E+03  0.29975240422E+03  0.12500000000E+03 0.  0.
          3    1    1    2  501    0  0.66855797515E+01  0.28415257585E+03 -0.34325845987E+03  0.44566102994E+03  0.00000000000E+00 0.  1.
         -3    1    1    2    0  502 -0.21466166928E+02 -0.81885319846E+02 -0.71618169899E+02  0.11088356140E+03  0.00000000000E+00 0. -1.
<mgrwt>
<rscale>  4 0.24718133E+03</rscale>
<asrwt>0</asrwt>
<pdfrwt beam="1">  1       21 0.47949494E-01 0.24718133E+03</pdfrwt>
<pdfrwt beam="2">  1       21 0.83788505E-01 0.24718133E+03</pdfrwt>
<totfact> 0.49513497E+03</totfact>
</mgrwt>
</event>
<event>
 5    0  0.1702508E-001  0.2947986E+03  0.7546771E-02  0.1087870E+00
         21   -1    0    0  503  502  0.00000000000E+00  0.00000000000E+00  0.28636745823E+03  0.28636745823E+03  0.00000000000E+00 0. -1.
         21   -1    0    0  501  503 -0.00000000000E+00 -0.00000000000E+00 -0.13393747760E+04  0.13393747760E+04  0.00000000000E+00 0. -1.
         25    1    1    2    0    0  0.22597391375E+03  0.14083946885E+03  0.14837010216E+03  0.32945204947E+03  0.12500000000E+03 0.  0.
          4    1    1    2  501    0  0.41813195982E+02 -0.62935500729E+02 -0.82183085414E+03  0.82529702134E+03  0.00000000000E+00 0. -1.
         -4    1    1    2    0  502 -0.26778710974E+03 -0.77903968124E+02 -0.37954656576E+03  0.47099316340E+03  0.00000000000E+00 0.  1.
<mgrwt>
<rscale>  4 0.29479859E+03</rscale>
<asrwt>0</asrwt>
<pdfrwt beam="1">  1       21 0.44056532E-01 0.29479859E+03</pdfrwt>
<pdfrwt beam="2">  1       21 0.20605766E+00 0.29479859E+03</pdfrwt>
<totfact> 0.55021312E+02</totfact>
</mgrwt>
</event>
<event>
 5    0  0.1702508E-001  0.3063431E+03  0.7546771E-02  0.1082112E+00
         21   -1    0    0  503  502  0.00000000000E+00  0.00000000000E+00  0.48102635712E+03  0.48102635712E+03  0.00000000000E+00 0. -1.
         21   -1    0    0  501  503 -0.00000000000E+00 -0.00000000000E+00 -0.50322667862E+03  0.50322667862E+03  0.00000000000E+00 0.  1.
         25    1    1    2    0    0 -0.26943156208E+03 -0.14349246976E+03  0.94716968377E+02  0.34319055876E+03  0.12500000000E+03 0.  0.
          1    1    1    2  501    0  0.28136339876E+03 -0.76621487521E+02 -0.24954000674E+03  0.38380519730E+03  0.00000000000E+00 0.  1.
         -1    1    1    2    0  502 -0.11931836677E+02  0.22011395728E+03  0.13262271686E+03  0.25725727967E+03  0.00000000000E+00 0. -1.
<mgrwt>
<rscale>  4 0.30634313E+03</rscale>
<asrwt>0</asrwt>
<pdfrwt beam="1">  1       21 0.74004055E-01 0.30634313E+03</pdfrwt>
<pdfrwt beam="2">  1       21 0.77419489E-01 0.30634313E+03</pdfrwt>
<totfact> 0.22378624E+03</totfact>
</mgrwt>
</event>
<event>
 5    0  0.1702508E-001  0.2851034E+03  0.7546771E-02  0.1092934E+00
         21   -1    0    0  503  502  0.00000000000E+00  0.00000000000E+00  0.14449375559E+04  0.14449375559E+04  0.00000000000E+00 0.  1.
         21   -1    0    0  501  503 -0.00000000000E+00 -0.00000000000E+00 -0.88231444460E+02  0.88231444460E+02  0.00000000000E+00 0.  1.
         25    1    1    2    0    0  0.29216066183E+03  0.89834825779E+01  0.41534318562E+03  0.52304255766E+03  0.12500000000E+03 0.  0.
          2    1    1    2  501    0 -0.48685031366E+02 -0.45452383316E+02  0.44537933066E+02  0.80123522826E+02  0.00000000000E+00 0. -1.
         -2    1    1    2    0  502 -0.24347563046E+03  0.36468900739E+02  0.89682499273E+03  0.93000291986E+03  0.00000000000E+00 0.  1.
<mgrwt>
<rscale>  4 0.28510337E+03</rscale>
<asrwt>0</asrwt>
<pdfrwt beam="1">  1       21 0.22229807E+00 0.28510337E+03</pdfrwt>
<pdfrwt beam="2">  1       21 0.13574069E-01 0.28510337E+03</pdfrwt>
<totfact> 0.42438715E+03</totfact>
</mgrwt>
</event>
<event>
 5    0  0.1702508E-001  0.3218858E+03  0.7546771E-02  0.1074785E+00
         21   -1    0    0  503  502  0.00000000000E+00  0.00000000000E+00  0.81841884629E+03  0.81841884629E+03  0.00000000000E+00 0. -1.
         21   -1    0    0  501  503 -0.00000000000E+00 -0.00000000000E+00 -0.15810470588E+03  0.15810470588E+03  0.00000000000E+00 0. -1.
         25    1    1    2    0    0 -0.29500409569E+03  0.11354406461E+03  0.45077257430E+03  0.56457115125E+03  0.12500000000E+03 0.  0.
          3    1    1    2  501    0  0.25735480283E+03 -0.96991666804E+02  0.23654145880E+03  0.36275437930E+03  0.00000000000E+00 0. -1.
         -3    1    1    2    0  502  0.37649292852E+02 -0.16552397803E+02 -0.26999892691E+02  0.49198021613E+02  0.00000000000E+00 0.  1.
<mgrwt>
<rscale>  4 0.32188584E+03</rscale>
<asrwt>0</asrwt>
<pdfrwt beam="1">  1       21 0.12591059E+00 0.32188584E+03</pdfrwt>
<pdfrwt beam="2">  1       21 0.24323801E-01 0.32188584E+03</pdfrwt>
<totfact> 0.69145621E+03</totfact>
</mgrwt>
</event>
<event>
 5    0  0.1702508E-001  0.3740997E+03  0.7546771E-02  0.1053136E+00
         21   -1    0    0  503  502  0.00000000000E+00  0.00000000000E+00  0.17489677619E+03  0.17489677619E+03  0.00000000000E+00 0.  1.
         21   -1    0    0  501  503 -0.00000000000E+00 -0.00000000000E+00 -0.99043360445E+03  0.99043360445E+03  0.00000000000E+00 0.  1.
         25    1    1    2    0    0 -0.33175146371E+03 -0.28459134131E+02 -0.62774282067E+03  0.72149497912E+03  0.12500000000E+03 0.  0.
          4    1    1    2  501    0 -0.27446685560E+02  0.19191619272E+01 -0.52149628188E+02  0.58962593658E+02  0.00000000000E+00 0. -1.
         -4    1    1    2    0  502  0.35919814927E+03  0.26539972204E+02 -0.13564437940E+03  0.38487280786E+03  0.00000000000E+00 0.  1.
<mgrwt>
<rscale>  4 0.37409967E+03</rscale>
<asrwt>0</asrwt>
<pdfrwt beam="1">  1       21 0.26907196E-01 0.37409967E+03</pdfrwt>
<pdfrwt beam="2">  1       21 0.15237440E+00 0.37409967E+03</pdfrwt>
<totfact> 0.33625426E+03</totfact>
</mgrwt>
</event>
<event>
 5    0  0.1702508E-001  0.3049276E+03  0.7546771E-02  0.1082803E+00
         21   -1    0    0  503  502  0.00000000000E+00  0.00000000000E+00  0.25580250891E+04  0.25580250891E+04  0.00000000000E+00 0.  1.
         21   -1    0    0  501  503 -0.00000000000E+00 -0.00000000000E+00 -0.44017914966E+02  0.44017914966E+02  0.00000000000E+00 0.  1.
         25    1    1    2    0    0  0.22958595051E+03 -0.14145068137E+03  0.16836686552E+04  0.17097026479E+04  0.12500000000E+03 0.  0.
          3    1    1    2  501    0  0.28673771740E+02 -0.30109044862E+01  0.49146027480E+02  0.56978792096E+02  0.00000000000E+00 0. -1.
         -3    1    1    2    0  502 -0.25825972225E+03  0.14446158585E+03  0.78119249146E+03  0.83536156402E+03  0.00000000000E+00 0.  1.
<mgrwt>
<rscale>  4 0.30492760E+03</rscale>
<asrwt>0</asrwt>
<pdfrwt beam="1">  1       21 0.39354221E+00 0.30492760E+03</pdfrwt>
<pdfrwt beam="2">  1       21 0.67719889E-02 0.30492760E+03</pdfrwt>
<totfact> 0.13424076E+03</totfact>
</mgrwt>
</event>
<event>
 5    0  0.1702508E-001  0.4489859E+03  0.7546771E-02  0.1028025E+00
         21   -1    0    0  503  502  0.00000000000E+00  0.00000000000E+00  0.44723469362E+03  0.44723469362E+03  0.00000000000E+00 0. -1.
         21   -1    0    0  501  503 -0.00000000000E+00 -0.00000000000E+00 -0.12560583876E+04  0.12560583876E+04  0.00000000000E+00 0. -1.
         25    1    1    2    0    0 -0.29545176357E+03 -0.31277983900E+03  0.27084803887E+03  0.52355193863E+03  0.12500000000E+03 0.  0.
          1    1    1    2  501    0  0.32420232967E+03  0.29755765624E+03 -0.96608196663E+03  0.10615847002E+04  0.00000000000E+00 0. -1.
         -1    1    1    2    0  502 -0.28750566105E+02  0.15222182756E+02 -0.11358976622E+03  0.11815644243E+03  0.00000000000E+00 0.  1.
<mgrwt>
<rscale>  4 0.44898594E+03</rscale>
<asrwt>0</asrwt>
<pdfrwt beam="1">  1       21 0.68805339E-01 0.44898594E+03</pdfrwt>
<pdfrwt beam="2">  1       21 0.19323975E+00 0.44898594E+03</pdfrwt>
<totfact> 0.23225903E+02</totfact>
</mgrwt>
</event>
<event>
 5    0  0.1702508E-001  0.2420486E+03  0.7546771E-02  0.1118436E+00
         21   -1    0    0  503  502  0.00000000000E+00  0.00000000000E+00  0.24401702670E+03  0.24401702670E+03  0.00000000000E+00 0.  1.
         21   -1    0    0  501  503 -0.00000000000E+00 -0.00000000000E+00 -0.24791488783E+03  0.24791488783E+03  0.00000000000E+00 0.  1.
         25    1    1    2    0    0  0.30176075221E+02  0.21704921241E+03  0.30059623409E+02  0.25406600930E+03  0.12500000000E+03 0.  0.
          4    1    1    2  501    0 -0.21331090219E+02 -0.20280422734E+02 -0.28278642467E+02  0.40816572320E+02  0.00000000000E+00 0. -1.
         -4    1    1    2    0  502 -0.88449850027E+01 -0.19676878968E+03 -0.56788420697E+01  0.19704933290E+03  0.00000000000E+00 0.  1.
<mgrwt>
<rscale>  4 0.24204865E+03</rscale>
<asrwt>0</asrwt>
<pdfrwt beam="1">  1       21 0.37541081E-01 0.24204865E+03</pdfrwt>
<pdfrwt beam="2">  1       21 0.38140752E-01 0.24204865E+03</pdfrwt>
<totfact> 0.44336263E+04</totfact>
</mgrwt>
</event>
<event>
 5    0  0.1702508E-001  0.2978665E+03  0.7546771E-02  0.1086312E+00
         21   -1    0    0  503  502  0.00000000000E+00  0.00000000000E+00  0.16445914107E+04  0.16445914107E+04  0.00000000000E+00 0. -1.
         21   -1    0    0  501  503 -0.00000000000E+00 -0.00000000000E+00 -0.19142993378E+03  0.19142993378E+03  0.00000000000E+00 0.  1.
         25    1    1    2    0    0  0.76957136786E+02 -0.24819254488E+03  0.11206088861E+04  0.11571133116E+04  0.12500000000E+03 0.  0.
          2    1    1    2  501    0  0.26769408745E+02 -0.28795496535E+02 -0.12669613404E+03  0.13265629366E+03  0.00000000000E+00 0.  1.
         -2    1    1    2    0  502 -0.10372654553E+03  0.27698804142E+03  0.45924872483E+03  0.54625173922E+03  0.00000000000E+00 0. -1.
<mgrwt>
<rscale>  4 0.29786651E+03</rscale>
<asrwt>0</asrwt>
<pdfrwt beam="1">  1       21 0.25301405E+00 0.29786651E+03</pdfrwt>
<pdfrwt beam="2">  1       21 0.29450760E-01 0.29786651E+03</pdfrwt>
<totfact> 0.63246843E+02</totfact>
</mgrwt>
</event>
<event>
 5    0  0.1702508E-001  0.2298318E+03  0.7546771E-02  0.1126758E+00
         21   -1    0    0  503  502  0.00000000000E+00  0.00000000000E+00  0.68810506425E+03  0.68810506425E+03  0.00000000000E+00 0. -1.
         21   -1    0    0  501  503 -0.00000000000E+00 -0.00000000000E+00 -0.98662641434E+02  0.98662641434E+02  0.00000000000E+00 0.  1.
         25    1    1    2    0    0  0.18493682071E+03 -0.97123088102E+02  0.15380819497E+03  0.28795222301E+03  0.12500000000E+03 0.  0.
          4    1    1    2  501    0 -0.25822316231E+02  0.25121137224E+02  0.21213357224E+03  0.21517089957E+03  0.00000000000E+00 0. -1.
         -4    1    1    2    0  502 -0.15911450448E+03  0.72001950878E+02  0.22350065561E+03  0.28364458311E+03  0.00000000000E+00 0.  1.
<mgrwt>
<rscale>  4 0.22983179E+03</rscale>
<asrwt>0</asrwt>
<pdfrwt beam="1">  1       21 0.10586231E+00 0.22983179E+03</pdfrwt>
<pdfrwt beam="2">  1       21 0.15178868E-01 0.22983179E+03</pdfrwt>
<totfact> 0.26934195E+04</totfact>
</mgrwt>
</event>
<event>
 5    0  0.1702508E-001  0.2661452E+03  0.7546771E-02  0.1103506E+00
         21   -1    0    0  503  502  0.00000000000E+00  0.00000000000E+00  0.31100007117E+03  0.31100007117E+03  0.00000000000E+00 0. -1.
         21   -1    0    0  501  503 -0.00000000000E+00 -0.00000000000E+00 -0.83678450078E+03  0.83678450078E+03  0.00000000000E+00 0. -1.
         25    1    1    2    0    0 -0.23703296087E+03  0.24227753347E+02  0.15385524884E+03  0.30994845727E+03  0.12500000000E+03 0.  0.
          3    1    1    2  501    0  0.14309052516E+02 -0.20351771259E+03 -0.28648808211E+03  0.35170958121E+03  0.00000000000E+00 0.  1.
         -3    1    1    2    0  502  0.22272390835E+03  0.17928995924E+03 -0.39315159633E+03  0.48612653346E+03  0.00000000000E+00 0. -1.
<mgrwt>
<rscale>  4 0.26614520E+03</rscale>
<asrwt>0</asrwt>
<pdfrwt beam="1">  1       21 0.47846165E-01 0.26614520E+03</pdfrwt>
<pdfrwt beam="2">  1       21 0.12873608E+00 0.26614520E+03</pdfrwt>
<totfact> 0.17416047E+03</totfact>
</mgrwt>
</event>
<event>
 5    0  0.1702508E-001  0.2696663E+03  0.7546771E-02  0.1101471E+00
         21   -1    0    0  503  502  0.00000000000E+00  0.00000000000E+00  0.54974507345E+03  0.54974507345E+03  0.00000000000E+00 0.  1.
         21   -1    0    0  501  503 -0.00000000000E+00 -0.00000000000E+00 -0.54284573629E+03  0.54284573629E+03  0.00000000000E+00 0.  1.
         25    1    1    2    0    0 -0.18882513072E+03 -0.14772546298E+03  0.47322336524E+03  0.54501660141E+03  0.12500000000E+03 0.  0.
          3    1    1    2  501    0 -0.18150168939E+02  0.38249262223E+02 -0.13774306267E+03  0.14410269258E+03  0.00000000000E+00 0. -1.
         -3    1    1    2    0  502  0.20697529966E+03  0.10947620075E+03 -0.32858096540E+03  0.40347151576E+03  0.00000000000E+00 0.  1.
<mgrwt>
<rscale>  4 0.26966632E+03</rscale>
<asrwt>0</asrwt>
<pdfrwt beam="1">  1       21 0.84576165E-01 0.26966632E+03</pdfrwt>
<pdfrwt beam="2">  1       21 0.83514728E-01 0.26966632E+03</pdfrwt>
<totfact> 0.14197887E+03</totfact>
</mgrwt>
</event>
<event>
 5    0  0.1702508E-001  0.2537379E+03  0.7546771E-02  0.1110965E+00
         21   -1    0    0  503  502  0.00000000000E+00  0.00000000000E+00  0.64543935223E+03  0.64543935223E+03  0.00000000000E+00 0.  1.
         21   -1    0    0  501  503 -0.00000000000E+00 -0.00000000000E+00 -0.16036611968E+03  0.16036611968E+03  0.00000000000E+00 0. -1.
         25    1    1    2    0    0 -0.70034114419E+02 -0.21560394677E+03  0.37906517206E+03  0.45902640852E+03  0.12500000000E+03 0.  0.
          2    1    1    2  501    0  0.49985619956E+02  0.20778322389E+03  0.17392135098E+03  0.27553777719E+03  0.00000000000E+00 0.  1.
         -2    1    1    2    0  502  0.20048494463E+02  0.78207228860E+01 -0.67913290483E+02  0.71241286210E+02  0.00000000000E+00 0. -1.
<mgrwt>
<rscale>  4 0.25373793E+03</rscale>
<asrwt>0</asrwt>
<pdfrwt beam="1">  1       21 0.99298361E-01 0.25373793E+03</pdfrwt>
<pdfrwt beam="2">  1       21 0.24671711E-01 0.25373793E+03</pdfrwt>
<totfact> 0.12493714E+04</totfact>
</mgrwt>
</event>
<event>
 5    0  0.1702508E-001  0.2764149E+03  0.7546771E-02  0.1097663E+00
         21   -1    0    0  503  502  0.00000000000E+00  0.00000000000E+00  0.44112330534E+03  0.44112330534E+03  0.00000000000E+00 0. -1.
         21   -1    0    0  501  503 -0.00000000000E+00 -0.00000000000E+00 -0.16273476670E+03  0.16273476670E+03  0.00000000000E+00 0. -1.
         25    1    1    2    0    0 -0.19865365224E+02  0.24573477181E+03  0.11926269901E+03  0.30104617949E+03  0.12500000000E+03 0.  0.
          2    1    1    2  501    0  0.38709060859E+02 -0.17862213266E+03  0.14086021275E+03  0.23075063858E+03  0.00000000000E+00 0.  1.
         -2    1    1    2    0  502 -0.18843695636E+02 -0.67112639151E+02  0.18265626886E+02  0.72061253975E+02  0.00000000000E+00 0. -1.
<mgrwt>
<rscale>  4 0.27641493E+03</rscale>
<asrwt>0</asrwt>
<pdfrwt beam="1">  1       21 0.67865124E-01 0.27641493E+03</pdfrwt>
<pdfrwt beam="2">  1       21 0.25036118E-01 0.27641493E+03</pdfrwt>
<totfact> 0.28774439E+04</totfact>
</mgrwt>
</event>
<event>
 5    0  0.1702508E-001  0.5357832E+03  0.7546771E-02  0.1004839E+00
         21   -1    0    0  503  502  0.00000000000E+00  0.00000000000E+00  0.12715450986E+03  0.12715450986E+03  0.00000000000E+00 0.  1.
         21   -1    0    0  501  503 -0.00000000000E+00 -0.00000000000E+00 -0.30364173942E+04  0.30364173942E+04  0.00000000000E+00 0.  1.
         25    1    1    2    0    0 -0.31673039961E+03  0.42060561204E+03 -0.69858641410E+03  0.88367143491E+03  0.12500000000E+03 0.  0.
          1    1    1    2  501    0  0.28919116219E+03 -0.41771752625E+03 -0.18601987676E+04  0.19283306031E+04  0.00000000000E+00 0.  1.
         -1    1    1    2    0  502  0.27539237416E+02 -0.28880857869E+01 -0.35047770262E+03  0.35156986599E+03  0.00000000000E+00 0. -1.
<mgrwt>
<rscale>  4 0.53578321E+03</rscale>
<asrwt>0</asrwt>
<pdfrwt beam="1">  1       21 0.19562231E-01 0.53578321E+03</pdfrwt>
<pdfrwt beam="2">  1       21 0.46714117E+00 0.53578321E+03</pdfrwt>
<totfact> 0.53775574E+01</totfact>
</mgrwt>
</event>
<event>
 5    0  0.1702508E-001  0.2807101E+03  0.7546771E-02  0.1095302E+00
         21   -1    0    0  503  502  0.00000000000E+00  0.00000000000E+00  0.99293728997E+02  0.99293728997E+02  0.00000000000E+00 0.  1.
         21   -1    0    0  501  503 -0.00000000000E+00 -0.00000000000E+00 -0.11899894711E+04  0.11899894711E+04  0.00000000000E+00 0.  1.
         25    1    1    2    0    0 -0.23801165439E+03  0.49857887622E+02 -0.45835927541E+03  0.53371676190E+03  0.12500000000E+03 0.  0.
          3    1    1    2  501    0  0.24173337277E+03 -0.86073545245E+02 -0.20976277295E+03  0.33142736703E+03  0.00000000000E+00 0.  1.
         -3    1    1    2    0  502 -0.37217183804E+01  0.36215657623E+02 -0.42257369378E+03  0.42413907120E+03  0.00000000000E+00 0. -1.
<mgrwt>
<rscale>  4 0.28071012E+03</rscale>
<asrwt>0</asrwt>
<pdfrwt beam="1">  1       21 0.15275959E-01 0.28071012E+03</pdfrwt>
<pdfrwt beam="2">  1       21 0.18307529E+00 0.28071012E+03</pdfrwt>
<totfact> 0.61707570E+03</totfact>
</mgrwt>
</event>
<event>
 5    0  0.1702508E-001  0.2507045E+03  0.7546771E-02  0.1112860E+00
         21   -1    0    0  503  502  0.00000000000E+00  0.00000000000E+00  0.47407585241E+03  0.47407585241E+03  0.00000000000E+00 0.  1.
         21   -1    0    0  501  503 -0.00000000000E+00 -0.00000000000E+00 -0.19383892919E+03  0.19383892919E+03  0.00000000000E+00 0.  1.
         25    1    1    2    0    0 -0.74830235738E+02  0.20750327279E+03  0.23124719965E+03  0.34315803902E+03  0.12500000000E+03 0.  0.
          1    1    1    2  501    0  0.48165447403E+02 -0.20902438698E+03  0.12217111540E+03  0.24685397731E+03  0.00000000000E+00 0.  1.
         -1    1    1    2    0  502  0.26664788335E+02  0.15211141921E+01 -0.73181391839E+02  0.77902765271E+02  0.00000000000E+00 0. -1.
<mgrwt>
<rscale>  4 0.25070450E+03</rscale>
<asrwt>0</asrwt>
<pdfrwt beam="1">  1       21 0.72934746E-01 0.25070450E+03</pdfrwt>
<pdfrwt beam="2">  1       21 0.29821374E-01 0.25070450E+03</pdfrwt>
<totfact> 0.17654559E+04</totfact>
</mgrwt>
</event>
<event>
 5    0  0.1702508E-001  0.3017578E+03  0.7546771E-02  0.1084365E+00
         21   -1    0    0  503  502  0.00000000000E+00  0.00000000000E+00  0.24137888116E+03  0.24137888116E+03  0.00000000000E+00 0. -1.
         21   -1    0    0  501  503 -0.00000000000E+00 -0.00000000000E+00 -0.66694083144E+03  0.66694083144E+03  0.00000000000E+00 0.  1.
         25    1    1    2    0    0  0.22214096036E+03  0.16531202722E+03  0.19201868254E+01  0.30381467991E+03  0.12500000000E+03 0.  0.
          3    1    1    2  501    0 -0.26916017995E+03 -0.81663149097E+02 -0.16748243467E+03  0.32736285421E+03  0.00000000000E+00 0. -1.
         -3    1    1    2    0  502  0.47019219590E+02 -0.83648878119E+02 -0.25999970244E+03  0.27714217848E+03  0.00000000000E+00 0.  1.
<mgrwt>
<rscale>  4 0.30175780E+03</rscale>
<asrwt>0</asrwt>
<pdfrwt beam="1">  1       21 0.37135213E-01 0.30175780E+03</pdfrwt>
<pdfrwt beam="2">  1       21 0.10260628E+00 0.30175780E+03</pdfrwt>
<totfact> 0.50347473E+03</totfact>
</mgrwt>
</event>
<event>
 5    0  0.1702508E-001  0.2568616E+03  0.7546771E-02  0.1109044E+00
         21   -1    0    0  503  502  0.00000000000E+00  0.00000000000E+00  0.28023556978E+03  0.28023556978E+03  0.00000000000E+00 0. -1.
         21   -1    0    0  501  503 -0.00000000000E+00 -0.00000000000E+00 -0.28706400921E+03  0.28706400921E+03  0.00000000000E+00 0. -1.
         25    1    1    2    0    0  0.23178408892E+03  0.23691914583E+02 -0.73710650319E+02  0.27448757834E+03  0.12500000000E+03 0.  0.
          4    1    1    2  501    0 -0.21300595834E+03 -0.62233552199E+02  0.95159449682E+02  0.24145366879E+03  0.00000000000E+00 0. -1.
         -4    1    1    2    0  502 -0.18778130577E+02  0.38541637616E+02 -0.28277238793E+02  0.51358331864E+02  0.00000000000E+00 0.  1.
<mgrwt>
<rscale>  4 0.25686163E+03</rscale>
<asrwt>0</asrwt>
<pdfrwt beam="1">  1       21 0.43113164E-01 0.25686163E+03</pdfrwt>
<pdfrwt beam="2">  1       21 0.44163694E-01 0.25686163E+03</pdfrwt>
<totfact> 0.24647713E+04</totfact>
</mgrwt>
</event>
<event>
 5    0  0.1702508E-001  0.2883122E+03  0.7546771E-02  0.1091234E+00
         21   -1    0    0  503  502  0.00000000000E+00  0.00000000000E+00  0.84670164380E+03  0.84670164380E+03  0.00000000000E+00 0.  1.
         21   -1    0    0  501  503 -0.00000000000E+00 -0.00000000000E+00 -0.21308747418E+03  0.21308747418E+03  0.00000000000E+00 0. -1.
         25    1    1    2    0    0 -0.21361480331E+03 -0.16134102878E+03  0.68592192368E+03  0.74684409159E+03  0.12500000000E+03 0.  0.
          2    1    1    2  501    0  0.17786902524E+03  0.14931966633E+03  0.18237968902E+02  0.23295144645E+03  0.00000000000E+00 0. -1.
         -2    1    1    2    0  502  0.35745778073E+02  0.12021362452E+02 -0.70545722961E+02  0.79993579950E+02  0.00000000000E+00 0.  1.
<mgrwt>
<rscale>  4 0.28831218E+03</rscale>
<asrwt>0</asrwt>
<pdfrwt beam="1">  1       21 0.13026179E+00 0.28831218E+03</pdfrwt>
<pdfrwt beam="2">  1       21 0.32782689E-01 0.28831218E+03</pdfrwt>
<totfact> 0.35980925E+03</totfact>
</mgrwt>
</event>
<event>
 5    0  0.1702508E-001  0.3341719E+03  0.7546771E-02  0.1069306E+00
         21   -1    0    0  503  502  0.00000000000E+00  0.00000000000E+00  0.35035566054E+03  0.35035566054E+03  0.00000000000E+00 0.  1.
         21   -1    0    0  501  503 -0.00000000000E+00 -0.00000000000E+00 -0.53894927790E+03  0.53894927790E+03  0.00000000000E+00 0.  1.
         25    1    1    2    0    0  0.26286288084E+03 -0.18064657754E+03  0.17074717616E+03  0.38276582693E+03  0.12500000000E+03 0.  0.
          1    1    1    2  501    0 -0.23803007053E+03  0.15796299636E+03 -0.21289109662E+03  0.35627691718E+03  0.00000000000E+00 0.  1.
         -1    1    1    2    0  502 -0.24832810312E+02  0.22683581176E+02 -0.14644969690E+03  0.15026219433E+03  0.00000000000E+00 0. -1.
<mgrwt>
<rscale>  4 0.33417189E+03</rscale>
<asrwt>0</asrwt>
<pdfrwt beam="1">  1       21 0.53900871E-01 0.33417189E+03</pdfrwt>
<pdfrwt beam="2">  1       21 0.82915274E-01 0.33417189E+03</pdfrwt>
<totfact> 0.37791334E+03</totfact>
</mgrwt>
</event>
