<event>
 5    0  0.1856407E+000  0.6225754E+03  0.7546771E-02  0.9859645E-01
         21   -1    0    0  502  501  0.00000000000E+00  0.00000000000E+00  0.90871703409E+03  0.90871703409E+03  0.00000000000E+00 0. -1.
         21   -1    0    0  503  502 -0.00000000000E+00 -0.00000000000E+00 -0.10715085019E+04  0.10715085019E+04  0.00000000000E+00 0. -1.
         25    1    1    2    0    0 -0.42436157103E+03  0.44959608347E+03  0.67070960275E+03  0.92070394398E+03  0.12500000000E+03 0.  0.
         21    1    1    2  503  504  0.42928892262E+02 -0.54129554456E+02 -0.10369689364E+02  0.69860066661E+02  0.00000000000E+00 0.  1.
         21    1    1    2  504  501  0.38143267877E+03 -0.39546652901E+03 -0.82313138116E+03  0.98966152530E+03  0.00000000000E+00 0. -1.
<mgrwt>
<rscale>  4 0.62257536E+03</rscale>
<asrwt>0</asrwt>
<pdfrwt beam="1">  1       21 0.13980262E+00 0.62257536E+03</pdfrwt>
<pdfrwt beam="2">  1       21 0.16484746E+00 0.62257536E+03</pdfrwt>
<totfact> 0.60638254E+01</totfact>
</mgrwt>
</event>
<event>
 5    0  0.1856407E+000  0.4732911E+03  0.7546771E-02  0.1020995E+00
         21   -1    0    0  502  501  0.00000000000E+00  0.00000000000E+00  0.30440224702E+03  0.30440224702E+03  0.00000000000E+00 0. -1.
         21   -1    0    0  503  502 -0.00000000000E+00 -0.00000000000E+00 -0.90144944331E+03  0.90144944331E+03  0.00000000000E+00 0. -1.
         25    1    1    2    0    0 -0.12682358089E+02  0.44999530036E+03 -0.52485158440E+02  0.47014498233E+03  0.12500000000E+03 0.  0.
         21    1    1    2  503  504  0.96830742187E+01  0.21198074163E+02 -0.30061682933E+02  0.38037153618E+02  0.00000000000E+00 0.  1.
         21    1    1    2  504  501  0.29992838702E+01 -0.47119337452E+03 -0.51450035492E+03  0.69766955438E+03  0.00000000000E+00 0. -1.
<mgrwt>
<rscale>  4 0.47329105E+03</rscale>
<asrwt>0</asrwt>
<pdfrwt beam="1">  1       21 0.46831115E-01 0.47329105E+03</pdfrwt>
<pdfrwt beam="2">  1       21 0.13868453E+00 0.47329105E+03</pdfrwt>
<totfact> 0.13503490E+03</totfact>
</mgrwt>
</event>
<event>
 5    0  0.1856407E+000  0.3423587E+03  0.7546771E-02  0.1065796E+00
         21   -1    0    0  502  501  0.00000000000E+00  0.00000000000E+00  0.23179995819E+04  0.23179995819E+04  0.00000000000E+00 0.  1.
         21   -1    0    0  503  502 -0.00000000000E+00 -0.00000000000E+00 -0.55594785670E+02  0.55594785670E+02  0.00000000000E+00 0.  1.
         25    1    1    2    0    0  0.28358534830E+03 -0.14547790878E+03  0.15392902731E+04  0.15769032997E+04  0.12500000000E+03 0.  0.
         21    1    1    2  503  504 -0.23188613840E+03  0.12187582857E+03  0.66797421710E+03  0.71750571669E+03  0.00000000000E+00 0.  1.
         21    1    1    2  504  501 -0.51699209891E+02  0.23602080217E+02  0.55140306032E+02  0.79185351191E+02  0.00000000000E+00 0.  1.
<mgrwt>
<rscale>  4 0.34235869E+03</rscale>
<asrwt>0</asrwt>
<pdfrwt beam="1">  1       21 0.35661525E+00 0.34235869E+03</pdfrwt>
<pdfrwt beam="2">  1       21 0.85530457E-02 0.34235869E+03</pdfrwt>
<totfact> 0.14608440E+03</totfact>
</mgrwt>
</event>
<event>
 5    0  0.1856407E+000  0.2331476E+03  0.7546771E-02  0.1124444E+00
         21   -1    0    0  502  501  0.00000000000E+00  0.00000000000E+00  0.11468773059E+03  0.11468773059E+03  0.00000000000E+00 0.  1.
         21   -1    0    0  503  502 -0.00000000000E+00 -0.00000000000E+00 -0.87047220544E+03  0.87047220544E+03  0.00000000000E+00 0. -1.
         25    1    1    2    0    0 -0.94410378609E+02  0.17884430765E+03 -0.53347899960E+02  0.24365878682E+03  0.12500000000E+03 0.  0.
         21    1    1    2  503  504 -0.25442525569E+01 -0.25554779911E+02 -0.28762057197E+03  0.28876480640E+03  0.00000000000E+00 0. -1.
         21    1    1    2  504  501  0.96954631165E+02 -0.15328952774E+03 -0.41481600292E+03  0.45273634280E+03  0.00000000000E+00 0. -1.
<mgrwt>
<rscale>  4 0.23314762E+03</rscale>
<asrwt>0</asrwt>
<pdfrwt beam="1">  1       21 0.17644266E-01 0.23314762E+03</pdfrwt>
<pdfrwt beam="2">  1       21 0.13391880E+00 0.23314762E+03</pdfrwt>
<totfact> 0.11363090E+04</totfact>
</mgrwt>
</event>
<event>
 5    0  0.2643721E+000  0.2603259E+03  0.7546771E-02  0.1106948E+00
         21   -1    0    0  502  501  0.00000000000E+00  0.00000000000E+00  0.50623856099E+02  0.50623856099E+02  0.00000000000E+00 0. -1.
         21   -1    0    0  503  502 -0.00000000000E+00 -0.00000000000E+00 -0.16383458878E+04  0.16383458878E+04  0.00000000000E+00 0. -1.
         25    1    1    2    0    0 -0.78425856305E+02  0.22640526845E+03 -0.47350996864E+03  0.54520331154E+03  0.12500000000E+03 0.  0.
         21    1    1    2  503  504  0.24476225348E+02 -0.22328330130E+02 -0.32941424054E+03  0.33107609670E+03  0.00000000000E+00 0. -1.
         21    1    1    2  504  501  0.53949630957E+02 -0.20407693832E+03 -0.78479782254E+03  0.81269033568E+03  0.00000000000E+00 0. -1.
<mgrwt>
<rscale>  4 0.26032592E+03</rscale>
<asrwt>0</asrwt>
<pdfrwt beam="1">  1       21 0.77882859E-02 0.26032592E+03</pdfrwt>
<pdfrwt beam="2">  1       21 0.25205320E+00 0.26032592E+03</pdfrwt>
<totfact> 0.76705855E+03</totfact>
</mgrwt>
</event>
<event>
 5    0  0.2842042E+000  0.2284141E+03  0.7546771E-02  0.1127761E+00
         21   -1    0    0  502  501  0.00000000000E+00  0.00000000000E+00  0.28435892939E+03  0.28435892939E+03  0.00000000000E+00 0. -1.
         21   -1    0    0  503  502 -0.00000000000E+00 -0.00000000000E+00 -0.20000581110E+03  0.20000581110E+03  0.00000000000E+00 0. -1.
         25    1    1    2    0    0  0.20288376072E+03  0.33044408700E+00  0.11215829018E+03  0.26337503985E+03  0.12500000000E+03 0.  0.
         21    1    1    2  503  504 -0.25806083457E+02  0.18020436717E+02 -0.29235176701E+02  0.42957951995E+02  0.00000000000E+00 0. -1.
         21    1    1    2  504  501 -0.17707767726E+03 -0.18350880804E+02  0.14300048115E+01  0.17803174864E+03  0.00000000000E+00 0. -1.
<mgrwt>
<rscale>  4 0.22841413E+03</rscale>
<asrwt>0</asrwt>
<pdfrwt beam="1">  1       21 0.43747528E-01 0.22841413E+03</pdfrwt>
<pdfrwt beam="2">  1       21 0.30770125E-01 0.22841413E+03</pdfrwt>
<totfact> 0.50081300E+04</totfact>
</mgrwt>
</event>
<event>
 5    0  0.6380304E+000  0.3885859E+03  0.7546771E-02  0.1047805E+00
         21   -1    0    0  502  501  0.00000000000E+00  0.00000000000E+00  0.14960452508E+03  0.14960452508E+03  0.00000000000E+00 0.  1.
         21   -1    0    0  503  502 -0.00000000000E+00 -0.00000000000E+00 -0.99132733939E+03  0.99132733939E+03  0.00000000000E+00 0.  1.
         25    1    1    2    0    0 -0.89959833895E+02 -0.35676496178E+03 -0.39570871702E+03  0.55460291957E+03  0.12500000000E+03 0.  0.
         21    1    1    2  503  504 -0.18720743869E+02  0.35364348730E+02 -0.63233711547E+02  0.74830513082E+02  0.00000000000E+00 0. -1.
         21    1    1    2  504  501  0.10868057776E+03  0.32140061305E+03 -0.38278038574E+03  0.51149843182E+03  0.00000000000E+00 0.  1.
<mgrwt>
<rscale>  4 0.38858591E+03</rscale>
<asrwt>0</asrwt>
<pdfrwt beam="1">  1       21 0.23016082E-01 0.38858591E+03</pdfrwt>
<pdfrwt beam="2">  1       21 0.15251189E+00 0.38858591E+03</pdfrwt>
<totfact> 0.45114990E+03</totfact>
</mgrwt>
</event>
<event>
 5    0  0.2596481E+000  0.2889219E+03  0.7546771E-02  0.1090913E+00
         21   -1    0    0  502  501  0.00000000000E+00  0.00000000000E+00  0.11791576243E+03  0.11791576243E+03  0.00000000000E+00 0.  1.
         21   -1    0    0  503  502 -0.00000000000E+00 -0.00000000000E+00 -0.73536193563E+03  0.73536193563E+03  0.00000000000E+00 0. -1.
         25    1    1    2    0    0 -0.25410468779E+03  0.57285860856E+02 -0.17453918121E+03  0.33754968225E+03  0.12500000000E+03 0.  0.
         21    1    1    2  503  504  0.23732022089E+03 -0.45698699423E+02 -0.38753731345E+03  0.45672138957E+03  0.00000000000E+00 0. -1.
         21    1    1    2  504  501  0.16784466898E+02 -0.11587161433E+02 -0.55369678541E+02  0.59006626245E+02  0.00000000000E+00 0. -1.
<mgrwt>
<rscale>  4 0.28892190E+03</rscale>
<asrwt>0</asrwt>
<pdfrwt beam="1">  1       21 0.18140887E-01 0.28892190E+03</pdfrwt>
<pdfrwt beam="2">  1       21 0.11313260E+00 0.28892190E+03</pdfrwt>
<totfact> 0.16010691E+04</totfact>
</mgrwt>
</event>
<event>
 5    0  0.1856407E+000  0.2808734E+03  0.7546771E-02  0.1095213E+00
         21   -1    0    0  502  501  0.00000000000E+00  0.00000000000E+00  0.16849433079E+03  0.16849433079E+03  0.00000000000E+00 0. -1.
         21   -1    0    0  503  502 -0.00000000000E+00 -0.00000000000E+00 -0.27651015177E+04  0.27651015177E+04  0.00000000000E+00 0. -1.
         25    1    1    2    0    0  0.74543472599E+02  0.24109973050E+03  0.31007141728E+02  0.28332358213E+03  0.12500000000E+03 0.  0.
         21    1    1    2  503  504  0.39444429069E+02 -0.30812372495E+02 -0.10474828324E+03  0.11609249814E+03  0.00000000000E+00 0.  1.
         21    1    1    2  504  501 -0.11398790167E+03 -0.21028735800E+03 -0.25228660454E+04  0.25341797682E+04  0.00000000000E+00 0. -1.
<mgrwt>
<rscale>  4 0.28087337E+03</rscale>
<asrwt>0</asrwt>
<pdfrwt beam="1">  1       21 0.25922208E-01 0.28087337E+03</pdfrwt>
<pdfrwt beam="2">  1       21 0.42540019E+00 0.28087337E+03</pdfrwt>
<totfact> 0.74277084E+01</totfact>
</mgrwt>
</event>
<event>
 5    0  0.2136648E+000  0.2439514E+03  0.7546771E-02  0.1117188E+00
         21   -1    0    0  502  501  0.00000000000E+00  0.00000000000E+00  0.13146078821E+03  0.13146078821E+03  0.00000000000E+00 0.  1.
         21   -1    0    0  503  502 -0.00000000000E+00 -0.00000000000E+00 -0.50288297682E+03  0.50288297682E+03  0.00000000000E+00 0.  1.
         25    1    1    2    0    0 -0.67479832964E+02  0.19832735737E+03 -0.54739918924E+02  0.25001745391E+03  0.12500000000E+03 0.  0.
         21    1    1    2  503  504 -0.61308330495E+01 -0.45032116043E+02 -0.91315615425E+02  0.10200009907E+03  0.00000000000E+00 0.  1.
         21    1    1    2  504  501  0.73610666014E+02 -0.15329524132E+03 -0.22536665425E+03  0.28232621205E+03  0.00000000000E+00 0.  1.
<mgrwt>
<rscale>  4 0.24395137E+03</rscale>
<asrwt>0</asrwt>
<pdfrwt beam="1">  1       21 0.20224737E-01 0.24395137E+03</pdfrwt>
<pdfrwt beam="2">  1       21 0.77366611E-01 0.24395137E+03</pdfrwt>
<totfact> 0.32668094E+04</totfact>
</mgrwt>
</event>
<event>
 5    0  0.1856407E+000  0.2769106E+03  0.7546771E-02  0.1097388E+00
         21   -1    0    0  502  501  0.00000000000E+00  0.00000000000E+00  0.98254609554E+03  0.98254609554E+03  0.00000000000E+00 0.  1.
         21   -1    0    0  503  502 -0.00000000000E+00 -0.00000000000E+00 -0.37091867883E+03  0.37091867883E+03  0.00000000000E+00 0. -1.
         25    1    1    2    0    0  0.67265039953E+02 -0.23776021543E+03  0.91334502744E+03  0.95439962531E+03  0.12500000000E+03 0.  0.
         21    1    1    2  503  504 -0.14077733352E+02  0.74855221162E+02 -0.15803465689E+03  0.17543215068E+03  0.00000000000E+00 0. -1.
         21    1    1    2  504  501 -0.53187306601E+02  0.16290499427E+03 -0.14368295384E+03  0.22363299838E+03  0.00000000000E+00 0. -1.
<mgrwt>
<rscale>  4 0.27691065E+03</rscale>
<asrwt>0</asrwt>
<pdfrwt beam="1">  1       21 0.15116094E+00 0.27691065E+03</pdfrwt>
<pdfrwt beam="2">  1       21 0.57064413E-01 0.27691065E+03</pdfrwt>
<totfact> 0.78262236E+02</totfact>
</mgrwt>
</event>
<event>
 5    0  0.1856407E+000  0.3012190E+03  0.7546771E-02  0.1084633E+00
         21   -1    0    0  502  501  0.00000000000E+00  0.00000000000E+00  0.31028561750E+03  0.31028561750E+03  0.00000000000E+00 0.  1.
         21   -1    0    0  503  502 -0.00000000000E+00 -0.00000000000E+00 -0.55745941915E+03  0.55745941915E+03  0.00000000000E+00 0.  1.
         25    1    1    2    0    0 -0.13151018877E+03  0.24044326984E+03  0.18502200721E+03  0.35350535910E+03  0.12500000000E+03 0.  0.
         21    1    1    2  503  504  0.87364257038E+02 -0.18336734052E+03 -0.28116190769E+03  0.34685459967E+03  0.00000000000E+00 0.  1.
         21    1    1    2  504  501  0.44145931734E+02 -0.57075929322E+02 -0.15103390117E+03  0.16738507789E+03  0.00000000000E+00 0.  1.
<mgrwt>
<rscale>  4 0.30121902E+03</rscale>
<asrwt>0</asrwt>
<pdfrwt beam="1">  1       21 0.47736250E-01 0.30121902E+03</pdfrwt>
<pdfrwt beam="2">  1       21 0.85762986E-01 0.30121902E+03</pdfrwt>
<totfact> 0.45929740E+03</totfact>
</mgrwt>
</event>
<event>
 5    0  0.3224727E+000  0.2436082E+03  0.7546771E-02  0.1117412E+00
         21   -1    0    0  502  501  0.00000000000E+00  0.00000000000E+00  0.17079533273E+03  0.17079533273E+03  0.00000000000E+00 0. -1.
         21   -1    0    0  503  502 -0.00000000000E+00 -0.00000000000E+00 -0.41669972464E+03  0.41669972464E+03  0.00000000000E+00 0.  1.
         25    1    1    2    0    0 -0.20667343807E+03  0.31717928039E+02  0.15144232268E+02  0.24407843972E+03  0.12500000000E+03 0.  0.
         21    1    1    2  503  504  0.34980001719E+02 -0.18407034945E+02 -0.13317542221E+02  0.41710626782E+02  0.00000000000E+00 0. -1.
         21    1    1    2  504  501  0.17169343635E+03 -0.13310893094E+02 -0.24773108195E+03  0.30170599087E+03  0.00000000000E+00 0.  1.
<mgrwt>
<rscale>  4 0.24360816E+03</rscale>
<asrwt>0</asrwt>
<pdfrwt beam="1">  1       21 0.26276205E-01 0.24360816E+03</pdfrwt>
<pdfrwt beam="2">  1       21 0.64107649E-01 0.24360816E+03</pdfrwt>
<totfact> 0.30133834E+04</totfact>
</mgrwt>
</event>
<event>
 5    0  0.1856407E+000  0.2917382E+03  0.7546771E-02  0.1089445E+00
         21   -1    0    0  502  501  0.00000000000E+00  0.00000000000E+00  0.42386496137E+03  0.42386496137E+03  0.00000000000E+00 0.  1.
         21   -1    0    0  503  502 -0.00000000000E+00 -0.00000000000E+00 -0.35411326387E+03  0.35411326387E+03  0.00000000000E+00 0. -1.
         25    1    1    2    0    0 -0.25900682008E+03 -0.49006630396E+02  0.29108700876E+03  0.41211992106E+03  0.12500000000E+03 0.  0.
         21    1    1    2  503  504  0.15379841877E+03  0.54844240191E+02 -0.61637991049E+02  0.17453104664E+03  0.00000000000E+00 0. -1.
         21    1    1    2  504  501  0.10520840131E+03 -0.58376097953E+01 -0.15969732021E+03  0.19132725754E+03  0.00000000000E+00 0. -1.
<mgrwt>
<rscale>  4 0.29173821E+03</rscale>
<asrwt>0</asrwt>
<pdfrwt beam="1">  1       21 0.65209994E-01 0.29173821E+03</pdfrwt>
<pdfrwt beam="2">  1       21 0.54478963E-01 0.29173821E+03</pdfrwt>
<totfact> 0.64798346E+03</totfact>
</mgrwt>
</event>
