<event>
 5    0  0.2917107E+000  0.3361265E+03  0.7546771E-02  0.1068458E+00
          2   -1    0    0  502    0  0.00000000000E+00  0.00000000000E+00  0.29310233470E+04  0.29310233470E+04  0.00000000000E+00 0.  1.
         -2   -1    0    0    0  501 -0.00000000000E+00 -0.00000000000E+00 -0.28537542398E+03  0.28537542398E+03  0.00000000000E+00 0. -1.
         25    1    1    2    0    0  0.10254167297E+03 -0.40417587869E+03  0.32737476035E+03  0.54467620595E+03  0.12500000000E+03 0.  0.
          2    1    1    2  502    0 -0.89886693262E+02  0.28946412858E+03  0.24658330917E+04  0.24843916631E+04  0.00000000000E+00 0.  1.
         -2    1    1    2    0  501 -0.12654979705E+02  0.11471175011E+03 -0.14755992911E+03  0.18733090189E+03  0.00000000000E+00 0. -1.
<mgrwt>
<rscale>  4 0.33612648E+03</rscale>
<asrwt>0</asrwt>
<pdfrwt beam="1">  1        2 0.45092665E+00 0.33612648E+03</pdfrwt>
<pdfrwt beam="2">  1       -2 0.43903913E-01 0.33612648E+03</pdfrwt>
<totfact> 0.11196660E+01</totfact>
</mgrwt>
</event>
<event>
 5    0  0.2917107E+000  0.3098695E+03  0.7546771E-02  0.1080408E+00
         -1   -1    0    0    0  502 -0.00000000000E+00  0.00000000000E+00  0.58857691818E+03  0.58857691818E+03  0.00000000000E+00 0. -1.
         -4   -1    0    0    0  501  0.00000000000E+00 -0.00000000000E+00 -0.20456323578E+03  0.20456323578E+03  0.00000000000E+00 0. -1.
         25    1    1    2    0    0  0.48536090200E+01 -0.31099353076E+03  0.28041506778E+03  0.43703334419E+03  0.12500000000E+03 0.  0.
         -4    1    1    2    0  502  0.20463624625E+02  0.27120553600E+03  0.36970902069E+02  0.27447777741E+03  0.00000000000E+00 0. -1.
         -1    1    1    2    0  501 -0.25317233645E+02  0.39787994760E+02  0.66627712553E+02  0.81629032375E+02  0.00000000000E+00 0. -1.
<mgrwt>
<rscale>  4 0.30986945E+03</rscale>
<asrwt>0</asrwt>
<pdfrwt beam="1">  1       -4 0.31471267E-01 0.30986945E+03</pdfrwt>
<pdfrwt beam="2">  1       -1 0.90550294E-01 0.30986945E+03</pdfrwt>
<totfact> 0.48610997E+01</totfact>
</mgrwt>
</event>
<event>
 5    0  0.2917107E+000  0.1862651E+03  0.7546771E-02  0.1161874E+00
          2   -1    0    0  502    0  0.00000000000E+00  0.00000000000E+00  0.71699011803E+03  0.71699011803E+03  0.00000000000E+00 0. -1.
          1   -1    0    0  501    0 -0.00000000000E+00 -0.00000000000E+00 -0.19232055002E+03  0.19232055002E+03  0.00000000000E+00 0. -1.
         25    1    1    2    0    0  0.57352900785E+02  0.20059909208E+03  0.12337572952E+03  0.27271949253E+03  0.12500000000E+03 0.  0.
          2    1    1    2  501    0 -0.66357560920E+02 -0.11258978001E+03  0.49248939729E+03  0.50953468076E+03  0.00000000000E+00 0. -1.
          1    1    1    2  502    0  0.90046601350E+01 -0.88009312070E+02 -0.91195558804E+02  0.12705649476E+03  0.00000000000E+00 0. -1.
<mgrwt>
<rscale>  4 0.18626510E+03</rscale>
<asrwt>0</asrwt>
<pdfrwt beam="1">  1        2 0.11030617E+00 0.18626510E+03</pdfrwt>
<pdfrwt beam="2">  1        1 0.29587777E-01 0.18626510E+03</pdfrwt>
<totfact> 0.85910049E+02</totfact>
</mgrwt>
</event>
<event>
 5    0  0.2917107E+000  0.4795028E+03  0.7546771E-02  0.1019272E+00
          2   -1    0    0  502    0  0.00000000000E+00  0.00000000000E+00  0.34004936454E+03  0.34004936454E+03  0.00000000000E+00 0. -1.
          1   -1    0    0  501    0 -0.00000000000E+00 -0.00000000000E+00 -0.25825835035E+04  0.25825835035E+04  0.00000000000E+00 0. -1.
         25    1    1    2    0    0  0.39034218335E+03 -0.31400597543E+03 -0.21830845796E+03  0.56058037383E+03  0.12500000000E+03 0.  0.
          2    1    1    2  501    0 -0.33134185782E+03  0.28260289320E+03 -0.11333898348E+03  0.44999727462E+03  0.00000000000E+00 0. -1.
          1    1    1    2  502    0 -0.59000325529E+02  0.31403082223E+02 -0.19108866976E+04  0.19120552196E+04  0.00000000000E+00 0. -1.
<mgrwt>
<rscale>  4 0.47950278E+03</rscale>
<asrwt>0</asrwt>
<pdfrwt beam="1">  1        2 0.52315285E-01 0.47950278E+03</pdfrwt>
<pdfrwt beam="2">  1        1 0.39732055E+00 0.47950278E+03</pdfrwt>
<totfact> 0.16890478E+01</totfact>
</mgrwt>
</event>
<event>
 5    0  0.2917107E+000  0.1949255E+03  0.7546771E-02  0.1154092E+00
          2   -1    0    0  502    0  0.00000000000E+00  0.00000000000E+00  0.11391223321E+04  0.11391223321E+04  0.00000000000E+00 0.  1.
          3   -1    0    0  501    0 -0.00000000000E+00 -0.00000000000E+00 -0.19107145200E+03  0.19107145200E+03  0.00000000000E+00 0. -1.
         25    1    1    2    0    0 -0.19249234413E+03  0.59100552516E+02  0.17576710286E+03  0.29506821636E+03  0.12500000000E+03 0.  0.
          2    1    1    2  501    0  0.14150368867E+03 -0.29673827728E+02  0.89097858225E+03  0.90263318352E+03  0.00000000000E+00 0.  1.
          3    1    1    2  502    0  0.50988655468E+02 -0.29426724787E+02 -0.11869480506E+03  0.13249238418E+03  0.00000000000E+00 0. -1.
<mgrwt>
<rscale>  4 0.19492547E+03</rscale>
<asrwt>0</asrwt>
<pdfrwt beam="1">  1        2 0.17524958E+00 0.19492547E+03</pdfrwt>
<pdfrwt beam="2">  1        3 0.29395609E-01 0.19492547E+03</pdfrwt>
<totfact> 0.15205314E+02</totfact>
</mgrwt>
</event>
<event>
 5    0  0.2917107E+000  0.2329919E+03  0.7546771E-02  0.1124551E+00
          2   -1    0    0  502    0  0.00000000000E+00  0.00000000000E+00  0.41451419739E+03  0.41451419739E+03  0.00000000000E+00 0. -1.
          2   -1    0    0  501    0 -0.00000000000E+00 -0.00000000000E+00 -0.37725253638E+03  0.37725253638E+03  0.00000000000E+00 0.  1.
         25    1    1    2    0    0  0.12472647515E+03  0.17504269836E+03 -0.45840844581E+02  0.25283002765E+03  0.12500000000E+03 0.  0.
          2    1    1    2  501    0 -0.25736339992E+02 -0.13157514061E+02  0.27062169434E+03  0.27216094653E+03  0.00000000000E+00 0. -1.
          2    1    1    2  502    0 -0.98990135157E+02 -0.16188518429E+03 -0.18751918875E+03  0.26677575958E+03  0.00000000000E+00 0.  1.
<mgrwt>
<rscale>  4 0.23299192E+03</rscale>
<asrwt>0</asrwt>
<pdfrwt beam="1">  1        2 0.63771415E-01 0.23299192E+03</pdfrwt>
<pdfrwt beam="2">  1        2 0.58038851E-01 0.23299192E+03</pdfrwt>
<totfact> 0.10127934E+03</totfact>
</mgrwt>
</event>
<event>
 5    0  0.2917107E+000  0.1898933E+03  0.7546771E-02  0.1158558E+00
          2   -1    0    0  502    0  0.00000000000E+00  0.00000000000E+00  0.24094149074E+04  0.24094149074E+04  0.00000000000E+00 0. -1.
          2   -1    0    0  501    0 -0.00000000000E+00 -0.00000000000E+00 -0.11707388443E+04  0.11707388443E+04  0.00000000000E+00 0. -1.
         25    1    1    2    0    0 -0.17165265148E+03  0.20373987604E+03 -0.93708147909E+02  0.30883780020E+03  0.12500000000E+03 0.  0.
          2    1    1    2  501    0  0.70985469454E+02 -0.12258343329E+03  0.22953452383E+04  0.22997120251E+04  0.00000000000E+00 0. -1.
          2    1    1    2  502    0  0.10066718203E+03 -0.81156442753E+02 -0.96296102733E+03  0.97160392645E+03  0.00000000000E+00 0. -1.
<mgrwt>
<rscale>  4 0.18989328E+03</rscale>
<asrwt>0</asrwt>
<pdfrwt beam="1">  1        2 0.37067922E+00 0.18989328E+03</pdfrwt>
<pdfrwt beam="2">  1        2 0.18011367E+00 0.18989328E+03</pdfrwt>
<totfact> 0.15606582E+01</totfact>
</mgrwt>
</event>
<event>
 5    0  0.2917107E+000  0.2267906E+03  0.7546771E-02  0.1128919E+00
          2   -1    0    0  502    0  0.00000000000E+00  0.00000000000E+00  0.25996905366E+04  0.25996905366E+04  0.00000000000E+00 0.  1.
          3   -1    0    0  501    0 -0.00000000000E+00 -0.00000000000E+00 -0.29608993821E+03  0.29608993821E+03  0.00000000000E+00 0.  1.
         25    1    1    2    0    0 -0.20016872205E+03  0.58767665594E+02  0.50870826229E+03  0.56385304108E+03  0.12500000000E+03 0.  0.
          2    1    1    2  501    0  0.17517914489E+03 -0.63482016608E+02  0.20585905962E+04  0.20670057915E+04  0.00000000000E+00 0.  1.
          3    1    1    2  502    0  0.24989577170E+02  0.47143510134E+01 -0.26369826018E+03  0.26492164217E+03  0.00000000000E+00 0.  1.
<mgrwt>
<rscale>  4 0.22679059E+03</rscale>
<asrwt>0</asrwt>
<pdfrwt beam="1">  1        2 0.39995237E+00 0.22679059E+03</pdfrwt>
<pdfrwt beam="2">  1        3 0.45552300E-01 0.22679059E+03</pdfrwt>
<totfact> 0.10834245E+01</totfact>
</mgrwt>
</event>
<event>
 5    0  0.2917107E+000  0.2169461E+03  0.7546771E-02  0.1136181E+00
          2   -1    0    0  502    0  0.00000000000E+00  0.00000000000E+00  0.55143701383E+03  0.55143701383E+03  0.00000000000E+00 0.  1.
          1   -1    0    0  501    0 -0.00000000000E+00 -0.00000000000E+00 -0.12449746978E+04  0.12449746978E+04  0.00000000000E+00 0.  1.
         25    1    1    2    0    0 -0.19962690569E+03 -0.40003871275E+02  0.34005081517E+03  0.41558485065E+03  0.12500000000E+03 0.  0.
          2    1    1    2  501    0  0.15249632322E+03  0.19627924163E+02  0.13890620706E+03  0.20720839356E+03  0.00000000000E+00 0.  1.
          1    1    1    2  502    0  0.47130582474E+02  0.20375947112E+02 -0.11724947062E+04  0.11736184674E+04  0.00000000000E+00 0.  1.
<mgrwt>
<rscale>  4 0.21694607E+03</rscale>
<asrwt>0</asrwt>
<pdfrwt beam="1">  1        2 0.84836465E-01 0.21694607E+03</pdfrwt>
<pdfrwt beam="2">  1        1 0.19153457E+00 0.21694607E+03</pdfrwt>
<totfact> 0.83164147E+01</totfact>
</mgrwt>
</event>
<event>
 5    0  0.2917107E+000  0.3057027E+03  0.7546771E-02  0.1082424E+00
          1   -1    0    0  501    0 -0.00000000000E+00  0.00000000000E+00  0.23510550206E+03  0.23510550206E+03  0.00000000000E+00 0.  1.
          2   -1    0    0  502    0  0.00000000000E+00 -0.00000000000E+00 -0.20877639658E+04  0.20877639658E+04  0.00000000000E+00 0. -1.
         25    1    1    2    0    0 -0.28361745844E+03  0.22002671208E+03 -0.86149726404E+03  0.94162261693E+03  0.12500000000E+03 0.  0.
          2    1    1    2  501    0  0.19152984739E+03 -0.16375184790E+03 -0.11565931005E+04  0.11837254539E+04  0.00000000000E+00 0. -1.
          1    1    1    2  502    0  0.92087611059E+02 -0.56274864176E+02  0.16543190084E+03  0.19752139698E+03  0.00000000000E+00 0.  1.
<mgrwt>
<rscale>  4 0.30570273E+03</rscale>
<asrwt>0</asrwt>
<pdfrwt beam="1">  1        2 0.32119447E+00 0.30570273E+03</pdfrwt>
<pdfrwt beam="2">  1        1 0.36170076E-01 0.30570273E+03</pdfrwt>
<totfact> 0.10767308E+02</totfact>
</mgrwt>
</event>
<event>
 5    0  0.2917107E+000  0.2336836E+03  0.7546771E-02  0.1124074E+00
         -4   -1    0    0    0  501  0.00000000000E+00  0.00000000000E+00  0.71697108596E+03  0.71697108596E+03  0.00000000000E+00 0. -1.
         -3   -1    0    0    0  502 -0.00000000000E+00 -0.00000000000E+00 -0.17740685785E+03  0.17740685785E+03  0.00000000000E+00 0.  1.
         25    1    1    2    0    0  0.67938025442E+02  0.21626557481E+03  0.10144108488E+03  0.27803177489E+03  0.12500000000E+03 0.  0.
         -4    1    1    2    0  502 -0.51294026102E+02 -0.18465230083E+03  0.50521086284E+03  0.54033838032E+03  0.00000000000E+00 0. -1.
         -3    1    1    2    0  501 -0.16643999340E+02 -0.31613273981E+02 -0.67087719605E+02  0.76007788599E+02  0.00000000000E+00 0.  1.
<mgrwt>
<rscale>  4 0.23368365E+03</rscale>
<asrwt>0</asrwt>
<pdfrwt beam="1">  1       -4 0.11030324E+00 0.23368365E+03</pdfrwt>
<pdfrwt beam="2">  1       -3 0.27293363E-01 0.23368365E+03</pdfrwt>
<totfact> 0.18253822E+01</totfact>
</mgrwt>
</event>
<event>
 5    0  0.2917107E+000  0.2140377E+03  0.7546771E-02  0.1138408E+00
          2   -1    0    0  502    0  0.00000000000E+00  0.00000000000E+00  0.24137923148E+04  0.24137923148E+04  0.00000000000E+00 0.  1.
         -2   -1    0    0    0  501 -0.00000000000E+00 -0.00000000000E+00 -0.92721813049E+03  0.92721813049E+03  0.00000000000E+00 0. -1.
         25    1    1    2    0    0 -0.17889802003E+03 -0.93977900664E+02  0.52154445434E+03  0.57312299312E+03  0.12500000000E+03 0.  0.
          2    1    1    2  502    0  0.16110122585E+03  0.53757182211E+02  0.18620552838E+04  0.18697842976E+04  0.00000000000E+00 0.  1.
         -2    1    1    2    0  501  0.17796794184E+02  0.40220718453E+02 -0.89702555382E+03  0.89810315459E+03  0.00000000000E+00 0. -1.
<mgrwt>
<rscale>  4 0.21403767E+03</rscale>
<asrwt>0</asrwt>
<pdfrwt beam="1">  1        2 0.37135266E+00 0.21403767E+03</pdfrwt>
<pdfrwt beam="2">  1       -2 0.14264894E+00 0.21403767E+03</pdfrwt>
<totfact> 0.17101683E+00</totfact>
</mgrwt>
</event>
<event>
 5    0  0.2917107E+000  0.2307314E+03  0.7546771E-02  0.1126126E+00
          1   -1    0    0  501    0 -0.00000000000E+00  0.00000000000E+00  0.22412085732E+04  0.22412085732E+04  0.00000000000E+00 0.  1.
          2   -1    0    0  502    0  0.00000000000E+00 -0.00000000000E+00 -0.39604720800E+03  0.39604720800E+03  0.00000000000E+00 0. -1.
         25    1    1    2    0    0  0.28158906241E+03  0.16905045476E+03  0.38000580852E+03  0.51759044700E+03  0.12500000000E+03 0.  0.
          2    1    1    2  501    0 -0.18754124956E+03 -0.10498711156E+02 -0.29508618504E+03  0.34979679790E+03  0.00000000000E+00 0. -1.
          1    1    1    2  502    0 -0.94047812844E+02 -0.15855174360E+03  0.17602417417E+04  0.17698685363E+04  0.00000000000E+00 0.  1.
<mgrwt>
<rscale>  4 0.23073141E+03</rscale>
<asrwt>0</asrwt>
<pdfrwt beam="1">  1        2 0.60930341E-01 0.23073141E+03</pdfrwt>
<pdfrwt beam="2">  1        1 0.34480131E+00 0.23073141E+03</pdfrwt>
<totfact> 0.26526309E+01</totfact>
</mgrwt>
</event>
<event>
 5    0  0.2917107E+000  0.2039152E+03  0.7546771E-02  0.1146477E+00
          2   -1    0    0  502    0  0.00000000000E+00  0.00000000000E+00  0.91446943160E+03  0.91446943160E+03  0.00000000000E+00 0.  1.
          1   -1    0    0  501    0 -0.00000000000E+00 -0.00000000000E+00 -0.46197664147E+03  0.46197664147E+03  0.00000000000E+00 0.  1.
         25    1    1    2    0    0 -0.40453827492E+02  0.22172378284E+03  0.31006355406E+02  0.25958494200E+03  0.12500000000E+03 0.  0.
          2    1    1    2  501    0  0.29235675908E+02 -0.68446539875E+02  0.75025848494E+03  0.75394127609E+03  0.00000000000E+00 0.  1.
          1    1    1    2  502    0  0.11218151583E+02 -0.15327724297E+03 -0.32877205021E+03  0.36291985498E+03  0.00000000000E+00 0.  1.
<mgrwt>
<rscale>  4 0.20391519E+03</rscale>
<asrwt>0</asrwt>
<pdfrwt beam="1">  1        2 0.14068760E+00 0.20391519E+03</pdfrwt>
<pdfrwt beam="2">  1        1 0.71073330E-01 0.20391519E+03</pdfrwt>
<totfact> 0.20807607E+02</totfact>
</mgrwt>
</event>
<event>
 5    0  0.2917107E+000  0.2252234E+03  0.7546771E-02  0.1130048E+00
         -4   -1    0    0    0  501  0.00000000000E+00  0.00000000000E+00  0.10705439497E+03  0.10705439497E+03  0.00000000000E+00 0.  1.
         -3   -1    0    0    0  502 -0.00000000000E+00 -0.00000000000E+00 -0.51565205204E+03  0.51565205204E+03  0.00000000000E+00 0.  1.
         25    1    1    2    0    0  0.42816641785E+01  0.20475510217E+03 -0.24723007047E+03  0.34451515534E+03  0.12500000000E+03 0.  0.
         -4    1    1    2    0  502  0.10240737867E+02 -0.30986858910E+02  0.95675134732E+01  0.34008755508E+02  0.00000000000E+00 0.  1.
         -3    1    1    2    0  501 -0.14522402045E+02 -0.17376824326E+03 -0.17093510008E+03  0.24418253616E+03  0.00000000000E+00 0.  1.
<mgrwt>
<rscale>  4 0.22522341E+03</rscale>
<asrwt>0</asrwt>
<pdfrwt beam="1">  1       -4 0.16469907E-01 0.22522341E+03</pdfrwt>
<pdfrwt beam="2">  1       -3 0.79331085E-01 0.22522341E+03</pdfrwt>
<totfact> 0.10254793E+02</totfact>
</mgrwt>
</event>
<event>
 5    0  0.2917107E+000  0.4707830E+03  0.7546771E-02  0.1021699E+00
          2   -1    0    0  502    0  0.00000000000E+00  0.00000000000E+00  0.17883786163E+04  0.17883786163E+04  0.00000000000E+00 0.  1.
         -2   -1    0    0    0  501 -0.00000000000E+00 -0.00000000000E+00 -0.39507936991E+03  0.39507936991E+03  0.00000000000E+00 0.  1.
         25    1    1    2    0    0  0.53297009255E+02 -0.39146202478E+03  0.27244000183E+03  0.49591495504E+03  0.12500000000E+03 0.  0.
          2    1    1    2  502    0 -0.14298041644E+02  0.47563370938E+03  0.13547698250E+04  0.14359084714E+04  0.00000000000E+00 0.  1.
         -2    1    1    2    0  501 -0.38998967611E+02 -0.84171684608E+02 -0.23391058050E+03  0.25163455970E+03  0.00000000000E+00 0.  1.
<mgrwt>
<rscale>  4 0.47078302E+03</rscale>
<asrwt>0</asrwt>
<pdfrwt beam="1">  1        2 0.27513517E+00 0.47078302E+03</pdfrwt>
<pdfrwt beam="2">  1       -2 0.60781443E-01 0.47078302E+03</pdfrwt>
<totfact> 0.23772427E+01</totfact>
</mgrwt>
</event>
<event>
 5    0  0.2917107E+000  0.2398117E+03  0.7546771E-02  0.1119918E+00
          2   -1    0    0  501    0  0.00000000000E+00  0.00000000000E+00  0.26574074341E+04  0.26574074341E+04  0.00000000000E+00 0.  1.
         -3   -1    0    0    0  501 -0.00000000000E+00 -0.00000000000E+00 -0.29712803890E+03  0.29712803890E+03  0.00000000000E+00 0. -1.
         25    1    1    2    0    0 -0.14325323436E+03 -0.19857452665E+03  0.12079690130E+04  0.12388573236E+04  0.12500000000E+03 0.  0.
          2    1    1    2  502    0  0.52302893915E+02  0.16485230469E+02  0.13966171791E+04  0.13976934215E+04  0.00000000000E+00 0.  1.
         -3    1    1    2    0  502  0.90950340445E+02  0.18208929618E+03 -0.24430679689E+03  0.31798472796E+03  0.00000000000E+00 0. -1.
<mgrwt>
<rscale>  4 0.23981169E+03</rscale>
<asrwt>0</asrwt>
<pdfrwt beam="1">  1        2 0.40883190E+00 0.23981169E+03</pdfrwt>
<pdfrwt beam="2">  1       -3 0.45712008E-01 0.23981169E+03</pdfrwt>
<totfact> 0.99398321E+00</totfact>
</mgrwt>
</event>
<event>
 5    0  0.2917107E+000  0.4420316E+03  0.7546771E-02  0.1030125E+00
          1   -1    0    0  501    0 -0.00000000000E+00  0.00000000000E+00  0.11386929679E+04  0.11386929679E+04  0.00000000000E+00 0.  1.
          2   -1    0    0  502    0  0.00000000000E+00 -0.00000000000E+00 -0.34386601837E+04  0.34386601837E+04  0.00000000000E+00 0.  1.
         25    1    1    2    0    0 -0.49170791552E+03  0.17984670375E+02 -0.38660160807E+03  0.63811121751E+03  0.12500000000E+03 0.  0.
          2    1    1    2  501    0  0.41569770694E+03 -0.15480457792E+02 -0.29100642938E+04  0.29396459688E+04  0.00000000000E+00 0.  1.
          1    1    1    2  502    0  0.76010208578E+02 -0.25042125833E+01  0.99669868607E+03  0.99959596523E+03  0.00000000000E+00 0.  1.
<mgrwt>
<rscale>  4 0.44203162E+03</rscale>
<asrwt>0</asrwt>
<pdfrwt beam="1">  1        2 0.52902463E+00 0.44203162E+03</pdfrwt>
<pdfrwt beam="2">  1        1 0.17518354E+00 0.44203162E+03</pdfrwt>
<totfact> 0.17438118E+00</totfact>
</mgrwt>
</event>
<event>
 5    0  0.2917107E+000  0.3044022E+03  0.7546771E-02  0.1083060E+00
          2   -1    0    0  501    0  0.00000000000E+00  0.00000000000E+00  0.16900047506E+04  0.16900047506E+04  0.00000000000E+00 0.  1.
         -1   -1    0    0    0  501 -0.00000000000E+00 -0.00000000000E+00 -0.94825969023E+02  0.94825969023E+02  0.00000000000E+00 0.  1.
         25    1    1    2    0    0  0.19085725553E+03 -0.17494451014E+03  0.32139426896E+03  0.43122076682E+03  0.12500000000E+03 0.  0.
          2    1    1    2  502    0  0.99545019009E+02  0.34254507993E+02  0.56641115133E+03  0.57611125182E+03  0.00000000000E+00 0.  1.
         -1    1    1    2    0  502 -0.29040227454E+03  0.14069000215E+03  0.70737336129E+03  0.77749870098E+03  0.00000000000E+00 0.  1.
<mgrwt>
<rscale>  4 0.30440221E+03</rscale>
<asrwt>0</asrwt>
<pdfrwt beam="1">  1        2 0.26000071E+00 0.30440221E+03</pdfrwt>
<pdfrwt beam="2">  1       -1 0.14588612E-01 0.30440221E+03</pdfrwt>
<totfact> 0.41314848E+02</totfact>
</mgrwt>
</event>
<event>
 5    0  0.2917107E+000  0.2872310E+03  0.7546771E-02  0.1091804E+00
         -4   -1    0    0    0  501 -0.00000000000E+00  0.00000000000E+00  0.15904336322E+03  0.15904336322E+03  0.00000000000E+00 0. -1.
          2   -1    0    0  501    0  0.00000000000E+00 -0.00000000000E+00 -0.16357665638E+04  0.16357665638E+04  0.00000000000E+00 0. -1.
         25    1    1    2    0    0 -0.26159859358E+03 -0.57038634525E+02 -0.76136062402E+03  0.81668980023E+03  0.12500000000E+03 0.  0.
          2    1    1    2  502    0  0.24909442129E+03  0.41400381298E+02 -0.82700517451E+03  0.86469623624E+03  0.00000000000E+00 0. -1.
         -4    1    1    2    0  502  0.12504172282E+02  0.15638253227E+02  0.11164259791E+03  0.11342389059E+03  0.00000000000E+00 0. -1.
<mgrwt>
<rscale>  4 0.28723097E+03</rscale>
<asrwt>0</asrwt>
<pdfrwt beam="1">  1        2 0.25165638E+00 0.28723097E+03</pdfrwt>
<pdfrwt beam="2">  1       -4 0.24468211E-01 0.28723097E+03</pdfrwt>
<totfact> 0.97468113E+01</totfact>
</mgrwt>
</event>
<event>
 5    0  0.2917107E+000  0.4419983E+03  0.7546771E-02  0.1030135E+00
          1   -1    0    0  501    0  0.00000000000E+00  0.00000000000E+00  0.23230327913E+04  0.23230327913E+04  0.00000000000E+00 0.  1.
         -2   -1    0    0    0  501 -0.00000000000E+00 -0.00000000000E+00 -0.25980481326E+03  0.25980481326E+03  0.00000000000E+00 0.  1.
         25    1    1    2    0    0  0.37537278929E+03 -0.24764013580E+03  0.20332445378E+04  0.20861300818E+04  0.12500000000E+03 0.  0.
          1    1    1    2  502    0 -0.14754907250E+02  0.29304074832E+02  0.65901137851E+02  0.73616547459E+02  0.00000000000E+00 0.  1.
         -2    1    1    2    0  502 -0.36061788204E+03  0.21833606097E+03 -0.35917697602E+02  0.42309097528E+03  0.00000000000E+00 0.  1.
<mgrwt>
<rscale>  4 0.44199828E+03</rscale>
<asrwt>0</asrwt>
<pdfrwt beam="1">  1        1 0.35738965E+00 0.44199828E+03</pdfrwt>
<pdfrwt beam="2">  1       -2 0.39969973E-01 0.44199828E+03</pdfrwt>
<totfact> 0.10402650E+01</totfact>
</mgrwt>
</event>
<event>
 5    0  0.2917107E+000  0.2595854E+03  0.7546771E-02  0.1107393E+00
          1   -1    0    0  502    0  0.00000000000E+00  0.00000000000E+00  0.72768806762E+03  0.72768806762E+03  0.00000000000E+00 0.  1.
         -1   -1    0    0    0  501 -0.00000000000E+00 -0.00000000000E+00 -0.52253982653E+03  0.52253982653E+03  0.00000000000E+00 0.  1.
         25    1    1    2    0    0 -0.16462076898E+03  0.20903202809E+03  0.71401339785E+02  0.30251865673E+03  0.12500000000E+03 0.  0.
          1    1    1    2  502    0  0.47737739835E+02 -0.20889353510E+02  0.50916345623E+03  0.51182290107E+03  0.00000000000E+00 0.  1.
         -1    1    1    2    0  501  0.11688302914E+03 -0.18814267458E+03 -0.37541655493E+03  0.43588633635E+03  0.00000000000E+00 0.  1.
<mgrwt>
<rscale>  4 0.25958545E+03</rscale>
<asrwt>0</asrwt>
<pdfrwt beam="1">  1        1 0.11195201E+00 0.25958545E+03</pdfrwt>
<pdfrwt beam="2">  1       -1 0.80390743E-01 0.25958545E+03</pdfrwt>
<totfact> 0.43805602E+01</totfact>
</mgrwt>
</event>
<event>
 5    0  0.2917107E+000  0.2558778E+03  0.7546771E-02  0.1109645E+00
         -4   -1    0    0    0  501  0.00000000000E+00  0.00000000000E+00  0.65644510320E+03  0.65644510320E+03  0.00000000000E+00 0.  1.
         -3   -1    0    0    0  502 -0.00000000000E+00 -0.00000000000E+00 -0.13350896375E+03  0.13350896375E+03  0.00000000000E+00 0.  1.
         25    1    1    2    0    0 -0.24957837739E+03  0.79399100260E+02  0.19972010636E+03  0.35228781482E+03  0.12500000000E+03 0.  0.
         -4    1    1    2    0  502  0.20122542092E+03 -0.51889513425E+02  0.32049340952E+03  0.38196886937E+03  0.00000000000E+00 0.  1.
         -3    1    1    2    0  501  0.48352956467E+02 -0.27509586835E+02  0.27226235747E+01  0.55697382758E+02  0.00000000000E+00 0.  1.
<mgrwt>
<rscale>  4 0.25587784E+03</rscale>
<asrwt>0</asrwt>
<pdfrwt beam="1">  1       -4 0.10099155E+00 0.25587784E+03</pdfrwt>
<pdfrwt beam="2">  1       -3 0.20539841E-01 0.25587784E+03</pdfrwt>
<totfact> 0.37982309E+01</totfact>
</mgrwt>
</event>
<event>
 5    0  0.2917107E+000  0.2663143E+03  0.7546771E-02  0.1103408E+00
          3   -1    0    0  501    0 -0.00000000000E+00  0.00000000000E+00  0.17721870066E+04  0.17721870066E+04  0.00000000000E+00 0.  1.
          2   -1    0    0  502    0  0.00000000000E+00 -0.00000000000E+00 -0.51911209661E+03  0.51911209661E+03  0.00000000000E+00 0. -1.
         25    1    1    2    0    0  0.21208161469E+03  0.18968391672E+00  0.25863646659E+03  0.35706647717E+03  0.12500000000E+03 0.  0.
          2    1    1    2  501    0 -0.23654682613E+03 -0.21019881174E+02 -0.43970107497E+03  0.49973320050E+03  0.00000000000E+00 0. -1.
          3    1    1    2  502    0  0.24465211434E+02  0.20830197257E+02  0.14341395184E+04  0.14344994256E+04  0.00000000000E+00 0.  1.
<mgrwt>
<rscale>  4 0.26631434E+03</rscale>
<asrwt>0</asrwt>
<pdfrwt beam="1">  1        2 0.79863401E-01 0.26631434E+03</pdfrwt>
<pdfrwt beam="2">  1        3 0.27264415E+00 0.26631434E+03</pdfrwt>
<totfact> 0.22671793E+00</totfact>
</mgrwt>
</event>
<event>
 5    0  0.2917107E+000  0.2277318E+03  0.7546771E-02  0.1128247E+00
          2   -1    0    0  502    0  0.00000000000E+00  0.00000000000E+00  0.11054540785E+04  0.11054540785E+04  0.00000000000E+00 0.  1.
          2   -1    0    0  501    0 -0.00000000000E+00 -0.00000000000E+00 -0.64922385359E+03  0.64922385359E+03  0.00000000000E+00 0.  1.
         25    1    1    2    0    0  0.70269365509E+02  0.21739946357E+03 -0.58836083171E+01  0.26049938068E+03  0.12500000000E+03 0.  0.
          2    1    1    2  501    0  0.37898651682E+02 -0.63149791780E+02 -0.50426091895E+03  0.50961090881E+03  0.00000000000E+00 0.  1.
          2    1    1    2  502    0 -0.10816801719E+03 -0.15424967179E+03  0.96637475222E+03  0.98456764263E+03  0.00000000000E+00 0.  1.
<mgrwt>
<rscale>  4 0.22773177E+03</rscale>
<asrwt>0</asrwt>
<pdfrwt beam="1">  1        2 0.17006986E+00 0.22773177E+03</pdfrwt>
<pdfrwt beam="2">  1        2 0.99880593E-01 0.22773177E+03</pdfrwt>
<totfact> 0.16504723E+02</totfact>
</mgrwt>
</event>
<event>
 5    0  0.2917107E+000  0.2397967E+03  0.7546771E-02  0.1119928E+00
         -3   -1    0    0    0  501 -0.00000000000E+00  0.00000000000E+00  0.21944862157E+03  0.21944862157E+03  0.00000000000E+00 0.  1.
          1   -1    0    0  501    0  0.00000000000E+00 -0.00000000000E+00 -0.76848619051E+03  0.76848619051E+03  0.00000000000E+00 0. -1.
         25    1    1    2    0    0 -0.80293161289E+02  0.22645888616E+03  0.61811521101E+02  0.27780619685E+03  0.12500000000E+03 0.  0.
          1    1    1    2  502    0  0.60716066905E+02 -0.19200224741E+03 -0.63332496994E+03  0.66456889886E+03  0.00000000000E+00 0. -1.
         -3    1    1    2    0  502  0.19577094384E+02 -0.34456638743E+02  0.22475879900E+02  0.45559716365E+02  0.00000000000E+00 0.  1.
<mgrwt>
<rscale>  4 0.23979667E+03</rscale>
<asrwt>0</asrwt>
<pdfrwt beam="1">  1        1 0.11822865E+00 0.23979667E+03</pdfrwt>
<pdfrwt beam="2">  1       -3 0.33761326E-01 0.23979667E+03</pdfrwt>
<totfact> 0.11616892E+02</totfact>
</mgrwt>
</event>
<event>
 5    0  0.2917107E+000  0.3630168E+03  0.7546771E-02  0.1057396E+00
          1   -1    0    0  501    0 -0.00000000000E+00  0.00000000000E+00  0.37139515134E+03  0.37139515134E+03  0.00000000000E+00 0.  1.
          2   -1    0    0  502    0  0.00000000000E+00 -0.00000000000E+00 -0.11713598505E+04  0.11713598505E+04  0.00000000000E+00 0.  1.
         25    1    1    2    0    0 -0.26073685545E+03 -0.11362514247E+03 -0.54309009477E+03  0.62567262353E+03  0.12500000000E+03 0.  0.
          2    1    1    2  501    0 -0.93621593284E+02  0.14798520120E+03 -0.47040169398E+03  0.50193861796E+03  0.00000000000E+00 0.  1.
          1    1    1    2  502    0  0.35435844874E+03 -0.34360058728E+02  0.21352708955E+03  0.41514376040E+03  0.00000000000E+00 0.  1.
<mgrwt>
<rscale>  4 0.36301678E+03</rscale>
<asrwt>0</asrwt>
<pdfrwt beam="1">  1        2 0.18020921E+00 0.36301678E+03</pdfrwt>
<pdfrwt beam="2">  1        1 0.57137716E-01 0.36301678E+03</pdfrwt>
<totfact> 0.18573220E+02</totfact>
</mgrwt>
</event>
<event>
 5    0  0.2917107E+000  0.2949787E+03  0.7546771E-02  0.1087778E+00
          2   -1    0    0  502    0  0.00000000000E+00  0.00000000000E+00  0.54596287624E+03  0.54596287624E+03  0.00000000000E+00 0.  1.
          2   -1    0    0  501    0 -0.00000000000E+00 -0.00000000000E+00 -0.12618485207E+04  0.12618485207E+04  0.00000000000E+00 0. -1.
         25    1    1    2    0    0 -0.41964583891E+03  0.11648281138E+03 -0.33001661191E+03  0.56054155920E+03  0.12500000000E+03 0.  0.
          2    1    1    2  501    0  0.19058168891E+03 -0.86138021999E+01 -0.76663046362E+03  0.79001129453E+03  0.00000000000E+00 0. -1.
          2    1    1    2  502    0  0.22906415000E+03 -0.10786900918E+03  0.38076143106E+03  0.45725854321E+03  0.00000000000E+00 0.  1.
<mgrwt>
<rscale>  4 0.29497866E+03</rscale>
<asrwt>0</asrwt>
<pdfrwt beam="1">  1        2 0.83994289E-01 0.29497866E+03</pdfrwt>
<pdfrwt beam="2">  1        2 0.19413054E+00 0.29497866E+03</pdfrwt>
<totfact> 0.16092989E+02</totfact>
</mgrwt>
</event>
<event>
 5    0  0.2917107E+000  0.2243226E+03  0.7546771E-02  0.1130701E+00
         -2   -1    0    0    0  501 -0.00000000000E+00  0.00000000000E+00  0.82236925320E+03  0.82236925320E+03  0.00000000000E+00 0.  1.
          1   -1    0    0  501    0  0.00000000000E+00 -0.00000000000E+00 -0.96650896152E+02  0.96650896152E+02  0.00000000000E+00 0.  1.
         25    1    1    2    0    0 -0.12311987428E+03 -0.16609373877E+03  0.61020337562E+03  0.65629169819E+03  0.12500000000E+03 0.  0.
          1    1    1    2  502    0  0.11711936244E+03  0.14000582130E+03  0.46004859325E+02  0.18824192449E+03  0.00000000000E+00 0.  1.
         -2    1    1    2    0  502  0.60005118388E+01  0.26087917470E+02  0.69510122110E+02  0.74486526674E+02  0.00000000000E+00 0.  1.
<mgrwt>
<rscale>  4 0.22432260E+03</rscale>
<asrwt>0</asrwt>
<pdfrwt beam="1">  1        1 0.14869369E-01 0.22432260E+03</pdfrwt>
<pdfrwt beam="2">  1       -2 0.12651834E+00 0.22432260E+03</pdfrwt>
<totfact> 0.16211494E+02</totfact>
</mgrwt>
</event>
<event>
 5    0  0.2917107E+000  0.5716570E+03  0.7546771E-02  0.9966019E-01
          1   -1    0    0  501    0 -0.00000000000E+00  0.00000000000E+00  0.86548225259E+03  0.86548225259E+03  0.00000000000E+00 0.  1.
          2   -1    0    0  502    0  0.00000000000E+00 -0.00000000000E+00 -0.16833712446E+04  0.16833712446E+04  0.00000000000E+00 0.  1.
         25    1    1    2    0    0 -0.51142202956E+03  0.16068475856E+03 -0.38753826721E+03  0.67318867527E+03  0.12500000000E+03 0.  0.
          2    1    1    2  501    0 -0.23692977539E+02  0.12081929350E+02 -0.10434259317E+04  0.10437648227E+04  0.00000000000E+00 0.  1.
          1    1    1    2  502    0  0.53511500710E+03 -0.17276668791E+03  0.61307520693E+03  0.83189999917E+03  0.00000000000E+00 0.  1.
<mgrwt>
<rscale>  4 0.57165696E+03</rscale>
<asrwt>0</asrwt>
<pdfrwt beam="1">  1        2 0.25898019E+00 0.57165696E+03</pdfrwt>
<pdfrwt beam="2">  1        1 0.13315112E+00 0.57165696E+03</pdfrwt>
<totfact> 0.27779683E+01</totfact>
</mgrwt>
</event>
<event>
 5    0  0.2917107E+000  0.3793582E+03  0.7546771E-02  0.1051171E+00
          1   -1    0    0  502    0  0.00000000000E+00  0.00000000000E+00  0.12210016367E+04  0.12210016367E+04  0.00000000000E+00 0. -1.
         -1   -1    0    0    0  501 -0.00000000000E+00 -0.00000000000E+00 -0.12471026209E+04  0.12471026209E+04  0.00000000000E+00 0.  1.
         25    1    1    2    0    0 -0.42592102090E+03  0.18635569569E+03 -0.37493103866E+02  0.48287461540E+03  0.12500000000E+03 0.  0.
          1    1    1    2  502    0  0.33494603021E+03 -0.88151833882E+02  0.96344596639E+03  0.10238103922E+04  0.00000000000E+00 0. -1.
         -1    1    1    2    0  501  0.90974990692E+02 -0.98203861809E+02 -0.95205384670E+03  0.96141925008E+03  0.00000000000E+00 0.  1.
<mgrwt>
<rscale>  4 0.37935825E+03</rscale>
<asrwt>0</asrwt>
<pdfrwt beam="1">  1        1 0.18784641E+00 0.37935825E+03</pdfrwt>
<pdfrwt beam="2">  1       -1 0.19186194E+00 0.37935825E+03</pdfrwt>
<totfact> 0.20386632E+00</totfact>
</mgrwt>
</event>
<event>
 5    0  0.2917107E+000  0.3099585E+03  0.7546771E-02  0.1080366E+00
          1   -1    0    0  502    0  0.00000000000E+00  0.00000000000E+00  0.16887809656E+04  0.16887809656E+04  0.00000000000E+00 0.  1.
          1   -1    0    0  501    0 -0.00000000000E+00 -0.00000000000E+00 -0.31406417632E+03  0.31406417632E+03  0.00000000000E+00 0. -1.
         25    1    1    2    0    0 -0.15447848469E+03 -0.18918747958E+03  0.25429011044E+03  0.37409085117E+03  0.12500000000E+03 0.  0.
          1    1    1    2  501    0  0.19344654874E+03  0.22142511994E+03  0.13561546454E+04  0.13876620890E+04  0.00000000000E+00 0.  1.
          1    1    1    2  502    0 -0.38968064054E+02 -0.32237640360E+02 -0.23572796662E+03  0.24109220170E+03  0.00000000000E+00 0. -1.
<mgrwt>
<rscale>  4 0.30995854E+03</rscale>
<asrwt>0</asrwt>
<pdfrwt beam="1">  1        1 0.25981245E+00 0.30995854E+03</pdfrwt>
<pdfrwt beam="2">  1        1 0.48317567E-01 0.30995854E+03</pdfrwt>
<totfact> 0.52781830E+01</totfact>
</mgrwt>
</event>
<event>
 5    0  0.2917107E+000  0.2171998E+03  0.7546771E-02  0.1135988E+00
          1   -1    0    0  501    0 -0.00000000000E+00  0.00000000000E+00  0.28919042361E+03  0.28919042361E+03  0.00000000000E+00 0. -1.
          2   -1    0    0  502    0  0.00000000000E+00 -0.00000000000E+00 -0.55273684945E+03  0.55273684945E+03  0.00000000000E+00 0. -1.
         25    1    1    2    0    0 -0.15295555453E+02  0.25252098569E+03 -0.11774906129E+03  0.30576239740E+03  0.12500000000E+03 0.  0.
          2    1    1    2  501    0  0.31394997951E+02 -0.88160464837E+02 -0.29752737216E+03  0.31189814145E+03  0.00000000000E+00 0. -1.
          1    1    1    2  502    0 -0.16099442498E+02 -0.16436052085E+03  0.15173000761E+03  0.22426673421E+03  0.00000000000E+00 0. -1.
<mgrwt>
<rscale>  4 0.21719985E+03</rscale>
<asrwt>0</asrwt>
<pdfrwt beam="1">  1        2 0.85036438E-01 0.21719985E+03</pdfrwt>
<pdfrwt beam="2">  1        1 0.44490835E-01 0.21719985E+03</pdfrwt>
<totfact> 0.69676054E+02</totfact>
</mgrwt>
</event>
<event>
 5    0  0.2917107E+000  0.2464490E+03  0.7546771E-02  0.1115570E+00
          2   -1    0    0  501    0  0.00000000000E+00  0.00000000000E+00  0.14912342961E+04  0.14912342961E+04  0.00000000000E+00 0.  1.
         -1   -1    0    0    0  501 -0.00000000000E+00 -0.00000000000E+00 -0.89560782513E+02  0.89560782513E+02  0.00000000000E+00 0.  1.
         25    1    1    2    0    0 -0.19712469796E+03  0.14463491246E+03  0.25370862025E+03  0.37385888840E+03  0.12500000000E+03 0.  0.
          2    1    1    2  502    0  0.18735778236E+03 -0.90070624717E+02  0.11295583879E+04  0.11485285402E+04  0.00000000000E+00 0.  1.
         -1    1    1    2    0  502  0.97669155912E+01 -0.54564287742E+02  0.18406505476E+02  0.58407650020E+02  0.00000000000E+00 0.  1.
<mgrwt>
<rscale>  4 0.24644904E+03</rscale>
<asrwt>0</asrwt>
<pdfrwt beam="1">  1        2 0.22942064E+00 0.24644904E+03</pdfrwt>
<pdfrwt beam="2">  1       -1 0.13778583E-01 0.24644904E+03</pdfrwt>
<totfact> 0.58212259E+02</totfact>
</mgrwt>
</event>
<event>
 5    0  0.2917107E+000  0.2745975E+03  0.7546771E-02  0.1098677E+00
          1   -1    0    0  501    0 -0.00000000000E+00  0.00000000000E+00  0.11821855113E+04  0.11821855113E+04  0.00000000000E+00 0. -1.
          4   -1    0    0  502    0  0.00000000000E+00 -0.00000000000E+00 -0.20496184832E+03  0.20496184832E+03  0.00000000000E+00 0.  1.
         25    1    1    2    0    0  0.63454153692E+02 -0.23960273194E+03 -0.69225987305E+02  0.28609987084E+03  0.12500000000E+03 0.  0.
          4    1    1    2  501    0 -0.59321870592E+02 -0.51367704722E+01  0.59421691002E+02  0.84121389093E+02  0.00000000000E+00 0.  1.
          1    1    1    2  502    0 -0.41322831007E+01  0.24473950241E+03  0.98702795930E+03  0.10169260997E+04  0.00000000000E+00 0. -1.
<mgrwt>
<rscale>  4 0.27459746E+03</rscale>
<asrwt>0</asrwt>
<pdfrwt beam="1">  1        4 0.31532593E-01 0.27459746E+03</pdfrwt>
<pdfrwt beam="2">  1        1 0.18187469E+00 0.27459746E+03</pdfrwt>
<totfact> 0.54048395E+01</totfact>
</mgrwt>
</event>
<event>
 5    0  0.2917107E+000  0.2404955E+03  0.7546771E-02  0.1119463E+00
          2   -1    0    0  502    0  0.00000000000E+00  0.00000000000E+00  0.11728337115E+04  0.11728337115E+04  0.00000000000E+00 0. -1.
          1   -1    0    0  501    0 -0.00000000000E+00 -0.00000000000E+00 -0.17397592124E+03  0.17397592124E+03  0.00000000000E+00 0. -1.
         25    1    1    2    0    0 -0.28110759808E+03 -0.30034126394E+02  0.20806663405E+03  0.37261274086E+03  0.12500000000E+03 0.  0.
          2    1    1    2  501    0  0.18520063376E+03  0.63196738675E+02  0.83923560076E+03  0.86174793073E+03  0.00000000000E+00 0. -1.
          1    1    1    2  502    0  0.95906964314E+02 -0.33162612281E+02 -0.48444444548E+02  0.11244896116E+03  0.00000000000E+00 0. -1.
<mgrwt>
<rscale>  4 0.24049553E+03</rscale>
<asrwt>0</asrwt>
<pdfrwt beam="1">  1        2 0.18043595E+00 0.24049553E+03</pdfrwt>
<pdfrwt beam="2">  1        1 0.26765527E-01 0.24049553E+03</pdfrwt>
<totfact> 0.49685720E+02</totfact>
</mgrwt>
</event>
<event>
 5    0  0.2917107E+000  0.2584610E+03  0.7546771E-02  0.1108071E+00
         -4   -1    0    0    0  501 -0.00000000000E+00  0.00000000000E+00  0.73049471838E+03  0.73049471838E+03  0.00000000000E+00 0. -1.
          2   -1    0    0  501    0  0.00000000000E+00 -0.00000000000E+00 -0.10346653469E+04  0.10346653469E+04  0.00000000000E+00 0. -1.
         25    1    1    2    0    0 -0.27347074965E+03  0.19286954234E+03 -0.32690990142E+03  0.48423134442E+03  0.12500000000E+03 0.  0.
          2    1    1    2  502    0  0.12501854111E+03 -0.16276637732E+03 -0.60307616438E+03  0.63704269029E+03  0.00000000000E+00 0. -1.
         -4    1    1    2    0  502  0.14845220854E+03 -0.30103165023E+02  0.62581543731E+03  0.64388603055E+03  0.00000000000E+00 0. -1.
<mgrwt>
<rscale>  4 0.25846102E+03</rscale>
<asrwt>0</asrwt>
<pdfrwt beam="1">  1        2 0.15917928E+00 0.25846102E+03</pdfrwt>
<pdfrwt beam="2">  1       -4 0.11238380E+00 0.25846102E+03</pdfrwt>
<totfact> 0.85929852E+00</totfact>
</mgrwt>
</event>
<event>
 5    0  0.2917107E+000  0.3738372E+03  0.7546771E-02  0.1053235E+00
          2   -1    0    0  501    0  0.00000000000E+00  0.00000000000E+00  0.14167052413E+04  0.14167052413E+04  0.00000000000E+00 0.  1.
         -3   -1    0    0    0  501 -0.00000000000E+00 -0.00000000000E+00 -0.17548281137E+03  0.17548281137E+03  0.00000000000E+00 0.  1.
         25    1    1    2    0    0 -0.58695126626E+02  0.37668281625E+03  0.25346770357E+03  0.47455867783E+03  0.12500000000E+03 0.  0.
          2    1    1    2  502    0  0.18415229681E+02 -0.58924771186E+02  0.64711289991E+03  0.65005103998E+03  0.00000000000E+00 0.  1.
         -3    1    1    2    0  502  0.40279896944E+02 -0.31775804507E+03  0.34064182640E+03  0.46757833482E+03  0.00000000000E+00 0.  1.
<mgrwt>
<rscale>  4 0.37383718E+03</rscale>
<asrwt>0</asrwt>
<pdfrwt beam="1">  1        2 0.21795464E+00 0.37383718E+03</pdfrwt>
<pdfrwt beam="2">  1       -3 0.26997357E-01 0.37383718E+03</pdfrwt>
<totfact> 0.12366554E+02</totfact>
</mgrwt>
</event>
<event>
 5    0  0.2917107E+000  0.2136561E+03  0.7546771E-02  0.1138703E+00
          1   -1    0    0  502    0  0.00000000000E+00  0.00000000000E+00  0.36791796889E+03  0.36791796889E+03  0.00000000000E+00 0. -1.
          1   -1    0    0  501    0 -0.00000000000E+00 -0.00000000000E+00 -0.75710234713E+03  0.75710234713E+03  0.00000000000E+00 0.  1.
         25    1    1    2    0    0  0.73062697222E+01  0.21937721143E+03  0.11925340374E+03  0.27933155349E+03  0.12500000000E+03 0.  0.
          1    1    1    2  501    0 -0.41043126107E+02 -0.16599212604E+03 -0.65984442906E+03  0.68163963696E+03  0.00000000000E+00 0.  1.
          1    1    1    2  502    0  0.33736856385E+02 -0.53385085393E+02  0.15140664707E+03  0.16404912557E+03  0.00000000000E+00 0. -1.
<mgrwt>
<rscale>  4 0.21365612E+03</rscale>
<asrwt>0</asrwt>
<pdfrwt beam="1">  1        1 0.56602765E-01 0.21365612E+03</pdfrwt>
<pdfrwt beam="2">  1        1 0.11647728E+00 0.21365612E+03</pdfrwt>
<totfact> 0.20618778E+02</totfact>
</mgrwt>
</event>
<event>
 5    0  0.2917107E+000  0.2590374E+03  0.7546771E-02  0.1107723E+00
          1   -1    0    0  501    0 -0.00000000000E+00  0.00000000000E+00  0.87494208427E+02  0.87494208427E+02  0.00000000000E+00 0. -1.
          2   -1    0    0  502    0  0.00000000000E+00 -0.00000000000E+00 -0.16079278419E+04  0.16079278419E+04  0.00000000000E+00 0. -1.
         25    1    1    2    0    0 -0.19834211733E+03  0.10275698726E+03 -0.12124261351E+04  0.12391532299E+04  0.12500000000E+03 0.  0.
          2    1    1    2  501    0  0.22441278339E+03 -0.80425991946E+02 -0.33599836551E+03  0.41197613906E+03  0.00000000000E+00 0. -1.
          1    1    1    2  502    0 -0.26070666059E+02 -0.22330995313E+02  0.27990867171E+02  0.44292681398E+02  0.00000000000E+00 0. -1.
<mgrwt>
<rscale>  4 0.25903740E+03</rscale>
<asrwt>0</asrwt>
<pdfrwt beam="1">  1        2 0.24737350E+00 0.25903740E+03</pdfrwt>
<pdfrwt beam="2">  1        1 0.13460648E-01 0.25903740E+03</pdfrwt>
<totfact> 0.69928496E+02</totfact>
</mgrwt>
</event>
<event>
 5    0  0.2917107E+000  0.2314172E+03  0.7546771E-02  0.1125646E+00
         -2   -1    0    0    0  501  0.00000000000E+00  0.00000000000E+00  0.69991772535E+03  0.69991772535E+03  0.00000000000E+00 0. -1.
         -4   -1    0    0    0  502 -0.00000000000E+00 -0.00000000000E+00 -0.10728224693E+04  0.10728224693E+04  0.00000000000E+00 0.  1.
         25    1    1    2    0    0  0.12154448760E+03  0.17192503338E+03  0.27870358244E+03  0.37098782518E+03  0.12500000000E+03 0.  0.
         -2    1    1    2    0  502 -0.11069176230E+03 -0.15047122886E+03  0.35166069603E+03  0.39819530646E+03  0.00000000000E+00 0. -1.
         -4    1    1    2    0  501 -0.10852725304E+02 -0.21453804517E+02 -0.10032690225E+04  0.10035570630E+04  0.00000000000E+00 0.  1.
<mgrwt>
<rscale>  4 0.23141716E+03</rscale>
<asrwt>0</asrwt>
<pdfrwt beam="1">  1       -2 0.10767965E+00 0.23141716E+03</pdfrwt>
<pdfrwt beam="2">  1       -4 0.16504961E+00 0.23141716E+03</pdfrwt>
<totfact> 0.61095853E-01</totfact>
</mgrwt>
</event>
