<event>
 5    0  0.1911311E+001  0.5759040E+03  0.7546771E-02  0.9956698E-01
         21   -1    0    0  502  501  0.00000000000E+00  0.00000000000E+00  0.12099830859E+04  0.12099830859E+04  0.00000000000E+00 0. -1.
         21   -1    0    0  504  502 -0.00000000000E+00 -0.00000000000E+00 -0.68122801108E+03  0.68122801108E+03  0.00000000000E+00 0. -1.
         25    1    1    2    0    0  0.14873575687E+03  0.44068482638E+03 -0.13281874990E+03  0.49959109469E+03  0.12500000000E+03 0.  0.
         21    1    1    2  503  501 -0.44966475317E+03 -0.40792122696E+03  0.84287882753E+03  0.10387698665E+04  0.00000000000E+00 0. -1.
         21    1    1    2  504  503  0.30092899630E+03 -0.32763599420E+02 -0.18130500283E+03  0.35285013577E+03  0.00000000000E+00 0. -1.
<mgrwt>
<rscale>  4 0.57590399E+03</rscale>
<asrwt>0</asrwt>
<pdfrwt beam="1">  1       21 0.18615124E+00 0.57590399E+03</pdfrwt>
<pdfrwt beam="2">  1       21 0.10480431E+00 0.57590399E+03</pdfrwt>
<totfact> 0.90933427E+01</totfact>
</mgrwt>
</event>
<event>
 5    0  0.1911311E+001  0.3358492E+03  0.7546771E-02  0.1068578E+00
         21   -1    0    0  504  501  0.00000000000E+00  0.00000000000E+00  0.16632889206E+03  0.16632889206E+03  0.00000000000E+00 0.  1.
         21   -1    0    0  503  502 -0.00000000000E+00 -0.00000000000E+00 -0.20371015679E+04  0.20371015679E+04  0.00000000000E+00 0.  1.
         25    1    1    2    0    0 -0.39629730505E+03 -0.98711659839E+02 -0.11108438779E+04  0.11901238031E+04  0.12500000000E+03 0.  0.
         21    1    1    2  503  501  0.10051922012E+03  0.14913004398E+03 -0.67917832870E+03  0.70258599887E+03  0.00000000000E+00 0.  1.
         21    1    1    2  504  502  0.29577808493E+03 -0.50418384142E+02 -0.80750469242E+02  0.31072065793E+03  0.00000000000E+00 0.  1.
<mgrwt>
<rscale>  4 0.33584919E+03</rscale>
<asrwt>0</asrwt>
<pdfrwt beam="1">  1       21 0.25589061E-01 0.33584919E+03</pdfrwt>
<pdfrwt beam="2">  1       21 0.31340023E+00 0.33584919E+03</pdfrwt>
<totfact> 0.35305693E+02</totfact>
</mgrwt>
</event>
<event>
 5    0  0.1911311E+001  0.2513465E+03  0.7546771E-02  0.1112457E+00
         21   -1    0    0  503  501  0.00000000000E+00  0.00000000000E+00  0.17575664267E+03  0.17575664267E+03  0.00000000000E+00 0. -1.
         21   -1    0    0  504  502 -0.00000000000E+00 -0.00000000000E+00 -0.40289277191E+03  0.40289277191E+03  0.00000000000E+00 0. -1.
         25    1    1    2    0    0  0.13982919556E+03  0.16116929205E+03 -0.14058874938E+03  0.28446079006E+03  0.12500000000E+03 0.  0.
         21    1    1    2  503  502 -0.22093989355E+02  0.26738250271E+02 -0.62060699596E+02  0.71095772220E+02  0.00000000000E+00 0.  1.
         21    1    1    2  504  501 -0.11773520621E+03 -0.18790754232E+03 -0.24486680267E+02  0.22309285231E+03  0.00000000000E+00 0. -1.
<mgrwt>
<rscale>  4 0.25134649E+03</rscale>
<asrwt>0</asrwt>
<pdfrwt beam="1">  1       21 0.27039483E-01 0.25134649E+03</pdfrwt>
<pdfrwt beam="2">  1       21 0.61983504E-01 0.25134649E+03</pdfrwt>
<totfact> 0.30576997E+04</totfact>
</mgrwt>
</event>
<event>
 5    0  0.1911311E+001  0.1965520E+03  0.7546771E-02  0.1152681E+00
         21   -1    0    0  502  501  0.00000000000E+00  0.00000000000E+00  0.66045931191E+03  0.66045931191E+03  0.00000000000E+00 0. -1.
         21   -1    0    0  504  502 -0.00000000000E+00 -0.00000000000E+00 -0.20120113462E+03  0.20120113462E+03  0.00000000000E+00 0. -1.
         25    1    1    2    0    0  0.16372384513E+03  0.18292843878E+03  0.31339953472E+03  0.41726799487E+03  0.12500000000E+03 0.  0.
         21    1    1    2  503  501 -0.10224244950E+03 -0.73373459289E+02  0.25086399401E+03  0.28065980564E+03  0.00000000000E+00 0. -1.
         21    1    1    2  504  503 -0.61481395629E+02 -0.10955497949E+03 -0.10500535144E+03  0.16373264602E+03  0.00000000000E+00 0. -1.
<mgrwt>
<rscale>  4 0.19655202E+03</rscale>
<asrwt>0</asrwt>
<pdfrwt beam="1">  1       21 0.10160912E+00 0.19655202E+03</pdfrwt>
<pdfrwt beam="2">  1       21 0.30954021E-01 0.19655202E+03</pdfrwt>
<totfact> 0.79000025E+03</totfact>
</mgrwt>
</event>
<event>
 5    0  0.1911311E+001  0.2862830E+03  0.7546771E-02  0.1092306E+00
         21   -1    0    0  502  501  0.00000000000E+00  0.00000000000E+00  0.11614965214E+04  0.11614965214E+04  0.00000000000E+00 0. -1.
         21   -1    0    0  504  502 -0.00000000000E+00 -0.00000000000E+00 -0.70255347884E+02  0.70255347884E+02  0.00000000000E+00 0. -1.
         25    1    1    2    0    0 -0.82041320266E+02  0.24413552001E+03  0.47614878770E+03  0.55558581551E+03  0.12500000000E+03 0.  0.
         21    1    1    2  503  501 -0.22974480243E+02 -0.82763314446E+02  0.23252888103E+03  0.24788560562E+03  0.00000000000E+00 0. -1.
         21    1    1    2  504  503  0.10501580051E+03 -0.16137220556E+03  0.38256350479E+03  0.42828044816E+03  0.00000000000E+00 0. -1.
<mgrwt>
<rscale>  4 0.28628296E+03</rscale>
<asrwt>0</asrwt>
<pdfrwt beam="1">  1       21 0.17869176E+00 0.28628296E+03</pdfrwt>
<pdfrwt beam="2">  1       21 0.10808516E-01 0.28628296E+03</pdfrwt>
<totfact> 0.12356544E+04</totfact>
</mgrwt>
</event>
