<event>
 5    0  0.1324511E+000  0.2933232E+03  0.7546771E-02  0.1088627E+00
         21   -1    0    0  504  501  0.00000000000E+00  0.00000000000E+00  0.11672271909E+04  0.11672271909E+04  0.00000000000E+00 0. -1.
         21   -1    0    0  501  502 -0.00000000000E+00 -0.00000000000E+00 -0.80730322693E+02  0.80730322693E+02  0.00000000000E+00 0. -1.
         25    1    1    2    0    0 -0.27194224926E+02  0.26395831179E+03  0.31131825548E+03  0.42773540002E+03  0.12500000000E+03 0.  0.
         21    1    1    2  503  502  0.18846177837E+02 -0.22939771291E+03  0.70374623322E+03  0.74043044904E+03  0.00000000000E+00 0. -1.
         21    1    1    2  504  503  0.83480470887E+01 -0.34560598887E+02  0.71432379504E+02  0.79791664522E+02  0.00000000000E+00 0. -1.
<mgrwt>
<rscale>  4 0.29332323E+03</rscale>
<asrwt>0</asrwt>
<pdfrwt beam="1">  1       21 0.17957340E+00 0.29332323E+03</pdfrwt>
<pdfrwt beam="2">  1       21 0.12420050E-01 0.29332323E+03</pdfrwt>
<totfact> 0.94501058E+03</totfact>
</mgrwt>
</event>
<event>
 5    0  0.1324511E+000  0.2350132E+03  0.7546771E-02  0.1123160E+00
         21   -1    0    0  504  501  0.00000000000E+00  0.00000000000E+00  0.12634144802E+03  0.12634144802E+03  0.00000000000E+00 0. -1.
         21   -1    0    0  501  502 -0.00000000000E+00 -0.00000000000E+00 -0.71769390390E+03  0.71769390390E+03  0.00000000000E+00 0. -1.
         25    1    1    2    0    0  0.50394778572E+02  0.21240977691E+03 -0.51156367349E+03  0.57007011768E+03  0.12500000000E+03 0.  0.
         21    1    1    2  503  502  0.39476570418E+02 -0.66370121201E+02  0.14050478574E+02  0.78490818243E+02  0.00000000000E+00 0. -1.
         21    1    1    2  504  503 -0.89871348990E+02 -0.14603965571E+03 -0.93839260965E+02  0.19547441600E+03  0.00000000000E+00 0. -1.
<mgrwt>
<rscale>  4 0.23501320E+03</rscale>
<asrwt>0</asrwt>
<pdfrwt beam="1">  1       21 0.19437146E-01 0.23501320E+03</pdfrwt>
<pdfrwt beam="2">  1       21 0.11041445E+00 0.23501320E+03</pdfrwt>
<totfact> 0.15347232E+04</totfact>
</mgrwt>
</event>
<event>
 5    0  0.1324511E+000  0.3155631E+03  0.7546771E-02  0.1077710E+00
         21   -1    0    0  504  501  0.00000000000E+00  0.00000000000E+00  0.80248954278E+02  0.80248954278E+02  0.00000000000E+00 0. -1.
         21   -1    0    0  501  502 -0.00000000000E+00 -0.00000000000E+00 -0.15330431380E+04  0.15330431380E+04  0.00000000000E+00 0. -1.
         25    1    1    2    0    0 -0.23117964979E+03  0.17467402074E+03 -0.11455514762E+04  0.11882206145E+04  0.12500000000E+03 0.  0.
         21    1    1    2  503  502  0.20223376773E+03 -0.14932147524E+03 -0.28722132932E+03  0.38169554857E+03  0.00000000000E+00 0. -1.
         21    1    1    2  504  503  0.28945882055E+02 -0.25352545508E+02 -0.20021378161E+02  0.43375929214E+02  0.00000000000E+00 0. -1.
<mgrwt>
<rscale>  4 0.31556306E+03</rscale>
<asrwt>0</asrwt>
<pdfrwt beam="1">  1       21 0.12345993E-01 0.31556306E+03</pdfrwt>
<pdfrwt beam="2">  1       21 0.23585280E+00 0.31556306E+03</pdfrwt>
<totfact> 0.40767984E+03</totfact>
</mgrwt>
</event>
<event>
 5    0  0.1324511E+000  0.2706155E+03  0.7546771E-02  0.1100928E+00
         21   -1    0    0  504  501  0.00000000000E+00  0.00000000000E+00  0.12938233817E+03  0.12938233817E+03  0.00000000000E+00 0. -1.
         21   -1    0    0  501  502 -0.00000000000E+00 -0.00000000000E+00 -0.65354675148E+03  0.65354675148E+03  0.00000000000E+00 0. -1.
         25    1    1    2    0    0  0.16753506722E+02  0.24863563339E+03 -0.30732093590E+03  0.41493555623E+03  0.12500000000E+03 0.  0.
         21    1    1    2  503  502  0.24757858255E+02 -0.23194136980E+03 -0.22314966453E+03  0.32280880309E+03  0.00000000000E+00 0. -1.
         21    1    1    2  504  503 -0.41511364978E+02 -0.16694263585E+02  0.63061871164E+01  0.45184730329E+02  0.00000000000E+00 0. -1.
<mgrwt>
<rscale>  4 0.27061547E+03</rscale>
<asrwt>0</asrwt>
<pdfrwt beam="1">  1       21 0.19904975E-01 0.27061547E+03</pdfrwt>
<pdfrwt beam="2">  1       21 0.10054566E+00 0.27061547E+03</pdfrwt>
<totfact> 0.18080562E+04</totfact>
</mgrwt>
</event>
<event>
 5    0  0.1324511E+000  0.2375223E+03  0.7546771E-02  0.1121454E+00
         21   -1    0    0  504  501  0.00000000000E+00  0.00000000000E+00  0.42064268130E+03  0.42064268130E+03  0.00000000000E+00 0.  1.
         21   -1    0    0  501  502 -0.00000000000E+00 -0.00000000000E+00 -0.27895961866E+03  0.27895961866E+03  0.00000000000E+00 0.  1.
         25    1    1    2    0    0  0.47992909320E+02 -0.19618496026E+03 -0.18996359889E+03  0.30414310264E+03  0.12500000000E+03 0.  0.
         21    1    1    2  503  502 -0.38976585366E+02  0.64172040275E+02  0.17486701700E+03  0.19030422642E+03  0.00000000000E+00 0.  1.
         21    1    1    2  504  503 -0.90163239540E+01  0.13201291999E+03  0.15677964454E+03  0.20515497090E+03  0.00000000000E+00 0.  1.
<mgrwt>
<rscale>  4 0.23752233E+03</rscale>
<asrwt>0</asrwt>
<pdfrwt beam="1">  1       21 0.64714259E-01 0.23752233E+03</pdfrwt>
<pdfrwt beam="2">  1       21 0.42916864E-01 0.23752233E+03</pdfrwt>
<totfact> 0.11169843E+04</totfact>
</mgrwt>
</event>
<event>
 5    0  0.1324511E+000  0.2458616E+03  0.7546771E-02  0.1115948E+00
         21   -1    0    0  504  501  0.00000000000E+00  0.00000000000E+00  0.19557957444E+04  0.19557957444E+04  0.00000000000E+00 0. -1.
         21   -1    0    0  501  502 -0.00000000000E+00 -0.00000000000E+00 -0.55076555739E+03  0.55076555739E+03  0.00000000000E+00 0. -1.
         25    1    1    2    0    0  0.12668733641E+03 -0.16999052574E+03 -0.51345491742E+03  0.56939214279E+03  0.12500000000E+03 0.  0.
         21    1    1    2  503  502 -0.31288391691E+02  0.14009598600E+01  0.52324072390E+02  0.60981429096E+02  0.00000000000E+00 0.  1.
         21    1    1    2  504  503 -0.95398944717E+02  0.16858956588E+03  0.18661610320E+04  0.18761877299E+04  0.00000000000E+00 0. -1.
<mgrwt>
<rscale>  4 0.24586156E+03</rscale>
<asrwt>0</asrwt>
<pdfrwt beam="1">  1       21 0.30089165E+00 0.24586156E+03</pdfrwt>
<pdfrwt beam="2">  1       21 0.84733164E-01 0.24586156E+03</pdfrwt>
<totfact> 0.37447227E+01</totfact>
</mgrwt>
</event>
<event>
 5    0  0.1324511E+000  0.3025928E+03  0.7546771E-02  0.1083952E+00
         21   -1    0    0  504  501  0.00000000000E+00  0.00000000000E+00  0.63474639229E+03  0.63474639229E+03  0.00000000000E+00 0.  1.
         21   -1    0    0  501  502 -0.00000000000E+00 -0.00000000000E+00 -0.58056206026E+03  0.58056206026E+03  0.00000000000E+00 0. -1.
         25    1    1    2    0    0 -0.15903449765E+03 -0.22898735055E+03 -0.48296744290E+03  0.57149779444E+03  0.12500000000E+03 0.  0.
         21    1    1    2  503  502  0.19223213425E+03  0.17101824221E+03  0.28952150349E+03  0.38732819881E+03  0.00000000000E+00 0.  1.
         21    1    1    2  504  503 -0.33197636592E+02  0.57969108336E+02  0.24763027144E+03  0.25648245930E+03  0.00000000000E+00 0.  1.
<mgrwt>
<rscale>  4 0.30259285E+03</rscale>
<asrwt>0</asrwt>
<pdfrwt beam="1">  1       21 0.97653291E-01 0.30259285E+03</pdfrwt>
<pdfrwt beam="2">  1       21 0.89317240E-01 0.30259285E+03</pdfrwt>
<totfact> 0.84823540E+02</totfact>
</mgrwt>
</event>
<event>
 5    0  0.1324511E+000  0.3047299E+03  0.7546771E-02  0.1082900E+00
         21   -1    0    0  504  501  0.00000000000E+00  0.00000000000E+00  0.42859294003E+03  0.42859294003E+03  0.00000000000E+00 0. -1.
         21   -1    0    0  501  502 -0.00000000000E+00 -0.00000000000E+00 -0.27984438815E+03  0.27984438815E+03  0.00000000000E+00 0. -1.
         25    1    1    2    0    0 -0.86479336282E+02 -0.26411479156E+03 -0.11019890764E+03  0.32404335816E+03  0.12500000000E+03 0.  0.
         21    1    1    2  503  502  0.14890099495E+02  0.29682098538E+02  0.60494561987E+02  0.69009666472E+02  0.00000000000E+00 0. -1.
         21    1    1    2  504  503  0.71589236787E+02  0.23443269302E+03  0.19845289754E+03  0.31538430354E+03  0.00000000000E+00 0. -1.
<mgrwt>
<rscale>  4 0.30472988E+03</rscale>
<asrwt>0</asrwt>
<pdfrwt beam="1">  1       21 0.65937375E-01 0.30472988E+03</pdfrwt>
<pdfrwt beam="2">  1       21 0.43052983E-01 0.30472988E+03</pdfrwt>
<totfact> 0.10298421E+04</totfact>
</mgrwt>
</event>
<event>
 5    0  0.1324511E+000  0.2385955E+03  0.7546771E-02  0.1120732E+00
         21   -1    0    0  504  501  0.00000000000E+00  0.00000000000E+00  0.74962002493E+03  0.74962002493E+03  0.00000000000E+00 0. -1.
         21   -1    0    0  501  502 -0.00000000000E+00 -0.00000000000E+00 -0.10467143270E+03  0.10467143270E+03  0.00000000000E+00 0. -1.
         25    1    1    2    0    0  0.20096833231E+03  0.30241440187E+02  0.87501470727E+02  0.25413445787E+03  0.12500000000E+03 0.  0.
         21    1    1    2  503  502 -0.13584474745E+03 -0.37576916709E+02  0.47124590357E+03  0.49187246488E+03  0.00000000000E+00 0. -1.
         21    1    1    2  504  503 -0.65123584860E+02  0.73354765225E+01  0.86201217932E+02  0.10828453488E+03  0.00000000000E+00 0. -1.
<mgrwt>
<rscale>  4 0.23859551E+03</rscale>
<asrwt>0</asrwt>
<pdfrwt beam="1">  1       21 0.11532615E+00 0.23859551E+03</pdfrwt>
<pdfrwt beam="2">  1       21 0.16103298E-01 0.23859551E+03</pdfrwt>
<totfact> 0.19524106E+04</totfact>
</mgrwt>
</event>
<event>
 5    0  0.1324511E+000  0.2765903E+03  0.7546771E-02  0.1097566E+00
         21   -1    0    0  504  501  0.00000000000E+00  0.00000000000E+00  0.24864194759E+03  0.24864194759E+03  0.00000000000E+00 0. -1.
         21   -1    0    0  501  502 -0.00000000000E+00 -0.00000000000E+00 -0.28477871877E+03  0.28477871877E+03  0.00000000000E+00 0. -1.
         25    1    1    2    0    0  0.16946426894E+03 -0.17932953611E+03  0.10609071286E+02  0.27679373794E+03  0.12500000000E+03 0.  0.
         21    1    1    2  503  502 -0.23641278793E+02  0.17781559478E+02 -0.23461994243E+02  0.37756576835E+02  0.00000000000E+00 0.  1.
         21    1    1    2  504  503 -0.14582299015E+03  0.16154797663E+03 -0.23283848224E+02  0.21887035158E+03  0.00000000000E+00 0. -1.
<mgrwt>
<rscale>  4 0.27659035E+03</rscale>
<asrwt>0</asrwt>
<pdfrwt beam="1">  1       21 0.38252607E-01 0.27659035E+03</pdfrwt>
<pdfrwt beam="2">  1       21 0.43812111E-01 0.27659035E+03</pdfrwt>
<totfact> 0.31720229E+04</totfact>
</mgrwt>
</event>
<event>
 5    0  0.1324511E+000  0.2205839E+03  0.7546771E-02  0.1133448E+00
         21   -1    0    0  504  501  0.00000000000E+00  0.00000000000E+00  0.41648875336E+03  0.41648875336E+03  0.00000000000E+00 0.  1.
         21   -1    0    0  501  502 -0.00000000000E+00 -0.00000000000E+00 -0.19583089896E+03  0.19583089896E+03  0.00000000000E+00 0.  1.
         25    1    1    2    0    0 -0.18789668132E+03 -0.89375603716E+02 -0.61346437317E+02  0.25036283023E+03  0.12500000000E+03 0.  0.
         21    1    1    2  503  502  0.21968514862E+02  0.26554583937E+02  0.77633673566E+01  0.35327488533E+02  0.00000000000E+00 0. -1.
         21    1    1    2  504  503  0.16592816646E+03  0.62821019779E+02  0.27424092435E+03  0.32662933356E+03  0.00000000000E+00 0.  1.
<mgrwt>
<rscale>  4 0.22058392E+03</rscale>
<asrwt>0</asrwt>
<pdfrwt beam="1">  1       21 0.64075193E-01 0.22058392E+03</pdfrwt>
<pdfrwt beam="2">  1       21 0.30127831E-01 0.22058392E+03</pdfrwt>
<totfact> 0.23389657E+04</totfact>
</mgrwt>
</event>
<event>
 5    0  0.1324511E+000  0.3105933E+03  0.7546771E-02  0.1080062E+00
         21   -1    0    0  504  501  0.00000000000E+00  0.00000000000E+00  0.15966397577E+04  0.15966397577E+04  0.00000000000E+00 0. -1.
         21   -1    0    0  501  502 -0.00000000000E+00 -0.00000000000E+00 -0.11691267821E+03  0.11691267821E+03  0.00000000000E+00 0. -1.
         25    1    1    2    0    0 -0.99546481932E+02  0.26633376257E+03  0.13576621042E+03  0.33896996776E+03  0.12500000000E+03 0.  0.
         21    1    1    2  503  502  0.46429583421E+01 -0.31224233873E+02  0.22847356600E+03  0.23064405521E+03  0.00000000000E+00 0. -1.
         21    1    1    2  504  503  0.94903523590E+02 -0.23510952870E+03  0.11154873031E+04  0.11439384130E+04  0.00000000000E+00 0. -1.
<mgrwt>
<rscale>  4 0.31059326E+03</rscale>
<asrwt>0</asrwt>
<pdfrwt beam="1">  1       21 0.24563687E+00 0.31059326E+03</pdfrwt>
<pdfrwt beam="2">  1       21 0.17986567E-01 0.31059326E+03</pdfrwt>
<totfact> 0.17838816E+03</totfact>
</mgrwt>
</event>
<event>
 5    0  0.1324511E+000  0.2318299E+03  0.7546771E-02  0.1125358E+00
         21   -1    0    0  504  501  0.00000000000E+00  0.00000000000E+00  0.20776817536E+03  0.20776817536E+03  0.00000000000E+00 0.  1.
         21   -1    0    0  501  502 -0.00000000000E+00 -0.00000000000E+00 -0.29078329294E+03  0.29078329294E+03  0.00000000000E+00 0. -1.
         25    1    1    2    0    0 -0.86049733654E+02 -0.19275663751E+03 -0.10930420594E+03  0.26857417486E+03  0.12500000000E+03 0.  0.
         21    1    1    2  503  502  0.10027895839E+03  0.16055334464E+03  0.37606551720E+02  0.19299611059E+03  0.00000000000E+00 0.  1.
         21    1    1    2  504  503 -0.14229224737E+02  0.32203292868E+02 -0.11317463358E+02  0.36981182851E+02  0.00000000000E+00 0.  1.
<mgrwt>
<rscale>  4 0.23182992E+03</rscale>
<asrwt>0</asrwt>
<pdfrwt beam="1">  1       21 0.31964335E-01 0.23182992E+03</pdfrwt>
<pdfrwt beam="2">  1       21 0.44735891E-01 0.23182992E+03</pdfrwt>
<totfact> 0.44312849E+04</totfact>
</mgrwt>
</event>
<event>
 5    0  0.1324511E+000  0.2290122E+03  0.7546771E-02  0.1127337E+00
         21   -1    0    0  504  501  0.00000000000E+00  0.00000000000E+00  0.56013567283E+03  0.56013567283E+03  0.00000000000E+00 0.  1.
         21   -1    0    0  501  502 -0.00000000000E+00 -0.00000000000E+00 -0.93111896847E+02  0.93111896847E+02  0.00000000000E+00 0.  1.
         25    1    1    2    0    0 -0.96692345872E+02  0.17518106100E+03  0.24303175125E+03  0.33871410659E+03  0.12500000000E+03 0.  0.
         21    1    1    2  503  502  0.66784635159E+02 -0.17427042995E+03  0.21161049463E+03  0.28215132763E+03  0.00000000000E+00 0.  1.
         21    1    1    2  504  503  0.29907710714E+02 -0.91063105541E+00  0.12381530104E+02  0.32382135457E+02  0.00000000000E+00 0. -1.
<mgrwt>
<rscale>  4 0.22901216E+03</rscale>
<asrwt>0</asrwt>
<pdfrwt beam="1">  1       21 0.86174717E-01 0.22901216E+03</pdfrwt>
<pdfrwt beam="2">  1       21 0.14324908E-01 0.22901216E+03</pdfrwt>
<totfact> 0.48664914E+04</totfact>
</mgrwt>
</event>
<event>
 5    0  0.1324511E+000  0.2427287E+03  0.7546771E-02  0.1117988E+00
         21   -1    0    0  504  501  0.00000000000E+00  0.00000000000E+00  0.14091931211E+03  0.14091931211E+03  0.00000000000E+00 0. -1.
         21   -1    0    0  501  502 -0.00000000000E+00 -0.00000000000E+00 -0.56218739667E+03  0.56218739667E+03  0.00000000000E+00 0. -1.
         25    1    1    2    0    0  0.21342142588E+03  0.97225161105E+02 -0.33885675551E+03  0.43063945213E+03  0.12500000000E+03 0.  0.
         21    1    1    2  503  502 -0.40467122747E+02 -0.50251650115E+02  0.18068549756E+02  0.67002155585E+02  0.00000000000E+00 0. -1.
         21    1    1    2  504  503 -0.17295430313E+03 -0.46973510990E+02 -0.10047987881E+03  0.20546510106E+03  0.00000000000E+00 0. -1.
<mgrwt>
<rscale>  4 0.24272865E+03</rscale>
<asrwt>0</asrwt>
<pdfrwt beam="1">  1       21 0.21679893E-01 0.24272865E+03</pdfrwt>
<pdfrwt beam="2">  1       21 0.86490371E-01 0.24272865E+03</pdfrwt>
<totfact> 0.22224605E+04</totfact>
</mgrwt>
</event>
<event>
 5    0  0.1324511E+000  0.2685861E+03  0.7546771E-02  0.1102092E+00
         21   -1    0    0  504  501  0.00000000000E+00  0.00000000000E+00  0.16133167648E+03  0.16133167648E+03  0.00000000000E+00 0.  1.
         21   -1    0    0  501  502 -0.00000000000E+00 -0.00000000000E+00 -0.73100827628E+03  0.73100827628E+03  0.00000000000E+00 0. -1.
         25    1    1    2    0    0  0.17853865919E+03 -0.15696318198E+03 -0.58714555347E+03  0.64566120704E+03  0.12500000000E+03 0.  0.
         21    1    1    2  503  502 -0.12800247463E+03  0.11514572429E+03  0.41008982523E+02  0.17698844025E+03  0.00000000000E+00 0.  1.
         21    1    1    2  504  503 -0.50536184556E+02  0.41817457691E+02 -0.23540028852E+02  0.69690305463E+02  0.00000000000E+00 0. -1.
<mgrwt>
<rscale>  4 0.26858610E+03</rscale>
<asrwt>0</asrwt>
<pdfrwt beam="1">  1       21 0.24820258E-01 0.26858610E+03</pdfrwt>
<pdfrwt beam="2">  1       21 0.11246281E+00 0.26858610E+03</pdfrwt>
<totfact> 0.90600638E+03</totfact>
</mgrwt>
</event>
<event>
 5    0  0.1324511E+000  0.7990679E+03  0.7546771E-02  0.9565022E-01
         21   -1    0    0  504  501  0.00000000000E+00  0.00000000000E+00  0.70359966886E+03  0.70359966886E+03  0.00000000000E+00 0.  1.
         21   -1    0    0  501  502 -0.00000000000E+00 -0.00000000000E+00 -0.97382194498E+03  0.97382194498E+03  0.00000000000E+00 0. -1.
         25    1    1    2    0    0 -0.68379376338E+03 -0.37336606432E+03 -0.37119085875E+03  0.87199987525E+03  0.12500000000E+03 0.  0.
         21    1    1    2  503  502  0.40415935156E+02  0.29733505088E+02 -0.37955277143E+02  0.62913688514E+02  0.00000000000E+00 0. -1.
         21    1    1    2  504  503  0.64337782822E+03  0.34363255923E+03  0.13892385978E+03  0.74250805007E+03  0.00000000000E+00 0.  1.
<mgrwt>
<rscale>  4 0.79655177E+03</rscale>
<asrwt>0</asrwt>
<pdfrwt beam="1">  1       21 0.10824610E+00 0.79906791E+03</pdfrwt>
<pdfrwt beam="2">  1       21 0.14981876E+00 0.79906791E+03</pdfrwt>
<totfact> 0.14486771E+02</totfact>
</mgrwt>
</event>
<event>
 5    0  0.1324511E+000  0.2522981E+03  0.7546771E-02  0.1111861E+00
         21   -1    0    0  504  501  0.00000000000E+00  0.00000000000E+00  0.75688319596E+03  0.75688319596E+03  0.00000000000E+00 0.  1.
         21   -1    0    0  501  502 -0.00000000000E+00 -0.00000000000E+00 -0.91419131457E+03  0.91419131457E+03  0.00000000000E+00 0.  1.
         25    1    1    2    0    0 -0.92830513961E+02 -0.19991481859E+03 -0.87143953177E+03  0.90753253195E+03  0.12500000000E+03 0.  0.
         21    1    1    2  503  502  0.48222157191E+02  0.16664957149E+03  0.67120447443E+03  0.69326250628E+03  0.00000000000E+00 0.  1.
         21    1    1    2  504  503  0.44608356771E+02  0.33265247096E+02  0.42926938727E+02  0.70279472299E+02  0.00000000000E+00 0.  1.
<mgrwt>
<rscale>  4 0.25229805E+03</rscale>
<asrwt>0</asrwt>
<pdfrwt beam="1">  1       21 0.11644357E+00 0.25229805E+03</pdfrwt>
<pdfrwt beam="2">  1       21 0.14064482E+00 0.25229805E+03</pdfrwt>
<totfact> 0.18801087E+02</totfact>
</mgrwt>
</event>
<event>
 5    0  0.1324511E+000  0.2477367E+03  0.7546771E-02  0.1114744E+00
         21   -1    0    0  504  501  0.00000000000E+00  0.00000000000E+00  0.51899105625E+03  0.51899105625E+03  0.00000000000E+00 0.  1.
         21   -1    0    0  501  502 -0.00000000000E+00 -0.00000000000E+00 -0.14268925638E+03  0.14268925638E+03  0.00000000000E+00 0.  1.
         25    1    1    2    0    0  0.11811241489E+03 -0.18890162604E+03  0.54710082573E+02  0.26125190910E+03  0.12500000000E+03 0.  0.
         21    1    1    2  503  502 -0.32704188655E+02  0.88618760646E+01  0.82473313516E+02  0.89162459844E+02  0.00000000000E+00 0. -1.
         21    1    1    2  504  503 -0.85408226237E+02  0.18003974997E+03  0.23911840377E+03  0.31126594369E+03  0.00000000000E+00 0.  1.
<mgrwt>
<rscale>  4 0.24773669E+03</rscale>
<asrwt>0</asrwt>
<pdfrwt beam="1">  1       21 0.79844777E-01 0.24773669E+03</pdfrwt>
<pdfrwt beam="2">  1       21 0.21952194E-01 0.24773669E+03</pdfrwt>
<totfact> 0.26008914E+04</totfact>
</mgrwt>
</event>
<event>
 5    0  0.1324511E+000  0.2680089E+03  0.7546771E-02  0.1102425E+00
         21   -1    0    0  504  501  0.00000000000E+00  0.00000000000E+00  0.58043969997E+03  0.58043969997E+03  0.00000000000E+00 0.  1.
         21   -1    0    0  501  502 -0.00000000000E+00 -0.00000000000E+00 -0.17033150283E+03  0.17033150283E+03  0.00000000000E+00 0.  1.
         25    1    1    2    0    0 -0.19520382752E+03 -0.13131278371E+03  0.53037479557E+02  0.27163496771E+03  0.12500000000E+03 0.  0.
         21    1    1    2  503  502 -0.30723876316E+02  0.51438141192E+02  0.15494751525E+02  0.61886398101E+02  0.00000000000E+00 0. -1.
         21    1    1    2  504  503  0.22592770384E+03  0.79874642514E+02  0.34157596606E+03  0.41724983699E+03  0.00000000000E+00 0.  1.
<mgrwt>
<rscale>  4 0.26800886E+03</rscale>
<asrwt>0</asrwt>
<pdfrwt beam="1">  1       21 0.89298415E-01 0.26800886E+03</pdfrwt>
<pdfrwt beam="2">  1       21 0.26204847E-01 0.26800886E+03</pdfrwt>
<totfact> 0.14183093E+04</totfact>
</mgrwt>
</event>
<event>
 5    0  0.1324511E+000  0.2405914E+03  0.7546771E-02  0.1119399E+00
         21   -1    0    0  504  501  0.00000000000E+00  0.00000000000E+00  0.60393090233E+03  0.60393090233E+03  0.00000000000E+00 0. -1.
         21   -1    0    0  501  502 -0.00000000000E+00 -0.00000000000E+00 -0.83473529498E+02  0.83473529498E+02  0.00000000000E+00 0. -1.
         25    1    1    2    0    0  0.81792385914E+02 -0.18859810483E+03  0.27455220113E+03  0.36505225747E+03  0.12500000000E+03 0.  0.
         21    1    1    2  503  502 -0.83208486686E+02  0.16633254283E+03  0.21589939483E+03  0.28496090214E+03  0.00000000000E+00 0. -1.
         21    1    1    2  504  503  0.14161007724E+01  0.22265561998E+02  0.30005776864E+02  0.37391272213E+02  0.00000000000E+00 0. -1.
<mgrwt>
<rscale>  4 0.24059144E+03</rscale>
<asrwt>0</asrwt>
<pdfrwt beam="1">  1       21 0.92912444E-01 0.24059144E+03</pdfrwt>
<pdfrwt beam="2">  1       21 0.12842082E-01 0.24059144E+03</pdfrwt>
<totfact> 0.49560681E+04</totfact>
</mgrwt>
</event>
<event>
 5    0  0.1324511E+000  0.2532605E+03  0.7546771E-02  0.1111261E+00
         21   -1    0    0  504  501  0.00000000000E+00  0.00000000000E+00  0.14188226227E+03  0.14188226227E+03  0.00000000000E+00 0.  1.
         21   -1    0    0  501  502 -0.00000000000E+00 -0.00000000000E+00 -0.78157092687E+03  0.78157092687E+03  0.00000000000E+00 0. -1.
         25    1    1    2    0    0  0.12031053475E+03  0.18803483465E+03 -0.64090172935E+03  0.69008097386E+03  0.12500000000E+03 0.  0.
         21    1    1    2  503  502 -0.98736528655E+02 -0.18389494709E+03 -0.94796467467E+01  0.20894046367E+03  0.00000000000E+00 0.  1.
         21    1    1    2  504  503 -0.21574006091E+02 -0.41398875595E+01  0.10692711493E+02  0.24431751613E+02  0.00000000000E+00 0.  1.
<mgrwt>
<rscale>  4 0.25326051E+03</rscale>
<asrwt>0</asrwt>
<pdfrwt beam="1">  1       21 0.21828040E-01 0.25326051E+03</pdfrwt>
<pdfrwt beam="2">  1       21 0.12024168E+00 0.25326051E+03</pdfrwt>
<totfact> 0.98972105E+03</totfact>
</mgrwt>
</event>
<event>
 5    0  0.1324511E+000  0.2573488E+03  0.7546771E-02  0.1108747E+00
         21   -1    0    0  504  501  0.00000000000E+00  0.00000000000E+00  0.10502053059E+03  0.10502053059E+03  0.00000000000E+00 0. -1.
         21   -1    0    0  501  502 -0.00000000000E+00 -0.00000000000E+00 -0.57718371481E+03  0.57718371481E+03  0.00000000000E+00 0. -1.
         25    1    1    2    0    0  0.15968121961E+03  0.15844651602E+03 -0.29236746581E+03  0.38949598894E+03  0.12500000000E+03 0.  0.
         21    1    1    2  503  502 -0.17292068939E+02 -0.25382687850E+02 -0.49580450120E+02  0.58322530164E+02  0.00000000000E+00 0.  1.
         21    1    1    2  504  503 -0.14238915067E+03 -0.13306382817E+03 -0.13021526829E+03  0.23438572629E+03  0.00000000000E+00 0. -1.
<mgrwt>
<rscale>  4 0.25734877E+03</rscale>
<asrwt>0</asrwt>
<pdfrwt beam="1">  1       21 0.16157004E-01 0.25734877E+03</pdfrwt>
<pdfrwt beam="2">  1       21 0.88797496E-01 0.25734877E+03</pdfrwt>
<totfact> 0.35967263E+04</totfact>
</mgrwt>
</event>
<event>
 5    0  0.1324511E+000  0.2792017E+03  0.7546771E-02  0.1096126E+00
         21   -1    0    0  504  501  0.00000000000E+00  0.00000000000E+00  0.56757976470E+03  0.56757976470E+03  0.00000000000E+00 0.  1.
         21   -1    0    0  501  502 -0.00000000000E+00 -0.00000000000E+00 -0.18358600325E+04  0.18358600325E+04  0.00000000000E+00 0.  1.
         25    1    1    2    0    0  0.15706704346E+03  0.19467503929E+03 -0.17909833619E+04  0.18126816681E+04  0.12500000000E+03 0.  0.
         21    1    1    2  503  502 -0.14325679947E+03 -0.17436849949E+03  0.51897787905E+03  0.56591953770E+03  0.00000000000E+00 0.  1.
         21    1    1    2  504  503 -0.13810243995E+02 -0.20306539796E+02  0.37252150685E+01  0.24838591445E+02  0.00000000000E+00 0. -1.
<mgrwt>
<rscale>  4 0.27920166E+03</rscale>
<asrwt>0</asrwt>
<pdfrwt beam="1">  1       21 0.87319962E-01 0.27920166E+03</pdfrwt>
<pdfrwt beam="2">  1       21 0.28244001E+00 0.27920166E+03</pdfrwt>
<totfact> 0.42935141E+01</totfact>
</mgrwt>
</event>
<event>
 5    0  0.1324511E+000  0.1922815E+03  0.7546771E-02  0.1156420E+00
         21   -1    0    0  504  501  0.00000000000E+00  0.00000000000E+00  0.90399669658E+03  0.90399669658E+03  0.00000000000E+00 0. -1.
         21   -1    0    0  501  502 -0.00000000000E+00 -0.00000000000E+00 -0.58590034838E+02  0.58590034838E+02  0.00000000000E+00 0. -1.
         25    1    1    2    0    0  0.18410147112E+03 -0.78358838444E+02  0.40823085663E+03  0.47149855942E+03  0.12500000000E+03 0.  0.
         21    1    1    2  503  502 -0.12494091653E+03  0.27457211486E+02  0.35687681555E+03  0.37911105571E+03  0.00000000000E+00 0. -1.
         21    1    1    2  504  503 -0.59160554594E+02  0.50901626957E+02  0.80298989557E+02  0.11197711628E+03  0.00000000000E+00 0. -1.
<mgrwt>
<rscale>  4 0.19228147E+03</rscale>
<asrwt>0</asrwt>
<pdfrwt beam="1">  1       21 0.13907641E+00 0.19228147E+03</pdfrwt>
<pdfrwt beam="2">  1       21 0.90138521E-02 0.19228147E+03</pdfrwt>
<totfact> 0.35469620E+04</totfact>
</mgrwt>
</event>
<event>
 5    0  0.1324511E+000  0.2971215E+03  0.7546771E-02  0.1086688E+00
         21   -1    0    0  504  501  0.00000000000E+00  0.00000000000E+00  0.31193352912E+03  0.31193352912E+03  0.00000000000E+00 0.  1.
         21   -1    0    0  501  502 -0.00000000000E+00 -0.00000000000E+00 -0.15890919358E+04  0.15890919358E+04  0.00000000000E+00 0.  1.
         25    1    1    2    0    0 -0.41347667251E+02  0.26408689307E+03 -0.14314939807E+04  0.14615921228E+04  0.12500000000E+03 0.  0.
         21    1    1    2  503  502 -0.87870679791E+02  0.16890232638E+02  0.82998711810E+02  0.12204639482E+03  0.00000000000E+00 0.  1.
         21    1    1    2  504  503  0.12921834704E+03 -0.28097712571E+03  0.71336862227E+02  0.31738694727E+03  0.00000000000E+00 0.  1.
<mgrwt>
<rscale>  4 0.29712146E+03</rscale>
<asrwt>0</asrwt>
<pdfrwt beam="1">  1       21 0.47989774E-01 0.29712146E+03</pdfrwt>
<pdfrwt beam="2">  1       21 0.24447568E+00 0.29712146E+03</pdfrwt>
<totfact> 0.26493325E+02</totfact>
</mgrwt>
</event>
<event>
 5    0  0.1324511E+000  0.2670818E+03  0.7546771E-02  0.1102961E+00
         21   -1    0    0  504  501  0.00000000000E+00  0.00000000000E+00  0.20789086852E+03  0.20789086852E+03  0.00000000000E+00 0. -1.
         21   -1    0    0  501  502 -0.00000000000E+00 -0.00000000000E+00 -0.87122704422E+03  0.87122704422E+03  0.00000000000E+00 0. -1.
         25    1    1    2    0    0  0.22864103366E+03 -0.14344466002E+03 -0.47487604057E+03  0.56034395390E+03  0.12500000000E+03 0.  0.
         21    1    1    2  503  502 -0.16703061246E+03 -0.81875205568E+02  0.41926099966E+02  0.19068448454E+03  0.00000000000E+00 0. -1.
         21    1    1    2  504  503 -0.61610421200E+02  0.22531986559E+03 -0.23038623510E+03  0.32808947431E+03  0.00000000000E+00 0. -1.
<mgrwt>
<rscale>  4 0.26708181E+03</rscale>
<asrwt>0</asrwt>
<pdfrwt beam="1">  1       21 0.31983211E-01 0.26708181E+03</pdfrwt>
<pdfrwt beam="2">  1       21 0.13403493E+00 0.26708181E+03</pdfrwt>
<totfact> 0.35576302E+03</totfact>
</mgrwt>
</event>
<event>
 5    0  0.1324511E+000  0.6270159E+03  0.7546771E-02  0.9850889E-01
         21   -1    0    0  504  501  0.00000000000E+00  0.00000000000E+00  0.10354315042E+04  0.10354315042E+04  0.00000000000E+00 0. -1.
         21   -1    0    0  501  502 -0.00000000000E+00 -0.00000000000E+00 -0.10053961687E+04  0.10053961687E+04  0.00000000000E+00 0.  1.
         25    1    1    2    0    0 -0.29751228999E+03 -0.68072535938E+03 -0.60182647185E+03  0.96422024445E+03  0.12500000000E+03 0.  0.
         21    1    1    2  503  502  0.22729483261E+03  0.55133350020E+03  0.69555485170E+03  0.91620310035E+03  0.00000000000E+00 0. -1.
         21    1    1    2  504  503  0.70217457375E+02  0.12939185918E+03 -0.63693044348E+02  0.16040432800E+03  0.00000000000E+00 0. -1.
<mgrwt>
<rscale>  4 0.62701587E+03</rscale>
<asrwt>0</asrwt>
<pdfrwt beam="1">  1       21 0.15929715E+00 0.62701587E+03</pdfrwt>
<pdfrwt beam="2">  1       21 0.15467633E+00 0.62701587E+03</pdfrwt>
<totfact> 0.50610031E+01</totfact>
</mgrwt>
</event>
<event>
 5    0  0.1324511E+000  0.2381857E+03  0.7546771E-02  0.1121007E+00
         21   -1    0    0  504  501  0.00000000000E+00  0.00000000000E+00  0.35546835426E+03  0.35546835426E+03  0.00000000000E+00 0.  1.
         21   -1    0    0  501  502 -0.00000000000E+00 -0.00000000000E+00 -0.59070859120E+03  0.59070859120E+03  0.00000000000E+00 0. -1.
         25    1    1    2    0    0  0.22243771118E+03  0.28967511913E+02 -0.50509237895E+03  0.56662241694E+03  0.12500000000E+03 0.  0.
         21    1    1    2  503  502 -0.12603747294E+03  0.41065639334E+02  0.78271194006E+02  0.15394223310E+03  0.00000000000E+00 0.  1.
         21    1    1    2  504  503 -0.96400238238E+02 -0.70033151248E+02  0.19158094801E+03  0.22561229542E+03  0.00000000000E+00 0.  1.
<mgrwt>
<rscale>  4 0.23818568E+03</rscale>
<asrwt>0</asrwt>
<pdfrwt beam="1">  1       21 0.54687440E-01 0.23818568E+03</pdfrwt>
<pdfrwt beam="2">  1       21 0.90878243E-01 0.23818568E+03</pdfrwt>
<totfact> 0.31293385E+03</totfact>
</mgrwt>
</event>
<event>
 5    0  0.1324511E+000  0.2699875E+03  0.7546771E-02  0.1101287E+00
         21   -1    0    0  504  501  0.00000000000E+00  0.00000000000E+00  0.19110018378E+04  0.19110018378E+04  0.00000000000E+00 0. -1.
         21   -1    0    0  501  502 -0.00000000000E+00 -0.00000000000E+00 -0.49696562559E+02  0.49696562559E+02  0.00000000000E+00 0. -1.
         25    1    1    2    0    0  0.23108337665E+03  0.13130165735E+03  0.97512404533E+03  0.10183965612E+04  0.12500000000E+03 0.  0.
         21    1    1    2  503  502 -0.14266543442E+03 -0.17156139407E+03  0.62533250683E+03  0.66394840328E+03  0.00000000000E+00 0. -1.
         21    1    1    2  504  503 -0.88417942226E+02  0.40259736725E+02  0.26084872312E+03  0.27835343587E+03  0.00000000000E+00 0. -1.
<mgrwt>
<rscale>  4 0.26998755E+03</rscale>
<asrwt>0</asrwt>
<pdfrwt beam="1">  1       21 0.29400023E+00 0.26998755E+03</pdfrwt>
<pdfrwt beam="2">  1       21 0.76456265E-02 0.26998755E+03</pdfrwt>
<totfact> 0.44488661E+03</totfact>
</mgrwt>
</event>
<event>
 5    0  0.1324511E+000  0.3805806E+03  0.7546771E-02  0.1050719E+00
         21   -1    0    0  504  501  0.00000000000E+00  0.00000000000E+00  0.99642720505E+02  0.99642720505E+02  0.00000000000E+00 0. -1.
         21   -1    0    0  501  502 -0.00000000000E+00 -0.00000000000E+00 -0.15855804647E+04  0.15855804647E+04  0.00000000000E+00 0. -1.
         25    1    1    2    0    0 -0.12406647189E+02 -0.35925293262E+03 -0.47606354181E+03  0.60949002480E+03  0.12500000000E+03 0.  0.
         21    1    1    2  503  502 -0.22249234269E+02  0.23528963609E+02 -0.70952788421E+02  0.77993196747E+02  0.00000000000E+00 0. -1.
         21    1    1    2  504  503  0.34655881458E+02  0.33572396901E+03 -0.93892141398E+03  0.99773996367E+03  0.00000000000E+00 0. -1.
<mgrwt>
<rscale>  4 0.38058060E+03</rscale>
<asrwt>0</asrwt>
<pdfrwt beam="1">  1       21 0.15329650E-01 0.38058060E+03</pdfrwt>
<pdfrwt beam="2">  1       21 0.24393544E+00 0.38058060E+03</pdfrwt>
<totfact> 0.23553329E+03</totfact>
</mgrwt>
</event>
<event>
 5    0  0.1324511E+000  0.2651499E+03  0.7546771E-02  0.1104088E+00
         21   -1    0    0  504  501  0.00000000000E+00  0.00000000000E+00  0.18022890951E+04  0.18022890951E+04  0.00000000000E+00 0. -1.
         21   -1    0    0  501  502 -0.00000000000E+00 -0.00000000000E+00 -0.49086604074E+03  0.49086604074E+03  0.00000000000E+00 0.  1.
         25    1    1    2    0    0  0.97910741791E+02  0.21219307451E+03 -0.42989976041E+03  0.50502595798E+03  0.12500000000E+03 0.  0.
         21    1    1    2  503  502 -0.20368484220E+03 -0.16902443778E+03  0.14715332296E+04  0.14951477590E+04  0.00000000000E+00 0. -1.
         21    1    1    2  504  503  0.10577410040E+03 -0.43168636725E+02  0.26978958524E+03  0.29298141890E+03  0.00000000000E+00 0. -1.
<mgrwt>
<rscale>  4 0.26514990E+03</rscale>
<asrwt>0</asrwt>
<pdfrwt beam="1">  1       21 0.27727524E+00 0.26514990E+03</pdfrwt>
<pdfrwt beam="2">  1       21 0.75517853E-01 0.26514990E+03</pdfrwt>
<totfact> 0.65277776E+01</totfact>
</mgrwt>
</event>
<event>
 5    0  0.1324511E+000  0.2837136E+03  0.7546771E-02  0.1093678E+00
         21   -1    0    0  504  501  0.00000000000E+00  0.00000000000E+00  0.72412348619E+02  0.72412348619E+02  0.00000000000E+00 0. -1.
         21   -1    0    0  501  502 -0.00000000000E+00 -0.00000000000E+00 -0.13620596608E+04  0.13620596608E+04  0.00000000000E+00 0. -1.
         25    1    1    2    0    0 -0.19937434370E+03 -0.17715697517E+03 -0.92841041281E+03  0.97401520388E+03  0.12500000000E+03 0.  0.
         21    1    1    2  503  502  0.18996401074E+03  0.14029374987E+03 -0.34720822348E+03  0.41990738512E+03  0.00000000000E+00 0. -1.
         21    1    1    2  504  503  0.94103329579E+01  0.36863225303E+02 -0.14028675844E+02  0.40549420367E+02  0.00000000000E+00 0. -1.
<mgrwt>
<rscale>  4 0.28371359E+03</rscale>
<asrwt>0</asrwt>
<pdfrwt beam="1">  1       21 0.11140362E-01 0.28371359E+03</pdfrwt>
<pdfrwt beam="2">  1       21 0.20954762E+00 0.28371359E+03</pdfrwt>
<totfact> 0.73085111E+03</totfact>
</mgrwt>
</event>
<event>
 5    0  0.1324511E+000  0.4856388E+03  0.7546771E-02  0.1017597E+00
         21   -1    0    0  504  501  0.00000000000E+00  0.00000000000E+00  0.18223683454E+04  0.18223683454E+04  0.00000000000E+00 0. -1.
         21   -1    0    0  501  502 -0.00000000000E+00 -0.00000000000E+00 -0.21555488788E+03  0.21555488788E+03  0.00000000000E+00 0. -1.
         25    1    1    2    0    0 -0.38877525572E+03 -0.40206717659E+03  0.55087670697E+03  0.79491783238E+03  0.12500000000E+03 0.  0.
         21    1    1    2  503  502  0.76728889389E+02  0.96792094748E+02  0.28622384666E+02  0.12678829984E+03  0.00000000000E+00 0. -1.
         21    1    1    2  504  503  0.31204636633E+03  0.30527508184E+03  0.10273143659E+04  0.11162171011E+04  0.00000000000E+00 0. -1.
<mgrwt>
<rscale>  4 0.48563877E+03</rscale>
<asrwt>0</asrwt>
<pdfrwt beam="1">  1       21 0.28036435E+00 0.48563877E+03</pdfrwt>
<pdfrwt beam="2">  1       21 0.33162292E-01 0.48563877E+03</pdfrwt>
<totfact> 0.30220084E+02</totfact>
</mgrwt>
</event>
<event>
 5    0  0.1324511E+000  0.2284679E+03  0.7546771E-02  0.1127723E+00
         21   -1    0    0  504  501  0.00000000000E+00  0.00000000000E+00  0.11298760434E+03  0.11298760434E+03  0.00000000000E+00 0.  1.
         21   -1    0    0  501  502 -0.00000000000E+00 -0.00000000000E+00 -0.58334862239E+03  0.58334862239E+03  0.00000000000E+00 0.  1.
         25    1    1    2    0    0 -0.11545053697E+03 -0.18326451374E+03 -0.31001396237E+03  0.39830687334E+03  0.12500000000E+03 0.  0.
         21    1    1    2  503  502  0.36073701347E+02  0.16598245729E+03 -0.10406123040E+03  0.19919896518E+03  0.00000000000E+00 0.  1.
         21    1    1    2  504  503  0.79376835622E+02  0.17282056448E+02 -0.56285825270E+02  0.98830388215E+02  0.00000000000E+00 0.  1.
<mgrwt>
<rscale>  4 0.22846789E+03</rscale>
<asrwt>0</asrwt>
<pdfrwt beam="1">  1       21 0.17382709E-01 0.22846789E+03</pdfrwt>
<pdfrwt beam="2">  1       21 0.89745941E-01 0.22846789E+03</pdfrwt>
<totfact> 0.31063201E+04</totfact>
</mgrwt>
</event>
<event>
 5    0  0.1324511E+000  0.2761798E+03  0.7546771E-02  0.1097794E+00
         21   -1    0    0  504  501  0.00000000000E+00  0.00000000000E+00  0.46382874664E+03  0.46382874664E+03  0.00000000000E+00 0. -1.
         21   -1    0    0  501  502 -0.00000000000E+00 -0.00000000000E+00 -0.17002694246E+03  0.17002694246E+03  0.00000000000E+00 0. -1.
         25    1    1    2    0    0  0.47933754735E+01 -0.24622614849E+03  0.26179155828E+03  0.38053923928E+03  0.12500000000E+03 0.  0.
         21    1    1    2  503  502 -0.10045030676E+02  0.22235186478E+03  0.14123607218E+02  0.22302630045E+03  0.00000000000E+00 0. -1.
         21    1    1    2  504  503  0.52516552025E+01  0.23874283712E+02  0.17886638688E+02  0.30290149367E+02  0.00000000000E+00 0. -1.
<mgrwt>
<rscale>  4 0.27617982E+03</rscale>
<asrwt>0</asrwt>
<pdfrwt beam="1">  1       21 0.71358268E-01 0.27617982E+03</pdfrwt>
<pdfrwt beam="2">  1       21 0.26157991E-01 0.27617982E+03</pdfrwt>
<totfact> 0.23650709E+04</totfact>
</mgrwt>
</event>
<event>
 5    0  0.1324511E+000  0.2597464E+03  0.7546771E-02  0.1107296E+00
         21   -1    0    0  504  501  0.00000000000E+00  0.00000000000E+00  0.60974321876E+03  0.60974321876E+03  0.00000000000E+00 0. -1.
         21   -1    0    0  501  502 -0.00000000000E+00 -0.00000000000E+00 -0.10009416545E+03  0.10009416545E+03  0.00000000000E+00 0. -1.
         25    1    1    2    0    0  0.16914361749E+03  0.15242588532E+03  0.30192077652E+03  0.39827674945E+03  0.12500000000E+03 0.  0.
         21    1    1    2  503  502 -0.10867449244E+03 -0.11684475027E+03  0.12250407305E+03  0.20117178949E+03  0.00000000000E+00 0. -1.
         21    1    1    2  504  503 -0.60469125054E+02 -0.35581135047E+02  0.85224203743E+02  0.11038884527E+03  0.00000000000E+00 0.  1.
<mgrwt>
<rscale>  4 0.25974644E+03</rscale>
<asrwt>0</asrwt>
<pdfrwt beam="1">  1       21 0.93806647E-01 0.25974644E+03</pdfrwt>
<pdfrwt beam="2">  1       21 0.15399103E-01 0.25974644E+03</pdfrwt>
<totfact> 0.34521014E+04</totfact>
</mgrwt>
</event>
<event>
 5    0  0.1324511E+000  0.2665530E+03  0.7546771E-02  0.1103269E+00
         21   -1    0    0  504  501  0.00000000000E+00  0.00000000000E+00  0.26411456037E+03  0.26411456037E+03  0.00000000000E+00 0.  1.
         21   -1    0    0  501  502 -0.00000000000E+00 -0.00000000000E+00 -0.26134311780E+03  0.26134311780E+03  0.00000000000E+00 0.  1.
         25    1    1    2    0    0 -0.15999199702E+03  0.17270802953E+03 -0.24164349474E+02  0.26764606920E+03  0.12500000000E+03 0.  0.
         21    1    1    2  503  502  0.76839438215E+02 -0.64235783354E+02  0.60587508518E+02  0.11705289965E+03  0.00000000000E+00 0.  1.
         21    1    1    2  504  503  0.83152558807E+02 -0.10847224617E+03 -0.33651716475E+02  0.14075870931E+03  0.00000000000E+00 0.  1.
<mgrwt>
<rscale>  4 0.26655300E+03</rscale>
<asrwt>0</asrwt>
<pdfrwt beam="1">  1       21 0.40633009E-01 0.26655300E+03</pdfrwt>
<pdfrwt beam="2">  1       21 0.40206634E-01 0.26655300E+03</pdfrwt>
<totfact> 0.33595198E+04</totfact>
</mgrwt>
</event>
<event>
 5    0  0.1324511E+000  0.2366636E+03  0.7546771E-02  0.1122036E+00
         21   -1    0    0  504  501  0.00000000000E+00  0.00000000000E+00  0.63695332129E+03  0.63695332129E+03  0.00000000000E+00 0.  1.
         21   -1    0    0  501  502 -0.00000000000E+00 -0.00000000000E+00 -0.14063913933E+03  0.14063913933E+03  0.00000000000E+00 0. -1.
         25    1    1    2    0    0  0.10808067232E+03  0.19196603338E+03  0.46470911440E+02  0.25752074734E+03  0.12500000000E+03 0.  0.
         21    1    1    2  503  502 -0.38211809707E+01 -0.24538262985E+02 -0.40634387252E+01  0.25164246633E+02  0.00000000000E+00 0.  1.
         21    1    1    2  504  503 -0.10425949135E+03 -0.16742777040E+03  0.45390670924E+03  0.49490746664E+03  0.00000000000E+00 0.  1.
<mgrwt>
<rscale>  4 0.23666357E+03</rscale>
<asrwt>0</asrwt>
<pdfrwt beam="1">  1       21 0.97992817E-01 0.23666357E+03</pdfrwt>
<pdfrwt beam="2">  1       21 0.21636791E-01 0.23666357E+03</pdfrwt>
<totfact> 0.16707515E+04</totfact>
</mgrwt>
</event>
<event>
 5    0  0.1324511E+000  0.3356890E+03  0.7546771E-02  0.1068647E+00
         21   -1    0    0  504  501  0.00000000000E+00  0.00000000000E+00  0.99638003945E+03  0.99638003945E+03  0.00000000000E+00 0.  1.
         21   -1    0    0  501  502 -0.00000000000E+00 -0.00000000000E+00 -0.11988200700E+03  0.11988200700E+03  0.00000000000E+00 0.  1.
         25    1    1    2    0    0  0.16484743642E+03 -0.27660734027E+03  0.51535822247E+03  0.62040744310E+03  0.12500000000E+03 0.  0.
         21    1    1    2  503  502 -0.17298760186E+03  0.24625067464E+03  0.35203423887E+03  0.46313303758E+03  0.00000000000E+00 0.  1.
         21    1    1    2  504  503  0.81401654356E+01  0.30356665627E+02  0.91055711166E+01  0.32721565773E+02  0.00000000000E+00 0.  1.
<mgrwt>
<rscale>  4 0.33568896E+03</rscale>
<asrwt>0</asrwt>
<pdfrwt beam="1">  1       21 0.15328923E+00 0.33568896E+03</pdfrwt>
<pdfrwt beam="2">  1       21 0.18443386E-01 0.33568896E+03</pdfrwt>
<totfact> 0.69385689E+03</totfact>
</mgrwt>
</event>
<event>
 5    0  0.1798835E+000  0.4599395E+03  0.7546771E-02  0.1024799E+00
         21   -1    0    0  504  501  0.00000000000E+00  0.00000000000E+00  0.13021349085E+04  0.13021349085E+04  0.00000000000E+00 0. -1.
         21   -1    0    0  501  502 -0.00000000000E+00 -0.00000000000E+00 -0.55988951500E+03  0.55988951500E+03  0.00000000000E+00 0.  1.
         25    1    1    2    0    0  0.34998560537E+03  0.29146739098E+03 -0.39955313642E+03  0.61863630090E+03  0.12500000000E+03 0.  0.
         21    1    1    2  503  502 -0.34934859037E+03 -0.27013745985E+03  0.11393118012E+04  0.12219042782E+04  0.00000000000E+00 0. -1.
         21    1    1    2  504  503 -0.63701499915E+00 -0.21329931139E+02  0.24867287606E+01  0.21483844405E+02  0.00000000000E+00 0.  1.
<mgrwt>
<rscale>  4 0.45993945E+03</rscale>
<asrwt>0</asrwt>
<pdfrwt beam="1">  1       21 0.20032845E+00 0.45993945E+03</pdfrwt>
<pdfrwt beam="2">  1       21 0.86136849E-01 0.45993945E+03</pdfrwt>
<totfact> 0.12355204E+02</totfact>
</mgrwt>
</event>
<event>
 5    0  0.1324511E+000  0.3869924E+03  0.7546771E-02  0.1048379E+00
         21   -1    0    0  504  501  0.00000000000E+00  0.00000000000E+00  0.74958035576E+03  0.74958035576E+03  0.00000000000E+00 0. -1.
         21   -1    0    0  501  502 -0.00000000000E+00 -0.00000000000E+00 -0.25263834274E+03  0.25263834274E+03  0.00000000000E+00 0. -1.
         25    1    1    2    0    0 -0.36593233135E+03  0.15221067457E+02  0.16613396232E+02  0.38734888273E+03  0.12500000000E+03 0.  0.
         21    1    1    2  503  502  0.32353827214E+03 -0.47694194545E+02  0.43857226611E+03  0.54708078227E+03  0.00000000000E+00 0. -1.
         21    1    1    2  504  503  0.42394059209E+02  0.32473127088E+02  0.41756350676E+02  0.67789033485E+02  0.00000000000E+00 0.  1.
<mgrwt>
<rscale>  4 0.38699244E+03</rscale>
<asrwt>0</asrwt>
<pdfrwt beam="1">  1       21 0.11532005E+00 0.38699244E+03</pdfrwt>
<pdfrwt beam="2">  1       21 0.38867438E-01 0.38699244E+03</pdfrwt>
<totfact> 0.33104992E+03</totfact>
</mgrwt>
</event>
<event>
 5    0  0.1324511E+000  0.3916183E+03  0.7546771E-02  0.1046721E+00
         21   -1    0    0  504  501  0.00000000000E+00  0.00000000000E+00  0.42374327076E+03  0.42374327076E+03  0.00000000000E+00 0.  1.
         21   -1    0    0  501  502 -0.00000000000E+00 -0.00000000000E+00 -0.10551594487E+04  0.10551594487E+04  0.00000000000E+00 0.  1.
         25    1    1    2    0    0 -0.35830294960E+03 -0.96741390318E+02 -0.92150565931E+03  0.10012679863E+04  0.12500000000E+03 0.  0.
         21    1    1    2  503  502  0.28859102488E+03  0.10931656753E+03  0.23442224294E+03  0.38754184234E+03  0.00000000000E+00 0.  1.
         21    1    1    2  504  503  0.69711924726E+02 -0.12575177212E+02  0.55667238445E+02  0.90092890769E+02  0.00000000000E+00 0.  1.
<mgrwt>
<rscale>  4 0.39161831E+03</rscale>
<asrwt>0</asrwt>
<pdfrwt beam="1">  1       21 0.65191273E-01 0.39161831E+03</pdfrwt>
<pdfrwt beam="2">  1       21 0.16233222E+00 0.39161831E+03</pdfrwt>
<totfact> 0.44749398E+02</totfact>
</mgrwt>
</event>
<event>
 5    0  0.1324511E+000  0.2431752E+03  0.7546771E-02  0.1117696E+00
         21   -1    0    0  504  501  0.00000000000E+00  0.00000000000E+00  0.67175731856E+02  0.67175731856E+02  0.00000000000E+00 0.  1.
         21   -1    0    0  501  502 -0.00000000000E+00 -0.00000000000E+00 -0.89619197850E+03  0.89619197850E+03  0.00000000000E+00 0.  1.
         25    1    1    2    0    0  0.53692820096E+02 -0.20155954747E+03 -0.62003876920E+03  0.66601970348E+03  0.12500000000E+03 0.  0.
         21    1    1    2  503  502 -0.11607543332E+02  0.16754010599E+02 -0.32557360574E+02  0.38411113768E+02  0.00000000000E+00 0.  1.
         21    1    1    2  504  503 -0.42085276765E+02  0.18480553687E+03 -0.17642011687E+03  0.25893689311E+03  0.00000000000E+00 0.  1.
<mgrwt>
<rscale>  4 0.24317518E+03</rscale>
<asrwt>0</asrwt>
<pdfrwt beam="1">  1       21 0.10334728E-01 0.24317518E+03</pdfrwt>
<pdfrwt beam="2">  1       21 0.13787569E+00 0.24317518E+03</pdfrwt>
<totfact> 0.27683982E+04</totfact>
</mgrwt>
</event>
<event>
 5    0  0.1324511E+000  0.3062723E+03  0.7546771E-02  0.1082147E+00
         21   -1    0    0  504  501  0.00000000000E+00  0.00000000000E+00  0.36047867162E+03  0.36047867162E+03  0.00000000000E+00 0. -1.
         21   -1    0    0  501  502 -0.00000000000E+00 -0.00000000000E+00 -0.24995339642E+03  0.24995339642E+03  0.00000000000E+00 0. -1.
         25    1    1    2    0    0 -0.20637778656E+01 -0.27959512329E+03 -0.40425636703E+01  0.30629892992E+03  0.12500000000E+03 0.  0.
         21    1    1    2  503  502 -0.68233520428E+01  0.25981517123E+03  0.10314345920E+03  0.27962305790E+03  0.00000000000E+00 0. -1.
         21    1    1    2  504  503  0.88871299084E+01  0.19779952065E+02  0.11424379680E+02  0.24510080228E+02  0.00000000000E+00 0. -1.
<mgrwt>
<rscale>  4 0.30627225E+03</rscale>
<asrwt>0</asrwt>
<pdfrwt beam="1">  1       21 0.55458257E-01 0.30627225E+03</pdfrwt>
<pdfrwt beam="2">  1       21 0.38454369E-01 0.30627225E+03</pdfrwt>
<totfact> 0.18898220E+04</totfact>
</mgrwt>
</event>
<event>
 5    0  0.1324511E+000  0.2145404E+03  0.7546771E-02  0.1138020E+00
         21   -1    0    0  504  501  0.00000000000E+00  0.00000000000E+00  0.39455492350E+03  0.39455492350E+03  0.00000000000E+00 0.  1.
         21   -1    0    0  501  502 -0.00000000000E+00 -0.00000000000E+00 -0.18066943343E+03  0.18066943343E+03  0.00000000000E+00 0.  1.
         25    1    1    2    0    0 -0.20770877085E+03 -0.68765466208E+01 -0.23697623800E+02  0.24367354751E+03  0.12500000000E+03 0.  0.
         21    1    1    2  503  502  0.40048671350E+02  0.11924509442E+02  0.13293015287E+01  0.41807380268E+02  0.00000000000E+00 0. -1.
         21    1    1    2  504  503  0.16766009950E+03 -0.50479628214E+01  0.23625381234E+03  0.28974342915E+03  0.00000000000E+00 0.  1.
<mgrwt>
<rscale>  4 0.21454037E+03</rscale>
<asrwt>0</asrwt>
<pdfrwt beam="1">  1       21 0.60700757E-01 0.21454037E+03</pdfrwt>
<pdfrwt beam="2">  1       21 0.27795298E-01 0.21454037E+03</pdfrwt>
<totfact> 0.30865360E+04</totfact>
</mgrwt>
</event>
<event>
 5    0  0.1324511E+000  0.3051319E+03  0.7546771E-02  0.1082703E+00
         21   -1    0    0  504  501  0.00000000000E+00  0.00000000000E+00  0.14286138680E+03  0.14286138680E+03  0.00000000000E+00 0. -1.
         21   -1    0    0  501  502 -0.00000000000E+00 -0.00000000000E+00 -0.10539265123E+04  0.10539265123E+04  0.00000000000E+00 0. -1.
         25    1    1    2    0    0  0.20430829631E+03 -0.18904652546E+03 -0.84078657560E+03  0.89444258309E+03  0.12500000000E+03 0.  0.
         21    1    1    2  503  502 -0.43079515757E+02  0.59665128860E+02  0.20760218049E+02  0.76464102252E+02  0.00000000000E+00 0. -1.
         21    1    1    2  504  503 -0.16122878056E+03  0.12938139660E+03 -0.91038767974E+02  0.22588121379E+03  0.00000000000E+00 0. -1.
<mgrwt>
<rscale>  4 0.30513189E+03</rscale>
<asrwt>0</asrwt>
<pdfrwt beam="1">  1       21 0.21978675E-01 0.30513189E+03</pdfrwt>
<pdfrwt beam="2">  1       21 0.16214254E+00 0.30513189E+03</pdfrwt>
<totfact> 0.43386049E+03</totfact>
</mgrwt>
</event>
<event>
 5    0  0.1324511E+000  0.3617777E+03  0.7546771E-02  0.1057882E+00
         21   -1    0    0  504  501  0.00000000000E+00  0.00000000000E+00  0.55688011164E+03  0.55688011164E+03  0.00000000000E+00 0. -1.
         21   -1    0    0  501  502 -0.00000000000E+00 -0.00000000000E+00 -0.45826215583E+03  0.45826215583E+03  0.00000000000E+00 0.  1.
         25    1    1    2    0    0  0.19177170455E+03 -0.28014589599E+03 -0.30916153629E+03  0.47588230187E+03  0.12500000000E+03 0.  0.
         21    1    1    2  503  502 -0.92684894919E+02  0.13955338822E+03  0.12797086473E+03  0.21081314031E+03  0.00000000000E+00 0. -1.
         21    1    1    2  504  503 -0.99086809628E+02  0.14059250778E+03  0.27980862739E+03  0.32844682529E+03  0.00000000000E+00 0. -1.
<mgrwt>
<rscale>  4 0.36177771E+03</rscale>
<asrwt>0</asrwt>
<pdfrwt beam="1">  1       21 0.85673863E-01 0.36177771E+03</pdfrwt>
<pdfrwt beam="2">  1       21 0.70501870E-01 0.36177771E+03</pdfrwt>
<totfact> 0.19206796E+03</totfact>
</mgrwt>
</event>
<event>
 5    0  0.1324511E+000  0.2268352E+03  0.7546771E-02  0.1128887E+00
         21   -1    0    0  504  501  0.00000000000E+00  0.00000000000E+00  0.15988897433E+03  0.15988897433E+03  0.00000000000E+00 0. -1.
         21   -1    0    0  501  502 -0.00000000000E+00 -0.00000000000E+00 -0.52403839417E+03  0.52403839417E+03  0.00000000000E+00 0. -1.
         25    1    1    2    0    0  0.11618895777E+03  0.17970966484E+03 -0.37038398528E+03  0.44565091057E+03  0.12500000000E+03 0.  0.
         21    1    1    2  503  502 -0.12279286100E+03 -0.13837198706E+03  0.33925707528E+02  0.18808468079E+03  0.00000000000E+00 0. -1.
         21    1    1    2  504  503  0.66039032320E+01 -0.41337677774E+02 -0.27691142092E+02  0.50191777135E+02  0.00000000000E+00 0. -1.
<mgrwt>
<rscale>  4 0.22683516E+03</rscale>
<asrwt>0</asrwt>
<pdfrwt beam="1">  1       21 0.24598304E-01 0.22683516E+03</pdfrwt>
<pdfrwt beam="2">  1       21 0.80621291E-01 0.22683516E+03</pdfrwt>
<totfact> 0.20699855E+04</totfact>
</mgrwt>
</event>
<event>
 5    0  0.1324511E+000  0.2885238E+03  0.7546771E-02  0.1091122E+00
         21   -1    0    0  504  501  0.00000000000E+00  0.00000000000E+00  0.31394031315E+03  0.31394031315E+03  0.00000000000E+00 0.  1.
         21   -1    0    0  501  502 -0.00000000000E+00 -0.00000000000E+00 -0.26115456288E+03  0.26115456288E+03  0.00000000000E+00 0.  1.
         25    1    1    2    0    0 -0.97329352323E+02  0.24113893344E+03  0.99772111502E+02  0.30528750757E+03  0.12500000000E+03 0.  0.
         21    1    1    2  503  502  0.92714610010E+02 -0.22113045000E+03 -0.57730889112E+02  0.24663237903E+03  0.00000000000E+00 0.  1.
         21    1    1    2  504  503  0.46147423125E+01 -0.20008483440E+02  0.10744527882E+02  0.23174989441E+02  0.00000000000E+00 0.  1.
<mgrwt>
<rscale>  4 0.28852381E+03</rscale>
<asrwt>0</asrwt>
<pdfrwt beam="1">  1       21 0.48298510E-01 0.28852381E+03</pdfrwt>
<pdfrwt beam="2">  1       21 0.40177625E-01 0.28852381E+03</pdfrwt>
<totfact> 0.23328581E+04</totfact>
</mgrwt>
</event>
<event>
 5    0  0.1324511E+000  0.2003405E+03  0.7546771E-02  0.1149452E+00
         21   -1    0    0  504  501  0.00000000000E+00  0.00000000000E+00  0.88830729012E+03  0.88830729012E+03  0.00000000000E+00 0.  1.
         21   -1    0    0  501  502 -0.00000000000E+00 -0.00000000000E+00 -0.87963642033E+02  0.87963642033E+02  0.00000000000E+00 0.  1.
         25    1    1    2    0    0 -0.42667146617E+02  0.22513801735E+03  0.49939598425E+03  0.56349708193E+03  0.12500000000E+03 0.  0.
         21    1    1    2  503  502  0.18134725559E+02 -0.14115051064E+03  0.56460754919E+02  0.15310176933E+03  0.00000000000E+00 0.  1.
         21    1    1    2  504  503  0.24532421058E+02 -0.83987506705E+02  0.24448690892E+03  0.25967208090E+03  0.00000000000E+00 0.  1.
<mgrwt>
<rscale>  4 0.20034050E+03</rscale>
<asrwt>0</asrwt>
<pdfrwt beam="1">  1       21 0.13666265E+00 0.20034050E+03</pdfrwt>
<pdfrwt beam="2">  1       21 0.13532869E-01 0.20034050E+03</pdfrwt>
<totfact> 0.17909785E+04</totfact>
</mgrwt>
</event>
<event>
 5    0  0.1324511E+000  0.3777789E+03  0.7546771E-02  0.1051758E+00
         21   -1    0    0  504  501  0.00000000000E+00  0.00000000000E+00  0.20872191584E+04  0.20872191584E+04  0.00000000000E+00 0.  1.
         21   -1    0    0  501  502 -0.00000000000E+00 -0.00000000000E+00 -0.11728312322E+03  0.11728312322E+03  0.00000000000E+00 0.  1.
         25    1    1    2    0    0  0.33758596455E+03 -0.14685903728E+03  0.39595897543E+03  0.55492375198E+03  0.12500000000E+03 0.  0.
         21    1    1    2  503  502 -0.29607328819E+02  0.78754318625E+01  0.85089499901E+03  0.85144636689E+03  0.00000000000E+00 0.  1.
         21    1    1    2  504  503 -0.30797863573E+03  0.13898360542E+03  0.72308206069E+03  0.79813216270E+03  0.00000000000E+00 0.  1.
<mgrwt>
<rscale>  4 0.37777889E+03</rscale>
<asrwt>0</asrwt>
<pdfrwt beam="1">  1       21 0.32111061E+00 0.37777889E+03</pdfrwt>
<pdfrwt beam="2">  1       21 0.18043559E-01 0.37777889E+03</pdfrwt>
<totfact> 0.59912059E+02</totfact>
</mgrwt>
</event>
<event>
 5    0  0.1324511E+000  0.2636065E+03  0.7546771E-02  0.1104996E+00
         21   -1    0    0  504  501  0.00000000000E+00  0.00000000000E+00  0.65436544737E+02  0.65436544737E+02  0.00000000000E+00 0. -1.
         21   -1    0    0  501  502 -0.00000000000E+00 -0.00000000000E+00 -0.10949736490E+04  0.10949736490E+04  0.00000000000E+00 0. -1.
         25    1    1    2    0    0 -0.19942668867E+03  0.11871136374E+03 -0.71386672978E+03  0.76098232563E+03  0.12500000000E+03 0.  0.
         21    1    1    2  503  502  0.34882901063E+02  0.92873955548E+01 -0.41472039598E+02  0.54981838558E+02  0.00000000000E+00 0. -1.
         21    1    1    2  504  503  0.16454378760E+03 -0.12799875929E+03 -0.27419833488E+03  0.34444602955E+03  0.00000000000E+00 0. -1.
<mgrwt>
<rscale>  4 0.26360651E+03</rscale>
<asrwt>0</asrwt>
<pdfrwt beam="1">  1       21 0.10067161E-01 0.26360651E+03</pdfrwt>
<pdfrwt beam="2">  1       21 0.16845749E+00 0.26360651E+03</pdfrwt>
<totfact> 0.16771451E+04</totfact>
</mgrwt>
</event>
<event>
 5    0  0.1324511E+000  0.2585414E+03  0.7546771E-02  0.1108023E+00
         21   -1    0    0  504  501  0.00000000000E+00  0.00000000000E+00  0.13838621924E+04  0.13838621924E+04  0.00000000000E+00 0. -1.
         21   -1    0    0  501  502 -0.00000000000E+00 -0.00000000000E+00 -0.99178913495E+02  0.99178913495E+02  0.00000000000E+00 0.  1.
         25    1    1    2    0    0  0.12715768236E+03  0.18721531690E+03  0.10321979768E+03  0.27838458595E+03  0.12500000000E+03 0.  0.
         21    1    1    2  503  502 -0.10642944358E+03 -0.18614146449E+03  0.10853296289E+04  0.11063074955E+04  0.00000000000E+00 0. -1.
         21    1    1    2  504  503 -0.20728238781E+02 -0.10738524026E+01  0.96133852353E+02  0.98349024449E+02  0.00000000000E+00 0. -1.
<mgrwt>
<rscale>  4 0.25854139E+03</rscale>
<asrwt>0</asrwt>
<pdfrwt beam="1">  1       21 0.21290186E+00 0.25854139E+03</pdfrwt>
<pdfrwt beam="2">  1       21 0.15258295E-01 0.25854139E+03</pdfrwt>
<totfact> 0.39996535E+03</totfact>
</mgrwt>
</event>
<event>
 5    0  0.1324511E+000  0.3170356E+03  0.7546771E-02  0.1077022E+00
         21   -1    0    0  504  501  0.00000000000E+00  0.00000000000E+00  0.34321963934E+04  0.34321963934E+04  0.00000000000E+00 0. -1.
         21   -1    0    0  501  502 -0.00000000000E+00 -0.00000000000E+00 -0.32224614537E+02  0.32224614537E+02  0.00000000000E+00 0. -1.
         25    1    1    2    0    0  0.21710669520E+03 -0.19429688503E+03  0.11008712087E+04  0.11456129428E+04  0.12500000000E+03 0.  0.
         21    1    1    2  503  502 -0.15177568128E+03  0.17862928869E+03  0.17631289950E+04  0.17786422162E+04  0.00000000000E+00 0. -1.
         21    1    1    2  504  503 -0.65331013918E+02  0.15667596340E+02  0.53597157512E+03  0.54016584887E+03  0.00000000000E+00 0.  1.
<mgrwt>
<rscale>  4 0.31703564E+03</rscale>
<asrwt>0</asrwt>
<pdfrwt beam="1">  1       21 0.52802993E+00 0.31703564E+03</pdfrwt>
<pdfrwt beam="2">  1       21 0.49576357E-02 0.31703564E+03</pdfrwt>
<totfact> 0.27696168E+02</totfact>
</mgrwt>
</event>
<event>
 5    0  0.1324511E+000  0.3509624E+03  0.7546771E-02  0.1062221E+00
         21   -1    0    0  504  501  0.00000000000E+00  0.00000000000E+00  0.58355358091E+03  0.58355358091E+03  0.00000000000E+00 0.  1.
         21   -1    0    0  501  502 -0.00000000000E+00 -0.00000000000E+00 -0.47541430123E+03  0.47541430123E+03  0.00000000000E+00 0.  1.
         25    1    1    2    0    0 -0.14298781561E+03  0.33063029472E+03 -0.22527666582E+03  0.44287298784E+03  0.12500000000E+03 0.  0.
         21    1    1    2  503  502  0.21637376831E+03 -0.42730614168E+02  0.15438229908E+03  0.26921628344E+03  0.00000000000E+00 0.  1.
         21    1    1    2  504  503 -0.73385952705E+02 -0.28789968055E+03  0.17903364642E+03  0.34687861086E+03  0.00000000000E+00 0.  1.
<mgrwt>
<rscale>  4 0.35096239E+03</rscale>
<asrwt>0</asrwt>
<pdfrwt beam="1">  1       21 0.89777473E-01 0.35096239E+03</pdfrwt>
<pdfrwt beam="2">  1       21 0.73140662E-01 0.35096239E+03</pdfrwt>
<totfact> 0.15932109E+03</totfact>
</mgrwt>
</event>
<event>
 5    0  0.1324511E+000  0.2857078E+03  0.7546771E-02  0.1092612E+00
         21   -1    0    0  504  501  0.00000000000E+00  0.00000000000E+00  0.57270476435E+03  0.57270476435E+03  0.00000000000E+00 0.  1.
         21   -1    0    0  501  502 -0.00000000000E+00 -0.00000000000E+00 -0.38142722454E+03  0.38142722454E+03  0.00000000000E+00 0.  1.
         25    1    1    2    0    0  0.41488940386E+02 -0.36116644804E+03  0.31126610382E+03  0.49464545156E+03  0.12500000000E+03 0.  0.
         21    1    1    2  503  502  0.64050245018E+01  0.18374375682E+03  0.68532823442E+02  0.19621299753E+03  0.00000000000E+00 0. -1.
         21    1    1    2  504  503 -0.47893964888E+02  0.17742269122E+03 -0.18852138745E+03  0.26327353980E+03  0.00000000000E+00 0.  1.
<mgrwt>
<rscale>  4 0.28570778E+03</rscale>
<asrwt>0</asrwt>
<pdfrwt beam="1">  1       21 0.88108426E-01 0.28570778E+03</pdfrwt>
<pdfrwt beam="2">  1       21 0.58681111E-01 0.28570778E+03</pdfrwt>
<totfact> 0.28052285E+03</totfact>
</mgrwt>
</event>
<event>
 5    0  0.1324511E+000  0.3473405E+03  0.7546771E-02  0.1063712E+00
         21   -1    0    0  504  501  0.00000000000E+00  0.00000000000E+00  0.22355186016E+03  0.22355186016E+03  0.00000000000E+00 0.  1.
         21   -1    0    0  501  502 -0.00000000000E+00 -0.00000000000E+00 -0.54888555416E+03  0.54888555416E+03  0.00000000000E+00 0.  1.
         25    1    1    2    0    0  0.27885360582E+02 -0.32286660258E+03 -0.25846487981E+03  0.43295442080E+03  0.12500000000E+03 0.  0.
         21    1    1    2  503  502 -0.21805072100E+02  0.33830876705E+02  0.75674322913E+01  0.40954308923E+02  0.00000000000E+00 0. -1.
         21    1    1    2  504  503 -0.60802884827E+01  0.28903572587E+03 -0.74436246483E+02  0.29852868460E+03  0.00000000000E+00 0.  1.
<mgrwt>
<rscale>  4 0.34734052E+03</rscale>
<asrwt>0</asrwt>
<pdfrwt beam="1">  1       21 0.34392594E-01 0.34734052E+03</pdfrwt>
<pdfrwt beam="2">  1       21 0.84443931E-01 0.34734052E+03</pdfrwt>
<totfact> 0.91296978E+03</totfact>
</mgrwt>
</event>
<event>
 5    0  0.1324511E+000  0.2867257E+03  0.7546771E-02  0.1092071E+00
         21   -1    0    0  504  501  0.00000000000E+00  0.00000000000E+00  0.59177530101E+03  0.59177530101E+03  0.00000000000E+00 0.  1.
         21   -1    0    0  501  502 -0.00000000000E+00 -0.00000000000E+00 -0.62724654555E+03  0.62724654555E+03  0.00000000000E+00 0. -1.
         25    1    1    2    0    0  0.26372081550E+03 -0.25056769590E+02 -0.48235926463E+03  0.56433320867E+03  0.12500000000E+03 0.  0.
         21    1    1    2  503  502 -0.66765327281E+02  0.17259375614E+03  0.57004928977E+02  0.19363825943E+03  0.00000000000E+00 0.  1.
         21    1    1    2  504  503 -0.19695548822E+03 -0.14753698655E+03  0.38988309111E+03  0.46105037846E+03  0.00000000000E+00 0.  1.
<mgrwt>
<rscale>  4 0.28672568E+03</rscale>
<asrwt>0</asrwt>
<pdfrwt beam="1">  1       21 0.91042354E-01 0.28672568E+03</pdfrwt>
<pdfrwt beam="2">  1       21 0.96499469E-01 0.28672568E+03</pdfrwt>
<totfact> 0.84320772E+02</totfact>
</mgrwt>
</event>
<event>
 5    0  0.1324511E+000  0.2423806E+03  0.7546771E-02  0.1118217E+00
         21   -1    0    0  504  501  0.00000000000E+00  0.00000000000E+00  0.10383200038E+03  0.10383200038E+03  0.00000000000E+00 0.  1.
         21   -1    0    0  501  502 -0.00000000000E+00 -0.00000000000E+00 -0.96408735164E+03  0.96408735164E+03  0.00000000000E+00 0.  1.
         25    1    1    2    0    0  0.14091472119E+03 -0.15253330271E+03 -0.79465275997E+03  0.83079562830E+03  0.12500000000E+03 0.  0.
         21    1    1    2  503  502 -0.92188104073E+02  0.67391848796E+02  0.80136939494E+01  0.11447500648E+03  0.00000000000E+00 0.  1.
         21    1    1    2  504  503 -0.48726617113E+02  0.85141453909E+02 -0.73616285240E+02  0.12264871724E+03  0.00000000000E+00 0.  1.
<mgrwt>
<rscale>  4 0.24238062E+03</rscale>
<asrwt>0</asrwt>
<pdfrwt beam="1">  1       21 0.15974154E-01 0.24238062E+03</pdfrwt>
<pdfrwt beam="2">  1       21 0.14832113E+00 0.24238062E+03</pdfrwt>
<totfact> 0.10404056E+04</totfact>
</mgrwt>
</event>
<event>
 5    0  0.1324511E+000  0.2444182E+03  0.7546771E-02  0.1116884E+00
         21   -1    0    0  504  501  0.00000000000E+00  0.00000000000E+00  0.75823702554E+03  0.75823702554E+03  0.00000000000E+00 0. -1.
         21   -1    0    0  501  502 -0.00000000000E+00 -0.00000000000E+00 -0.97970904353E+02  0.97970904353E+02  0.00000000000E+00 0. -1.
         25    1    1    2    0    0 -0.38605224233E+02  0.20645791413E+03  0.12193196880E+03  0.27314398888E+03  0.12500000000E+03 0.  0.
         21    1    1    2  503  502  0.16756350240E+02 -0.14756368071E+03  0.27715685328E+03  0.31443876425E+03  0.00000000000E+00 0. -1.
         21    1    1    2  504  503  0.21848873993E+02 -0.58894233420E+02  0.26117729910E+03  0.26862517676E+03  0.00000000000E+00 0. -1.
<mgrwt>
<rscale>  4 0.24441815E+03</rscale>
<asrwt>0</asrwt>
<pdfrwt beam="1">  1       21 0.11665185E+00 0.24441815E+03</pdfrwt>
<pdfrwt beam="2">  1       21 0.15072447E-01 0.24441815E+03</pdfrwt>
<totfact> 0.21369765E+04</totfact>
</mgrwt>
</event>
<event>
 5    0  0.1324511E+000  0.2724799E+03  0.7546771E-02  0.1099869E+00
         21   -1    0    0  504  501  0.00000000000E+00  0.00000000000E+00  0.16578723096E+03  0.16578723096E+03  0.00000000000E+00 0. -1.
         21   -1    0    0  501  502 -0.00000000000E+00 -0.00000000000E+00 -0.55140631491E+03  0.55140631491E+03  0.00000000000E+00 0.  1.
         25    1    1    2    0    0  0.14219357073E+03  0.19938322224E+03 -0.34433143195E+03  0.44063796465E+03  0.12500000000E+03 0.  0.
         21    1    1    2  503  502 -0.33192965860E+02  0.12150091549E+02 -0.23410199146E+01  0.35424258376E+02  0.00000000000E+00 0. -1.
         21    1    1    2  504  503 -0.10900060487E+03 -0.21153331378E+03 -0.38946632090E+02  0.24113132284E+03  0.00000000000E+00 0. -1.
<mgrwt>
<rscale>  4 0.27247994E+03</rscale>
<asrwt>0</asrwt>
<pdfrwt beam="1">  1       21 0.25505728E-01 0.27247994E+03</pdfrwt>
<pdfrwt beam="2">  1       21 0.84831739E-01 0.27247994E+03</pdfrwt>
<totfact> 0.16797223E+04</totfact>
</mgrwt>
</event>
<event>
 5    0  0.1324511E+000  0.2367232E+03  0.7546771E-02  0.1121995E+00
         21   -1    0    0  504  501  0.00000000000E+00  0.00000000000E+00  0.39069921885E+03  0.39069921885E+03  0.00000000000E+00 0.  1.
         21   -1    0    0  501  502 -0.00000000000E+00 -0.00000000000E+00 -0.16487811817E+03  0.16487811817E+03  0.00000000000E+00 0.  1.
         25    1    1    2    0    0 -0.19807311639E+03 -0.34349711763E+02 -0.17779847618E+02  0.23738994317E+03  0.12500000000E+03 0.  0.
         21    1    1    2  503  502  0.14235686557E+03  0.12813781914E+02  0.19125120332E+03  0.23876074417E+03  0.00000000000E+00 0.  1.
         21    1    1    2  504  503  0.55716250821E+02  0.21535929850E+02  0.52349744979E+02  0.79426649680E+02  0.00000000000E+00 0.  1.
<mgrwt>
<rscale>  4 0.23672318E+03</rscale>
<asrwt>0</asrwt>
<pdfrwt beam="1">  1       21 0.60107572E-01 0.23672318E+03</pdfrwt>
<pdfrwt beam="2">  1       21 0.25365864E-01 0.23672318E+03</pdfrwt>
<totfact> 0.37209615E+04</totfact>
</mgrwt>
</event>
<event>
 5    0  0.1324511E+000  0.2971010E+03  0.7546771E-02  0.1086699E+00
         21   -1    0    0  504  501  0.00000000000E+00  0.00000000000E+00  0.35573504426E+03  0.35573504426E+03  0.00000000000E+00 0. -1.
         21   -1    0    0  501  502 -0.00000000000E+00 -0.00000000000E+00 -0.69214719110E+03  0.69214719110E+03  0.00000000000E+00 0. -1.
         25    1    1    2    0    0 -0.26607350697E+03 -0.54953801187E+02  0.18460450495E+03  0.35145249269E+03  0.12500000000E+03 0.  0.
         21    1    1    2  503  502  0.17216350885E+02 -0.49252615961E+02  0.45322352960E+02  0.69111059857E+02  0.00000000000E+00 0. -1.
         21    1    1    2  504  503  0.24885715608E+03  0.10420641715E+03 -0.56633900475E+03  0.62731868281E+03  0.00000000000E+00 0. -1.
<mgrwt>
<rscale>  4 0.29710104E+03</rscale>
<asrwt>0</asrwt>
<pdfrwt beam="1">  1       21 0.54728468E-01 0.29710104E+03</pdfrwt>
<pdfrwt beam="2">  1       21 0.10648418E+00 0.29710104E+03</pdfrwt>
<totfact> 0.20610568E+03</totfact>
</mgrwt>
</event>
<event>
 5    0  0.1324511E+000  0.3409981E+03  0.7546771E-02  0.1066372E+00
         21   -1    0    0  504  501  0.00000000000E+00  0.00000000000E+00  0.71384228115E+03  0.71384228115E+03  0.00000000000E+00 0.  1.
         21   -1    0    0  501  502 -0.00000000000E+00 -0.00000000000E+00 -0.11730204824E+04  0.11730204824E+04  0.00000000000E+00 0. -1.
         25    1    1    2    0    0  0.33738286529E+02  0.31706352188E+03 -0.10909173800E+04  0.11434129958E+04  0.12500000000E+03 0.  0.
         21    1    1    2  503  502  0.55417000112E+02 -0.29039225937E+03  0.51869978003E+03  0.59703280480E+03  0.00000000000E+00 0.  1.
         21    1    1    2  504  503 -0.89155286641E+02 -0.26671262505E+02  0.11303939875E+03  0.14641696298E+03  0.00000000000E+00 0.  1.
<mgrwt>
<rscale>  4 0.34099810E+03</rscale>
<asrwt>0</asrwt>
<pdfrwt beam="1">  1       21 0.10982189E+00 0.34099810E+03</pdfrwt>
<pdfrwt beam="2">  1       21 0.18046469E+00 0.34099810E+03</pdfrwt>
<totfact> 0.10155038E+02</totfact>
</mgrwt>
</event>
<event>
 5    0  0.1324511E+000  0.2688574E+03  0.7546771E-02  0.1101935E+00
         21   -1    0    0  504  501  0.00000000000E+00  0.00000000000E+00  0.13260615010E+03  0.13260615010E+03  0.00000000000E+00 0. -1.
         21   -1    0    0  501  502 -0.00000000000E+00 -0.00000000000E+00 -0.75491752642E+03  0.75491752642E+03  0.00000000000E+00 0. -1.
         25    1    1    2    0    0  0.21588690292E+03  0.10026041651E+03 -0.58323001112E+03  0.64221612549E+03  0.12500000000E+03 0.  0.
         21    1    1    2  503  502 -0.44849843120E+02 -0.14133416856E+02 -0.25090247081E+02  0.53298990595E+02  0.00000000000E+00 0. -1.
         21    1    1    2  504  503 -0.17103705980E+03 -0.86126999659E+02 -0.13991118113E+02  0.19200856043E+03  0.00000000000E+00 0. -1.
<mgrwt>
<rscale>  4 0.26885741E+03</rscale>
<asrwt>0</asrwt>
<pdfrwt beam="1">  1       21 0.20400946E-01 0.26885741E+03</pdfrwt>
<pdfrwt beam="2">  1       21 0.11614116E+00 0.26885741E+03</pdfrwt>
<totfact> 0.12156553E+04</totfact>
</mgrwt>
</event>
<event>
 5    0  0.1324511E+000  0.2375261E+03  0.7546771E-02  0.1121452E+00
         21   -1    0    0  504  501  0.00000000000E+00  0.00000000000E+00  0.71743935566E+03  0.71743935566E+03  0.00000000000E+00 0. -1.
         21   -1    0    0  501  502 -0.00000000000E+00 -0.00000000000E+00 -0.10420739201E+03  0.10420739201E+03  0.00000000000E+00 0. -1.
         25    1    1    2    0    0 -0.20195201589E+03  0.30037523746E+01  0.55903843055E+03  0.60740645871E+03  0.12500000000E+03 0.  0.
         21    1    1    2  503  502  0.56724606752E+02 -0.76279541594E+01  0.36458813452E+02  0.67860973867E+02  0.00000000000E+00 0. -1.
         21    1    1    2  504  503  0.14522740914E+03  0.46242017848E+01  0.17734719648E+02  0.14637931510E+03  0.00000000000E+00 0. -1.
<mgrwt>
<rscale>  4 0.23752608E+03</rscale>
<asrwt>0</asrwt>
<pdfrwt beam="1">  1       21 0.11037528E+00 0.23752608E+03</pdfrwt>
<pdfrwt beam="2">  1       21 0.16031907E-01 0.23752608E+03</pdfrwt>
<totfact> 0.21927269E+04</totfact>
</mgrwt>
</event>
<event>
 5    0  0.1324511E+000  0.3086841E+03  0.7546771E-02  0.1080988E+00
         21   -1    0    0  504  501  0.00000000000E+00  0.00000000000E+00  0.51419689244E+03  0.51419689244E+03  0.00000000000E+00 0. -1.
         21   -1    0    0  501  502 -0.00000000000E+00 -0.00000000000E+00 -0.19056832700E+03  0.19056832700E+03  0.00000000000E+00 0. -1.
         25    1    1    2    0    0  0.27957821495E+03 -0.38053853253E+02  0.22059187333E+03  0.37933869906E+03  0.12500000000E+03 0.  0.
         21    1    1    2  503  502 -0.67947424233E+02 -0.23812289086E+02  0.73637257356E+02  0.10298700521E+03  0.00000000000E+00 0.  1.
         21    1    1    2  504  503 -0.21163079072E+03  0.61866142339E+02  0.29399434746E+02  0.22243951517E+03  0.00000000000E+00 0. -1.
<mgrwt>
<rscale>  4 0.30866432E+03</rscale>
<asrwt>0</asrwt>
<pdfrwt beam="1">  1       21 0.79107213E-01 0.30868408E+03</pdfrwt>
<pdfrwt beam="2">  1       21 0.29318204E-01 0.30868408E+03</pdfrwt>
<totfact> 0.14800052E+04</totfact>
</mgrwt>
</event>
<event>
 5    0  0.1324511E+000  0.2463101E+03  0.7546771E-02  0.1115659E+00
         21   -1    0    0  504  501  0.00000000000E+00  0.00000000000E+00  0.95943228863E+02  0.95943228863E+02  0.00000000000E+00 0. -1.
         21   -1    0    0  501  502 -0.00000000000E+00 -0.00000000000E+00 -0.66673684548E+03  0.66673684548E+03  0.00000000000E+00 0. -1.
         25    1    1    2    0    0 -0.13710217370E+03 -0.16200823420E+03 -0.45436312000E+03  0.51683122854E+03  0.12500000000E+03 0.  0.
         21    1    1    2  503  502  0.36415901697E+02  0.23190178375E+02 -0.36999138822E+02  0.56858056096E+02  0.00000000000E+00 0.  1.
         21    1    1    2  504  503  0.10068627200E+03  0.13881805582E+03 -0.79431357793E+02  0.18899078970E+03  0.00000000000E+00 0. -1.
<mgrwt>
<rscale>  4 0.24631012E+03</rscale>
<asrwt>0</asrwt>
<pdfrwt beam="1">  1       21 0.14760496E-01 0.24631012E+03</pdfrwt>
<pdfrwt beam="2">  1       21 0.10257490E+00 0.24631012E+03</pdfrwt>
<totfact> 0.30343441E+04</totfact>
</mgrwt>
</event>
<event>
 5    0  0.1324511E+000  0.2545787E+03  0.7546771E-02  0.1110445E+00
         21   -1    0    0  504  501  0.00000000000E+00  0.00000000000E+00  0.48544793887E+03  0.48544793887E+03  0.00000000000E+00 0. -1.
         21   -1    0    0  501  502 -0.00000000000E+00 -0.00000000000E+00 -0.14662039612E+03  0.14662039612E+03  0.00000000000E+00 0. -1.
         25    1    1    2    0    0  0.42250975633E+02 -0.22123721756E+03  0.63409555442E+02  0.26528630401E+03  0.12500000000E+03 0.  0.
         21    1    1    2  503  502 -0.17217974362E+02  0.21582538310E+03  0.24951021651E+03  0.33035193775E+03  0.00000000000E+00 0. -1.
         21    1    1    2  504  503 -0.25033001271E+02  0.54118344569E+01  0.25907770802E+02  0.36430093230E+02  0.00000000000E+00 0.  1.
<mgrwt>
<rscale>  4 0.25457869E+03</rscale>
<asrwt>0</asrwt>
<pdfrwt beam="1">  1       21 0.74684298E-01 0.25457869E+03</pdfrwt>
<pdfrwt beam="2">  1       21 0.22556984E-01 0.25457869E+03</pdfrwt>
<totfact> 0.28639509E+04</totfact>
</mgrwt>
</event>
<event>
 5    0  0.1324511E+000  0.3822910E+03  0.7546771E-02  0.1050090E+00
         21   -1    0    0  504  501  0.00000000000E+00  0.00000000000E+00  0.74733840335E+03  0.74733840335E+03  0.00000000000E+00 0. -1.
         21   -1    0    0  501  502 -0.00000000000E+00 -0.00000000000E+00 -0.70999698575E+03  0.70999698575E+03  0.00000000000E+00 0.  1.
         25    1    1    2    0    0  0.11443927843E+03 -0.34802493645E+03 -0.55358443917E+03  0.67549865739E+03  0.12500000000E+03 0.  0.
         21    1    1    2  503  502 -0.22826916900E+01  0.32347261903E+03  0.58302614933E+03  0.66675275534E+03  0.00000000000E+00 0. -1.
         21    1    1    2  504  503 -0.11215658674E+03  0.24552317423E+02  0.78997074465E+01  0.11508397637E+03  0.00000000000E+00 0. -1.
<mgrwt>
<rscale>  4 0.38229098E+03</rscale>
<asrwt>0</asrwt>
<pdfrwt beam="1">  1       21 0.11497514E+00 0.38229098E+03</pdfrwt>
<pdfrwt beam="2">  1       21 0.10923031E+00 0.38229098E+03</pdfrwt>
<totfact> 0.33417394E+02</totfact>
</mgrwt>
</event>
<event>
 5    0  0.1324511E+000  0.2508169E+03  0.7546771E-02  0.1112790E+00
         21   -1    0    0  504  501  0.00000000000E+00  0.00000000000E+00  0.31317735343E+03  0.31317735343E+03  0.00000000000E+00 0.  1.
         21   -1    0    0  501  502 -0.00000000000E+00 -0.00000000000E+00 -0.22118647667E+03  0.22118647667E+03  0.00000000000E+00 0.  1.
         25    1    1    2    0    0  0.16489365210E+03  0.14175409622E+03 -0.55315762518E+02  0.25684425997E+03  0.12500000000E+03 0.  0.
         21    1    1    2  503  502 -0.77557653822E+01 -0.53598363547E+02  0.24301645351E+02  0.59359131044E+02  0.00000000000E+00 0.  1.
         21    1    1    2  504  503 -0.15713788672E+03 -0.88155732675E+02  0.12300499393E+03  0.21816043907E+03  0.00000000000E+00 0.  1.
<mgrwt>
<rscale>  4 0.25081695E+03</rscale>
<asrwt>0</asrwt>
<pdfrwt beam="1">  1       21 0.48181132E-01 0.25081695E+03</pdfrwt>
<pdfrwt beam="2">  1       21 0.34028689E-01 0.25081695E+03</pdfrwt>
<totfact> 0.33286781E+04</totfact>
</mgrwt>
</event>
<event>
 5    0  0.1324511E+000  0.3468469E+03  0.7546771E-02  0.1063917E+00
         21   -1    0    0  504  501  0.00000000000E+00  0.00000000000E+00  0.11209864380E+04  0.11209864380E+04  0.00000000000E+00 0.  1.
         21   -1    0    0  501  502 -0.00000000000E+00 -0.00000000000E+00 -0.20510979155E+03  0.20510979155E+03  0.00000000000E+00 0. -1.
         25    1    1    2    0    0 -0.12010691012E+02 -0.31638424954E+03  0.16777775628E+02  0.34080748790E+03  0.12500000000E+03 0.  0.
         21    1    1    2  503  502 -0.50121406591E+01  0.35724930065E+03  0.82379192770E+03  0.89793391990E+03  0.00000000000E+00 0.  1.
         21    1    1    2  504  503  0.17022831672E+02 -0.40865051109E+02  0.75306943151E+02  0.87354821773E+02  0.00000000000E+00 0.  1.
<mgrwt>
<rscale>  4 0.34684692E+03</rscale>
<asrwt>0</asrwt>
<pdfrwt beam="1">  1       21 0.17245945E+00 0.34684692E+03</pdfrwt>
<pdfrwt beam="2">  1       21 0.31555353E-01 0.34684692E+03</pdfrwt>
<totfact> 0.17657732E+03</totfact>
</mgrwt>
</event>
<event>
 5    0  0.1324511E+000  0.2470164E+03  0.7546771E-02  0.1115205E+00
         21   -1    0    0  504  501  0.00000000000E+00  0.00000000000E+00  0.10721231597E+03  0.10721231597E+03  0.00000000000E+00 0.  1.
         21   -1    0    0  501  502 -0.00000000000E+00 -0.00000000000E+00 -0.51062989605E+03  0.51062989605E+03  0.00000000000E+00 0.  1.
         25    1    1    2    0    0 -0.14907659161E+03  0.15221121596E+03 -0.17933137101E+03  0.30524879207E+03  0.12500000000E+03 0.  0.
         21    1    1    2  503  502  0.33759061218E+02 -0.11043896353E+02 -0.32438670174E+02  0.48103109916E+02  0.00000000000E+00 0.  1.
         21    1    1    2  504  503  0.11531753039E+03 -0.14116731961E+03 -0.19164753889E+03  0.26449031004E+03  0.00000000000E+00 0.  1.
<mgrwt>
<rscale>  4 0.24701636E+03</rscale>
<asrwt>0</asrwt>
<pdfrwt beam="1">  1       21 0.16494202E-01 0.24701636E+03</pdfrwt>
<pdfrwt beam="2">  1       21 0.78558446E-01 0.24701636E+03</pdfrwt>
<totfact> 0.46072587E+04</totfact>
</mgrwt>
</event>
<event>
 5    0  0.1324511E+000  0.3501143E+03  0.7546771E-02  0.1062568E+00
         21   -1    0    0  504  501  0.00000000000E+00  0.00000000000E+00  0.55210252681E+03  0.55210252681E+03  0.00000000000E+00 0. -1.
         21   -1    0    0  501  502 -0.00000000000E+00 -0.00000000000E+00 -0.34516493387E+03  0.34516493387E+03  0.00000000000E+00 0. -1.
         25    1    1    2    0    0  0.25639904552E+03 -0.20301362317E+03 -0.16942662505E+03  0.38895421711E+03  0.12500000000E+03 0.  0.
         21    1    1    2  503  502 -0.77561387573E+02  0.71039504905E+02  0.19455043852E+03  0.22116114765E+03  0.00000000000E+00 0. -1.
         21    1    1    2  504  503 -0.17883765795E+03  0.13197411826E+03  0.18181377946E+03  0.28715209592E+03  0.00000000000E+00 0. -1.
<mgrwt>
<rscale>  4 0.35011427E+03</rscale>
<asrwt>0</asrwt>
<pdfrwt beam="1">  1       21 0.84938850E-01 0.35011427E+03</pdfrwt>
<pdfrwt beam="2">  1       21 0.53102297E-01 0.35011427E+03</pdfrwt>
<totfact> 0.36625017E+03</totfact>
</mgrwt>
</event>
<event>
 5    0  0.1324511E+000  0.4696216E+03  0.7546771E-02  0.1022027E+00
         21   -1    0    0  504  501  0.00000000000E+00  0.00000000000E+00  0.76345890159E+03  0.76345890159E+03  0.00000000000E+00 0.  1.
         21   -1    0    0  501  502 -0.00000000000E+00 -0.00000000000E+00 -0.80633725303E+03  0.80633725303E+03  0.00000000000E+00 0.  1.
         25    1    1    2    0    0 -0.43491915527E+03 -0.17427296301E+03 -0.60891334799E+03  0.77841261720E+03  0.12500000000E+03 0.  0.
         21    1    1    2  503  502  0.28384809503E+03  0.25372369369E+03  0.41858241333E+03  0.56582390418E+03  0.00000000000E+00 0.  1.
         21    1    1    2  504  503  0.15107106025E+03 -0.79450730678E+02  0.14745258323E+03  0.22555963324E+03  0.00000000000E+00 0.  1.
<mgrwt>
<rscale>  4 0.46962163E+03</rscale>
<asrwt>0</asrwt>
<pdfrwt beam="1">  1       21 0.11745522E+00 0.46962163E+03</pdfrwt>
<pdfrwt beam="2">  1       21 0.12405189E+00 0.46962163E+03</pdfrwt>
<totfact> 0.21982065E+02</totfact>
</mgrwt>
</event>
<event>
 5    0  0.1324511E+000  0.2725693E+03  0.7546771E-02  0.1099818E+00
         21   -1    0    0  504  501  0.00000000000E+00  0.00000000000E+00  0.79128844375E+02  0.79128844375E+02  0.00000000000E+00 0.  1.
         21   -1    0    0  501  502 -0.00000000000E+00 -0.00000000000E+00 -0.31657746353E+04  0.31657746353E+04  0.00000000000E+00 0.  1.
         25    1    1    2    0    0 -0.11063494456E+03 -0.21667575145E+03 -0.29300706241E+04  0.29428094288E+04  0.12500000000E+03 0.  0.
         21    1    1    2  503  502  0.12520753141E+03  0.19534776897E+03 -0.13505042735E+03  0.26847028642E+03  0.00000000000E+00 0.  1.
         21    1    1    2  504  503 -0.14572586841E+02  0.21327982475E+02 -0.21524739455E+02  0.33623764398E+02  0.00000000000E+00 0. -1.
<mgrwt>
<rscale>  4 0.27256930E+03</rscale>
<asrwt>0</asrwt>
<pdfrwt beam="1">  1       21 0.12173667E-01 0.27256930E+03</pdfrwt>
<pdfrwt beam="2">  1       21 0.48704229E+00 0.27256930E+03</pdfrwt>
<totfact> 0.11805954E+02</totfact>
</mgrwt>
</event>
<event>
 5    0  0.1324511E+000  0.3921322E+03  0.7546771E-02  0.1046539E+00
         21   -1    0    0  504  501  0.00000000000E+00  0.00000000000E+00  0.11392841180E+03  0.11392841180E+03  0.00000000000E+00 0.  1.
         21   -1    0    0  501  502 -0.00000000000E+00 -0.00000000000E+00 -0.13393456227E+04  0.13393456227E+04  0.00000000000E+00 0.  1.
         25    1    1    2    0    0 -0.19682252300E+03 -0.31528335199E+03 -0.48350232464E+03  0.62252887125E+03  0.12500000000E+03 0.  0.
         21    1    1    2  503  502  0.20830847526E+02  0.16899834227E+02 -0.42828790856E+02  0.50535472014E+02  0.00000000000E+00 0. -1.
         21    1    1    2  504  503  0.17599167548E+03  0.29838351776E+03 -0.69908609536E+03  0.78020969119E+03  0.00000000000E+00 0.  1.
<mgrwt>
<rscale>  4 0.39213225E+03</rscale>
<asrwt>0</asrwt>
<pdfrwt beam="1">  1       21 0.17527449E-01 0.39213225E+03</pdfrwt>
<pdfrwt beam="2">  1       21 0.20605316E+00 0.39213225E+03</pdfrwt>
<totfact> 0.31629436E+03</totfact>
</mgrwt>
</event>
<event>
 5    0  0.1324511E+000  0.4239935E+03  0.7546771E-02  0.1036584E+00
         21   -1    0    0  504  501  0.00000000000E+00  0.00000000000E+00  0.10061158981E+04  0.10061158981E+04  0.00000000000E+00 0.  1.
         21   -1    0    0  501  502 -0.00000000000E+00 -0.00000000000E+00 -0.36151880694E+03  0.36151880694E+03  0.00000000000E+00 0. -1.
         25    1    1    2    0    0 -0.17061438867E+03  0.35595521838E+03 -0.17134676077E+03  0.44810500950E+03  0.12500000000E+03 0.  0.
         21    1    1    2  503  502  0.19932297838E+03 -0.29087806629E+03  0.66693407359E+03  0.75441418178E+03  0.00000000000E+00 0.  1.
         21    1    1    2  504  503 -0.28708589708E+02 -0.65077152086E+02  0.14900977836E+03  0.16511551379E+03  0.00000000000E+00 0.  1.
<mgrwt>
<rscale>  4 0.42148576E+03</rscale>
<asrwt>0</asrwt>
<pdfrwt beam="1">  1       21 0.15478706E+00 0.42399350E+03</pdfrwt>
<pdfrwt beam="2">  1       21 0.55618278E-01 0.42399350E+03</pdfrwt>
<totfact> 0.71064529E+02</totfact>
</mgrwt>
</event>
<event>
 5    0  0.1324511E+000  0.2757082E+03  0.7546771E-02  0.1098056E+00
         21   -1    0    0  504  501  0.00000000000E+00  0.00000000000E+00  0.28294868501E+03  0.28294868501E+03  0.00000000000E+00 0. -1.
         21   -1    0    0  501  502 -0.00000000000E+00 -0.00000000000E+00 -0.48422166944E+03  0.48422166944E+03  0.00000000000E+00 0.  1.
         25    1    1    2    0    0 -0.48309228981E+02  0.24094857132E+03 -0.36071876706E+03  0.45401874910E+03  0.12500000000E+03 0.  0.
         21    1    1    2  503  502  0.69673888558E+02 -0.90965216562E+02  0.93644796475E+02  0.14798131395E+03  0.00000000000E+00 0. -1.
         21    1    1    2  504  503 -0.21364659577E+02 -0.14998335476E+03  0.65800986156E+02  0.16517029141E+03  0.00000000000E+00 0. -1.
<mgrwt>
<rscale>  4 0.27570817E+03</rscale>
<asrwt>0</asrwt>
<pdfrwt beam="1">  1       21 0.43530567E-01 0.27570817E+03</pdfrwt>
<pdfrwt beam="2">  1       21 0.74495642E-01 0.27570817E+03</pdfrwt>
<totfact> 0.77762814E+03</totfact>
</mgrwt>
</event>
<event>
 5    0  0.1324511E+000  0.3009074E+03  0.7546771E-02  0.1084788E+00
         21   -1    0    0  504  501  0.00000000000E+00  0.00000000000E+00  0.34388064027E+03  0.34388064027E+03  0.00000000000E+00 0.  1.
         21   -1    0    0  501  502 -0.00000000000E+00 -0.00000000000E+00 -0.78828432892E+03  0.78828432892E+03  0.00000000000E+00 0. -1.
         25    1    1    2    0    0 -0.21052834644E+03 -0.17492314282E+03 -0.69205035756E+03  0.75463831598E+03  0.12500000000E+03 0.  0.
         21    1    1    2  503  502  0.11950262878E+02  0.38716042579E+02  0.16533337942E+02  0.43761764125E+02  0.00000000000E+00 0. -1.
         21    1    1    2  504  503  0.19857808357E+03  0.13620710024E+03  0.23111333097E+03  0.33376488908E+03  0.00000000000E+00 0.  1.
<mgrwt>
<rscale>  4 0.30090745E+03</rscale>
<asrwt>0</asrwt>
<pdfrwt beam="1">  1       21 0.52904715E-01 0.30090745E+03</pdfrwt>
<pdfrwt beam="2">  1       21 0.12127451E+00 0.30090745E+03</pdfrwt>
<totfact> 0.16027618E+03</totfact>
</mgrwt>
</event>
<event>
 5    0  0.1324511E+000  0.2730618E+03  0.7546771E-02  0.1099540E+00
         21   -1    0    0  504  501  0.00000000000E+00  0.00000000000E+00  0.15896891747E+03  0.15896891747E+03  0.00000000000E+00 0. -1.
         21   -1    0    0  501  502 -0.00000000000E+00 -0.00000000000E+00 -0.50641034605E+03  0.50641034605E+03  0.00000000000E+00 0. -1.
         25    1    1    2    0    0 -0.10383333406E+03  0.22202826695E+03 -0.85581893467E+02  0.28814436152E+03  0.12500000000E+03 0.  0.
         21    1    1    2  503  502 -0.24738782850E+02 -0.18883038277E+02 -0.30915782318E+02  0.43867551878E+02  0.00000000000E+00 0. -1.
         21    1    1    2  504  503  0.12857211691E+03 -0.20314522867E+03 -0.23094375279E+03  0.33336735013E+03  0.00000000000E+00 0. -1.
<mgrwt>
<rscale>  4 0.27306176E+03</rscale>
<asrwt>0</asrwt>
<pdfrwt beam="1">  1       21 0.24456757E-01 0.27306176E+03</pdfrwt>
<pdfrwt beam="2">  1       21 0.77909284E-01 0.27306176E+03</pdfrwt>
<totfact> 0.22123029E+04</totfact>
</mgrwt>
</event>
<event>
 5    0  0.1324511E+000  0.3022066E+03  0.7546771E-02  0.1084143E+00
         21   -1    0    0  504  501  0.00000000000E+00  0.00000000000E+00  0.83377479623E+02  0.83377479623E+02  0.00000000000E+00 0.  1.
         21   -1    0    0  501  502 -0.00000000000E+00 -0.00000000000E+00 -0.30565730476E+04  0.30565730476E+04  0.00000000000E+00 0. -1.
         25    1    1    2    0    0 -0.22055917513E+03  0.16066001530E+03 -0.26835092904E+04  0.27002416747E+04  0.12500000000E+03 0.  0.
         21    1    1    2  503  502 -0.10240006816E+01  0.30772744187E+02 -0.47887516652E+01  0.31159950332E+02  0.00000000000E+00 0. -1.
         21    1    1    2  504  503  0.22158317581E+03 -0.19143275949E+03 -0.28489752598E+03  0.40854890224E+03  0.00000000000E+00 0.  1.
<mgrwt>
<rscale>  4 0.30220662E+03</rscale>
<asrwt>0</asrwt>
<pdfrwt beam="1">  1       21 0.12827305E-01 0.30220662E+03</pdfrwt>
<pdfrwt beam="2">  1       21 0.47024198E+00 0.30220662E+03</pdfrwt>
<totfact> 0.13558583E+02</totfact>
</mgrwt>
</event>
<event>
 5    0  0.1324511E+000  0.3338386E+03  0.7546771E-02  0.1069451E+00
         21   -1    0    0  504  501  0.00000000000E+00  0.00000000000E+00  0.45118488204E+03  0.45118488204E+03  0.00000000000E+00 0. -1.
         21   -1    0    0  501  502 -0.00000000000E+00 -0.00000000000E+00 -0.31242353790E+03  0.31242353790E+03  0.00000000000E+00 0. -1.
         25    1    1    2    0    0  0.56971823000E+02 -0.30426535955E+03 -0.11953005964E+03  0.35459220634E+03  0.12500000000E+03 0.  0.
         21    1    1    2  503  502 -0.15950698861E+02  0.22551697068E+02  0.52254797429E+01  0.28112443390E+02  0.00000000000E+00 0.  1.
         21    1    1    2  504  503 -0.41021124140E+02  0.28171366248E+03  0.25306592404E+03  0.38090377021E+03  0.00000000000E+00 0. -1.
<mgrwt>
<rscale>  4 0.33383858E+03</rscale>
<asrwt>0</asrwt>
<pdfrwt beam="1">  1       21 0.69413059E-01 0.33383858E+03</pdfrwt>
<pdfrwt beam="2">  1       21 0.48065160E-01 0.33383858E+03</pdfrwt>
<totfact> 0.72136208E+03</totfact>
</mgrwt>
</event>
<event>
 5    0  0.1324511E+000  0.2411121E+03  0.7546771E-02  0.1119054E+00
         21   -1    0    0  504  501  0.00000000000E+00  0.00000000000E+00  0.26463138537E+03  0.26463138537E+03  0.00000000000E+00 0. -1.
         21   -1    0    0  501  502 -0.00000000000E+00 -0.00000000000E+00 -0.31181033897E+03  0.31181033897E+03  0.00000000000E+00 0.  1.
         25    1    1    2    0    0  0.10380407645E+03 -0.17814255868E+03 -0.20167758961E+03  0.31433884210E+03  0.12500000000E+03 0.  0.
         21    1    1    2  503  502 -0.77533475279E+02  0.86918672730E+02  0.77923894510E+02  0.14013717848E+03  0.00000000000E+00 0. -1.
         21    1    1    2  504  503 -0.26270601174E+02  0.91223885954E+02  0.76574741509E+02  0.12196570375E+03  0.00000000000E+00 0. -1.
<mgrwt>
<rscale>  4 0.24111213E+03</rscale>
<asrwt>0</asrwt>
<pdfrwt beam="1">  1       21 0.40712521E-01 0.24111213E+03</pdfrwt>
<pdfrwt beam="2">  1       21 0.47970821E-01 0.24111213E+03</pdfrwt>
<totfact> 0.23518318E+04</totfact>
</mgrwt>
</event>
<event>
 5    0  0.1324511E+000  0.2463343E+03  0.7546771E-02  0.1115644E+00
         21   -1    0    0  504  501  0.00000000000E+00  0.00000000000E+00  0.67918697204E+03  0.67918697204E+03  0.00000000000E+00 0.  1.
         21   -1    0    0  501  502 -0.00000000000E+00 -0.00000000000E+00 -0.80633183620E+02  0.80633183620E+02  0.00000000000E+00 0.  1.
         25    1    1    2    0    0 -0.10741230128E+03 -0.18307976675E+03  0.31485336662E+03  0.39976648925E+03  0.12500000000E+03 0.  0.
         21    1    1    2  503  502  0.78957265214E+02  0.17214257461E+03  0.22656876113E+03  0.29529767904E+03  0.00000000000E+00 0.  1.
         21    1    1    2  504  503  0.28455036067E+02  0.10937192136E+02  0.57131660670E+02  0.64755987371E+02  0.00000000000E+00 0.  1.
<mgrwt>
<rscale>  4 0.24633433E+03</rscale>
<asrwt>0</asrwt>
<pdfrwt beam="1">  1       21 0.10449030E+00 0.24633433E+03</pdfrwt>
<pdfrwt beam="2">  1       21 0.12405106E-01 0.24633433E+03</pdfrwt>
<totfact> 0.39793035E+04</totfact>
</mgrwt>
</event>
<event>
 5    0  0.1324511E+000  0.3032299E+03  0.7546771E-02  0.1083637E+00
         21   -1    0    0  504  501  0.00000000000E+00  0.00000000000E+00  0.19202454933E+04  0.19202454933E+04  0.00000000000E+00 0. -1.
         21   -1    0    0  501  502 -0.00000000000E+00 -0.00000000000E+00 -0.14221540012E+03  0.14221540012E+03  0.00000000000E+00 0.  1.
         25    1    1    2    0    0  0.17978639014E+03 -0.20976231992E+03  0.45668706546E+02  0.30664964975E+03  0.12500000000E+03 0.  0.
         21    1    1    2  503  502  0.28203797141E+01  0.21226933572E+02  0.19891435890E+03  0.20006363844E+03  0.00000000000E+00 0. -1.
         21    1    1    2  504  503 -0.18260676985E+03  0.18853538635E+03  0.15334470277E+04  0.15557476052E+04  0.00000000000E+00 0. -1.
<mgrwt>
<rscale>  4 0.30322991E+03</rscale>
<asrwt>0</asrwt>
<pdfrwt beam="1">  1       21 0.29542237E+00 0.30322991E+03</pdfrwt>
<pdfrwt beam="2">  1       21 0.21879294E-01 0.30322991E+03</pdfrwt>
<totfact> 0.62664443E+02</totfact>
</mgrwt>
</event>
<event>
 5    0  0.1324511E+000  0.2366954E+03  0.7546771E-02  0.1122014E+00
         21   -1    0    0  504  501  0.00000000000E+00  0.00000000000E+00  0.18137149025E+04  0.18137149025E+04  0.00000000000E+00 0.  1.
         21   -1    0    0  501  502 -0.00000000000E+00 -0.00000000000E+00 -0.41184418362E+02  0.41184418362E+02  0.00000000000E+00 0.  1.
         25    1    1    2    0    0 -0.18386108438E+03  0.81208342350E+02  0.41205704983E+03  0.47520070027E+03  0.12500000000E+03 0.  0.
         21    1    1    2  503  502  0.63829445785E+02 -0.81170203449E+02  0.47267835829E+03  0.48382603327E+03  0.00000000000E+00 0.  1.
         21    1    1    2  504  503  0.12003163860E+03 -0.38138901321E-01  0.88779507606E+03  0.89587258737E+03  0.00000000000E+00 0.  1.
<mgrwt>
<rscale>  4 0.23669536E+03</rscale>
<asrwt>0</asrwt>
<pdfrwt beam="1">  1       21 0.27903300E+00 0.23669536E+03</pdfrwt>
<pdfrwt beam="2">  1       21 0.63360658E-02 0.23669536E+03</pdfrwt>
<totfact> 0.77571636E+03</totfact>
</mgrwt>
</event>
<event>
 5    0  0.1324511E+000  0.2928515E+03  0.7546771E-02  0.1088870E+00
         21   -1    0    0  504  501  0.00000000000E+00  0.00000000000E+00  0.86789617469E+03  0.86789617469E+03  0.00000000000E+00 0.  1.
         21   -1    0    0  501  502 -0.00000000000E+00 -0.00000000000E+00 -0.10704100013E+03  0.10704100013E+03  0.00000000000E+00 0. -1.
         25    1    1    2    0    0  0.66823921064E+02 -0.25626460699E+03  0.21734518740E+03  0.36469290603E+03  0.12500000000E+03 0.  0.
         21    1    1    2  503  502 -0.47024342172E+02  0.22647278951E+03  0.51480229734E+03  0.56437808115E+03  0.00000000000E+00 0.  1.
         21    1    1    2  504  503 -0.19799578893E+02  0.29791817487E+02  0.28707689819E+02  0.45866187636E+02  0.00000000000E+00 0.  1.
<mgrwt>
<rscale>  4 0.29285147E+03</rscale>
<asrwt>0</asrwt>
<pdfrwt beam="1">  1       21 0.13352248E+00 0.29285147E+03</pdfrwt>
<pdfrwt beam="2">  1       21 0.16467847E-01 0.29285147E+03</pdfrwt>
<totfact> 0.12598014E+04</totfact>
</mgrwt>
</event>
<event>
 5    0  0.1324511E+000  0.2528404E+03  0.7546771E-02  0.1111523E+00
         21   -1    0    0  504  501  0.00000000000E+00  0.00000000000E+00  0.71094454586E+03  0.71094454586E+03  0.00000000000E+00 0.  1.
         21   -1    0    0  501  502 -0.00000000000E+00 -0.00000000000E+00 -0.20194968075E+03  0.20194968075E+03  0.00000000000E+00 0.  1.
         25    1    1    2    0    0  0.17986886672E+02 -0.21904279017E+03 -0.94503747762E+02  0.26992449010E+03  0.12500000000E+03 0.  0.
         21    1    1    2  503  502 -0.17875368566E+02  0.19683030860E+03  0.56436831675E+03  0.59797432732E+03  0.00000000000E+00 0.  1.
         21    1    1    2  504  503 -0.11151810583E+00  0.22212481570E+02  0.39130296120E+02  0.44995409191E+02  0.00000000000E+00 0. -1.
<mgrwt>
<rscale>  4 0.25284041E+03</rscale>
<asrwt>0</asrwt>
<pdfrwt beam="1">  1       21 0.10937608E+00 0.25284041E+03</pdfrwt>
<pdfrwt beam="2">  1       21 0.31069182E-01 0.25284041E+03</pdfrwt>
<totfact> 0.63217503E+03</totfact>
</mgrwt>
</event>
<event>
 5    0  0.1324511E+000  0.2508616E+03  0.7546771E-02  0.1112762E+00
         21   -1    0    0  504  501  0.00000000000E+00  0.00000000000E+00  0.12988553706E+03  0.12988553706E+03  0.00000000000E+00 0.  1.
         21   -1    0    0  501  502 -0.00000000000E+00 -0.00000000000E+00 -0.81589337606E+03  0.81589337606E+03  0.00000000000E+00 0.  1.
         25    1    1    2    0    0 -0.24190988265E+03  0.63963189469E+02 -0.48105300690E+03  0.55646084892E+03  0.12500000000E+03 0.  0.
         21    1    1    2  503  502  0.13970497572E+03 -0.13565177851E+03 -0.17294403162E+03  0.26043909715E+03  0.00000000000E+00 0.  1.
         21    1    1    2  504  503  0.10220490693E+03  0.71688589036E+02 -0.32010800476E+02  0.12887896704E+03  0.00000000000E+00 0.  1.
<mgrwt>
<rscale>  4 0.25086161E+03</rscale>
<asrwt>0</asrwt>
<pdfrwt beam="1">  1       21 0.19982391E-01 0.25086161E+03</pdfrwt>
<pdfrwt beam="2">  1       21 0.12552206E+00 0.25086161E+03</pdfrwt>
<totfact> 0.10509082E+04</totfact>
</mgrwt>
</event>
<event>
 5    0  0.1324511E+000  0.2603566E+03  0.7546771E-02  0.1106929E+00
         21   -1    0    0  504  501  0.00000000000E+00  0.00000000000E+00  0.38742163214E+03  0.38742163214E+03  0.00000000000E+00 0. -1.
         21   -1    0    0  501  502 -0.00000000000E+00 -0.00000000000E+00 -0.19969625009E+03  0.19969625009E+03  0.00000000000E+00 0.  1.
         25    1    1    2    0    0  0.15676798447E+03 -0.19538752885E+03  0.60451966494E+02  0.28641216391E+03  0.12500000000E+03 0.  0.
         21    1    1    2  503  502 -0.18142295927E+02  0.28303548032E+02 -0.19291055899E+02  0.38760528510E+02  0.00000000000E+00 0. -1.
         21    1    1    2  504  503 -0.13862568854E+03  0.16708398082E+03  0.14656447146E+03  0.26194518981E+03  0.00000000000E+00 0. -1.
<mgrwt>
<rscale>  4 0.26035664E+03</rscale>
<asrwt>0</asrwt>
<pdfrwt beam="1">  1       21 0.59603328E-01 0.26035664E+03</pdfrwt>
<pdfrwt beam="2">  1       21 0.30722500E-01 0.26035664E+03</pdfrwt>
<totfact> 0.25834803E+04</totfact>
</mgrwt>
</event>
<event>
 5    0  0.1324511E+000  0.3389159E+03  0.7546771E-02  0.1067259E+00
         21   -1    0    0  504  501  0.00000000000E+00  0.00000000000E+00  0.89795355096E+03  0.89795355096E+03  0.00000000000E+00 0. -1.
         21   -1    0    0  501  502 -0.00000000000E+00 -0.00000000000E+00 -0.15323364734E+04  0.15323364734E+04  0.00000000000E+00 0. -1.
         25    1    1    2    0    0  0.18015731799E+03 -0.25886925789E+03 -0.14670391358E+04  0.15057552185E+04  0.12500000000E+03 0.  0.
         21    1    1    2  503  502 -0.19303498338E+03  0.22946885663E+03  0.83973295201E+03  0.89166691744E+03  0.00000000000E+00 0. -1.
         21    1    1    2  504  503  0.12877665389E+02  0.29400401266E+02 -0.70767385947E+01  0.32867888427E+02  0.00000000000E+00 0. -1.
<mgrwt>
<rscale>  4 0.33891592E+03</rscale>
<asrwt>0</asrwt>
<pdfrwt beam="1">  1       21 0.13814670E+00 0.33891592E+03</pdfrwt>
<pdfrwt beam="2">  1       21 0.23574407E+00 0.33891592E+03</pdfrwt>
<totfact> 0.24863184E+01</totfact>
</mgrwt>
</event>
<event>
 5    0  0.1324511E+000  0.2412896E+03  0.7546771E-02  0.1118937E+00
         21   -1    0    0  504  501  0.00000000000E+00  0.00000000000E+00  0.75113238439E+03  0.75113238439E+03  0.00000000000E+00 0.  1.
         21   -1    0    0  501  502 -0.00000000000E+00 -0.00000000000E+00 -0.80227538794E+02  0.80227538794E+02  0.00000000000E+00 0.  1.
         25    1    1    2    0    0  0.18286424036E+03  0.10597472708E+03  0.38922822218E+03  0.46021036725E+03  0.12500000000E+03 0.  0.
         21    1    1    2  503  502  0.45861792610E+01 -0.25295145234E+02  0.80820396341E+02  0.84810458537E+02  0.00000000000E+00 0.  1.
         21    1    1    2  504  503 -0.18745041962E+03 -0.80679581843E+02  0.20085622707E+03  0.28633909739E+03  0.00000000000E+00 0.  1.
<mgrwt>
<rscale>  4 0.24128962E+03</rscale>
<asrwt>0</asrwt>
<pdfrwt beam="1">  1       21 0.11555882E+00 0.24128962E+03</pdfrwt>
<pdfrwt beam="2">  1       21 0.12342699E-01 0.24128962E+03</pdfrwt>
<totfact> 0.31491283E+04</totfact>
</mgrwt>
</event>
<event>
 5    0  0.1324511E+000  0.2903232E+03  0.7546771E-02  0.1090181E+00
         21   -1    0    0  504  501  0.00000000000E+00  0.00000000000E+00  0.35378566680E+03  0.35378566680E+03  0.00000000000E+00 0. -1.
         21   -1    0    0  501  502 -0.00000000000E+00 -0.00000000000E+00 -0.72738453284E+03  0.72738453284E+03  0.00000000000E+00 0.  1.
         25    1    1    2    0    0  0.26072462471E+03 -0.26176366275E+02 -0.63946891420E+03  0.70228770764E+03  0.12500000000E+03 0.  0.
         21    1    1    2  503  502 -0.22997911385E+03  0.27853230296E+01  0.21358570155E+03  0.31387418297E+03  0.00000000000E+00 0. -1.
         21    1    1    2  504  503 -0.30745510860E+02  0.23391043245E+02  0.52284346605E+02  0.65008309023E+02  0.00000000000E+00 0. -1.
<mgrwt>
<rscale>  4 0.29032315E+03</rscale>
<asrwt>0</asrwt>
<pdfrwt beam="1">  1       21 0.54428565E-01 0.29032315E+03</pdfrwt>
<pdfrwt beam="2">  1       21 0.11190531E+00 0.29032315E+03</pdfrwt>
<totfact> 0.18542049E+03</totfact>
</mgrwt>
</event>
<event>
 5    0  0.1324511E+000  0.3517091E+03  0.7546771E-02  0.1061916E+00
         21   -1    0    0  504  501  0.00000000000E+00  0.00000000000E+00  0.17103426114E+03  0.17103426114E+03  0.00000000000E+00 0. -1.
         21   -1    0    0  501  502 -0.00000000000E+00 -0.00000000000E+00 -0.11590745350E+04  0.11590745350E+04  0.00000000000E+00 0.  1.
         25    1    1    2    0    0  0.31124740212E+03  0.56434127730E+02 -0.69204222163E+03  0.77110776978E+03  0.12500000000E+03 0.  0.
         21    1    1    2  503  502 -0.33416898740E+03  0.21636831054E+02 -0.10427759544E+03  0.35072907138E+03  0.00000000000E+00 0. -1.
         21    1    1    2  504  503  0.22921585283E+02 -0.78070958784E+02 -0.19172045678E+03  0.20827195496E+03  0.00000000000E+00 0. -1.
<mgrwt>
<rscale>  4 0.35170909E+03</rscale>
<asrwt>0</asrwt>
<pdfrwt beam="1">  1       21 0.26312963E-01 0.35170909E+03</pdfrwt>
<pdfrwt beam="2">  1       21 0.17831916E+00 0.35170909E+03</pdfrwt>
<totfact> 0.22881374E+03</totfact>
</mgrwt>
</event>
<event>
 5    0  0.1324511E+000  0.2791374E+03  0.7546771E-02  0.1096161E+00
         21   -1    0    0  504  501  0.00000000000E+00  0.00000000000E+00  0.89307122915E+03  0.89307122915E+03  0.00000000000E+00 0. -1.
         21   -1    0    0  501  502 -0.00000000000E+00 -0.00000000000E+00 -0.16048818094E+03  0.16048818094E+03  0.00000000000E+00 0. -1.
         25    1    1    2    0    0  0.23434688593E+03 -0.91677892212E+02  0.70062648877E+01  0.28106473741E+03  0.12500000000E+03 0.  0.
         21    1    1    2  503  502 -0.33358021195E+01  0.24228814836E+02  0.66079367858E+02  0.70460243404E+02  0.00000000000E+00 0.  1.
         21    1    1    2  504  503 -0.23101108381E+03  0.67449077376E+02  0.65949741546E+03  0.70203442927E+03  0.00000000000E+00 0. -1.
<mgrwt>
<rscale>  4 0.27913745E+03</rscale>
<asrwt>0</asrwt>
<pdfrwt beam="1">  1       21 0.13739557E+00 0.27913745E+03</pdfrwt>
<pdfrwt beam="2">  1       21 0.24690490E-01 0.27913745E+03</pdfrwt>
<totfact> 0.54881782E+03</totfact>
</mgrwt>
</event>
<event>
 5    0  0.1324511E+000  0.2828947E+03  0.7546771E-02  0.1094118E+00
         21   -1    0    0  504  501  0.00000000000E+00  0.00000000000E+00  0.18794934304E+03  0.18794934304E+03  0.00000000000E+00 0.  1.
         21   -1    0    0  501  502 -0.00000000000E+00 -0.00000000000E+00 -0.52134443294E+03  0.52134443294E+03  0.00000000000E+00 0.  1.
         25    1    1    2    0    0 -0.87157319092E+02 -0.25402111169E+03 -0.83707862933E+02  0.30782321188E+03  0.12500000000E+03 0.  0.
         21    1    1    2  503  502  0.12108933058E+03  0.20774368352E+03 -0.14148910157E+03  0.27899682773E+03  0.00000000000E+00 0.  1.
         21    1    1    2  504  503 -0.33932011490E+02  0.46277428167E+02 -0.10819812539E+03  0.12247373637E+03  0.00000000000E+00 0.  1.
<mgrwt>
<rscale>  4 0.28289469E+03</rscale>
<asrwt>0</asrwt>
<pdfrwt beam="1">  1       21 0.28915284E-01 0.28289469E+03</pdfrwt>
<pdfrwt beam="2">  1       21 0.80206834E-01 0.28289469E+03</pdfrwt>
<totfact> 0.14899683E+04</totfact>
</mgrwt>
</event>
<event>
 5    0  0.1324511E+000  0.2726952E+03  0.7546771E-02  0.1099747E+00
         21   -1    0    0  504  501  0.00000000000E+00  0.00000000000E+00  0.40077747263E+03  0.40077747263E+03  0.00000000000E+00 0.  1.
         21   -1    0    0  501  502 -0.00000000000E+00 -0.00000000000E+00 -0.32196708022E+03  0.32196708022E+03  0.00000000000E+00 0.  1.
         25    1    1    2    0    0  0.22586722155E+03 -0.87872927539E+02 -0.20967843214E+03  0.34398793303E+03  0.12500000000E+03 0.  0.
         21    1    1    2  503  502 -0.18915200830E+03  0.82492925373E+02  0.26020153368E+03  0.33209697847E+03  0.00000000000E+00 0.  1.
         21    1    1    2  504  503 -0.36715213242E+02  0.53800021656E+01  0.28287290863E+02  0.46659641352E+02  0.00000000000E+00 0.  1.
<mgrwt>
<rscale>  4 0.27269517E+03</rscale>
<asrwt>0</asrwt>
<pdfrwt beam="1">  1       21 0.61658073E-01 0.27269517E+03</pdfrwt>
<pdfrwt beam="2">  1       21 0.49533397E-01 0.27269517E+03</pdfrwt>
<totfact> 0.90461334E+03</totfact>
</mgrwt>
</event>
<event>
 5    0  0.1324511E+000  0.2706819E+03  0.7546771E-02  0.1100890E+00
         21   -1    0    0  504  501  0.00000000000E+00  0.00000000000E+00  0.25290245722E+03  0.25290245722E+03  0.00000000000E+00 0.  1.
         21   -1    0    0  501  502 -0.00000000000E+00 -0.00000000000E+00 -0.69664403228E+03  0.69664403228E+03  0.00000000000E+00 0.  1.
         25    1    1    2    0    0 -0.60570619910E+02  0.23232495006E+03 -0.59384455458E+03  0.65262549554E+03  0.12500000000E+03 0.  0.
         21    1    1    2  503  502  0.71572386978E+02 -0.16736459093E+03  0.14133629012E+03  0.23045489749E+03  0.00000000000E+00 0.  1.
         21    1    1    2  504  503 -0.11001767068E+02 -0.64960359138E+02  0.87666894062E+01  0.66466096479E+02  0.00000000000E+00 0.  1.
<mgrwt>
<rscale>  4 0.27068188E+03</rscale>
<asrwt>0</asrwt>
<pdfrwt beam="1">  1       21 0.38908071E-01 0.27068188E+03</pdfrwt>
<pdfrwt beam="2">  1       21 0.10717600E+00 0.27068188E+03</pdfrwt>
<totfact> 0.41922026E+03</totfact>
</mgrwt>
</event>
<event>
 5    0  0.1324511E+000  0.2895371E+03  0.7546771E-02  0.1090591E+00
         21   -1    0    0  504  501  0.00000000000E+00  0.00000000000E+00  0.32071628270E+03  0.32071628270E+03  0.00000000000E+00 0. -1.
         21   -1    0    0  501  502 -0.00000000000E+00 -0.00000000000E+00 -0.24649979960E+03  0.24649979960E+03  0.00000000000E+00 0. -1.
         25    1    1    2    0    0  0.86952387816E+02 -0.24626411714E+03  0.65137355694E+01  0.28961036220E+03  0.12500000000E+03 0.  0.
         21    1    1    2  503  502 -0.22368648878E+02  0.15583041514E+03  0.30030061524E+02  0.16026627634E+03  0.00000000000E+00 0. -1.
         21    1    1    2  504  503 -0.64583738938E+02  0.90433702005E+02  0.37672686001E+02  0.11733944377E+03  0.00000000000E+00 0. -1.
<mgrwt>
<rscale>  4 0.28953710E+03</rscale>
<asrwt>0</asrwt>
<pdfrwt beam="1">  1       21 0.49340967E-01 0.28953710E+03</pdfrwt>
<pdfrwt beam="2">  1       21 0.37923046E-01 0.28953710E+03</pdfrwt>
<totfact> 0.25074693E+04</totfact>
</mgrwt>
</event>
<event>
 5    0  0.1324511E+000  0.2452941E+03  0.7546771E-02  0.1116315E+00
         21   -1    0    0  504  501  0.00000000000E+00  0.00000000000E+00  0.13673377808E+03  0.13673377808E+03  0.00000000000E+00 0. -1.
         21   -1    0    0  501  502 -0.00000000000E+00 -0.00000000000E+00 -0.43769947896E+03  0.43769947896E+03  0.00000000000E+00 0.  1.
         25    1    1    2    0    0  0.11963262009E+03  0.17387418159E+03 -0.24746542036E+03  0.34843698008E+03  0.12500000000E+03 0.  0.
         21    1    1    2  503  502 -0.95633666395E+02 -0.16186457666E+03 -0.30117429652E+02  0.19040220296E+03  0.00000000000E+00 0. -1.
         21    1    1    2  504  503 -0.23998953695E+02 -0.12009604936E+02 -0.23382850873E+02  0.35594074003E+02  0.00000000000E+00 0.  1.
<mgrwt>
<rscale>  4 0.24529410E+03</rscale>
<asrwt>0</asrwt>
<pdfrwt beam="1">  1       21 0.21035965E-01 0.24529410E+03</pdfrwt>
<pdfrwt beam="2">  1       21 0.67338383E-01 0.24529410E+03</pdfrwt>
<totfact> 0.41325611E+04</totfact>
</mgrwt>
</event>
<event>
 5    0  0.1324511E+000  0.2424990E+03  0.7546771E-02  0.1118139E+00
         21   -1    0    0  504  501  0.00000000000E+00  0.00000000000E+00  0.85297386649E+02  0.85297386649E+02  0.00000000000E+00 0. -1.
         21   -1    0    0  501  502 -0.00000000000E+00 -0.00000000000E+00 -0.70233225454E+03  0.70233225454E+03  0.00000000000E+00 0. -1.
         25    1    1    2    0    0 -0.19049231818E+03 -0.83026714400E+02 -0.44600461388E+03  0.50766708993E+03  0.12500000000E+03 0.  0.
         21    1    1    2  503  502  0.15061020180E+03  0.74135197192E+02 -0.93065935371E+02  0.19193938803E+03  0.00000000000E+00 0. -1.
         21    1    1    2  504  503  0.39882116380E+02  0.88915172082E+01 -0.77964318644E+02  0.88023163241E+02  0.00000000000E+00 0. -1.
<mgrwt>
<rscale>  4 0.24249899E+03</rscale>
<asrwt>0</asrwt>
<pdfrwt beam="1">  1       21 0.13122676E-01 0.24249899E+03</pdfrwt>
<pdfrwt beam="2">  1       21 0.10805111E+00 0.24249899E+03</pdfrwt>
<totfact> 0.33201494E+04</totfact>
</mgrwt>
</event>
<event>
 5    0  0.1324511E+000  0.3209261E+03  0.7546771E-02  0.1075224E+00
         21   -1    0    0  504  501  0.00000000000E+00  0.00000000000E+00  0.24813994642E+04  0.24813994642E+04  0.00000000000E+00 0. -1.
         21   -1    0    0  501  502 -0.00000000000E+00 -0.00000000000E+00 -0.74658528792E+02  0.74658528792E+02  0.00000000000E+00 0.  1.
         25    1    1    2    0    0 -0.14140168706E+03 -0.29371485860E+03  0.47092868967E+03  0.58622665072E+03  0.12500000000E+03 0.  0.
         21    1    1    2  503  502  0.27274477462E+02  0.27362465522E+02  0.57344633934E+02  0.69144838428E+02  0.00000000000E+00 0.  1.
         21    1    1    2  504  503  0.11412720960E+03  0.26635239308E+03  0.18784676118E+04  0.19006865039E+04  0.00000000000E+00 0. -1.
<mgrwt>
<rscale>  4 0.32092608E+03</rscale>
<asrwt>0</asrwt>
<pdfrwt beam="1">  1       21 0.38175370E+00 0.32092608E+03</pdfrwt>
<pdfrwt beam="2">  1       21 0.11485929E-01 0.32092608E+03</pdfrwt>
<totfact> 0.61499068E+02</totfact>
</mgrwt>
</event>
<event>
 5    0  0.1324511E+000  0.2547497E+03  0.7546771E-02  0.1110339E+00
         21   -1    0    0  504  501  0.00000000000E+00  0.00000000000E+00  0.10159370799E+03  0.10159370799E+03  0.00000000000E+00 0. -1.
         21   -1    0    0  501  502 -0.00000000000E+00 -0.00000000000E+00 -0.15180798191E+04  0.15180798191E+04  0.00000000000E+00 0. -1.
         25    1    1    2    0    0 -0.17686417511E+03 -0.21944686084E+03 -0.11554389260E+04  0.11958687105E+04  0.12500000000E+03 0.  0.
         21    1    1    2  503  502  0.45270824587E+02  0.13516694040E+03 -0.31289030273E+02  0.14594023691E+03  0.00000000000E+00 0. -1.
         21    1    1    2  504  503  0.13159335052E+03  0.84279920446E+02 -0.22975815489E+03  0.27786457966E+03  0.00000000000E+00 0. -1.
<mgrwt>
<rscale>  4 0.25474966E+03</rscale>
<asrwt>0</asrwt>
<pdfrwt beam="1">  1       21 0.15629801E-01 0.25474966E+03</pdfrwt>
<pdfrwt beam="2">  1       21 0.23355074E+00 0.25474966E+03</pdfrwt>
<totfact> 0.28585988E+03</totfact>
</mgrwt>
</event>
<event>
 5    0  0.1324511E+000  0.2530328E+03  0.7546771E-02  0.1111403E+00
         21   -1    0    0  504  501  0.00000000000E+00  0.00000000000E+00  0.50090463632E+03  0.50090463632E+03  0.00000000000E+00 0.  1.
         21   -1    0    0  501  502 -0.00000000000E+00 -0.00000000000E+00 -0.11757021381E+04  0.11757021381E+04  0.00000000000E+00 0. -1.
         25    1    1    2    0    0  0.21426566513E+03 -0.45590528618E+02 -0.10989125617E+04  0.11274848513E+04  0.12500000000E+03 0.  0.
         21    1    1    2  503  502 -0.23475661473E+03  0.97690344726E+02  0.42250144048E+03  0.49311412352E+03  0.00000000000E+00 0.  1.
         21    1    1    2  504  503  0.20490949596E+02 -0.52099816108E+02  0.16136194391E+01  0.56007799649E+02  0.00000000000E+00 0. -1.
<mgrwt>
<rscale>  4 0.25303285E+03</rscale>
<asrwt>0</asrwt>
<pdfrwt beam="1">  1       21 0.77062252E-01 0.25303285E+03</pdfrwt>
<pdfrwt beam="2">  1       21 0.18087725E+00 0.25303285E+03</pdfrwt>
<totfact> 0.25095763E+02</totfact>
</mgrwt>
</event>
<event>
 5    0  0.1324511E+000  0.2449908E+03  0.7546771E-02  0.1116512E+00
         21   -1    0    0  504  501  0.00000000000E+00  0.00000000000E+00  0.11511979796E+04  0.11511979796E+04  0.00000000000E+00 0. -1.
         21   -1    0    0  501  502 -0.00000000000E+00 -0.00000000000E+00 -0.31195897688E+03  0.31195897688E+03  0.00000000000E+00 0.  1.
         25    1    1    2    0    0 -0.67993525928E+02  0.19943008304E+03 -0.25189697795E+03  0.35138663191E+03  0.12500000000E+03 0.  0.
         21    1    1    2  503  502  0.74393318113E+01 -0.24022273451E+02  0.84076238250E+02  0.87756635748E+02  0.00000000000E+00 0. -1.
         21    1    1    2  504  503  0.60554194117E+02 -0.17540780959E+03  0.10070597424E+04  0.10240136888E+04  0.00000000000E+00 0. -1.
<mgrwt>
<rscale>  4 0.24499077E+03</rscale>
<asrwt>0</asrwt>
<pdfrwt beam="1">  1       21 0.17710738E+00 0.24499077E+03</pdfrwt>
<pdfrwt beam="2">  1       21 0.47993689E-01 0.24499077E+03</pdfrwt>
<totfact> 0.74943571E+02</totfact>
</mgrwt>
</event>
<event>
 5    0  0.1324511E+000  0.3891519E+03  0.7546771E-02  0.1048806E+00
         21   -1    0    0  504  501  0.00000000000E+00  0.00000000000E+00  0.50903339529E+03  0.50903339529E+03  0.00000000000E+00 0.  1.
         21   -1    0    0  501  502 -0.00000000000E+00 -0.00000000000E+00 -0.51431612376E+03  0.51431612376E+03  0.00000000000E+00 0.  1.
         25    1    1    2    0    0 -0.10830021240E+03  0.33763675364E+03 -0.34237406939E+03  0.50850026234E+03  0.12500000000E+03 0.  0.
         21    1    1    2  503  502  0.74971522411E+02 -0.10843265637E+03  0.39242429452E+02  0.13754395083E+03  0.00000000000E+00 0.  1.
         21    1    1    2  504  503  0.33328689991E+02 -0.22920409727E+03  0.29784891147E+03  0.37730530588E+03  0.00000000000E+00 0.  1.
<mgrwt>
<rscale>  4 0.38581339E+03</rscale>
<asrwt>0</asrwt>
<pdfrwt beam="1">  1       21 0.78312830E-01 0.38915188E+03</pdfrwt>
<pdfrwt beam="2">  1       21 0.79125558E-01 0.38915188E+03</pdfrwt>
<totfact> 0.17963367E+03</totfact>
</mgrwt>
</event>
<event>
 5    0  0.1324511E+000  0.2408648E+03  0.7546771E-02  0.1119218E+00
         21   -1    0    0  504  501  0.00000000000E+00  0.00000000000E+00  0.45845742235E+02  0.45845742235E+02  0.00000000000E+00 0.  1.
         21   -1    0    0  501  502 -0.00000000000E+00 -0.00000000000E+00 -0.13881225046E+04  0.13881225046E+04  0.00000000000E+00 0.  1.
         25    1    1    2    0    0  0.12672272968E+03  0.16227192991E+03 -0.10283040258E+04  0.10561368278E+04  0.12500000000E+03 0.  0.
         21    1    1    2  503  502 -0.94310162264E+02 -0.13560250872E+03 -0.22175016960E+03  0.27650603031E+03  0.00000000000E+00 0.  1.
         21    1    1    2  504  503 -0.32412567420E+02 -0.26669421184E+02 -0.92222566922E+02  0.10132538874E+03  0.00000000000E+00 0. -1.
<mgrwt>
<rscale>  4 0.24086475E+03</rscale>
<asrwt>0</asrwt>
<pdfrwt beam="1">  1       21 0.70531912E-02 0.24086475E+03</pdfrwt>
<pdfrwt beam="2">  1       21 0.21355731E+00 0.24086475E+03</pdfrwt>
<totfact> 0.15876699E+04</totfact>
</mgrwt>
</event>
<event>
 5    0  0.1324511E+000  0.2856908E+03  0.7546771E-02  0.1092621E+00
         21   -1    0    0  504  501  0.00000000000E+00  0.00000000000E+00  0.50812493319E+02  0.50812493319E+02  0.00000000000E+00 0.  1.
         21   -1    0    0  501  502 -0.00000000000E+00 -0.00000000000E+00 -0.16852900253E+04  0.16852900253E+04  0.00000000000E+00 0.  1.
         25    1    1    2    0    0  0.20908411823E+03  0.16181368002E+03 -0.99641432636E+03  0.10384441946E+04  0.12500000000E+03 0.  0.
         21    1    1    2  503  502 -0.18627694072E+03 -0.17129484269E+03 -0.53730954197E+03  0.59392134637E+03  0.00000000000E+00 0.  1.
         21    1    1    2  504  503 -0.22807177511E+02  0.94811626758E+01 -0.10075366366E+03  0.10373697766E+03  0.00000000000E+00 0.  1.
<mgrwt>
<rscale>  4 0.28569085E+03</rscale>
<asrwt>0</asrwt>
<pdfrwt beam="1">  1       21 0.78173065E-02 0.28569085E+03</pdfrwt>
<pdfrwt beam="2">  1       21 0.25927539E+00 0.28569085E+03</pdfrwt>
<totfact> 0.67763012E+03</totfact>
</mgrwt>
</event>
<event>
 5    0  0.1324511E+000  0.2439643E+03  0.7546771E-02  0.1117180E+00
         21   -1    0    0  504  501  0.00000000000E+00  0.00000000000E+00  0.28861656507E+03  0.28861656507E+03  0.00000000000E+00 0.  1.
         21   -1    0    0  501  502 -0.00000000000E+00 -0.00000000000E+00 -0.21852940248E+03  0.21852940248E+03  0.00000000000E+00 0.  1.
         25    1    1    2    0    0  0.61191681099E+02  0.20037255106E+03 -0.59611841123E+02  0.25114169836E+03  0.12500000000E+03 0.  0.
         21    1    1    2  503  502  0.13491000060E+02 -0.38924774444E+02  0.12769343682E+02  0.43130050848E+02  0.00000000000E+00 0.  1.
         21    1    1    2  504  503 -0.74682681159E+02 -0.16144777662E+03  0.11692966003E+03  0.21287421834E+03  0.00000000000E+00 0.  1.
<mgrwt>
<rscale>  4 0.24396430E+03</rscale>
<asrwt>0</asrwt>
<pdfrwt beam="1">  1       21 0.44402549E-01 0.24396430E+03</pdfrwt>
<pdfrwt beam="2">  1       21 0.33619908E-01 0.24396430E+03</pdfrwt>
<totfact> 0.40509493E+04</totfact>
</mgrwt>
</event>
<event>
 5    0  0.1324511E+000  0.2758099E+03  0.7546771E-02  0.1098000E+00
         21   -1    0    0  504  501  0.00000000000E+00  0.00000000000E+00  0.30861250013E+03  0.30861250013E+03  0.00000000000E+00 0.  1.
         21   -1    0    0  501  502 -0.00000000000E+00 -0.00000000000E+00 -0.23892032459E+03  0.23892032459E+03  0.00000000000E+00 0.  1.
         25    1    1    2    0    0 -0.17843930370E+03 -0.16913157551E+03 -0.32800957010E+02  0.27775344772E+03  0.12500000000E+03 0.  0.
         21    1    1    2  503  502  0.37656779200E+02  0.19848806294E+02  0.58611186464E+01  0.42969301167E+02  0.00000000000E+00 0.  1.
         21    1    1    2  504  503  0.14078252450E+03  0.14928276922E+03  0.96632013900E+02  0.22681007583E+03  0.00000000000E+00 0.  1.
<mgrwt>
<rscale>  4 0.27580985E+03</rscale>
<asrwt>0</asrwt>
<pdfrwt beam="1">  1       21 0.47478846E-01 0.27580985E+03</pdfrwt>
<pdfrwt beam="2">  1       21 0.36756973E-01 0.27580985E+03</pdfrwt>
<totfact> 0.29106750E+04</totfact>
</mgrwt>
</event>
<event>
 5    0  0.1324511E+000  0.3132823E+03  0.7546771E-02  0.1078783E+00
         21   -1    0    0  504  501  0.00000000000E+00  0.00000000000E+00  0.22396641241E+03  0.22396641241E+03  0.00000000000E+00 0. -1.
         21   -1    0    0  501  502 -0.00000000000E+00 -0.00000000000E+00 -0.99893664184E+03  0.99893664184E+03  0.00000000000E+00 0.  1.
         25    1    1    2    0    0  0.29406882412E+03  0.42458914475E+02 -0.77657497861E+03  0.84081682318E+03  0.12500000000E+03 0.  0.
         21    1    1    2  503  502 -0.63590487680E+02  0.90269546804E+02  0.30507568890E+02  0.11455589449E+03  0.00000000000E+00 0. -1.
         21    1    1    2  504  503 -0.23047833644E+03 -0.13272846128E+03 -0.28902819709E+02  0.26753033657E+03  0.00000000000E+00 0. -1.
<mgrwt>
<rscale>  4 0.31328227E+03</rscale>
<asrwt>0</asrwt>
<pdfrwt beam="1">  1       21 0.34456371E-01 0.31328227E+03</pdfrwt>
<pdfrwt beam="2">  1       21 0.15368256E+00 0.31328227E+03</pdfrwt>
<totfact> 0.20785071E+03</totfact>
</mgrwt>
</event>
<event>
 5    0  0.1324511E+000  0.3078807E+03  0.7546771E-02  0.1081366E+00
         21   -1    0    0  504  501  0.00000000000E+00  0.00000000000E+00  0.59884907330E+03  0.59884907330E+03  0.00000000000E+00 0.  1.
         21   -1    0    0  501  502 -0.00000000000E+00 -0.00000000000E+00 -0.27252899121E+03  0.27252899121E+03  0.00000000000E+00 0.  1.
         25    1    1    2    0    0 -0.25545609975E+03  0.11793103067E+03 -0.12686549870E+03  0.33299459704E+03  0.12500000000E+03 0.  0.
         21    1    1    2  503  502  0.19996023045E+03 -0.10248323173E+03  0.40554186154E+03  0.46362820018E+03  0.00000000000E+00 0.  1.
         21    1    1    2  504  503  0.55495869304E+02 -0.15447798948E+02  0.47643719253E+02  0.74755267282E+02  0.00000000000E+00 0.  1.
<mgrwt>
<rscale>  4 0.30788073E+03</rscale>
<asrwt>0</asrwt>
<pdfrwt beam="1">  1       21 0.92130626E-01 0.30788073E+03</pdfrwt>
<pdfrwt beam="2">  1       21 0.41927537E-01 0.30788073E+03</pdfrwt>
<totfact> 0.50678164E+03</totfact>
</mgrwt>
</event>
<event>
 5    0  0.1324511E+000  0.2907910E+03  0.7546771E-02  0.1089937E+00
         21   -1    0    0  504  501  0.00000000000E+00  0.00000000000E+00  0.17647970137E+03  0.17647970137E+03  0.00000000000E+00 0. -1.
         21   -1    0    0  501  502 -0.00000000000E+00 -0.00000000000E+00 -0.10667726549E+04  0.10667726549E+04  0.00000000000E+00 0.  1.
         25    1    1    2    0    0  0.34527990323E+03 -0.46173333166E+02 -0.71791236337E+03  0.80769632273E+03  0.12500000000E+03 0.  0.
         21    1    1    2  503  502 -0.15568675912E+03  0.53576185127E+02  0.19389905646E+02  0.16578523161E+03  0.00000000000E+00 0. -1.
         21    1    1    2  504  503 -0.18959314411E+03 -0.74028519612E+01 -0.19177049581E+03  0.26977080193E+03  0.00000000000E+00 0. -1.
<mgrwt>
<rscale>  4 0.29079101E+03</rscale>
<asrwt>0</asrwt>
<pdfrwt beam="1">  1       21 0.27150723E-01 0.29079101E+03</pdfrwt>
<pdfrwt beam="2">  1       21 0.16411887E+00 0.29079101E+03</pdfrwt>
<totfact> 0.28174583E+03</totfact>
</mgrwt>
</event>
<event>
 5    0  0.1324511E+000  0.2457599E+03  0.7546771E-02  0.1116014E+00
         21   -1    0    0  504  501  0.00000000000E+00  0.00000000000E+00  0.58379161404E+03  0.58379161404E+03  0.00000000000E+00 0.  1.
         21   -1    0    0  501  502 -0.00000000000E+00 -0.00000000000E+00 -0.15976406184E+03  0.15976406184E+03  0.00000000000E+00 0.  1.
         25    1    1    2    0    0  0.21144163161E+03 -0.80834626067E+01 -0.22757978905E+02  0.24681132784E+03  0.12500000000E+03 0.  0.
         21    1    1    2  503  502 -0.19300957611E+03  0.21450994947E+02  0.39409371599E+03  0.43934348594E+03  0.00000000000E+00 0.  1.
         21    1    1    2  504  503 -0.18432055498E+02 -0.13367532340E+02  0.52691815109E+02  0.57400862104E+02  0.00000000000E+00 0.  1.
<mgrwt>
<rscale>  4 0.24575985E+03</rscale>
<asrwt>0</asrwt>
<pdfrwt beam="1">  1       21 0.89814093E-01 0.24575985E+03</pdfrwt>
<pdfrwt beam="2">  1       21 0.24579087E-01 0.24575985E+03</pdfrwt>
<totfact> 0.16008823E+04</totfact>
</mgrwt>
</event>
<event>
 5    0  0.1324511E+000  0.2394611E+03  0.7546771E-02  0.1120152E+00
         21   -1    0    0  504  501  0.00000000000E+00  0.00000000000E+00  0.66688173014E+02  0.66688173014E+02  0.00000000000E+00 0.  1.
         21   -1    0    0  501  502 -0.00000000000E+00 -0.00000000000E+00 -0.18706131888E+04  0.18706131888E+04  0.00000000000E+00 0. -1.
         25    1    1    2    0    0  0.12751365013E+03 -0.15955215864E+03 -0.16766086525E+04  0.16936228022E+04  0.12500000000E+03 0.  0.
         21    1    1    2  503  502 -0.12336777141E+03  0.13508171259E+03 -0.11305692874E+03  0.21505474939E+03  0.00000000000E+00 0.  1.
         21    1    1    2  504  503 -0.41458787196E+01  0.24470446052E+02 -0.14259434508E+02  0.28623810243E+02  0.00000000000E+00 0. -1.
<mgrwt>
<rscale>  4 0.23946111E+03</rscale>
<asrwt>0</asrwt>
<pdfrwt beam="1">  1       21 0.10259719E-01 0.23946111E+03</pdfrwt>
<pdfrwt beam="2">  1       21 0.28778666E+00 0.23946111E+03</pdfrwt>
<totfact> 0.29588747E+03</totfact>
</mgrwt>
</event>
<event>
 5    0  0.1324511E+000  0.4167873E+03  0.7546771E-02  0.1038117E+00
         21   -1    0    0  504  501  0.00000000000E+00  0.00000000000E+00  0.33617838986E+04  0.33617838986E+04  0.00000000000E+00 0. -1.
         21   -1    0    0  501  502 -0.00000000000E+00 -0.00000000000E+00 -0.23771114450E+03  0.23771114450E+03  0.00000000000E+00 0.  1.
         25    1    1    2    0    0 -0.23089707450E+03  0.32634721285E+03 -0.22742049000E+02  0.41947367396E+03  0.12500000000E+03 0.  0.
         21    1    1    2  503  502 -0.79493813481E+01 -0.37364833984E+02  0.99904913041E+03  0.99977921985E+03  0.00000000000E+00 0.  1.
         21    1    1    2  504  503  0.23884645585E+03 -0.28898237887E+03  0.21477656727E+04  0.21802421493E+04  0.00000000000E+00 0. -1.
<mgrwt>
<rscale>  4 0.41678733E+03</rscale>
<asrwt>0</asrwt>
<pdfrwt beam="1">  1       21 0.51719749E+00 0.41678733E+03</pdfrwt>
<pdfrwt beam="2">  1       21 0.36570948E-01 0.41678733E+03</pdfrwt>
<totfact> 0.75846391E+00</totfact>
</mgrwt>
</event>
<event>
 5    0  0.1324511E+000  0.2432930E+03  0.7546771E-02  0.1117618E+00
         21   -1    0    0  504  501  0.00000000000E+00  0.00000000000E+00  0.13695081531E+03  0.13695081531E+03  0.00000000000E+00 0. -1.
         21   -1    0    0  501  502 -0.00000000000E+00 -0.00000000000E+00 -0.96510967435E+03  0.96510967435E+03  0.00000000000E+00 0. -1.
         25    1    1    2    0    0 -0.30086969304E+03  0.81226569775E+02 -0.28477755901E+03  0.44027671520E+03  0.12500000000E+03 0.  0.
         21    1    1    2  503  502  0.18663758641E+03 -0.16633641209E+01 -0.46717791647E+03  0.50308206197E+03  0.00000000000E+00 0. -1.
         21    1    1    2  504  503  0.11423210663E+03 -0.79563205654E+02 -0.76203383554E+02  0.15870171248E+03  0.00000000000E+00 0. -1.
<mgrwt>
<rscale>  4 0.24329301E+03</rscale>
<asrwt>0</asrwt>
<pdfrwt beam="1">  1       21 0.21069357E-01 0.24329301E+03</pdfrwt>
<pdfrwt beam="2">  1       21 0.14847841E+00 0.24329301E+03</pdfrwt>
<totfact> 0.61907396E+03</totfact>
</mgrwt>
</event>
<event>
 5    0  0.1324511E+000  0.2495180E+03  0.7546771E-02  0.1113610E+00
         21   -1    0    0  504  501  0.00000000000E+00  0.00000000000E+00  0.10767675050E+03  0.10767675050E+03  0.00000000000E+00 0. -1.
         21   -1    0    0  501  502 -0.00000000000E+00 -0.00000000000E+00 -0.78145260646E+03  0.78145260646E+03  0.00000000000E+00 0. -1.
         25    1    1    2    0    0 -0.10130980043E+03 -0.19071063894E+03 -0.61259601319E+03  0.66146284767E+03  0.12500000000E+03 0.  0.
         21    1    1    2  503  502  0.83412708760E+02  0.14331216608E+03 -0.61901004005E+02  0.17699658535E+03  0.00000000000E+00 0. -1.
         21    1    1    2  504  503  0.17897091672E+02  0.47398472852E+02  0.72116123784E+00  0.50669923944E+02  0.00000000000E+00 0. -1.
<mgrwt>
<rscale>  4 0.24951798E+03</rscale>
<asrwt>0</asrwt>
<pdfrwt beam="1">  1       21 0.16565655E-01 0.24951798E+03</pdfrwt>
<pdfrwt beam="2">  1       21 0.12022347E+00 0.24951798E+03</pdfrwt>
<totfact> 0.16621828E+04</totfact>
</mgrwt>
</event>
<event>
 5    0  0.1324511E+000  0.3370174E+03  0.7546771E-02  0.1068073E+00
         21   -1    0    0  504  501  0.00000000000E+00  0.00000000000E+00  0.15675554142E+03  0.15675554142E+03  0.00000000000E+00 0. -1.
         21   -1    0    0  501  502 -0.00000000000E+00 -0.00000000000E+00 -0.91965490635E+03  0.91965490635E+03  0.00000000000E+00 0. -1.
         25    1    1    2    0    0  0.22437184403E+03  0.21820397856E+03 -0.65023099272E+03  0.73238039607E+03  0.12500000000E+03 0.  0.
         21    1    1    2  503  502 -0.19394238394E+03 -0.16943402540E+03 -0.12337471351E+03  0.28555709970E+03  0.00000000000E+00 0. -1.
         21    1    1    2  504  503 -0.30429460087E+02 -0.48769953156E+02  0.10706341307E+02  0.58472952006E+02  0.00000000000E+00 0. -1.
<mgrwt>
<rscale>  4 0.33701736E+03</rscale>
<asrwt>0</asrwt>
<pdfrwt beam="1">  1       21 0.24116238E-01 0.33701736E+03</pdfrwt>
<pdfrwt beam="2">  1       21 0.14148537E+00 0.33701736E+03</pdfrwt>
<totfact> 0.51590939E+03</totfact>
</mgrwt>
</event>
<event>
 5    0  0.1324511E+000  0.3115182E+03  0.7546771E-02  0.1079620E+00
         21   -1    0    0  504  501  0.00000000000E+00  0.00000000000E+00  0.66672488807E+03  0.66672488807E+03  0.00000000000E+00 0. -1.
         21   -1    0    0  501  502 -0.00000000000E+00 -0.00000000000E+00 -0.38521409957E+03  0.38521409957E+03  0.00000000000E+00 0.  1.
         25    1    1    2    0    0  0.26676506810E+03  0.10126694317E+03 -0.27911539808E+03  0.41826905311E+03  0.12500000000E+03 0.  0.
         21    1    1    2  503  502 -0.11334482118E+03 -0.78051265487E+02  0.30544546439E+03  0.33501638803E+03  0.00000000000E+00 0. -1.
         21    1    1    2  504  503 -0.15342024692E+03 -0.23215677684E+02  0.25518072220E+03  0.29865354650E+03  0.00000000000E+00 0. -1.
<mgrwt>
<rscale>  4 0.31151821E+03</rscale>
<asrwt>0</asrwt>
<pdfrwt beam="1">  1       21 0.10257306E+00 0.31151821E+03</pdfrwt>
<pdfrwt beam="2">  1       21 0.59263708E-01 0.31151821E+03</pdfrwt>
<totfact> 0.18861087E+03</totfact>
</mgrwt>
</event>
<event>
 5    0  0.1324511E+000  0.2229193E+03  0.7546771E-02  0.1131725E+00
         21   -1    0    0  504  501  0.00000000000E+00  0.00000000000E+00  0.74472152686E+02  0.74472152686E+02  0.00000000000E+00 0.  1.
         21   -1    0    0  501  502 -0.00000000000E+00 -0.00000000000E+00 -0.93406507129E+03  0.93406507129E+03  0.00000000000E+00 0.  1.
         25    1    1    2    0    0  0.23391894521E+02 -0.20791177269E+03 -0.58448884790E+03  0.63326668890E+03  0.12500000000E+03 0.  0.
         21    1    1    2  503  502 -0.73928017647E+02  0.57118619410E+02 -0.12925409467E+03  0.15948200358E+03  0.00000000000E+00 0.  1.
         21    1    1    2  504  503  0.50536123126E+02  0.15079315328E+03 -0.14584997604E+03  0.21578853150E+03  0.00000000000E+00 0.  1.
<mgrwt>
<rscale>  4 0.22291928E+03</rscale>
<asrwt>0</asrwt>
<pdfrwt beam="1">  1       21 0.11457254E-01 0.22291928E+03</pdfrwt>
<pdfrwt beam="2">  1       21 0.14370232E+00 0.22291928E+03</pdfrwt>
<totfact> 0.20908467E+04</totfact>
</mgrwt>
</event>
<event>
 5    0  0.1324511E+000  0.2484516E+03  0.7546771E-02  0.1114287E+00
         21   -1    0    0  504  501  0.00000000000E+00  0.00000000000E+00  0.10935923819E+04  0.10935923819E+04  0.00000000000E+00 0.  1.
         21   -1    0    0  501  502 -0.00000000000E+00 -0.00000000000E+00 -0.94007540044E+02  0.94007540044E+02  0.00000000000E+00 0. -1.
         25    1    1    2    0    0  0.15932598373E+03 -0.14393891303E+03  0.11073025395E+03  0.27200986915E+03  0.12500000000E+03 0.  0.
         21    1    1    2  503  502 -0.14641797430E+03  0.11121812372E+03  0.76933630834E+03  0.79100319188E+03  0.00000000000E+00 0.  1.
         21    1    1    2  504  503 -0.12908009432E+02  0.32720789309E+02  0.11951827954E+03  0.12458686088E+03  0.00000000000E+00 0. -1.
<mgrwt>
<rscale>  4 0.24845156E+03</rscale>
<asrwt>0</asrwt>
<pdfrwt beam="1">  1       21 0.16824497E+00 0.24845156E+03</pdfrwt>
<pdfrwt beam="2">  1       21 0.14462699E-01 0.24845156E+03</pdfrwt>
<totfact> 0.88393921E+03</totfact>
</mgrwt>
</event>
<event>
 5    0  0.1324511E+000  0.3921412E+03  0.7546771E-02  0.1046535E+00
         21   -1    0    0  504  501  0.00000000000E+00  0.00000000000E+00  0.66766694830E+03  0.66766694830E+03  0.00000000000E+00 0.  1.
         21   -1    0    0  501  502 -0.00000000000E+00 -0.00000000000E+00 -0.28283348827E+03  0.28283348827E+03  0.00000000000E+00 0.  1.
         25    1    1    2    0    0 -0.16936649963E+03  0.33085450383E+03  0.40614479562E+03  0.56456027926E+03  0.12500000000E+03 0.  0.
         21    1    1    2  503  502  0.15552463166E+03 -0.29375562418E+03  0.14288740351E+02  0.33269271993E+03  0.00000000000E+00 0.  1.
         21    1    1    2  504  503  0.13841867969E+02 -0.37098879650E+02 -0.35600075949E+02  0.53247437382E+02  0.00000000000E+00 0. -1.
<mgrwt>
<rscale>  4 0.39214119E+03</rscale>
<asrwt>0</asrwt>
<pdfrwt beam="1">  1       21 0.10271799E+00 0.39214119E+03</pdfrwt>
<pdfrwt beam="2">  1       21 0.43512845E-01 0.39214119E+03</pdfrwt>
<totfact> 0.34820662E+03</totfact>
</mgrwt>
</event>
<event>
 5    0  0.1324511E+000  0.2548091E+03  0.7546771E-02  0.1110303E+00
         21   -1    0    0  504  501  0.00000000000E+00  0.00000000000E+00  0.12381706422E+04  0.12381706422E+04  0.00000000000E+00 0.  1.
         21   -1    0    0  501  502 -0.00000000000E+00 -0.00000000000E+00 -0.69396254899E+02  0.69396254899E+02  0.00000000000E+00 0.  1.
         25    1    1    2    0    0 -0.18690102870E+03 -0.11987774235E+03  0.97940798145E+03  0.10120116905E+04  0.12500000000E+03 0.  0.
         21    1    1    2  503  502  0.17628236839E+03  0.98151352213E+02  0.15994856376E+03  0.25747369651E+03  0.00000000000E+00 0.  1.
         21    1    1    2  504  503  0.10618660320E+02  0.21726390134E+02  0.29417842099E+02  0.38081510067E+02  0.00000000000E+00 0. -1.
<mgrwt>
<rscale>  4 0.25480908E+03</rscale>
<asrwt>0</asrwt>
<pdfrwt beam="1">  1       21 0.19048777E+00 0.25480908E+03</pdfrwt>
<pdfrwt beam="2">  1       21 0.10676348E-01 0.25480908E+03</pdfrwt>
<totfact> 0.10694723E+04</totfact>
</mgrwt>
</event>
<event>
 5    0  0.1324511E+000  0.3307529E+03  0.7546771E-02  0.1070804E+00
         21   -1    0    0  504  501  0.00000000000E+00  0.00000000000E+00  0.34113317174E+03  0.34113317174E+03  0.00000000000E+00 0.  1.
         21   -1    0    0  501  502 -0.00000000000E+00 -0.00000000000E+00 -0.69484319996E+03  0.69484319996E+03  0.00000000000E+00 0.  1.
         25    1    1    2    0    0 -0.22764060472E+03 -0.20482239015E+03 -0.56776293475E+03  0.65707853906E+03  0.12500000000E+03 0.  0.
         21    1    1    2  503  502  0.22203250599E+03  0.18139720654E+03  0.20754581835E+03  0.35394723756E+03  0.00000000000E+00 0.  1.
         21    1    1    2  504  503  0.56080987296E+01  0.23425183610E+02  0.65070881777E+01  0.24950595085E+02  0.00000000000E+00 0.  1.
<mgrwt>
<rscale>  4 0.33075286E+03</rscale>
<asrwt>0</asrwt>
<pdfrwt beam="1">  1       21 0.52482027E-01 0.33075286E+03</pdfrwt>
<pdfrwt beam="2">  1       21 0.10689895E+00 0.33075286E+03</pdfrwt>
<totfact> 0.21908707E+03</totfact>
</mgrwt>
</event>
<event>
 5    0  0.1324511E+000  0.2652833E+03  0.7546771E-02  0.1104010E+00
         21   -1    0    0  504  501  0.00000000000E+00  0.00000000000E+00  0.87324049585E+02  0.87324049585E+02  0.00000000000E+00 0. -1.
         21   -1    0    0  501  502 -0.00000000000E+00 -0.00000000000E+00 -0.13892844066E+04  0.13892844066E+04  0.00000000000E+00 0. -1.
         25    1    1    2    0    0 -0.22444166664E+03  0.66152639782E+02 -0.11814674779E+04  0.12108842367E+04  0.12500000000E+03 0.  0.
         21    1    1    2  503  502  0.20227085076E+02 -0.29781868137E+01 -0.21547827124E+00  0.20446295465E+02  0.00000000000E+00 0. -1.
         21    1    1    2  504  503  0.20421458157E+03 -0.63174452968E+02 -0.12027740084E+03  0.24527792397E+03  0.00000000000E+00 0. -1.
<mgrwt>
<rscale>  4 0.26528331E+03</rscale>
<asrwt>0</asrwt>
<pdfrwt beam="1">  1       21 0.13434470E-01 0.26528331E+03</pdfrwt>
<pdfrwt beam="2">  1       21 0.21373605E+00 0.26528331E+03</pdfrwt>
<totfact> 0.49617871E+03</totfact>
</mgrwt>
</event>
<event>
 5    0  0.1324511E+000  0.3217421E+03  0.7546771E-02  0.1074850E+00
         21   -1    0    0  504  501  0.00000000000E+00  0.00000000000E+00  0.12163189806E+03  0.12163189806E+03  0.00000000000E+00 0. -1.
         21   -1    0    0  501  502 -0.00000000000E+00 -0.00000000000E+00 -0.83845223887E+03  0.83845223887E+03  0.00000000000E+00 0. -1.
         25    1    1    2    0    0 -0.63494102365E+02  0.28958847326E+03 -0.45394580703E+03  0.55640343331E+03  0.12500000000E+03 0.  0.
         21    1    1    2  503  502 -0.55362672450E+01 -0.68030718633E+02 -0.28843338276E+02  0.74099710496E+02  0.00000000000E+00 0. -1.
         21    1    1    2  504  503  0.69030369610E+02 -0.22155775463E+03 -0.23403119550E+03  0.32958099313E+03  0.00000000000E+00 0. -1.
<mgrwt>
<rscale>  4 0.32174211E+03</rscale>
<asrwt>0</asrwt>
<pdfrwt beam="1">  1       21 0.18712600E-01 0.32174211E+03</pdfrwt>
<pdfrwt beam="2">  1       21 0.12899265E+00 0.32174211E+03</pdfrwt>
<totfact> 0.10704635E+04</totfact>
</mgrwt>
</event>
<event>
 5    0  0.1324511E+000  0.3639422E+03  0.7546771E-02  0.1057034E+00
         21   -1    0    0  504  501  0.00000000000E+00  0.00000000000E+00  0.34290064421E+03  0.34290064421E+03  0.00000000000E+00 0. -1.
         21   -1    0    0  501  502 -0.00000000000E+00 -0.00000000000E+00 -0.43482437062E+03  0.43482437062E+03  0.00000000000E+00 0. -1.
         25    1    1    2    0    0  0.31681916173E+03 -0.12827526613E+03 -0.19699985290E+03  0.41383918034E+03  0.12500000000E+03 0.  0.
         21    1    1    2  503  502 -0.29352856085E+03  0.98100473046E+02  0.85744490212E+02  0.32114612943E+03  0.00000000000E+00 0. -1.
         21    1    1    2  504  503 -0.23290600881E+02  0.30174793082E+02  0.19331636274E+02  0.42739705052E+02  0.00000000000E+00 0. -1.
<mgrwt>
<rscale>  4 0.36394220E+03</rscale>
<asrwt>0</asrwt>
<pdfrwt beam="1">  1       21 0.52753945E-01 0.36394220E+03</pdfrwt>
<pdfrwt beam="2">  1       21 0.66896057E-01 0.36394220E+03</pdfrwt>
<totfact> 0.63522947E+03</totfact>
</mgrwt>
</event>
<event>
 5    0  0.1324511E+000  0.3993620E+03  0.7546771E-02  0.1044001E+00
         21   -1    0    0  504  501  0.00000000000E+00  0.00000000000E+00  0.18430676287E+03  0.18430676287E+03  0.00000000000E+00 0. -1.
         21   -1    0    0  501  502 -0.00000000000E+00 -0.00000000000E+00 -0.83725015892E+03  0.83725015892E+03  0.00000000000E+00 0. -1.
         25    1    1    2    0    0 -0.21911529790E+03  0.30960216462E+03 -0.30824647457E+03  0.50448578097E+03  0.12500000000E+03 0.  0.
         21    1    1    2  503  502  0.18307113224E+03 -0.29330071480E+03 -0.30543704522E+03  0.46133733575E+03  0.00000000000E+00 0. -1.
         21    1    1    2  504  503  0.36044165659E+02 -0.16301449818E+02 -0.39259876257E+02  0.55733805073E+02  0.00000000000E+00 0. -1.
<mgrwt>
<rscale>  4 0.39936201E+03</rscale>
<asrwt>0</asrwt>
<pdfrwt beam="1">  1       21 0.28354886E-01 0.39936201E+03</pdfrwt>
<pdfrwt beam="2">  1       21 0.12880772E+00 0.39936201E+03</pdfrwt>
<totfact> 0.46805984E+03</totfact>
</mgrwt>
</event>
<event>
 5    0  0.1324511E+000  0.2451184E+03  0.7546771E-02  0.1116429E+00
         21   -1    0    0  504  501  0.00000000000E+00  0.00000000000E+00  0.84920107697E+03  0.84920107697E+03  0.00000000000E+00 0. -1.
         21   -1    0    0  501  502 -0.00000000000E+00 -0.00000000000E+00 -0.67080800076E+02  0.67080800076E+02  0.00000000000E+00 0. -1.
         25    1    1    2    0    0 -0.19578132279E+03  0.78279554433E+02  0.28985521588E+03  0.37960382133E+03  0.12500000000E+03 0.  0.
         21    1    1    2  503  502  0.17443211441E+03 -0.74750998895E+02  0.46213424365E+03  0.49958215894E+03  0.00000000000E+00 0. -1.
         21    1    1    2  504  503  0.21349208379E+02 -0.35285555377E+01  0.30130817359E+02  0.37095896772E+02  0.00000000000E+00 0.  1.
<mgrwt>
<rscale>  4 0.24511837E+03</rscale>
<asrwt>0</asrwt>
<pdfrwt beam="1">  1       21 0.13064631E+00 0.24511837E+03</pdfrwt>
<pdfrwt beam="2">  1       21 0.10320124E-01 0.24511837E+03</pdfrwt>
<totfact> 0.31834407E+04</totfact>
</mgrwt>
</event>
<event>
 5    0  0.1324511E+000  0.2887417E+03  0.7546771E-02  0.1091008E+00
         21   -1    0    0  504  501  0.00000000000E+00  0.00000000000E+00  0.17298655303E+03  0.17298655303E+03  0.00000000000E+00 0. -1.
         21   -1    0    0  501  502 -0.00000000000E+00 -0.00000000000E+00 -0.69221079923E+03  0.69221079923E+03  0.00000000000E+00 0. -1.
         25    1    1    2    0    0 -0.10079960694E+03 -0.23997125871E+03 -0.52668360775E+03  0.60063914994E+03  0.12500000000E+03 0.  0.
         21    1    1    2  503  502 -0.43496979354E+00  0.32294684212E+02 -0.70794897970E+01  0.33064406888E+02  0.00000000000E+00 0. -1.
         21    1    1    2  504  503  0.10123457673E+03  0.20767657450E+03  0.14538851347E+02  0.23149379543E+03  0.00000000000E+00 0. -1.
<mgrwt>
<rscale>  4 0.28874169E+03</rscale>
<asrwt>0</asrwt>
<pdfrwt beam="1">  1       21 0.26613316E-01 0.28874169E+03</pdfrwt>
<pdfrwt beam="2">  1       21 0.10649397E+00 0.28874169E+03</pdfrwt>
<totfact> 0.89543097E+03</totfact>
</mgrwt>
</event>
<event>
 5    0  0.1324511E+000  0.2874543E+03  0.7546771E-02  0.1091686E+00
         21   -1    0    0  504  501  0.00000000000E+00  0.00000000000E+00  0.52312982376E+02  0.52312982376E+02  0.00000000000E+00 0.  1.
         21   -1    0    0  501  502 -0.00000000000E+00 -0.00000000000E+00 -0.19716641817E+04  0.19716641817E+04  0.00000000000E+00 0.  1.
         25    1    1    2    0    0 -0.14398523163E+03  0.21511216684E+03 -0.46947445955E+03  0.55048729269E+03  0.12500000000E+03 0.  0.
         21    1    1    2  503  502  0.44866046464E+01 -0.27747005333E+02 -0.20091165608E+03  0.20286823181E+03  0.00000000000E+00 0. -1.
         21    1    1    2  504  503  0.13949862698E+03 -0.18736516150E+03 -0.12489650837E+04  0.12706216395E+04  0.00000000000E+00 0.  1.
<mgrwt>
<rscale>  4 0.28745433E+03</rscale>
<asrwt>0</asrwt>
<pdfrwt beam="1">  1       21 0.80481510E-02 0.28745433E+03</pdfrwt>
<pdfrwt beam="2">  1       21 0.30333296E+00 0.28745433E+03</pdfrwt>
<totfact> 0.35334466E+03</totfact>
</mgrwt>
</event>
<event>
 5    0  0.1324511E+000  0.2367838E+03  0.7546771E-02  0.1121954E+00
         21   -1    0    0  504  501  0.00000000000E+00  0.00000000000E+00  0.18818536689E+03  0.18818536689E+03  0.00000000000E+00 0.  1.
         21   -1    0    0  501  502 -0.00000000000E+00 -0.00000000000E+00 -0.37042665685E+03  0.37042665685E+03  0.00000000000E+00 0.  1.
         25    1    1    2    0    0 -0.18873387213E+03  0.89030383831E+02 -0.22771492018E+03  0.33320559510E+03  0.12500000000E+03 0.  0.
         21    1    1    2  503  502  0.16324364852E+03 -0.90512123396E+02  0.17413007446E+02  0.18746772013E+03  0.00000000000E+00 0.  1.
         21    1    1    2  504  503  0.25490223617E+02  0.14817395647E+01  0.28060622783E+02  0.37938708506E+02  0.00000000000E+00 0.  1.
<mgrwt>
<rscale>  4 0.23678384E+03</rscale>
<asrwt>0</asrwt>
<pdfrwt beam="1">  1       21 0.28951595E-01 0.23678384E+03</pdfrwt>
<pdfrwt beam="2">  1       21 0.56988716E-01 0.23678384E+03</pdfrwt>
<totfact> 0.32301712E+04</totfact>
</mgrwt>
</event>
<event>
 5    0  0.1324511E+000  0.2917940E+03  0.7546771E-02  0.1089416E+00
         21   -1    0    0  504  501  0.00000000000E+00  0.00000000000E+00  0.81139056354E+03  0.81139056354E+03  0.00000000000E+00 0. -1.
         21   -1    0    0  501  502 -0.00000000000E+00 -0.00000000000E+00 -0.23271338898E+03  0.23271338898E+03  0.00000000000E+00 0. -1.
         25    1    1    2    0    0 -0.27560487886E+03 -0.16402555567E+03  0.75475276410E+01  0.34430276987E+03  0.12500000000E+03 0.  0.
         21    1    1    2  503  502  0.16791632968E+03  0.19302285469E+03  0.51477933529E+03  0.57484909346E+03  0.00000000000E+00 0. -1.
         21    1    1    2  504  503  0.10768854918E+03 -0.28997299019E+02  0.56350311622E+02  0.12495208919E+03  0.00000000000E+00 0. -1.
<mgrwt>
<rscale>  4 0.29179400E+03</rscale>
<asrwt>0</asrwt>
<pdfrwt beam="1">  1       21 0.12482932E+00 0.29179400E+03</pdfrwt>
<pdfrwt beam="2">  1       21 0.35802060E-01 0.29179400E+03</pdfrwt>
<totfact> 0.33562329E+03</totfact>
</mgrwt>
</event>
<event>
 5    0  0.1324511E+000  0.4514301E+03  0.7546771E-02  0.1027296E+00
         21   -1    0    0  504  501  0.00000000000E+00  0.00000000000E+00  0.11328197108E+04  0.11328197108E+04  0.00000000000E+00 0. -1.
         21   -1    0    0  501  502 -0.00000000000E+00 -0.00000000000E+00 -0.19379654169E+03  0.19379654169E+03  0.00000000000E+00 0. -1.
         25    1    1    2    0    0 -0.41698951245E+03  0.11951524985E+03  0.67059052622E+03  0.80838159448E+03  0.12500000000E+03 0.  0.
         21    1    1    2  503  502  0.29361234810E+02 -0.24530366349E+01  0.50312092444E+02  0.58304426456E+02  0.00000000000E+00 0. -1.
         21    1    1    2  504  503  0.38762827764E+03 -0.11706221321E+03  0.21812055049E+03  0.45993023160E+03  0.00000000000E+00 0. -1.
<mgrwt>
<rscale>  4 0.45143011E+03</rscale>
<asrwt>0</asrwt>
<pdfrwt beam="1">  1       21 0.17427995E+00 0.45143011E+03</pdfrwt>
<pdfrwt beam="2">  1       21 0.29814853E-01 0.45143011E+03</pdfrwt>
<totfact> 0.18250570E+03</totfact>
</mgrwt>
</event>
<event>
 5    0  0.1324511E+000  0.2491613E+03  0.7546771E-02  0.1113836E+00
         21   -1    0    0  504  501  0.00000000000E+00  0.00000000000E+00  0.17735338723E+03  0.17735338723E+03  0.00000000000E+00 0.  1.
         21   -1    0    0  501  502 -0.00000000000E+00 -0.00000000000E+00 -0.54457486019E+03  0.54457486019E+03  0.00000000000E+00 0. -1.
         25    1    1    2    0    0 -0.91624261816E+02 -0.19509314776E+03 -0.42575873160E+03  0.49330704352E+03  0.12500000000E+03 0.  0.
         21    1    1    2  503  502  0.37280936996E+02  0.35548832621E+02  0.48936280928E+01  0.51744906608E+02  0.00000000000E+00 0.  1.
         21    1    1    2  504  503  0.54343324821E+02  0.15954431513E+03  0.53643630547E+02  0.17687629729E+03  0.00000000000E+00 0.  1.
<mgrwt>
<rscale>  4 0.24916128E+03</rscale>
<asrwt>0</asrwt>
<pdfrwt beam="1">  1       21 0.27285136E-01 0.24916128E+03</pdfrwt>
<pdfrwt beam="2">  1       21 0.83780748E-01 0.24916128E+03</pdfrwt>
<totfact> 0.15346855E+04</totfact>
</mgrwt>
</event>
<event>
 5    0  0.1324511E+000  0.2521240E+03  0.7546771E-02  0.1111970E+00
         21   -1    0    0  504  501  0.00000000000E+00  0.00000000000E+00  0.21222092682E+04  0.21222092682E+04  0.00000000000E+00 0. -1.
         21   -1    0    0  501  502 -0.00000000000E+00 -0.00000000000E+00 -0.30354174318E+02  0.30354174318E+02  0.00000000000E+00 0. -1.
         25    1    1    2    0    0 -0.10511106259E+03  0.19207598487E+03  0.72314427310E+03  0.76583559538E+03  0.12500000000E+03 0.  0.
         21    1    1    2  503  502  0.20753129769E+02 -0.14380638182E+02  0.19864090476E+03  0.20023911754E+03  0.00000000000E+00 0.  1.
         21    1    1    2  504  503  0.84357932820E+02 -0.17769534669E+03  0.11700699161E+04  0.11864887296E+04  0.00000000000E+00 0. -1.
<mgrwt>
<rscale>  4 0.25212402E+03</rscale>
<asrwt>0</asrwt>
<pdfrwt beam="1">  1       21 0.32649362E+00 0.25212402E+03</pdfrwt>
<pdfrwt beam="2">  1       21 0.46698746E-02 0.25212402E+03</pdfrwt>
<totfact> 0.68131226E+03</totfact>
</mgrwt>
</event>
<event>
 5    0  0.1324511E+000  0.2746288E+03  0.7546771E-02  0.1098659E+00
         21   -1    0    0  504  501  0.00000000000E+00  0.00000000000E+00  0.28108337534E+03  0.28108337534E+03  0.00000000000E+00 0.  1.
         21   -1    0    0  501  502 -0.00000000000E+00 -0.00000000000E+00 -0.24829349383E+03  0.24829349383E+03  0.00000000000E+00 0.  1.
         25    1    1    2    0    0  0.32870742395E+02 -0.24231275482E+03 -0.30294513425E+01  0.27464547043E+03  0.12500000000E+03 0.  0.
         21    1    1    2  503  502 -0.46307403728E+02  0.22733725912E+03  0.34635928799E+02  0.23457675202E+03  0.00000000000E+00 0.  1.
         21    1    1    2  504  503  0.13436661334E+02  0.14975495693E+02  0.11834040482E+01  0.20154646715E+02  0.00000000000E+00 0. -1.
<mgrwt>
<rscale>  4 0.27462876E+03</rscale>
<asrwt>0</asrwt>
<pdfrwt beam="1">  1       21 0.43243596E-01 0.27462876E+03</pdfrwt>
<pdfrwt beam="2">  1       21 0.38198999E-01 0.27462876E+03</pdfrwt>
<totfact> 0.32704108E+04</totfact>
</mgrwt>
</event>
<event>
 5    0  0.1324511E+000  0.2590987E+03  0.7546771E-02  0.1107686E+00
         21   -1    0    0  504  501  0.00000000000E+00  0.00000000000E+00  0.28823564830E+03  0.28823564830E+03  0.00000000000E+00 0.  1.
         21   -1    0    0  501  502 -0.00000000000E+00 -0.00000000000E+00 -0.27829297214E+03  0.27829297214E+03  0.00000000000E+00 0.  1.
         25    1    1    2    0    0 -0.45416353104E+02  0.22236115674E+03 -0.13397809930E+03  0.29168863579E+03  0.12500000000E+03 0.  0.
         21    1    1    2  503  502  0.44444442859E+02 -0.82101275448E+02  0.66566794781E+02  0.11466065628E+03  0.00000000000E+00 0.  1.
         21    1    1    2  504  503  0.97191024477E+00 -0.14025988129E+03  0.77353980680E+02  0.16017932837E+03  0.00000000000E+00 0.  1.
<mgrwt>
<rscale>  4 0.25909869E+03</rscale>
<asrwt>0</asrwt>
<pdfrwt beam="1">  1       21 0.44343946E-01 0.25909869E+03</pdfrwt>
<pdfrwt beam="2">  1       21 0.42814303E-01 0.25909869E+03</pdfrwt>
<totfact> 0.24768616E+04</totfact>
</mgrwt>
</event>
<event>
 5    0  0.1324511E+000  0.3526049E+03  0.7546771E-02  0.1061551E+00
         21   -1    0    0  504  501  0.00000000000E+00  0.00000000000E+00  0.29934313427E+03  0.29934313427E+03  0.00000000000E+00 0.  1.
         21   -1    0    0  501  502 -0.00000000000E+00 -0.00000000000E+00 -0.98353647036E+03  0.98353647036E+03  0.00000000000E+00 0. -1.
         25    1    1    2    0    0  0.30401729403E+03  0.13804750263E+03 -0.82892416338E+03  0.90234355802E+03  0.12500000000E+03 0.  0.
         21    1    1    2  503  502 -0.26487701140E+03 -0.14573689040E+03  0.15443550468E+03  0.33948401656E+03  0.00000000000E+00 0.  1.
         21    1    1    2  504  503 -0.39140282633E+02  0.76893877720E+01 -0.97046773907E+01  0.41052030062E+02  0.00000000000E+00 0.  1.
<mgrwt>
<rscale>  4 0.35260492E+03</rscale>
<asrwt>0</asrwt>
<pdfrwt beam="1">  1       21 0.46052790E-01 0.35260492E+03</pdfrwt>
<pdfrwt beam="2">  1       21 0.15131330E+00 0.35260492E+03</pdfrwt>
<totfact> 0.11707831E+03</totfact>
</mgrwt>
</event>
<event>
 5    0  0.1324511E+000  0.3069861E+03  0.7546771E-02  0.1081800E+00
         21   -1    0    0  504  501  0.00000000000E+00  0.00000000000E+00  0.40037695055E+03  0.40037695055E+03  0.00000000000E+00 0.  1.
         21   -1    0    0  501  502 -0.00000000000E+00 -0.00000000000E+00 -0.36000154700E+03  0.36000154700E+03  0.00000000000E+00 0.  1.
         25    1    1    2    0    0  0.29967933239E+03 -0.14453225382E+02 -0.16836315278E+03  0.36604337066E+03  0.12500000000E+03 0.  0.
         21    1    1    2  503  502 -0.73574806204E+02 -0.44324705646E+02  0.79068104625E+01  0.86258038989E+02  0.00000000000E+00 0. -1.
         21    1    1    2  504  503 -0.22610452619E+03  0.58777931027E+02  0.20083174587E+03  0.30807708790E+03  0.00000000000E+00 0.  1.
<mgrwt>
<rscale>  4 0.30698607E+03</rscale>
<asrwt>0</asrwt>
<pdfrwt beam="1">  1       21 0.61596454E-01 0.30698607E+03</pdfrwt>
<pdfrwt beam="2">  1       21 0.55384854E-01 0.30698607E+03</pdfrwt>
<totfact> 0.70357617E+03</totfact>
</mgrwt>
</event>
<event>
 5    0  0.1324511E+000  0.2360856E+03  0.7546771E-02  0.1122428E+00
         21   -1    0    0  504  501  0.00000000000E+00  0.00000000000E+00  0.15950094076E+03  0.15950094076E+03  0.00000000000E+00 0. -1.
         21   -1    0    0  501  502 -0.00000000000E+00 -0.00000000000E+00 -0.54344917632E+03  0.54344917632E+03  0.00000000000E+00 0.  1.
         25    1    1    2    0    0  0.64021561003E+02 -0.23005524844E+03 -0.23005380018E+03  0.35436411865E+03  0.12500000000E+03 0.  0.
         21    1    1    2  503  502  0.61923012167E+01  0.18917574462E+03 -0.17836583118E+02  0.19011562441E+03  0.00000000000E+00 0. -1.
         21    1    1    2  504  503 -0.70213862220E+02  0.40879503818E+02 -0.13605785226E+03  0.15847037402E+03  0.00000000000E+00 0.  1.
<mgrwt>
<rscale>  4 0.23608562E+03</rscale>
<asrwt>0</asrwt>
<pdfrwt beam="1">  1       21 0.24538605E-01 0.23608562E+03</pdfrwt>
<pdfrwt beam="2">  1       21 0.83607569E-01 0.23608562E+03</pdfrwt>
<totfact> 0.19045334E+04</totfact>
</mgrwt>
</event>
<event>
 5    0  0.1324511E+000  0.2782337E+03  0.7546771E-02  0.1096658E+00
         21   -1    0    0  504  501  0.00000000000E+00  0.00000000000E+00  0.60659234102E+02  0.60659234102E+02  0.00000000000E+00 0.  1.
         21   -1    0    0  501  502 -0.00000000000E+00 -0.00000000000E+00 -0.14068521964E+04  0.14068521964E+04  0.00000000000E+00 0.  1.
         25    1    1    2    0    0 -0.14265560696E+03  0.20356410460E+03 -0.10069010337E+04  0.10446356583E+04  0.12500000000E+03 0.  0.
         21    1    1    2  503  502  0.11549284758E+03 -0.16679772537E+03 -0.24506461036E+03  0.31814578778E+03  0.00000000000E+00 0.  1.
         21    1    1    2  504  503  0.27162759380E+02 -0.36766379224E+02 -0.94227318163E+02  0.10472998437E+03  0.00000000000E+00 0.  1.
<mgrwt>
<rscale>  4 0.27823366E+03</rscale>
<asrwt>0</asrwt>
<pdfrwt beam="1">  1       21 0.93321910E-02 0.27823366E+03</pdfrwt>
<pdfrwt beam="2">  1       21 0.21643877E+00 0.27823366E+03</pdfrwt>
<totfact> 0.90947615E+03</totfact>
</mgrwt>
</event>
<event>
 5    0  0.1324511E+000  0.2772109E+03  0.7546771E-02  0.1097222E+00
         21   -1    0    0  504  501  0.00000000000E+00  0.00000000000E+00  0.69710450065E+02  0.69710450065E+02  0.00000000000E+00 0.  1.
         21   -1    0    0  501  502 -0.00000000000E+00 -0.00000000000E+00 -0.14167040606E+04  0.14167040606E+04  0.00000000000E+00 0.  1.
         25    1    1    2    0    0  0.23849510514E+03 -0.13883934346E+03 -0.60411940670E+03  0.67582655765E+03  0.12500000000E+03 0.  0.
         21    1    1    2  503  502 -0.18699665094E+03  0.13940166477E+03 -0.71488655386E+03  0.75197297590E+03  0.00000000000E+00 0.  1.
         21    1    1    2  504  503 -0.51498454199E+02 -0.56232130524E+00 -0.27987649957E+02  0.58614977099E+02  0.00000000000E+00 0. -1.
<mgrwt>
<rscale>  4 0.27721089E+03</rscale>
<asrwt>0</asrwt>
<pdfrwt beam="1">  1       21 0.10724685E-01 0.27721089E+03</pdfrwt>
<pdfrwt beam="2">  1       21 0.21795445E+00 0.27721089E+03</pdfrwt>
<totfact> 0.69495343E+03</totfact>
</mgrwt>
</event>
<event>
 5    0  0.1324511E+000  0.2330818E+03  0.7546771E-02  0.1124489E+00
         21   -1    0    0  504  501  0.00000000000E+00  0.00000000000E+00  0.13098811843E+03  0.13098811843E+03  0.00000000000E+00 0.  1.
         21   -1    0    0  501  502 -0.00000000000E+00 -0.00000000000E+00 -0.50938932548E+03  0.50938932548E+03  0.00000000000E+00 0.  1.
         25    1    1    2    0    0  0.15294958235E+03 -0.13712314178E+03 -0.31524437780E+03  0.39648499150E+03  0.12500000000E+03 0.  0.
         21    1    1    2  503  502 -0.77761631810E+01  0.22896879450E+02  0.28750526577E+02  0.37567653384E+02  0.00000000000E+00 0.  1.
         21    1    1    2  504  503 -0.14517341917E+03  0.11422626233E+03 -0.91907355821E+02  0.20632479902E+03  0.00000000000E+00 0.  1.
<mgrwt>
<rscale>  4 0.23308185E+03</rscale>
<asrwt>0</asrwt>
<pdfrwt beam="1">  1       21 0.20152018E-01 0.23308185E+03</pdfrwt>
<pdfrwt beam="2">  1       21 0.78367589E-01 0.23308185E+03</pdfrwt>
<totfact> 0.32108239E+04</totfact>
</mgrwt>
</event>
<event>
 5    0  0.1324511E+000  0.2651638E+03  0.7546771E-02  0.1104080E+00
         21   -1    0    0  504  501  0.00000000000E+00  0.00000000000E+00  0.17534389659E+04  0.17534389659E+04  0.00000000000E+00 0.  1.
         21   -1    0    0  501  502 -0.00000000000E+00 -0.00000000000E+00 -0.40602487495E+02  0.40602487495E+02  0.00000000000E+00 0.  1.
         25    1    1    2    0    0 -0.78192339393E+02  0.22039240648E+03  0.59593468056E+03  0.65226528213E+03  0.12500000000E+03 0.  0.
         21    1    1    2  503  502  0.75485454219E+02 -0.18528613839E+03  0.99371729680E+03  0.10136582624E+04  0.00000000000E+00 0.  1.
         21    1    1    2  504  503  0.27068851744E+01 -0.35106268094E+02  0.12318450105E+03  0.12811790892E+03  0.00000000000E+00 0. -1.
<mgrwt>
<rscale>  4 0.26516383E+03</rscale>
<asrwt>0</asrwt>
<pdfrwt beam="1">  1       21 0.26975978E+00 0.26516383E+03</pdfrwt>
<pdfrwt beam="2">  1       21 0.62465379E-02 0.26516383E+03</pdfrwt>
<totfact> 0.88082888E+03</totfact>
</mgrwt>
</event>
<event>
 5    0  0.1324511E+000  0.2379819E+03  0.7546771E-02  0.1121145E+00
         21   -1    0    0  504  501  0.00000000000E+00  0.00000000000E+00  0.17574761910E+03  0.17574761910E+03  0.00000000000E+00 0.  1.
         21   -1    0    0  501  502 -0.00000000000E+00 -0.00000000000E+00 -0.38271188924E+03  0.38271188924E+03  0.00000000000E+00 0.  1.
         25    1    1    2    0    0 -0.59066752771E+02  0.20371037112E+03 -0.10331933870E+03  0.26699565977E+03  0.12500000000E+03 0.  0.
         21    1    1    2  503  502  0.76403099227E+02 -0.18212950475E+03 -0.14406604737E+02  0.19803065504E+03  0.00000000000E+00 0.  1.
         21    1    1    2  504  503 -0.17336346455E+02 -0.21580866366E+02 -0.89238326704E+02  0.93433193537E+02  0.00000000000E+00 0.  1.
<mgrwt>
<rscale>  4 0.23798190E+03</rscale>
<asrwt>0</asrwt>
<pdfrwt beam="1">  1       21 0.27038095E-01 0.23798190E+03</pdfrwt>
<pdfrwt beam="2">  1       21 0.58878752E-01 0.23798190E+03</pdfrwt>
<totfact> 0.34378803E+04</totfact>
</mgrwt>
</event>
<event>
 5    0  0.1324511E+000  0.2554519E+03  0.7546771E-02  0.1109907E+00
         21   -1    0    0  504  501  0.00000000000E+00  0.00000000000E+00  0.28764987195E+03  0.28764987195E+03  0.00000000000E+00 0. -1.
         21   -1    0    0  501  502 -0.00000000000E+00 -0.00000000000E+00 -0.53600686995E+03  0.53600686995E+03  0.00000000000E+00 0. -1.
         25    1    1    2    0    0 -0.21831200040E+03  0.44391054910E+02 -0.44454574988E+03  0.51271494909E+03  0.12500000000E+03 0.  0.
         21    1    1    2  503  502  0.84757656223E+02 -0.49756581014E+02  0.41993055311E+02  0.10687840912E+03  0.00000000000E+00 0. -1.
         21    1    1    2  504  503  0.13355434418E+03  0.53655261042E+01  0.15419569658E+03  0.20406338369E+03  0.00000000000E+00 0. -1.
<mgrwt>
<rscale>  4 0.25545194E+03</rscale>
<asrwt>0</asrwt>
<pdfrwt beam="1">  1       21 0.44253826E-01 0.25545194E+03</pdfrwt>
<pdfrwt beam="2">  1       21 0.82462595E-01 0.25545194E+03</pdfrwt>
<totfact> 0.60350722E+03</totfact>
</mgrwt>
</event>
<event>
 5    0  0.1324511E+000  0.1920649E+03  0.7546771E-02  0.1156612E+00
         21   -1    0    0  504  501  0.00000000000E+00  0.00000000000E+00  0.51690411138E+03  0.51690411138E+03  0.00000000000E+00 0. -1.
         21   -1    0    0  501  502 -0.00000000000E+00 -0.00000000000E+00 -0.17690415691E+03  0.17690415691E+03  0.00000000000E+00 0.  1.
         25    1    1    2    0    0  0.11306785131E+03  0.16987531553E+03 -0.29294440561E+02  0.24109153049E+03  0.12500000000E+03 0.  0.
         21    1    1    2  503  502 -0.16561039378E+00 -0.85881356734E+02  0.40251127943E+02  0.94846128872E+02  0.00000000000E+00 0.  1.
         21    1    1    2  504  503 -0.11290224091E+03 -0.83993958795E+02  0.32904326709E+03  0.35787060892E+03  0.00000000000E+00 0. -1.
<mgrwt>
<rscale>  4 0.19206489E+03</rscale>
<asrwt>0</asrwt>
<pdfrwt beam="1">  1       21 0.79523709E-01 0.19206489E+03</pdfrwt>
<pdfrwt beam="2">  1       21 0.27216024E-01 0.19206489E+03</pdfrwt>
<totfact> 0.17948940E+04</totfact>
</mgrwt>
</event>
<event>
 5    0  0.1324511E+000  0.2659033E+03  0.7546771E-02  0.1103647E+00
         21   -1    0    0  504  501  0.00000000000E+00  0.00000000000E+00  0.10254651168E+03  0.10254651168E+03  0.00000000000E+00 0. -1.
         21   -1    0    0  501  502 -0.00000000000E+00 -0.00000000000E+00 -0.73978418143E+03  0.73978418143E+03  0.00000000000E+00 0.  1.
         25    1    1    2    0    0  0.76083203016E+02  0.22201560578E+03 -0.48663718541E+03  0.55454515886E+03  0.12500000000E+03 0.  0.
         21    1    1    2  503  502 -0.89529270060E+02 -0.18140236104E+03 -0.12820344596E+03  0.23949620111E+03  0.00000000000E+00 0. -1.
         21    1    1    2  504  503  0.13446067044E+02 -0.40613244742E+02 -0.22397038370E+02  0.48289333140E+02  0.00000000000E+00 0.  1.
<mgrwt>
<rscale>  4 0.26590333E+03</rscale>
<asrwt>0</asrwt>
<pdfrwt beam="1">  1       21 0.15776387E-01 0.26590333E+03</pdfrwt>
<pdfrwt beam="2">  1       21 0.11381295E+00 0.26590333E+03</pdfrwt>
<totfact> 0.20659403E+04</totfact>
</mgrwt>
</event>
<event>
 5    0  0.1324511E+000  0.2450456E+03  0.7546771E-02  0.1116476E+00
         21   -1    0    0  504  501  0.00000000000E+00  0.00000000000E+00  0.14598356430E+03  0.14598356430E+03  0.00000000000E+00 0. -1.
         21   -1    0    0  501  502 -0.00000000000E+00 -0.00000000000E+00 -0.68576933526E+03  0.68576933526E+03  0.00000000000E+00 0. -1.
         25    1    1    2    0    0  0.22589841356E+03  0.74368076453E+02 -0.27734815596E+03  0.38614466675E+03  0.12500000000E+03 0.  0.
         21    1    1    2  503  502 -0.16880028781E+03 -0.10425988361E+03 -0.30821789858E+03  0.36655413448E+03  0.00000000000E+00 0. -1.
         21    1    1    2  504  503 -0.57098125741E+02  0.29891807161E+02  0.45780283580E+02  0.79054098332E+02  0.00000000000E+00 0. -1.
<mgrwt>
<rscale>  4 0.24504564E+03</rscale>
<asrwt>0</asrwt>
<pdfrwt beam="1">  1       21 0.22459010E-01 0.24504564E+03</pdfrwt>
<pdfrwt beam="2">  1       21 0.10550298E+00 0.24504564E+03</pdfrwt>
<totfact> 0.12980401E+04</totfact>
</mgrwt>
</event>
<event>
 5    0  0.1324511E+000  0.2385640E+03  0.7546771E-02  0.1120753E+00
         21   -1    0    0  504  501  0.00000000000E+00  0.00000000000E+00  0.56926181322E+02  0.56926181322E+02  0.00000000000E+00 0.  1.
         21   -1    0    0  501  502 -0.00000000000E+00 -0.00000000000E+00 -0.14848841110E+04  0.14848841110E+04  0.00000000000E+00 0. -1.
         25    1    1    2    0    0 -0.18952205644E+03  0.73274781147E+02 -0.12047319357E+04  0.12281253358E+04  0.12500000000E+03 0.  0.
         21    1    1    2  503  502  0.62871388328E+02 -0.65121508128E+02 -0.11865737222E+03  0.14924206603E+03  0.00000000000E+00 0.  1.
         21    1    1    2  504  503  0.12665066811E+03 -0.81532730197E+01 -0.10456862177E+03  0.16444289055E+03  0.00000000000E+00 0.  1.
<mgrwt>
<rscale>  4 0.23856404E+03</rscale>
<asrwt>0</asrwt>
<pdfrwt beam="1">  1       21 0.87578738E-02 0.23856404E+03</pdfrwt>
<pdfrwt beam="2">  1       21 0.22844372E+00 0.23856404E+03</pdfrwt>
<totfact> 0.88088189E+03</totfact>
</mgrwt>
</event>
<event>
 5    0  0.1324511E+000  0.2380178E+03  0.7546771E-02  0.1121120E+00
         21   -1    0    0  504  501  0.00000000000E+00  0.00000000000E+00  0.13572756137E+04  0.13572756137E+04  0.00000000000E+00 0. -1.
         21   -1    0    0  501  502 -0.00000000000E+00 -0.00000000000E+00 -0.24520834606E+03  0.24520834606E+03  0.00000000000E+00 0.  1.
         25    1    1    2    0    0 -0.41585908929E+02  0.20042922411E+03 -0.17193629959E+03  0.29510735812E+03  0.12500000000E+03 0.  0.
         21    1    1    2  503  502  0.40261644500E+02 -0.15524497003E+03  0.12105518541E+04  0.12211297196E+04  0.00000000000E+00 0. -1.
         21    1    1    2  504  503  0.13242644295E+01 -0.45184254075E+02  0.73451713174E+02  0.86246882035E+02  0.00000000000E+00 0.  1.
<mgrwt>
<rscale>  4 0.23801783E+03</rscale>
<asrwt>0</asrwt>
<pdfrwt beam="1">  1       21 0.20881163E+00 0.23801783E+03</pdfrwt>
<pdfrwt beam="2">  1       21 0.37724362E-01 0.23801783E+03</pdfrwt>
<totfact> 0.76184844E+02</totfact>
</mgrwt>
</event>
<event>
 5    0  0.1324511E+000  0.3201544E+03  0.7546771E-02  0.1075726E+00
         21   -1    0    0  504  501  0.00000000000E+00  0.00000000000E+00  0.17050767956E+03  0.17050767956E+03  0.00000000000E+00 0. -1.
         21   -1    0    0  501  502 -0.00000000000E+00 -0.00000000000E+00 -0.10540237882E+04  0.10540237882E+04  0.00000000000E+00 0. -1.
         25    1    1    2    0    0  0.19738558633E+03  0.21701480614E+03 -0.84365341054E+03  0.90190496888E+03  0.12500000000E+03 0.  0.
         21    1    1    2  503  502 -0.11634538234E+03 -0.14508686594E+03  0.37203529384E+02  0.18965903421E+03  0.00000000000E+00 0. -1.
         21    1    1    2  504  503 -0.81040203992E+02 -0.71927940201E+02 -0.77066227486E+02  0.13296746468E+03  0.00000000000E+00 0. -1.
<mgrwt>
<rscale>  4 0.31983414E+03</rscale>
<asrwt>0</asrwt>
<pdfrwt beam="1">  1       21 0.26231950E-01 0.32015437E+03</pdfrwt>
<pdfrwt beam="2">  1       21 0.16215751E+00 0.32015437E+03</pdfrwt>
<totfact> 0.30610613E+03</totfact>
</mgrwt>
</event>
<event>
 5    0  0.1324511E+000  0.2330592E+03  0.7546771E-02  0.1124505E+00
         21   -1    0    0  504  501  0.00000000000E+00  0.00000000000E+00  0.62061348122E+03  0.62061348122E+03  0.00000000000E+00 0. -1.
         21   -1    0    0  501  502 -0.00000000000E+00 -0.00000000000E+00 -0.19426267939E+03  0.19426267939E+03  0.00000000000E+00 0.  1.
         25    1    1    2    0    0 -0.11605053184E+03  0.17632368591E+03 -0.62016237975E+02  0.25303909169E+03  0.12500000000E+03 0.  0.
         21    1    1    2  503  502  0.15254911593E+02 -0.14944480665E+03  0.39208580720E+03  0.41987824755E+03  0.00000000000E+00 0. -1.
         21    1    1    2  504  503  0.10079562025E+03 -0.26878879265E+02  0.96281232605E+02  0.14195882136E+03  0.00000000000E+00 0. -1.
<mgrwt>
<rscale>  4 0.23305922E+03</rscale>
<asrwt>0</asrwt>
<pdfrwt beam="1">  1       21 0.95478996E-01 0.23305922E+03</pdfrwt>
<pdfrwt beam="2">  1       21 0.29886566E-01 0.23305922E+03</pdfrwt>
<totfact> 0.95669438E+03</totfact>
</mgrwt>
</event>
<event>
 5    0  0.1324511E+000  0.2593571E+03  0.7546771E-02  0.1107530E+00
         21   -1    0    0  504  501  0.00000000000E+00  0.00000000000E+00  0.42957176672E+03  0.42957176672E+03  0.00000000000E+00 0.  1.
         21   -1    0    0  501  502 -0.00000000000E+00 -0.00000000000E+00 -0.14957684927E+03  0.14957684927E+03  0.00000000000E+00 0.  1.
         25    1    1    2    0    0  0.63584022693E+02 -0.21817011329E+03  0.20773149832E+03  0.33229279509E+03  0.12500000000E+03 0.  0.
         21    1    1    2  503  502  0.44654942188E+01  0.96740300080E+02  0.29268814258E+02  0.10116960900E+03  0.00000000000E+00 0.  1.
         21    1    1    2  504  503 -0.68049516912E+02  0.12142981321E+03  0.42994604877E+02  0.14568621190E+03  0.00000000000E+00 0.  1.
<mgrwt>
<rscale>  4 0.25935714E+03</rscale>
<asrwt>0</asrwt>
<pdfrwt beam="1">  1       21 0.66087964E-01 0.25935714E+03</pdfrwt>
<pdfrwt beam="2">  1       21 0.23011823E-01 0.25935714E+03</pdfrwt>
<totfact> 0.36110133E+04</totfact>
</mgrwt>
</event>
<event>
 5    0  0.1324511E+000  0.2620400E+03  0.7546771E-02  0.1105924E+00
         21   -1    0    0  504  501  0.00000000000E+00  0.00000000000E+00  0.78367712690E+03  0.78367712690E+03  0.00000000000E+00 0.  1.
         21   -1    0    0  501  502 -0.00000000000E+00 -0.00000000000E+00 -0.11255944769E+03  0.11255944769E+03  0.00000000000E+00 0.  1.
         25    1    1    2    0    0 -0.23669288965E+03 -0.10083752283E+03  0.44070839673E+03  0.52539568038E+03  0.12500000000E+03 0.  0.
         21    1    1    2  503  502  0.19580161279E+03  0.10101972153E+03  0.11527291886E+03  0.24865860437E+03  0.00000000000E+00 0.  1.
         21    1    1    2  504  503  0.40891276862E+02 -0.18219870061E+00  0.11513636362E+03  0.12218228983E+03  0.00000000000E+00 0.  1.
<mgrwt>
<rscale>  4 0.26204004E+03</rscale>
<asrwt>0</asrwt>
<pdfrwt beam="1">  1       21 0.12056571E+00 0.26204004E+03</pdfrwt>
<pdfrwt beam="2">  1       21 0.17316839E-01 0.26204004E+03</pdfrwt>
<totfact> 0.15104335E+04</totfact>
</mgrwt>
</event>
<event>
 5    0  0.1324511E+000  0.2719034E+03  0.7546771E-02  0.1100195E+00
         21   -1    0    0  504  501  0.00000000000E+00  0.00000000000E+00  0.60481296589E+02  0.60481296589E+02  0.00000000000E+00 0.  1.
         21   -1    0    0  501  502 -0.00000000000E+00 -0.00000000000E+00 -0.11266997122E+04  0.11266997122E+04  0.00000000000E+00 0.  1.
         25    1    1    2    0    0  0.58841338609E+02 -0.23418826805E+03 -0.63419692518E+03  0.69002694725E+03  0.12500000000E+03 0.  0.
         21    1    1    2  503  502 -0.60144343861E+02  0.19462923262E+03 -0.33109483503E+03  0.38874370744E+03  0.00000000000E+00 0.  1.
         21    1    1    2  504  503  0.13030052514E+01  0.39559035432E+02 -0.10092665543E+03  0.10841035414E+03  0.00000000000E+00 0.  1.
<mgrwt>
<rscale>  4 0.27190338E+03</rscale>
<asrwt>0</asrwt>
<pdfrwt beam="1">  1       21 0.93048153E-02 0.27190338E+03</pdfrwt>
<pdfrwt beam="2">  1       21 0.17333841E+00 0.27190338E+03</pdfrwt>
<totfact> 0.17728927E+04</totfact>
</mgrwt>
</event>
<event>
 5    0  0.1324511E+000  0.4369528E+03  0.7546771E-02  0.1031686E+00
         21   -1    0    0  504  501  0.00000000000E+00  0.00000000000E+00  0.51291678931E+03  0.51291678931E+03  0.00000000000E+00 0. -1.
         21   -1    0    0  501  502 -0.00000000000E+00 -0.00000000000E+00 -0.86111519507E+03  0.86111519507E+03  0.00000000000E+00 0. -1.
         25    1    1    2    0    0  0.23317317459E+02 -0.40816178020E+03 -0.56431639485E+03  0.70796732241E+03  0.12500000000E+03 0.  0.
         21    1    1    2  503  502 -0.10368875247E+03 -0.67433581288E+02 -0.25966285872E+02  0.12638391225E+03  0.00000000000E+00 0. -1.
         21    1    1    2  504  503  0.80371435011E+02  0.47559536148E+03  0.24208427497E+03  0.53968074972E+03  0.00000000000E+00 0. -1.
<mgrwt>
<rscale>  4 0.43695277E+03</rscale>
<asrwt>0</asrwt>
<pdfrwt beam="1">  1       21 0.78910275E-01 0.43695277E+03</pdfrwt>
<pdfrwt beam="2">  1       21 0.13247926E+00 0.43695277E+03</pdfrwt>
<totfact> 0.49094294E+02</totfact>
</mgrwt>
</event>
<event>
 5    0  0.1324511E+000  0.2320172E+03  0.7546771E-02  0.1125228E+00
         21   -1    0    0  504  501  0.00000000000E+00  0.00000000000E+00  0.10608202705E+03  0.10608202705E+03  0.00000000000E+00 0. -1.
         21   -1    0    0  501  502 -0.00000000000E+00 -0.00000000000E+00 -0.56080833817E+03  0.56080833817E+03  0.00000000000E+00 0. -1.
         25    1    1    2    0    0  0.58781308596E+01 -0.21307857524E+03 -0.21579084492E+03  0.32806664018E+03  0.12500000000E+03 0.  0.
         21    1    1    2  503  502 -0.11276262982E+02  0.29101254112E+02 -0.10937325665E+03  0.11373893954E+03  0.00000000000E+00 0. -1.
         21    1    1    2  504  503  0.53981321223E+01  0.18397732113E+03 -0.12956220955E+03  0.22508478550E+03  0.00000000000E+00 0. -1.
<mgrwt>
<rscale>  4 0.23201725E+03</rscale>
<asrwt>0</asrwt>
<pdfrwt beam="1">  1       21 0.16320312E-01 0.23201725E+03</pdfrwt>
<pdfrwt beam="2">  1       21 0.86278206E-01 0.23201725E+03</pdfrwt>
<totfact> 0.38167157E+04</totfact>
</mgrwt>
</event>
<event>
 5    0  0.1324511E+000  0.2823572E+03  0.7546771E-02  0.1094408E+00
         21   -1    0    0  504  501  0.00000000000E+00  0.00000000000E+00  0.41372784229E+03  0.41372784229E+03  0.00000000000E+00 0. -1.
         21   -1    0    0  501  502 -0.00000000000E+00 -0.00000000000E+00 -0.32035810820E+03  0.32035810820E+03  0.00000000000E+00 0. -1.
         25    1    1    2    0    0 -0.17847094119E+03  0.17957931832E+03 -0.18850896281E+03  0.33950145431E+03  0.12500000000E+03 0.  0.
         21    1    1    2  503  502  0.14417873553E+03 -0.68113106869E+02  0.15955744459E+03  0.22557810450E+03  0.00000000000E+00 0. -1.
         21    1    1    2  504  503  0.34292205658E+02 -0.11146621145E+03  0.12232125231E+03  0.16900639169E+03  0.00000000000E+00 0. -1.
<mgrwt>
<rscale>  4 0.28235724E+03</rscale>
<asrwt>0</asrwt>
<pdfrwt beam="1">  1       21 0.63650437E-01 0.28235724E+03</pdfrwt>
<pdfrwt beam="2">  1       21 0.49285863E-01 0.28235724E+03</pdfrwt>
<totfact> 0.84871463E+03</totfact>
</mgrwt>
</event>
<event>
 5    0  0.1324511E+000  0.2170088E+03  0.7546771E-02  0.1136133E+00
         21   -1    0    0  504  501  0.00000000000E+00  0.00000000000E+00  0.72191849271E+03  0.72191849271E+03  0.00000000000E+00 0. -1.
         21   -1    0    0  501  502 -0.00000000000E+00 -0.00000000000E+00 -0.13566474140E+03  0.13566474140E+03  0.00000000000E+00 0.  1.
         25    1    1    2    0    0 -0.75102339756E+02  0.20513629730E+03  0.59865659262E+02  0.25870863740E+03  0.12500000000E+03 0.  0.
         21    1    1    2  503  502 -0.39414952483E+02 -0.12176899340E+03  0.34989565078E+03  0.37256971518E+03  0.00000000000E+00 0. -1.
         21    1    1    2  504  503  0.11451729224E+03 -0.83367303906E+02  0.17649244126E+03  0.22630488153E+03  0.00000000000E+00 0. -1.
<mgrwt>
<rscale>  4 0.21700884E+03</rscale>
<asrwt>0</asrwt>
<pdfrwt beam="1">  1       21 0.11106438E+00 0.21700884E+03</pdfrwt>
<pdfrwt beam="2">  1       21 0.20871499E-01 0.21700884E+03</pdfrwt>
<totfact> 0.13380905E+04</totfact>
</mgrwt>
</event>
<event>
 5    0  0.1324511E+000  0.2266961E+03  0.7546771E-02  0.1128987E+00
         21   -1    0    0  504  501  0.00000000000E+00  0.00000000000E+00  0.34389864277E+03  0.34389864277E+03  0.00000000000E+00 0.  1.
         21   -1    0    0  501  502 -0.00000000000E+00 -0.00000000000E+00 -0.24444961504E+03  0.24444961504E+03  0.00000000000E+00 0.  1.
         25    1    1    2    0    0  0.14233957327E+03 -0.16685470313E+03 -0.94452322213E+02  0.26953160714E+03  0.12500000000E+03 0.  0.
         21    1    1    2  503  502 -0.23128423729E+02  0.71316997401E+02  0.13627812314E+03  0.15554023579E+03  0.00000000000E+00 0.  1.
         21    1    1    2  504  503 -0.11921114954E+03  0.95537705731E+02  0.57623226801E+02  0.16327641488E+03  0.00000000000E+00 0.  1.
<mgrwt>
<rscale>  4 0.22669612E+03</rscale>
<asrwt>0</asrwt>
<pdfrwt beam="1">  1       21 0.52907484E-01 0.22669612E+03</pdfrwt>
<pdfrwt beam="2">  1       21 0.37607633E-01 0.22669612E+03</pdfrwt>
<totfact> 0.22647177E+04</totfact>
</mgrwt>
</event>
<event>
 5    0  0.1324511E+000  0.2467298E+03  0.7546771E-02  0.1115389E+00
         21   -1    0    0  504  501  0.00000000000E+00  0.00000000000E+00  0.20568759907E+02  0.20568759907E+02  0.00000000000E+00 0.  1.
         21   -1    0    0  501  502 -0.00000000000E+00 -0.00000000000E+00 -0.26851941968E+04  0.26851941968E+04  0.00000000000E+00 0. -1.
         25    1    1    2    0    0 -0.20617560685E+03  0.52366149345E+02 -0.16725476292E+04  0.16906481498E+04  0.12500000000E+03 0.  0.
         21    1    1    2  503  502  0.17929541955E+03 -0.42475720527E+02 -0.80222261717E+03  0.82311126939E+03  0.00000000000E+00 0.  1.
         21    1    1    2  504  503  0.26880187304E+02 -0.98904288189E+01 -0.18985519054E+03  0.19200353754E+03  0.00000000000E+00 0. -1.
<mgrwt>
<rscale>  4 0.24672980E+03</rscale>
<asrwt>0</asrwt>
<pdfrwt beam="1">  1       21 0.31644254E-02 0.24672980E+03</pdfrwt>
<pdfrwt beam="2">  1       21 0.41310670E+00 0.24672980E+03</pdfrwt>
<totfact> 0.39053465E+03</totfact>
</mgrwt>
</event>
<event>
 5    0  0.1324511E+000  0.5400050E+03  0.7546771E-02  0.1004764E+00
         21   -1    0    0  504  501  0.00000000000E+00  0.00000000000E+00  0.26282882171E+03  0.26282882171E+03  0.00000000000E+00 0. -1.
         21   -1    0    0  501  502 -0.00000000000E+00 -0.00000000000E+00 -0.11056850051E+04  0.11056850051E+04  0.00000000000E+00 0.  1.
         25    1    1    2    0    0 -0.16845171756E+03  0.48078195857E+03 -0.30712285269E+03  0.60784596690E+03  0.12500000000E+03 0.  0.
         21    1    1    2  503  502  0.80074201727E+02 -0.69435945749E+02 -0.18371007262E+03  0.21209106329E+03  0.00000000000E+00 0. -1.
         21    1    1    2  504  503  0.88377515833E+02 -0.41134601282E+03 -0.35202325810E+03  0.54857679664E+03  0.00000000000E+00 0. -1.
<mgrwt>
<rscale>  4 0.53609897E+03</rscale>
<asrwt>0</asrwt>
<pdfrwt beam="1">  1       21 0.40435204E-01 0.54000499E+03</pdfrwt>
<pdfrwt beam="2">  1       21 0.17010538E+00 0.54000499E+03</pdfrwt>
<totfact> 0.10198417E+03</totfact>
</mgrwt>
</event>
<event>
 5    0  0.1324511E+000  0.2851919E+03  0.7546771E-02  0.1092887E+00
         21   -1    0    0  504  501  0.00000000000E+00  0.00000000000E+00  0.47970091498E+03  0.47970091498E+03  0.00000000000E+00 0. -1.
         21   -1    0    0  501  502 -0.00000000000E+00 -0.00000000000E+00 -0.24515091492E+03  0.24515091492E+03  0.00000000000E+00 0. -1.
         25    1    1    2    0    0 -0.39314617252E+02 -0.25330572817E+03 -0.92769459974E+02  0.29990098992E+03  0.12500000000E+03 0.  0.
         21    1    1    2  503  502  0.46965238904E+01  0.10262425819E+03  0.68516797002E+02  0.12348419809E+03  0.00000000000E+00 0. -1.
         21    1    1    2  504  503  0.34618093361E+02  0.15068146998E+03  0.25880266303E+03  0.30146664190E+03  0.00000000000E+00 0. -1.
<mgrwt>
<rscale>  4 0.28519192E+03</rscale>
<asrwt>0</asrwt>
<pdfrwt beam="1">  1       21 0.73800140E-01 0.28519192E+03</pdfrwt>
<pdfrwt beam="2">  1       21 0.37715526E-01 0.28519192E+03</pdfrwt>
<totfact> 0.10594354E+04</totfact>
</mgrwt>
</event>
<event>
 5    0  0.1324511E+000  0.2578978E+03  0.7546771E-02  0.1108413E+00
         21   -1    0    0  504  501  0.00000000000E+00  0.00000000000E+00  0.15916107025E+03  0.15916107025E+03  0.00000000000E+00 0.  1.
         21   -1    0    0  501  502 -0.00000000000E+00 -0.00000000000E+00 -0.38453606933E+03  0.38453606933E+03  0.00000000000E+00 0.  1.
         25    1    1    2    0    0  0.17915738515E+03  0.13707257671E+03 -0.93588078468E+02  0.27435376500E+03  0.12500000000E+03 0.  0.
         21    1    1    2  503  502 -0.31330343059E+02 -0.60382534857E+02 -0.31748658119E+02  0.75070754654E+02  0.00000000000E+00 0.  1.
         21    1    1    2  504  503 -0.14782704209E+03 -0.76690041848E+02 -0.10003826249E+03  0.19427261993E+03  0.00000000000E+00 0.  1.
<mgrwt>
<rscale>  4 0.25789777E+03</rscale>
<asrwt>0</asrwt>
<pdfrwt beam="1">  1       21 0.24486319E-01 0.25789777E+03</pdfrwt>
<pdfrwt beam="2">  1       21 0.59159394E-01 0.25789777E+03</pdfrwt>
<totfact> 0.40840579E+04</totfact>
</mgrwt>
</event>
<event>
 5    0  0.1324511E+000  0.2868604E+03  0.7546771E-02  0.1092000E+00
         21   -1    0    0  504  501  0.00000000000E+00  0.00000000000E+00  0.59268519193E+03  0.59268519193E+03  0.00000000000E+00 0.  1.
         21   -1    0    0  501  502 -0.00000000000E+00 -0.00000000000E+00 -0.13879005284E+03  0.13879005284E+03  0.00000000000E+00 0.  1.
         25    1    1    2    0    0 -0.22202903637E+03 -0.13178395790E+03  0.13328052190E+03  0.31631092626E+03  0.12500000000E+03 0.  0.
         21    1    1    2  503  502  0.19502599769E+03  0.11937395094E+03  0.25137033085E+03  0.33981218808E+03  0.00000000000E+00 0.  1.
         21    1    1    2  504  503  0.27003038681E+02  0.12410006961E+02  0.69244286338E+02  0.75352130436E+02  0.00000000000E+00 0.  1.
<mgrwt>
<rscale>  4 0.28686043E+03</rscale>
<asrwt>0</asrwt>
<pdfrwt beam="1">  1       21 0.91182336E-01 0.28686043E+03</pdfrwt>
<pdfrwt beam="2">  1       21 0.21352316E-01 0.28686043E+03</pdfrwt>
<totfact> 0.19820500E+04</totfact>
</mgrwt>
</event>
<event>
 5    0  0.1324511E+000  0.5762355E+03  0.7546771E-02  0.9957141E-01
         21   -1    0    0  504  501  0.00000000000E+00  0.00000000000E+00  0.26595885787E+04  0.26595885787E+04  0.00000000000E+00 0. -1.
         21   -1    0    0  501  502 -0.00000000000E+00 -0.00000000000E+00 -0.15498646705E+03  0.15498646705E+03  0.00000000000E+00 0. -1.
         25    1    1    2    0    0  0.23195303394E+03  0.51006518476E+03  0.18757386961E+04  0.19616292613E+04  0.12500000000E+03 0.  0.
         21    1    1    2  503  502  0.40420057340E+01 -0.88082578731E+02  0.61432309230E+02  0.10746537630E+03  0.00000000000E+00 0.  1.
         21    1    1    2  504  503 -0.23599503968E+03 -0.42198260603E+03  0.56743110632E+03  0.74548040817E+03  0.00000000000E+00 0. -1.
<mgrwt>
<rscale>  4 0.57570149E+03</rscale>
<asrwt>0</asrwt>
<pdfrwt beam="1">  1       21 0.40916744E+00 0.57623547E+03</pdfrwt>
<pdfrwt beam="2">  1       21 0.23844074E-01 0.57623547E+03</pdfrwt>
<totfact> 0.87949686E+01</totfact>
</mgrwt>
</event>
<event>
 5    0  0.1324511E+000  0.3760667E+03  0.7546771E-02  0.1052397E+00
         21   -1    0    0  504  501  0.00000000000E+00  0.00000000000E+00  0.61089339530E+03  0.61089339530E+03  0.00000000000E+00 0.  1.
         21   -1    0    0  501  502 -0.00000000000E+00 -0.00000000000E+00 -0.23522394224E+03  0.23522394224E+03  0.00000000000E+00 0.  1.
         25    1    1    2    0    0 -0.84586484178E+02  0.34445068731E+03  0.95932329353E+02  0.38810972818E+03  0.12500000000E+03 0.  0.
         21    1    1    2  503  502  0.55727626836E+01 -0.12662515103E+03  0.13309025503E+03  0.18378792273E+03  0.00000000000E+00 0. -1.
         21    1    1    2  504  503  0.79013721494E+02 -0.21782553628E+03  0.14664686867E+03  0.27421968663E+03  0.00000000000E+00 0.  1.
<mgrwt>
<rscale>  4 0.37606668E+03</rscale>
<asrwt>0</asrwt>
<pdfrwt beam="1">  1       21 0.93983599E-01 0.37606668E+03</pdfrwt>
<pdfrwt beam="2">  1       21 0.36188299E-01 0.37606668E+03</pdfrwt>
<totfact> 0.63352538E+03</totfact>
</mgrwt>
</event>
<event>
 5    0  0.1324511E+000  0.3198966E+03  0.7546771E-02  0.1075697E+00
         21   -1    0    0  504  501  0.00000000000E+00  0.00000000000E+00  0.20868058936E+03  0.20868058936E+03  0.00000000000E+00 0. -1.
         21   -1    0    0  501  502 -0.00000000000E+00 -0.00000000000E+00 -0.69959872714E+03  0.69959872714E+03  0.00000000000E+00 0.  1.
         25    1    1    2    0    0  0.78795424835E+02  0.28372539733E+03 -0.51336881558E+03  0.60488127833E+03  0.12500000000E+03 0.  0.
         21    1    1    2  503  502 -0.90276274413E+02 -0.22995483785E+03  0.11317613252E+02  0.24729965941E+03  0.00000000000E+00 0. -1.
         21    1    1    2  504  503  0.11480849578E+02 -0.53770559479E+02  0.11133064550E+02  0.56098378765E+02  0.00000000000E+00 0.  1.
<mgrwt>
<rscale>  4 0.31989658E+03</rscale>
<asrwt>0</asrwt>
<pdfrwt beam="1">  1       21 0.32104706E-01 0.31989658E+03</pdfrwt>
<pdfrwt beam="2">  1       21 0.10763057E+00 0.31989658E+03</pdfrwt>
<totfact> 0.59460001E+03</totfact>
</mgrwt>
</event>
<event>
 5    0  0.1324511E+000  0.3612866E+03  0.7546771E-02  0.1058076E+00
         21   -1    0    0  504  501  0.00000000000E+00  0.00000000000E+00  0.65268841752E+03  0.65268841752E+03  0.00000000000E+00 0. -1.
         21   -1    0    0  501  502 -0.00000000000E+00 -0.00000000000E+00 -0.32713411067E+03  0.32713411067E+03  0.00000000000E+00 0. -1.
         25    1    1    2    0    0  0.14825585466E+03  0.32295097413E+03 -0.10290573373E+03  0.39050188241E+03  0.12500000000E+03 0.  0.
         21    1    1    2  503  502 -0.23562788795E+01 -0.21073483558E+02 -0.20155672976E+02  0.29255681714E+02  0.00000000000E+00 0. -1.
         21    1    1    2  504  503 -0.14589957578E+03 -0.30187749057E+03  0.44861571356E+03  0.56006496407E+03  0.00000000000E+00 0. -1.
<mgrwt>
<rscale>  4 0.36128660E+03</rscale>
<asrwt>0</asrwt>
<pdfrwt beam="1">  1       21 0.10041360E+00 0.36128660E+03</pdfrwt>
<pdfrwt beam="2">  1       21 0.50328325E-01 0.36128660E+03</pdfrwt>
<totfact> 0.27479386E+03</totfact>
</mgrwt>
</event>
<event>
 5    0  0.1324511E+000  0.2973665E+03  0.7546771E-02  0.1086565E+00
         21   -1    0    0  504  501  0.00000000000E+00  0.00000000000E+00  0.20525599088E+03  0.20525599088E+03  0.00000000000E+00 0. -1.
         21   -1    0    0  501  502 -0.00000000000E+00 -0.00000000000E+00 -0.54727003799E+03  0.54727003799E+03  0.00000000000E+00 0. -1.
         25    1    1    2    0    0  0.24155465198E+03 -0.12022148653E+03 -0.37313489611E+03  0.47713363581E+03  0.12500000000E+03 0.  0.
         21    1    1    2  503  502 -0.20522606310E+03  0.11819474382E+03  0.21782817727E+02  0.23782814298E+03  0.00000000000E+00 0. -1.
         21    1    1    2  504  503 -0.36328588883E+02  0.20267427084E+01  0.93380312817E+01  0.37564250085E+02  0.00000000000E+00 0. -1.
<mgrwt>
<rscale>  4 0.29736653E+03</rscale>
<asrwt>0</asrwt>
<pdfrwt beam="1">  1       21 0.31577845E-01 0.29736653E+03</pdfrwt>
<pdfrwt beam="2">  1       21 0.84195390E-01 0.29736653E+03</pdfrwt>
<totfact> 0.11132169E+04</totfact>
</mgrwt>
</event>
<event>
 5    0  0.1324511E+000  0.3706141E+03  0.7546771E-02  0.1054657E+00
         21   -1    0    0  504  501  0.00000000000E+00  0.00000000000E+00  0.11395712284E+04  0.11395712284E+04  0.00000000000E+00 0. -1.
         21   -1    0    0  501  502 -0.00000000000E+00 -0.00000000000E+00 -0.64888121201E+03  0.64888121201E+03  0.00000000000E+00 0.  1.
         25    1    1    2    0    0  0.28443349629E+02  0.34552701596E+03 -0.56220570644E+03  0.67223373856E+03  0.12500000000E+03 0.  0.
         21    1    1    2  503  502 -0.70800792454E+02 -0.29235381115E+03  0.89860428756E+03  0.94761446207E+03  0.00000000000E+00 0. -1.
         21    1    1    2  504  503  0.42357442825E+02 -0.53173204818E+02  0.15429143531E+03  0.16860423981E+03  0.00000000000E+00 0.  1.
<mgrwt>
<rscale>  4 0.37009487E+03</rscale>
<asrwt>0</asrwt>
<pdfrwt beam="1">  1       21 0.17531865E+00 0.37061407E+03</pdfrwt>
<pdfrwt beam="2">  1       21 0.99827879E-01 0.37061407E+03</pdfrwt>
<totfact> 0.13643509E+02</totfact>
</mgrwt>
</event>
<event>
 5    0  0.1324511E+000  0.4479320E+03  0.7546771E-02  0.1028341E+00
         21   -1    0    0  504  501  0.00000000000E+00  0.00000000000E+00  0.36896014295E+03  0.36896014295E+03  0.00000000000E+00 0. -1.
         21   -1    0    0  501  502 -0.00000000000E+00 -0.00000000000E+00 -0.53125292948E+03  0.53125292948E+03  0.00000000000E+00 0. -1.
         25    1    1    2    0    0 -0.43910227229E+02  0.42789013978E+03 -0.45434790048E+02  0.45023038538E+03  0.12500000000E+03 0.  0.
         21    1    1    2  503  502  0.24104965203E+02 -0.51122713385E+02 -0.24201406444E+02  0.61484056837E+02  0.00000000000E+00 0. -1.
         21    1    1    2  504  503  0.19805262026E+02 -0.37676742639E+03 -0.92656590033E+02  0.38849863021E+03  0.00000000000E+00 0. -1.
<mgrwt>
<rscale>  4 0.44793200E+03</rscale>
<asrwt>0</asrwt>
<pdfrwt beam="1">  1       21 0.56763099E-01 0.44793200E+03</pdfrwt>
<pdfrwt beam="2">  1       21 0.81731220E-01 0.44793200E+03</pdfrwt>
<totfact> 0.33376377E+03</totfact>
</mgrwt>
</event>
<event>
 5    0  0.1324511E+000  0.4260913E+03  0.7546771E-02  0.1035102E+00
         21   -1    0    0  504  501  0.00000000000E+00  0.00000000000E+00  0.51429201646E+02  0.51429201646E+02  0.00000000000E+00 0. -1.
         21   -1    0    0  501  502 -0.00000000000E+00 -0.00000000000E+00 -0.35536255308E+04  0.35536255308E+04  0.00000000000E+00 0. -1.
         25    1    1    2    0    0  0.31707222035E+03 -0.25572256126E+03 -0.21084898866E+04  0.21511121364E+04  0.12500000000E+03 0.  0.
         21    1    1    2  503  502 -0.38190107599E+02  0.41654166184E+02 -0.12057810422E+03  0.13316393316E+03  0.00000000000E+00 0. -1.
         21    1    1    2  504  503 -0.27888211275E+03  0.21406839507E+03 -0.12731283383E+04  0.13207786629E+04  0.00000000000E+00 0. -1.
<mgrwt>
<rscale>  4 0.42609133E+03</rscale>
<asrwt>0</asrwt>
<pdfrwt beam="1">  1       21 0.79121822E-02 0.42609133E+03</pdfrwt>
<pdfrwt beam="2">  1       21 0.54671181E+00 0.42609133E+03</pdfrwt>
<totfact> 0.81383490E+01</totfact>
</mgrwt>
</event>
<event>
 5    0  0.1324511E+000  0.3075573E+03  0.7546771E-02  0.1081523E+00
         21   -1    0    0  504  501  0.00000000000E+00  0.00000000000E+00  0.30694620583E+03  0.30694620583E+03  0.00000000000E+00 0. -1.
         21   -1    0    0  501  502 -0.00000000000E+00 -0.00000000000E+00 -0.32569164903E+03  0.32569164903E+03  0.00000000000E+00 0. -1.
         25    1    1    2    0    0  0.27935012544E+03 -0.30495464017E+02 -0.12085766447E+03  0.33045126867E+03  0.12500000000E+03 0.  0.
         21    1    1    2  503  502 -0.25342556643E+03  0.20100232030E+02  0.10286858312E+03  0.27424529611E+03  0.00000000000E+00 0. -1.
         21    1    1    2  504  503 -0.25924559007E+02  0.10395231987E+02 -0.75636184972E+00  0.27941290074E+02  0.00000000000E+00 0.  1.
<mgrwt>
<rscale>  4 0.30755726E+03</rscale>
<asrwt>0</asrwt>
<pdfrwt beam="1">  1       21 0.47222493E-01 0.30755726E+03</pdfrwt>
<pdfrwt beam="2">  1       21 0.50106407E-01 0.30755726E+03</pdfrwt>
<totfact> 0.15347311E+04</totfact>
</mgrwt>
</event>
<event>
 5    0  0.1324511E+000  0.2552785E+03  0.7546771E-02  0.1110014E+00
         21   -1    0    0  504  501  0.00000000000E+00  0.00000000000E+00  0.39897980863E+03  0.39897980863E+03  0.00000000000E+00 0. -1.
         21   -1    0    0  501  502 -0.00000000000E+00 -0.00000000000E+00 -0.45950588678E+03  0.45950588678E+03  0.00000000000E+00 0. -1.
         25    1    1    2    0    0  0.21940305843E+03 -0.37475508219E+02 -0.38542980584E+03  0.46230212091E+03  0.12500000000E+03 0.  0.
         21    1    1    2  503  502 -0.37281578386E+02  0.22671072896E+02  0.54161939096E+02  0.69551486539E+02  0.00000000000E+00 0. -1.
         21    1    1    2  504  503 -0.18212148005E+03  0.14804435323E+02  0.27074178860E+03  0.32663208797E+03  0.00000000000E+00 0. -1.
<mgrwt>
<rscale>  4 0.25527851E+03</rscale>
<asrwt>0</asrwt>
<pdfrwt beam="1">  1       21 0.61381509E-01 0.25527851E+03</pdfrwt>
<pdfrwt beam="2">  1       21 0.70693214E-01 0.25527851E+03</pdfrwt>
<totfact> 0.42784174E+03</totfact>
</mgrwt>
</event>
<event>
 5    0  0.1324511E+000  0.2702330E+03  0.7546771E-02  0.1101146E+00
         21   -1    0    0  504  501  0.00000000000E+00  0.00000000000E+00  0.31481916874E+03  0.31481916874E+03  0.00000000000E+00 0.  1.
         21   -1    0    0  501  502 -0.00000000000E+00 -0.00000000000E+00 -0.23740506388E+03  0.23740506388E+03  0.00000000000E+00 0. -1.
         25    1    1    2    0    0 -0.24644150412E+03 -0.44000658153E+02  0.80829028302E+01  0.27992821613E+03  0.12500000000E+03 0.  0.
         21    1    1    2  503  502  0.22790187780E+03  0.28134323247E+02  0.38275016243E+02  0.23279987740E+03  0.00000000000E+00 0.  1.
         21    1    1    2  504  503  0.18539626321E+02  0.15866334906E+02  0.31056185787E+02  0.39496139091E+02  0.00000000000E+00 0. -1.
<mgrwt>
<rscale>  4 0.27023300E+03</rscale>
<asrwt>0</asrwt>
<pdfrwt beam="1">  1       21 0.48433718E-01 0.27023300E+03</pdfrwt>
<pdfrwt beam="2">  1       21 0.36523856E-01 0.27023300E+03</pdfrwt>
<totfact> 0.28344635E+04</totfact>
</mgrwt>
</event>
<event>
 5    0  0.1324511E+000  0.2789120E+03  0.7546771E-02  0.1096285E+00
         21   -1    0    0  504  501  0.00000000000E+00  0.00000000000E+00  0.16617074266E+04  0.16617074266E+04  0.00000000000E+00 0.  1.
         21   -1    0    0  501  502 -0.00000000000E+00 -0.00000000000E+00 -0.13494891769E+03  0.13494891769E+03  0.00000000000E+00 0.  1.
         25    1    1    2    0    0  0.19565320624E+03  0.15455333517E+03  0.33111651662E+02  0.28087059654E+03  0.12500000000E+03 0.  0.
         21    1    1    2  503  502 -0.17779187923E+02 -0.19428522465E+02  0.71364708794E+02  0.76068973107E+02  0.00000000000E+00 0. -1.
         21    1    1    2  504  503 -0.17787401831E+03 -0.13512481271E+03  0.14222821484E+04  0.14397167746E+04  0.00000000000E+00 0.  1.
<mgrwt>
<rscale>  4 0.27891201E+03</rscale>
<asrwt>0</asrwt>
<pdfrwt beam="1">  1       21 0.25564728E+00 0.27891201E+03</pdfrwt>
<pdfrwt beam="2">  1       21 0.20761373E-01 0.27891201E+03</pdfrwt>
<totfact> 0.12147492E+03</totfact>
</mgrwt>
</event>
<event>
 5    0  0.1324511E+000  0.2801611E+03  0.7546771E-02  0.1095601E+00
         21   -1    0    0  504  501  0.00000000000E+00  0.00000000000E+00  0.10429739539E+04  0.10429739539E+04  0.00000000000E+00 0. -1.
         21   -1    0    0  501  502 -0.00000000000E+00 -0.00000000000E+00 -0.14804310815E+03  0.14804310815E+03  0.00000000000E+00 0. -1.
         25    1    1    2    0    0  0.20442185241E+03  0.14517903644E+03  0.21370746428E+02  0.28097500808E+03  0.12500000000E+03 0.  0.
         21    1    1    2  503  502 -0.58160430087E+02 -0.19989984998E+02  0.24900838949E+03  0.25649057130E+03  0.00000000000E+00 0. -1.
         21    1    1    2  504  503 -0.14626142232E+03 -0.12518905144E+03  0.62455170983E+03  0.65355148268E+03  0.00000000000E+00 0. -1.
<mgrwt>
<rscale>  4 0.28016111E+03</rscale>
<asrwt>0</asrwt>
<pdfrwt beam="1">  1       21 0.16045753E+00 0.28016111E+03</pdfrwt>
<pdfrwt beam="2">  1       21 0.22775863E-01 0.28016111E+03</pdfrwt>
<totfact> 0.42326439E+03</totfact>
</mgrwt>
</event>
<event>
 5    0  0.1324511E+000  0.2985914E+03  0.7546771E-02  0.1085947E+00
         21   -1    0    0  504  501  0.00000000000E+00  0.00000000000E+00  0.23553816487E+03  0.23553816487E+03  0.00000000000E+00 0.  1.
         21   -1    0    0  501  502 -0.00000000000E+00 -0.00000000000E+00 -0.62604568263E+03  0.62604568263E+03  0.00000000000E+00 0.  1.
         25    1    1    2    0    0  0.20604151875E+03  0.17629155986E+03 -0.47486652160E+03  0.56094120446E+03  0.12500000000E+03 0.  0.
         21    1    1    2  503  502 -0.17330346077E+03 -0.11142961045E+03  0.95579344611E+02  0.22712564522E+03  0.00000000000E+00 0.  1.
         21    1    1    2  504  503 -0.32738057980E+02 -0.64861949412E+02 -0.11220340771E+02  0.73516997823E+02  0.00000000000E+00 0.  1.
<mgrwt>
<rscale>  4 0.29859140E+03</rscale>
<asrwt>0</asrwt>
<pdfrwt beam="1">  1       21 0.36236641E-01 0.29859140E+03</pdfrwt>
<pdfrwt beam="2">  1       21 0.96314719E-01 0.29859140E+03</pdfrwt>
<totfact> 0.61670983E+03</totfact>
</mgrwt>
</event>
<event>
 5    0  0.1324511E+000  0.3178454E+03  0.7546771E-02  0.1076645E+00
         21   -1    0    0  504  501  0.00000000000E+00  0.00000000000E+00  0.54591579145E+03  0.54591579145E+03  0.00000000000E+00 0.  1.
         21   -1    0    0  501  502 -0.00000000000E+00 -0.00000000000E+00 -0.19212960577E+03  0.19212960577E+03  0.00000000000E+00 0. -1.
         25    1    1    2    0    0  0.24836914026E+03  0.15399185142E+03  0.74005080424E+02  0.32634716494E+03  0.12500000000E+03 0.  0.
         21    1    1    2  503  502 -0.20919956271E+02 -0.34940454067E+02  0.16409366707E+02  0.43906118213E+02  0.00000000000E+00 0. -1.
         21    1    1    2  504  503 -0.22744918399E+03 -0.11905139735E+03  0.26337173855E+03  0.36779211407E+03  0.00000000000E+00 0.  1.
<mgrwt>
<rscale>  4 0.31784543E+03</rscale>
<asrwt>0</asrwt>
<pdfrwt beam="1">  1       21 0.83987044E-01 0.31784543E+03</pdfrwt>
<pdfrwt beam="2">  1       21 0.29558401E-01 0.31784543E+03</pdfrwt>
<totfact> 0.12644521E+04</totfact>
</mgrwt>
</event>
<event>
 5    0  0.1324511E+000  0.2151487E+03  0.7546771E-02  0.1137552E+00
         21   -1    0    0  504  501  0.00000000000E+00  0.00000000000E+00  0.14315758956E+03  0.14315758956E+03  0.00000000000E+00 0.  1.
         21   -1    0    0  501  502 -0.00000000000E+00 -0.00000000000E+00 -0.51764496644E+03  0.51764496644E+03  0.00000000000E+00 0.  1.
         25    1    1    2    0    0 -0.20975290004E+03 -0.21731247083E+02 -0.32896054893E+03  0.41025427351E+03  0.12500000000E+03 0.  0.
         21    1    1    2  503  502  0.86631837443E+02  0.71517564920E+02 -0.33356154083E+02  0.11718562355E+03  0.00000000000E+00 0.  1.
         21    1    1    2  504  503  0.12312106260E+03 -0.49786317837E+02 -0.12170673865E+02  0.13336265895E+03  0.00000000000E+00 0.  1.
<mgrwt>
<rscale>  4 0.21514869E+03</rscale>
<asrwt>0</asrwt>
<pdfrwt beam="1">  1       21 0.22024245E-01 0.21514869E+03</pdfrwt>
<pdfrwt beam="2">  1       21 0.79637686E-01 0.21514869E+03</pdfrwt>
<totfact> 0.26429432E+04</totfact>
</mgrwt>
</event>
<event>
 5    0  0.1324511E+000  0.4409431E+03  0.7546771E-02  0.1030458E+00
         21   -1    0    0  504  501  0.00000000000E+00  0.00000000000E+00  0.10394593024E+04  0.10394593024E+04  0.00000000000E+00 0.  1.
         21   -1    0    0  501  502 -0.00000000000E+00 -0.00000000000E+00 -0.18306883911E+03  0.18306883911E+03  0.00000000000E+00 0.  1.
         25    1    1    2    0    0  0.69184975704E+01 -0.42279773258E+03  0.38667116066E+03  0.58646856248E+03  0.12500000000E+03 0.  0.
         21    1    1    2  503  502 -0.13463778856E+02  0.35125106286E+03  0.42460486665E+03  0.55122397924E+03  0.00000000000E+00 0.  1.
         21    1    1    2  504  503  0.65452812860E+01  0.71546669717E+02  0.45114435927E+02  0.84835599743E+02  0.00000000000E+00 0.  1.
<mgrwt>
<rscale>  4 0.44094307E+03</rscale>
<asrwt>0</asrwt>
<pdfrwt beam="1">  1       21 0.15991681E+00 0.44094307E+03</pdfrwt>
<pdfrwt beam="2">  1       21 0.28164437E-01 0.44094307E+03</pdfrwt>
<totfact> 0.26164286E+03</totfact>
</mgrwt>
</event>
<event>
 5    0  0.1324511E+000  0.3521581E+03  0.7546771E-02  0.1061733E+00
         21   -1    0    0  504  501  0.00000000000E+00  0.00000000000E+00  0.29342309503E+03  0.29342309503E+03  0.00000000000E+00 0. -1.
         21   -1    0    0  501  502 -0.00000000000E+00 -0.00000000000E+00 -0.47078849208E+03  0.47078849208E+03  0.00000000000E+00 0. -1.
         25    1    1    2    0    0  0.33196692760E+03  0.12154580182E+02 -0.15639930818E+03  0.38786017898E+03  0.12500000000E+03 0.  0.
         21    1    1    2  503  502 -0.32180356823E+03 -0.58966676847E+02 -0.10561855306E+02  0.32733187790E+03  0.00000000000E+00 0. -1.
         21    1    1    2  504  503 -0.10163359374E+02  0.46812096666E+02 -0.10404233569E+02  0.49019530232E+02  0.00000000000E+00 0. -1.
<mgrwt>
<rscale>  4 0.35215813E+03</rscale>
<asrwt>0</asrwt>
<pdfrwt beam="1">  1       21 0.45142015E-01 0.35215813E+03</pdfrwt>
<pdfrwt beam="2">  1       21 0.72428999E-01 0.35215813E+03</pdfrwt>
<totfact> 0.74210352E+03</totfact>
</mgrwt>
</event>
<event>
 5    0  0.1324511E+000  0.2658888E+03  0.7546771E-02  0.1103656E+00
         21   -1    0    0  504  501  0.00000000000E+00  0.00000000000E+00  0.24266689671E+04  0.24266689671E+04  0.00000000000E+00 0.  1.
         21   -1    0    0  501  502 -0.00000000000E+00 -0.00000000000E+00 -0.30036922168E+02  0.30036922168E+02  0.00000000000E+00 0.  1.
         25    1    1    2    0    0 -0.20536989941E+03  0.11355649508E+03  0.16932741930E+04  0.17140228603E+04  0.12500000000E+03 0.  0.
         21    1    1    2  503  502  0.33180869670E+02 -0.70857032969E+01  0.70632503605E+02  0.78358968017E+02  0.00000000000E+00 0. -1.
         21    1    1    2  504  503  0.17218902974E+03 -0.10647079178E+03  0.63272534838E+03  0.66432406094E+03  0.00000000000E+00 0.  1.
<mgrwt>
<rscale>  4 0.26588884E+03</rscale>
<asrwt>0</asrwt>
<pdfrwt beam="1">  1       21 0.37333353E+00 0.26588884E+03</pdfrwt>
<pdfrwt beam="2">  1       21 0.46210668E-02 0.26588884E+03</pdfrwt>
<totfact> 0.35866920E+03</totfact>
</mgrwt>
</event>
<event>
 5    0  0.1324511E+000  0.2255743E+03  0.7546771E-02  0.1129794E+00
         21   -1    0    0  504  501  0.00000000000E+00  0.00000000000E+00  0.22525988198E+03  0.22525988198E+03  0.00000000000E+00 0.  1.
         21   -1    0    0  501  502 -0.00000000000E+00 -0.00000000000E+00 -0.45234648594E+03  0.45234648594E+03  0.00000000000E+00 0.  1.
         25    1    1    2    0    0 -0.24844024247E+03  0.19153159649E+02  0.26074420005E+02  0.27998977300E+03  0.12500000000E+03 0.  0.
         21    1    1    2  503  502  0.17691927192E+03 -0.95771136985E+01 -0.27053957068E+03  0.32339420092E+03  0.00000000000E+00 0.  1.
         21    1    1    2  504  503  0.71520970552E+02 -0.95760459508E+01  0.17378546720E+02  0.74222393998E+02  0.00000000000E+00 0.  1.
<mgrwt>
<rscale>  4 0.22557434E+03</rscale>
<asrwt>0</asrwt>
<pdfrwt beam="1">  1       21 0.34655367E-01 0.22557434E+03</pdfrwt>
<pdfrwt beam="2">  1       21 0.69591767E-01 0.22557434E+03</pdfrwt>
<totfact> 0.14761411E+04</totfact>
</mgrwt>
</event>
<event>
 5    0  0.1324511E+000  0.2851001E+03  0.7546771E-02  0.1092936E+00
         21   -1    0    0  504  501  0.00000000000E+00  0.00000000000E+00  0.10546514256E+03  0.10546514256E+03  0.00000000000E+00 0. -1.
         21   -1    0    0  501  502 -0.00000000000E+00 -0.00000000000E+00 -0.75989932643E+03  0.75989932643E+03  0.00000000000E+00 0. -1.
         25    1    1    2    0    0  0.25531945912E+03 -0.21657011990E+02 -0.40769777463E+03  0.49749324398E+03  0.12500000000E+03 0.  0.
         21    1    1    2  503  502 -0.74930716459E+02 -0.99702460125E+01 -0.23574864357E+02  0.79182020081E+02  0.00000000000E+00 0. -1.
         21    1    1    2  504  503 -0.18038874266E+03  0.31627258003E+02 -0.22316154488E+03  0.28868920493E+03  0.00000000000E+00 0. -1.
<mgrwt>
<rscale>  4 0.28510007E+03</rscale>
<asrwt>0</asrwt>
<pdfrwt beam="1">  1       21 0.16225406E-01 0.28510007E+03</pdfrwt>
<pdfrwt beam="2">  1       21 0.11690759E+00 0.28510007E+03</pdfrwt>
<totfact> 0.18197770E+04</totfact>
</mgrwt>
</event>
<event>
 5    0  0.1324511E+000  0.3004814E+03  0.7546771E-02  0.1085000E+00
         21   -1    0    0  504  501  0.00000000000E+00  0.00000000000E+00  0.27394095772E+03  0.27394095772E+03  0.00000000000E+00 0. -1.
         21   -1    0    0  501  502 -0.00000000000E+00 -0.00000000000E+00 -0.32063381322E+03  0.32063381322E+03  0.00000000000E+00 0. -1.
         25    1    1    2    0    0 -0.26997953891E+03 -0.42132181141E+02 -0.87303974436E+02  0.31290742412E+03  0.12500000000E+03 0.  0.
         21    1    1    2  503  502  0.18455696862E+02  0.17741013504E+02 -0.69836472936E+00  0.25609451773E+02  0.00000000000E+00 0.  1.
         21    1    1    2  504  503  0.25152384205E+03  0.24391167637E+02  0.41309483663E+02  0.25605789505E+03  0.00000000000E+00 0. -1.
<mgrwt>
<rscale>  4 0.30048140E+03</rscale>
<asrwt>0</asrwt>
<pdfrwt beam="1">  1       21 0.42144763E-01 0.30048140E+03</pdfrwt>
<pdfrwt beam="2">  1       21 0.49328279E-01 0.30048140E+03</pdfrwt>
<totfact> 0.20139518E+04</totfact>
</mgrwt>
</event>
<event>
 5    0  0.1324511E+000  0.3169282E+03  0.7546771E-02  0.1077072E+00
         21   -1    0    0  504  501  0.00000000000E+00  0.00000000000E+00  0.17927498806E+03  0.17927498806E+03  0.00000000000E+00 0. -1.
         21   -1    0    0  501  502 -0.00000000000E+00 -0.00000000000E+00 -0.54490354275E+03  0.54490354275E+03  0.00000000000E+00 0. -1.
         25    1    1    2    0    0  0.21925910464E+03  0.19168700522E+03 -0.14126351005E+03  0.34698536310E+03  0.12500000000E+03 0.  0.
         21    1    1    2  503  502 -0.28831467828E+02 -0.73816888661E+02 -0.59574087462E+02  0.99142616899E+02  0.00000000000E+00 0.  1.
         21    1    1    2  504  503 -0.19042763681E+03 -0.11787011655E+03 -0.16479095718E+03  0.27805055081E+03  0.00000000000E+00 0. -1.
<mgrwt>
<rscale>  4 0.31692817E+03</rscale>
<asrwt>0</asrwt>
<pdfrwt beam="1">  1       21 0.27580768E-01 0.31692817E+03</pdfrwt>
<pdfrwt beam="2">  1       21 0.83831314E-01 0.31692817E+03</pdfrwt>
<totfact> 0.14551377E+04</totfact>
</mgrwt>
</event>
<event>
 5    0  0.1324511E+000  0.3872663E+03  0.7546771E-02  0.1048280E+00
         21   -1    0    0  504  501  0.00000000000E+00  0.00000000000E+00  0.11310068600E+03  0.11310068600E+03  0.00000000000E+00 0.  1.
         21   -1    0    0  501  502 -0.00000000000E+00 -0.00000000000E+00 -0.13703284291E+04  0.13703284291E+04  0.00000000000E+00 0.  1.
         25    1    1    2    0    0  0.20664208676E+03  0.30795930022E+03 -0.77709166282E+03  0.87007834994E+03  0.12500000000E+03 0.  0.
         21    1    1    2  503  502 -0.21531786553E+03 -0.28974405203E+03 -0.46122390980E+03  0.58569693006E+03  0.00000000000E+00 0.  1.
         21    1    1    2  504  503  0.86757787739E+01 -0.18215248190E+02 -0.18912170474E+02  0.27653835105E+02  0.00000000000E+00 0.  1.
<mgrwt>
<rscale>  4 0.38726628E+03</rscale>
<asrwt>0</asrwt>
<pdfrwt beam="1">  1       21 0.17400106E-01 0.38726628E+03</pdfrwt>
<pdfrwt beam="2">  1       21 0.21081975E+00 0.38726628E+03</pdfrwt>
<totfact> 0.29928843E+03</totfact>
</mgrwt>
</event>
<event>
 5    0  0.1324511E+000  0.2583626E+03  0.7546771E-02  0.1108131E+00
         21   -1    0    0  504  501  0.00000000000E+00  0.00000000000E+00  0.17156636199E+04  0.17156636199E+04  0.00000000000E+00 0.  1.
         21   -1    0    0  501  502 -0.00000000000E+00 -0.00000000000E+00 -0.42608329903E+03  0.42608329903E+03  0.00000000000E+00 0.  1.
         25    1    1    2    0    0  0.84633000622E+02 -0.21146697350E+03 -0.37548681159E+03  0.45661402887E+03  0.12500000000E+03 0.  0.
         21    1    1    2  503  502 -0.58819268427E+02  0.25070748055E+02  0.61725296029E+03  0.62055577165E+03  0.00000000000E+00 0.  1.
         21    1    1    2  504  503 -0.25813732195E+02  0.18639622545E+03  0.10478141721E+04  0.10645771184E+04  0.00000000000E+00 0.  1.
<mgrwt>
<rscale>  4 0.25836259E+03</rscale>
<asrwt>0</asrwt>
<pdfrwt beam="1">  1       21 0.26394825E+00 0.25836259E+03</pdfrwt>
<pdfrwt beam="2">  1       21 0.65551278E-01 0.25836259E+03</pdfrwt>
<totfact> 0.10801339E+02</totfact>
</mgrwt>
</event>
<event>
 5    0  0.1324511E+000  0.3512215E+03  0.7546771E-02  0.1062115E+00
         21   -1    0    0  504  501  0.00000000000E+00  0.00000000000E+00  0.13688698287E+03  0.13688698287E+03  0.00000000000E+00 0. -1.
         21   -1    0    0  501  502 -0.00000000000E+00 -0.00000000000E+00 -0.86893396543E+03  0.86893396543E+03  0.00000000000E+00 0. -1.
         25    1    1    2    0    0  0.31852198745E+03  0.79216514871E+02 -0.33880168810E+03  0.48799907436E+03  0.12500000000E+03 0.  0.
         21    1    1    2  503  502 -0.25265888747E+03 -0.29929885269E+02 -0.28925713409E+03  0.38522980294E+03  0.00000000000E+00 0. -1.
         21    1    1    2  504  503 -0.65863099975E+02 -0.49286629602E+02 -0.10398816037E+03  0.13259207100E+03  0.00000000000E+00 0. -1.
<mgrwt>
<rscale>  4 0.35122146E+03</rscale>
<asrwt>0</asrwt>
<pdfrwt beam="1">  1       21 0.21059536E-01 0.35122146E+03</pdfrwt>
<pdfrwt beam="2">  1       21 0.13368215E+00 0.35122146E+03</pdfrwt>
<totfact> 0.77099198E+03</totfact>
</mgrwt>
</event>
<event>
 5    0  0.1324511E+000  0.2368465E+03  0.7546771E-02  0.1121912E+00
         21   -1    0    0  504  501  0.00000000000E+00  0.00000000000E+00  0.18450282022E+03  0.18450282022E+03  0.00000000000E+00 0. -1.
         21   -1    0    0  501  502 -0.00000000000E+00 -0.00000000000E+00 -0.15534587917E+04  0.15534587917E+04  0.00000000000E+00 0. -1.
         25    1    1    2    0    0 -0.16355947534E+03  0.11713054423E+03 -0.14837058158E+04  0.15024910030E+04  0.12500000000E+03 0.  0.
         21    1    1    2  503  502  0.13439536757E+03 -0.85627391784E+02  0.71933851119E+02  0.17483890867E+03  0.00000000000E+00 0. -1.
         21    1    1    2  504  503  0.29164107773E+02 -0.31503152450E+02  0.42815993209E+02  0.60631700215E+02  0.00000000000E+00 0. -1.
<mgrwt>
<rscale>  4 0.23684650E+03</rscale>
<asrwt>0</asrwt>
<pdfrwt beam="1">  1       21 0.28385048E-01 0.23684650E+03</pdfrwt>
<pdfrwt beam="2">  1       21 0.23899367E+00 0.23684650E+03</pdfrwt>
<totfact> 0.87225306E+02</totfact>
</mgrwt>
</event>
<event>
 5    0  0.1324511E+000  0.2771649E+03  0.7546771E-02  0.1097248E+00
         21   -1    0    0  504  501  0.00000000000E+00  0.00000000000E+00  0.36996472625E+03  0.36996472625E+03  0.00000000000E+00 0.  1.
         21   -1    0    0  501  502 -0.00000000000E+00 -0.00000000000E+00 -0.28161039411E+03  0.28161039411E+03  0.00000000000E+00 0.  1.
         25    1    1    2    0    0 -0.83643727254E+02 -0.25942208295E+03  0.27815889353E+02  0.30115579678E+03  0.12500000000E+03 0.  0.
         21    1    1    2  503  502 -0.33826962877E+01  0.41286868230E+02 -0.70286135624E+02  0.81585470418E+02  0.00000000000E+00 0. -1.
         21    1    1    2  504  503  0.87026423541E+02  0.21813521472E+03  0.13082457840E+03  0.26883385317E+03  0.00000000000E+00 0.  1.
<mgrwt>
<rscale>  4 0.27716489E+03</rscale>
<asrwt>0</asrwt>
<pdfrwt beam="1">  1       21 0.56917650E-01 0.27716489E+03</pdfrwt>
<pdfrwt beam="2">  1       21 0.43324676E-01 0.27716489E+03</pdfrwt>
<totfact> 0.14178280E+04</totfact>
</mgrwt>
</event>
<event>
 5    0  0.1324511E+000  0.4240146E+03  0.7546771E-02  0.1035768E+00
         21   -1    0    0  504  501  0.00000000000E+00  0.00000000000E+00  0.23189230897E+04  0.23189230897E+04  0.00000000000E+00 0. -1.
         21   -1    0    0  501  502 -0.00000000000E+00 -0.00000000000E+00 -0.12829245298E+03  0.12829245298E+03  0.00000000000E+00 0.  1.
         25    1    1    2    0    0  0.38053223226E+03 -0.14185479020E+03  0.33341745816E+03  0.54011088000E+03  0.12500000000E+03 0.  0.
         21    1    1    2  503  502  0.55313962416E+01  0.29163817605E+02  0.92586909873E+02  0.97228907643E+02  0.00000000000E+00 0. -1.
         21    1    1    2  504  503 -0.38606362850E+03  0.11269097259E+03  0.17646262687E+04  0.18098757551E+04  0.00000000000E+00 0. -1.
<mgrwt>
<rscale>  4 0.42401459E+03</rscale>
<asrwt>0</asrwt>
<pdfrwt beam="1">  1       21 0.35675737E+00 0.42401459E+03</pdfrwt>
<pdfrwt beam="2">  1       21 0.19737302E-01 0.42401459E+03</pdfrwt>
<totfact> 0.29770711E+02</totfact>
</mgrwt>
</event>
<event>
 5    0  0.1324511E+000  0.3382715E+03  0.7546771E-02  0.1067535E+00
         21   -1    0    0  504  501  0.00000000000E+00  0.00000000000E+00  0.32594362842E+03  0.32594362842E+03  0.00000000000E+00 0. -1.
         21   -1    0    0  501  502 -0.00000000000E+00 -0.00000000000E+00 -0.33336827210E+03  0.33336827210E+03  0.00000000000E+00 0.  1.
         25    1    1    2    0    0  0.31362710496E+03 -0.20991606499E+02 -0.39046050114E+02  0.34051755100E+03  0.12500000000E+03 0.  0.
         21    1    1    2  503  502 -0.27817853859E+03  0.73805488046E+01  0.35898447708E+02  0.28058237717E+03  0.00000000000E+00 0. -1.
         21    1    1    2  504  503 -0.35448566372E+02  0.13611057694E+02 -0.42770412751E+01  0.38211972358E+02  0.00000000000E+00 0.  1.
<mgrwt>
<rscale>  4 0.33827150E+03</rscale>
<asrwt>0</asrwt>
<pdfrwt beam="1">  1       21 0.50145173E-01 0.33827150E+03</pdfrwt>
<pdfrwt beam="2">  1       21 0.51287427E-01 0.33827150E+03</pdfrwt>
<totfact> 0.12720625E+04</totfact>
</mgrwt>
</event>
<event>
 5    0  0.1324511E+000  0.2899313E+03  0.7546771E-02  0.1090385E+00
         21   -1    0    0  504  501  0.00000000000E+00  0.00000000000E+00  0.19304566577E+03  0.19304566577E+03  0.00000000000E+00 0.  1.
         21   -1    0    0  501  502 -0.00000000000E+00 -0.00000000000E+00 -0.56322578851E+03  0.56322578851E+03  0.00000000000E+00 0.  1.
         25    1    1    2    0    0 -0.26068400695E+03 -0.21886622076E+02 -0.39499824750E+03  0.48998346017E+03  0.12500000000E+03 0.  0.
         21    1    1    2  503  502  0.24213601888E+03  0.31163372289E+02  0.19696628142E+02  0.24492644726E+03  0.00000000000E+00 0.  1.
         21    1    1    2  504  503  0.18547988080E+02 -0.92767502123E+01  0.51214966193E+01  0.21361546852E+02  0.00000000000E+00 0. -1.
<mgrwt>
<rscale>  4 0.28993133E+03</rscale>
<asrwt>0</asrwt>
<pdfrwt beam="1">  1       21 0.29699333E-01 0.28993133E+03</pdfrwt>
<pdfrwt beam="2">  1       21 0.86650122E-01 0.28993133E+03</pdfrwt>
<totfact> 0.11794787E+04</totfact>
</mgrwt>
</event>
<event>
 5    0  0.1324511E+000  0.3161360E+03  0.7546771E-02  0.1077442E+00
         21   -1    0    0  504  501  0.00000000000E+00  0.00000000000E+00  0.78573614296E+03  0.78573614296E+03  0.00000000000E+00 0.  1.
         21   -1    0    0  501  502 -0.00000000000E+00 -0.00000000000E+00 -0.61484381949E+03  0.61484381949E+03  0.00000000000E+00 0.  1.
         25    1    1    2    0    0 -0.29020226106E+03  0.99798305636E+01 -0.53924687450E+03  0.62508330725E+03  0.12500000000E+03 0.  0.
         21    1    1    2  503  502  0.43528423274E+02 -0.32785115286E+02  0.67422477550E+02  0.86691279239E+02  0.00000000000E+00 0.  1.
         21    1    1    2  504  503  0.24667383779E+03  0.22805284723E+02  0.64271672042E+03  0.68880537597E+03  0.00000000000E+00 0.  1.
<mgrwt>
<rscale>  4 0.31613597E+03</rscale>
<asrwt>0</asrwt>
<pdfrwt beam="1">  1       21 0.12088248E+00 0.31613597E+03</pdfrwt>
<pdfrwt beam="2">  1       21 0.94591357E-01 0.31613597E+03</pdfrwt>
<totfact> 0.43529024E+02</totfact>
</mgrwt>
</event>
<event>
 5    0  0.1324511E+000  0.2408227E+03  0.7546771E-02  0.1119246E+00
         21   -1    0    0  504  501  0.00000000000E+00  0.00000000000E+00  0.58397378773E+03  0.58397378773E+03  0.00000000000E+00 0. -1.
         21   -1    0    0  501  502 -0.00000000000E+00 -0.00000000000E+00 -0.94120559342E+02  0.94120559342E+02  0.00000000000E+00 0.  1.
         25    1    1    2    0    0 -0.13993508431E+03 -0.15095945545E+03  0.21477311410E+03  0.32268107405E+03  0.12500000000E+03 0.  0.
         21    1    1    2  503  502  0.46720651742E+00  0.52109002145E+02  0.45500140217E+02  0.69179687382E+02  0.00000000000E+00 0. -1.
         21    1    1    2  504  503  0.13946787779E+03  0.98850453300E+02  0.22957997407E+03  0.28623358564E+03  0.00000000000E+00 0. -1.
<mgrwt>
<rscale>  4 0.24082273E+03</rscale>
<asrwt>0</asrwt>
<pdfrwt beam="1">  1       21 0.89842119E-01 0.24082273E+03</pdfrwt>
<pdfrwt beam="2">  1       21 0.14480086E-01 0.24082273E+03</pdfrwt>
<totfact> 0.43100763E+04</totfact>
</mgrwt>
</event>
<event>
 5    0  0.1324511E+000  0.2520941E+03  0.7546771E-02  0.1111988E+00
         21   -1    0    0  504  501  0.00000000000E+00  0.00000000000E+00  0.11855389748E+03  0.11855389748E+03  0.00000000000E+00 0.  1.
         21   -1    0    0  501  502 -0.00000000000E+00 -0.00000000000E+00 -0.51916530230E+03  0.51916530230E+03  0.00000000000E+00 0. -1.
         25    1    1    2    0    0 -0.54598415020E+01 -0.21885302007E+03 -0.30645091019E+03  0.39681685274E+03  0.12500000000E+03 0.  0.
         21    1    1    2  503  502  0.75768160113E+01  0.19059303836E+03 -0.93803172935E+02  0.21256093165E+03  0.00000000000E+00 0.  1.
         21    1    1    2  504  503 -0.21169745093E+01  0.28259981708E+02 -0.35732169744E+00  0.28341415385E+02  0.00000000000E+00 0. -1.
<mgrwt>
<rscale>  4 0.25209414E+03</rscale>
<asrwt>0</asrwt>
<pdfrwt beam="1">  1       21 0.18239061E-01 0.25209414E+03</pdfrwt>
<pdfrwt beam="2">  1       21 0.79871586E-01 0.25209414E+03</pdfrwt>
<totfact> 0.36744237E+04</totfact>
</mgrwt>
</event>
<event>
 5    0  0.1324511E+000  0.2443660E+03  0.7546771E-02  0.1116918E+00
         21   -1    0    0  504  501  0.00000000000E+00  0.00000000000E+00  0.13565713501E+03  0.13565713501E+03  0.00000000000E+00 0. -1.
         21   -1    0    0  501  502 -0.00000000000E+00 -0.00000000000E+00 -0.58237291637E+03  0.58237291637E+03  0.00000000000E+00 0. -1.
         25    1    1    2    0    0 -0.20821521697E+03  0.27132352047E+02 -0.43043315443E+03  0.49496206070E+03  0.12500000000E+03 0.  0.
         21    1    1    2  503  502  0.18007197684E+03  0.25173425682E+01 -0.31030568335E+01  0.18011630359E+03  0.00000000000E+00 0. -1.
         21    1    1    2  504  503  0.28143240130E+02 -0.29649694615E+02 -0.13179570096E+02  0.42951687088E+02  0.00000000000E+00 0.  1.
<mgrwt>
<rscale>  4 0.24436600E+03</rscale>
<asrwt>0</asrwt>
<pdfrwt beam="1">  1       21 0.20870328E-01 0.24436600E+03</pdfrwt>
<pdfrwt beam="2">  1       21 0.89595834E-01 0.24436600E+03</pdfrwt>
<totfact> 0.21987558E+04</totfact>
</mgrwt>
</event>
<event>
 5    0  0.1324511E+000  0.2494221E+03  0.7546771E-02  0.1113671E+00
         21   -1    0    0  504  501  0.00000000000E+00  0.00000000000E+00  0.19513892345E+03  0.19513892345E+03  0.00000000000E+00 0.  1.
         21   -1    0    0  501  502 -0.00000000000E+00 -0.00000000000E+00 -0.55813934748E+03  0.55813934748E+03  0.00000000000E+00 0.  1.
         25    1    1    2    0    0  0.39598012813E+02  0.21631272257E+03 -0.43990107970E+03  0.50744177645E+03  0.12500000000E+03 0.  0.
         21    1    1    2  503  502  0.93577057588E+01 -0.21270463617E+02  0.32412238892E+02  0.39881731527E+02  0.00000000000E+00 0.  1.
         21    1    1    2  504  503 -0.48955718572E+02 -0.19504225895E+03  0.44488416770E+02  0.20595476296E+03  0.00000000000E+00 0.  1.
<mgrwt>
<rscale>  4 0.24942215E+03</rscale>
<asrwt>0</asrwt>
<pdfrwt beam="1">  1       21 0.30021373E-01 0.24942215E+03</pdfrwt>
<pdfrwt beam="2">  1       21 0.85867591E-01 0.24942215E+03</pdfrwt>
<totfact> 0.12033430E+04</totfact>
</mgrwt>
</event>
<event>
 5    0  0.1324511E+000  0.3293795E+03  0.7546771E-02  0.1071412E+00
         21   -1    0    0  504  501  0.00000000000E+00  0.00000000000E+00  0.95246452044E+03  0.95246452044E+03  0.00000000000E+00 0. -1.
         21   -1    0    0  501  502 -0.00000000000E+00 -0.00000000000E+00 -0.11122619561E+03  0.11122619561E+03  0.00000000000E+00 0. -1.
         25    1    1    2    0    0  0.30440815651E+03 -0.14196114808E+02  0.37868310365E+03  0.50188818318E+03  0.12500000000E+03 0.  0.
         21    1    1    2  503  502 -0.26696291240E+02  0.20202516174E+02  0.97456261643E+02  0.10304638062E+03  0.00000000000E+00 0. -1.
         21    1    1    2  504  503 -0.27771186527E+03 -0.60064013656E+01  0.36509895954E+03  0.45875615225E+03  0.00000000000E+00 0. -1.
<mgrwt>
<rscale>  4 0.32937950E+03</rscale>
<asrwt>0</asrwt>
<pdfrwt beam="1">  1       21 0.14653300E+00 0.32937950E+03</pdfrwt>
<pdfrwt beam="2">  1       21 0.17111723E-01 0.32937950E+03</pdfrwt>
<totfact> 0.90361806E+03</totfact>
</mgrwt>
</event>
<event>
 5    0  0.1324511E+000  0.2612179E+03  0.7546771E-02  0.1106414E+00
         21   -1    0    0  504  501  0.00000000000E+00  0.00000000000E+00  0.77831942804E+03  0.77831942804E+03  0.00000000000E+00 0.  1.
         21   -1    0    0  501  502 -0.00000000000E+00 -0.00000000000E+00 -0.45858779264E+03  0.45858779264E+03  0.00000000000E+00 0. -1.
         25    1    1    2    0    0  0.55146271287E+02 -0.22196217159E+03 -0.37268557378E+03  0.45478330417E+03  0.12500000000E+03 0.  0.
         21    1    1    2  503  502  0.66631042696E+02  0.50712605637E+01  0.27602751479E+02  0.72300244977E+02  0.00000000000E+00 0. -1.
         21    1    1    2  504  503 -0.12177731398E+03  0.21689091102E+03  0.66481445770E+03  0.70982367152E+03  0.00000000000E+00 0.  1.
<mgrwt>
<rscale>  4 0.26121790E+03</rscale>
<asrwt>0</asrwt>
<pdfrwt beam="1">  1       21 0.11974145E+00 0.26121790E+03</pdfrwt>
<pdfrwt beam="2">  1       21 0.70551968E-01 0.26121790E+03</pdfrwt>
<totfact> 0.90929371E+02</totfact>
</mgrwt>
</event>
<event>
 5    0  0.1324511E+000  0.3160539E+03  0.7546771E-02  0.1077480E+00
         21   -1    0    0  504  501  0.00000000000E+00  0.00000000000E+00  0.11493284571E+04  0.11493284571E+04  0.00000000000E+00 0.  1.
         21   -1    0    0  501  502 -0.00000000000E+00 -0.00000000000E+00 -0.17617773126E+03  0.17617773126E+03  0.00000000000E+00 0.  1.
         25    1    1    2    0    0  0.23886792790E+03  0.22417004508E+03  0.84554785705E+03  0.91536128094E+03  0.12500000000E+03 0.  0.
         21    1    1    2  503  502 -0.94461670925E+02 -0.12629254416E+03  0.16867923644E+03  0.23092314477E+03  0.00000000000E+00 0.  1.
         21    1    1    2  504  503 -0.14440625698E+03 -0.97877500919E+02 -0.41076367615E+02  0.17922176267E+03  0.00000000000E+00 0.  1.
<mgrwt>
<rscale>  4 0.31605389E+03</rscale>
<asrwt>0</asrwt>
<pdfrwt beam="1">  1       21 0.17681976E+00 0.31605389E+03</pdfrwt>
<pdfrwt beam="2">  1       21 0.27104267E-01 0.31605389E+03</pdfrwt>
<totfact> 0.22578787E+03</totfact>
</mgrwt>
</event>
<event>
 5    0  0.1324511E+000  0.2634749E+03  0.7546771E-02  0.1105073E+00
         21   -1    0    0  504  501  0.00000000000E+00  0.00000000000E+00  0.16428896340E+03  0.16428896340E+03  0.00000000000E+00 0. -1.
         21   -1    0    0  501  502 -0.00000000000E+00 -0.00000000000E+00 -0.42781123538E+03  0.42781123538E+03  0.00000000000E+00 0. -1.
         25    1    1    2    0    0 -0.15161752653E+03 -0.17551675536E+03 -0.22066017423E+03  0.34367123571E+03  0.12500000000E+03 0.  0.
         21    1    1    2  503  502  0.45177904701E+02  0.38250696770E+02 -0.45576636042E+02  0.74708691793E+02  0.00000000000E+00 0. -1.
         21    1    1    2  504  503  0.10643962183E+03  0.13726605859E+03  0.27145382878E+01  0.17372027128E+03  0.00000000000E+00 0. -1.
<mgrwt>
<rscale>  4 0.26347487E+03</rscale>
<asrwt>0</asrwt>
<pdfrwt beam="1">  1       21 0.25275225E-01 0.26347487E+03</pdfrwt>
<pdfrwt beam="2">  1       21 0.65817113E-01 0.26347487E+03</pdfrwt>
<totfact> 0.30390992E+04</totfact>
</mgrwt>
</event>
<event>
 5    0  0.1324511E+000  0.3322511E+03  0.7546771E-02  0.1070145E+00
         21   -1    0    0  504  501  0.00000000000E+00  0.00000000000E+00  0.56684553385E+03  0.56684553385E+03  0.00000000000E+00 0.  1.
         21   -1    0    0  501  502 -0.00000000000E+00 -0.00000000000E+00 -0.20612970992E+03  0.20612970992E+03  0.00000000000E+00 0.  1.
         25    1    1    2    0    0 -0.27939039285E+03  0.12925488804E+03  0.30197882402E+03  0.44897887239E+03  0.12500000000E+03 0.  0.
         21    1    1    2  503  502  0.18366129141E+02 -0.33557149138E+02  0.20393444844E+02  0.43350773356E+02  0.00000000000E+00 0.  1.
         21    1    1    2  504  503  0.26102426370E+03 -0.95697738901E+02  0.38343555071E+02  0.28064559802E+03  0.00000000000E+00 0.  1.
<mgrwt>
<rscale>  4 0.33225114E+03</rscale>
<asrwt>0</asrwt>
<pdfrwt beam="1">  1       21 0.87207004E-01 0.33225114E+03</pdfrwt>
<pdfrwt beam="2">  1       21 0.31712263E-01 0.33225114E+03</pdfrwt>
<totfact> 0.10021466E+04</totfact>
</mgrwt>
</event>
<event>
 5    0  0.1324511E+000  0.2535245E+03  0.7546771E-02  0.1111097E+00
         21   -1    0    0  504  501  0.00000000000E+00  0.00000000000E+00  0.20767960850E+04  0.20767960850E+04  0.00000000000E+00 0.  1.
         21   -1    0    0  501  502 -0.00000000000E+00 -0.00000000000E+00 -0.45416253670E+02  0.45416253670E+02  0.00000000000E+00 0.  1.
         25    1    1    2    0    0  0.85392547865E+02  0.20336608912E+03  0.39718980858E+03  0.47120526045E+03  0.12500000000E+03 0.  0.
         21    1    1    2  503  502 -0.68476926039E+02 -0.15341798963E+03  0.14405792660E+04  0.14503429907E+04  0.00000000000E+00 0.  1.
         21    1    1    2  504  503 -0.16915621826E+02 -0.49948099497E+02  0.19361075677E+03  0.20066408757E+03  0.00000000000E+00 0. -1.
<mgrwt>
<rscale>  4 0.25352446E+03</rscale>
<asrwt>0</asrwt>
<pdfrwt beam="1">  1       21 0.31950702E+00 0.25352446E+03</pdfrwt>
<pdfrwt beam="2">  1       21 0.69871176E-02 0.25352446E+03</pdfrwt>
<totfact> 0.37433788E+03</totfact>
</mgrwt>
</event>
<event>
 5    0  0.1324511E+000  0.2662940E+03  0.7546771E-02  0.1103420E+00
         21   -1    0    0  504  501  0.00000000000E+00  0.00000000000E+00  0.12876550176E+04  0.12876550176E+04  0.00000000000E+00 0. -1.
         21   -1    0    0  501  502 -0.00000000000E+00 -0.00000000000E+00 -0.97752611839E+02  0.97752611839E+02  0.00000000000E+00 0. -1.
         25    1    1    2    0    0  0.29643426716E+02 -0.23325683452E+03  0.12550614298E+03  0.29438796770E+03  0.12500000000E+03 0.  0.
         21    1    1    2  503  502 -0.12887145650E+02  0.70249282135E+02  0.42498606428E+03  0.43094569843E+03  0.00000000000E+00 0. -1.
         21    1    1    2  504  503 -0.16756281066E+02  0.16300755239E+03  0.63941019847E+03  0.66007396328E+03  0.00000000000E+00 0. -1.
<mgrwt>
<rscale>  4 0.26629398E+03</rscale>
<asrwt>0</asrwt>
<pdfrwt beam="1">  1       21 0.19810076E+00 0.26629398E+03</pdfrwt>
<pdfrwt beam="2">  1       21 0.15038864E-01 0.26629398E+03</pdfrwt>
<totfact> 0.50853205E+03</totfact>
</mgrwt>
</event>
<event>
 5    0  0.1324511E+000  0.2305404E+03  0.7546771E-02  0.1126260E+00
         21   -1    0    0  504  501  0.00000000000E+00  0.00000000000E+00  0.94728905177E+02  0.94728905177E+02  0.00000000000E+00 0. -1.
         21   -1    0    0  501  502 -0.00000000000E+00 -0.00000000000E+00 -0.66192878548E+03  0.66192878548E+03  0.00000000000E+00 0. -1.
         25    1    1    2    0    0 -0.88565879415E+02  0.18671645141E+03 -0.38841297057E+03  0.45738013067E+03  0.12500000000E+03 0.  0.
         21    1    1    2  503  502  0.57696018038E+02 -0.98373755783E+01 -0.61004600130E+02  0.84540911355E+02  0.00000000000E+00 0. -1.
         21    1    1    2  504  503  0.30869861376E+02 -0.17687907584E+03 -0.11778230960E+03  0.21473664863E+03  0.00000000000E+00 0. -1.
<mgrwt>
<rscale>  4 0.23054036E+03</rscale>
<asrwt>0</asrwt>
<pdfrwt beam="1">  1       21 0.14573678E-01 0.23054036E+03</pdfrwt>
<pdfrwt beam="2">  1       21 0.10183520E+00 0.23054036E+03</pdfrwt>
<totfact> 0.31842900E+04</totfact>
</mgrwt>
</event>
<event>
 5    0  0.1324511E+000  0.2375837E+03  0.7546771E-02  0.1121413E+00
         21   -1    0    0  504  501  0.00000000000E+00  0.00000000000E+00  0.23913802194E+03  0.23913802194E+03  0.00000000000E+00 0. -1.
         21   -1    0    0  501  502 -0.00000000000E+00 -0.00000000000E+00 -0.71569493064E+03  0.71569493064E+03  0.00000000000E+00 0. -1.
         25    1    1    2    0    0 -0.17843206381E+03 -0.12449294225E+03 -0.61424979376E+03  0.66352415420E+03  0.12500000000E+03 0.  0.
         21    1    1    2  503  502  0.12617140866E+03  0.16633735784E+02  0.11019547889E+03  0.16834176278E+03  0.00000000000E+00 0. -1.
         21    1    1    2  504  503  0.52260655155E+02  0.10785920646E+03  0.27497406173E+02  0.12296703559E+03  0.00000000000E+00 0. -1.
<mgrwt>
<rscale>  4 0.23758367E+03</rscale>
<asrwt>0</asrwt>
<pdfrwt beam="1">  1       21 0.36790465E-01 0.23758367E+03</pdfrwt>
<pdfrwt beam="2">  1       21 0.11010691E+00 0.23758367E+03</pdfrwt>
<totfact> 0.44880381E+03</totfact>
</mgrwt>
</event>
<event>
 5    0  0.1324511E+000  0.3217962E+03  0.7546771E-02  0.1074826E+00
         21   -1    0    0  504  501  0.00000000000E+00  0.00000000000E+00  0.54744317374E+03  0.54744317374E+03  0.00000000000E+00 0. -1.
         21   -1    0    0  501  502 -0.00000000000E+00 -0.00000000000E+00 -0.62300139870E+03  0.62300139870E+03  0.00000000000E+00 0.  1.
         25    1    1    2    0    0  0.24600036964E+03  0.18041566766E+03 -0.37550853754E+03  0.49969756530E+03  0.12500000000E+03 0.  0.
         21    1    1    2  503  502 -0.19990337587E+03  0.15844498386E+03  0.95877822855E+02  0.27250454952E+03  0.00000000000E+00 0. -1.
         21    1    1    2  504  503 -0.46096993769E+02 -0.33886065152E+03  0.20407248973E+03  0.39824245762E+03  0.00000000000E+00 0. -1.
<mgrwt>
<rscale>  4 0.32179624E+03</rscale>
<asrwt>0</asrwt>
<pdfrwt beam="1">  1       21 0.84222027E-01 0.32179624E+03</pdfrwt>
<pdfrwt beam="2">  1       21 0.95846369E-01 0.32179624E+03</pdfrwt>
<totfact> 0.10046649E+03</totfact>
</mgrwt>
</event>
<event>
 5    0  0.1324511E+000  0.3391189E+03  0.7546771E-02  0.1067172E+00
         21   -1    0    0  504  501  0.00000000000E+00  0.00000000000E+00  0.23514005533E+03  0.23514005533E+03  0.00000000000E+00 0. -1.
         21   -1    0    0  501  502 -0.00000000000E+00 -0.00000000000E+00 -0.69185305008E+03  0.69185305008E+03  0.00000000000E+00 0.  1.
         25    1    1    2    0    0  0.27742257449E+02  0.32252433582E+03 -0.43724792185E+03  0.55821351221E+03  0.12500000000E+03 0.  0.
         21    1    1    2  503  502 -0.86147850804E+02 -0.28739096431E+03 -0.18883699233E+02  0.30061871642E+03  0.00000000000E+00 0. -1.
         21    1    1    2  504  503  0.58405593354E+02 -0.35133371512E+02 -0.58137367150E+00  0.68160876786E+02  0.00000000000E+00 0. -1.
<mgrwt>
<rscale>  4 0.33911889E+03</rscale>
<asrwt>0</asrwt>
<pdfrwt beam="1">  1       21 0.36175393E-01 0.33911889E+03</pdfrwt>
<pdfrwt beam="2">  1       21 0.10643893E+00 0.33911889E+03</pdfrwt>
<totfact> 0.47672748E+03</totfact>
</mgrwt>
</event>
<event>
 5    0  0.1324511E+000  0.2584095E+03  0.7546771E-02  0.1108103E+00
         21   -1    0    0  504  501  0.00000000000E+00  0.00000000000E+00  0.27017761646E+03  0.27017761646E+03  0.00000000000E+00 0. -1.
         21   -1    0    0  501  502 -0.00000000000E+00 -0.00000000000E+00 -0.99575484733E+03  0.99575484733E+03  0.00000000000E+00 0.  1.
         25    1    1    2    0    0 -0.31752761543E+02 -0.22679945074E+03 -0.91503277260E+03  0.95150207759E+03  0.12500000000E+03 0.  0.
         21    1    1    2  503  502  0.65286966543E+01  0.19096744097E+03  0.19155087042E+03  0.27056038762E+03  0.00000000000E+00 0. -1.
         21    1    1    2  504  503  0.25224064888E+02  0.35832009768E+02 -0.20953286859E+01  0.43869998585E+02  0.00000000000E+00 0.  1.
<mgrwt>
<rscale>  4 0.25840948E+03</rscale>
<asrwt>0</asrwt>
<pdfrwt beam="1">  1       21 0.41565787E-01 0.25840948E+03</pdfrwt>
<pdfrwt beam="2">  1       21 0.15319305E+00 0.25840948E+03</pdfrwt>
<totfact> 0.14874428E+03</totfact>
</mgrwt>
</event>
<event>
 5    0  0.1324511E+000  0.2506845E+03  0.7546771E-02  0.1112873E+00
         21   -1    0    0  504  501  0.00000000000E+00  0.00000000000E+00  0.20165131485E+03  0.20165131485E+03  0.00000000000E+00 0. -1.
         21   -1    0    0  501  502 -0.00000000000E+00 -0.00000000000E+00 -0.28697948811E+03  0.28697948811E+03  0.00000000000E+00 0. -1.
         25    1    1    2    0    0  0.17947072525E+03 -0.12250703416E+03 -0.88971123113E+02  0.26600484091E+03  0.12500000000E+03 0.  0.
         21    1    1    2  503  502 -0.15704529188E+03  0.92318261917E+02 -0.10440081703E+02  0.18246884800E+03  0.00000000000E+00 0. -1.
         21    1    1    2  504  503 -0.22425433372E+02  0.30188772239E+02  0.14083031561E+02  0.40157114055E+02  0.00000000000E+00 0.  1.
<mgrwt>
<rscale>  4 0.25068449E+03</rscale>
<asrwt>0</asrwt>
<pdfrwt beam="1">  1       21 0.31023279E-01 0.25068449E+03</pdfrwt>
<pdfrwt beam="2">  1       21 0.44150690E-01 0.25068449E+03</pdfrwt>
<totfact> 0.47917254E+04</totfact>
</mgrwt>
</event>
<event>
 5    0  0.1324511E+000  0.2486389E+03  0.7546771E-02  0.1114168E+00
         21   -1    0    0  504  501  0.00000000000E+00  0.00000000000E+00  0.76472476040E+03  0.76472476040E+03  0.00000000000E+00 0. -1.
         21   -1    0    0  501  502 -0.00000000000E+00 -0.00000000000E+00 -0.12310427029E+03  0.12310427029E+03  0.00000000000E+00 0. -1.
         25    1    1    2    0    0 -0.18964088750E+01 -0.21720197765E+03  0.53114676739E+02  0.25617662725E+03  0.12500000000E+03 0.  0.
         21    1    1    2  503  502 -0.17280121189E+02  0.20668610529E+03  0.53914140672E+03  0.57766011213E+03  0.00000000000E+00 0. -1.
         21    1    1    2  504  503  0.19176530064E+02  0.10515872356E+02  0.49364406658E+02  0.53992291314E+02  0.00000000000E+00 0. -1.
<mgrwt>
<rscale>  4 0.24863886E+03</rscale>
<asrwt>0</asrwt>
<pdfrwt beam="1">  1       21 0.11764996E+00 0.24863886E+03</pdfrwt>
<pdfrwt beam="2">  1       21 0.18939119E-01 0.24863886E+03</pdfrwt>
<totfact> 0.13685663E+04</totfact>
</mgrwt>
</event>
<event>
 5    0  0.1324511E+000  0.2106015E+03  0.7546771E-02  0.1141091E+00
         21   -1    0    0  504  501  0.00000000000E+00  0.00000000000E+00  0.29500917092E+03  0.29500917092E+03  0.00000000000E+00 0.  1.
         21   -1    0    0  501  502 -0.00000000000E+00 -0.00000000000E+00 -0.23807204307E+03  0.23807204307E+03  0.00000000000E+00 0.  1.
         25    1    1    2    0    0 -0.21331224767E+03  0.25805769975E+01  0.13265209862E+03  0.28058929711E+03  0.12500000000E+03 0.  0.
         21    1    1    2  503  502  0.54854446439E+02 -0.27553247003E+02  0.21356129230E+02  0.64994430302E+02  0.00000000000E+00 0.  1.
         21    1    1    2  504  503  0.15845780123E+03  0.24972670005E+02 -0.97071099996E+02  0.18749748658E+03  0.00000000000E+00 0.  1.
<mgrwt>
<rscale>  4 0.21060150E+03</rscale>
<asrwt>0</asrwt>
<pdfrwt beam="1">  1       21 0.45386026E-01 0.21060150E+03</pdfrwt>
<pdfrwt beam="2">  1       21 0.36626468E-01 0.21060150E+03</pdfrwt>
<totfact> 0.33155869E+04</totfact>
</mgrwt>
</event>
<event>
 5    0  0.1324511E+000  0.3130771E+03  0.7546771E-02  0.1078880E+00
         21   -1    0    0  504  501  0.00000000000E+00  0.00000000000E+00  0.15759777701E+03  0.15759777701E+03  0.00000000000E+00 0. -1.
         21   -1    0    0  501  502 -0.00000000000E+00 -0.00000000000E+00 -0.69584648326E+03  0.69584648326E+03  0.00000000000E+00 0. -1.
         25    1    1    2    0    0  0.30343801139E+02  0.28543212231E+03 -0.11511632464E+03  0.33357009895E+03  0.12500000000E+03 0.  0.
         21    1    1    2  503  502  0.20968142719E+02 -0.35587093663E+02 -0.29220125133E+02  0.50595651564E+02  0.00000000000E+00 0. -1.
         21    1    1    2  504  503 -0.51311943858E+02 -0.24984502865E+03 -0.39391225647E+03  0.46927850976E+03  0.00000000000E+00 0. -1.
<mgrwt>
<rscale>  4 0.31307706E+03</rscale>
<asrwt>0</asrwt>
<pdfrwt beam="1">  1       21 0.24245811E-01 0.31307706E+03</pdfrwt>
<pdfrwt beam="2">  1       21 0.10705331E+00 0.31307706E+03</pdfrwt>
<totfact> 0.10464977E+04</totfact>
</mgrwt>
</event>
<event>
 5    0  0.1324511E+000  0.3525530E+03  0.7546771E-02  0.1061572E+00
         21   -1    0    0  504  501  0.00000000000E+00  0.00000000000E+00  0.13490211488E+03  0.13490211488E+03  0.00000000000E+00 0. -1.
         21   -1    0    0  501  502 -0.00000000000E+00 -0.00000000000E+00 -0.15302149442E+04  0.15302149442E+04  0.00000000000E+00 0.  1.
         25    1    1    2    0    0  0.23820224823E+03  0.22787783029E+03 -0.12410904910E+04  0.12901934829E+04  0.12500000000E+03 0.  0.
         21    1    1    2  503  502 -0.38118301216E+01 -0.35754246404E+02 -0.32014153532E+02  0.48143558356E+02  0.00000000000E+00 0.  1.
         21    1    1    2  504  503 -0.23439041811E+03 -0.19212358389E+03 -0.12220818481E+03  0.32678001778E+03  0.00000000000E+00 0. -1.
<mgrwt>
<rscale>  4 0.35255300E+03</rscale>
<asrwt>0</asrwt>
<pdfrwt beam="1">  1       21 0.20754171E-01 0.35255300E+03</pdfrwt>
<pdfrwt beam="2">  1       21 0.23541768E+00 0.35255300E+03</pdfrwt>
<totfact> 0.15300566E+03</totfact>
</mgrwt>
</event>
<event>
 5    0  0.1324511E+000  0.2662797E+03  0.7546771E-02  0.1103428E+00
         21   -1    0    0  504  501  0.00000000000E+00  0.00000000000E+00  0.39235966061E+03  0.39235966061E+03  0.00000000000E+00 0. -1.
         21   -1    0    0  501  502 -0.00000000000E+00 -0.00000000000E+00 -0.26304175773E+03  0.26304175773E+03  0.00000000000E+00 0.  1.
         25    1    1    2    0    0  0.15256034003E+03  0.17889998066E+03 -0.13310653070E+03  0.29769482519E+03  0.12500000000E+03 0.  0.
         21    1    1    2  503  502 -0.10083742779E+03 -0.12178360495E+03  0.21621056364E+03  0.26785526149E+03  0.00000000000E+00 0. -1.
         21    1    1    2  504  503 -0.51722912239E+02 -0.57116375707E+02  0.46213869951E+02  0.89851331655E+02  0.00000000000E+00 0. -1.
<mgrwt>
<rscale>  4 0.26627967E+03</rscale>
<asrwt>0</asrwt>
<pdfrwt beam="1">  1       21 0.60363025E-01 0.26627967E+03</pdfrwt>
<pdfrwt beam="2">  1       21 0.40467963E-01 0.26627967E+03</pdfrwt>
<totfact> 0.14438780E+04</totfact>
</mgrwt>
</event>
<event>
 5    0  0.1324511E+000  0.2389012E+03  0.7546771E-02  0.1120527E+00
         21   -1    0    0  504  501  0.00000000000E+00  0.00000000000E+00  0.46325895267E+03  0.46325895267E+03  0.00000000000E+00 0.  1.
         21   -1    0    0  501  502 -0.00000000000E+00 -0.00000000000E+00 -0.21690864210E+03  0.21690864210E+03  0.00000000000E+00 0.  1.
         25    1    1    2    0    0 -0.22919341214E+02 -0.20229556944E+03 -0.11263921856E+03  0.26412381032E+03  0.12500000000E+03 0.  0.
         21    1    1    2  503  502  0.90098970620E+01  0.21120189825E+02  0.16297957278E+02  0.28157842154E+02  0.00000000000E+00 0. -1.
         21    1    1    2  504  503  0.13909444152E+02  0.18117537962E+03  0.34269157185E+03  0.38788594230E+03  0.00000000000E+00 0.  1.
<mgrwt>
<rscale>  4 0.23890122E+03</rscale>
<asrwt>0</asrwt>
<pdfrwt beam="1">  1       21 0.71270608E-01 0.23890122E+03</pdfrwt>
<pdfrwt beam="2">  1       21 0.33370560E-01 0.23890122E+03</pdfrwt>
<totfact> 0.14981577E+04</totfact>
</mgrwt>
</event>
<event>
 5    0  0.1324511E+000  0.2599531E+03  0.7546771E-02  0.1107171E+00
         21   -1    0    0  504  501  0.00000000000E+00  0.00000000000E+00  0.75430742591E+03  0.75430742591E+03  0.00000000000E+00 0. -1.
         21   -1    0    0  501  502 -0.00000000000E+00 -0.00000000000E+00 -0.12833997864E+03  0.12833997864E+03  0.00000000000E+00 0. -1.
         25    1    1    2    0    0 -0.23394754291E+03 -0.16197861516E+02  0.79081091201E+02  0.27725916132E+03  0.12500000000E+03 0.  0.
         21    1    1    2  503  502  0.21231255375E+03  0.20258413055E+02  0.36944897337E+03  0.42659063246E+03  0.00000000000E+00 0. -1.
         21    1    1    2  504  503  0.21634989155E+02 -0.40605515394E+01  0.17743738271E+03  0.17879761077E+03  0.00000000000E+00 0. -1.
<mgrwt>
<rscale>  4 0.25995310E+03</rscale>
<asrwt>0</asrwt>
<pdfrwt beam="1">  1       21 0.11604729E+00 0.25995310E+03</pdfrwt>
<pdfrwt beam="2">  1       21 0.19744612E-01 0.25995310E+03</pdfrwt>
<totfact> 0.13014433E+04</totfact>
</mgrwt>
</event>
<event>
 5    0  0.1324511E+000  0.7651545E+03  0.7546771E-02  0.9642602E-01
         21   -1    0    0  504  501  0.00000000000E+00  0.00000000000E+00  0.71601192338E+03  0.71601192338E+03  0.00000000000E+00 0. -1.
         21   -1    0    0  501  502 -0.00000000000E+00 -0.00000000000E+00 -0.81976002974E+03  0.81976002974E+03  0.00000000000E+00 0. -1.
         25    1    1    2    0    0 -0.66494085820E+03  0.13086053814E+03  0.19212067853E+03  0.71540630446E+03  0.12500000000E+03 0.  0.
         21    1    1    2  503  502  0.47606564178E+03  0.64941859720E+02 -0.25897212207E+03  0.54582277384E+03  0.00000000000E+00 0. -1.
         21    1    1    2  504  503  0.18887521642E+03 -0.19580239786E+03 -0.36896662828E+02  0.27454287482E+03  0.00000000000E+00 0.  1.
<mgrwt>
<rscale>  4 0.74539532E+03</rscale>
<asrwt>0</asrwt>
<pdfrwt beam="1">  1       21 0.11015568E+00 0.76515453E+03</pdfrwt>
<pdfrwt beam="2">  1       21 0.12611693E+00 0.76515453E+03</pdfrwt>
<totfact> 0.22232869E+02</totfact>
</mgrwt>
</event>
<event>
 5    0  0.1324511E+000  0.2491953E+03  0.7546771E-02  0.1113814E+00
         21   -1    0    0  504  501  0.00000000000E+00  0.00000000000E+00  0.10808553398E+04  0.10808553398E+04  0.00000000000E+00 0.  1.
         21   -1    0    0  501  502 -0.00000000000E+00 -0.00000000000E+00 -0.86891027065E+02  0.86891027065E+02  0.00000000000E+00 0.  1.
         25    1    1    2    0    0 -0.19997355406E+03  0.17176689609E+03  0.64158640550E+03  0.70480593402E+03  0.12500000000E+03 0.  0.
         21    1    1    2  503  502  0.13456885802E+03 -0.14985619566E+03  0.15587114367E+03  0.25467915179E+03  0.00000000000E+00 0.  1.
         21    1    1    2  504  503  0.65404696039E+02 -0.21910700429E+02  0.19650676353E+03  0.20826128102E+03  0.00000000000E+00 0.  1.
<mgrwt>
<rscale>  4 0.24919526E+03</rscale>
<asrwt>0</asrwt>
<pdfrwt beam="1">  1       21 0.16628543E+00 0.24919526E+03</pdfrwt>
<pdfrwt beam="2">  1       21 0.13367851E-01 0.24919526E+03</pdfrwt>
<totfact> 0.10532715E+04</totfact>
</mgrwt>
</event>
<event>
 5    0  0.1324511E+000  0.2273064E+03  0.7546771E-02  0.1128550E+00
         21   -1    0    0  504  501  0.00000000000E+00  0.00000000000E+00  0.14428654165E+03  0.14428654165E+03  0.00000000000E+00 0. -1.
         21   -1    0    0  501  502 -0.00000000000E+00 -0.00000000000E+00 -0.51307686099E+03  0.51307686099E+03  0.00000000000E+00 0. -1.
         25    1    1    2    0    0  0.26684912837E+02 -0.20264862366E+03 -0.34656467573E+03  0.42132009649E+03  0.12500000000E+03 0.  0.
         21    1    1    2  503  502 -0.51316133107E+02  0.17976668644E+03  0.12936940984E+02  0.18739469446E+03  0.00000000000E+00 0. -1.
         21    1    1    2  504  503  0.24631220270E+02  0.22881937222E+02 -0.35162584607E+02  0.48648611688E+02  0.00000000000E+00 0.  1.
<mgrwt>
<rscale>  4 0.22730637E+03</rscale>
<asrwt>0</asrwt>
<pdfrwt beam="1">  1       21 0.22197930E-01 0.22730637E+03</pdfrwt>
<pdfrwt beam="2">  1       21 0.78934901E-01 0.22730637E+03</pdfrwt>
<totfact> 0.26398377E+04</totfact>
</mgrwt>
</event>
<event>
 5    0  0.1324511E+000  0.2886316E+03  0.7546771E-02  0.1091066E+00
         21   -1    0    0  504  501  0.00000000000E+00  0.00000000000E+00  0.82436389151E+03  0.82436389151E+03  0.00000000000E+00 0. -1.
         21   -1    0    0  501  502 -0.00000000000E+00 -0.00000000000E+00 -0.18041692684E+03  0.18041692684E+03  0.00000000000E+00 0. -1.
         25    1    1    2    0    0  0.17089202725E+03  0.19616096385E+03 -0.14365756012E+02  0.28898889886E+03  0.12500000000E+03 0.  0.
         21    1    1    2  503  502 -0.12964672894E+03 -0.79277985242E+02  0.42908188206E+03  0.45519724821E+03  0.00000000000E+00 0. -1.
         21    1    1    2  504  503 -0.41245298304E+02 -0.11688297861E+03  0.22923083863E+03  0.26059467128E+03  0.00000000000E+00 0. -1.
<mgrwt>
<rscale>  4 0.28863161E+03</rscale>
<asrwt>0</asrwt>
<pdfrwt beam="1">  1       21 0.12682521E+00 0.28863161E+03</pdfrwt>
<pdfrwt beam="2">  1       21 0.27756451E-01 0.28863161E+03</pdfrwt>
<totfact> 0.53450642E+03</totfact>
</mgrwt>
</event>
<event>
 5    0  0.1324511E+000  0.2396507E+03  0.7546771E-02  0.1120026E+00
         21   -1    0    0  504  501  0.00000000000E+00  0.00000000000E+00  0.18146732829E+03  0.18146732829E+03  0.00000000000E+00 0. -1.
         21   -1    0    0  501  502 -0.00000000000E+00 -0.00000000000E+00 -0.37224189253E+03  0.37224189253E+03  0.00000000000E+00 0. -1.
         25    1    1    2    0    0 -0.23476827987E+02  0.20311641638E+03 -0.23171995188E+03  0.33335653009E+03  0.12500000000E+03 0.  0.
         21    1    1    2  503  502  0.41382487222E+02 -0.17400999178E+03  0.19300124871E+02  0.17990131269E+03  0.00000000000E+00 0. -1.
         21    1    1    2  504  503 -0.17905659235E+02 -0.29106424605E+02  0.21645262759E+02  0.40451378046E+02  0.00000000000E+00 0. -1.
<mgrwt>
<rscale>  4 0.23965066E+03</rscale>
<asrwt>0</asrwt>
<pdfrwt beam="1">  1       21 0.27918051E-01 0.23965066E+03</pdfrwt>
<pdfrwt beam="2">  1       21 0.57267983E-01 0.23965066E+03</pdfrwt>
<totfact> 0.34265523E+04</totfact>
</mgrwt>
</event>
<event>
 5    0  0.1324511E+000  0.2550176E+03  0.7546771E-02  0.1110174E+00
         21   -1    0    0  504  501  0.00000000000E+00  0.00000000000E+00  0.26709720401E+03  0.26709720401E+03  0.00000000000E+00 0. -1.
         21   -1    0    0  501  502 -0.00000000000E+00 -0.00000000000E+00 -0.74730627284E+03  0.74730627284E+03  0.00000000000E+00 0.  1.
         25    1    1    2    0    0 -0.18246207112E+03 -0.12695096972E+03 -0.66925141195E+03  0.71619229856E+03  0.12500000000E+03 0.  0.
         21    1    1    2  503  502  0.97416683881E+02  0.65157871111E+02  0.59674933207E+02  0.13151675224E+03  0.00000000000E+00 0.  1.
         21    1    1    2  504  503  0.85045387242E+02  0.61793098614E+02  0.12936740992E+03  0.16669442605E+03  0.00000000000E+00 0. -1.
<mgrwt>
<rscale>  4 0.25501756E+03</rscale>
<asrwt>0</asrwt>
<pdfrwt beam="1">  1       21 0.41091877E-01 0.25501756E+03</pdfrwt>
<pdfrwt beam="2">  1       21 0.11497020E+00 0.25501756E+03</pdfrwt>
<totfact> 0.31904602E+03</totfact>
</mgrwt>
</event>
<event>
 5    0  0.1324511E+000  0.2587017E+03  0.7546771E-02  0.1107926E+00
         21   -1    0    0  504  501  0.00000000000E+00  0.00000000000E+00  0.36593786406E+03  0.36593786406E+03  0.00000000000E+00 0.  1.
         21   -1    0    0  501  502 -0.00000000000E+00 -0.00000000000E+00 -0.84226326657E+03  0.84226326657E+03  0.00000000000E+00 0.  1.
         25    1    1    2    0    0  0.13322550952E+03 -0.18701383774E+03 -0.76454813699E+03  0.80801117917E+03  0.12500000000E+03 0.  0.
         21    1    1    2  503  502 -0.68723431026E+01  0.55107135154E+02 -0.38893563156E+01  0.55670032667E+02  0.00000000000E+00 0.  1.
         21    1    1    2  504  503 -0.12635316642E+03  0.13190670258E+03  0.29211209080E+03  0.34451991879E+03  0.00000000000E+00 0.  1.
<mgrwt>
<rscale>  4 0.25870167E+03</rscale>
<asrwt>0</asrwt>
<pdfrwt beam="1">  1       21 0.56298133E-01 0.25870167E+03</pdfrwt>
<pdfrwt beam="2">  1       21 0.12957896E+00 0.25870167E+03</pdfrwt>
<totfact> 0.12212229E+03</totfact>
</mgrwt>
</event>
<event>
 5    0  0.1324511E+000  0.3263812E+03  0.7546771E-02  0.1072749E+00
         21   -1    0    0  504  501  0.00000000000E+00  0.00000000000E+00  0.12847644069E+04  0.12847644069E+04  0.00000000000E+00 0.  1.
         21   -1    0    0  501  502 -0.00000000000E+00 -0.00000000000E+00 -0.10978506437E+03  0.10978506437E+03  0.00000000000E+00 0. -1.
         25    1    1    2    0    0 -0.24115730550E+03 -0.18094984155E+03  0.22923887588E+03  0.39884226627E+03  0.12500000000E+03 0.  0.
         21    1    1    2  503  502  0.21717106634E+02  0.10613231171E+02  0.28739411503E+02  0.37552991491E+02  0.00000000000E+00 0.  1.
         21    1    1    2  504  503  0.21944019886E+03  0.17033661038E+03  0.91700105519E+03  0.95815421355E+03  0.00000000000E+00 0.  1.
<mgrwt>
<rscale>  4 0.32638121E+03</rscale>
<asrwt>0</asrwt>
<pdfrwt beam="1">  1       21 0.19765605E+00 0.32638121E+03</pdfrwt>
<pdfrwt beam="2">  1       21 0.16890011E-01 0.32638121E+03</pdfrwt>
<totfact> 0.39817364E+03</totfact>
</mgrwt>
</event>
<event>
 5    0  0.1324511E+000  0.2483996E+03  0.7546771E-02  0.1114320E+00
         21   -1    0    0  504  501  0.00000000000E+00  0.00000000000E+00  0.27928560888E+03  0.27928560888E+03  0.00000000000E+00 0.  1.
         21   -1    0    0  501  502 -0.00000000000E+00 -0.00000000000E+00 -0.31316845263E+03  0.31316845263E+03  0.00000000000E+00 0. -1.
         25    1    1    2    0    0  0.11751743493E+03  0.17963022842E+03 -0.19154891788E+03  0.31367714997E+03  0.12500000000E+03 0.  0.
         21    1    1    2  503  502 -0.64040893735E+02 -0.44280963906E+02  0.24789942700E+02  0.81710348756E+02  0.00000000000E+00 0. -1.
         21    1    1    2  504  503 -0.53476541192E+02 -0.13534926451E+03  0.13287613143E+03  0.19706656278E+03  0.00000000000E+00 0.  1.
<mgrwt>
<rscale>  4 0.24839961E+03</rscale>
<asrwt>0</asrwt>
<pdfrwt beam="1">  1       21 0.42967017E-01 0.24839961E+03</pdfrwt>
<pdfrwt beam="2">  1       21 0.48179762E-01 0.24839961E+03</pdfrwt>
<totfact> 0.20801114E+04</totfact>
</mgrwt>
</event>
<event>
 5    0  0.1324511E+000  0.3757177E+03  0.7546771E-02  0.1052528E+00
         21   -1    0    0  504  501  0.00000000000E+00  0.00000000000E+00  0.33824360765E+03  0.33824360765E+03  0.00000000000E+00 0.  1.
         21   -1    0    0  501  502 -0.00000000000E+00 -0.00000000000E+00 -0.40950154732E+03  0.40950154732E+03  0.00000000000E+00 0.  1.
         25    1    1    2    0    0  0.32680859079E+03  0.13687570581E+03  0.25377357706E+02  0.37657379641E+03  0.12500000000E+03 0.  0.
         21    1    1    2  503  502 -0.29139143851E+03 -0.11576623080E+03 -0.67619508723E+02  0.32075409365E+03  0.00000000000E+00 0.  1.
         21    1    1    2  504  503 -0.35417152280E+02 -0.21109475006E+02 -0.29015788648E+02  0.50417264915E+02  0.00000000000E+00 0.  1.
<mgrwt>
<rscale>  4 0.37571773E+03</rscale>
<asrwt>0</asrwt>
<pdfrwt beam="1">  1       21 0.52037478E-01 0.37571773E+03</pdfrwt>
<pdfrwt beam="2">  1       21 0.63000238E-01 0.37571773E+03</pdfrwt>
<totfact> 0.74347025E+03</totfact>
</mgrwt>
</event>
<event>
 5    0  0.1324511E+000  0.2425718E+03  0.7546771E-02  0.1118091E+00
         21   -1    0    0  504  501  0.00000000000E+00  0.00000000000E+00  0.47055422428E+02  0.47055422428E+02  0.00000000000E+00 0.  1.
         21   -1    0    0  501  502 -0.00000000000E+00 -0.00000000000E+00 -0.11987307084E+04  0.11987307084E+04  0.00000000000E+00 0.  1.
         25    1    1    2    0    0 -0.15257716751E+03 -0.14119592647E+03 -0.46404370952E+03  0.52361975330E+03  0.12500000000E+03 0.  0.
         21    1    1    2  503  502 -0.23115647222E+01  0.28613585084E+02 -0.10649571189E+03  0.11029695025E+03  0.00000000000E+00 0.  1.
         21    1    1    2  504  503  0.15488873223E+03  0.11258234139E+03 -0.58113586458E+03  0.61186942731E+03  0.00000000000E+00 0.  1.
<mgrwt>
<rscale>  4 0.24257181E+03</rscale>
<asrwt>0</asrwt>
<pdfrwt beam="1">  1       21 0.72392959E-02 0.24257181E+03</pdfrwt>
<pdfrwt beam="2">  1       21 0.18442011E+00 0.24257181E+03</pdfrwt>
<totfact> 0.23464948E+04</totfact>
</mgrwt>
</event>
<event>
 5    0  0.1324511E+000  0.2375457E+03  0.7546771E-02  0.1121439E+00
         21   -1    0    0  504  501  0.00000000000E+00  0.00000000000E+00  0.17442668583E+03  0.17442668583E+03  0.00000000000E+00 0. -1.
         21   -1    0    0  501  502 -0.00000000000E+00 -0.00000000000E+00 -0.30103454773E+03  0.30103454773E+03  0.00000000000E+00 0. -1.
         25    1    1    2    0    0 -0.20115276821E+03 -0.18453861050E+02 -0.12029158549E+03  0.26626687117E+03  0.12500000000E+03 0.  0.
         21    1    1    2  503  502  0.17590068394E+03  0.22681293887E+02 -0.22690706369E+02  0.17880257229E+03  0.00000000000E+00 0. -1.
         21    1    1    2  504  503  0.25252084272E+02 -0.42274328376E+01  0.16374429953E+02  0.30391790088E+02  0.00000000000E+00 0.  1.
<mgrwt>
<rscale>  4 0.23754575E+03</rscale>
<asrwt>0</asrwt>
<pdfrwt beam="1">  1       21 0.26834875E-01 0.23754575E+03</pdfrwt>
<pdfrwt beam="2">  1       21 0.46313007E-01 0.23754575E+03</pdfrwt>
<totfact> 0.57909644E+04</totfact>
</mgrwt>
</event>
<event>
 5    0  0.1324511E+000  0.3027544E+03  0.7546771E-02  0.1083872E+00
         21   -1    0    0  504  501  0.00000000000E+00  0.00000000000E+00  0.19513920578E+03  0.19513920578E+03  0.00000000000E+00 0.  1.
         21   -1    0    0  501  502 -0.00000000000E+00 -0.00000000000E+00 -0.78207548763E+03  0.78207548763E+03  0.00000000000E+00 0. -1.
         25    1    1    2    0    0 -0.10617985899E+03 -0.25509053740E+03 -0.58795735044E+03  0.66156193259E+03  0.12500000000E+03 0.  0.
         21    1    1    2  503  502  0.13928608129E+03  0.23775044681E+03  0.14490108300E+02  0.27592725606E+03  0.00000000000E+00 0.  1.
         21    1    1    2  504  503 -0.33106222306E+02  0.17340090595E+02 -0.13469039715E+02  0.39725504756E+02  0.00000000000E+00 0.  1.
<mgrwt>
<rscale>  4 0.30275440E+03</rscale>
<asrwt>0</asrwt>
<pdfrwt beam="1">  1       21 0.30021416E-01 0.30275440E+03</pdfrwt>
<pdfrwt beam="2">  1       21 0.12031931E+00 0.30275440E+03</pdfrwt>
<totfact> 0.51979862E+03</totfact>
</mgrwt>
</event>
<event>
 5    0  0.1324511E+000  0.2405292E+03  0.7546771E-02  0.1119441E+00
         21   -1    0    0  504  501  0.00000000000E+00  0.00000000000E+00  0.31994648750E+03  0.31994648750E+03  0.00000000000E+00 0. -1.
         21   -1    0    0  501  502 -0.00000000000E+00 -0.00000000000E+00 -0.26907740957E+03  0.26907740957E+03  0.00000000000E+00 0. -1.
         25    1    1    2    0    0 -0.19941306895E+03  0.49635921064E+02 -0.15320062393E+03  0.28517490756E+03  0.12500000000E+03 0.  0.
         21    1    1    2  503  502  0.11364449737E+03 -0.21650076792E+02  0.51572398899E+02  0.12666297776E+03  0.00000000000E+00 0. -1.
         21    1    1    2  504  503  0.85768571584E+02 -0.27985844273E+02  0.15249730296E+03  0.17718601175E+03  0.00000000000E+00 0. -1.
<mgrwt>
<rscale>  4 0.24052920E+03</rscale>
<asrwt>0</asrwt>
<pdfrwt beam="1">  1       21 0.49222537E-01 0.24052920E+03</pdfrwt>
<pdfrwt beam="2">  1       21 0.41396525E-01 0.24052920E+03</pdfrwt>
<totfact> 0.21548578E+04</totfact>
</mgrwt>
</event>
<event>
 5    0  0.1324511E+000  0.2536160E+03  0.7546771E-02  0.1111041E+00
         21   -1    0    0  504  501  0.00000000000E+00  0.00000000000E+00  0.15736849383E+03  0.15736849383E+03  0.00000000000E+00 0.  1.
         21   -1    0    0  501  502 -0.00000000000E+00 -0.00000000000E+00 -0.43222072455E+03  0.43222072455E+03  0.00000000000E+00 0.  1.
         25    1    1    2    0    0 -0.10465023779E+03  0.20584621474E+03 -0.21612761428E+03  0.34008893255E+03  0.12500000000E+03 0.  0.
         21    1    1    2  503  502  0.18487928682E+02 -0.76603429640E+01 -0.22956702549E+02  0.30454795242E+02  0.00000000000E+00 0. -1.
         21    1    1    2  504  503  0.86162309104E+02 -0.19818587177E+03 -0.35767913891E+02  0.21904549058E+03  0.00000000000E+00 0.  1.
<mgrwt>
<rscale>  4 0.25361597E+03</rscale>
<asrwt>0</asrwt>
<pdfrwt beam="1">  1       21 0.24210538E-01 0.25361597E+03</pdfrwt>
<pdfrwt beam="2">  1       21 0.66495495E-01 0.25361597E+03</pdfrwt>
<totfact> 0.32409111E+04</totfact>
</mgrwt>
</event>
<event>
 5    0  0.1324511E+000  0.2748492E+03  0.7546771E-02  0.1098536E+00
         21   -1    0    0  504  501  0.00000000000E+00  0.00000000000E+00  0.86078496070E+02  0.86078496070E+02  0.00000000000E+00 0. -1.
         21   -1    0    0  501  502 -0.00000000000E+00 -0.00000000000E+00 -0.81642544076E+03  0.81642544076E+03  0.00000000000E+00 0. -1.
         25    1    1    2    0    0  0.21980644613E+03 -0.10771366365E+03 -0.45819317419E+03  0.53430617812E+03  0.12500000000E+03 0.  0.
         21    1    1    2  503  502 -0.25123383352E+02  0.69765183129E+01 -0.14211007750E+02  0.29695267975E+02  0.00000000000E+00 0. -1.
         21    1    1    2  504  503 -0.19468306278E+03  0.10073714534E+03 -0.25794276274E+03  0.33850249074E+03  0.00000000000E+00 0. -1.
<mgrwt>
<rscale>  4 0.27484924E+03</rscale>
<asrwt>0</asrwt>
<pdfrwt beam="1">  1       21 0.13242846E-01 0.27484924E+03</pdfrwt>
<pdfrwt beam="2">  1       21 0.12560391E+00 0.27484924E+03</pdfrwt>
<totfact> 0.22155286E+04</totfact>
</mgrwt>
</event>
<event>
 5    0  0.1324511E+000  0.2810486E+03  0.7546771E-02  0.1095118E+00
         21   -1    0    0  504  501  0.00000000000E+00  0.00000000000E+00  0.55902745092E+02  0.55902745092E+02  0.00000000000E+00 0. -1.
         21   -1    0    0  501  502 -0.00000000000E+00 -0.00000000000E+00 -0.23645528983E+04  0.23645528983E+04  0.00000000000E+00 0. -1.
         25    1    1    2    0    0  0.55039112078E+02  0.32443949333E+03 -0.13535506608E+04  0.13985759472E+04  0.12500000000E+03 0.  0.
         21    1    1    2  503  502 -0.19616635251E+02 -0.10078871048E+03 -0.53377190222E+03  0.54355829507E+03  0.00000000000E+00 0. -1.
         21    1    1    2  504  503 -0.35422476827E+02 -0.22365078285E+03 -0.42132759017E+03  0.47832140112E+03  0.00000000000E+00 0. -1.
<mgrwt>
<rscale>  4 0.28104857E+03</rscale>
<asrwt>0</asrwt>
<pdfrwt beam="1">  1       21 0.86004210E-02 0.28104857E+03</pdfrwt>
<pdfrwt beam="2">  1       21 0.36377743E+00 0.28104857E+03</pdfrwt>
<totfact> 0.13791098E+03</totfact>
</mgrwt>
</event>
<event>
 5    0  0.1324511E+000  0.2734892E+03  0.7546771E-02  0.1099299E+00
         21   -1    0    0  504  501  0.00000000000E+00  0.00000000000E+00  0.68893974786E+03  0.68893974786E+03  0.00000000000E+00 0. -1.
         21   -1    0    0  501  502 -0.00000000000E+00 -0.00000000000E+00 -0.10566623854E+03  0.10566623854E+03  0.00000000000E+00 0. -1.
         25    1    1    2    0    0 -0.40283599428E+02 -0.23989285543E+03  0.40991297643E+03  0.49277276580E+03  0.12500000000E+03 0.  0.
         21    1    1    2  503  502  0.23842551963E+02  0.21603460392E+03  0.16021941717E+03  0.27001792351E+03  0.00000000000E+00 0. -1.
         21    1    1    2  504  503  0.16441047464E+02  0.23858251504E+02  0.13141115723E+02  0.31815297091E+02  0.00000000000E+00 0.  1.
<mgrwt>
<rscale>  4 0.27348921E+03</rscale>
<asrwt>0</asrwt>
<pdfrwt beam="1">  1       21 0.10599073E+00 0.27348921E+03</pdfrwt>
<pdfrwt beam="2">  1       21 0.16256345E-01 0.27348921E+03</pdfrwt>
<totfact> 0.23183697E+04</totfact>
</mgrwt>
</event>
<event>
 5    0  0.1324511E+000  0.3896383E+03  0.7546771E-02  0.1047428E+00
         21   -1    0    0  504  501  0.00000000000E+00  0.00000000000E+00  0.10275352811E+04  0.10275352811E+04  0.00000000000E+00 0.  1.
         21   -1    0    0  501  502 -0.00000000000E+00 -0.00000000000E+00 -0.14721497648E+03  0.14721497648E+03  0.00000000000E+00 0.  1.
         25    1    1    2    0    0  0.16738096551E+03 -0.32890213918E+03  0.42396501016E+03  0.57581623337E+03  0.12500000000E+03 0.  0.
         21    1    1    2  503  502 -0.30725441978E+02  0.78508439425E+02  0.19336560452E+03  0.21094521766E+03  0.00000000000E+00 0.  1.
         21    1    1    2  504  503 -0.13665552354E+03  0.25039369976E+03  0.26298968999E+03  0.38798880658E+03  0.00000000000E+00 0.  1.
<mgrwt>
<rscale>  4 0.38963830E+03</rscale>
<asrwt>0</asrwt>
<pdfrwt beam="1">  1       21 0.15808235E+00 0.38963830E+03</pdfrwt>
<pdfrwt beam="2">  1       21 0.22648458E-01 0.38963830E+03</pdfrwt>
<totfact> 0.42161198E+03</totfact>
</mgrwt>
</event>
<event>
 5    0  0.1324511E+000  0.2774174E+03  0.7546771E-02  0.1097108E+00
         21   -1    0    0  504  501  0.00000000000E+00  0.00000000000E+00  0.10353852477E+04  0.10353852477E+04  0.00000000000E+00 0.  1.
         21   -1    0    0  501  502 -0.00000000000E+00 -0.00000000000E+00 -0.95083609424E+02  0.95083609424E+02  0.00000000000E+00 0. -1.
         25    1    1    2    0    0  0.21241654880E+03  0.12733670656E+03  0.18397403002E+03  0.33287665998E+03  0.12500000000E+03 0.  0.
         21    1    1    2  503  502 -0.69158264613E+02 -0.63524299963E+02  0.23108198352E+03  0.24943352894E+03  0.00000000000E+00 0.  1.
         21    1    1    2  504  503 -0.14325828418E+03 -0.63812406592E+02  0.52524562471E+03  0.54815866817E+03  0.00000000000E+00 0.  1.
<mgrwt>
<rscale>  4 0.27741742E+03</rscale>
<asrwt>0</asrwt>
<pdfrwt beam="1">  1       21 0.15929003E+00 0.27741742E+03</pdfrwt>
<pdfrwt beam="2">  1       21 0.14628248E-01 0.27741742E+03</pdfrwt>
<totfact> 0.98918304E+03</totfact>
</mgrwt>
</event>
<event>
 5    0  0.1324511E+000  0.2848113E+03  0.7546771E-02  0.1093090E+00
         21   -1    0    0  504  501  0.00000000000E+00  0.00000000000E+00  0.70942285253E+03  0.70942285253E+03  0.00000000000E+00 0. -1.
         21   -1    0    0  501  502 -0.00000000000E+00 -0.00000000000E+00 -0.12214445377E+03  0.12214445377E+03  0.00000000000E+00 0. -1.
         25    1    1    2    0    0  0.51526943886E+02 -0.24794421181E+03  0.37446818375E+03  0.46902321772E+03  0.12500000000E+03 0.  0.
         21    1    1    2  503  502  0.32487800165E+02  0.10944290335E+01  0.19011164889E+02  0.37657394027E+02  0.00000000000E+00 0. -1.
         21    1    1    2  504  503 -0.84014744051E+02  0.24684978277E+03  0.19379905011E+03  0.32488669455E+03  0.00000000000E+00 0. -1.
<mgrwt>
<rscale>  4 0.28481126E+03</rscale>
<asrwt>0</asrwt>
<pdfrwt beam="1">  1       21 0.10914198E+00 0.28481126E+03</pdfrwt>
<pdfrwt beam="2">  1       21 0.18791455E-01 0.28481126E+03</pdfrwt>
<totfact> 0.16400841E+04</totfact>
</mgrwt>
</event>
<event>
 5    0  0.1324511E+000  0.3328005E+03  0.7546771E-02  0.1069904E+00
         21   -1    0    0  504  501  0.00000000000E+00  0.00000000000E+00  0.85282389266E+03  0.85282389266E+03  0.00000000000E+00 0.  1.
         21   -1    0    0  501  502 -0.00000000000E+00 -0.00000000000E+00 -0.38613719454E+03  0.38613719454E+03  0.00000000000E+00 0. -1.
         25    1    1    2    0    0  0.12694210996E+03  0.28109945650E+03 -0.27659004002E+03  0.43273346758E+03  0.12500000000E+03 0.  0.
         21    1    1    2  503  502 -0.12592566630E+03 -0.23904337011E+03  0.64870663716E+03  0.70272278128E+03  0.00000000000E+00 0.  1.
         21    1    1    2  504  503 -0.10164436589E+01 -0.42056086394E+02  0.94570100976E+02  0.10350483834E+03  0.00000000000E+00 0. -1.
<mgrwt>
<rscale>  4 0.33280055E+03</rscale>
<asrwt>0</asrwt>
<pdfrwt beam="1">  1       21 0.13120368E+00 0.33280055E+03</pdfrwt>
<pdfrwt beam="2">  1       21 0.59405723E-01 0.33280055E+03</pdfrwt>
<totfact> 0.10029222E+03</totfact>
</mgrwt>
</event>
<event>
 5    0  0.1324511E+000  0.3085406E+03  0.7546771E-02  0.1081048E+00
         21   -1    0    0  504  501  0.00000000000E+00  0.00000000000E+00  0.75603757852E+03  0.75603757852E+03  0.00000000000E+00 0.  1.
         21   -1    0    0  501  502 -0.00000000000E+00 -0.00000000000E+00 -0.77352476954E+03  0.77352476954E+03  0.00000000000E+00 0. -1.
         25    1    1    2    0    0 -0.14531520328E+03  0.24390540559E+03 -0.68456052917E+03  0.75156800974E+03  0.12500000000E+03 0.  0.
         21    1    1    2  503  502  0.87183120291E+02  0.73529975818E+01  0.33049910892E+02  0.93526785719E+02  0.00000000000E+00 0.  1.
         21    1    1    2  504  503  0.58132082986E+02 -0.25125840317E+03  0.63402342726E+03  0.68446755260E+03  0.00000000000E+00 0.  1.
<mgrwt>
<rscale>  4 0.30854059E+03</rscale>
<asrwt>0</asrwt>
<pdfrwt beam="1">  1       21 0.11631347E+00 0.30854059E+03</pdfrwt>
<pdfrwt beam="2">  1       21 0.11900381E+00 0.30854059E+03</pdfrwt>
<totfact> 0.27545399E+02</totfact>
</mgrwt>
</event>
<event>
 5    0  0.1324511E+000  0.2806010E+03  0.7546771E-02  0.1095361E+00
         21   -1    0    0  504  501  0.00000000000E+00  0.00000000000E+00  0.25186395402E+03  0.25186395402E+03  0.00000000000E+00 0.  1.
         21   -1    0    0  501  502 -0.00000000000E+00 -0.00000000000E+00 -0.49951555856E+03  0.49951555856E+03  0.00000000000E+00 0.  1.
         25    1    1    2    0    0  0.13001180621E+03  0.21496245099E+03 -0.36234905046E+03  0.45829440260E+03  0.12500000000E+03 0.  0.
         21    1    1    2  503  502 -0.89574101963E+02 -0.17928360190E+03  0.12766206054E+03  0.23762098256E+03  0.00000000000E+00 0.  1.
         21    1    1    2  504  503 -0.40437704249E+02 -0.35678849086E+02 -0.12964614617E+02  0.55464127409E+02  0.00000000000E+00 0. -1.
<mgrwt>
<rscale>  4 0.28060101E+03</rscale>
<asrwt>0</asrwt>
<pdfrwt beam="1">  1       21 0.38748301E-01 0.28060101E+03</pdfrwt>
<pdfrwt beam="2">  1       21 0.76848546E-01 0.28060101E+03</pdfrwt>
<totfact> 0.91746661E+03</totfact>
</mgrwt>
</event>
<event>
 5    0  0.1324511E+000  0.2723986E+03  0.7546771E-02  0.1099915E+00
         21   -1    0    0  504  501  0.00000000000E+00  0.00000000000E+00  0.13731533997E+04  0.13731533997E+04  0.00000000000E+00 0. -1.
         21   -1    0    0  501  502 -0.00000000000E+00 -0.00000000000E+00 -0.46229861586E+03  0.46229861586E+03  0.00000000000E+00 0. -1.
         25    1    1    2    0    0  0.14942297135E+03 -0.19039108583E+03 -0.40943294097E+03  0.49176856659E+03  0.12500000000E+03 0.  0.
         21    1    1    2  503  502 -0.13003614720E+03  0.18248292096E+03  0.12622470822E+04  0.12819817131E+04  0.00000000000E+00 0. -1.
         21    1    1    2  504  503 -0.19386824156E+02  0.79081648657E+01  0.58040642576E+02  0.61701735899E+02  0.00000000000E+00 0.  1.
<mgrwt>
<rscale>  4 0.27239859E+03</rscale>
<asrwt>0</asrwt>
<pdfrwt beam="1">  1       21 0.21125437E+00 0.27239859E+03</pdfrwt>
<pdfrwt beam="2">  1       21 0.71122865E-01 0.27239859E+03</pdfrwt>
<totfact> 0.18599212E+02</totfact>
</mgrwt>
</event>
<event>
 5    0  0.1324511E+000  0.2432130E+03  0.7546771E-02  0.1117671E+00
         21   -1    0    0  504  501  0.00000000000E+00  0.00000000000E+00  0.14120463363E+03  0.14120463363E+03  0.00000000000E+00 0. -1.
         21   -1    0    0  501  502 -0.00000000000E+00 -0.00000000000E+00 -0.62175492809E+03  0.62175492809E+03  0.00000000000E+00 0. -1.
         25    1    1    2    0    0  0.55173368792E+02  0.25068491135E+03 -0.16626468470E+03  0.33038760689E+03  0.12500000000E+03 0.  0.
         21    1    1    2  503  502 -0.15405905786E+02 -0.19224784920E+03 -0.30558063163E+03  0.36135315120E+03  0.00000000000E+00 0. -1.
         21    1    1    2  504  503 -0.39767463006E+02 -0.58437062153E+02 -0.87049781184E+01  0.71218803634E+02  0.00000000000E+00 0. -1.
<mgrwt>
<rscale>  4 0.24321302E+03</rscale>
<asrwt>0</asrwt>
<pdfrwt beam="1">  1       21 0.21723789E-01 0.24321302E+03</pdfrwt>
<pdfrwt beam="2">  1       21 0.95654606E-01 0.24321302E+03</pdfrwt>
<totfact> 0.17495480E+04</totfact>
</mgrwt>
</event>
<event>
 5    0  0.1324511E+000  0.3077632E+03  0.7546771E-02  0.1081423E+00
         21   -1    0    0  504  501  0.00000000000E+00  0.00000000000E+00  0.23298875657E+04  0.23298875657E+04  0.00000000000E+00 0. -1.
         21   -1    0    0  501  502 -0.00000000000E+00 -0.00000000000E+00 -0.31656935231E+03  0.31656935231E+03  0.00000000000E+00 0. -1.
         25    1    1    2    0    0 -0.97021415585E+02 -0.26303416014E+03 -0.21490938428E+03  0.37471478212E+03  0.12500000000E+03 0.  0.
         21    1    1    2  503  502  0.50999439893E+02  0.29279855990E+03  0.10237647328E+04  0.10660329111E+04  0.00000000000E+00 0. -1.
         21    1    1    2  504  503  0.46021975692E+02 -0.29764399760E+02  0.12044628649E+04  0.12057092248E+04  0.00000000000E+00 0. -1.
<mgrwt>
<rscale>  4 0.30776324E+03</rscale>
<asrwt>0</asrwt>
<pdfrwt beam="1">  1       21 0.35844423E+00 0.30776324E+03</pdfrwt>
<pdfrwt beam="2">  1       21 0.48702979E-01 0.30776324E+03</pdfrwt>
<totfact> 0.53276736E+01</totfact>
</mgrwt>
</event>
<event>
 5    0  0.1324511E+000  0.2887005E+03  0.7546771E-02  0.1091030E+00
         21   -1    0    0  504  501  0.00000000000E+00  0.00000000000E+00  0.67059154471E+03  0.67059154471E+03  0.00000000000E+00 0. -1.
         21   -1    0    0  501  502 -0.00000000000E+00 -0.00000000000E+00 -0.12869164508E+03  0.12869164508E+03  0.00000000000E+00 0. -1.
         25    1    1    2    0    0 -0.20481652175E+03 -0.16054029659E+03  0.15373048892E+03  0.32707958914E+03  0.12500000000E+03 0.  0.
         21    1    1    2  503  502  0.44753754428E+02  0.74539314199E+02  0.11638134739E+03  0.14527087085E+03  0.00000000000E+00 0. -1.
         21    1    1    2  504  503  0.16006276732E+03  0.86000982388E+02  0.27178806331E+03  0.32693272979E+03  0.00000000000E+00 0. -1.
<mgrwt>
<rscale>  4 0.28870053E+03</rscale>
<asrwt>0</asrwt>
<pdfrwt beam="1">  1       21 0.10316793E+00 0.28870053E+03</pdfrwt>
<pdfrwt beam="2">  1       21 0.19798715E-01 0.28870053E+03</pdfrwt>
<totfact> 0.17022533E+04</totfact>
</mgrwt>
</event>
<event>
 5    0  0.1324511E+000  0.3958029E+03  0.7546771E-02  0.1045243E+00
         21   -1    0    0  504  501  0.00000000000E+00  0.00000000000E+00  0.58322369644E+03  0.58322369644E+03  0.00000000000E+00 0.  1.
         21   -1    0    0  501  502 -0.00000000000E+00 -0.00000000000E+00 -0.28905026276E+03  0.28905026276E+03  0.00000000000E+00 0. -1.
         25    1    1    2    0    0 -0.31808228541E+03 -0.19964624006E+03  0.46130930689E+01  0.39582981455E+03  0.12500000000E+03 0.  0.
         21    1    1    2  503  502  0.29085270918E+03  0.17953439295E+03  0.24525872599E+03  0.42068959977E+03  0.00000000000E+00 0.  1.
         21    1    1    2  504  503  0.27229576231E+02  0.20111847108E+02  0.44301614622E+02  0.55754544872E+02  0.00000000000E+00 0.  1.
<mgrwt>
<rscale>  4 0.39580293E+03</rscale>
<asrwt>0</asrwt>
<pdfrwt beam="1">  1       21 0.89726722E-01 0.39580293E+03</pdfrwt>
<pdfrwt beam="2">  1       21 0.44469271E-01 0.39580293E+03</pdfrwt>
<totfact> 0.45950499E+03</totfact>
</mgrwt>
</event>
<event>
 5    0  0.1324511E+000  0.3252697E+03  0.7546771E-02  0.1073249E+00
         21   -1    0    0  504  501  0.00000000000E+00  0.00000000000E+00  0.37807780461E+03  0.37807780461E+03  0.00000000000E+00 0.  1.
         21   -1    0    0  501  502 -0.00000000000E+00 -0.00000000000E+00 -0.36010200530E+03  0.36010200530E+03  0.00000000000E+00 0.  1.
         25    1    1    2    0    0  0.34094766781E+02 -0.31685394580E+03 -0.13868857317E+03  0.36934861096E+03  0.12500000000E+03 0.  0.
         21    1    1    2  503  502 -0.26921699691E+02  0.29293580625E+03  0.17077709138E+03  0.34014846676E+03  0.00000000000E+00 0.  1.
         21    1    1    2  504  503 -0.71730670894E+01  0.23918139551E+02 -0.14112718910E+02  0.28682732194E+02  0.00000000000E+00 0.  1.
<mgrwt>
<rscale>  4 0.32526965E+03</rscale>
<asrwt>0</asrwt>
<pdfrwt beam="1">  1       21 0.58165816E-01 0.32526965E+03</pdfrwt>
<pdfrwt beam="2">  1       21 0.55400309E-01 0.32526965E+03</pdfrwt>
<totfact> 0.78987855E+03</totfact>
</mgrwt>
</event>
<event>
 5    0  0.1324511E+000  0.2561992E+03  0.7546771E-02  0.1109449E+00
         21   -1    0    0  504  501  0.00000000000E+00  0.00000000000E+00  0.42265740639E+03  0.42265740639E+03  0.00000000000E+00 0.  1.
         21   -1    0    0  501  502 -0.00000000000E+00 -0.00000000000E+00 -0.18798542976E+03  0.18798542976E+03  0.00000000000E+00 0.  1.
         25    1    1    2    0    0  0.22146863463E+03  0.31058868631E+02 -0.32351099787E+02  0.25823362117E+03  0.12500000000E+03 0.  0.
         21    1    1    2  503  502 -0.10240384929E+03  0.60536963941E+01  0.94101357207E+02  0.13920582250E+03  0.00000000000E+00 0.  1.
         21    1    1    2  504  503 -0.11906478534E+03 -0.37112565025E+02  0.17292171921E+03  0.21320339248E+03  0.00000000000E+00 0.  1.
<mgrwt>
<rscale>  4 0.25619916E+03</rscale>
<asrwt>0</asrwt>
<pdfrwt beam="1">  1       21 0.65024216E-01 0.25619916E+03</pdfrwt>
<pdfrwt beam="2">  1       21 0.28920836E-01 0.25619916E+03</pdfrwt>
<totfact> 0.24109782E+04</totfact>
</mgrwt>
</event>
<event>
 5    0  0.1324511E+000  0.2379469E+03  0.7546771E-02  0.1121168E+00
         21   -1    0    0  504  501  0.00000000000E+00  0.00000000000E+00  0.90798014546E+02  0.90798014546E+02  0.00000000000E+00 0. -1.
         21   -1    0    0  501  502 -0.00000000000E+00 -0.00000000000E+00 -0.98356496107E+03  0.98356496107E+03  0.00000000000E+00 0. -1.
         25    1    1    2    0    0  0.20313476285E+03 -0.36875740999E+02 -0.80260740708E+03  0.83810930197E+03  0.12500000000E+03 0.  0.
         21    1    1    2  503  502 -0.17037080986E+02  0.16058383114E+02 -0.33008040154E+02  0.40468067802E+02  0.00000000000E+00 0. -1.
         21    1    1    2  504  503 -0.18609768186E+03  0.20817357884E+02 -0.57151499286E+02  0.19578560584E+03  0.00000000000E+00 0. -1.
<mgrwt>
<rscale>  4 0.23794691E+03</rscale>
<asrwt>0</asrwt>
<pdfrwt beam="1">  1       21 0.13968924E-01 0.23794691E+03</pdfrwt>
<pdfrwt beam="2">  1       21 0.15131770E+00 0.23794691E+03</pdfrwt>
<totfact> 0.12644767E+04</totfact>
</mgrwt>
</event>
<event>
 5    0  0.1324511E+000  0.3196328E+03  0.7546771E-02  0.1075818E+00
         21   -1    0    0  504  501  0.00000000000E+00  0.00000000000E+00  0.78236000571E+03  0.78236000571E+03  0.00000000000E+00 0.  1.
         21   -1    0    0  501  502 -0.00000000000E+00 -0.00000000000E+00 -0.14803733568E+03  0.14803733568E+03  0.00000000000E+00 0.  1.
         25    1    1    2    0    0  0.27781930537E+03 -0.96729424027E+02  0.52259921711E+03  0.61259700426E+03  0.12500000000E+03 0.  0.
         21    1    1    2  503  502 -0.48191721953E+02  0.74116758470E+01  0.40897623896E+01  0.48929553034E+02  0.00000000000E+00 0. -1.
         21    1    1    2  504  503 -0.22962758342E+03  0.89317748180E+02  0.10763369053E+03  0.26887078410E+03  0.00000000000E+00 0.  1.
<mgrwt>
<rscale>  4 0.31963283E+03</rscale>
<asrwt>0</asrwt>
<pdfrwt beam="1">  1       21 0.12036308E+00 0.31963283E+03</pdfrwt>
<pdfrwt beam="2">  1       21 0.22774975E-01 0.31963283E+03</pdfrwt>
<totfact> 0.88046584E+03</totfact>
</mgrwt>
</event>
<event>
 5    0  0.1324511E+000  0.4070148E+03  0.7546771E-02  0.1041377E+00
         21   -1    0    0  504  501  0.00000000000E+00  0.00000000000E+00  0.37920296273E+03  0.37920296273E+03  0.00000000000E+00 0. -1.
         21   -1    0    0  501  502 -0.00000000000E+00 -0.00000000000E+00 -0.70642673956E+03  0.70642673956E+03  0.00000000000E+00 0. -1.
         25    1    1    2    0    0  0.16134871866E+03 -0.35214008304E+03 -0.51126807073E+03  0.65349528479E+03  0.12500000000E+03 0.  0.
         21    1    1    2  503  502 -0.13919258268E+03  0.33504589771E+03  0.17426835670E+03  0.40249197358E+03  0.00000000000E+00 0. -1.
         21    1    1    2  504  503 -0.22156135975E+02  0.17094185330E+02  0.97759372026E+01  0.29642443921E+02  0.00000000000E+00 0. -1.
<mgrwt>
<rscale>  4 0.40701480E+03</rscale>
<asrwt>0</asrwt>
<pdfrwt beam="1">  1       21 0.58338918E-01 0.40701480E+03</pdfrwt>
<pdfrwt beam="2">  1       21 0.10868104E+00 0.40701480E+03</pdfrwt>
<totfact> 0.16154438E+03</totfact>
</mgrwt>
</event>
<event>
 5    0  0.1324511E+000  0.2365752E+03  0.7546771E-02  0.1122096E+00
         21   -1    0    0  504  501  0.00000000000E+00  0.00000000000E+00  0.27358776914E+03  0.27358776914E+03  0.00000000000E+00 0. -1.
         21   -1    0    0  501  502 -0.00000000000E+00 -0.00000000000E+00 -0.26154372314E+03  0.26154372314E+03  0.00000000000E+00 0. -1.
         25    1    1    2    0    0 -0.14616056116E+03  0.13776763878E+03  0.15375591228E+03  0.28215015948E+03  0.12500000000E+03 0.  0.
         21    1    1    2  503  502  0.26678196891E+02 -0.26756931460E+02 -0.59132221988E+02  0.70173208903E+02  0.00000000000E+00 0.  1.
         21    1    1    2  504  503  0.11948236427E+03 -0.11101070732E+03 -0.82579644286E+02  0.18280812390E+03  0.00000000000E+00 0. -1.
<mgrwt>
<rscale>  4 0.23657521E+03</rscale>
<asrwt>0</asrwt>
<pdfrwt beam="1">  1       21 0.42090426E-01 0.23657521E+03</pdfrwt>
<pdfrwt beam="2">  1       21 0.40237496E-01 0.23657521E+03</pdfrwt>
<totfact> 0.31618498E+04</totfact>
</mgrwt>
</event>
<event>
 5    0  0.1324511E+000  0.2443790E+03  0.7546771E-02  0.1116910E+00
         21   -1    0    0  504  501  0.00000000000E+00  0.00000000000E+00  0.24938637987E+04  0.24938637987E+04  0.00000000000E+00 0.  1.
         21   -1    0    0  501  502 -0.00000000000E+00 -0.00000000000E+00 -0.33340953523E+02  0.33340953523E+02  0.00000000000E+00 0.  1.
         25    1    1    2    0    0  0.38323336339E+02 -0.21588557849E+03  0.60688912896E+03  0.65727823329E+03  0.12500000000E+03 0.  0.
         21    1    1    2  503  502  0.33153100910E+01  0.27662173816E+02  0.67965516830E+03  0.68022594404E+03  0.00000000000E+00 0.  1.
         21    1    1    2  504  503 -0.41638646430E+02  0.18822340467E+03  0.11739785479E+04  0.11897005749E+04  0.00000000000E+00 0.  1.
<mgrwt>
<rscale>  4 0.24437905E+03</rscale>
<asrwt>0</asrwt>
<pdfrwt beam="1">  1       21 0.38367121E+00 0.24437905E+03</pdfrwt>
<pdfrwt beam="2">  1       21 0.51293794E-02 0.24437905E+03</pdfrwt>
<totfact> 0.26520267E+03</totfact>
</mgrwt>
</event>
<event>
 5    0  0.1324511E+000  0.2614411E+03  0.7546771E-02  0.1106280E+00
         21   -1    0    0  504  501  0.00000000000E+00  0.00000000000E+00  0.11700685044E+04  0.11700685044E+04  0.00000000000E+00 0. -1.
         21   -1    0    0  501  502 -0.00000000000E+00 -0.00000000000E+00 -0.52732507798E+02  0.52732507798E+02  0.00000000000E+00 0. -1.
         25    1    1    2    0    0 -0.21567013935E+03 -0.78821547357E+02  0.55564933702E+03  0.61408275588E+03  0.12500000000E+03 0.  0.
         21    1    1    2  503  502  0.69221945511E+02  0.31718438099E+02  0.24650863045E+03  0.25800046888E+03  0.00000000000E+00 0. -1.
         21    1    1    2  504  503  0.14644819384E+03  0.47103109258E+02  0.31517802911E+03  0.35071778742E+03  0.00000000000E+00 0. -1.
<mgrwt>
<rscale>  4 0.26144109E+03</rscale>
<asrwt>0</asrwt>
<pdfrwt beam="1">  1       21 0.18001052E+00 0.26144109E+03</pdfrwt>
<pdfrwt beam="2">  1       21 0.81126944E-02 0.26144109E+03</pdfrwt>
<totfact> 0.20395014E+04</totfact>
</mgrwt>
</event>
<event>
 5    0  0.1324511E+000  0.3597584E+03  0.7546771E-02  0.1058680E+00
         21   -1    0    0  504  501  0.00000000000E+00  0.00000000000E+00  0.32813416180E+03  0.32813416180E+03  0.00000000000E+00 0.  1.
         21   -1    0    0  501  502 -0.00000000000E+00 -0.00000000000E+00 -0.40682531539E+03  0.40682531539E+03  0.00000000000E+00 0.  1.
         25    1    1    2    0    0  0.24994859911E+03  0.22655426449E+03  0.65806129429E+02  0.36572747180E+03  0.12500000000E+03 0.  0.
         21    1    1    2  503  502 -0.22736258703E+02 -0.18512848671E+02 -0.25905551910E+02  0.39124936364E+02  0.00000000000E+00 0.  1.
         21    1    1    2  504  503 -0.22721234041E+03 -0.20804141582E+03 -0.11859173111E+03  0.33010706902E+03  0.00000000000E+00 0.  1.
<mgrwt>
<rscale>  4 0.35975844E+03</rscale>
<asrwt>0</asrwt>
<pdfrwt beam="1">  1       21 0.50482179E-01 0.35975844E+03</pdfrwt>
<pdfrwt beam="2">  1       21 0.62588510E-01 0.35975844E+03</pdfrwt>
<totfact> 0.80940011E+03</totfact>
</mgrwt>
</event>
<event>
 5    0  0.1324511E+000  0.3070196E+03  0.7546771E-02  0.1081783E+00
         21   -1    0    0  504  501  0.00000000000E+00  0.00000000000E+00  0.14366249292E+04  0.14366249292E+04  0.00000000000E+00 0. -1.
         21   -1    0    0  501  502 -0.00000000000E+00 -0.00000000000E+00 -0.23759130359E+03  0.23759130359E+03  0.00000000000E+00 0. -1.
         25    1    1    2    0    0  0.21362922474E+03 -0.18830259210E+03 -0.10362658881E+03  0.32780906297E+03  0.12500000000E+03 0.  0.
         21    1    1    2  503  502 -0.19631339436E+03  0.12864533466E+03  0.12233666776E+04  0.12456783689E+04  0.00000000000E+00 0. -1.
         21    1    1    2  504  503 -0.17315830383E+02  0.59657257447E+02  0.79293536811E+02  0.10072880089E+03  0.00000000000E+00 0. -1.
<mgrwt>
<rscale>  4 0.30701964E+03</rscale>
<asrwt>0</asrwt>
<pdfrwt beam="1">  1       21 0.22101921E+00 0.30701964E+03</pdfrwt>
<pdfrwt beam="2">  1       21 0.36552509E-01 0.30701964E+03</pdfrwt>
<totfact> 0.64119316E+02</totfact>
</mgrwt>
</event>
<event>
 5    0  0.1324511E+000  0.2433986E+03  0.7546771E-02  0.1117549E+00
         21   -1    0    0  504  501  0.00000000000E+00  0.00000000000E+00  0.25622051014E+03  0.25622051014E+03  0.00000000000E+00 0. -1.
         21   -1    0    0  501  502 -0.00000000000E+00 -0.00000000000E+00 -0.29350077616E+03  0.29350077616E+03  0.00000000000E+00 0. -1.
         25    1    1    2    0    0 -0.14506700474E+03 -0.15024454400E+03 -0.17097500738E+03  0.29744799884E+03  0.12500000000E+03 0.  0.
         21    1    1    2  503  502  0.65745230763E+02  0.36403219609E+02  0.49057977372E+02  0.89745835055E+02  0.00000000000E+00 0. -1.
         21    1    1    2  504  503  0.79321773977E+02  0.11384132439E+03  0.84636763990E+02  0.16252745240E+03  0.00000000000E+00 0. -1.
<mgrwt>
<rscale>  4 0.24339856E+03</rscale>
<asrwt>0</asrwt>
<pdfrwt beam="1">  1       21 0.39418540E-01 0.24339856E+03</pdfrwt>
<pdfrwt beam="2">  1       21 0.45153965E-01 0.24339856E+03</pdfrwt>
<totfact> 0.28443941E+04</totfact>
</mgrwt>
</event>
<event>
 5    0  0.1324511E+000  0.2462379E+03  0.7546771E-02  0.1115706E+00
         21   -1    0    0  504  501  0.00000000000E+00  0.00000000000E+00  0.86546227738E+02  0.86546227738E+02  0.00000000000E+00 0. -1.
         21   -1    0    0  501  502 -0.00000000000E+00 -0.00000000000E+00 -0.16470075202E+04  0.16470075202E+04  0.00000000000E+00 0. -1.
         25    1    1    2    0    0  0.13700384619E+03 -0.17008494227E+03 -0.11265537578E+04  0.11543168156E+04  0.12500000000E+03 0.  0.
         21    1    1    2  503  502 -0.82280781352E+01  0.22913465473E+03 -0.33697124339E+03  0.40757822580E+03  0.00000000000E+00 0. -1.
         21    1    1    2  504  503 -0.12877576805E+03 -0.59049712465E+02 -0.96936291241E+02  0.17165870656E+03  0.00000000000E+00 0. -1.
<mgrwt>
<rscale>  4 0.24623787E+03</rscale>
<asrwt>0</asrwt>
<pdfrwt beam="1">  1       21 0.13314804E-01 0.24623787E+03</pdfrwt>
<pdfrwt beam="2">  1       21 0.25338578E+00 0.24623787E+03</pdfrwt>
<totfact> 0.29322693E+03</totfact>
</mgrwt>
</event>
<event>
 5    0  0.1324511E+000  0.4744533E+03  0.7546771E-02  0.1020671E+00
         21   -1    0    0  504  501  0.00000000000E+00  0.00000000000E+00  0.44994837980E+03  0.44994837980E+03  0.00000000000E+00 0. -1.
         21   -1    0    0  501  502 -0.00000000000E+00 -0.00000000000E+00 -0.10010775317E+04  0.10010775317E+04  0.00000000000E+00 0.  1.
         25    1    1    2    0    0 -0.15215646318E+02 -0.45743791674E+03 -0.79770876096E+03  0.92814073872E+03  0.12500000000E+03 0.  0.
         21    1    1    2  503  502  0.20154516125E+02  0.43179434234E+03  0.21783885081E+03  0.48405198431E+03  0.00000000000E+00 0. -1.
         21    1    1    2  504  503 -0.49388698066E+01  0.25643574405E+02  0.28740758233E+02  0.38833188474E+02  0.00000000000E+00 0. -1.
<mgrwt>
<rscale>  4 0.47445333E+03</rscale>
<asrwt>0</asrwt>
<pdfrwt beam="1">  1       21 0.69222829E-01 0.47445333E+03</pdfrwt>
<pdfrwt beam="2">  1       21 0.15401192E+00 0.47445333E+03</pdfrwt>
<totfact> 0.43451220E+02</totfact>
</mgrwt>
</event>
<event>
 5    0  0.1324511E+000  0.4433052E+03  0.7546771E-02  0.1029738E+00
         21   -1    0    0  504  501  0.00000000000E+00  0.00000000000E+00  0.47542490845E+03  0.47542490845E+03  0.00000000000E+00 0. -1.
         21   -1    0    0  501  502 -0.00000000000E+00 -0.00000000000E+00 -0.21338058300E+04  0.21338058300E+04  0.00000000000E+00 0. -1.
         25    1    1    2    0    0  0.23590082925E+03  0.35992663125E+03 -0.19710851176E+04  0.20213851493E+04  0.12500000000E+03 0.  0.
         21    1    1    2  503  502 -0.25692049138E+03 -0.27294709727E+03  0.15317423142E+03  0.40493283637E+03  0.00000000000E+00 0. -1.
         21    1    1    2  504  503  0.21019662129E+02 -0.86979533978E+02  0.15952996460E+03  0.18291275279E+03  0.00000000000E+00 0. -1.
<mgrwt>
<rscale>  4 0.44330523E+03</rscale>
<asrwt>0</asrwt>
<pdfrwt beam="1">  1       21 0.73142292E-01 0.44330523E+03</pdfrwt>
<pdfrwt beam="2">  1       21 0.32827783E+00 0.44330523E+03</pdfrwt>
<totfact> 0.29597672E+01</totfact>
</mgrwt>
</event>
<event>
 5    0  0.1324511E+000  0.3067170E+03  0.7546771E-02  0.1081930E+00
         21   -1    0    0  504  501  0.00000000000E+00  0.00000000000E+00  0.13345929736E+03  0.13345929736E+03  0.00000000000E+00 0.  1.
         21   -1    0    0  501  502 -0.00000000000E+00 -0.00000000000E+00 -0.78325779842E+03  0.78325779842E+03  0.00000000000E+00 0. -1.
         25    1    1    2    0    0  0.26609779658E+03  0.87420090321E+02 -0.51384450882E+03  0.59842417128E+03  0.12500000000E+03 0.  0.
         21    1    1    2  503  502 -0.22594192211E+03 -0.57194781783E+02 -0.88910896971E+02  0.24945168436E+03  0.00000000000E+00 0.  1.
         21    1    1    2  504  503 -0.40155874461E+02 -0.30225308539E+02 -0.47043095277E+02  0.68841240134E+02  0.00000000000E+00 0. -1.
<mgrwt>
<rscale>  4 0.30671699E+03</rscale>
<asrwt>0</asrwt>
<pdfrwt beam="1">  1       21 0.20532200E-01 0.30671699E+03</pdfrwt>
<pdfrwt beam="2">  1       21 0.12050120E+00 0.30671699E+03</pdfrwt>
<totfact> 0.10757001E+04</totfact>
</mgrwt>
</event>
<event>
 5    0  0.1324511E+000  0.2250087E+03  0.7546771E-02  0.1130203E+00
         21   -1    0    0  504  501  0.00000000000E+00  0.00000000000E+00  0.84610084222E+02  0.84610084222E+02  0.00000000000E+00 0.  1.
         21   -1    0    0  501  502 -0.00000000000E+00 -0.00000000000E+00 -0.13887177572E+04  0.13887177572E+04  0.00000000000E+00 0.  1.
         25    1    1    2    0    0 -0.12150460384E+02  0.21007742060E+03 -0.98420273520E+03  0.10141795602E+04  0.12500000000E+03 0.  0.
         21    1    1    2  503  502  0.12786271005E+03 -0.11955386710E+03 -0.22151337759E+03  0.28232990669E+03  0.00000000000E+00 0.  1.
         21    1    1    2  504  503 -0.11571224966E+03 -0.90523553507E+02 -0.98391560191E+02  0.17681837455E+03  0.00000000000E+00 0.  1.
<mgrwt>
<rscale>  4 0.22500869E+03</rscale>
<asrwt>0</asrwt>
<pdfrwt beam="1">  1       21 0.13016937E-01 0.22500869E+03</pdfrwt>
<pdfrwt beam="2">  1       21 0.21364887E+00 0.22500869E+03</pdfrwt>
<totfact> 0.54245515E+03</totfact>
</mgrwt>
</event>
<event>
 5    0  0.1324511E+000  0.2595092E+03  0.7546771E-02  0.1107438E+00
         21   -1    0    0  504  501  0.00000000000E+00  0.00000000000E+00  0.45102167072E+03  0.45102167072E+03  0.00000000000E+00 0. -1.
         21   -1    0    0  501  502 -0.00000000000E+00 -0.00000000000E+00 -0.22089083240E+03  0.22089083240E+03  0.00000000000E+00 0. -1.
         25    1    1    2    0    0  0.36154459670E+02  0.22452809106E+03 -0.87889735665E+02  0.27398834695E+03  0.12500000000E+03 0.  0.
         21    1    1    2  503  502 -0.34154268921E+02 -0.19351521118E+03  0.21945906746E+03  0.29457924797E+03  0.00000000000E+00 0. -1.
         21    1    1    2  504  503 -0.20001907490E+01 -0.31012879876E+02  0.98561506531E+02  0.10334490820E+03  0.00000000000E+00 0. -1.
<mgrwt>
<rscale>  4 0.25950917E+03</rscale>
<asrwt>0</asrwt>
<pdfrwt beam="1">  1       21 0.69387949E-01 0.25950917E+03</pdfrwt>
<pdfrwt beam="2">  1       21 0.33983205E-01 0.25950917E+03</pdfrwt>
<totfact> 0.15174097E+04</totfact>
</mgrwt>
</event>
<event>
 5    0  0.1324511E+000  0.3242263E+03  0.7546771E-02  0.1073721E+00
         21   -1    0    0  504  501  0.00000000000E+00  0.00000000000E+00  0.36122407681E+03  0.36122407681E+03  0.00000000000E+00 0. -1.
         21   -1    0    0  501  502 -0.00000000000E+00 -0.00000000000E+00 -0.12098867551E+04  0.12098867551E+04  0.00000000000E+00 0.  1.
         25    1    1    2    0    0  0.15106253562E+03 -0.25822047655E+03 -0.11181351678E+04  0.11641945532E+04  0.12500000000E+03 0.  0.
         21    1    1    2  503  502 -0.11019883620E+03  0.22813502333E+03  0.23505448436E+03  0.34560090131E+03  0.00000000000E+00 0. -1.
         21    1    1    2  504  503 -0.40863699424E+02  0.30085453222E+02  0.34418005172E+02  0.61315377404E+02  0.00000000000E+00 0. -1.
<mgrwt>
<rscale>  4 0.32422632E+03</rscale>
<asrwt>0</asrwt>
<pdfrwt beam="1">  1       21 0.55572935E-01 0.32422632E+03</pdfrwt>
<pdfrwt beam="2">  1       21 0.18613642E+00 0.32422632E+03</pdfrwt>
<totfact> 0.44740914E+02</totfact>
</mgrwt>
</event>
<event>
 5    0  0.1324511E+000  0.2712650E+03  0.7546771E-02  0.1100558E+00
         21   -1    0    0  504  501  0.00000000000E+00  0.00000000000E+00  0.20772901038E+04  0.20772901038E+04  0.00000000000E+00 0.  1.
         21   -1    0    0  501  502 -0.00000000000E+00 -0.00000000000E+00 -0.46411212123E+02  0.46411212123E+02  0.00000000000E+00 0.  1.
         25    1    1    2    0    0 -0.67054304951E+02  0.23122156332E+03  0.46863190776E+03  0.54147996835E+03  0.12500000000E+03 0.  0.
         21    1    1    2  503  502 -0.55839095997E-01 -0.26931576162E+02  0.35129853219E+03  0.35232935108E+03  0.00000000000E+00 0.  1.
         21    1    1    2  504  503  0.67110144047E+02 -0.20428998716E+03  0.12109484517E+04  0.12298919965E+04  0.00000000000E+00 0.  1.
<mgrwt>
<rscale>  4 0.27126498E+03</rscale>
<asrwt>0</asrwt>
<pdfrwt beam="1">  1       21 0.31958302E+00 0.27126498E+03</pdfrwt>
<pdfrwt beam="2">  1       21 0.71401881E-02 0.27126498E+03</pdfrwt>
<totfact> 0.35432519E+03</totfact>
</mgrwt>
</event>
<event>
 5    0  0.1324511E+000  0.3388873E+03  0.7546771E-02  0.1067271E+00
         21   -1    0    0  504  501  0.00000000000E+00  0.00000000000E+00  0.82659581282E+03  0.82659581282E+03  0.00000000000E+00 0. -1.
         21   -1    0    0  501  502 -0.00000000000E+00 -0.00000000000E+00 -0.15867106723E+03  0.15867106723E+03  0.00000000000E+00 0. -1.
         25    1    1    2    0    0  0.27101936610E+03  0.16052439293E+03  0.14153578824E+03  0.36725598277E+03  0.12500000000E+03 0.  0.
         21    1    1    2  503  502 -0.22346338576E+03 -0.14222926337E+03  0.38166014813E+03  0.46457455463E+03  0.00000000000E+00 0. -1.
         21    1    1    2  504  503 -0.47555980341E+02 -0.18295129559E+02  0.14472880921E+03  0.15343634266E+03  0.00000000000E+00 0. -1.
<mgrwt>
<rscale>  4 0.33888726E+03</rscale>
<asrwt>0</asrwt>
<pdfrwt beam="1">  1       21 0.12716858E+00 0.33888726E+03</pdfrwt>
<pdfrwt beam="2">  1       21 0.24410934E-01 0.33888726E+03</pdfrwt>
<totfact> 0.66425096E+03</totfact>
</mgrwt>
</event>
<event>
 5    0  0.1324511E+000  0.2526971E+03  0.7546771E-02  0.1111612E+00
         21   -1    0    0  504  501  0.00000000000E+00  0.00000000000E+00  0.81816260632E+02  0.81816260632E+02  0.00000000000E+00 0.  1.
         21   -1    0    0  501  502 -0.00000000000E+00 -0.00000000000E+00 -0.20611433021E+04  0.20611433021E+04  0.00000000000E+00 0.  1.
         25    1    1    2    0    0 -0.16114295668E+03  0.14567037935E+03 -0.18059733821E+04  0.18232804964E+04  0.12500000000E+03 0.  0.
         21    1    1    2  503  502 -0.70619525707E+01  0.24183978889E+02 -0.36127001528E+02  0.44044253296E+02  0.00000000000E+00 0.  1.
         21    1    1    2  504  503  0.16820490925E+03 -0.16985435824E+03 -0.13722665786E+03  0.27563481300E+03  0.00000000000E+00 0.  1.
<mgrwt>
<rscale>  4 0.25269711E+03</rscale>
<asrwt>0</asrwt>
<pdfrwt beam="1">  1       21 0.12587116E-01 0.25269711E+03</pdfrwt>
<pdfrwt beam="2">  1       21 0.31709899E+00 0.25269711E+03</pdfrwt>
<totfact> 0.13651087E+03</totfact>
</mgrwt>
</event>
<event>
 5    0  0.1324511E+000  0.2570615E+03  0.7546771E-02  0.1108922E+00
         21   -1    0    0  504  501  0.00000000000E+00  0.00000000000E+00  0.67288522102E+03  0.67288522102E+03  0.00000000000E+00 0.  1.
         21   -1    0    0  501  502 -0.00000000000E+00 -0.00000000000E+00 -0.64395903583E+03  0.64395903583E+03  0.00000000000E+00 0.  1.
         25    1    1    2    0    0  0.21784106080E+03  0.54780567143E+02 -0.59458474529E+03  0.64777438791E+03  0.12500000000E+03 0.  0.
         21    1    1    2  503  502 -0.52720582889E+02 -0.48403513909E+02  0.12693417554E+03  0.14572112043E+03  0.00000000000E+00 0.  1.
         21    1    1    2  504  503 -0.16512047791E+03 -0.63770532341E+01  0.49657675493E+03  0.52334874851E+03  0.00000000000E+00 0.  1.
<mgrwt>
<rscale>  4 0.25706155E+03</rscale>
<asrwt>0</asrwt>
<pdfrwt beam="1">  1       21 0.10352080E+00 0.25706155E+03</pdfrwt>
<pdfrwt beam="2">  1       21 0.99070620E-01 0.25706155E+03</pdfrwt>
<totfact> 0.59677090E+02</totfact>
</mgrwt>
</event>
<event>
 5    0  0.1324511E+000  0.2381925E+03  0.7546771E-02  0.1121003E+00
         21   -1    0    0  504  501  0.00000000000E+00  0.00000000000E+00  0.25900898009E+03  0.25900898009E+03  0.00000000000E+00 0.  1.
         21   -1    0    0  501  502 -0.00000000000E+00 -0.00000000000E+00 -0.26031184432E+03  0.26031184432E+03  0.00000000000E+00 0.  1.
         25    1    1    2    0    0  0.41921165787E+02  0.19837656297E+03 -0.12886491860E+03  0.27081693471E+03  0.12500000000E+03 0.  0.
         21    1    1    2  503  502 -0.54190546068E+02 -0.16338123045E+03  0.84756883465E+02  0.19186915083E+03  0.00000000000E+00 0.  1.
         21    1    1    2  504  503  0.12269380281E+02 -0.34995332521E+02  0.42805170910E+02  0.56634738874E+02  0.00000000000E+00 0.  1.
<mgrwt>
<rscale>  4 0.23819245E+03</rscale>
<asrwt>0</asrwt>
<pdfrwt beam="1">  1       21 0.39847536E-01 0.23819245E+03</pdfrwt>
<pdfrwt beam="2">  1       21 0.40047976E-01 0.23819245E+03</pdfrwt>
<totfact> 0.35665382E+04</totfact>
</mgrwt>
</event>
<event>
 5    0  0.1324511E+000  0.2411503E+03  0.7546771E-02  0.1119029E+00
         21   -1    0    0  504  501  0.00000000000E+00  0.00000000000E+00  0.17855573838E+03  0.17855573838E+03  0.00000000000E+00 0.  1.
         21   -1    0    0  501  502 -0.00000000000E+00 -0.00000000000E+00 -0.29860038070E+03  0.29860038070E+03  0.00000000000E+00 0.  1.
         25    1    1    2    0    0 -0.10759198529E+03  0.17593305176E+03 -0.14364091566E+02  0.24157773309E+03  0.12500000000E+03 0.  0.
         21    1    1    2  503  502  0.10175591710E+03 -0.13993440649E+03 -0.77972785446E+02  0.18977792299E+03  0.00000000000E+00 0.  1.
         21    1    1    2  504  503  0.58360681916E+01 -0.35998645266E+02 -0.27707765309E+02  0.45800463004E+02  0.00000000000E+00 0.  1.
<mgrwt>
<rscale>  4 0.24115031E+03</rscale>
<asrwt>0</asrwt>
<pdfrwt beam="1">  1       21 0.27470114E-01 0.24115031E+03</pdfrwt>
<pdfrwt beam="2">  1       21 0.45938520E-01 0.24115031E+03</pdfrwt>
<totfact> 0.56202708E+04</totfact>
</mgrwt>
</event>
<event>
 5    0  0.1599159E+000  0.2504839E+03  0.7546771E-02  0.1112999E+00
         21   -1    0    0  504  501  0.00000000000E+00  0.00000000000E+00  0.18987475999E+03  0.18987475999E+03  0.00000000000E+00 0. -1.
         21   -1    0    0  501  502 -0.00000000000E+00 -0.00000000000E+00 -0.34617143341E+03  0.34617143341E+03  0.00000000000E+00 0. -1.
         25    1    1    2    0    0  0.18214621728E+03  0.11806741611E+03  0.24805721600E+02  0.25170912387E+03  0.12500000000E+03 0.  0.
         21    1    1    2  503  502 -0.15707267551E+03 -0.11308591642E+03 -0.15727149074E+03  0.24938839525E+03  0.00000000000E+00 0. -1.
         21    1    1    2  504  503 -0.25073541769E+02 -0.49814996862E+01 -0.23830904269E+02  0.34948674285E+02  0.00000000000E+00 0.  1.
<mgrwt>
<rscale>  4 0.25048385E+03</rscale>
<asrwt>0</asrwt>
<pdfrwt beam="1">  1       21 0.29211502E-01 0.25048385E+03</pdfrwt>
<pdfrwt beam="2">  1       21 0.53257143E-01 0.25048385E+03</pdfrwt>
<totfact> 0.36444319E+04</totfact>
</mgrwt>
</event>
<event>
 5    0  0.1324511E+000  0.3176058E+03  0.7546771E-02  0.1076757E+00
         21   -1    0    0  504  501  0.00000000000E+00  0.00000000000E+00  0.12675717837E+03  0.12675717837E+03  0.00000000000E+00 0. -1.
         21   -1    0    0  501  502 -0.00000000000E+00 -0.00000000000E+00 -0.18405781828E+04  0.18405781828E+04  0.00000000000E+00 0. -1.
         25    1    1    2    0    0  0.65495784920E+02 -0.28453246531E+03 -0.16006307929E+04  0.16318371110E+04  0.12500000000E+03 0.  0.
         21    1    1    2  503  502  0.10829941241E+02  0.13727966682E+03 -0.97852393368E+02  0.16893219183E+03  0.00000000000E+00 0. -1.
         21    1    1    2  504  503 -0.76325726161E+02  0.14725279849E+03 -0.15337818210E+02  0.16656605838E+03  0.00000000000E+00 0.  1.
<mgrwt>
<rscale>  4 0.31760576E+03</rscale>
<asrwt>0</asrwt>
<pdfrwt beam="1">  1       21 0.19501104E-01 0.31760576E+03</pdfrwt>
<pdfrwt beam="2">  1       21 0.28316588E+00 0.31760576E+03</pdfrwt>
<totfact> 0.90987559E+02</totfact>
</mgrwt>
</event>
<event>
 5    0  0.1324511E+000  0.4407482E+03  0.7546771E-02  0.1030517E+00
         21   -1    0    0  504  501  0.00000000000E+00  0.00000000000E+00  0.75622500563E+03  0.75622500563E+03  0.00000000000E+00 0.  1.
         21   -1    0    0  501  502 -0.00000000000E+00 -0.00000000000E+00 -0.39771408931E+03  0.39771408931E+03  0.00000000000E+00 0.  1.
         25    1    1    2    0    0  0.34825234479E+03  0.31052846260E+03  0.16553210391E+02  0.48332869820E+03  0.12500000000E+03 0.  0.
         21    1    1    2  503  502 -0.25763822383E+03 -0.31618920218E+03  0.39305186250E+03  0.56642990084E+03  0.00000000000E+00 0.  1.
         21    1    1    2  504  503 -0.90614120954E+02  0.56607395798E+01 -0.51094156568E+02  0.10418049589E+03  0.00000000000E+00 0.  1.
<mgrwt>
<rscale>  4 0.44074821E+03</rscale>
<asrwt>0</asrwt>
<pdfrwt beam="1">  1       21 0.11634231E+00 0.44074821E+03</pdfrwt>
<pdfrwt beam="2">  1       21 0.61186783E-01 0.44074821E+03</pdfrwt>
<totfact> 0.12112992E+03</totfact>
</mgrwt>
</event>
<event>
 5    0  0.1324511E+000  0.2643915E+03  0.7546771E-02  0.1104533E+00
         21   -1    0    0  504  501  0.00000000000E+00  0.00000000000E+00  0.10114397598E+03  0.10114397598E+03  0.00000000000E+00 0.  1.
         21   -1    0    0  501  502 -0.00000000000E+00 -0.00000000000E+00 -0.63789184338E+03  0.63789184338E+03  0.00000000000E+00 0.  1.
         25    1    1    2    0    0  0.15365650042E+03 -0.17512157714E+03 -0.31993206082E+03  0.41504145629E+03  0.12500000000E+03 0.  0.
         21    1    1    2  503  502 -0.73173740404E+01  0.42762495852E+02 -0.41757391292E+02  0.60215070720E+02  0.00000000000E+00 0. -1.
         21    1    1    2  504  503 -0.14633912638E+03  0.13235908129E+03 -0.17505841529E+03  0.26377929235E+03  0.00000000000E+00 0.  1.
<mgrwt>
<rscale>  4 0.26439154E+03</rscale>
<asrwt>0</asrwt>
<pdfrwt beam="1">  1       21 0.15560612E-01 0.26439154E+03</pdfrwt>
<pdfrwt beam="2">  1       21 0.98137206E-01 0.26439154E+03</pdfrwt>
<totfact> 0.30372838E+04</totfact>
</mgrwt>
</event>
<event>
 5    0  0.1324511E+000  0.2577264E+03  0.7546771E-02  0.1108517E+00
         21   -1    0    0  504  501  0.00000000000E+00  0.00000000000E+00  0.61229855370E+03  0.61229855370E+03  0.00000000000E+00 0.  1.
         21   -1    0    0  501  502 -0.00000000000E+00 -0.00000000000E+00 -0.15148169851E+03  0.15148169851E+03  0.00000000000E+00 0.  1.
         25    1    1    2    0    0 -0.19236749052E+03 -0.11744204810E+03  0.13427019309E+02  0.25807590146E+03  0.12500000000E+03 0.  0.
         21    1    1    2  503  502  0.39874186731E+01  0.25081856280E+02  0.59906130847E+02  0.65067223202E+02  0.00000000000E+00 0. -1.
         21    1    1    2  504  503  0.18838007184E+03  0.92360191818E+02  0.38748370503E+03  0.44063712754E+03  0.00000000000E+00 0.  1.
<mgrwt>
<rscale>  4 0.25772638E+03</rscale>
<asrwt>0</asrwt>
<pdfrwt beam="1">  1       21 0.94199776E-01 0.25772638E+03</pdfrwt>
<pdfrwt beam="2">  1       21 0.23304877E-01 0.25772638E+03</pdfrwt>
<totfact> 0.15754972E+04</totfact>
</mgrwt>
</event>
<event>
 5    0  0.1324511E+000  0.2716719E+03  0.7546771E-02  0.1100327E+00
         21   -1    0    0  504  501  0.00000000000E+00  0.00000000000E+00  0.24602119442E+03  0.24602119442E+03  0.00000000000E+00 0.  1.
         21   -1    0    0  501  502 -0.00000000000E+00 -0.00000000000E+00 -0.29044448654E+03  0.29044448654E+03  0.00000000000E+00 0.  1.
         25    1    1    2    0    0  0.23321483292E+03 -0.61574644183E+02  0.49221580262E+02  0.27609483708E+03  0.12500000000E+03 0.  0.
         21    1    1    2  503  502 -0.21486436159E+03  0.48318206010E+02 -0.86831112177E+02  0.23672977201E+03  0.00000000000E+00 0.  1.
         21    1    1    2  504  503 -0.18350471331E+02  0.13256438173E+02 -0.68137601967E+01  0.23641071869E+02  0.00000000000E+00 0. -1.
<mgrwt>
<rscale>  4 0.27167185E+03</rscale>
<asrwt>0</asrwt>
<pdfrwt beam="1">  1       21 0.37849415E-01 0.27167185E+03</pdfrwt>
<pdfrwt beam="2">  1       21 0.44683767E-01 0.27167185E+03</pdfrwt>
<totfact> 0.31175831E+04</totfact>
</mgrwt>
</event>
<event>
 5    0  0.1324511E+000  0.3977459E+03  0.7546771E-02  0.1044563E+00
         21   -1    0    0  504  501  0.00000000000E+00  0.00000000000E+00  0.26619456162E+03  0.26619456162E+03  0.00000000000E+00 0.  1.
         21   -1    0    0  501  502 -0.00000000000E+00 -0.00000000000E+00 -0.75898488143E+03  0.75898488143E+03  0.00000000000E+00 0.  1.
         25    1    1    2    0    0 -0.37860243235E+03  0.98692894893E+02 -0.37632666675E+02  0.41245764253E+03  0.12500000000E+03 0.  0.
         21    1    1    2  503  502  0.33939016155E+03 -0.95923733882E+02 -0.33549929236E+03  0.48677183531E+03  0.00000000000E+00 0.  1.
         21    1    1    2  504  503  0.39212270799E+02 -0.27691610112E+01 -0.11965836077E+03  0.12594996521E+03  0.00000000000E+00 0.  1.
<mgrwt>
<rscale>  4 0.39774594E+03</rscale>
<asrwt>0</asrwt>
<pdfrwt beam="1">  1       21 0.40953009E-01 0.39774594E+03</pdfrwt>
<pdfrwt beam="2">  1       21 0.11676691E+00 0.39774594E+03</pdfrwt>
<totfact> 0.28694252E+03</totfact>
</mgrwt>
</event>
<event>
 5    0  0.1324511E+000  0.2486556E+03  0.7546771E-02  0.1114157E+00
         21   -1    0    0  504  501  0.00000000000E+00  0.00000000000E+00  0.24942107148E+03  0.24942107148E+03  0.00000000000E+00 0.  1.
         21   -1    0    0  501  502 -0.00000000000E+00 -0.00000000000E+00 -0.70774325689E+03  0.70774325689E+03  0.00000000000E+00 0.  1.
         25    1    1    2    0    0 -0.18276708886E+03  0.10840563700E+03 -0.60503500025E+03  0.65333601036E+03  0.12500000000E+03 0.  0.
         21    1    1    2  503  502  0.19243558214E+03 -0.13380081861E+03  0.11205871631E+03  0.25979081631E+03  0.00000000000E+00 0.  1.
         21    1    1    2  504  503 -0.96684932794E+01  0.25395181617E+02  0.34654098529E+02  0.44037501706E+02  0.00000000000E+00 0.  1.
<mgrwt>
<rscale>  4 0.24865561E+03</rscale>
<asrwt>0</asrwt>
<pdfrwt beam="1">  1       21 0.38372473E-01 0.24865561E+03</pdfrwt>
<pdfrwt beam="2">  1       21 0.10888358E+00 0.24865561E+03</pdfrwt>
<totfact> 0.42060739E+03</totfact>
</mgrwt>
</event>
<event>
 5    0  0.1324511E+000  0.3060928E+03  0.7546771E-02  0.1082234E+00
         21   -1    0    0  504  501  0.00000000000E+00  0.00000000000E+00  0.72126120537E+03  0.72126120537E+03  0.00000000000E+00 0. -1.
         21   -1    0    0  501  502 -0.00000000000E+00 -0.00000000000E+00 -0.13597094129E+03  0.13597094129E+03  0.00000000000E+00 0. -1.
         25    1    1    2    0    0 -0.18573852481E+03  0.20873193122E+03  0.16057654465E+03  0.34565538532E+03  0.12500000000E+03 0.  0.
         21    1    1    2  503  502  0.88708003516E+02 -0.68788893036E+02  0.20352065713E+03  0.23242564311E+03  0.00000000000E+00 0. -1.
         21    1    1    2  504  503  0.97030521297E+02 -0.13994303819E+03  0.22119306230E+03  0.27915111823E+03  0.00000000000E+00 0. -1.
<mgrwt>
<rscale>  4 0.30609283E+03</rscale>
<asrwt>0</asrwt>
<pdfrwt beam="1">  1       21 0.11096326E+00 0.30609283E+03</pdfrwt>
<pdfrwt beam="2">  1       21 0.20918607E-01 0.30609283E+03</pdfrwt>
<totfact> 0.12744899E+04</totfact>
</mgrwt>
</event>
<event>
 5    0  0.1324511E+000  0.3183999E+03  0.7546771E-02  0.1076388E+00
         21   -1    0    0  504  501  0.00000000000E+00  0.00000000000E+00  0.63637095300E+03  0.63637095300E+03  0.00000000000E+00 0. -1.
         21   -1    0    0  501  502 -0.00000000000E+00 -0.00000000000E+00 -0.15888517533E+03  0.15888517533E+03  0.00000000000E+00 0. -1.
         25    1    1    2    0    0 -0.12564179451E+03 -0.26451391318E+03  0.33226659891E+03  0.46019513637E+03  0.12500000000E+03 0.  0.
         21    1    1    2  503  502  0.74794953419E+02  0.85960444793E+02  0.35201357824E+02  0.11925862115E+03  0.00000000000E+00 0. -1.
         21    1    1    2  504  503  0.50846841091E+02  0.17855346839E+03  0.11001782094E+03  0.21580237081E+03  0.00000000000E+00 0. -1.
<mgrwt>
<rscale>  4 0.31839986E+03</rscale>
<asrwt>0</asrwt>
<pdfrwt beam="1">  1       21 0.97903223E-01 0.31839986E+03</pdfrwt>
<pdfrwt beam="2">  1       21 0.24443873E-01 0.31839986E+03</pdfrwt>
<totfact> 0.12761740E+04</totfact>
</mgrwt>
</event>
<event>
 5    0  0.1324511E+000  0.2349833E+03  0.7546771E-02  0.1123181E+00
         21   -1    0    0  504  501  0.00000000000E+00  0.00000000000E+00  0.19693306747E+03  0.19693306747E+03  0.00000000000E+00 0.  1.
         21   -1    0    0  501  502 -0.00000000000E+00 -0.00000000000E+00 -0.61758044821E+03  0.61758044821E+03  0.00000000000E+00 0. -1.
         25    1    1    2    0    0 -0.19169962616E+03  0.15700260579E+03 -0.41069713287E+03  0.49567701161E+03  0.12500000000E+03 0.  0.
         21    1    1    2  503  502  0.96401526385E+02 -0.16759996603E+03  0.57369457356E+02  0.20167859961E+03  0.00000000000E+00 0.  1.
         21    1    1    2  504  503  0.95298099774E+02  0.10597360248E+02 -0.67319705226E+02  0.11715790446E+03  0.00000000000E+00 0. -1.
<mgrwt>
<rscale>  4 0.23498330E+03</rscale>
<asrwt>0</asrwt>
<pdfrwt beam="1">  1       21 0.30297395E-01 0.23498330E+03</pdfrwt>
<pdfrwt beam="2">  1       21 0.95012376E-01 0.23498330E+03</pdfrwt>
<totfact> 0.94117649E+03</totfact>
</mgrwt>
</event>
<event>
 5    0  0.1324511E+000  0.2583657E+03  0.7546771E-02  0.1108129E+00
         21   -1    0    0  504  501  0.00000000000E+00  0.00000000000E+00  0.45323022751E+02  0.45323022751E+02  0.00000000000E+00 0.  1.
         21   -1    0    0  501  502 -0.00000000000E+00 -0.00000000000E+00 -0.16995223153E+04  0.16995223153E+04  0.00000000000E+00 0.  1.
         25    1    1    2    0    0 -0.19698359505E+03 -0.11101941133E+03 -0.12503684512E+04  0.12767827184E+04  0.12500000000E+03 0.  0.
         21    1    1    2  503  502  0.11239793613E+03  0.90670839317E+02 -0.29733066134E+03  0.33054503372E+03  0.00000000000E+00 0.  1.
         21    1    1    2  504  503  0.84585658925E+02  0.20348572009E+02 -0.10650018001E+03  0.13751758586E+03  0.00000000000E+00 0.  1.
<mgrwt>
<rscale>  4 0.25836572E+03</rscale>
<asrwt>0</asrwt>
<pdfrwt beam="1">  1       21 0.69727732E-02 0.25836572E+03</pdfrwt>
<pdfrwt beam="2">  1       21 0.26146496E+00 0.25836572E+03</pdfrwt>
<totfact> 0.81907708E+03</totfact>
</mgrwt>
</event>
<event>
 5    0  0.1324511E+000  0.2419989E+03  0.7546771E-02  0.1118468E+00
         21   -1    0    0  504  501  0.00000000000E+00  0.00000000000E+00  0.61782496467E+03  0.61782496467E+03  0.00000000000E+00 0.  1.
         21   -1    0    0  501  502 -0.00000000000E+00 -0.00000000000E+00 -0.18584265831E+04  0.18584265831E+04  0.00000000000E+00 0. -1.
         25    1    1    2    0    0 -0.28230079260E+02  0.20625661252E+03 -0.18219079738E+04  0.18380186050E+04  0.12500000000E+03 0.  0.
         21    1    1    2  503  502  0.86879753535E+02 -0.14025861039E+03  0.45612614011E+03  0.48504806469E+03  0.00000000000E+00 0.  1.
         21    1    1    2  504  503 -0.58649674275E+02 -0.65998002125E+02  0.12518021523E+03  0.15318487805E+03  0.00000000000E+00 0.  1.
<mgrwt>
<rscale>  4 0.24199893E+03</rscale>
<asrwt>0</asrwt>
<pdfrwt beam="1">  1       21 0.95049994E-01 0.24199893E+03</pdfrwt>
<pdfrwt beam="2">  1       21 0.28591178E+00 0.24199893E+03</pdfrwt>
<totfact> 0.35226565E+01</totfact>
</mgrwt>
</event>
<event>
 5    0  0.1324511E+000  0.2238313E+03  0.7546771E-02  0.1131058E+00
         21   -1    0    0  504  501  0.00000000000E+00  0.00000000000E+00  0.11259065266E+03  0.11259065266E+03  0.00000000000E+00 0. -1.
         21   -1    0    0  501  502 -0.00000000000E+00 -0.00000000000E+00 -0.15378859236E+04  0.15378859236E+04  0.00000000000E+00 0. -1.
         25    1    1    2    0    0 -0.13111059606E+03 -0.15397897166E+03 -0.13460834161E+04  0.13669180938E+04  0.12500000000E+03 0.  0.
         21    1    1    2  503  502  0.10983781165E+03  0.12523520717E+02  0.16030922868E+02  0.11170574707E+03  0.00000000000E+00 0. -1.
         21    1    1    2  504  503  0.21272784405E+02  0.14145545094E+03 -0.95242777777E+02  0.17185273544E+03  0.00000000000E+00 0. -1.
<mgrwt>
<rscale>  4 0.22383134E+03</rscale>
<asrwt>0</asrwt>
<pdfrwt beam="1">  1       21 0.17321639E-01 0.22383134E+03</pdfrwt>
<pdfrwt beam="2">  1       21 0.23659784E+00 0.22383134E+03</pdfrwt>
<totfact> 0.23293835E+03</totfact>
</mgrwt>
</event>
<event>
 5    0  0.1782472E+000  0.3924264E+03  0.7546771E-02  0.1046434E+00
         21   -1    0    0  504  501  0.00000000000E+00  0.00000000000E+00  0.55279139215E+03  0.55279139215E+03  0.00000000000E+00 0. -1.
         21   -1    0    0  501  502 -0.00000000000E+00 -0.00000000000E+00 -0.27607459229E+03  0.27607459229E+03  0.00000000000E+00 0. -1.
         25    1    1    2    0    0  0.28726110454E+03  0.23633565661E+03  0.18473787340E+03  0.43373559531E+03  0.12500000000E+03 0.  0.
         21    1    1    2  503  502 -0.26086812965E+03 -0.22377182590E+03  0.10990648632E+03  0.36083991862E+03  0.00000000000E+00 0. -1.
         21    1    1    2  504  503 -0.26392974888E+02 -0.12563830709E+02 -0.17927559855E+02  0.34290470512E+02  0.00000000000E+00 0.  1.
<mgrwt>
<rscale>  4 0.39242641E+03</rscale>
<asrwt>0</asrwt>
<pdfrwt beam="1">  1       21 0.85044829E-01 0.39242641E+03</pdfrwt>
<pdfrwt beam="2">  1       21 0.42473014E-01 0.39242641E+03</pdfrwt>
<totfact> 0.57398631E+03</totfact>
</mgrwt>
</event>
<event>
 5    0  0.1324511E+000  0.2780263E+03  0.7546771E-02  0.1096772E+00
         21   -1    0    0  504  501  0.00000000000E+00  0.00000000000E+00  0.59208903896E+03  0.59208903896E+03  0.00000000000E+00 0.  1.
         21   -1    0    0  501  502 -0.00000000000E+00 -0.00000000000E+00 -0.24952718520E+03  0.24952718520E+03  0.00000000000E+00 0.  1.
         25    1    1    2    0    0 -0.19845407009E+03 -0.14929700896E+03 -0.12415577253E+03  0.30448853947E+03  0.12500000000E+03 0.  0.
         21    1    1    2  503  502  0.11738430356E+03  0.30898101387E+02  0.23699921221E+03  0.26627503447E+03  0.00000000000E+00 0.  1.
         21    1    1    2  504  503  0.81069766521E+02  0.11839890757E+03  0.22971841408E+03  0.27085265021E+03  0.00000000000E+00 0.  1.
<mgrwt>
<rscale>  4 0.27802628E+03</rscale>
<asrwt>0</asrwt>
<pdfrwt beam="1">  1       21 0.91090621E-01 0.27802628E+03</pdfrwt>
<pdfrwt beam="2">  1       21 0.38388798E-01 0.27802628E+03</pdfrwt>
<totfact> 0.63277389E+03</totfact>
</mgrwt>
</event>
<event>
 5    0  0.1324511E+000  0.3738963E+03  0.7546771E-02  0.1053213E+00
         21   -1    0    0  504  501  0.00000000000E+00  0.00000000000E+00  0.41612552244E+03  0.41612552244E+03  0.00000000000E+00 0.  1.
         21   -1    0    0  501  502 -0.00000000000E+00 -0.00000000000E+00 -0.38680405333E+03  0.38680405333E+03  0.00000000000E+00 0.  1.
         25    1    1    2    0    0  0.27000920423E+03 -0.22642538045E+03 -0.15262840703E+03  0.40384880081E+03  0.12500000000E+03 0.  0.
         21    1    1    2  503  502 -0.17697154295E+02  0.24565583762E+02  0.27667613073E+02  0.41014070620E+02  0.00000000000E+00 0.  1.
         21    1    1    2  504  503 -0.25231204993E+03  0.20185979669E+03  0.15428226306E+03  0.35806670434E+03  0.00000000000E+00 0.  1.
<mgrwt>
<rscale>  4 0.37389627E+03</rscale>
<asrwt>0</asrwt>
<pdfrwt beam="1">  1       21 0.64019311E-01 0.37389627E+03</pdfrwt>
<pdfrwt beam="2">  1       21 0.59508316E-01 0.37389627E+03</pdfrwt>
<totfact> 0.53786683E+03</totfact>
</mgrwt>
</event>
<event>
 5    0  0.1324511E+000  0.2865602E+03  0.7546771E-02  0.1092159E+00
         21   -1    0    0  504  501  0.00000000000E+00  0.00000000000E+00  0.84797300830E+03  0.84797300830E+03  0.00000000000E+00 0.  1.
         21   -1    0    0  501  502 -0.00000000000E+00 -0.00000000000E+00 -0.11841729550E+03  0.11841729550E+03  0.00000000000E+00 0.  1.
         25    1    1    2    0    0  0.12904058081E+03 -0.22324931902E+03  0.14164429862E+03  0.31965581063E+03  0.12500000000E+03 0.  0.
         21    1    1    2  503  502 -0.12335667389E+03  0.18742749754E+03  0.55123858238E+03  0.59515536672E+03  0.00000000000E+00 0.  1.
         21    1    1    2  504  503 -0.56839069183E+01  0.35821821481E+02  0.36672831799E+02  0.51579126439E+02  0.00000000000E+00 0.  1.
<mgrwt>
<rscale>  4 0.28656017E+03</rscale>
<asrwt>0</asrwt>
<pdfrwt beam="1">  1       21 0.13045738E+00 0.28656017E+03</pdfrwt>
<pdfrwt beam="2">  1       21 0.18218046E-01 0.28656017E+03</pdfrwt>
<totfact> 0.11115197E+04</totfact>
</mgrwt>
</event>
<event>
 5    0  0.1324511E+000  0.2484821E+03  0.7546771E-02  0.1114268E+00
         21   -1    0    0  504  501  0.00000000000E+00  0.00000000000E+00  0.24084996059E+03  0.24084996059E+03  0.00000000000E+00 0. -1.
         21   -1    0    0  501  502 -0.00000000000E+00 -0.00000000000E+00 -0.54026629630E+03  0.54026629630E+03  0.00000000000E+00 0.  1.
         25    1    1    2    0    0  0.23381720893E+03 -0.53560518534E+02 -0.41604164050E+03  0.49624073086E+03  0.12500000000E+03 0.  0.
         21    1    1    2  503  502 -0.24534290503E+02  0.22434577468E+02 -0.14157430166E+02  0.36134118303E+02  0.00000000000E+00 0. -1.
         21    1    1    2  504  503 -0.20928291843E+03  0.31125941066E+02  0.13078273496E+03  0.24874140773E+03  0.00000000000E+00 0. -1.
<mgrwt>
<rscale>  4 0.24848208E+03</rscale>
<asrwt>0</asrwt>
<pdfrwt beam="1">  1       21 0.37053840E-01 0.24848208E+03</pdfrwt>
<pdfrwt beam="2">  1       21 0.83117891E-01 0.24848208E+03</pdfrwt>
<totfact> 0.85435585E+03</totfact>
</mgrwt>
</event>
<event>
 5    0  0.1324511E+000  0.2466164E+03  0.7546771E-02  0.1115462E+00
         21   -1    0    0  504  501  0.00000000000E+00  0.00000000000E+00  0.10484381987E+03  0.10484381987E+03  0.00000000000E+00 0.  1.
         21   -1    0    0  501  502 -0.00000000000E+00 -0.00000000000E+00 -0.51487886799E+03  0.51487886799E+03  0.00000000000E+00 0.  1.
         25    1    1    2    0    0  0.12573328510E+03 -0.17142287143E+03 -0.22560198539E+03  0.33423930895E+03  0.12500000000E+03 0.  0.
         21    1    1    2  503  502 -0.47633577400E+01  0.21838431248E+02 -0.36514471799E+02  0.42812536798E+02  0.00000000000E+00 0.  1.
         21    1    1    2  504  503 -0.12096992736E+03  0.14958444018E+03 -0.14791859094E+03  0.24267084212E+03  0.00000000000E+00 0.  1.
<mgrwt>
<rscale>  4 0.24661642E+03</rscale>
<asrwt>0</asrwt>
<pdfrwt beam="1">  1       21 0.16129819E-01 0.24661642E+03</pdfrwt>
<pdfrwt beam="2">  1       21 0.79212133E-01 0.24661642E+03</pdfrwt>
<totfact> 0.47123570E+04</totfact>
</mgrwt>
</event>
<event>
 5    0  0.1324511E+000  0.5126204E+03  0.7546771E-02  0.1010536E+00
         21   -1    0    0  504  501  0.00000000000E+00  0.00000000000E+00  0.76615538045E+03  0.76615538045E+03  0.00000000000E+00 0. -1.
         21   -1    0    0  501  502 -0.00000000000E+00 -0.00000000000E+00 -0.86575902205E+03  0.86575902205E+03  0.00000000000E+00 0. -1.
         25    1    1    2    0    0  0.48459132521E+03  0.11404421575E+03 -0.67601462762E+03  0.84879656713E+03  0.12500000000E+03 0.  0.
         21    1    1    2  503  502  0.22151641622E+01 -0.35332385555E+02  0.24831827850E+02  0.43242387719E+02  0.00000000000E+00 0.  1.
         21    1    1    2  504  503 -0.48680648937E+03 -0.78711830192E+02  0.55157915817E+03  0.73987544765E+03  0.00000000000E+00 0. -1.
<mgrwt>
<rscale>  4 0.51262039E+03</rscale>
<asrwt>0</asrwt>
<pdfrwt beam="1">  1       21 0.11787006E+00 0.51262039E+03</pdfrwt>
<pdfrwt beam="2">  1       21 0.13319370E+00 0.51262039E+03</pdfrwt>
<totfact> 0.17758495E+02</totfact>
</mgrwt>
</event>
<event>
 5    0  0.1324511E+000  0.2449590E+03  0.7546771E-02  0.1116533E+00
         21   -1    0    0  504  501  0.00000000000E+00  0.00000000000E+00  0.26034813191E+03  0.26034813191E+03  0.00000000000E+00 0.  1.
         21   -1    0    0  501  502 -0.00000000000E+00 -0.00000000000E+00 -0.21465910087E+03  0.21465910087E+03  0.00000000000E+00 0.  1.
         25    1    1    2    0    0 -0.19731793275E+03 -0.73793923916E+02  0.86174350771E+01  0.24511052605E+03  0.12500000000E+03 0.  0.
         21    1    1    2  503  502  0.18004634132E+03  0.38462900595E+02  0.45564524068E+02  0.18966340079E+03  0.00000000000E+00 0.  1.
         21    1    1    2  504  503  0.17271591427E+02  0.35331023321E+02 -0.84929281084E+01  0.40233305944E+02  0.00000000000E+00 0.  1.
<mgrwt>
<rscale>  4 0.24495900E+03</rscale>
<asrwt>0</asrwt>
<pdfrwt beam="1">  1       21 0.40053559E-01 0.24495900E+03</pdfrwt>
<pdfrwt beam="2">  1       21 0.33024477E-01 0.24495900E+03</pdfrwt>
<totfact> 0.51811561E+04</totfact>
</mgrwt>
</event>
<event>
 5    0  0.1324511E+000  0.3288983E+03  0.7546771E-02  0.1071625E+00
         21   -1    0    0  504  501  0.00000000000E+00  0.00000000000E+00  0.65535624462E+03  0.65535624462E+03  0.00000000000E+00 0.  1.
         21   -1    0    0  501  502 -0.00000000000E+00 -0.00000000000E+00 -0.25216835828E+03  0.25216835828E+03  0.00000000000E+00 0.  1.
         25    1    1    2    0    0 -0.14985898122E+03  0.26474770542E+03 -0.75560251218E+02  0.33746616621E+03  0.12500000000E+03 0.  0.
         21    1    1    2  503  502  0.13576652657E+03 -0.24154959108E+03  0.46020942523E+03  0.53718848625E+03  0.00000000000E+00 0.  1.
         21    1    1    2  504  503  0.14092454652E+02 -0.23198114332E+02  0.18538712325E+02  0.32869950432E+02  0.00000000000E+00 0. -1.
<mgrwt>
<rscale>  4 0.32889825E+03</rscale>
<asrwt>0</asrwt>
<pdfrwt beam="1">  1       21 0.10082404E+00 0.32889825E+03</pdfrwt>
<pdfrwt beam="2">  1       21 0.38795132E-01 0.32889825E+03</pdfrwt>
<totfact> 0.47432072E+03</totfact>
</mgrwt>
</event>
<event>
 5    0  0.1324511E+000  0.3004251E+03  0.7546771E-02  0.1085028E+00
         21   -1    0    0  504  501  0.00000000000E+00  0.00000000000E+00  0.13829493847E+03  0.13829493847E+03  0.00000000000E+00 0. -1.
         21   -1    0    0  501  502 -0.00000000000E+00 -0.00000000000E+00 -0.13579182259E+04  0.13579182259E+04  0.00000000000E+00 0. -1.
         25    1    1    2    0    0 -0.17354600571E+03  0.21097874597E+03 -0.11726805575E+04  0.12105515013E+04  0.12500000000E+03 0.  0.
         21    1    1    2  503  502  0.14915760523E+03 -0.14153192189E+03 -0.17416351109E+02  0.20635553154E+03  0.00000000000E+00 0. -1.
         21    1    1    2  504  503  0.24388400477E+02 -0.69446824081E+02 -0.29526378799E+02  0.79306131527E+02  0.00000000000E+00 0. -1.
<mgrwt>
<rscale>  4 0.30042511E+03</rscale>
<asrwt>0</asrwt>
<pdfrwt beam="1">  1       21 0.21276144E-01 0.30042511E+03</pdfrwt>
<pdfrwt beam="2">  1       21 0.20891050E+00 0.30042511E+03</pdfrwt>
<totfact> 0.22144100E+03</totfact>
</mgrwt>
</event>
<event>
 5    0  0.1324511E+000  0.2442858E+03  0.7546771E-02  0.1116970E+00
         21   -1    0    0  504  501  0.00000000000E+00  0.00000000000E+00  0.22823121899E+03  0.22823121899E+03  0.00000000000E+00 0.  1.
         21   -1    0    0  501  502 -0.00000000000E+00 -0.00000000000E+00 -0.24404190455E+03  0.24404190455E+03  0.00000000000E+00 0.  1.
         25    1    1    2    0    0  0.10743403324E+03 -0.18030112260E+03 -0.68422178861E+02  0.25368713185E+03  0.12500000000E+03 0.  0.
         21    1    1    2  503  502 -0.74963828984E+01  0.27939017760E+02  0.14789120777E+02  0.32488498939E+02  0.00000000000E+00 0.  1.
         21    1    1    2  504  503 -0.99937650339E+02  0.15236210484E+03  0.37822372522E+02  0.18609749275E+03  0.00000000000E+00 0.  1.
<mgrwt>
<rscale>  4 0.24428583E+03</rscale>
<asrwt>0</asrwt>
<pdfrwt beam="1">  1       21 0.35112495E-01 0.24428583E+03</pdfrwt>
<pdfrwt beam="2">  1       21 0.37544908E-01 0.24428583E+03</pdfrwt>
<totfact> 0.52286455E+04</totfact>
</mgrwt>
</event>
<event>
 5    0  0.1324511E+000  0.2967829E+03  0.7546771E-02  0.1086860E+00
         21   -1    0    0  504  501  0.00000000000E+00  0.00000000000E+00  0.27071293517E+03  0.27071293517E+03  0.00000000000E+00 0.  1.
         21   -1    0    0  501  502 -0.00000000000E+00 -0.00000000000E+00 -0.32098263202E+03  0.32098263202E+03  0.00000000000E+00 0.  1.
         25    1    1    2    0    0 -0.16752190292E+01  0.26916964959E+03  0.29768232657E+02  0.29827211451E+03  0.12500000000E+03 0.  0.
         21    1    1    2  503  502  0.14403790598E+02 -0.10366182181E+03 -0.72384086064E+02  0.12725053399E+03  0.00000000000E+00 0. -1.
         21    1    1    2  504  503 -0.12728571569E+02 -0.16550782778E+03 -0.76538434448E+01  0.16617291870E+03  0.00000000000E+00 0.  1.
<mgrwt>
<rscale>  4 0.29678293E+03</rscale>
<asrwt>0</asrwt>
<pdfrwt beam="1">  1       21 0.41648144E-01 0.29678293E+03</pdfrwt>
<pdfrwt beam="2">  1       21 0.49381944E-01 0.29678293E+03</pdfrwt>
<totfact> 0.20619197E+04</totfact>
</mgrwt>
</event>
<event>
 5    0  0.1324511E+000  0.2355156E+03  0.7546771E-02  0.1122817E+00
         21   -1    0    0  504  501  0.00000000000E+00  0.00000000000E+00  0.23814421159E+03  0.23814421159E+03  0.00000000000E+00 0.  1.
         21   -1    0    0  501  502 -0.00000000000E+00 -0.00000000000E+00 -0.71831269332E+03  0.71831269332E+03  0.00000000000E+00 0.  1.
         25    1    1    2    0    0 -0.11597056950E+03 -0.19304051353E+03 -0.61492239003E+03  0.66668460205E+03  0.12500000000E+03 0.  0.
         21    1    1    2  503  502  0.82495977188E+02  0.10171570833E+03  0.96695920759E+01  0.13132087642E+03  0.00000000000E+00 0.  1.
         21    1    1    2  504  503  0.33474592315E+02  0.91324805209E+02  0.12508431622E+03  0.15845142644E+03  0.00000000000E+00 0.  1.
<mgrwt>
<rscale>  4 0.23551563E+03</rscale>
<asrwt>0</asrwt>
<pdfrwt beam="1">  1       21 0.36637572E-01 0.23551563E+03</pdfrwt>
<pdfrwt beam="2">  1       21 0.11050964E+00 0.23551563E+03</pdfrwt>
<totfact> 0.44918782E+03</totfact>
</mgrwt>
</event>
<event>
 5    0  0.1324511E+000  0.2943290E+03  0.7546771E-02  0.1088110E+00
         21   -1    0    0  504  501  0.00000000000E+00  0.00000000000E+00  0.99722432850E+02  0.99722432850E+02  0.00000000000E+00 0. -1.
         21   -1    0    0  501  502 -0.00000000000E+00 -0.00000000000E+00 -0.86420889658E+03  0.86420889658E+03  0.00000000000E+00 0. -1.
         25    1    1    2    0    0 -0.20359545799E+03 -0.17191120473E+03 -0.50353435666E+03  0.58324644976E+03  0.12500000000E+03 0.  0.
         21    1    1    2  503  502  0.14835927096E+03  0.13363173129E+03 -0.14535981629E+03  0.24697649499E+03  0.00000000000E+00 0. -1.
         21    1    1    2  504  503  0.55236187031E+02  0.38279473435E+02 -0.11559229078E+03  0.13370838467E+03  0.00000000000E+00 0.  1.
<mgrwt>
<rscale>  4 0.29432902E+03</rscale>
<asrwt>0</asrwt>
<pdfrwt beam="1">  1       21 0.15341912E-01 0.29432902E+03</pdfrwt>
<pdfrwt beam="2">  1       21 0.13295522E+00 0.29432902E+03</pdfrwt>
<totfact> 0.14506949E+04</totfact>
</mgrwt>
</event>
<event>
 5    0  0.1324511E+000  0.2533109E+03  0.7546771E-02  0.1111230E+00
         21   -1    0    0  504  501  0.00000000000E+00  0.00000000000E+00  0.47713041504E+03  0.47713041504E+03  0.00000000000E+00 0.  1.
         21   -1    0    0  501  502 -0.00000000000E+00 -0.00000000000E+00 -0.21116222042E+03  0.21116222042E+03  0.00000000000E+00 0.  1.
         25    1    1    2    0    0 -0.14940322128E+03  0.16192614032E+03 -0.87549131443E+02  0.26801352180E+03  0.12500000000E+03 0.  0.
         21    1    1    2  503  502  0.46878478897E+02 -0.78912842230E+02  0.18262189700E+03  0.20439076720E+03  0.00000000000E+00 0.  1.
         21    1    1    2  504  503  0.10252474239E+03 -0.83013298095E+02  0.17089542907E+03  0.21588834646E+03  0.00000000000E+00 0.  1.
<mgrwt>
<rscale>  4 0.25331087E+03</rscale>
<asrwt>0</asrwt>
<pdfrwt beam="1">  1       21 0.73404679E-01 0.25331087E+03</pdfrwt>
<pdfrwt beam="2">  1       21 0.32486496E-01 0.25331087E+03</pdfrwt>
<totfact> 0.14682968E+04</totfact>
</mgrwt>
</event>
<event>
 5    0  0.1324511E+000  0.4866352E+03  0.7546771E-02  0.1017327E+00
         21   -1    0    0  504  501  0.00000000000E+00  0.00000000000E+00  0.64398351772E+03  0.64398351772E+03  0.00000000000E+00 0. -1.
         21   -1    0    0  501  502 -0.00000000000E+00 -0.00000000000E+00 -0.60846122735E+03  0.60846122735E+03  0.00000000000E+00 0. -1.
         25    1    1    2    0    0 -0.34509402317E+03  0.31952916540E+03 -0.37989951425E+03  0.61736327498E+03  0.12500000000E+03 0.  0.
         21    1    1    2  503  502  0.90962168938E+02 -0.14809377573E+03  0.15303037026E+03  0.23156894613E+03  0.00000000000E+00 0. -1.
         21    1    1    2  504  503  0.25413185423E+03 -0.17143538967E+03  0.26239143435E+03  0.40351252396E+03  0.00000000000E+00 0. -1.
<mgrwt>
<rscale>  4 0.48663515E+03</rscale>
<asrwt>0</asrwt>
<pdfrwt beam="1">  1       21 0.99074387E-01 0.48663515E+03</pdfrwt>
<pdfrwt beam="2">  1       21 0.93609420E-01 0.48663515E+03</pdfrwt>
<totfact> 0.66786575E+02</totfact>
</mgrwt>
</event>
<event>
 5    0  0.1324511E+000  0.2523152E+03  0.7546771E-02  0.1111850E+00
         21   -1    0    0  504  501  0.00000000000E+00  0.00000000000E+00  0.35009340754E+03  0.35009340754E+03  0.00000000000E+00 0. -1.
         21   -1    0    0  501  502 -0.00000000000E+00 -0.00000000000E+00 -0.29133540745E+03  0.29133540745E+03  0.00000000000E+00 0. -1.
         25    1    1    2    0    0 -0.18623363285E+03 -0.17156357971E+03 -0.10731730811E+03  0.30209109969E+03  0.12500000000E+03 0.  0.
         21    1    1    2  503  502  0.17557003865E+02  0.10326829386E+03  0.10254689077E+03  0.14658940517E+03  0.00000000000E+00 0. -1.
         21    1    1    2  504  503  0.16867662899E+03  0.68295285850E+02  0.63528417420E+02  0.19274831013E+03  0.00000000000E+00 0. -1.
<mgrwt>
<rscale>  4 0.25231520E+03</rscale>
<asrwt>0</asrwt>
<pdfrwt beam="1">  1       21 0.53860524E-01 0.25231520E+03</pdfrwt>
<pdfrwt beam="2">  1       21 0.44820832E-01 0.25231520E+03</pdfrwt>
<totfact> 0.15051865E+04</totfact>
</mgrwt>
</event>
<event>
 5    0  0.1324511E+000  0.2442090E+03  0.7546771E-02  0.1117020E+00
         21   -1    0    0  504  501  0.00000000000E+00  0.00000000000E+00  0.27657659784E+03  0.27657659784E+03  0.00000000000E+00 0.  1.
         21   -1    0    0  501  502 -0.00000000000E+00 -0.00000000000E+00 -0.26423944022E+03  0.26423944022E+03  0.00000000000E+00 0.  1.
         25    1    1    2    0    0 -0.11655143917E+03  0.17825862397E+03 -0.11185251418E+03  0.27110212083E+03  0.12500000000E+03 0.  0.
         21    1    1    2  503  502  0.29056740613E+02  0.69765563669E+01  0.35710054235E+02  0.46563660587E+02  0.00000000000E+00 0.  1.
         21    1    1    2  504  503  0.87494698557E+02 -0.18523518034E+03  0.88479617571E+02  0.22315025663E+03  0.00000000000E+00 0.  1.
<mgrwt>
<rscale>  4 0.24420897E+03</rscale>
<asrwt>0</asrwt>
<pdfrwt beam="1">  1       21 0.42550246E-01 0.24420897E+03</pdfrwt>
<pdfrwt beam="2">  1       21 0.40652222E-01 0.24420897E+03</pdfrwt>
<totfact> 0.30179416E+04</totfact>
</mgrwt>
</event>
<event>
 5    0  0.1324511E+000  0.2496135E+03  0.7546771E-02  0.1113549E+00
         21   -1    0    0  504  501  0.00000000000E+00  0.00000000000E+00  0.10249038119E+04  0.10249038119E+04  0.00000000000E+00 0. -1.
         21   -1    0    0  501  502 -0.00000000000E+00 -0.00000000000E+00 -0.10114812387E+03  0.10114812387E+03  0.00000000000E+00 0. -1.
         25    1    1    2    0    0  0.38098206665E+02  0.21267447109E+03  0.93544898756E+02  0.26656622458E+03  0.12500000000E+03 0.  0.
         21    1    1    2  503  502 -0.29901839447E+02 -0.16820051037E+03  0.55873569270E+03  0.58426972024E+03  0.00000000000E+00 0. -1.
         21    1    1    2  504  503 -0.81963672179E+01 -0.44473960720E+02  0.27147509661E+03  0.27521599099E+03  0.00000000000E+00 0. -1.
<mgrwt>
<rscale>  4 0.24961351E+03</rscale>
<asrwt>0</asrwt>
<pdfrwt beam="1">  1       21 0.15767750E+00 0.24961351E+03</pdfrwt>
<pdfrwt beam="2">  1       21 0.15561251E-01 0.24961351E+03</pdfrwt>
<totfact> 0.92278804E+03</totfact>
</mgrwt>
</event>
<event>
 5    0  0.1324511E+000  0.2769174E+03  0.7546771E-02  0.1097385E+00
         21   -1    0    0  504  501  0.00000000000E+00  0.00000000000E+00  0.59409319255E+03  0.59409319255E+03  0.00000000000E+00 0.  1.
         21   -1    0    0  501  502 -0.00000000000E+00 -0.00000000000E+00 -0.37493819970E+03  0.37493819970E+03  0.00000000000E+00 0. -1.
         25    1    1    2    0    0 -0.41615452855E+02 -0.24357011252E+03 -0.28945901657E+03  0.40058677950E+03  0.12500000000E+03 0.  0.
         21    1    1    2  503  502  0.30218080867E+02  0.22021622074E+03  0.48422419073E+03  0.53280520191E+03  0.00000000000E+00 0.  1.
         21    1    1    2  504  503  0.11397371988E+02  0.23353891786E+02  0.24389818697E+02  0.35639410851E+02  0.00000000000E+00 0. -1.
<mgrwt>
<rscale>  4 0.27691740E+03</rscale>
<asrwt>0</asrwt>
<pdfrwt beam="1">  1       21 0.91398952E-01 0.27691740E+03</pdfrwt>
<pdfrwt beam="2">  1       21 0.57682800E-01 0.27691740E+03</pdfrwt>
<totfact> 0.26859491E+03</totfact>
</mgrwt>
</event>
<event>
 5    0  0.1324511E+000  0.2086987E+03  0.7546771E-02  0.1142601E+00
         21   -1    0    0  504  501  0.00000000000E+00  0.00000000000E+00  0.64337018154E+02  0.64337018154E+02  0.00000000000E+00 0. -1.
         21   -1    0    0  501  502 -0.00000000000E+00 -0.00000000000E+00 -0.10283079398E+04  0.10283079398E+04  0.00000000000E+00 0. -1.
         25    1    1    2    0    0  0.15951659306E+03  0.13550675793E+03 -0.68466049308E+03  0.72676861221E+03  0.12500000000E+03 0.  0.
         21    1    1    2  503  502 -0.13602156903E+03 -0.79911339428E+02 -0.12861155240E+03  0.20354021918E+03  0.00000000000E+00 0. -1.
         21    1    1    2  504  503 -0.23495024025E+02 -0.55595418498E+02 -0.15069887612E+03  0.16233612652E+03  0.00000000000E+00 0. -1.
<mgrwt>
<rscale>  4 0.20869875E+03</rscale>
<asrwt>0</asrwt>
<pdfrwt beam="1">  1       21 0.98980027E-02 0.20869875E+03</pdfrwt>
<pdfrwt beam="2">  1       21 0.15820122E+00 0.20869875E+03</pdfrwt>
<totfact> 0.21209710E+04</totfact>
</mgrwt>
</event>
<event>
 5    0  0.1324511E+000  0.2393695E+03  0.7546771E-02  0.1120214E+00
         21   -1    0    0  504  501  0.00000000000E+00  0.00000000000E+00  0.12627502503E+03  0.12627502503E+03  0.00000000000E+00 0. -1.
         21   -1    0    0  501  502 -0.00000000000E+00 -0.00000000000E+00 -0.42636641540E+03  0.42636641540E+03  0.00000000000E+00 0. -1.
         25    1    1    2    0    0  0.19136047963E+03  0.71090907809E+02 -0.17881609795E+03  0.29878578819E+03  0.12500000000E+03 0.  0.
         21    1    1    2  503  502 -0.66038126364E+02 -0.22612785558E+02  0.43070936679E+01  0.69935136092E+02  0.00000000000E+00 0. -1.
         21    1    1    2  504  503 -0.12532235326E+03 -0.48478122251E+02 -0.12558238609E+03  0.18392051615E+03  0.00000000000E+00 0. -1.
<mgrwt>
<rscale>  4 0.23936948E+03</rscale>
<asrwt>0</asrwt>
<pdfrwt beam="1">  1       21 0.19426927E-01 0.23936948E+03</pdfrwt>
<pdfrwt beam="2">  1       21 0.65594832E-01 0.23936948E+03</pdfrwt>
<totfact> 0.50968556E+04</totfact>
</mgrwt>
</event>
<event>
 5    0  0.1324511E+000  0.2627583E+03  0.7546771E-02  0.1105497E+00
         21   -1    0    0  504  501  0.00000000000E+00  0.00000000000E+00  0.31132496168E+04  0.31132496168E+04  0.00000000000E+00 0. -1.
         21   -1    0    0  501  502 -0.00000000000E+00 -0.00000000000E+00 -0.19870261400E+02  0.19870261400E+02  0.00000000000E+00 0. -1.
         25    1    1    2    0    0 -0.14088459644E+03 -0.18321691884E+03  0.16948189058E+04  0.17150664805E+04  0.12500000000E+03 0.  0.
         21    1    1    2  503  502  0.12801850202E+03  0.15169511796E+03  0.12483850362E+04  0.12640669857E+04  0.00000000000E+00 0. -1.
         21    1    1    2  504  503  0.12866094422E+02  0.31521800880E+02  0.15017541334E+03  0.15398641202E+03  0.00000000000E+00 0. -1.
<mgrwt>
<rscale>  4 0.26275827E+03</rscale>
<asrwt>0</asrwt>
<pdfrwt beam="1">  1       21 0.47896109E+00 0.26275827E+03</pdfrwt>
<pdfrwt beam="2">  1       21 0.30569658E-02 0.26275827E+03</pdfrwt>
<totfact> 0.14834587E+03</totfact>
</mgrwt>
</event>
<event>
 5    0  0.1324511E+000  0.2511583E+03  0.7546771E-02  0.1112575E+00
         21   -1    0    0  504  501  0.00000000000E+00  0.00000000000E+00  0.12280731556E+04  0.12280731556E+04  0.00000000000E+00 0.  1.
         21   -1    0    0  501  502 -0.00000000000E+00 -0.00000000000E+00 -0.45495129036E+03  0.45495129036E+03  0.00000000000E+00 0. -1.
         25    1    1    2    0    0  0.67637627300E+02  0.20827546223E+03 -0.40639493392E+03  0.47826285566E+03  0.12500000000E+03 0.  0.
         21    1    1    2  503  502 -0.51310203839E+02 -0.17480825176E+03  0.11187948390E+04  0.11335310114E+04  0.00000000000E+00 0.  1.
         21    1    1    2  504  503 -0.16327423462E+02 -0.33467210468E+02  0.60721960169E+02  0.71230578968E+02  0.00000000000E+00 0.  1.
<mgrwt>
<rscale>  4 0.25115826E+03</rscale>
<asrwt>0</asrwt>
<pdfrwt beam="1">  1       21 0.18893433E+00 0.25115826E+03</pdfrwt>
<pdfrwt beam="2">  1       21 0.69992506E-01 0.25115826E+03</pdfrwt>
<totfact> 0.27504685E+02</totfact>
</mgrwt>
</event>
<event>
 5    0  0.1324511E+000  0.2520830E+03  0.7546771E-02  0.1111995E+00
         21   -1    0    0  504  501  0.00000000000E+00  0.00000000000E+00  0.72158259758E+03  0.72158259758E+03  0.00000000000E+00 0.  1.
         21   -1    0    0  501  502 -0.00000000000E+00 -0.00000000000E+00 -0.58875042612E+03  0.58875042612E+03  0.00000000000E+00 0.  1.
         25    1    1    2    0    0  0.15565736504E+03 -0.15965820709E+03 -0.53515511550E+03  0.59307331421E+03  0.12500000000E+03 0.  0.
         21    1    1    2  503  502 -0.60707138488E+02  0.14783237272E+03  0.48676912639E+03  0.51233187437E+03  0.00000000000E+00 0.  1.
         21    1    1    2  504  503 -0.94950226553E+02  0.11825834368E+02  0.18121816058E+03  0.20492783511E+03  0.00000000000E+00 0.  1.
<mgrwt>
<rscale>  4 0.25208304E+03</rscale>
<asrwt>0</asrwt>
<pdfrwt beam="1">  1       21 0.11101271E+00 0.25208304E+03</pdfrwt>
<pdfrwt beam="2">  1       21 0.90576989E-01 0.25208304E+03</pdfrwt>
<totfact> 0.62469628E+02</totfact>
</mgrwt>
</event>
<event>
 5    0  0.1324511E+000  0.2626280E+03  0.7546771E-02  0.1105574E+00
         21   -1    0    0  504  501  0.00000000000E+00  0.00000000000E+00  0.10360412015E+04  0.10360412015E+04  0.00000000000E+00 0.  1.
         21   -1    0    0  501  502 -0.00000000000E+00 -0.00000000000E+00 -0.84509507136E+02  0.84509507136E+02  0.00000000000E+00 0.  1.
         25    1    1    2    0    0 -0.23131158014E+03  0.31481318853E+02  0.21964165242E+03  0.34404007909E+03  0.12500000000E+03 0.  0.
         21    1    1    2  503  502  0.22602909546E+03 -0.27538274006E+01  0.68433193619E+03  0.72069892080E+03  0.00000000000E+00 0.  1.
         21    1    1    2  504  503  0.52824846747E+01 -0.28727491453E+02  0.47558105736E+02  0.55811708724E+02  0.00000000000E+00 0. -1.
<mgrwt>
<rscale>  4 0.26262801E+03</rscale>
<asrwt>0</asrwt>
<pdfrwt beam="1">  1       21 0.15939094E+00 0.26262801E+03</pdfrwt>
<pdfrwt beam="2">  1       21 0.13001463E-01 0.26262801E+03</pdfrwt>
<totfact> 0.12344223E+04</totfact>
</mgrwt>
</event>
<event>
 5    0  0.1324511E+000  0.2113870E+03  0.7546771E-02  0.1140472E+00
         21   -1    0    0  504  501  0.00000000000E+00  0.00000000000E+00  0.16582895549E+03  0.16582895549E+03  0.00000000000E+00 0.  1.
         21   -1    0    0  501  502 -0.00000000000E+00 -0.00000000000E+00 -0.40085376285E+03  0.40085376285E+03  0.00000000000E+00 0. -1.
         25    1    1    2    0    0 -0.18096857951E+03  0.11321850048E+03 -0.17134202168E+03  0.30091717135E+03  0.12500000000E+03 0.  0.
         21    1    1    2  503  502  0.13329502443E+03 -0.85281410455E+02  0.26062349676E+02  0.16037371536E+03  0.00000000000E+00 0.  1.
         21    1    1    2  504  503  0.47673555078E+02 -0.27937090024E+02 -0.89745135356E+02  0.10539183162E+03  0.00000000000E+00 0.  1.
<mgrwt>
<rscale>  4 0.21138703E+03</rscale>
<asrwt>0</asrwt>
<pdfrwt beam="1">  1       21 0.25512147E-01 0.21138703E+03</pdfrwt>
<pdfrwt beam="2">  1       21 0.61669809E-01 0.21138703E+03</pdfrwt>
<totfact> 0.35240740E+04</totfact>
</mgrwt>
</event>
<event>
 5    0  0.1324511E+000  0.3175324E+03  0.7546771E-02  0.1076791E+00
         21   -1    0    0  504  501  0.00000000000E+00  0.00000000000E+00  0.69029353019E+03  0.69029353019E+03  0.00000000000E+00 0. -1.
         21   -1    0    0  501  502 -0.00000000000E+00 -0.00000000000E+00 -0.17269600562E+03  0.17269600562E+03  0.00000000000E+00 0. -1.
         25    1    1    2    0    0  0.28300081093E+03  0.10262750190E+03  0.13594285678E+03  0.35316755718E+03  0.12500000000E+03 0.  0.
         21    1    1    2  503  502 -0.27670615522E+03 -0.46277597499E+02  0.32980678613E+03  0.43299010213E+03  0.00000000000E+00 0. -1.
         21    1    1    2  504  503 -0.62946557101E+01 -0.56349904398E+02  0.51847881657E+02  0.76831876513E+02  0.00000000000E+00 0.  1.
<mgrwt>
<rscale>  4 0.31753245E+03</rscale>
<asrwt>0</asrwt>
<pdfrwt beam="1">  1       21 0.10619900E+00 0.31753245E+03</pdfrwt>
<pdfrwt beam="2">  1       21 0.26568617E-01 0.31753245E+03</pdfrwt>
<totfact> 0.89234084E+03</totfact>
</mgrwt>
</event>
<event>
 5    0  0.1324511E+000  0.2751740E+03  0.7546771E-02  0.1098354E+00
         21   -1    0    0  504  501  0.00000000000E+00  0.00000000000E+00  0.11822120006E+04  0.11822120006E+04  0.00000000000E+00 0.  1.
         21   -1    0    0  501  502 -0.00000000000E+00 -0.00000000000E+00 -0.59493255024E+02  0.59493255024E+02  0.00000000000E+00 0.  1.
         25    1    1    2    0    0 -0.24220124148E+03 -0.37871782875E+02  0.48298454397E+03  0.55587299182E+03  0.12500000000E+03 0.  0.
         21    1    1    2  503  502  0.21488461811E+03  0.33607157653E+02  0.59172819491E+03  0.63043405429E+03  0.00000000000E+00 0.  1.
         21    1    1    2  504  503  0.27316623370E+02  0.42646252221E+01  0.48006006731E+02  0.55398209564E+02  0.00000000000E+00 0. -1.
<mgrwt>
<rscale>  4 0.27517397E+03</rscale>
<asrwt>0</asrwt>
<pdfrwt beam="1">  1       21 0.18187875E+00 0.27517397E+03</pdfrwt>
<pdfrwt beam="2">  1       21 0.91528094E-02 0.27517397E+03</pdfrwt>
<totfact> 0.15888341E+04</totfact>
</mgrwt>
</event>
<event>
 5    0  0.1324511E+000  0.2385408E+03  0.7546771E-02  0.1120769E+00
         21   -1    0    0  504  501  0.00000000000E+00  0.00000000000E+00  0.33395547883E+02  0.33395547883E+02  0.00000000000E+00 0. -1.
         21   -1    0    0  501  502 -0.00000000000E+00 -0.00000000000E+00 -0.18939004303E+04  0.18939004303E+04  0.00000000000E+00 0. -1.
         25    1    1    2    0    0 -0.21190423897E+01  0.20315568219E+03 -0.13869718464E+04  0.14073352920E+04  0.12500000000E+03 0.  0.
         21    1    1    2  503  502  0.86034803670E+01 -0.16442243563E+03 -0.30176076816E+03  0.34375619036E+03  0.00000000000E+00 0. -1.
         21    1    1    2  504  503 -0.64844379773E+01 -0.38733246563E+02 -0.17177226786E+03  0.17620449578E+03  0.00000000000E+00 0. -1.
<mgrwt>
<rscale>  4 0.23854082E+03</rscale>
<asrwt>0</asrwt>
<pdfrwt beam="1">  1       21 0.51377791E-02 0.23854082E+03</pdfrwt>
<pdfrwt beam="2">  1       21 0.29136915E+00 0.23854082E+03</pdfrwt>
<totfact> 0.94027378E+03</totfact>
</mgrwt>
</event>
<event>
 5    0  0.1324511E+000  0.2641832E+03  0.7546771E-02  0.1104656E+00
         21   -1    0    0  504  501  0.00000000000E+00  0.00000000000E+00  0.15138172135E+03  0.15138172135E+03  0.00000000000E+00 0. -1.
         21   -1    0    0  501  502 -0.00000000000E+00 -0.00000000000E+00 -0.21875620608E+04  0.21875620608E+04  0.00000000000E+00 0. -1.
         25    1    1    2    0    0  0.21409358092E+03  0.98112325687E+02 -0.20280263104E+04  0.20454774028E+04  0.12500000000E+03 0.  0.
         21    1    1    2  503  502 -0.19948162999E+03 -0.27911615352E+02  0.42262646379E+02  0.20581086039E+03  0.00000000000E+00 0. -1.
         21    1    1    2  504  503 -0.14611950926E+02 -0.70200710335E+02 -0.50416675494E+02  0.87655518989E+02  0.00000000000E+00 0. -1.
<mgrwt>
<rscale>  4 0.26418318E+03</rscale>
<asrwt>0</asrwt>
<pdfrwt beam="1">  1       21 0.23289496E-01 0.26418318E+03</pdfrwt>
<pdfrwt beam="2">  1       21 0.33654800E+00 0.26418318E+03</pdfrwt>
<totfact> 0.33055728E+02</totfact>
</mgrwt>
</event>
<event>
 5    0  0.1324511E+000  0.2777338E+03  0.7546771E-02  0.1096933E+00
         21   -1    0    0  504  501  0.00000000000E+00  0.00000000000E+00  0.19228341802E+03  0.19228341802E+03  0.00000000000E+00 0. -1.
         21   -1    0    0  501  502 -0.00000000000E+00 -0.00000000000E+00 -0.64034948814E+03  0.64034948814E+03  0.00000000000E+00 0. -1.
         25    1    1    2    0    0  0.23693201974E+03  0.73309437928E+02 -0.48265126031E+03  0.55685572166E+03  0.12500000000E+03 0.  0.
         21    1    1    2  503  502 -0.79377115157E+02 -0.62417356809E+02  0.57485118874E+02  0.11619462868E+03  0.00000000000E+00 0. -1.
         21    1    1    2  504  503 -0.15755490458E+03 -0.10892081119E+02 -0.22899928680E+02  0.15958255582E+03  0.00000000000E+00 0. -1.
<mgrwt>
<rscale>  4 0.27773379E+03</rscale>
<asrwt>0</asrwt>
<pdfrwt beam="1">  1       21 0.29582064E-01 0.27773379E+03</pdfrwt>
<pdfrwt beam="2">  1       21 0.98515306E-01 0.27773379E+03</pdfrwt>
<totfact> 0.88402710E+03</totfact>
</mgrwt>
</event>
<event>
 5    0  0.1324511E+000  0.3738357E+03  0.7546771E-02  0.1053236E+00
         21   -1    0    0  504  501  0.00000000000E+00  0.00000000000E+00  0.30579392683E+03  0.30579392683E+03  0.00000000000E+00 0. -1.
         21   -1    0    0  501  502 -0.00000000000E+00 -0.00000000000E+00 -0.44904859720E+03  0.44904859720E+03  0.00000000000E+00 0. -1.
         25    1    1    2    0    0 -0.34426330084E+03  0.74905934035E+02 -0.12923515113E+03  0.39554373152E+03  0.12500000000E+03 0.  0.
         21    1    1    2  503  502  0.26320171874E+03 -0.51892982636E+02 -0.39739679413E+02  0.27119599649E+03  0.00000000000E+00 0. -1.
         21    1    1    2  504  503  0.81061582104E+02 -0.23012951399E+02  0.25720160172E+02  0.88102796009E+02  0.00000000000E+00 0. -1.
<mgrwt>
<rscale>  4 0.37383568E+03</rscale>
<asrwt>0</asrwt>
<pdfrwt beam="1">  1       21 0.47045220E-01 0.37383568E+03</pdfrwt>
<pdfrwt beam="2">  1       21 0.69084399E-01 0.37383568E+03</pdfrwt>
<totfact> 0.75057516E+03</totfact>
</mgrwt>
</event>
<event>
 5    0  0.1324511E+000  0.2909443E+03  0.7546771E-02  0.1089857E+00
         21   -1    0    0  504  501  0.00000000000E+00  0.00000000000E+00  0.45857919925E+02  0.45857919925E+02  0.00000000000E+00 0. -1.
         21   -1    0    0  501  502 -0.00000000000E+00 -0.00000000000E+00 -0.16908418774E+04  0.16908418774E+04  0.00000000000E+00 0. -1.
         25    1    1    2    0    0 -0.18332411423E+03  0.18819102113E+03 -0.82270763937E+03  0.87263764025E+03  0.12500000000E+03 0.  0.
         21    1    1    2  503  502  0.29391591108E+02 -0.15467123062E+02 -0.12860047799E+03  0.13282010565E+03  0.00000000000E+00 0. -1.
         21    1    1    2  504  503  0.15393252312E+03 -0.17272389807E+03 -0.69367584013E+03  0.73124205146E+03  0.00000000000E+00 0.  1.
<mgrwt>
<rscale>  4 0.29094431E+03</rscale>
<asrwt>0</asrwt>
<pdfrwt beam="1">  1       21 0.70550653E-02 0.29094431E+03</pdfrwt>
<pdfrwt beam="2">  1       21 0.26012949E+00 0.29094431E+03</pdfrwt>
<totfact> 0.79854411E+03</totfact>
</mgrwt>
</event>
<event>
 5    0  0.1324511E+000  0.5842798E+03  0.7546771E-02  0.9938568E-01
         21   -1    0    0  504  501  0.00000000000E+00  0.00000000000E+00  0.95554356227E+03  0.95554356227E+03  0.00000000000E+00 0. -1.
         21   -1    0    0  501  502 -0.00000000000E+00 -0.00000000000E+00 -0.50343046124E+03  0.50343046124E+03  0.00000000000E+00 0. -1.
         25    1    1    2    0    0  0.19477030831E+02 -0.56736399012E+03 -0.14341272232E+03  0.59872653269E+03  0.12500000000E+03 0.  0.
         21    1    1    2  503  502  0.22198588154E+02 -0.10821524814E+02  0.82603264197E+02  0.86215903239E+02  0.00000000000E+00 0.  1.
         21    1    1    2  504  503 -0.41675618985E+02  0.57818551494E+03  0.51292255915E+03  0.77403158759E+03  0.00000000000E+00 0. -1.
<mgrwt>
<rscale>  4 0.58427984E+03</rscale>
<asrwt>0</asrwt>
<pdfrwt beam="1">  1       21 0.14700670E+00 0.58427984E+03</pdfrwt>
<pdfrwt beam="2">  1       21 0.77450841E-01 0.58427984E+03</pdfrwt>
<totfact> 0.36556439E+02</totfact>
</mgrwt>
</event>
<event>
 5    0  0.1324511E+000  0.2361257E+03  0.7546771E-02  0.1122401E+00
         21   -1    0    0  504  501  0.00000000000E+00  0.00000000000E+00  0.18075653088E+03  0.18075653088E+03  0.00000000000E+00 0. -1.
         21   -1    0    0  501  502 -0.00000000000E+00 -0.00000000000E+00 -0.32145335268E+03  0.32145335268E+03  0.00000000000E+00 0. -1.
         25    1    1    2    0    0  0.13000663755E+03  0.15240937972E+03 -0.17564409396E+03  0.29428930083E+03  0.12500000000E+03 0.  0.
         21    1    1    2  503  502 -0.40934345901E+02 -0.72585599669E+02  0.28754459211E+02  0.88153893154E+02  0.00000000000E+00 0. -1.
         21    1    1    2  504  503 -0.89072291654E+02 -0.79823780054E+02  0.61928129521E+01  0.11976668959E+03  0.00000000000E+00 0. -1.
<mgrwt>
<rscale>  4 0.23612570E+03</rscale>
<asrwt>0</asrwt>
<pdfrwt beam="1">  1       21 0.27808698E-01 0.23612570E+03</pdfrwt>
<pdfrwt beam="2">  1       21 0.49454361E-01 0.23612570E+03</pdfrwt>
<totfact> 0.47168556E+04</totfact>
</mgrwt>
</event>
<event>
 5    0  0.1324511E+000  0.3874956E+03  0.7546771E-02  0.1048198E+00
         21   -1    0    0  504  501  0.00000000000E+00  0.00000000000E+00  0.16089032307E+03  0.16089032307E+03  0.00000000000E+00 0. -1.
         21   -1    0    0  501  502 -0.00000000000E+00 -0.00000000000E+00 -0.92460213464E+03  0.92460213464E+03  0.00000000000E+00 0. -1.
         25    1    1    2    0    0  0.49908350205E+01  0.36674641046E+03 -0.29226064581E+03  0.48535463644E+03  0.12500000000E+03 0.  0.
         21    1    1    2  503  502 -0.17686997658E+02 -0.50425126111E+02 -0.51354035416E+02  0.74113157961E+02  0.00000000000E+00 0.  1.
         21    1    1    2  504  503  0.12696162638E+02 -0.31632128435E+03 -0.42009713035E+03  0.52602466331E+03  0.00000000000E+00 0. -1.
<mgrwt>
<rscale>  4 0.38749560E+03</rscale>
<asrwt>0</asrwt>
<pdfrwt beam="1">  1       21 0.24752357E-01 0.38749560E+03</pdfrwt>
<pdfrwt beam="2">  1       21 0.14224648E+00 0.38749560E+03</pdfrwt>
<totfact> 0.47300654E+03</totfact>
</mgrwt>
</event>
<event>
 5    0  0.1324511E+000  0.2618099E+03  0.7546771E-02  0.1106061E+00
         21   -1    0    0  504  501  0.00000000000E+00  0.00000000000E+00  0.54800862635E+02  0.54800862635E+02  0.00000000000E+00 0. -1.
         21   -1    0    0  501  502 -0.00000000000E+00 -0.00000000000E+00 -0.13748511500E+04  0.13748511500E+04  0.00000000000E+00 0. -1.
         25    1    1    2    0    0  0.22963180450E+03 -0.13736019827E+02 -0.10009218031E+04  0.10345960080E+04  0.12500000000E+03 0.  0.
         21    1    1    2  503  502 -0.26177761058E+02 -0.43596362103E+01 -0.21889599858E+02  0.34401107305E+02  0.00000000000E+00 0. -1.
         21    1    1    2  504  503 -0.20345404344E+03  0.18095656037E+02 -0.29723888444E+03  0.36065489735E+03  0.00000000000E+00 0. -1.
<mgrwt>
<rscale>  4 0.26180994E+03</rscale>
<asrwt>0</asrwt>
<pdfrwt beam="1">  1       21 0.84309025E-02 0.26180994E+03</pdfrwt>
<pdfrwt beam="2">  1       21 0.21151555E+00 0.26180994E+03</pdfrwt>
<totfact> 0.11812696E+04</totfact>
</mgrwt>
</event>
<event>
 5    0  0.1324511E+000  0.4649821E+03  0.7546771E-02  0.1023346E+00
         21   -1    0    0  504  501  0.00000000000E+00  0.00000000000E+00  0.72279831483E+03  0.72279831483E+03  0.00000000000E+00 0.  1.
         21   -1    0    0  501  502 -0.00000000000E+00 -0.00000000000E+00 -0.98244285993E+03  0.98244285993E+03  0.00000000000E+00 0. -1.
         25    1    1    2    0    0  0.35817137665E+03  0.26888029725E+03 -0.84507816754E+03  0.96455453892E+03  0.12500000000E+03 0.  0.
         21    1    1    2  503  502 -0.33469711582E+03 -0.22561926482E+03  0.53534058218E+03  0.67045935815E+03  0.00000000000E+00 0.  1.
         21    1    1    2  504  503 -0.23474260832E+02 -0.43261032431E+02  0.50093040259E+02  0.70227277685E+02  0.00000000000E+00 0. -1.
<mgrwt>
<rscale>  4 0.46498210E+03</rscale>
<asrwt>0</asrwt>
<pdfrwt beam="1">  1       21 0.11119974E+00 0.46498210E+03</pdfrwt>
<pdfrwt beam="2">  1       21 0.15114505E+00 0.46498210E+03</pdfrwt>
<totfact> 0.14989132E+02</totfact>
</mgrwt>
</event>
<event>
 5    0  0.1324511E+000  0.2503641E+03  0.7546771E-02  0.1113075E+00
         21   -1    0    0  504  501  0.00000000000E+00  0.00000000000E+00  0.62386900754E+02  0.62386900754E+02  0.00000000000E+00 0.  1.
         21   -1    0    0  501  502 -0.00000000000E+00 -0.00000000000E+00 -0.14764577458E+04  0.14764577458E+04  0.00000000000E+00 0.  1.
         25    1    1    2    0    0 -0.11382066204E+03 -0.18466738081E+03 -0.12131437489E+04  0.12387089812E+04  0.12500000000E+03 0.  0.
         21    1    1    2  503  502  0.89456134069E+02  0.11371888750E+03 -0.10713278573E+03  0.18003282777E+03  0.00000000000E+00 0.  1.
         21    1    1    2  504  503  0.24364527973E+02  0.70948493311E+02 -0.93794310421E+02  0.12010283758E+03  0.00000000000E+00 0.  1.
<mgrwt>
<rscale>  4 0.25036410E+03</rscale>
<asrwt>0</asrwt>
<pdfrwt beam="1">  1       21 0.95979840E-02 0.25036410E+03</pdfrwt>
<pdfrwt beam="2">  1       21 0.22714736E+00 0.25036410E+03</pdfrwt>
<totfact> 0.75654479E+03</totfact>
</mgrwt>
</event>
<event>
 5    0  0.1324511E+000  0.3155405E+03  0.7546771E-02  0.1077720E+00
         21   -1    0    0  504  501  0.00000000000E+00  0.00000000000E+00  0.26440263935E+03  0.26440263935E+03  0.00000000000E+00 0. -1.
         21   -1    0    0  501  502 -0.00000000000E+00 -0.00000000000E+00 -0.81325257330E+03  0.81325257330E+03  0.00000000000E+00 0. -1.
         25    1    1    2    0    0  0.79368521472E+02 -0.28035310895E+03 -0.65212154243E+03  0.72511015301E+03  0.12500000000E+03 0.  0.
         21    1    1    2  503  502 -0.49808476966E+02  0.28537143193E+03  0.12501292878E+03  0.31550906628E+03  0.00000000000E+00 0. -1.
         21    1    1    2  504  503 -0.29560044506E+02 -0.50183229860E+01 -0.21741320297E+02  0.37035993371E+02  0.00000000000E+00 0.  1.
<mgrwt>
<rscale>  4 0.31554048E+03</rscale>
<asrwt>0</asrwt>
<pdfrwt beam="1">  1       21 0.40677331E-01 0.31554048E+03</pdfrwt>
<pdfrwt beam="2">  1       21 0.12511578E+00 0.31554048E+03</pdfrwt>
<totfact> 0.25412519E+03</totfact>
</mgrwt>
</event>
<event>
 5    0  0.1324511E+000  0.2394683E+03  0.7546771E-02  0.1120148E+00
         21   -1    0    0  504  501  0.00000000000E+00  0.00000000000E+00  0.49917386246E+03  0.49917386246E+03  0.00000000000E+00 0.  1.
         21   -1    0    0  501  502 -0.00000000000E+00 -0.00000000000E+00 -0.13485559158E+03  0.13485559158E+03  0.00000000000E+00 0.  1.
         25    1    1    2    0    0 -0.20416947881E+03  0.59065784177E+01  0.33944663369E+03  0.41541434841E+03  0.12500000000E+03 0.  0.
         21    1    1    2  503  502  0.14795688854E+03  0.52474304847E+01  0.49686098056E+02  0.15616492799E+03  0.00000000000E+00 0.  1.
         21    1    1    2  504  503  0.56212590265E+02 -0.11154008902E+02 -0.24814460868E+02  0.62450177638E+02  0.00000000000E+00 0.  1.
<mgrwt>
<rscale>  4 0.23946829E+03</rscale>
<asrwt>0</asrwt>
<pdfrwt beam="1">  1       21 0.76795978E-01 0.23946829E+03</pdfrwt>
<pdfrwt beam="2">  1       21 0.20747014E-01 0.23946829E+03</pdfrwt>
<totfact> 0.31727097E+04</totfact>
</mgrwt>
</event>
<event>
 5    0  0.1324511E+000  0.2381352E+03  0.7546771E-02  0.1121041E+00
         21   -1    0    0  504  501  0.00000000000E+00  0.00000000000E+00  0.69922433940E+03  0.69922433940E+03  0.00000000000E+00 0.  1.
         21   -1    0    0  501  502 -0.00000000000E+00 -0.00000000000E+00 -0.20131641615E+03  0.20131641615E+03  0.00000000000E+00 0.  1.
         25    1    1    2    0    0  0.12791872910E+03 -0.16798138269E+03 -0.93257244947E+02  0.26249354263E+03  0.12500000000E+03 0.  0.
         21    1    1    2  503  502 -0.72757126377E+02  0.13264579403E+03  0.51891897903E+03  0.54052327693E+03  0.00000000000E+00 0.  1.
         21    1    1    2  504  503 -0.55161602726E+02  0.35335588658E+02  0.72246189168E+02  0.97523935987E+02  0.00000000000E+00 0.  1.
<mgrwt>
<rscale>  4 0.23813523E+03</rscale>
<asrwt>0</asrwt>
<pdfrwt beam="1">  1       21 0.10757297E+00 0.23813523E+03</pdfrwt>
<pdfrwt beam="2">  1       21 0.30971757E-01 0.23813523E+03</pdfrwt>
<totfact> 0.66836396E+03</totfact>
</mgrwt>
</event>
<event>
 5    0  0.1324511E+000  0.2540652E+03  0.7546771E-02  0.1110762E+00
         21   -1    0    0  504  501  0.00000000000E+00  0.00000000000E+00  0.52080647167E+03  0.52080647167E+03  0.00000000000E+00 0.  1.
         21   -1    0    0  501  502 -0.00000000000E+00 -0.00000000000E+00 -0.79077471346E+03  0.79077471346E+03  0.00000000000E+00 0. -1.
         25    1    1    2    0    0 -0.72814487650E+02 -0.20885924528E+03 -0.74277490366E+03  0.78502464385E+03  0.12500000000E+03 0.  0.
         21    1    1    2  503  502 -0.20576644844E+01  0.63501897295E+02  0.18422191679E+03  0.19487031474E+03  0.00000000000E+00 0.  1.
         21    1    1    2  504  503  0.74872152135E+02  0.14535734798E+03  0.28858474508E+03  0.33168622653E+03  0.00000000000E+00 0.  1.
<mgrwt>
<rscale>  4 0.25406522E+03</rscale>
<asrwt>0</asrwt>
<pdfrwt beam="1">  1       21 0.80124073E-01 0.25406522E+03</pdfrwt>
<pdfrwt beam="2">  1       21 0.12165765E+00 0.25406522E+03</pdfrwt>
<totfact> 0.65993086E+02</totfact>
</mgrwt>
</event>
<event>
 5    0  0.1324511E+000  0.2369622E+03  0.7546771E-02  0.1121833E+00
         21   -1    0    0  504  501  0.00000000000E+00  0.00000000000E+00  0.71924857655E+03  0.71924857655E+03  0.00000000000E+00 0. -1.
         21   -1    0    0  501  502 -0.00000000000E+00 -0.00000000000E+00 -0.18907417292E+03  0.18907417292E+03  0.00000000000E+00 0. -1.
         25    1    1    2    0    0  0.16450516532E+03  0.14866727554E+03 -0.52179186697E+02  0.25982989774E+03  0.12500000000E+03 0.  0.
         21    1    1    2  503  502 -0.43289843659E+02 -0.43838440745E+02  0.40419049978E+03  0.40885911946E+03  0.00000000000E+00 0.  1.
         21    1    1    2  504  503 -0.12121532166E+03 -0.10482883480E+03  0.17816309054E+03  0.23963373227E+03  0.00000000000E+00 0. -1.
<mgrwt>
<rscale>  4 0.23696221E+03</rscale>
<asrwt>0</asrwt>
<pdfrwt beam="1">  1       21 0.11065363E+00 0.23696221E+03</pdfrwt>
<pdfrwt beam="2">  1       21 0.29088335E-01 0.23696221E+03</pdfrwt>
<totfact> 0.70612404E+03</totfact>
</mgrwt>
</event>
<event>
 5    0  0.1324511E+000  0.2372239E+03  0.7546771E-02  0.1121656E+00
         21   -1    0    0  504  501  0.00000000000E+00  0.00000000000E+00  0.99176775566E+03  0.99176775566E+03  0.00000000000E+00 0. -1.
         21   -1    0    0  501  502 -0.00000000000E+00 -0.00000000000E+00 -0.51535957215E+02  0.51535957215E+02  0.00000000000E+00 0. -1.
         25    1    1    2    0    0 -0.47390817050E+01 -0.20156318153E+03  0.57505598293E+03  0.62206475430E+03  0.12500000000E+03 0.  0.
         21    1    1    2  503  502 -0.15809018906E+02  0.16163327571E+03  0.25575781142E+03  0.30296418765E+03  0.00000000000E+00 0. -1.
         21    1    1    2  504  503  0.20548100611E+02  0.39929905819E+02  0.10941800410E+03  0.11827477093E+03  0.00000000000E+00 0. -1.
<mgrwt>
<rscale>  4 0.23722389E+03</rscale>
<asrwt>0</asrwt>
<pdfrwt beam="1">  1       21 0.15257964E+00 0.23722389E+03</pdfrwt>
<pdfrwt beam="2">  1       21 0.79286095E-02 0.23722389E+03</pdfrwt>
<totfact> 0.33945594E+04</totfact>
</mgrwt>
</event>
<event>
 5    0  0.1324511E+000  0.2669231E+03  0.7546771E-02  0.1103054E+00
         21   -1    0    0  504  501  0.00000000000E+00  0.00000000000E+00  0.61748145603E+03  0.61748145603E+03  0.00000000000E+00 0.  1.
         21   -1    0    0  501  502 -0.00000000000E+00 -0.00000000000E+00 -0.57710825602E+03  0.57710825602E+03  0.00000000000E+00 0. -1.
         25    1    1    2    0    0  0.20210647751E+03  0.13831355460E+03 -0.50276985901E+03  0.57304467432E+03  0.12500000000E+03 0.  0.
         21    1    1    2  503  502 -0.61258619837E+02 -0.11854557014E+03  0.13711758907E+03  0.19132930758E+03  0.00000000000E+00 0.  1.
         21    1    1    2  504  503 -0.14084785767E+03 -0.19767984461E+02  0.40602546995E+03  0.43021573015E+03  0.00000000000E+00 0.  1.
<mgrwt>
<rscale>  4 0.26692311E+03</rscale>
<asrwt>0</asrwt>
<pdfrwt beam="1">  1       21 0.94997147E-01 0.26692311E+03</pdfrwt>
<pdfrwt beam="2">  1       21 0.88785885E-01 0.26692311E+03</pdfrwt>
<totfact> 0.94132461E+02</totfact>
</mgrwt>
</event>
<event>
 5    0  0.1324511E+000  0.2755525E+03  0.7546771E-02  0.1098143E+00
         21   -1    0    0  504  501  0.00000000000E+00  0.00000000000E+00  0.28448301052E+03  0.28448301052E+03  0.00000000000E+00 0.  1.
         21   -1    0    0  501  502 -0.00000000000E+00 -0.00000000000E+00 -0.59162257898E+03  0.59162257898E+03  0.00000000000E+00 0.  1.
         25    1    1    2    0    0  0.18784318065E+03  0.16524290955E+03 -0.47064408680E+03  0.54746793158E+03  0.12500000000E+03 0.  0.
         21    1    1    2  503  502 -0.17031501649E+03 -0.14938555540E+03  0.77486845490E+02  0.23943153558E+03  0.00000000000E+00 0.  1.
         21    1    1    2  504  503 -0.17528164152E+02 -0.15857354143E+02  0.86017672851E+02  0.89206122333E+02  0.00000000000E+00 0.  1.
<mgrwt>
<rscale>  4 0.27555255E+03</rscale>
<asrwt>0</asrwt>
<pdfrwt beam="1">  1       21 0.43766617E-01 0.27555255E+03</pdfrwt>
<pdfrwt beam="2">  1       21 0.91018858E-01 0.27555255E+03</pdfrwt>
<totfact> 0.48552084E+03</totfact>
</mgrwt>
</event>
<event>
 5    0  0.1324511E+000  0.2868941E+03  0.7546771E-02  0.1091982E+00
         21   -1    0    0  504  501  0.00000000000E+00  0.00000000000E+00  0.12582019360E+04  0.12582019360E+04  0.00000000000E+00 0. -1.
         21   -1    0    0  501  502 -0.00000000000E+00 -0.00000000000E+00 -0.16271433757E+03  0.16271433757E+03  0.00000000000E+00 0. -1.
         25    1    1    2    0    0  0.62962452790E+02 -0.27825211535E+03  0.51141775470E+02  0.31564060474E+03  0.12500000000E+03 0.  0.
         21    1    1    2  503  502 -0.67149087037E+02  0.22559586128E+02  0.76692629580E+02  0.10440160079E+03  0.00000000000E+00 0.  1.
         21    1    1    2  504  503  0.41866342471E+01  0.25569252922E+03  0.96765319341E+03  0.10008740681E+04  0.00000000000E+00 0. -1.
<mgrwt>
<rscale>  4 0.28689414E+03</rscale>
<asrwt>0</asrwt>
<pdfrwt beam="1">  1       21 0.19356952E+00 0.28689414E+03</pdfrwt>
<pdfrwt beam="2">  1       21 0.25032976E-01 0.28689414E+03</pdfrwt>
<totfact> 0.20620618E+03</totfact>
</mgrwt>
</event>
<event>
 5    0  0.1324511E+000  0.3015541E+03  0.7546771E-02  0.1084466E+00
         21   -1    0    0  504  501  0.00000000000E+00  0.00000000000E+00  0.70575949041E+03  0.70575949041E+03  0.00000000000E+00 0. -1.
         21   -1    0    0  501  502 -0.00000000000E+00 -0.00000000000E+00 -0.20364783519E+03  0.20364783519E+03  0.00000000000E+00 0.  1.
         25    1    1    2    0    0 -0.72905157911E+02 -0.26456513654E+03 -0.28724306717E+02  0.30291906397E+03  0.12500000000E+03 0.  0.
         21    1    1    2  503  502 -0.12185546048E+02  0.75702565303E+02  0.21976610696E+03  0.23275847502E+03  0.00000000000E+00 0. -1.
         21    1    1    2  504  503  0.85090703959E+02  0.18886257124E+03  0.31106985498E+03  0.37372978660E+03  0.00000000000E+00 0. -1.
<mgrwt>
<rscale>  4 0.30155410E+03</rscale>
<asrwt>0</asrwt>
<pdfrwt beam="1">  1       21 0.10857838E+00 0.30155410E+03</pdfrwt>
<pdfrwt beam="2">  1       21 0.31330436E-01 0.30155410E+03</pdfrwt>
<totfact> 0.61632776E+03</totfact>
</mgrwt>
</event>
<event>
 5    0  0.1324511E+000  0.2325595E+03  0.7546771E-02  0.1124851E+00
         21   -1    0    0  504  501  0.00000000000E+00  0.00000000000E+00  0.10509725448E+03  0.10509725448E+03  0.00000000000E+00 0.  1.
         21   -1    0    0  501  502 -0.00000000000E+00 -0.00000000000E+00 -0.72387303954E+03  0.72387303954E+03  0.00000000000E+00 0.  1.
         25    1    1    2    0    0 -0.13382894873E+02 -0.20223397321E+03 -0.53602003208E+03  0.58653231504E+03  0.12500000000E+03 0.  0.
         21    1    1    2  503  502 -0.36015496842E+02  0.26173304602E+02 -0.99636939450E+01  0.45622725517E+02  0.00000000000E+00 0.  1.
         21    1    1    2  504  503  0.49398391716E+02  0.17606066861E+03 -0.72792059037E+02  0.19681525346E+03  0.00000000000E+00 0.  1.
<mgrwt>
<rscale>  4 0.23255950E+03</rscale>
<asrwt>0</asrwt>
<pdfrwt beam="1">  1       21 0.16168808E-01 0.23255950E+03</pdfrwt>
<pdfrwt beam="2">  1       21 0.11136508E+00 0.23255950E+03</pdfrwt>
<totfact> 0.21177356E+04</totfact>
</mgrwt>
</event>
<event>
 5    0  0.1324511E+000  0.3452967E+03  0.7546771E-02  0.1064562E+00
         21   -1    0    0  504  501  0.00000000000E+00  0.00000000000E+00  0.18278099442E+03  0.18278099442E+03  0.00000000000E+00 0. -1.
         21   -1    0    0  501  502 -0.00000000000E+00 -0.00000000000E+00 -0.97082559265E+03  0.97082559265E+03  0.00000000000E+00 0. -1.
         25    1    1    2    0    0  0.14960652909E+03  0.28499601786E+03 -0.74182689564E+03  0.81825239800E+03  0.12500000000E+03 0.  0.
         21    1    1    2  503  502 -0.46138194384E+02 -0.87107162407E+02 -0.53055613516E+02  0.11194323941E+03  0.00000000000E+00 0.  1.
         21    1    1    2  504  503 -0.10346833471E+03 -0.19788885545E+03  0.68379109236E+01  0.22341094965E+03  0.00000000000E+00 0. -1.
<mgrwt>
<rscale>  4 0.34529675E+03</rscale>
<asrwt>0</asrwt>
<pdfrwt beam="1">  1       21 0.28120153E-01 0.34529675E+03</pdfrwt>
<pdfrwt beam="2">  1       21 0.14935778E+00 0.34529675E+03</pdfrwt>
<totfact> 0.33000747E+03</totfact>
</mgrwt>
</event>
<event>
 5    0  0.1324511E+000  0.2622492E+03  0.7546771E-02  0.1105799E+00
         21   -1    0    0  504  501  0.00000000000E+00  0.00000000000E+00  0.12112414844E+04  0.12112414844E+04  0.00000000000E+00 0. -1.
         21   -1    0    0  501  502 -0.00000000000E+00 -0.00000000000E+00 -0.52551128506E+02  0.52551128506E+02  0.00000000000E+00 0.  1.
         25    1    1    2    0    0  0.21140374396E+03  0.91967908530E+02  0.49610525989E+03  0.56115511942E+03  0.12500000000E+03 0.  0.
         21    1    1    2  503  502 -0.17593234824E+03 -0.78048899696E+02  0.59088586743E+03  0.62144181565E+03  0.00000000000E+00 0. -1.
         21    1    1    2  504  503 -0.35471395725E+02 -0.13919008834E+02  0.71699228537E+02  0.81195677806E+02  0.00000000000E+00 0. -1.
<mgrwt>
<rscale>  4 0.26224919E+03</rscale>
<asrwt>0</asrwt>
<pdfrwt beam="1">  1       21 0.18634482E+00 0.26224919E+03</pdfrwt>
<pdfrwt beam="2">  1       21 0.80847899E-02 0.26224919E+03</pdfrwt>
<totfact> 0.18565950E+04</totfact>
</mgrwt>
</event>
<event>
 5    0  0.1324511E+000  0.2560283E+03  0.7546771E-02  0.1109553E+00
         21   -1    0    0  504  501  0.00000000000E+00  0.00000000000E+00  0.11383304053E+03  0.11383304053E+03  0.00000000000E+00 0. -1.
         21   -1    0    0  501  502 -0.00000000000E+00 -0.00000000000E+00 -0.70854869321E+03  0.70854869321E+03  0.00000000000E+00 0. -1.
         25    1    1    2    0    0  0.70368183789E+02  0.21875911093E+03 -0.49588340151E+03  0.56065370577E+03  0.12500000000E+03 0.  0.
         21    1    1    2  503  502 -0.51158394031E+02 -0.20473883248E+03 -0.10696493973E+03  0.23659389074E+03  0.00000000000E+00 0. -1.
         21    1    1    2  504  503 -0.19209789759E+02 -0.14020278449E+02  0.81326885636E+01  0.25134137217E+02  0.00000000000E+00 0.  1.
<mgrwt>
<rscale>  4 0.25602827E+03</rscale>
<asrwt>0</asrwt>
<pdfrwt beam="1">  1       21 0.17512776E-01 0.25602827E+03</pdfrwt>
<pdfrwt beam="2">  1       21 0.10900749E+00 0.25602827E+03</pdfrwt>
<totfact> 0.19019538E+04</totfact>
</mgrwt>
</event>
<event>
 5    0  0.1324511E+000  0.2541443E+03  0.7546771E-02  0.1110713E+00
         21   -1    0    0  504  501  0.00000000000E+00  0.00000000000E+00  0.82045301261E+03  0.82045301261E+03  0.00000000000E+00 0. -1.
         21   -1    0    0  501  502 -0.00000000000E+00 -0.00000000000E+00 -0.13297003582E+03  0.13297003582E+03  0.00000000000E+00 0. -1.
         25    1    1    2    0    0  0.87599705686E+02  0.20320098145E+03  0.31328635889E+02  0.25606801973E+03  0.12500000000E+03 0.  0.
         21    1    1    2  503  502 -0.94597239658E+02 -0.15728298742E+03  0.57799108566E+03  0.60643241254E+03  0.00000000000E+00 0. -1.
         21    1    1    2  504  503  0.69975339715E+01 -0.45917994032E+02  0.78163255242E+02  0.90922616151E+02  0.00000000000E+00 0.  1.
<mgrwt>
<rscale>  4 0.25414434E+03</rscale>
<asrwt>0</asrwt>
<pdfrwt beam="1">  1       21 0.12622354E+00 0.25414434E+03</pdfrwt>
<pdfrwt beam="2">  1       21 0.20456929E-01 0.25414434E+03</pdfrwt>
<totfact> 0.98957836E+03</totfact>
</mgrwt>
</event>
<event>
 5    0  0.1324511E+000  0.2499347E+03  0.7546771E-02  0.1113346E+00
         21   -1    0    0  504  501  0.00000000000E+00  0.00000000000E+00  0.28994131345E+03  0.28994131345E+03  0.00000000000E+00 0.  1.
         21   -1    0    0  501  502 -0.00000000000E+00 -0.00000000000E+00 -0.32440842098E+03  0.32440842098E+03  0.00000000000E+00 0.  1.
         25    1    1    2    0    0 -0.20494207914E+03 -0.69578009748E+02 -0.21354091248E+03  0.32873557237E+03  0.12500000000E+03 0.  0.
         21    1    1    2  503  502  0.18619546802E+02  0.80010184293E+01  0.40803207191E+02  0.45558814033E+02  0.00000000000E+00 0.  1.
         21    1    1    2  504  503  0.18632253233E+03  0.61576991318E+02  0.13827059775E+03  0.24005534803E+03  0.00000000000E+00 0.  1.
<mgrwt>
<rscale>  4 0.24993470E+03</rscale>
<asrwt>0</asrwt>
<pdfrwt beam="1">  1       21 0.44606356E-01 0.24993470E+03</pdfrwt>
<pdfrwt beam="2">  1       21 0.49908988E-01 0.24993470E+03</pdfrwt>
<totfact> 0.17874834E+04</totfact>
</mgrwt>
</event>
<event>
 5    0  0.1324511E+000  0.2979724E+03  0.7546771E-02  0.1086259E+00
         21   -1    0    0  504  501  0.00000000000E+00  0.00000000000E+00  0.13207422846E+04  0.13207422846E+04  0.00000000000E+00 0.  1.
         21   -1    0    0  501  502 -0.00000000000E+00 -0.00000000000E+00 -0.83460844658E+02  0.83460844658E+02  0.00000000000E+00 0.  1.
         25    1    1    2    0    0 -0.18353621068E+03 -0.19868815023E+03  0.28516547507E+03  0.41244014093E+03  0.12500000000E+03 0.  0.
         21    1    1    2  503  502  0.18665943513E+02  0.36440676064E+02  0.22645189624E+03  0.23012344868E+03  0.00000000000E+00 0.  1.
         21    1    1    2  504  503  0.16487026717E+03  0.16224747417E+03  0.72566406867E+03  0.76163953970E+03  0.00000000000E+00 0.  1.
<mgrwt>
<rscale>  4 0.29797235E+03</rscale>
<asrwt>0</asrwt>
<pdfrwt beam="1">  1       21 0.20319111E+00 0.29797235E+03</pdfrwt>
<pdfrwt beam="2">  1       21 0.12840131E-01 0.29797235E+03</pdfrwt>
<totfact> 0.61623378E+03</totfact>
</mgrwt>
</event>
<event>
 5    0  0.1324511E+000  0.3286914E+03  0.7546771E-02  0.1071717E+00
         21   -1    0    0  504  501  0.00000000000E+00  0.00000000000E+00  0.24827292064E+04  0.24827292064E+04  0.00000000000E+00 0. -1.
         21   -1    0    0  501  502 -0.00000000000E+00 -0.00000000000E+00 -0.68797563402E+02  0.68797563402E+02  0.00000000000E+00 0. -1.
         25    1    1    2    0    0 -0.74119955392E+02  0.29482071728E+03  0.42313241072E+03  0.53579759250E+03  0.12500000000E+03 0.  0.
         21    1    1    2  503  502  0.22960296297E+02 -0.28679816638E+02  0.12296124341E+03  0.12833228147E+03  0.00000000000E+00 0. -1.
         21    1    1    2  504  503  0.51159659095E+02 -0.26614090064E+03  0.18678379889E+04  0.18873968958E+04  0.00000000000E+00 0. -1.
<mgrwt>
<rscale>  4 0.32869138E+03</rscale>
<asrwt>0</asrwt>
<pdfrwt beam="1">  1       21 0.38195827E+00 0.32869138E+03</pdfrwt>
<pdfrwt beam="2">  1       21 0.10584242E-01 0.32869138E+03</pdfrwt>
<totfact> 0.70538536E+02</totfact>
</mgrwt>
</event>
<event>
 5    0  0.1324511E+000  0.3267357E+03  0.7546771E-02  0.1072590E+00
         21   -1    0    0  504  501  0.00000000000E+00  0.00000000000E+00  0.21009202118E+03  0.21009202118E+03  0.00000000000E+00 0.  1.
         21   -1    0    0  501  502 -0.00000000000E+00 -0.00000000000E+00 -0.73933945603E+03  0.73933945603E+03  0.00000000000E+00 0.  1.
         25    1    1    2    0    0 -0.21521748216E+03  0.24756218919E+03 -0.47440558986E+03  0.59016206742E+03  0.12500000000E+03 0.  0.
         21    1    1    2  503  502  0.16965164486E+03 -0.19850739550E+03 -0.98782122841E+02  0.27918591380E+03  0.00000000000E+00 0.  1.
         21    1    1    2  504  503  0.45565837298E+02 -0.49054793687E+02  0.43940277846E+02  0.80083495987E+02  0.00000000000E+00 0.  1.
<mgrwt>
<rscale>  4 0.32673573E+03</rscale>
<asrwt>0</asrwt>
<pdfrwt beam="1">  1       21 0.32321848E-01 0.32673573E+03</pdfrwt>
<pdfrwt beam="2">  1       21 0.11374454E+00 0.32673573E+03</pdfrwt>
<totfact> 0.51043392E+03</totfact>
</mgrwt>
</event>
<event>
 5    0  0.1324511E+000  0.2805727E+03  0.7546771E-02  0.1095377E+00
         21   -1    0    0  504  501  0.00000000000E+00  0.00000000000E+00  0.75176502728E+02  0.75176502728E+02  0.00000000000E+00 0.  1.
         21   -1    0    0  501  502 -0.00000000000E+00 -0.00000000000E+00 -0.12506089930E+04  0.12506089930E+04  0.00000000000E+00 0.  1.
         25    1    1    2    0    0 -0.18865370367E+03  0.16584880224E+03 -0.87932193361E+03  0.92299951681E+03  0.12500000000E+03 0.  0.
         21    1    1    2  503  502  0.24965982152E+02 -0.86084341052E+02 -0.11683448838E+03  0.14725526039E+03  0.00000000000E+00 0.  1.
         21    1    1    2  504  503  0.16368772151E+03 -0.79764461190E+02 -0.17927606826E+03  0.25553071849E+03  0.00000000000E+00 0.  1.
<mgrwt>
<rscale>  4 0.28057271E+03</rscale>
<asrwt>0</asrwt>
<pdfrwt beam="1">  1       21 0.11565616E-01 0.28057271E+03</pdfrwt>
<pdfrwt beam="2">  1       21 0.19240138E+00 0.28057271E+03</pdfrwt>
<totfact> 0.88561387E+03</totfact>
</mgrwt>
</event>
<event>
 5    0  0.1324511E+000  0.2290797E+03  0.7546771E-02  0.1127289E+00
         21   -1    0    0  504  501  0.00000000000E+00  0.00000000000E+00  0.44119289683E+03  0.44119289683E+03  0.00000000000E+00 0. -1.
         21   -1    0    0  501  502 -0.00000000000E+00 -0.00000000000E+00 -0.25592608204E+03  0.25592608204E+03  0.00000000000E+00 0. -1.
         25    1    1    2    0    0  0.99003576029E+02 -0.20863944404E+03 -0.13041337910E+03  0.29319750191E+03  0.12500000000E+03 0.  0.
         21    1    1    2  503  502 -0.77734186992E+02  0.17022289065E+03  0.30642233991E+03  0.35904468625E+03  0.00000000000E+00 0. -1.
         21    1    1    2  504  503 -0.21269389037E+02  0.38416553388E+02  0.92578539778E+01  0.44876790710E+02  0.00000000000E+00 0. -1.
<mgrwt>
<rscale>  4 0.22907973E+03</rscale>
<asrwt>0</asrwt>
<pdfrwt beam="1">  1       21 0.67875830E-01 0.22907973E+03</pdfrwt>
<pdfrwt beam="2">  1       21 0.39373243E-01 0.22907973E+03</pdfrwt>
<totfact> 0.12049175E+04</totfact>
</mgrwt>
</event>
<event>
 5    0  0.1324511E+000  0.2409048E+03  0.7546771E-02  0.1119192E+00
         21   -1    0    0  504  501  0.00000000000E+00  0.00000000000E+00  0.57681758882E+03  0.57681758882E+03  0.00000000000E+00 0. -1.
         21   -1    0    0  501  502 -0.00000000000E+00 -0.00000000000E+00 -0.19393387526E+03  0.19393387526E+03  0.00000000000E+00 0. -1.
         25    1    1    2    0    0  0.40302445569E+01 -0.20589773307E+03 -0.85662417286E+02  0.25568177309E+03  0.12500000000E+03 0.  0.
         21    1    1    2  503  502 -0.16413601446E+02  0.14062205708E+02  0.43492989930E+02  0.48567397654E+02  0.00000000000E+00 0.  1.
         21    1    1    2  504  503  0.12383356889E+02  0.19183552736E+03  0.42505314092E+03  0.46650229334E+03  0.00000000000E+00 0. -1.
<mgrwt>
<rscale>  4 0.24090479E+03</rscale>
<asrwt>0</asrwt>
<pdfrwt beam="1">  1       21 0.88741166E-01 0.24090479E+03</pdfrwt>
<pdfrwt beam="2">  1       21 0.29835981E-01 0.24090479E+03</pdfrwt>
<totfact> 0.11339373E+04</totfact>
</mgrwt>
</event>
<event>
 5    0  0.1324511E+000  0.2337160E+03  0.7546771E-02  0.1124051E+00
         21   -1    0    0  504  501  0.00000000000E+00  0.00000000000E+00  0.18351745778E+03  0.18351745778E+03  0.00000000000E+00 0. -1.
         21   -1    0    0  501  502 -0.00000000000E+00 -0.00000000000E+00 -0.15991639450E+04  0.15991639450E+04  0.00000000000E+00 0.  1.
         25    1    1    2    0    0  0.20109305379E+03 -0.53365567694E+02 -0.14700956106E+04  0.14899974512E+04  0.12500000000E+03 0.  0.
         21    1    1    2  503  502 -0.75824481276E+02 -0.26099574559E+02  0.10839430890E+03  0.13483273325E+03  0.00000000000E+00 0. -1.
         21    1    1    2  504  503 -0.12526857251E+03  0.79465142253E+02 -0.53945185462E+02  0.15785121833E+03  0.00000000000E+00 0. -1.
<mgrwt>
<rscale>  4 0.23371597E+03</rscale>
<asrwt>0</asrwt>
<pdfrwt beam="1">  1       21 0.28233455E-01 0.23371597E+03</pdfrwt>
<pdfrwt beam="2">  1       21 0.24602522E+00 0.23371597E+03</pdfrwt>
<totfact> 0.80241881E+02</totfact>
</mgrwt>
</event>
<event>
 5    0  0.1324511E+000  0.2508740E+03  0.7546771E-02  0.1112754E+00
         21   -1    0    0  504  501  0.00000000000E+00  0.00000000000E+00  0.79905743141E+03  0.79905743141E+03  0.00000000000E+00 0. -1.
         21   -1    0    0  501  502 -0.00000000000E+00 -0.00000000000E+00 -0.88117869370E+02  0.88117869370E+02  0.00000000000E+00 0. -1.
         25    1    1    2    0    0 -0.13309543814E+03 -0.19146375756E+03  0.46121576001E+03  0.53171208694E+03  0.12500000000E+03 0.  0.
         21    1    1    2  503  502  0.11826009810E+03  0.17438825763E+03  0.16457327338E+03  0.26735945376E+03  0.00000000000E+00 0. -1.
         21    1    1    2  504  503  0.14835340041E+02  0.17075499931E+02  0.85150528650E+02  0.88103760086E+02  0.00000000000E+00 0. -1.
<mgrwt>
<rscale>  4 0.25087402E+03</rscale>
<asrwt>0</asrwt>
<pdfrwt beam="1">  1       21 0.12293191E+00 0.25087402E+03</pdfrwt>
<pdfrwt beam="2">  1       21 0.13556596E-01 0.25087402E+03</pdfrwt>
<totfact> 0.22676778E+04</totfact>
</mgrwt>
</event>
<event>
 5    0  0.1324511E+000  0.2720508E+03  0.7546771E-02  0.1100112E+00
         21   -1    0    0  504  501  0.00000000000E+00  0.00000000000E+00  0.18178669170E+04  0.18178669170E+04  0.00000000000E+00 0.  1.
         21   -1    0    0  501  502 -0.00000000000E+00 -0.00000000000E+00 -0.34682245925E+03  0.34682245925E+03  0.00000000000E+00 0.  1.
         25    1    1    2    0    0 -0.10198875103E+03  0.21905464660E+03 -0.28366910434E+03  0.39303918926E+03  0.12500000000E+03 0.  0.
         21    1    1    2  503  502  0.47510812450E+01 -0.24020460278E+02  0.25708860047E+03  0.25825201601E+03  0.00000000000E+00 0. -1.
         21    1    1    2  504  503  0.97237669784E+02 -0.19503418633E+03  0.14976249616E+04  0.15133981709E+04  0.00000000000E+00 0.  1.
<mgrwt>
<rscale>  4 0.27205081E+03</rscale>
<asrwt>0</asrwt>
<pdfrwt beam="1">  1       21 0.27967183E+00 0.27205081E+03</pdfrwt>
<pdfrwt beam="2">  1       21 0.53357302E-01 0.27205081E+03</pdfrwt>
<totfact> 0.13401814E+02</totfact>
</mgrwt>
</event>
<event>
 5    0  0.1324511E+000  0.2503659E+03  0.7546771E-02  0.1113074E+00
         21   -1    0    0  504  501  0.00000000000E+00  0.00000000000E+00  0.18628398979E+03  0.18628398979E+03  0.00000000000E+00 0.  1.
         21   -1    0    0  501  502 -0.00000000000E+00 -0.00000000000E+00 -0.32077416717E+03  0.32077416717E+03  0.00000000000E+00 0.  1.
         25    1    1    2    0    0  0.20298315127E+03 -0.76523968095E+02 -0.13688628714E+03  0.28534353506E+03  0.12500000000E+03 0.  0.
         21    1    1    2  503  502 -0.73897438663E+02  0.51314044197E+02 -0.37742605174E+01  0.90045586317E+02  0.00000000000E+00 0.  1.
         21    1    1    2  504  503 -0.12908571260E+03  0.25209923898E+02  0.61703702823E+01  0.13166903558E+03  0.00000000000E+00 0.  1.
<mgrwt>
<rscale>  4 0.25036589E+03</rscale>
<asrwt>0</asrwt>
<pdfrwt beam="1">  1       21 0.28659076E-01 0.25036589E+03</pdfrwt>
<pdfrwt beam="2">  1       21 0.49349871E-01 0.25036589E+03</pdfrwt>
<totfact> 0.44418020E+04</totfact>
</mgrwt>
</event>
<event>
 5    0  0.1324511E+000  0.2404189E+03  0.7546771E-02  0.1119514E+00
         21   -1    0    0  504  501  0.00000000000E+00  0.00000000000E+00  0.19948362619E+03  0.19948362619E+03  0.00000000000E+00 0.  1.
         21   -1    0    0  501  502 -0.00000000000E+00 -0.00000000000E+00 -0.43211918055E+03  0.43211918055E+03  0.00000000000E+00 0.  1.
         25    1    1    2    0    0 -0.92607508112E+02 -0.18330335274E+03 -0.30894469199E+03  0.39146914616E+03  0.12500000000E+03 0.  0.
         21    1    1    2  503  502  0.74028757446E+02  0.53131068159E+02  0.67350856880E+01  0.91370283528E+02  0.00000000000E+00 0. -1.
         21    1    1    2  504  503  0.18578750665E+02  0.13017228458E+03  0.69574051948E+02  0.14876337706E+03  0.00000000000E+00 0.  1.
<mgrwt>
<rscale>  4 0.24041895E+03</rscale>
<asrwt>0</asrwt>
<pdfrwt beam="1">  1       21 0.30689789E-01 0.24041895E+03</pdfrwt>
<pdfrwt beam="2">  1       21 0.66479873E-01 0.24041895E+03</pdfrwt>
<totfact> 0.20598128E+04</totfact>
</mgrwt>
</event>
<event>
 5    0  0.1324511E+000  0.2563165E+03  0.7546771E-02  0.1109377E+00
         21   -1    0    0  504  501  0.00000000000E+00  0.00000000000E+00  0.27280759560E+03  0.27280759560E+03  0.00000000000E+00 0. -1.
         21   -1    0    0  501  502 -0.00000000000E+00 -0.00000000000E+00 -0.44876022665E+03  0.44876022665E+03  0.00000000000E+00 0. -1.
         25    1    1    2    0    0  0.14116058787E+03  0.18234666537E+03 -0.33471003525E+03  0.42524396014E+03  0.12500000000E+03 0.  0.
         21    1    1    2  503  502 -0.52506574032E+01 -0.34571740972E+02  0.67005457898E+02  0.75581122412E+02  0.00000000000E+00 0. -1.
         21    1    1    2  504  503 -0.13590993046E+03 -0.14777492439E+03  0.91751946304E+02  0.22074273970E+03  0.00000000000E+00 0. -1.
<mgrwt>
<rscale>  4 0.25631645E+03</rscale>
<asrwt>0</asrwt>
<pdfrwt beam="1">  1       21 0.41970400E-01 0.25631645E+03</pdfrwt>
<pdfrwt beam="2">  1       21 0.69040034E-01 0.25631645E+03</pdfrwt>
<totfact> 0.10036035E+04</totfact>
</mgrwt>
</event>
<event>
 5    0  0.1324511E+000  0.2734908E+03  0.7546771E-02  0.1099298E+00
         21   -1    0    0  504  501  0.00000000000E+00  0.00000000000E+00  0.75192322294E+02  0.75192322294E+02  0.00000000000E+00 0.  1.
         21   -1    0    0  501  502 -0.00000000000E+00 -0.00000000000E+00 -0.12454831955E+04  0.12454831955E+04  0.00000000000E+00 0.  1.
         25    1    1    2    0    0  0.23107045853E+03 -0.76017513174E+02 -0.94852985821E+03  0.98717076083E+03  0.12500000000E+03 0.  0.
         21    1    1    2  503  502 -0.15708390593E+03  0.24842986097E+02 -0.13714993418E+03  0.21000626635E+03  0.00000000000E+00 0.  1.
         21    1    1    2  504  503 -0.73986552601E+02  0.51174527077E+02 -0.84611080821E+02  0.12349849062E+03  0.00000000000E+00 0.  1.
<mgrwt>
<rscale>  4 0.27349080E+03</rscale>
<asrwt>0</asrwt>
<pdfrwt beam="1">  1       21 0.11568050E-01 0.27349080E+03</pdfrwt>
<pdfrwt beam="2">  1       21 0.19161279E+00 0.27349080E+03</pdfrwt>
<totfact> 0.89991550E+03</totfact>
</mgrwt>
</event>
<event>
 5    0  0.1324511E+000  0.7321374E+03  0.7546771E-02  0.9665303E-01
         21   -1    0    0  504  501  0.00000000000E+00  0.00000000000E+00  0.42896839080E+03  0.42896839080E+03  0.00000000000E+00 0. -1.
         21   -1    0    0  501  502 -0.00000000000E+00 -0.00000000000E+00 -0.12660917881E+04  0.12660917881E+04  0.00000000000E+00 0.  1.
         25    1    1    2    0    0 -0.56562676503E+03  0.44163828101E+03 -0.53137991047E+03  0.90164716926E+03  0.12500000000E+03 0.  0.
         21    1    1    2  503  502  0.52553130798E+03 -0.42329839797E+03 -0.24404811180E+03  0.71758216969E+03  0.00000000000E+00 0. -1.
         21    1    1    2  504  503  0.40095457054E+02 -0.18339883043E+02 -0.61695375008E+02  0.75830839925E+02  0.00000000000E+00 0. -1.
<mgrwt>
<rscale>  4 0.73120751E+03</rscale>
<asrwt>0</asrwt>
<pdfrwt beam="1">  1       21 0.65995137E-01 0.73213737E+03</pdfrwt>
<pdfrwt beam="2">  1       21 0.19478335E+00 0.73213737E+03</pdfrwt>
<totfact> 0.22227952E+02</totfact>
</mgrwt>
</event>
<event>
 5    0  0.1324511E+000  0.2432361E+03  0.7546771E-02  0.1117656E+00
         21   -1    0    0  504  501  0.00000000000E+00  0.00000000000E+00  0.11694717518E+03  0.11694717518E+03  0.00000000000E+00 0.  1.
         21   -1    0    0  501  502 -0.00000000000E+00 -0.00000000000E+00 -0.50892301628E+03  0.50892301628E+03  0.00000000000E+00 0. -1.
         25    1    1    2    0    0 -0.44373388215E+02 -0.20388671288E+03 -0.31921668865E+03  0.40132665447E+03  0.12500000000E+03 0.  0.
         21    1    1    2  503  502  0.36305845907E+02  0.15537011971E+03 -0.37150537580E+02  0.16382353613E+03  0.00000000000E+00 0.  1.
         21    1    1    2  504  503  0.80675423085E+01  0.48516593167E+02 -0.35608614866E+02  0.60720000857E+02  0.00000000000E+00 0.  1.
<mgrwt>
<rscale>  4 0.24323608E+03</rscale>
<asrwt>0</asrwt>
<pdfrwt beam="1">  1       21 0.17991873E-01 0.24323608E+03</pdfrwt>
<pdfrwt beam="2">  1       21 0.78295848E-01 0.24323608E+03</pdfrwt>
<totfact> 0.39584111E+04</totfact>
</mgrwt>
</event>
<event>
 5    0  0.1324511E+000  0.3170226E+03  0.7546771E-02  0.1077028E+00
         21   -1    0    0  504  501  0.00000000000E+00  0.00000000000E+00  0.82318032092E+02  0.82318032092E+02  0.00000000000E+00 0. -1.
         21   -1    0    0  501  502 -0.00000000000E+00 -0.00000000000E+00 -0.12947952126E+04  0.12947952126E+04  0.00000000000E+00 0. -1.
         25    1    1    2    0    0  0.27919734362E+03  0.83229571110E+02 -0.81328575901E+03  0.87289005264E+03  0.12500000000E+03 0.  0.
         21    1    1    2  503  502 -0.11848153434E+03 -0.76352664006E+02 -0.23726703244E+03  0.27597689752E+03  0.00000000000E+00 0. -1.
         21    1    1    2  504  503 -0.16071580928E+03 -0.68769071038E+01 -0.16192438911E+03  0.22824629458E+03  0.00000000000E+00 0. -1.
<mgrwt>
<rscale>  4 0.31702258E+03</rscale>
<asrwt>0</asrwt>
<pdfrwt beam="1">  1       21 0.12664313E-01 0.31702258E+03</pdfrwt>
<pdfrwt beam="2">  1       21 0.19919926E+00 0.31702258E+03</pdfrwt>
<totfact> 0.66382265E+03</totfact>
</mgrwt>
</event>
<event>
 5    0  0.1324511E+000  0.2493796E+03  0.7546771E-02  0.1113698E+00
         21   -1    0    0  504  501  0.00000000000E+00  0.00000000000E+00  0.39296865584E+03  0.39296865584E+03  0.00000000000E+00 0.  1.
         21   -1    0    0  501  502 -0.00000000000E+00 -0.00000000000E+00 -0.26445401420E+03  0.26445401420E+03  0.00000000000E+00 0. -1.
         25    1    1    2    0    0  0.20397852924E+03  0.70412800708E+02 -0.15490972306E+03  0.29357660873E+03  0.12500000000E+03 0.  0.
         21    1    1    2  503  502 -0.14722238419E+03 -0.72010666729E+02  0.16524962290E+03  0.23273891896E+03  0.00000000000E+00 0.  1.
         21    1    1    2  504  503 -0.56756145041E+02  0.15978660215E+01  0.11817474180E+03  0.13110714235E+03  0.00000000000E+00 0.  1.
<mgrwt>
<rscale>  4 0.24937964E+03</rscale>
<asrwt>0</asrwt>
<pdfrwt beam="1">  1       21 0.60456716E-01 0.24937964E+03</pdfrwt>
<pdfrwt beam="2">  1       21 0.40685233E-01 0.24937964E+03</pdfrwt>
<totfact> 0.14354201E+04</totfact>
</mgrwt>
</event>
<event>
 5    0  0.1324511E+000  0.2918765E+03  0.7546771E-02  0.1089373E+00
         21   -1    0    0  504  501  0.00000000000E+00  0.00000000000E+00  0.31622620563E+03  0.31622620563E+03  0.00000000000E+00 0. -1.
         21   -1    0    0  501  502 -0.00000000000E+00 -0.00000000000E+00 -0.75401230320E+03  0.75401230320E+03  0.00000000000E+00 0. -1.
         25    1    1    2    0    0 -0.22058837310E+03 -0.79799196930E+02 -0.29178368450E+03  0.39470224311E+03  0.12500000000E+03 0.  0.
         21    1    1    2  503  502  0.25513778510E+02 -0.22190834582E+03  0.95188791197E+02  0.24280686318E+03  0.00000000000E+00 0. -1.
         21    1    1    2  504  503  0.19507459459E+03  0.30170754275E+03 -0.24119120428E+03  0.43272940254E+03  0.00000000000E+00 0. -1.
<mgrwt>
<rscale>  4 0.29187650E+03</rscale>
<asrwt>0</asrwt>
<pdfrwt beam="1">  1       21 0.48650185E-01 0.29187650E+03</pdfrwt>
<pdfrwt beam="2">  1       21 0.11600189E+00 0.29187650E+03</pdfrwt>
<totfact> 0.21496477E+03</totfact>
</mgrwt>
</event>
<event>
 5    0  0.1324511E+000  0.2386053E+03  0.7546771E-02  0.1120725E+00
         21   -1    0    0  504  501  0.00000000000E+00  0.00000000000E+00  0.77639547533E+03  0.77639547533E+03  0.00000000000E+00 0. -1.
         21   -1    0    0  501  502 -0.00000000000E+00 -0.00000000000E+00 -0.81228750115E+02  0.81228750115E+02  0.00000000000E+00 0. -1.
         25    1    1    2    0    0 -0.78726525570E+02 -0.19570449404E+03  0.21263419683E+03  0.32455572169E+03  0.12500000000E+03 0.  0.
         21    1    1    2  503  502 -0.47890552099E+01  0.22227259782E+02  0.12442000744E+03  0.12648052964E+03  0.00000000000E+00 0. -1.
         21    1    1    2  504  503  0.83515580780E+02  0.17347723426E+03  0.35811252094E+03  0.40658797411E+03  0.00000000000E+00 0. -1.
<mgrwt>
<rscale>  4 0.23860527E+03</rscale>
<asrwt>0</asrwt>
<pdfrwt beam="1">  1       21 0.11944545E+00 0.23860527E+03</pdfrwt>
<pdfrwt beam="2">  1       21 0.12496731E-01 0.23860527E+03</pdfrwt>
<totfact> 0.28415205E+04</totfact>
</mgrwt>
</event>
<event>
 5    0  0.1324511E+000  0.3107316E+03  0.7546771E-02  0.1079996E+00
         21   -1    0    0  504  501  0.00000000000E+00  0.00000000000E+00  0.30087713649E+04  0.30087713649E+04  0.00000000000E+00 0.  1.
         21   -1    0    0  501  502 -0.00000000000E+00 -0.00000000000E+00 -0.74985825865E+02  0.74985825865E+02  0.00000000000E+00 0.  1.
         25    1    1    2    0    0 -0.43536278462E+02  0.28112931285E+03  0.29260109582E+03  0.42681319024E+03  0.12500000000E+03 0.  0.
         21    1    1    2  503  502 -0.82513091047E+01 -0.21424843849E+02  0.28540858559E+03  0.28633052363E+03  0.00000000000E+00 0.  1.
         21    1    1    2  504  503  0.51787587567E+02 -0.25970446900E+03  0.23557758576E+04  0.23706134769E+04  0.00000000000E+00 0.  1.
<mgrwt>
<rscale>  4 0.31073155E+03</rscale>
<asrwt>0</asrwt>
<pdfrwt beam="1">  1       21 0.46288781E+00 0.31073155E+03</pdfrwt>
<pdfrwt beam="2">  1       21 0.11536283E-01 0.31073155E+03</pdfrwt>
<totfact> 0.18276475E+02</totfact>
</mgrwt>
</event>
<event>
 5    0  0.1324511E+000  0.2678167E+03  0.7546771E-02  0.1102536E+00
         21   -1    0    0  504  501  0.00000000000E+00  0.00000000000E+00  0.60042927967E+02  0.60042927967E+02  0.00000000000E+00 0. -1.
         21   -1    0    0  501  502 -0.00000000000E+00 -0.00000000000E+00 -0.11244061535E+04  0.11244061535E+04  0.00000000000E+00 0. -1.
         25    1    1    2    0    0 -0.17663805786E+03  0.15779658247E+03 -0.52465419865E+03  0.58905669768E+03  0.12500000000E+03 0.  0.
         21    1    1    2  503  502  0.47450476819E+02 -0.65546367768E+02 -0.27573655743E+03  0.28736479113E+03  0.00000000000E+00 0.  1.
         21    1    1    2  504  503  0.12918758104E+03 -0.92250214704E+02 -0.26397246946E+03  0.30802759266E+03  0.00000000000E+00 0. -1.
<mgrwt>
<rscale>  4 0.26781666E+03</rscale>
<asrwt>0</asrwt>
<pdfrwt beam="1">  1       21 0.92373750E-02 0.26781666E+03</pdfrwt>
<pdfrwt beam="2">  1       21 0.17298554E+00 0.26781666E+03</pdfrwt>
<totfact> 0.18101669E+04</totfact>
</mgrwt>
</event>
<event>
 5    0  0.1324511E+000  0.2404551E+03  0.7546771E-02  0.1119490E+00
         21   -1    0    0  504  501  0.00000000000E+00  0.00000000000E+00  0.14786230544E+03  0.14786230544E+03  0.00000000000E+00 0. -1.
         21   -1    0    0  501  502 -0.00000000000E+00 -0.00000000000E+00 -0.11576410919E+04  0.11576410919E+04  0.00000000000E+00 0. -1.
         25    1    1    2    0    0  0.20397782384E+03  0.33048128847E+02 -0.96104040540E+03  0.99092017451E+03  0.12500000000E+03 0.  0.
         21    1    1    2  503  502 -0.17904931616E+03 -0.10962083796E+03  0.17001545597E+02  0.21062867394E+03  0.00000000000E+00 0. -1.
         21    1    1    2  504  503 -0.24928507681E+02  0.76572709111E+02 -0.65739926638E+02  0.10395454887E+03  0.00000000000E+00 0.  1.
<mgrwt>
<rscale>  4 0.24045515E+03</rscale>
<asrwt>0</asrwt>
<pdfrwt beam="1">  1       21 0.22748047E-01 0.24045515E+03</pdfrwt>
<pdfrwt beam="2">  1       21 0.17809863E+00 0.24045515E+03</pdfrwt>
<totfact> 0.32608635E+03</totfact>
</mgrwt>
</event>
<event>
 5    0  0.1324511E+000  0.2815700E+03  0.7546771E-02  0.1094835E+00
         21   -1    0    0  504  501  0.00000000000E+00  0.00000000000E+00  0.13074504156E+03  0.13074504156E+03  0.00000000000E+00 0.  1.
         21   -1    0    0  501  502 -0.00000000000E+00 -0.00000000000E+00 -0.78846471291E+03  0.78846471291E+03  0.00000000000E+00 0. -1.
         25    1    1    2    0    0  0.17358999847E+03  0.18309330763E+03 -0.56043106577E+03  0.62718787165E+03  0.12500000000E+03 0.  0.
         21    1    1    2  503  502 -0.11378253807E+03 -0.18290649120E+03 -0.79708049581E+02  0.22968374706E+03  0.00000000000E+00 0.  1.
         21    1    1    2  504  503 -0.59807460406E+02 -0.18681642235E+00 -0.17580556002E+02  0.62338135759E+02  0.00000000000E+00 0. -1.
<mgrwt>
<rscale>  4 0.28156997E+03</rscale>
<asrwt>0</asrwt>
<pdfrwt beam="1">  1       21 0.20114622E-01 0.28156997E+03</pdfrwt>
<pdfrwt beam="2">  1       21 0.12130226E+00 0.28156997E+03</pdfrwt>
<totfact> 0.11129646E+04</totfact>
</mgrwt>
</event>
<event>
 5    0  0.1324511E+000  0.2429675E+03  0.7546771E-02  0.1117832E+00
         21   -1    0    0  504  501  0.00000000000E+00  0.00000000000E+00  0.14761422173E+04  0.14761422173E+04  0.00000000000E+00 0.  1.
         21   -1    0    0  501  502 -0.00000000000E+00 -0.00000000000E+00 -0.49644695835E+02  0.49644695835E+02  0.00000000000E+00 0. -1.
         25    1    1    2    0    0  0.12146988079E+03  0.16927273766E+03  0.34496624420E+03  0.42194182217E+03  0.12500000000E+03 0.  0.
         21    1    1    2  503  502 -0.50807216933E+01 -0.47039918584E+02  0.15478848402E+03  0.16185809359E+03  0.00000000000E+00 0.  1.
         21    1    1    2  504  503 -0.11638915910E+03 -0.12223281908E+03  0.92674279326E+03  0.94198699740E+03  0.00000000000E+00 0.  1.
<mgrwt>
<rscale>  4 0.24296747E+03</rscale>
<asrwt>0</asrwt>
<pdfrwt beam="1">  1       21 0.22709877E+00 0.24296747E+03</pdfrwt>
<pdfrwt beam="2">  1       21 0.76376467E-02 0.24296747E+03</pdfrwt>
<totfact> 0.11373383E+04</totfact>
</mgrwt>
</event>
<event>
 5    0  0.1324511E+000  0.2311772E+03  0.7546771E-02  0.1125814E+00
         21   -1    0    0  504  501  0.00000000000E+00  0.00000000000E+00  0.35247665527E+03  0.35247665527E+03  0.00000000000E+00 0. -1.
         21   -1    0    0  501  502 -0.00000000000E+00 -0.00000000000E+00 -0.27222753713E+03  0.27222753713E+03  0.00000000000E+00 0. -1.
         25    1    1    2    0    0  0.55319998193E+02 -0.20145813056E+03 -0.15844840896E+03  0.29047646870E+03  0.12500000000E+03 0.  0.
         21    1    1    2  503  502 -0.17668888883E+01  0.48830972444E+02  0.13122873384E+03  0.14003059077E+03  0.00000000000E+00 0. -1.
         21    1    1    2  504  503 -0.53553109304E+02  0.15262715812E+03  0.10746879326E+03  0.19419713293E+03  0.00000000000E+00 0. -1.
<mgrwt>
<rscale>  4 0.23117722E+03</rscale>
<asrwt>0</asrwt>
<pdfrwt beam="1">  1       21 0.54227178E-01 0.23117722E+03</pdfrwt>
<pdfrwt beam="2">  1       21 0.41881160E-01 0.23117722E+03</pdfrwt>
<totfact> 0.17243021E+04</totfact>
</mgrwt>
</event>
<event>
 5    0  0.1324511E+000  0.3026703E+03  0.7546771E-02  0.1083913E+00
         21   -1    0    0  504  501  0.00000000000E+00  0.00000000000E+00  0.33080598145E+03  0.33080598145E+03  0.00000000000E+00 0.  1.
         21   -1    0    0  501  502 -0.00000000000E+00 -0.00000000000E+00 -0.26196423001E+03  0.26196423001E+03  0.00000000000E+00 0.  1.
         25    1    1    2    0    0  0.21772498236E+03 -0.16905670617E+03  0.80328464223E+02  0.31314852708E+03  0.12500000000E+03 0.  0.
         21    1    1    2  503  502 -0.20164326305E+03  0.14663207237E+03  0.10239643944E+01  0.24932312104E+03  0.00000000000E+00 0.  1.
         21    1    1    2  504  503 -0.16081719315E+02  0.22424633799E+02 -0.12510677180E+02  0.30298563343E+02  0.00000000000E+00 0.  1.
<mgrwt>
<rscale>  4 0.30267035E+03</rscale>
<asrwt>0</asrwt>
<pdfrwt beam="1">  1       21 0.50893228E-01 0.30267035E+03</pdfrwt>
<pdfrwt beam="2">  1       21 0.40302189E-01 0.30267035E+03</pdfrwt>
<totfact> 0.20648584E+04</totfact>
</mgrwt>
</event>
<event>
 5    0  0.1324511E+000  0.2629468E+03  0.7546771E-02  0.1105386E+00
         21   -1    0    0  504  501  0.00000000000E+00  0.00000000000E+00  0.22696656683E+03  0.22696656683E+03  0.00000000000E+00 0. -1.
         21   -1    0    0  501  502 -0.00000000000E+00 -0.00000000000E+00 -0.30312362991E+03  0.30312362991E+03  0.00000000000E+00 0. -1.
         25    1    1    2    0    0 -0.51344212922E+02 -0.22751033511E+03 -0.67000874544E+02  0.27296757678E+03  0.12500000000E+03 0.  0.
         21    1    1    2  503  502  0.25517685476E+02  0.22919669394E+03 -0.35463001683E+01  0.23064009415E+03  0.00000000000E+00 0. -1.
         21    1    1    2  504  503  0.25826527446E+02 -0.16863588320E+01 -0.56098883657E+01  0.26482525814E+02  0.00000000000E+00 0.  1.
<mgrwt>
<rscale>  4 0.26294683E+03</rscale>
<asrwt>0</asrwt>
<pdfrwt beam="1">  1       21 0.34917933E-01 0.26294683E+03</pdfrwt>
<pdfrwt beam="2">  1       21 0.46634405E-01 0.26294683E+03</pdfrwt>
<totfact> 0.33669525E+04</totfact>
</mgrwt>
</event>
<event>
 5    0  0.1324511E+000  0.2457424E+03  0.7546771E-02  0.1116025E+00
         21   -1    0    0  504  501  0.00000000000E+00  0.00000000000E+00  0.10702815071E+03  0.10702815071E+03  0.00000000000E+00 0.  1.
         21   -1    0    0  501  502 -0.00000000000E+00 -0.00000000000E+00 -0.80844626445E+03  0.80844626445E+03  0.00000000000E+00 0.  1.
         25    1    1    2    0    0 -0.99099025599E+01 -0.21134356096E+03 -0.63465618215E+03  0.68057165418E+03  0.12500000000E+03 0.  0.
         21    1    1    2  503  502  0.33914053517E+02  0.18964584813E+03 -0.53606015717E+02  0.19997328737E+03  0.00000000000E+00 0.  1.
         21    1    1    2  504  503 -0.24004150957E+02  0.21697712824E+02 -0.13155915869E+02  0.34929473619E+02  0.00000000000E+00 0.  1.
<mgrwt>
<rscale>  4 0.24574236E+03</rscale>
<asrwt>0</asrwt>
<pdfrwt beam="1">  1       21 0.16465869E-01 0.24574236E+03</pdfrwt>
<pdfrwt beam="2">  1       21 0.12437635E+00 0.24574236E+03</pdfrwt>
<totfact> 0.15465261E+04</totfact>
</mgrwt>
</event>
<event>
 5    0  0.1324511E+000  0.2680828E+03  0.7546771E-02  0.1102382E+00
         21   -1    0    0  504  501  0.00000000000E+00  0.00000000000E+00  0.14525910961E+03  0.14525910961E+03  0.00000000000E+00 0. -1.
         21   -1    0    0  501  502 -0.00000000000E+00 -0.00000000000E+00 -0.48430169368E+03  0.48430169368E+03  0.00000000000E+00 0. -1.
         25    1    1    2    0    0  0.13963837080E+03 -0.19168857135E+03 -0.26787947942E+03  0.37898258334E+03  0.12500000000E+03 0.  0.
         21    1    1    2  503  502 -0.13002198952E+03  0.17292842869E+03 -0.53003499200E+02  0.22275396772E+03  0.00000000000E+00 0. -1.
         21    1    1    2  504  503 -0.96163812815E+01  0.18760142657E+02 -0.18159605457E+02  0.27824252224E+02  0.00000000000E+00 0.  1.
<mgrwt>
<rscale>  4 0.26808279E+03</rscale>
<asrwt>0</asrwt>
<pdfrwt beam="1">  1       21 0.22347555E-01 0.26808279E+03</pdfrwt>
<pdfrwt beam="2">  1       21 0.74507954E-01 0.26808279E+03</pdfrwt>
<totfact> 0.29137031E+04</totfact>
</mgrwt>
</event>
<event>
 5    0  0.1324511E+000  0.2624249E+03  0.7546771E-02  0.1105695E+00
         21   -1    0    0  504  501  0.00000000000E+00  0.00000000000E+00  0.47919970775E+03  0.47919970775E+03  0.00000000000E+00 0. -1.
         21   -1    0    0  501  502 -0.00000000000E+00 -0.00000000000E+00 -0.12872063249E+03  0.12872063249E+03  0.00000000000E+00 0. -1.
         25    1    1    2    0    0  0.18900514030E+03 -0.13235901258E+03  0.18481871755E+03  0.32097478036E+03  0.12500000000E+03 0.  0.
         21    1    1    2  503  502 -0.15951097605E+03  0.92686653911E+02  0.13713795862E+03  0.22987254509E+03  0.00000000000E+00 0. -1.
         21    1    1    2  504  503 -0.29494164256E+02  0.39672358667E+02  0.28522399093E+02  0.57073014791E+02  0.00000000000E+00 0.  1.
<mgrwt>
<rscale>  4 0.26242494E+03</rscale>
<asrwt>0</asrwt>
<pdfrwt beam="1">  1       21 0.73723031E-01 0.26242494E+03</pdfrwt>
<pdfrwt beam="2">  1       21 0.19803175E-01 0.26242494E+03</pdfrwt>
<totfact> 0.37589224E+04</totfact>
</mgrwt>
</event>
<event>
 5    0  0.1324511E+000  0.3033513E+03  0.7546771E-02  0.1083577E+00
         21   -1    0    0  504  501  0.00000000000E+00  0.00000000000E+00  0.16810680417E+03  0.16810680417E+03  0.00000000000E+00 0.  1.
         21   -1    0    0  501  502 -0.00000000000E+00 -0.00000000000E+00 -0.63868719717E+03  0.63868719717E+03  0.00000000000E+00 0.  1.
         25    1    1    2    0    0 -0.25291971410E+03 -0.11148384283E+03 -0.41471263483E+03  0.51381767047E+03  0.12500000000E+03 0.  0.
         21    1    1    2  503  502  0.66973003373E+02  0.12924915796E+02 -0.46044118466E+02  0.82295185002E+02  0.00000000000E+00 0.  1.
         21    1    1    2  504  503  0.18594671073E+03  0.98558927036E+02 -0.98236397036E+01  0.21068114587E+03  0.00000000000E+00 0.  1.
<mgrwt>
<rscale>  4 0.30335133E+03</rscale>
<asrwt>0</asrwt>
<pdfrwt beam="1">  1       21 0.25862585E-01 0.30335133E+03</pdfrwt>
<pdfrwt beam="2">  1       21 0.98259570E-01 0.30335133E+03</pdfrwt>
<totfact> 0.11419138E+04</totfact>
</mgrwt>
</event>
<event>
 5    0  0.1324511E+000  0.2589198E+03  0.7546771E-02  0.1107794E+00
         21   -1    0    0  504  501  0.00000000000E+00  0.00000000000E+00  0.17047132786E+03  0.17047132786E+03  0.00000000000E+00 0.  1.
         21   -1    0    0  501  502 -0.00000000000E+00 -0.00000000000E+00 -0.41764666511E+03  0.41764666511E+03  0.00000000000E+00 0.  1.
         25    1    1    2    0    0  0.17438679847E+03  0.14492658811E+03 -0.24534312657E+03  0.35669695987E+03  0.12500000000E+03 0.  0.
         21    1    1    2  503  502 -0.16337754726E+03 -0.11816800310E+03 -0.81765858386E+01  0.20179880193E+03  0.00000000000E+00 0.  1.
         21    1    1    2  504  503 -0.11009251212E+02 -0.26758585005E+02  0.63443751624E+01  0.29622231177E+02  0.00000000000E+00 0.  1.
<mgrwt>
<rscale>  4 0.25891982E+03</rscale>
<asrwt>0</asrwt>
<pdfrwt beam="1">  1       21 0.26226358E-01 0.25891982E+03</pdfrwt>
<pdfrwt beam="2">  1       21 0.64253333E-01 0.25891982E+03</pdfrwt>
<totfact> 0.29891815E+04</totfact>
</mgrwt>
</event>
<event>
 5    0  0.1324511E+000  0.3436823E+03  0.7546771E-02  0.1065238E+00
         21   -1    0    0  504  501  0.00000000000E+00  0.00000000000E+00  0.75763843615E+02  0.75763843615E+02  0.00000000000E+00 0.  1.
         21   -1    0    0  501  502 -0.00000000000E+00 -0.00000000000E+00 -0.14931586963E+04  0.14931586963E+04  0.00000000000E+00 0.  1.
         25    1    1    2    0    0 -0.25548410652E+03  0.19292589548E+03 -0.72507940772E+03  0.80240742602E+03  0.12500000000E+03 0.  0.
         21    1    1    2  503  502  0.24321793149E+03 -0.17513319888E+03 -0.58792219468E+03  0.65990840769E+03  0.00000000000E+00 0.  1.
         21    1    1    2  504  503  0.12266175031E+02 -0.17792696595E+02 -0.10439325029E+03  0.10660670621E+03  0.00000000000E+00 0. -1.
<mgrwt>
<rscale>  4 0.34368231E+03</rscale>
<asrwt>0</asrwt>
<pdfrwt beam="1">  1       21 0.11655977E-01 0.34368231E+03</pdfrwt>
<pdfrwt beam="2">  1       21 0.22971669E+00 0.34368231E+03</pdfrwt>
<totfact> 0.48556648E+03</totfact>
</mgrwt>
</event>
<event>
 5    0  0.1324511E+000  0.2559009E+03  0.7546771E-02  0.1109631E+00
         21   -1    0    0  504  501  0.00000000000E+00  0.00000000000E+00  0.14232404120E+03  0.14232404120E+03  0.00000000000E+00 0.  1.
         21   -1    0    0  501  502 -0.00000000000E+00 -0.00000000000E+00 -0.41104002083E+03  0.41104002083E+03  0.00000000000E+00 0.  1.
         25    1    1    2    0    0 -0.21068628512E+03  0.73969967343E+02 -0.14886915835E+03  0.29605285527E+03  0.12500000000E+03 0.  0.
         21    1    1    2  503  502  0.22809237581E+02 -0.59024799915E+01 -0.30181660336E+02  0.38288813115E+02  0.00000000000E+00 0.  1.
         21    1    1    2  504  503  0.18787704754E+03 -0.68067487351E+02 -0.89665160943E+02  0.21902239364E+03  0.00000000000E+00 0.  1.
<mgrwt>
<rscale>  4 0.25590089E+03</rscale>
<asrwt>0</asrwt>
<pdfrwt beam="1">  1       21 0.21896007E-01 0.25590089E+03</pdfrwt>
<pdfrwt beam="2">  1       21 0.63236926E-01 0.25590089E+03</pdfrwt>
<totfact> 0.43776512E+04</totfact>
</mgrwt>
</event>
<event>
 5    0  0.1324511E+000  0.2953593E+03  0.7546771E-02  0.1087584E+00
         21   -1    0    0  504  501  0.00000000000E+00  0.00000000000E+00  0.11235996396E+03  0.11235996396E+03  0.00000000000E+00 0.  1.
         21   -1    0    0  501  502 -0.00000000000E+00 -0.00000000000E+00 -0.73598967907E+03  0.73598967907E+03  0.00000000000E+00 0.  1.
         25    1    1    2    0    0 -0.29886916383E+02  0.26593019948E+03 -0.32111132794E+03  0.43629071008E+03  0.12500000000E+03 0.  0.
         21    1    1    2  503  502  0.33650681164E+02 -0.34073947606E+02 -0.52143915693E+02  0.70798235798E+02  0.00000000000E+00 0.  1.
         21    1    1    2  504  503 -0.37637647809E+01 -0.23185625188E+03 -0.25037447147E+03  0.34126069715E+03  0.00000000000E+00 0.  1.
<mgrwt>
<rscale>  4 0.29535927E+03</rscale>
<asrwt>0</asrwt>
<pdfrwt beam="1">  1       21 0.17286148E-01 0.29535927E+03</pdfrwt>
<pdfrwt beam="2">  1       21 0.11322918E+00 0.29535927E+03</pdfrwt>
<totfact> 0.17431486E+04</totfact>
</mgrwt>
</event>
<event>
 5    0  0.1324511E+000  0.2577649E+03  0.7546771E-02  0.1108494E+00
         21   -1    0    0  504  501  0.00000000000E+00  0.00000000000E+00  0.74186067330E+03  0.74186067330E+03  0.00000000000E+00 0.  1.
         21   -1    0    0  501  502 -0.00000000000E+00 -0.00000000000E+00 -0.29216620783E+03  0.29216620783E+03  0.00000000000E+00 0.  1.
         25    1    1    2    0    0  0.64020815721E+02 -0.21614600798E+03 -0.20720025809E+03  0.33071847328E+03  0.12500000000E+03 0.  0.
         21    1    1    2  503  502 -0.62404587765E+02  0.37985311196E+02  0.19651827464E+03  0.20965840958E+03  0.00000000000E+00 0.  1.
         21    1    1    2  504  503 -0.16162279563E+01  0.17816069679E+03  0.46037644892E+03  0.49364999827E+03  0.00000000000E+00 0.  1.
<mgrwt>
<rscale>  4 0.25776493E+03</rscale>
<asrwt>0</asrwt>
<pdfrwt beam="1">  1       21 0.11413241E+00 0.25776493E+03</pdfrwt>
<pdfrwt beam="2">  1       21 0.44948648E-01 0.25776493E+03</pdfrwt>
<totfact> 0.26965355E+03</totfact>
</mgrwt>
</event>
<event>
 5    0  0.1324511E+000  0.2639690E+03  0.7546771E-02  0.1104782E+00
         21   -1    0    0  504  501  0.00000000000E+00  0.00000000000E+00  0.33559597458E+03  0.33559597458E+03  0.00000000000E+00 0. -1.
         21   -1    0    0  501  502 -0.00000000000E+00 -0.00000000000E+00 -0.38184824219E+03  0.38184824219E+03  0.00000000000E+00 0. -1.
         25    1    1    2    0    0 -0.10729560172E+02 -0.23440037053E+03 -0.27010505507E+03  0.37899920572E+03  0.12500000000E+03 0.  0.
         21    1    1    2  503  502  0.22786489117E+02  0.11779272434E+02  0.52020088390E+01  0.26173197002E+02  0.00000000000E+00 0.  1.
         21    1    1    2  504  503 -0.12056928945E+02  0.22262109810E+03  0.21865077862E+03  0.31227181404E+03  0.00000000000E+00 0. -1.
<mgrwt>
<rscale>  4 0.26396903E+03</rscale>
<asrwt>0</asrwt>
<pdfrwt beam="1">  1       21 0.51630150E-01 0.26396903E+03</pdfrwt>
<pdfrwt beam="2">  1       21 0.58745883E-01 0.26396903E+03</pdfrwt>
<totfact> 0.92477757E+03</totfact>
</mgrwt>
</event>
<event>
 5    0  0.1324511E+000  0.2376821E+03  0.7546771E-02  0.1121347E+00
         21   -1    0    0  504  501  0.00000000000E+00  0.00000000000E+00  0.41114856353E+03  0.41114856353E+03  0.00000000000E+00 0. -1.
         21   -1    0    0  501  502 -0.00000000000E+00 -0.00000000000E+00 -0.31895337963E+03  0.31895337963E+03  0.00000000000E+00 0. -1.
         25    1    1    2    0    0 -0.52679905711E+02 -0.19517329975E+03  0.33318847659E+03  0.40927661835E+03  0.12500000000E+03 0.  0.
         21    1    1    2  503  502  0.25478921206E+02  0.83868183564E+02 -0.58631927122E+02  0.10545496915E+03  0.00000000000E+00 0.  1.
         21    1    1    2  504  503  0.27200984504E+02  0.11130511618E+03 -0.18236136557E+03  0.21537035566E+03  0.00000000000E+00 0. -1.
<mgrwt>
<rscale>  4 0.23768212E+03</rscale>
<asrwt>0</asrwt>
<pdfrwt beam="1">  1       21 0.63253625E-01 0.23768212E+03</pdfrwt>
<pdfrwt beam="2">  1       21 0.49069751E-01 0.23768212E+03</pdfrwt>
<totfact> 0.88958581E+03</totfact>
</mgrwt>
</event>
<event>
 5    0  0.1324511E+000  0.2890308E+03  0.7546771E-02  0.1090856E+00
         21   -1    0    0  504  501  0.00000000000E+00  0.00000000000E+00  0.44936793199E+03  0.44936793199E+03  0.00000000000E+00 0. -1.
         21   -1    0    0  501  502 -0.00000000000E+00 -0.00000000000E+00 -0.29835881849E+03  0.29835881849E+03  0.00000000000E+00 0.  1.
         25    1    1    2    0    0  0.23043560548E+03  0.12170956399E+03 -0.15838768046E+03  0.32958374287E+03  0.12500000000E+03 0.  0.
         21    1    1    2  503  502 -0.12549286657E+03 -0.47666429982E+02  0.82926067711E+02  0.15778872207E+03  0.00000000000E+00 0. -1.
         21    1    1    2  504  503 -0.10494273891E+03 -0.74043134011E+02  0.22647072626E+03  0.26035428553E+03  0.00000000000E+00 0. -1.
<mgrwt>
<rscale>  4 0.28903077E+03</rscale>
<asrwt>0</asrwt>
<pdfrwt beam="1">  1       21 0.69133528E-01 0.28903077E+03</pdfrwt>
<pdfrwt beam="2">  1       21 0.45901357E-01 0.28903077E+03</pdfrwt>
<totfact> 0.81798546E+03</totfact>
</mgrwt>
</event>
<event>
 5    0  0.1324511E+000  0.3624411E+03  0.7546771E-02  0.1057621E+00
         21   -1    0    0  504  501  0.00000000000E+00  0.00000000000E+00  0.15433077140E+04  0.15433077140E+04  0.00000000000E+00 0.  1.
         21   -1    0    0  501  502 -0.00000000000E+00 -0.00000000000E+00 -0.80644750665E+02  0.80644750665E+02  0.00000000000E+00 0.  1.
         25    1    1    2    0    0 -0.15127530199E+03  0.30472012614E+03  0.73479151278E+03  0.81931809422E+03  0.12500000000E+03 0.  0.
         21    1    1    2  503  502  0.18052372396E+02 -0.12963833942E+02  0.49737865087E+02  0.54477558343E+02  0.00000000000E+00 0. -1.
         21    1    1    2  504  503  0.13322292960E+03 -0.29175629219E+03  0.67813358549E+03  0.75015681212E+03  0.00000000000E+00 0.  1.
<mgrwt>
<rscale>  4 0.36244113E+03</rscale>
<asrwt>0</asrwt>
<pdfrwt beam="1">  1       21 0.23743193E+00 0.36244113E+03</pdfrwt>
<pdfrwt beam="2">  1       21 0.12406886E-01 0.36244113E+03</pdfrwt>
<totfact> 0.38451774E+03</totfact>
</mgrwt>
</event>
<event>
 5    0  0.1324511E+000  0.2543719E+03  0.7546771E-02  0.1110573E+00
         21   -1    0    0  504  501  0.00000000000E+00  0.00000000000E+00  0.11329783561E+03  0.11329783561E+03  0.00000000000E+00 0. -1.
         21   -1    0    0  501  502 -0.00000000000E+00 -0.00000000000E+00 -0.11559996590E+04  0.11559996590E+04  0.00000000000E+00 0.  1.
         25    1    1    2    0    0 -0.62523403874E+02  0.21253439298E+03 -0.10090753995E+04  0.10406431695E+04  0.12500000000E+03 0.  0.
         21    1    1    2  503  502  0.65435612191E+02 -0.16668934596E+03 -0.35998998864E+02  0.18265564683E+03  0.00000000000E+00 0. -1.
         21    1    1    2  504  503 -0.29122083170E+01 -0.45845047026E+02  0.23725749979E+01  0.45998678309E+02  0.00000000000E+00 0. -1.
<mgrwt>
<rscale>  4 0.25437186E+03</rscale>
<asrwt>0</asrwt>
<pdfrwt beam="1">  1       21 0.17430436E-01 0.25437186E+03</pdfrwt>
<pdfrwt beam="2">  1       21 0.17784611E+00 0.25437186E+03</pdfrwt>
<totfact> 0.53446254E+03</totfact>
</mgrwt>
</event>
<event>
 5    0  0.1324511E+000  0.2284367E+03  0.7546771E-02  0.1127745E+00
         21   -1    0    0  504  501  0.00000000000E+00  0.00000000000E+00  0.97414055257E+02  0.97414055257E+02  0.00000000000E+00 0.  1.
         21   -1    0    0  501  502 -0.00000000000E+00 -0.00000000000E+00 -0.66857416011E+03  0.66857416011E+03  0.00000000000E+00 0.  1.
         25    1    1    2    0    0  0.22196132340E+03  0.15670600250E+02 -0.33797998941E+03  0.42351844120E+03  0.12500000000E+03 0.  0.
         21    1    1    2  503  502 -0.44535389829E+02 -0.35957272113E+02 -0.11461265145E+03  0.12811083575E+03  0.00000000000E+00 0. -1.
         21    1    1    2  504  503 -0.17742593357E+03  0.20286671863E+02 -0.11856746399E+03  0.21435893841E+03  0.00000000000E+00 0.  1.
<mgrwt>
<rscale>  4 0.22843674E+03</rscale>
<asrwt>0</asrwt>
<pdfrwt beam="1">  1       21 0.14986778E-01 0.22843674E+03</pdfrwt>
<pdfrwt beam="2">  1       21 0.10285756E+00 0.22843674E+03</pdfrwt>
<totfact> 0.29572290E+04</totfact>
</mgrwt>
</event>
<event>
 5    0  0.1324511E+000  0.3583413E+03  0.7546771E-02  0.1059243E+00
         21   -1    0    0  504  501  0.00000000000E+00  0.00000000000E+00  0.51744695443E+02  0.51744695443E+02  0.00000000000E+00 0. -1.
         21   -1    0    0  501  502 -0.00000000000E+00 -0.00000000000E+00 -0.25134829195E+04  0.25134829195E+04  0.00000000000E+00 0. -1.
         25    1    1    2    0    0  0.80217676998E+02  0.32611139035E+03 -0.13799012207E+04  0.14256703313E+04  0.12500000000E+03 0.  0.
         21    1    1    2  503  502 -0.46785180650E+02 -0.10935118112E+03 -0.21825118918E+03  0.24855606111E+03  0.00000000000E+00 0. -1.
         21    1    1    2  504  503 -0.33432496348E+02 -0.21676020923E+03 -0.86358581416E+03  0.89100122252E+03  0.00000000000E+00 0. -1.
<mgrwt>
<rscale>  4 0.35834134E+03</rscale>
<asrwt>0</asrwt>
<pdfrwt beam="1">  1       21 0.79607205E-02 0.35834134E+03</pdfrwt>
<pdfrwt beam="2">  1       21 0.38668977E+00 0.35834134E+03</pdfrwt>
<totfact> 0.10676227E+03</totfact>
</mgrwt>
</event>
<event>
 5    0  0.1324511E+000  0.2481336E+03  0.7546771E-02  0.1114490E+00
         21   -1    0    0  504  501  0.00000000000E+00  0.00000000000E+00  0.33966083224E+03  0.33966083224E+03  0.00000000000E+00 0.  1.
         21   -1    0    0  501  502 -0.00000000000E+00 -0.00000000000E+00 -0.10592211509E+04  0.10592211509E+04  0.00000000000E+00 0.  1.
         25    1    1    2    0    0 -0.83490962059E+02  0.19907328618E+03 -0.98856091141E+03  0.10195482282E+04  0.12500000000E+03 0.  0.
         21    1    1    2  503  502  0.29529185018E+02 -0.22560964901E+02 -0.15450562814E+02  0.40245369874E+02  0.00000000000E+00 0.  1.
         21    1    1    2  504  503  0.53961777041E+02 -0.17651232128E+03  0.28445115561E+03  0.33908838505E+03  0.00000000000E+00 0.  1.
<mgrwt>
<rscale>  4 0.24813364E+03</rscale>
<asrwt>0</asrwt>
<pdfrwt beam="1">  1       21 0.52255513E-01 0.24813364E+03</pdfrwt>
<pdfrwt beam="2">  1       21 0.16295710E+00 0.24813364E+03</pdfrwt>
<totfact> 0.78823208E+02</totfact>
</mgrwt>
</event>
<event>
 5    0  0.1324511E+000  0.2619210E+03  0.7546771E-02  0.1105995E+00
         21   -1    0    0  504  501  0.00000000000E+00  0.00000000000E+00  0.19666781177E+03  0.19666781177E+03  0.00000000000E+00 0. -1.
         21   -1    0    0  501  502 -0.00000000000E+00 -0.00000000000E+00 -0.31470139773E+03  0.31470139773E+03  0.00000000000E+00 0. -1.
         25    1    1    2    0    0  0.74442136252E+02 -0.21779796959E+03 -0.67445781288E+02  0.27046537786E+03  0.12500000000E+03 0.  0.
         21    1    1    2  503  502 -0.66155198032E+02  0.18834646346E+03 -0.25325324445E+02  0.20122691814E+03  0.00000000000E+00 0. -1.
         21    1    1    2  504  503 -0.82869382203E+01  0.29451506128E+02 -0.25262480227E+02  0.39676913507E+02  0.00000000000E+00 0. -1.
<mgrwt>
<rscale>  4 0.26192096E+03</rscale>
<asrwt>0</asrwt>
<pdfrwt beam="1">  1       21 0.30256587E-01 0.26192096E+03</pdfrwt>
<pdfrwt beam="2">  1       21 0.48415599E-01 0.26192096E+03</pdfrwt>
<totfact> 0.41381073E+04</totfact>
</mgrwt>
</event>
<event>
 5    0  0.1324511E+000  0.5984074E+03  0.7546771E-02  0.9908716E-01
         21   -1    0    0  504  501  0.00000000000E+00  0.00000000000E+00  0.88383323857E+03  0.88383323857E+03  0.00000000000E+00 0. -1.
         21   -1    0    0  501  502 -0.00000000000E+00 -0.00000000000E+00 -0.18094111885E+04  0.18094111885E+04  0.00000000000E+00 0. -1.
         25    1    1    2    0    0 -0.52866710013E+03  0.25095315024E+03 -0.16497611296E+04  0.17549367997E+04  0.12500000000E+03 0.  0.
         21    1    1    2  503  502  0.43588679080E+03 -0.20227084868E+03  0.51511163639E+03  0.70445069988E+03  0.00000000000E+00 0. -1.
         21    1    1    2  504  503  0.92780309326E+02 -0.48682301561E+02  0.20907154330E+03  0.23385692742E+03  0.00000000000E+00 0.  1.
<mgrwt>
<rscale>  4 0.59840737E+03</rscale>
<asrwt>0</asrwt>
<pdfrwt beam="1">  1       21 0.13597434E+00 0.59840737E+03</pdfrwt>
<pdfrwt beam="2">  1       21 0.27837095E+00 0.59840737E+03</pdfrwt>
<totfact> 0.11841932E+01</totfact>
</mgrwt>
</event>
<event>
 5    0  0.1324511E+000  0.3744836E+03  0.7546771E-02  0.1052992E+00
         21   -1    0    0  504  501  0.00000000000E+00  0.00000000000E+00  0.27350009868E+03  0.27350009868E+03  0.00000000000E+00 0.  1.
         21   -1    0    0  501  502 -0.00000000000E+00 -0.00000000000E+00 -0.56910833607E+03  0.56910833607E+03  0.00000000000E+00 0.  1.
         25    1    1    2    0    0 -0.34980020503E+03  0.47463396033E+02 -0.29470342766E+03  0.47653758265E+03  0.12500000000E+03 0.  0.
         21    1    1    2  503  502  0.17888173436E+03 -0.49092258990E+02 -0.42181214335E+02  0.19023138443E+03  0.00000000000E+00 0.  1.
         21    1    1    2  504  503  0.17091847068E+03  0.16288629565E+01  0.41276404608E+02  0.17583946767E+03  0.00000000000E+00 0.  1.
<mgrwt>
<rscale>  4 0.37448359E+03</rscale>
<asrwt>0</asrwt>
<pdfrwt beam="1">  1       21 0.42076939E-01 0.37448359E+03</pdfrwt>
<pdfrwt beam="2">  1       21 0.87555128E-01 0.37448359E+03</pdfrwt>
<totfact> 0.55055359E+03</totfact>
</mgrwt>
</event>
<event>
 5    0  0.1324511E+000  0.6352744E+03  0.7546771E-02  0.9847628E-01
         21   -1    0    0  504  501  0.00000000000E+00  0.00000000000E+00  0.30909959076E+03  0.30909959076E+03  0.00000000000E+00 0. -1.
         21   -1    0    0  501  502 -0.00000000000E+00 -0.00000000000E+00 -0.24385504341E+04  0.24385504341E+04  0.00000000000E+00 0. -1.
         25    1    1    2    0    0 -0.79603011152E+02  0.59100773606E+03 -0.20111915035E+04  0.21014621213E+04  0.12500000000E+03 0.  0.
         21    1    1    2  503  502 -0.31166366076E+02 -0.17813744166E+03 -0.12296871188E+03  0.21869063674E+03  0.00000000000E+00 0. -1.
         21    1    1    2  504  503  0.11076937723E+03 -0.41287029440E+03  0.47093720714E+01  0.42749726679E+03  0.00000000000E+00 0. -1.
<mgrwt>
<rscale>  4 0.62867990E+03</rscale>
<asrwt>0</asrwt>
<pdfrwt beam="1">  1       21 0.47553784E-01 0.63527438E+03</pdfrwt>
<pdfrwt beam="2">  1       21 0.37516160E+00 0.63527438E+03</pdfrwt>
<totfact> 0.34748014E+01</totfact>
</mgrwt>
</event>
<event>
 5    0  0.1324511E+000  0.2907197E+03  0.7546771E-02  0.1089974E+00
         21   -1    0    0  504  501  0.00000000000E+00  0.00000000000E+00  0.21569743479E+04  0.21569743479E+04  0.00000000000E+00 0. -1.
         21   -1    0    0  501  502 -0.00000000000E+00 -0.00000000000E+00 -0.40231965935E+03  0.40231965935E+03  0.00000000000E+00 0.  1.
         25    1    1    2    0    0  0.13663393370E+03  0.22374109967E+03 -0.33716612421E+03  0.44501113114E+03  0.12500000000E+03 0.  0.
         21    1    1    2  503  502 -0.16150310865E+02  0.23644352520E+02  0.12078424246E+03  0.12413187010E+03  0.00000000000E+00 0. -1.
         21    1    1    2  504  503 -0.12048362284E+03 -0.24738545219E+03  0.19710365703E+04  0.19901510061E+04  0.00000000000E+00 0. -1.
<mgrwt>
<rscale>  4 0.29071969E+03</rscale>
<asrwt>0</asrwt>
<pdfrwt beam="1">  1       21 0.33184220E+00 0.29071969E+03</pdfrwt>
<pdfrwt beam="2">  1       21 0.61895334E-01 0.29071969E+03</pdfrwt>
<totfact> 0.46985439E+01</totfact>
</mgrwt>
</event>
<event>
 5    0  0.1324511E+000  0.2565367E+03  0.7546771E-02  0.1109242E+00
         21   -1    0    0  504  501  0.00000000000E+00  0.00000000000E+00  0.12062589155E+03  0.12062589155E+03  0.00000000000E+00 0.  1.
         21   -1    0    0  501  502 -0.00000000000E+00 -0.00000000000E+00 -0.53127921247E+03  0.53127921247E+03  0.00000000000E+00 0.  1.
         25    1    1    2    0    0 -0.95336821462E+02 -0.20272382098E+03 -0.29269552381E+03  0.38920653486E+03  0.12500000000E+03 0.  0.
         21    1    1    2  503  502 -0.99315852643E+01  0.22283465145E+02 -0.21842414056E+02  0.32745690656E+02  0.00000000000E+00 0.  1.
         21    1    1    2  504  503  0.10526840673E+03  0.18044035584E+03 -0.96115383054E+02  0.22995287850E+03  0.00000000000E+00 0.  1.
<mgrwt>
<rscale>  4 0.25653666E+03</rscale>
<asrwt>0</asrwt>
<pdfrwt beam="1">  1       21 0.18557830E-01 0.25653666E+03</pdfrwt>
<pdfrwt beam="2">  1       21 0.81735262E-01 0.25653666E+03</pdfrwt>
<totfact> 0.33688293E+04</totfact>
</mgrwt>
</event>
<event>
 5    0  0.1324511E+000  0.2539199E+03  0.7546771E-02  0.1110852E+00
         21   -1    0    0  504  501  0.00000000000E+00  0.00000000000E+00  0.84005235369E+03  0.84005235369E+03  0.00000000000E+00 0.  1.
         21   -1    0    0  501  502 -0.00000000000E+00 -0.00000000000E+00 -0.16657388364E+03  0.16657388364E+03  0.00000000000E+00 0.  1.
         25    1    1    2    0    0 -0.22092957910E+03  0.63603771484E+01 -0.39041357383E+02  0.25690379699E+03  0.12500000000E+03 0.  0.
         21    1    1    2  503  502  0.12025600989E+03 -0.33205557730E+02  0.45837296123E+03  0.47504724877E+03  0.00000000000E+00 0.  1.
         21    1    1    2  504  503  0.10067356922E+03  0.26845180581E+02  0.25414686620E+03  0.27467519156E+03  0.00000000000E+00 0.  1.
<mgrwt>
<rscale>  4 0.25391993E+03</rscale>
<asrwt>0</asrwt>
<pdfrwt beam="1">  1       21 0.12923882E+00 0.25391993E+03</pdfrwt>
<pdfrwt beam="2">  1       21 0.25626752E-01 0.25391993E+03</pdfrwt>
<totfact> 0.60686713E+03</totfact>
</mgrwt>
</event>
<event>
 5    0  0.1324511E+000  0.4903418E+03  0.7546771E-02  0.1016331E+00
         21   -1    0    0  504  501  0.00000000000E+00  0.00000000000E+00  0.31315139067E+03  0.31315139067E+03  0.00000000000E+00 0. -1.
         21   -1    0    0  501  502 -0.00000000000E+00 -0.00000000000E+00 -0.15064014986E+04  0.15064014986E+04  0.00000000000E+00 0. -1.
         25    1    1    2    0    0 -0.46002150772E+03 -0.14882958150E+03 -0.78450215103E+03  0.92996701923E+03  0.12500000000E+03 0.  0.
         21    1    1    2  503  502  0.13349453553E+03 -0.23703019669E+03 -0.22055398185E+03  0.35021159899E+03  0.00000000000E+00 0. -1.
         21    1    1    2  504  503  0.32652697219E+03  0.38585977819E+03 -0.18819397501E+03  0.53937427101E+03  0.00000000000E+00 0. -1.
<mgrwt>
<rscale>  4 0.49034178E+03</rscale>
<asrwt>0</asrwt>
<pdfrwt beam="1">  1       21 0.48177136E-01 0.49034178E+03</pdfrwt>
<pdfrwt beam="2">  1       21 0.23175408E+00 0.49034178E+03</pdfrwt>
<totfact> 0.27743865E+02</totfact>
</mgrwt>
</event>
<event>
 5    0  0.1324511E+000  0.3145099E+03  0.7546771E-02  0.1078204E+00
         21   -1    0    0  504  501  0.00000000000E+00  0.00000000000E+00  0.32599902893E+04  0.32599902893E+04  0.00000000000E+00 0.  1.
         21   -1    0    0  501  502 -0.00000000000E+00 -0.00000000000E+00 -0.43692460113E+02  0.43692460113E+02  0.00000000000E+00 0. -1.
         25    1    1    2    0    0  0.26953180693E+03 -0.10317009835E+03  0.66364852036E+03  0.73440167669E+03  0.12500000000E+03 0.  0.
         21    1    1    2  503  502 -0.23908237829E+03  0.78368009058E+02  0.21288682814E+04  0.21436842324E+04  0.00000000000E+00 0.  1.
         21    1    1    2  504  503 -0.30449428643E+02  0.24802089291E+02  0.42378102742E+03  0.42559684038E+03  0.00000000000E+00 0. -1.
<mgrwt>
<rscale>  4 0.31450988E+03</rscale>
<asrwt>0</asrwt>
<pdfrwt beam="1">  1       21 0.50153677E+00 0.31450988E+03</pdfrwt>
<pdfrwt beam="2">  1       21 0.67219195E-02 0.31450988E+03</pdfrwt>
<totfact> 0.25494230E+02</totfact>
</mgrwt>
</event>
<event>
 5    0  0.1324511E+000  0.2700167E+03  0.7546771E-02  0.1101270E+00
         21   -1    0    0  504  501  0.00000000000E+00  0.00000000000E+00  0.41375681842E+03  0.41375681842E+03  0.00000000000E+00 0.  1.
         21   -1    0    0  501  502 -0.00000000000E+00 -0.00000000000E+00 -0.17139356742E+03  0.17139356742E+03  0.00000000000E+00 0.  1.
         25    1    1    2    0    0  0.53478568220E+01 -0.23928102784E+03  0.53505766186E+02  0.27526691932E+03  0.12500000000E+03 0.  0.
         21    1    1    2  503  502  0.22673773475E+02  0.14330140069E+03  0.12247465854E+03  0.18986688344E+03  0.00000000000E+00 0.  1.
         21    1    1    2  504  503 -0.28021630297E+02  0.95979627148E+02  0.66382826264E+02  0.12001658308E+03  0.00000000000E+00 0.  1.
<mgrwt>
<rscale>  4 0.27001668E+03</rscale>
<asrwt>0</asrwt>
<pdfrwt beam="1">  1       21 0.63654895E-01 0.27001668E+03</pdfrwt>
<pdfrwt beam="2">  1       21 0.26368241E-01 0.27001668E+03</pdfrwt>
<totfact> 0.30052828E+04</totfact>
</mgrwt>
</event>
<event>
 5    0  0.1324511E+000  0.2343850E+03  0.7546771E-02  0.1123591E+00
         21   -1    0    0  504  501  0.00000000000E+00  0.00000000000E+00  0.14004716956E+04  0.14004716956E+04  0.00000000000E+00 0.  1.
         21   -1    0    0  501  502 -0.00000000000E+00 -0.00000000000E+00 -0.77814602739E+02  0.77814602739E+02  0.00000000000E+00 0. -1.
         25    1    1    2    0    0 -0.19236464719E+03 -0.98617934715E+02  0.22557811247E+03  0.33651172247E+03  0.12500000000E+03 0.  0.
         21    1    1    2  503  502  0.18388593881E+03 -0.29177020779E+02  0.58453286960E+03  0.61346883595E+03  0.00000000000E+00 0.  1.
         21    1    1    2  504  503  0.84787083730E+01  0.12779495549E+03  0.51254611074E+03  0.52830573988E+03  0.00000000000E+00 0.  1.
<mgrwt>
<rscale>  4 0.23438499E+03</rscale>
<asrwt>0</asrwt>
<pdfrwt beam="1">  1       21 0.21545717E+00 0.23438499E+03</pdfrwt>
<pdfrwt beam="2">  1       21 0.11971478E-01 0.23438499E+03</pdfrwt>
<totfact> 0.60983868E+03</totfact>
</mgrwt>
</event>
<event>
 5    0  0.1324511E+000  0.2410631E+03  0.7546771E-02  0.1119087E+00
         21   -1    0    0  504  501  0.00000000000E+00  0.00000000000E+00  0.16392585996E+04  0.16392585996E+04  0.00000000000E+00 0. -1.
         21   -1    0    0  501  502 -0.00000000000E+00 -0.00000000000E+00 -0.32678555989E+02  0.32678555989E+02  0.00000000000E+00 0. -1.
         25    1    1    2    0    0  0.18628677095E+03 -0.88224916103E+02  0.79308821486E+03  0.82891514247E+03  0.12500000000E+03 0.  0.
         21    1    1    2  503  502 -0.14414780417E+03  0.56583473472E+02  0.71221988719E+03  0.72886037527E+03  0.00000000000E+00 0. -1.
         21    1    1    2  504  503 -0.42138966779E+02  0.31641442631E+02  0.10127194157E+03  0.11416163787E+03  0.00000000000E+00 0. -1.
<mgrwt>
<rscale>  4 0.24106306E+03</rscale>
<asrwt>0</asrwt>
<pdfrwt beam="1">  1       21 0.25219357E+00 0.24106306E+03</pdfrwt>
<pdfrwt beam="2">  1       21 0.50274714E-02 0.24106306E+03</pdfrwt>
<totfact> 0.16530389E+04</totfact>
</mgrwt>
</event>
<event>
 5    0  0.1324511E+000  0.3441748E+03  0.7546771E-02  0.1065032E+00
         21   -1    0    0  504  501  0.00000000000E+00  0.00000000000E+00  0.38630343565E+03  0.38630343565E+03  0.00000000000E+00 0. -1.
         21   -1    0    0  501  502 -0.00000000000E+00 -0.00000000000E+00 -0.44827866241E+03  0.44827866241E+03  0.00000000000E+00 0. -1.
         25    1    1    2    0    0  0.12016191936E+03 -0.30242784302E+03 -0.26078433910E+03  0.43535612850E+03  0.12500000000E+03 0.  0.
         21    1    1    2  503  502  0.23371569457E+02  0.30632538338E+02  0.17001207116E+02  0.42114412109E+02  0.00000000000E+00 0.  1.
         21    1    1    2  504  503 -0.14353348881E+03  0.27179530468E+03  0.18180790523E+03  0.35711155745E+03  0.00000000000E+00 0. -1.
<mgrwt>
<rscale>  4 0.34417476E+03</rscale>
<asrwt>0</asrwt>
<pdfrwt beam="1">  1       21 0.59431297E-01 0.34417476E+03</pdfrwt>
<pdfrwt beam="2">  1       21 0.68965949E-01 0.34417476E+03</pdfrwt>
<totfact> 0.46295655E+03</totfact>
</mgrwt>
</event>
<event>
 5    0  0.1324511E+000  0.2698014E+03  0.7546771E-02  0.1101393E+00
         21   -1    0    0  504  501  0.00000000000E+00  0.00000000000E+00  0.32665364308E+03  0.32665364308E+03  0.00000000000E+00 0. -1.
         21   -1    0    0  501  502 -0.00000000000E+00 -0.00000000000E+00 -0.22015470056E+03  0.22015470056E+03  0.00000000000E+00 0. -1.
         25    1    1    2    0    0 -0.59725795081E+02 -0.23151812570E+03 -0.82658852728E+01  0.26992802371E+03  0.12500000000E+03 0.  0.
         21    1    1    2  503  502  0.36675781462E+02  0.20652277677E+03  0.70967829878E+02  0.22143442178E+03  0.00000000000E+00 0. -1.
         21    1    1    2  504  503  0.23050013619E+02  0.24995348936E+02  0.43796997908E+02  0.55445898153E+02  0.00000000000E+00 0. -1.
<mgrwt>
<rscale>  4 0.26980143E+03</rscale>
<asrwt>0</asrwt>
<pdfrwt beam="1">  1       21 0.50254406E-01 0.26980143E+03</pdfrwt>
<pdfrwt beam="2">  1       21 0.33869954E-01 0.26980143E+03</pdfrwt>
<totfact> 0.30515140E+04</totfact>
</mgrwt>
</event>
<event>
 5    0  0.1324511E+000  0.2546820E+03  0.7546771E-02  0.1110381E+00
         21   -1    0    0  504  501  0.00000000000E+00  0.00000000000E+00  0.37105011327E+02  0.37105011327E+02  0.00000000000E+00 0.  1.
         21   -1    0    0  501  502 -0.00000000000E+00 -0.00000000000E+00 -0.17237677828E+04  0.17237677828E+04  0.00000000000E+00 0.  1.
         25    1    1    2    0    0 -0.21102139278E+03 -0.68614070628E+02 -0.11723148803E+04  0.11996604092E+04  0.12500000000E+03 0.  0.
         21    1    1    2  503  502  0.26757880119E+02  0.14630253045E+02 -0.47815668460E+02  0.56713019695E+02  0.00000000000E+00 0.  1.
         21    1    1    2  504  503  0.18426351266E+03  0.53983817583E+02 -0.46653222268E+03  0.50449936517E+03  0.00000000000E+00 0.  1.
<mgrwt>
<rscale>  4 0.25468200E+03</rscale>
<asrwt>0</asrwt>
<pdfrwt beam="1">  1       21 0.57084629E-02 0.25468200E+03</pdfrwt>
<pdfrwt beam="2">  1       21 0.26519506E+00 0.25468200E+03</pdfrwt>
<totfact> 0.11031199E+04</totfact>
</mgrwt>
</event>
<event>
 5    0  0.1324511E+000  0.2516603E+03  0.7546771E-02  0.1112260E+00
         21   -1    0    0  504  501  0.00000000000E+00  0.00000000000E+00  0.31236029372E+03  0.31236029372E+03  0.00000000000E+00 0.  1.
         21   -1    0    0  501  502 -0.00000000000E+00 -0.00000000000E+00 -0.72098450550E+03  0.72098450550E+03  0.00000000000E+00 0.  1.
         25    1    1    2    0    0 -0.87619248256E+02 -0.20007690461E+03 -0.65340473648E+03  0.70019329480E+03  0.12500000000E+03 0.  0.
         21    1    1    2  503  502  0.63348731272E+01  0.40424838049E+02  0.79453778286E+02  0.89371142058E+02  0.00000000000E+00 0.  1.
         21    1    1    2  504  503  0.81284375129E+02  0.15965206656E+03  0.16532674641E+03  0.24378036237E+03  0.00000000000E+00 0.  1.
<mgrwt>
<rscale>  4 0.25166029E+03</rscale>
<asrwt>0</asrwt>
<pdfrwt beam="1">  1       21 0.48055430E-01 0.25166029E+03</pdfrwt>
<pdfrwt beam="2">  1       21 0.11092069E+00 0.25166029E+03</pdfrwt>
<totfact> 0.25275018E+03</totfact>
</mgrwt>
</event>
<event>
 5    0  0.1324511E+000  0.2409292E+03  0.7546771E-02  0.1119175E+00
         21   -1    0    0  504  501  0.00000000000E+00  0.00000000000E+00  0.77974644125E+02  0.77974644125E+02  0.00000000000E+00 0. -1.
         21   -1    0    0  501  502 -0.00000000000E+00 -0.00000000000E+00 -0.68941295413E+03  0.68941295413E+03  0.00000000000E+00 0.  1.
         25    1    1    2    0    0  0.19624918930E+03 -0.62515254625E+02 -0.42127972073E+03  0.48530763899E+03  0.12500000000E+03 0.  0.
         21    1    1    2  503  502 -0.29399127527E+02 -0.11635438951E+01 -0.21519531939E+02  0.36452061514E+02  0.00000000000E+00 0.  1.
         21    1    1    2  504  503 -0.16685006177E+03  0.63678798520E+02 -0.16863905734E+03  0.24562789775E+03  0.00000000000E+00 0. -1.
<mgrwt>
<rscale>  4 0.24092925E+03</rscale>
<asrwt>0</asrwt>
<pdfrwt beam="1">  1       21 0.11996099E-01 0.24092925E+03</pdfrwt>
<pdfrwt beam="2">  1       21 0.10606353E+00 0.24092925E+03</pdfrwt>
<totfact> 0.40867179E+04</totfact>
</mgrwt>
</event>
<event>
 5    0  0.1324511E+000  0.3691118E+03  0.7546771E-02  0.1055033E+00
         21   -1    0    0  504  501  0.00000000000E+00  0.00000000000E+00  0.91123425614E+02  0.91123425614E+02  0.00000000000E+00 0.  1.
         21   -1    0    0  501  502 -0.00000000000E+00 -0.00000000000E+00 -0.15582898814E+04  0.15582898814E+04  0.00000000000E+00 0.  1.
         25    1    1    2    0    0 -0.34563144876E+03 -0.34020776388E+02 -0.97428870253E+03  0.10418646685E+04  0.12500000000E+03 0.  0.
         21    1    1    2  503  502  0.17813975698E+03  0.13755629357E+02 -0.18973131687E+03  0.26061650554E+03  0.00000000000E+00 0.  1.
         21    1    1    2  504  503  0.16749169177E+03  0.20265147031E+02 -0.30314643641E+03  0.34693213299E+03  0.00000000000E+00 0.  1.
<mgrwt>
<rscale>  4 0.36911179E+03</rscale>
<asrwt>0</asrwt>
<pdfrwt beam="1">  1       21 0.14018989E-01 0.36911179E+03</pdfrwt>
<pdfrwt beam="2">  1       21 0.23973689E+00 0.36911179E+03</pdfrwt>
<totfact> 0.29659198E+03</totfact>
</mgrwt>
</event>
<event>
 5    0  0.1324511E+000  0.2600018E+03  0.7546771E-02  0.1107142E+00
         21   -1    0    0  504  501  0.00000000000E+00  0.00000000000E+00  0.11059521502E+03  0.11059521502E+03  0.00000000000E+00 0.  1.
         21   -1    0    0  501  502 -0.00000000000E+00 -0.00000000000E+00 -0.56000978075E+03  0.56000978075E+03  0.00000000000E+00 0.  1.
         25    1    1    2    0    0  0.25555080784E+02 -0.22654554882E+03 -0.29743954202E+03  0.39505851339E+03  0.12500000000E+03 0.  0.
         21    1    1    2  503  502 -0.28076080108E+02  0.20599964277E+03 -0.12924245606E+03  0.24480141246E+03  0.00000000000E+00 0.  1.
         21    1    1    2  504  503  0.25209993239E+01  0.20545906048E+02 -0.22732567648E+02  0.30745069926E+02  0.00000000000E+00 0.  1.
<mgrwt>
<rscale>  4 0.26000182E+03</rscale>
<asrwt>0</asrwt>
<pdfrwt beam="1">  1       21 0.17014649E-01 0.26000182E+03</pdfrwt>
<pdfrwt beam="2">  1       21 0.86155350E-01 0.26000182E+03</pdfrwt>
<totfact> 0.35021442E+04</totfact>
</mgrwt>
</event>
<event>
 5    0  0.1324511E+000  0.2443071E+03  0.7546771E-02  0.1116956E+00
         21   -1    0    0  504  501  0.00000000000E+00  0.00000000000E+00  0.34521844137E+03  0.34521844137E+03  0.00000000000E+00 0.  1.
         21   -1    0    0  501  502 -0.00000000000E+00 -0.00000000000E+00 -0.33442034784E+03  0.33442034784E+03  0.00000000000E+00 0. -1.
         25    1    1    2    0    0 -0.18193052195E+03  0.10470075711E+03 -0.24370703135E+03  0.34507836861E+03  0.12500000000E+03 0.  0.
         21    1    1    2  503  502  0.11946955414E+03 -0.87555325871E+02  0.14465392718E+03  0.20703542717E+03  0.00000000000E+00 0.  1.
         21    1    1    2  504  503  0.62460967815E+02 -0.17145431242E+02  0.10985119770E+03  0.12752499342E+03  0.00000000000E+00 0.  1.
<mgrwt>
<rscale>  4 0.24430711E+03</rscale>
<asrwt>0</asrwt>
<pdfrwt beam="1">  1       21 0.53110530E-01 0.24430711E+03</pdfrwt>
<pdfrwt beam="2">  1       21 0.51449284E-01 0.24430711E+03</pdfrwt>
<totfact> 0.11677978E+04</totfact>
</mgrwt>
</event>
<event>
 5    0  0.1324511E+000  0.3011531E+03  0.7546771E-02  0.1084666E+00
         21   -1    0    0  504  501  0.00000000000E+00  0.00000000000E+00  0.16027061255E+04  0.16027061255E+04  0.00000000000E+00 0. -1.
         21   -1    0    0  501  502 -0.00000000000E+00 -0.00000000000E+00 -0.27741150860E+03  0.27741150860E+03  0.00000000000E+00 0. -1.
         25    1    1    2    0    0 -0.34936208406E+02 -0.27437176289E+03 -0.17315226979E+03  0.34943827991E+03  0.12500000000E+03 0.  0.
         21    1    1    2  503  502  0.47297977937E+02  0.22769203454E+03  0.14172950801E+04  0.14362472299E+04  0.00000000000E+00 0. -1.
         21    1    1    2  504  503 -0.12361769531E+02  0.46679728357E+02  0.81151806522E+02  0.94432124233E+02  0.00000000000E+00 0. -1.
<mgrwt>
<rscale>  4 0.30115307E+03</rscale>
<asrwt>0</asrwt>
<pdfrwt beam="1">  1       21 0.24657017E+00 0.30115307E+03</pdfrwt>
<pdfrwt beam="2">  1       21 0.42678695E-01 0.30115307E+03</pdfrwt>
<totfact> 0.32717989E+02</totfact>
</mgrwt>
</event>
<event>
 5    0  0.1324511E+000  0.2676055E+03  0.7546771E-02  0.1102658E+00
         21   -1    0    0  504  501  0.00000000000E+00  0.00000000000E+00  0.27063665861E+04  0.27063665861E+04  0.00000000000E+00 0. -1.
         21   -1    0    0  501  502 -0.00000000000E+00 -0.00000000000E+00 -0.25767734125E+02  0.25767734125E+02  0.00000000000E+00 0. -1.
         25    1    1    2    0    0 -0.90023656815E+02  0.21882281455E+03  0.16636432781E+04  0.16850286762E+04  0.12500000000E+03 0.  0.
         21    1    1    2  503  502  0.30505917927E+02 -0.80131777154E+02  0.54222664725E+03  0.54896397853E+03  0.00000000000E+00 0. -1.
         21    1    1    2  504  503  0.59517738888E+02 -0.13869103740E+03  0.47472892665E+03  0.49814166549E+03  0.00000000000E+00 0. -1.
<mgrwt>
<rscale>  4 0.26760546E+03</rscale>
<asrwt>0</asrwt>
<pdfrwt beam="1">  1       21 0.41636386E+00 0.26760546E+03</pdfrwt>
<pdfrwt beam="2">  1       21 0.39642689E-02 0.26760546E+03</pdfrwt>
<totfact> 0.24947396E+03</totfact>
</mgrwt>
</event>
<event>
 5    0  0.1324511E+000  0.2496417E+03  0.7546771E-02  0.1113531E+00
         21   -1    0    0  504  501  0.00000000000E+00  0.00000000000E+00  0.61034596633E+03  0.61034596633E+03  0.00000000000E+00 0. -1.
         21   -1    0    0  501  502 -0.00000000000E+00 -0.00000000000E+00 -0.96216130747E+02  0.96216130747E+02  0.00000000000E+00 0. -1.
         25    1    1    2    0    0  0.97244400228E+02 -0.19297544777E+03  0.19483021605E+03  0.31666987527E+03  0.12500000000E+03 0.  0.
         21    1    1    2  503  502 -0.53230861720E+02  0.15933372101E+03  0.24941858520E+03  0.30071646103E+03  0.00000000000E+00 0. -1.
         21    1    1    2  504  503 -0.44013538509E+02  0.33641726760E+02  0.69881034335E+02  0.89175760783E+02  0.00000000000E+00 0. -1.
<mgrwt>
<rscale>  4 0.24964174E+03</rscale>
<asrwt>0</asrwt>
<pdfrwt beam="1">  1       21 0.93899377E-01 0.24964174E+03</pdfrwt>
<pdfrwt beam="2">  1       21 0.14802482E-01 0.24964174E+03</pdfrwt>
<totfact> 0.37190980E+04</totfact>
</mgrwt>
</event>
<event>
 5    0  0.1324511E+000  0.2440911E+03  0.7546771E-02  0.1117097E+00
         21   -1    0    0  504  501  0.00000000000E+00  0.00000000000E+00  0.99114561667E+03  0.99114561667E+03  0.00000000000E+00 0.  1.
         21   -1    0    0  501  502 -0.00000000000E+00 -0.00000000000E+00 -0.56519566135E+02  0.56519566135E+02  0.00000000000E+00 0.  1.
         25    1    1    2    0    0 -0.58976722209E+02 -0.20118951853E+03  0.40314598916E+03  0.47128246807E+03  0.12500000000E+03 0.  0.
         21    1    1    2  503  502  0.34793688925E+02  0.99224375768E+02  0.36343738872E+03  0.37834219042E+03  0.00000000000E+00 0.  1.
         21    1    1    2  504  503  0.24183033285E+02  0.10196514277E+03  0.16804267266E+03  0.19804052432E+03  0.00000000000E+00 0.  1.
<mgrwt>
<rscale>  4 0.24409112E+03</rscale>
<asrwt>0</asrwt>
<pdfrwt beam="1">  1       21 0.15248393E+00 0.24409112E+03</pdfrwt>
<pdfrwt beam="2">  1       21 0.86953186E-02 0.24409112E+03</pdfrwt>
<totfact> 0.28818592E+04</totfact>
</mgrwt>
</event>
<event>
 5    0  0.1324511E+000  0.3526122E+03  0.7546771E-02  0.1061548E+00
         21   -1    0    0  504  501  0.00000000000E+00  0.00000000000E+00  0.11491730843E+04  0.11491730843E+04  0.00000000000E+00 0.  1.
         21   -1    0    0  501  502 -0.00000000000E+00 -0.00000000000E+00 -0.76562426539E+03  0.76562426539E+03  0.00000000000E+00 0.  1.
         25    1    1    2    0    0  0.14246371949E+03 -0.29869129345E+03 -0.68998927279E+03  0.77538545042E+03  0.12500000000E+03 0.  0.
         21    1    1    2  503  502 -0.20090354220E+02  0.25934798711E+02  0.94690074172E+01  0.34145251768E+02  0.00000000000E+00 0.  1.
         21    1    1    2  504  503 -0.12237336527E+03  0.27275649474E+03  0.10640690843E+04  0.11052666475E+04  0.00000000000E+00 0.  1.
<mgrwt>
<rscale>  4 0.35261219E+03</rscale>
<asrwt>0</asrwt>
<pdfrwt beam="1">  1       21 0.17679586E+00 0.35261219E+03</pdfrwt>
<pdfrwt beam="2">  1       21 0.11778835E+00 0.35261219E+03</pdfrwt>
<totfact> 0.89799398E+01</totfact>
</mgrwt>
</event>
<event>
 5    0  0.1324511E+000  0.2597645E+03  0.7546771E-02  0.1107285E+00
         21   -1    0    0  504  501  0.00000000000E+00  0.00000000000E+00  0.14595247570E+03  0.14595247570E+03  0.00000000000E+00 0. -1.
         21   -1    0    0  501  502 -0.00000000000E+00 -0.00000000000E+00 -0.54869331869E+03  0.54869331869E+03  0.00000000000E+00 0. -1.
         25    1    1    2    0    0 -0.19123189068E+03 -0.13202362681E+03 -0.31793752844E+03  0.41316963349E+03  0.12500000000E+03 0.  0.
         21    1    1    2  503  502 -0.12790647927E+02  0.42934409237E+02 -0.54427474158E+01  0.45128568228E+02  0.00000000000E+00 0. -1.
         21    1    1    2  504  503  0.20402253860E+03  0.89089217570E+02 -0.79360567127E+02  0.23634759267E+03  0.00000000000E+00 0. -1.
<mgrwt>
<rscale>  4 0.25976452E+03</rscale>
<asrwt>0</asrwt>
<pdfrwt beam="1">  1       21 0.22454227E-01 0.25976452E+03</pdfrwt>
<pdfrwt beam="2">  1       21 0.84414356E-01 0.25976452E+03</pdfrwt>
<totfact> 0.21813557E+04</totfact>
</mgrwt>
</event>
<event>
 5    0  0.1590587E+000  0.3203994E+03  0.7546771E-02  0.1075466E+00
         21   -1    0    0  504  501  0.00000000000E+00  0.00000000000E+00  0.41385962569E+03  0.41385962569E+03  0.00000000000E+00 0. -1.
         21   -1    0    0  501  502 -0.00000000000E+00 -0.00000000000E+00 -0.35227635585E+03  0.35227635585E+03  0.00000000000E+00 0. -1.
         25    1    1    2    0    0  0.13904705580E+03  0.26018593241E+03  0.25690653279E+03  0.41067842620E+03  0.12500000000E+03 0.  0.
         21    1    1    2  503  502 -0.11955280100E+03 -0.24234053872E+03 -0.18251797256E+03  0.32608989442E+03  0.00000000000E+00 0. -1.
         21    1    1    2  504  503 -0.19494254801E+02 -0.17845393699E+02 -0.12805290377E+02  0.29367660924E+02  0.00000000000E+00 0.  1.
<mgrwt>
<rscale>  4 0.32039944E+03</rscale>
<asrwt>0</asrwt>
<pdfrwt beam="1">  1       21 0.63670712E-01 0.32039944E+03</pdfrwt>
<pdfrwt beam="2">  1       21 0.54196362E-01 0.32039944E+03</pdfrwt>
<totfact> 0.68124418E+03</totfact>
</mgrwt>
</event>
<event>
 5    0  0.1324511E+000  0.2466265E+03  0.7546771E-02  0.1115456E+00
         21   -1    0    0  504  501  0.00000000000E+00  0.00000000000E+00  0.33389891455E+03  0.33389891455E+03  0.00000000000E+00 0. -1.
         21   -1    0    0  501  502 -0.00000000000E+00 -0.00000000000E+00 -0.20733201911E+03  0.20733201911E+03  0.00000000000E+00 0. -1.
         25    1    1    2    0    0  0.97659855699E+02 -0.18884438498E+03 -0.62546037591E+02  0.25443399138E+03  0.12500000000E+03 0.  0.
         21    1    1    2  503  502 -0.16046246393E+02  0.13946643244E+02  0.29396989891E+02  0.36279111011E+02  0.00000000000E+00 0. -1.
         21    1    1    2  504  503 -0.81613609306E+02  0.17489774173E+03  0.15971594314E+03  0.25051783126E+03  0.00000000000E+00 0. -1.
<mgrwt>
<rscale>  4 0.24662654E+03</rscale>
<asrwt>0</asrwt>
<pdfrwt beam="1">  1       21 0.51369064E-01 0.24662654E+03</pdfrwt>
<pdfrwt beam="2">  1       21 0.31897234E-01 0.24662654E+03</pdfrwt>
<totfact> 0.33144570E+04</totfact>
</mgrwt>
</event>
<event>
 5    0  0.1324511E+000  0.3461360E+03  0.7546771E-02  0.1064212E+00
         21   -1    0    0  504  501  0.00000000000E+00  0.00000000000E+00  0.72340117367E+03  0.72340117367E+03  0.00000000000E+00 0.  1.
         21   -1    0    0  501  502 -0.00000000000E+00 -0.00000000000E+00 -0.35967308009E+03  0.35967308009E+03  0.00000000000E+00 0.  1.
         25    1    1    2    0    0  0.14254881586E+03  0.28959444547E+03 -0.21611592108E+03  0.40806396446E+03  0.12500000000E+03 0.  0.
         21    1    1    2  503  502 -0.61262377736E+02 -0.22970883816E+03  0.46388283147E+03  0.52125474634E+03  0.00000000000E+00 0.  1.
         21    1    1    2  504  503 -0.81286438120E+02 -0.59885607306E+02  0.11596118319E+03  0.15375554296E+03  0.00000000000E+00 0.  1.
<mgrwt>
<rscale>  4 0.34613597E+03</rscale>
<asrwt>0</asrwt>
<pdfrwt beam="1">  1       21 0.11129249E+00 0.34613597E+03</pdfrwt>
<pdfrwt beam="2">  1       21 0.55334320E-01 0.34613597E+03</pdfrwt>
<totfact> 0.17579366E+03</totfact>
</mgrwt>
</event>
<event>
 5    0  0.1324511E+000  0.2944814E+03  0.7546771E-02  0.1088032E+00
         21   -1    0    0  504  501  0.00000000000E+00  0.00000000000E+00  0.49876926910E+03  0.49876926910E+03  0.00000000000E+00 0. -1.
         21   -1    0    0  501  502 -0.00000000000E+00 -0.00000000000E+00 -0.89348431704E+03  0.89348431704E+03  0.00000000000E+00 0.  1.
         25    1    1    2    0    0 -0.23572720511E+03  0.12460727032E+03 -0.82803869188E+03  0.87884433337E+03  0.12500000000E+03 0.  0.
         21    1    1    2  503  502  0.20453108497E+02 -0.15638310756E+02  0.91180253198E+02  0.94745580286E+02  0.00000000000E+00 0. -1.
         21    1    1    2  504  503  0.21527409661E+03 -0.10896895956E+03  0.34214339075E+03  0.41866367248E+03  0.00000000000E+00 0. -1.
<mgrwt>
<rscale>  4 0.29448139E+03</rscale>
<asrwt>0</asrwt>
<pdfrwt beam="1">  1       21 0.76733734E-01 0.29448139E+03</pdfrwt>
<pdfrwt beam="2">  1       21 0.13745913E+00 0.29448139E+03</pdfrwt>
<totfact> 0.51667689E+02</totfact>
</mgrwt>
</event>
<event>
 5    0  0.1324511E+000  0.2347827E+03  0.7546771E-02  0.1123318E+00
         21   -1    0    0  504  501  0.00000000000E+00  0.00000000000E+00  0.10484003675E+03  0.10484003675E+03  0.00000000000E+00 0.  1.
         21   -1    0    0  501  502 -0.00000000000E+00 -0.00000000000E+00 -0.12428997698E+04  0.12428997698E+04  0.00000000000E+00 0.  1.
         25    1    1    2    0    0 -0.13737507872E+03  0.21642772279E+03 -0.92679910404E+03  0.96968781094E+03  0.12500000000E+03 0.  0.
         21    1    1    2  503  502  0.48593942021E+02 -0.13425192753E+03 -0.21375319385E+03  0.25705131613E+03  0.00000000000E+00 0.  1.
         21    1    1    2  504  503  0.88781136697E+02 -0.82175795264E+02  0.24925648052E+01  0.12100067950E+03  0.00000000000E+00 0.  1.
<mgrwt>
<rscale>  4 0.23478270E+03</rscale>
<asrwt>0</asrwt>
<pdfrwt beam="1">  1       21 0.16129236E-01 0.23478270E+03</pdfrwt>
<pdfrwt beam="2">  1       21 0.19121535E+00 0.23478270E+03</pdfrwt>
<totfact> 0.50773829E+03</totfact>
</mgrwt>
</event>
<event>
 5    0  0.1324511E+000  0.3266872E+03  0.7546771E-02  0.1072612E+00
         21   -1    0    0  504  501  0.00000000000E+00  0.00000000000E+00  0.20339684387E+03  0.20339684387E+03  0.00000000000E+00 0. -1.
         21   -1    0    0  501  502 -0.00000000000E+00 -0.00000000000E+00 -0.12047035876E+04  0.12047035876E+04  0.00000000000E+00 0. -1.
         25    1    1    2    0    0 -0.20495727295E+03 -0.22156721868E+03 -0.10367652064E+04  0.10870172995E+04  0.12500000000E+03 0.  0.
         21    1    1    2  503  502  0.77691134992E+02  0.10688743402E+03 -0.33648867181E+02  0.13635645298E+03  0.00000000000E+00 0. -1.
         21    1    1    2  504  503  0.12726613796E+03  0.11467978467E+03  0.69107329901E+02  0.18472667898E+03  0.00000000000E+00 0. -1.
<mgrwt>
<rscale>  4 0.32668718E+03</rscale>
<asrwt>0</asrwt>
<pdfrwt beam="1">  1       21 0.31291822E-01 0.32668718E+03</pdfrwt>
<pdfrwt beam="2">  1       21 0.18533902E+00 0.32668718E+03</pdfrwt>
<totfact> 0.14762561E+03</totfact>
</mgrwt>
</event>
<event>
 5    0  0.1324511E+000  0.4598685E+03  0.7546771E-02  0.1024819E+00
         21   -1    0    0  504  501  0.00000000000E+00  0.00000000000E+00  0.96623097067E+03  0.96623097067E+03  0.00000000000E+00 0. -1.
         21   -1    0    0  501  502 -0.00000000000E+00 -0.00000000000E+00 -0.19052470509E+04  0.19052470509E+04  0.00000000000E+00 0.  1.
         25    1    1    2    0    0  0.28779888471E+03  0.34185962668E+03 -0.17834886026E+04  0.18428653771E+04  0.12500000000E+03 0.  0.
         21    1    1    2  503  502 -0.25431606492E+03 -0.20212843968E+03  0.82111259255E+03  0.88303932905E+03  0.00000000000E+00 0. -1.
         21    1    1    2  504  503 -0.33482819785E+02 -0.13973118700E+03  0.23359929861E+02  0.14557331542E+03  0.00000000000E+00 0.  1.
<mgrwt>
<rscale>  4 0.45986851E+03</rscale>
<asrwt>0</asrwt>
<pdfrwt beam="1">  1       21 0.14865092E+00 0.45986851E+03</pdfrwt>
<pdfrwt beam="2">  1       21 0.29311493E+00 0.45986851E+03</pdfrwt>
<totfact> 0.82988486E+00</totfact>
</mgrwt>
</event>
<event>
 5    0  0.1324511E+000  0.3079917E+03  0.7546771E-02  0.1081313E+00
         21   -1    0    0  504  501  0.00000000000E+00  0.00000000000E+00  0.20758729002E+03  0.20758729002E+03  0.00000000000E+00 0. -1.
         21   -1    0    0  501  502 -0.00000000000E+00 -0.00000000000E+00 -0.62069387471E+03  0.62069387471E+03  0.00000000000E+00 0. -1.
         25    1    1    2    0    0 -0.27758858919E+03 -0.46673835648E+02 -0.44331707851E+03  0.53980450524E+03  0.12500000000E+03 0.  0.
         21    1    1    2  503  502  0.33204230419E+02  0.16151088191E+02 -0.11528303973E+02  0.38681783309E+02  0.00000000000E+00 0.  1.
         21    1    1    2  504  503  0.24438435877E+03  0.30522747457E+02  0.41738797784E+02  0.24979487618E+03  0.00000000000E+00 0. -1.
<mgrwt>
<rscale>  4 0.30799167E+03</rscale>
<asrwt>0</asrwt>
<pdfrwt beam="1">  1       21 0.31936507E-01 0.30799167E+03</pdfrwt>
<pdfrwt beam="2">  1       21 0.95491364E-01 0.30799167E+03</pdfrwt>
<totfact> 0.80662159E+03</totfact>
</mgrwt>
</event>
<event>
 5    0  0.1324511E+000  0.2598439E+03  0.7546771E-02  0.1107237E+00
         21   -1    0    0  504  501  0.00000000000E+00  0.00000000000E+00  0.70824145412E+02  0.70824145412E+02  0.00000000000E+00 0. -1.
         21   -1    0    0  501  502 -0.00000000000E+00 -0.00000000000E+00 -0.13679558351E+04  0.13679558351E+04  0.00000000000E+00 0.  1.
         25    1    1    2    0    0  0.66956809212E+02 -0.21773989382E+03 -0.11082630621E+04  0.11383171309E+04  0.12500000000E+03 0.  0.
         21    1    1    2  503  502 -0.52824770069E+02  0.18441959706E+03 -0.13131612307E+03  0.23247573699E+03  0.00000000000E+00 0. -1.
         21    1    1    2  504  503 -0.14132039143E+02  0.33320296760E+02 -0.57552504507E+02  0.67987112614E+02  0.00000000000E+00 0. -1.
<mgrwt>
<rscale>  4 0.25984394E+03</rscale>
<asrwt>0</asrwt>
<pdfrwt beam="1">  1       21 0.10896023E-01 0.25984394E+03</pdfrwt>
<pdfrwt beam="2">  1       21 0.21045474E+00 0.25984394E+03</pdfrwt>
<totfact> 0.76221129E+03</totfact>
</mgrwt>
</event>
<event>
 5    0  0.1324511E+000  0.2543504E+03  0.7546771E-02  0.1110586E+00
         21   -1    0    0  504  501  0.00000000000E+00  0.00000000000E+00  0.22069004471E+03  0.22069004471E+03  0.00000000000E+00 0. -1.
         21   -1    0    0  501  502 -0.00000000000E+00 -0.00000000000E+00 -0.32340269451E+03  0.32340269451E+03  0.00000000000E+00 0. -1.
         25    1    1    2    0    0 -0.22100297392E+03  0.81877350908E+02 -0.65392439962E+02  0.27467687612E+03  0.12500000000E+03 0.  0.
         21    1    1    2  503  502  0.21146925215E+03 -0.31502202726E+02 -0.17749903381E+02  0.21453832397E+03  0.00000000000E+00 0. -1.
         21    1    1    2  504  503  0.95337217618E+01 -0.50375148182E+02 -0.19570306457E+02  0.54877539120E+02  0.00000000000E+00 0.  1.
<mgrwt>
<rscale>  4 0.25435037E+03</rscale>
<asrwt>0</asrwt>
<pdfrwt beam="1">  1       21 0.33952315E-01 0.25435037E+03</pdfrwt>
<pdfrwt beam="2">  1       21 0.49754260E-01 0.25435037E+03</pdfrwt>
<totfact> 0.31214389E+04</totfact>
</mgrwt>
</event>
<event>
 5    0  0.1324511E+000  0.1873617E+03  0.7546771E-02  0.1160863E+00
         21   -1    0    0  504  501  0.00000000000E+00  0.00000000000E+00  0.58203224438E+03  0.58203224438E+03  0.00000000000E+00 0. -1.
         21   -1    0    0  501  502 -0.00000000000E+00 -0.00000000000E+00 -0.12630641155E+03  0.12630641155E+03  0.00000000000E+00 0. -1.
         25    1    1    2    0    0 -0.29079245063E+02  0.20017273335E+03  0.81681489652E+02  0.25141915484E+03  0.12500000000E+03 0.  0.
         21    1    1    2  503  502 -0.11367248866E+02 -0.75339532642E+02  0.19178209432E+02  0.78568843969E+02  0.00000000000E+00 0. -1.
         21    1    1    2  504  503  0.40446493929E+02 -0.12483320070E+03  0.35486613374E+03  0.37835065712E+03  0.00000000000E+00 0. -1.
<mgrwt>
<rscale>  4 0.18736171E+03</rscale>
<asrwt>0</asrwt>
<pdfrwt beam="1">  1       21 0.89543421E-01 0.18736171E+03</pdfrwt>
<pdfrwt beam="2">  1       21 0.19431756E-01 0.18736171E+03</pdfrwt>
<totfact> 0.25971709E+04</totfact>
</mgrwt>
</event>
<event>
 5    0  0.1324511E+000  0.2427212E+03  0.7546771E-02  0.1117993E+00
         21   -1    0    0  504  501  0.00000000000E+00  0.00000000000E+00  0.57585169593E+03  0.57585169593E+03  0.00000000000E+00 0. -1.
         21   -1    0    0  501  502 -0.00000000000E+00 -0.00000000000E+00 -0.16901712757E+03  0.16901712757E+03  0.00000000000E+00 0. -1.
         25    1    1    2    0    0  0.19581143251E+03 -0.19073299042E+03  0.13573364125E+03  0.32980268662E+03  0.12500000000E+03 0.  0.
         21    1    1    2  503  502 -0.15983250123E+03  0.99802305248E+02  0.25324722192E+03  0.31565975985E+03  0.00000000000E+00 0. -1.
         21    1    1    2  504  503 -0.35978931285E+02  0.90930685174E+02  0.17853705194E+02  0.99406377017E+02  0.00000000000E+00 0. -1.
<mgrwt>
<rscale>  4 0.24272124E+03</rscale>
<asrwt>0</asrwt>
<pdfrwt beam="1">  1       21 0.88592567E-01 0.24272124E+03</pdfrwt>
<pdfrwt beam="2">  1       21 0.26002635E-01 0.24272124E+03</pdfrwt>
<totfact> 0.14855460E+04</totfact>
</mgrwt>
</event>
<event>
 5    0  0.1324511E+000  0.4330832E+03  0.7546771E-02  0.1032890E+00
         21   -1    0    0  504  501  0.00000000000E+00  0.00000000000E+00  0.12525384712E+04  0.12525384712E+04  0.00000000000E+00 0. -1.
         21   -1    0    0  501  502 -0.00000000000E+00 -0.00000000000E+00 -0.43920354054E+03  0.43920354054E+03  0.00000000000E+00 0. -1.
         25    1    1    2    0    0  0.10787188364E+03  0.52145105734E+03 -0.99079794921E+02  0.55586810868E+03  0.12500000000E+03 0.  0.
         21    1    1    2  503  502 -0.73108086869E+02 -0.22828382210E+03  0.77314522538E+03  0.80945156453E+03  0.00000000000E+00 0. -1.
         21    1    1    2  504  503 -0.34763796775E+02 -0.29316723524E+03  0.13926950017E+03  0.32642233849E+03  0.00000000000E+00 0. -1.
<mgrwt>
<rscale>  4 0.43308322E+03</rscale>
<asrwt>0</asrwt>
<pdfrwt beam="1">  1       21 0.19269822E+00 0.43308322E+03</pdfrwt>
<pdfrwt beam="2">  1       21 0.67569776E-01 0.43308322E+03</pdfrwt>
<totfact> 0.24601929E+02</totfact>
</mgrwt>
</event>
<event>
 5    0  0.1324511E+000  0.1895887E+03  0.7546771E-02  0.1158833E+00
         21   -1    0    0  504  501  0.00000000000E+00  0.00000000000E+00  0.97480682378E+02  0.97480682378E+02  0.00000000000E+00 0. -1.
         21   -1    0    0  501  502 -0.00000000000E+00 -0.00000000000E+00 -0.58524779717E+03  0.58524779717E+03  0.00000000000E+00 0. -1.
         25    1    1    2    0    0 -0.49258632344E+02  0.19680735783E+03 -0.28457750508E+03  0.37117233916E+03  0.12500000000E+03 0.  0.
         21    1    1    2  503  502  0.53389363766E+01 -0.11903704022E+03 -0.18555054872E+03  0.22051604776E+03  0.00000000000E+00 0. -1.
         21    1    1    2  504  503  0.43919695967E+02 -0.77770317608E+02 -0.17639060989E+02  0.91040092637E+02  0.00000000000E+00 0. -1.
<mgrwt>
<rscale>  4 0.18958871E+03</rscale>
<asrwt>0</asrwt>
<pdfrwt beam="1">  1       21 0.14997028E-01 0.18958871E+03</pdfrwt>
<pdfrwt beam="2">  1       21 0.90038124E-01 0.18958871E+03</pdfrwt>
<totfact> 0.41252586E+04</totfact>
</mgrwt>
</event>
<event>
 5    0  0.1324511E+000  0.3674380E+03  0.7546771E-02  0.1055677E+00
         21   -1    0    0  504  501  0.00000000000E+00  0.00000000000E+00  0.73235502930E+03  0.73235502930E+03  0.00000000000E+00 0. -1.
         21   -1    0    0  501  502 -0.00000000000E+00 -0.00000000000E+00 -0.18180644422E+03  0.18180644422E+03  0.00000000000E+00 0. -1.
         25    1    1    2    0    0  0.16416898542E+03 -0.30403000898E+03  0.21828806878E+03  0.42738786027E+03  0.12500000000E+03 0.  0.
         21    1    1    2  503  502 -0.97349519321E+02  0.22715249599E+03  0.18961621044E+03  0.31149557398E+03  0.00000000000E+00 0. -1.
         21    1    1    2  504  503 -0.66819466098E+02  0.76877512987E+02  0.14264430586E+03  0.17527803926E+03  0.00000000000E+00 0. -1.
<mgrwt>
<rscale>  4 0.36743802E+03</rscale>
<asrwt>0</asrwt>
<pdfrwt beam="1">  1       21 0.11267000E+00 0.36743802E+03</pdfrwt>
<pdfrwt beam="2">  1       21 0.27970223E-01 0.36743802E+03</pdfrwt>
<totfact> 0.68322559E+03</totfact>
</mgrwt>
</event>
<event>
 5    0  0.1324511E+000  0.2242303E+03  0.7546771E-02  0.1130768E+00
         21   -1    0    0  504  501  0.00000000000E+00  0.00000000000E+00  0.20529291378E+03  0.20529291378E+03  0.00000000000E+00 0. -1.
         21   -1    0    0  501  502 -0.00000000000E+00 -0.00000000000E+00 -0.87581343169E+03  0.87581343169E+03  0.00000000000E+00 0.  1.
         25    1    1    2    0    0 -0.13660196750E+03  0.18064430310E+03 -0.74180190748E+03  0.78561283831E+03  0.12500000000E+03 0.  0.
         21    1    1    2  503  502  0.30795698904E+02 -0.30554023778E+02 -0.56896339004E+02  0.71548003690E+02  0.00000000000E+00 0.  1.
         21    1    1    2  504  503  0.10580626860E+03 -0.15009027932E+03  0.12817772858E+03  0.22394550347E+03  0.00000000000E+00 0. -1.
<mgrwt>
<rscale>  4 0.22423031E+03</rscale>
<asrwt>0</asrwt>
<pdfrwt beam="1">  1       21 0.31583525E-01 0.22423031E+03</pdfrwt>
<pdfrwt beam="2">  1       21 0.13474053E+00 0.22423031E+03</pdfrwt>
<totfact> 0.37069861E+03</totfact>
</mgrwt>
</event>
<event>
 5    0  0.1324511E+000  0.3594436E+03  0.7546771E-02  0.1058804E+00
         21   -1    0    0  504  501  0.00000000000E+00  0.00000000000E+00  0.11831581709E+04  0.11831581709E+04  0.00000000000E+00 0. -1.
         21   -1    0    0  501  502 -0.00000000000E+00 -0.00000000000E+00 -0.37884455504E+03  0.37884455504E+03  0.00000000000E+00 0.  1.
         25    1    1    2    0    0  0.96571679696E+01 -0.38581232907E+03 -0.19044437839E+03  0.44815005904E+03  0.12500000000E+03 0.  0.
         21    1    1    2  503  502  0.53507886980E+02  0.58661786502E+02  0.17431426450E+02  0.81290551682E+02  0.00000000000E+00 0. -1.
         21    1    1    2  504  503 -0.63165054949E+02  0.32715054256E+03  0.97732656776E+03  0.10325621152E+04  0.00000000000E+00 0. -1.
<mgrwt>
<rscale>  4 0.35944365E+03</rscale>
<asrwt>0</asrwt>
<pdfrwt beam="1">  1       21 0.18202433E+00 0.35944365E+03</pdfrwt>
<pdfrwt beam="2">  1       21 0.58283778E-01 0.35944365E+03</pdfrwt>
<totfact> 0.42095616E+02</totfact>
</mgrwt>
</event>
<event>
 5    0  0.1324511E+000  0.3599476E+03  0.7546771E-02  0.1058605E+00
         21   -1    0    0  504  501  0.00000000000E+00  0.00000000000E+00  0.27784573293E+03  0.27784573293E+03  0.00000000000E+00 0. -1.
         21   -1    0    0  501  502 -0.00000000000E+00 -0.00000000000E+00 -0.67981563605E+03  0.67981563605E+03  0.00000000000E+00 0. -1.
         25    1    1    2    0    0  0.32639077591E+03 -0.10840061015E+03 -0.46458228364E+03  0.59139101206E+03  0.12500000000E+03 0.  0.
         21    1    1    2  503  502 -0.30178233298E+03  0.10703149869E+03  0.24832458505E+02  0.32116190497E+03  0.00000000000E+00 0. -1.
         21    1    1    2  504  503 -0.24608442933E+02  0.13691114616E+01  0.37779922012E+02  0.45108451947E+02  0.00000000000E+00 0. -1.
<mgrwt>
<rscale>  4 0.35994759E+03</rscale>
<asrwt>0</asrwt>
<pdfrwt beam="1">  1       21 0.42745497E-01 0.35994759E+03</pdfrwt>
<pdfrwt beam="2">  1       21 0.10458702E+00 0.35994759E+03</pdfrwt>
<totfact> 0.35051897E+03</totfact>
</mgrwt>
</event>
<event>
 5    0  0.1324511E+000  0.2404235E+03  0.7546771E-02  0.1119511E+00
         21   -1    0    0  504  501  0.00000000000E+00  0.00000000000E+00  0.42416480872E+03  0.42416480872E+03  0.00000000000E+00 0. -1.
         21   -1    0    0  501  502 -0.00000000000E+00 -0.00000000000E+00 -0.71453082776E+03  0.71453082776E+03  0.00000000000E+00 0.  1.
         25    1    1    2    0    0  0.14088279011E+03 -0.14943390129E+03 -0.66385039125E+03  0.70604588616E+03  0.12500000000E+03 0.  0.
         21    1    1    2  503  502 -0.67868832256E+02  0.11553450095E+03  0.19221477746E+03  0.23430945345E+03  0.00000000000E+00 0. -1.
         21    1    1    2  504  503 -0.73013957850E+02  0.33899400340E+02  0.18126959475E+03  0.19834029688E+03  0.00000000000E+00 0. -1.
<mgrwt>
<rscale>  4 0.24042348E+03</rscale>
<asrwt>0</asrwt>
<pdfrwt beam="1">  1       21 0.65256124E-01 0.24042348E+03</pdfrwt>
<pdfrwt beam="2">  1       21 0.10992782E+00 0.24042348E+03</pdfrwt>
<totfact> 0.13549420E+03</totfact>
</mgrwt>
</event>
<event>
 5    0  0.1324511E+000  0.2155753E+03  0.7546771E-02  0.1137225E+00
         21   -1    0    0  504  501  0.00000000000E+00  0.00000000000E+00  0.17079701202E+03  0.17079701202E+03  0.00000000000E+00 0.  1.
         21   -1    0    0  501  502 -0.00000000000E+00 -0.00000000000E+00 -0.61876575929E+03  0.61876575929E+03  0.00000000000E+00 0.  1.
         25    1    1    2    0    0 -0.88537362418E+02  0.23332757782E+03 -0.28343896203E+03  0.39779802452E+03  0.12500000000E+03 0.  0.
         21    1    1    2  503  502  0.76829099505E+02 -0.85243811220E+02  0.54558047646E+02  0.12706611840E+03  0.00000000000E+00 0.  1.
         21    1    1    2  504  503  0.11708262913E+02 -0.14808376660E+03 -0.21908783289E+03  0.26469862839E+03  0.00000000000E+00 0.  1.
<mgrwt>
<rscale>  4 0.21557531E+03</rscale>
<asrwt>0</asrwt>
<pdfrwt beam="1">  1       21 0.26276463E-01 0.21557531E+03</pdfrwt>
<pdfrwt beam="2">  1       21 0.95194734E-01 0.21557531E+03</pdfrwt>
<totfact> 0.12504078E+04</totfact>
</mgrwt>
</event>
<event>
 5    0  0.1324511E+000  0.2297930E+03  0.7546771E-02  0.1126786E+00
         21   -1    0    0  504  501  0.00000000000E+00  0.00000000000E+00  0.19238028022E+03  0.19238028022E+03  0.00000000000E+00 0.  1.
         21   -1    0    0  501  502 -0.00000000000E+00 -0.00000000000E+00 -0.31726157096E+03  0.31726157096E+03  0.00000000000E+00 0.  1.
         25    1    1    2    0    0 -0.20082717973E+02 -0.19992571554E+03 -0.16431687651E+03  0.28809485106E+03  0.12500000000E+03 0.  0.
         21    1    1    2  503  502  0.31692782279E+02  0.19804997991E+02  0.98012541149E+01  0.38635928567E+02  0.00000000000E+00 0.  1.
         21    1    1    2  504  503 -0.11610064306E+02  0.18012071755E+03  0.29634331667E+02  0.18291107156E+03  0.00000000000E+00 0.  1.
<mgrwt>
<rscale>  4 0.22979300E+03</rscale>
<asrwt>0</asrwt>
<pdfrwt beam="1">  1       21 0.29596966E-01 0.22979300E+03</pdfrwt>
<pdfrwt beam="2">  1       21 0.48809472E-01 0.22979300E+03</pdfrwt>
<totfact> 0.43055598E+04</totfact>
</mgrwt>
</event>
<event>
 5    0  0.1324511E+000  0.2360607E+03  0.7546771E-02  0.1122445E+00
         21   -1    0    0  504  501  0.00000000000E+00  0.00000000000E+00  0.77175143732E+03  0.77175143732E+03  0.00000000000E+00 0.  1.
         21   -1    0    0  501  502 -0.00000000000E+00 -0.00000000000E+00 -0.14098941779E+03  0.14098941779E+03  0.00000000000E+00 0.  1.
         25    1    1    2    0    0  0.17819157473E+03 -0.91364101394E+02 -0.12889714571E+02  0.23641231159E+03  0.12500000000E+03 0.  0.
         21    1    1    2  503  502 -0.14914957763E+03  0.88244642782E+02  0.59357336899E+03  0.61835431418E+03  0.00000000000E+00 0.  1.
         21    1    1    2  504  503 -0.29041997096E+02  0.31194586112E+01  0.50078365110E+02  0.57974229356E+02  0.00000000000E+00 0.  1.
<mgrwt>
<rscale>  4 0.23606066E+03</rscale>
<asrwt>0</asrwt>
<pdfrwt beam="1">  1       21 0.11873099E+00 0.23606066E+03</pdfrwt>
<pdfrwt beam="2">  1       21 0.21690680E-01 0.23606066E+03</pdfrwt>
<totfact> 0.10441606E+04</totfact>
</mgrwt>
</event>
<event>
 5    0  0.1324511E+000  0.2719103E+03  0.7546771E-02  0.1100191E+00
         21   -1    0    0  504  501  0.00000000000E+00  0.00000000000E+00  0.68165230228E+03  0.68165230228E+03  0.00000000000E+00 0. -1.
         21   -1    0    0  501  502 -0.00000000000E+00 -0.00000000000E+00 -0.18058496876E+03  0.18058496876E+03  0.00000000000E+00 0. -1.
         25    1    1    2    0    0  0.25229163731E+03 -0.56112635722E+02  0.11916931178E+02  0.28734423849E+03  0.12500000000E+03 0.  0.
         21    1    1    2  503  502 -0.22863059056E+02 -0.78900289762E+01 -0.64454214533E+01  0.25030291336E+02  0.00000000000E+00 0. -1.
         21    1    1    2  504  503 -0.22942857825E+03  0.64002664698E+02  0.49559582380E+03  0.54986274121E+03  0.00000000000E+00 0. -1.
<mgrwt>
<rscale>  4 0.27191028E+03</rscale>
<asrwt>0</asrwt>
<pdfrwt beam="1">  1       21 0.10486958E+00 0.27191028E+03</pdfrwt>
<pdfrwt beam="2">  1       21 0.27782303E-01 0.27191028E+03</pdfrwt>
<totfact> 0.86239774E+03</totfact>
</mgrwt>
</event>
<event>
 5    0  0.1324511E+000  0.2420188E+03  0.7546771E-02  0.1118455E+00
         21   -1    0    0  504  501  0.00000000000E+00  0.00000000000E+00  0.16592213653E+03  0.16592213653E+03  0.00000000000E+00 0. -1.
         21   -1    0    0  501  502 -0.00000000000E+00 -0.00000000000E+00 -0.38515559550E+03  0.38515559550E+03  0.00000000000E+00 0. -1.
         25    1    1    2    0    0 -0.43759258172E+01  0.20719305289E+03 -0.23656099294E+03  0.33842903728E+03  0.12500000000E+03 0.  0.
         21    1    1    2  503  502  0.90508190016E+01 -0.27086049050E+02 -0.10332987445E+02  0.30370084084E+02  0.00000000000E+00 0.  1.
         21    1    1    2  504  503 -0.46748931843E+01 -0.18010700384E+03  0.27660521418E+02  0.18227861066E+03  0.00000000000E+00 0. -1.
<mgrwt>
<rscale>  4 0.24201882E+03</rscale>
<asrwt>0</asrwt>
<pdfrwt beam="1">  1       21 0.25526482E-01 0.24201882E+03</pdfrwt>
<pdfrwt beam="2">  1       21 0.59254707E-01 0.24201882E+03</pdfrwt>
<totfact> 0.37823443E+04</totfact>
</mgrwt>
</event>
<event>
 5    0  0.1324511E+000  0.2710256E+03  0.7546771E-02  0.1100694E+00
         21   -1    0    0  504  501  0.00000000000E+00  0.00000000000E+00  0.12054791601E+03  0.12054791601E+03  0.00000000000E+00 0.  1.
         21   -1    0    0  501  502 -0.00000000000E+00 -0.00000000000E+00 -0.61280755356E+03  0.61280755356E+03  0.00000000000E+00 0.  1.
         25    1    1    2    0    0 -0.80117796506E+02 -0.23080488118E+03 -0.33423130839E+03  0.43246424361E+03  0.12500000000E+03 0.  0.
         21    1    1    2  503  502 -0.14021141696E+02  0.14689846296E+02 -0.13460725104E+02  0.24363397115E+02  0.00000000000E+00 0.  1.
         21    1    1    2  504  503  0.94138938202E+02  0.21611503488E+03 -0.14456760406E+03  0.27652782885E+03  0.00000000000E+00 0.  1.
<mgrwt>
<rscale>  4 0.27102561E+03</rscale>
<asrwt>0</asrwt>
<pdfrwt beam="1">  1       21 0.18545833E-01 0.27102561E+03</pdfrwt>
<pdfrwt beam="2">  1       21 0.94278085E-01 0.27102561E+03</pdfrwt>
<totfact> 0.24055671E+04</totfact>
</mgrwt>
</event>
<event>
 5    0  0.1324511E+000  0.2723058E+03  0.7546771E-02  0.1099967E+00
         21   -1    0    0  504  501  0.00000000000E+00  0.00000000000E+00  0.13680512363E+03  0.13680512363E+03  0.00000000000E+00 0.  1.
         21   -1    0    0  501  502 -0.00000000000E+00 -0.00000000000E+00 -0.97528000547E+03  0.97528000547E+03  0.00000000000E+00 0.  1.
         25    1    1    2    0    0  0.10411028950E+03  0.30204822442E+03 -0.46091766622E+03  0.57458000077E+03  0.12500000000E+03 0.  0.
         21    1    1    2  503  502 -0.26794169894E+01 -0.21793493681E+03 -0.12149443798E+03  0.24952698135E+03  0.00000000000E+00 0.  1.
         21    1    1    2  504  503 -0.10143087251E+03 -0.84113287610E+02 -0.25606277764E+03  0.28797814699E+03  0.00000000000E+00 0.  1.
<mgrwt>
<rscale>  4 0.27230584E+03</rscale>
<asrwt>0</asrwt>
<pdfrwt beam="1">  1       21 0.21046942E-01 0.27230584E+03</pdfrwt>
<pdfrwt beam="2">  1       21 0.15004308E+00 0.27230584E+03</pdfrwt>
<totfact> 0.59239924E+03</totfact>
</mgrwt>
</event>
<event>
 5    0  0.1324511E+000  0.2387764E+03  0.7546771E-02  0.1120611E+00
         21   -1    0    0  504  501  0.00000000000E+00  0.00000000000E+00  0.16322600621E+03  0.16322600621E+03  0.00000000000E+00 0. -1.
         21   -1    0    0  501  502 -0.00000000000E+00 -0.00000000000E+00 -0.32228144491E+03  0.32228144491E+03  0.00000000000E+00 0. -1.
         25    1    1    2    0    0  0.72454716257E+01  0.20331417580E+03 -0.34247305099E+02  0.24121987656E+03  0.12500000000E+03 0.  0.
         21    1    1    2  503  502 -0.11298387783E+02 -0.78708371601E+02 -0.21487616811E+02  0.82367341846E+02  0.00000000000E+00 0. -1.
         21    1    1    2  504  503  0.40529161570E+01 -0.12460580420E+03 -0.10332051679E+03  0.16192023271E+03  0.00000000000E+00 0. -1.
<mgrwt>
<rscale>  4 0.23877636E+03</rscale>
<asrwt>0</asrwt>
<pdfrwt beam="1">  1       21 0.25111693E-01 0.23877636E+03</pdfrwt>
<pdfrwt beam="2">  1       21 0.49581760E-01 0.23877636E+03</pdfrwt>
<totfact> 0.57063944E+04</totfact>
</mgrwt>
</event>
