<event>
 5    0  0.1911311E+001  0.2417449E+03  0.7546771E-02  0.1118636E+00
         21   -1    0    0  503  501  0.00000000000E+00  0.00000000000E+00  0.10588860750E+03  0.10588860750E+03  0.00000000000E+00 0. -1.
         21   -1    0    0  501  502 -0.00000000000E+00 -0.00000000000E+00 -0.79762344338E+03  0.79762344338E+03  0.00000000000E+00 0. -1.
         25    1    1    2    0    0 -0.12834153882E+03 -0.17325632390E+03 -0.55876211334E+03  0.61182465107E+03  0.12500000000E+03 0.  0.
         21    1    1    2  503  504 -0.87613691163E+01  0.20730331502E+02 -0.75376456507E+02  0.78664594504E+02  0.00000000000E+00 0. -1.
         21    1    1    2  504  502  0.13710290793E+03  0.15252599240E+03 -0.57596266032E+02  0.21302280531E+03  0.00000000000E+00 0. -1.
<mgrwt>
<rscale>  4 0.24174486E+03</rscale>
<asrwt>0</asrwt>
<pdfrwt beam="1">  1       21 0.16290555E-01 0.24174486E+03</pdfrwt>
<pdfrwt beam="2">  1       21 0.12271130E+00 0.24174486E+03</pdfrwt>
<totfact> 0.16353277E+04</totfact>
</mgrwt>
</event>
<event>
 5    0  0.1911311E+001  0.2751400E+03  0.7546771E-02  0.1098373E+00
         21   -1    0    0  502  501  0.00000000000E+00  0.00000000000E+00  0.39943570785E+03  0.39943570785E+03  0.00000000000E+00 0. -1.
         21   -1    0    0  504  502 -0.00000000000E+00 -0.00000000000E+00 -0.59846116404E+03  0.59846116404E+03  0.00000000000E+00 0. -1.
         25    1    1    2    0    0  0.22827178458E+03  0.18835549061E+03 -0.34500370113E+03  0.47142162898E+03  0.12500000000E+03 0.  0.
         21    1    1    2  503  501 -0.17766088316E+03 -0.16094644467E+03  0.28712609638E+03  0.37404350373E+03  0.00000000000E+00 0. -1.
         21    1    1    2  504  503 -0.50610901425E+02 -0.27409045945E+02 -0.14114785144E+03  0.15243173918E+03  0.00000000000E+00 0. -1.
<mgrwt>
<rscale>  4 0.27513999E+03</rscale>
<asrwt>0</asrwt>
<pdfrwt beam="1">  1       21 0.61451648E-01 0.27513999E+03</pdfrwt>
<pdfrwt beam="2">  1       21 0.92070947E-01 0.27513999E+03</pdfrwt>
<totfact> 0.23047724E+03</totfact>
</mgrwt>
</event>
<event>
 5    0  0.1911311E+001  0.2682228E+03  0.7546771E-02  0.1102301E+00
         21   -1    0    0  503  501  0.00000000000E+00  0.00000000000E+00  0.10704136019E+03  0.10704136019E+03  0.00000000000E+00 0. -1.
         21   -1    0    0  501  502 -0.00000000000E+00 -0.00000000000E+00 -0.63646625449E+03  0.63646625449E+03  0.00000000000E+00 0. -1.
         25    1    1    2    0    0  0.23272648817E+03 -0.46441873485E+02 -0.34465942448E+03  0.43673056315E+03  0.12500000000E+03 0.  0.
         21    1    1    2  503  504 -0.34584138610E+02  0.11707075689E+02 -0.47342503682E+01  0.36817541894E+02  0.00000000000E+00 0. -1.
         21    1    1    2  504  502 -0.19814234956E+03  0.34734797796E+02 -0.18003121944E+03  0.26995950963E+03  0.00000000000E+00 0. -1.
<mgrwt>
<rscale>  4 0.26822279E+03</rscale>
<asrwt>0</asrwt>
<pdfrwt beam="1">  1       21 0.16467902E-01 0.26822279E+03</pdfrwt>
<pdfrwt beam="2">  1       21 0.97917884E-01 0.26822279E+03</pdfrwt>
<totfact> 0.27458855E+04</totfact>
</mgrwt>
</event>
<event>
 5    0  0.1911311E+001  0.2849306E+03  0.7546771E-02  0.1093026E+00
         21   -1    0    0  504  501  0.00000000000E+00  0.00000000000E+00  0.18906405879E+03  0.18906405879E+03  0.00000000000E+00 0. -1.
         21   -1    0    0  501  502 -0.00000000000E+00 -0.00000000000E+00 -0.49614103593E+03  0.49614103593E+03  0.00000000000E+00 0. -1.
         25    1    1    2    0    0 -0.71424277089E+02  0.21722968162E+03 -0.22994467411E+03  0.34754814787E+03  0.12500000000E+03 0.  0.
         21    1    1    2  503  502  0.77425592833E+02 -0.25884317851E+03 -0.25947482659E+02  0.27141810062E+03  0.00000000000E+00 0. -1.
         21    1    1    2  504  503 -0.60013157447E+01  0.41613496891E+02 -0.51184820373E+02  0.66238846237E+02  0.00000000000E+00 0.  1.
<mgrwt>
<rscale>  4 0.28493062E+03</rscale>
<asrwt>0</asrwt>
<pdfrwt beam="1">  1       21 0.29086778E-01 0.28493062E+03</pdfrwt>
<pdfrwt beam="2">  1       21 0.76329390E-01 0.28493062E+03</pdfrwt>
<totfact> 0.16469809E+04</totfact>
</mgrwt>
</event>
<event>
 5    0  0.1911311E+001  0.3065556E+03  0.7546771E-02  0.1082009E+00
         21   -1    0    0  502  501  0.00000000000E+00  0.00000000000E+00  0.15222003512E+03  0.15222003512E+03  0.00000000000E+00 0. -1.
         21   -1    0    0  504  502 -0.00000000000E+00 -0.00000000000E+00 -0.65963634871E+03  0.65963634871E+03  0.00000000000E+00 0. -1.
         25    1    1    2    0    0 -0.25993405762E+03  0.78240551341E+02 -0.35061381278E+03  0.46069767082E+03  0.12500000000E+03 0.  0.
         21    1    1    2  503  501  0.26547434570E+03 -0.10305327577E+03 -0.12650916984E+03  0.31161061587E+03  0.00000000000E+00 0. -1.
         21    1    1    2  504  503 -0.55402880785E+01  0.24812724429E+02 -0.30293330971E+02  0.39548097133E+02  0.00000000000E+00 0.  1.
<mgrwt>
<rscale>  4 0.30655557E+03</rscale>
<asrwt>0</asrwt>
<pdfrwt beam="1">  1       21 0.23418467E-01 0.30655557E+03</pdfrwt>
<pdfrwt beam="2">  1       21 0.10148252E+00 0.30655557E+03</pdfrwt>
<totfact> 0.12775790E+04</totfact>
</mgrwt>
</event>
<event>
 5    0  0.1911311E+001  0.2898305E+03  0.7546771E-02  0.1090438E+00
         21   -1    0    0  502  501  0.00000000000E+00  0.00000000000E+00  0.44063878045E+03  0.44063878045E+03  0.00000000000E+00 0.  1.
         21   -1    0    0  504  502 -0.00000000000E+00 -0.00000000000E+00 -0.22566534644E+03  0.22566534644E+03  0.00000000000E+00 0.  1.
         25    1    1    2    0    0  0.14729184136E+03  0.23973363160E+03  0.69337217143E+02  0.31559428121E+03  0.12500000000E+03 0.  0.
         21    1    1    2  503  501 -0.11250473452E+03 -0.22455012451E+03  0.17207757393E+03  0.30445158097E+03  0.00000000000E+00 0.  1.
         21    1    1    2  504  503 -0.34787106844E+02 -0.15183507094E+02 -0.26441357069E+02  0.46258264709E+02  0.00000000000E+00 0. -1.
<mgrwt>
<rscale>  4 0.28983048E+03</rscale>
<asrwt>0</asrwt>
<pdfrwt beam="1">  1       21 0.67790581E-01 0.28983048E+03</pdfrwt>
<pdfrwt beam="2">  1       21 0.34717746E-01 0.28983048E+03</pdfrwt>
<totfact> 0.15096605E+04</totfact>
</mgrwt>
</event>
