<event>
 4    0  0.1264838E-002  0.5621239E+03  0.7546771E-02  0.9987260E-01
         -1   -1    0    0    0  501 -0.00000000000E+00  0.00000000000E+00  0.73155055565E+02  0.73155055565E+02  0.00000000000E+00 0.  1.
          1   -1    0    0  502    0  0.00000000000E+00 -0.00000000000E+00 -0.10798409417E+04  0.10798409417E+04  0.00000000000E+00 0. -1.
         25    1    1    2    0    0  0.88434756763E+02  0.21802576262E+03 -0.78785039803E+03  0.83167853709E+03  0.12500000000E+03 0.  0.
         21    1    1    2  502  501 -0.88434756763E+02 -0.21802576262E+03 -0.21883548815E+03  0.32131746022E+03  0.00000000000E+00 0.  1.
<mgrwt>
<rscale>  3 0.56212392E+03</rscale>
<asrwt>0</asrwt>
<pdfrwt beam="1">  1        1 0.16612938E+00 0.56212392E+03</pdfrwt>
<pdfrwt beam="2">  1       -1 0.11254623E-01 0.56212392E+03</pdfrwt>
<totfact> 0.69803152E+02</totfact>
</mgrwt>
</event>
<event>
 4    0  0.1264838E-002  0.4983985E+03  0.7546771E-02  0.1014198E+00
         -1   -1    0    0    0  501 -0.00000000000E+00  0.00000000000E+00  0.39253361908E+02  0.39253361908E+02  0.00000000000E+00 0.  1.
          1   -1    0    0  502    0  0.00000000000E+00 -0.00000000000E+00 -0.15820370907E+04  0.15820370907E+04  0.00000000000E+00 0. -1.
         25    1    1    2    0    0 -0.22265111791E+03 -0.12247674779E+02 -0.10455223621E+04  0.10763203685E+04  0.12500000000E+03 0.  0.
         21    1    1    2  502  501  0.22265111791E+03  0.12247674779E+02 -0.49726136663E+03  0.54497008412E+03  0.00000000000E+00 0.  1.
<mgrwt>
<rscale>  3 0.49839853E+03</rscale>
<asrwt>0</asrwt>
<pdfrwt beam="1">  1        1 0.24339030E+00 0.49839853E+03</pdfrwt>
<pdfrwt beam="2">  1       -1 0.60389792E-02 0.49839853E+03</pdfrwt>
<totfact> 0.82287885E+02</totfact>
</mgrwt>
</event>
<event>
 4    0  0.1264838E-002  0.9666077E+03  0.7546771E-02  0.9345947E-01
         -2   -1    0    0    0  501 -0.00000000000E+00  0.00000000000E+00  0.18821226446E+03  0.18821226446E+03  0.00000000000E+00 0. -1.
          2   -1    0    0  502    0  0.00000000000E+00 -0.00000000000E+00 -0.12410595869E+04  0.12410595869E+04  0.00000000000E+00 0.  1.
         25    1    1    2    0    0 -0.46092520298E+03 -0.10354132873E+03 -0.45892822882E+03  0.67038270317E+03  0.12500000000E+03 0.  0.
         21    1    1    2  502  501  0.46092520298E+03  0.10354132873E+03 -0.59391909364E+03  0.75888914822E+03  0.00000000000E+00 0.  1.
<mgrwt>
<rscale>  3 0.96660775E+03</rscale>
<asrwt>0</asrwt>
<pdfrwt beam="1">  1        2 0.19093224E+00 0.96660775E+03</pdfrwt>
<pdfrwt beam="2">  1       -2 0.28955733E-01 0.96660775E+03</pdfrwt>
<totfact> 0.19582415E+02</totfact>
</mgrwt>
</event>
<event>
 4    0  0.1264838E-002  0.6130419E+03  0.7546771E-02  0.9878712E-01
          1   -1    0    0  502    0  0.00000000000E+00  0.00000000000E+00  0.26011972966E+03  0.26011972966E+03  0.00000000000E+00 0.  1.
         -1   -1    0    0    0  501 -0.00000000000E+00 -0.00000000000E+00 -0.36119936624E+03  0.36119936624E+03  0.00000000000E+00 0. -1.
         25    1    1    2    0    0  0.17662400856E+03  0.22391144602E+03  0.18827802531E+02  0.31194849287E+03  0.12500000000E+03 0.  0.
         21    1    1    2  502  501 -0.17662400856E+03 -0.22391144602E+03 -0.11990743911E+03  0.30937060302E+03  0.00000000000E+00 0.  1.
<mgrwt>
<rscale>  3 0.61304186E+03</rscale>
<asrwt>0</asrwt>
<pdfrwt beam="1">  1        1 0.40018420E-01 0.61304186E+03</pdfrwt>
<pdfrwt beam="2">  1       -1 0.55569133E-01 0.61304186E+03</pdfrwt>
<totfact> 0.35058708E+02</totfact>
</mgrwt>
</event>
<event>
 4    0  0.1264838E-002  0.4750793E+03  0.7546771E-02  0.1020496E+00
          1   -1    0    0  502    0  0.00000000000E+00  0.00000000000E+00  0.52911183466E+03  0.52911183466E+03  0.00000000000E+00 0.  1.
         -1   -1    0    0    0  501 -0.00000000000E+00 -0.00000000000E+00 -0.10664113652E+03  0.10664113652E+03  0.00000000000E+00 0. -1.
         25    1    1    2    0    0 -0.12331939418E+03  0.17881524562E+03  0.17067612385E+03  0.30321263876E+03  0.12500000000E+03 0.  0.
         21    1    1    2  502  501  0.12331939418E+03 -0.17881524562E+03  0.25179457429E+03  0.33254033243E+03  0.00000000000E+00 0.  1.
<mgrwt>
<rscale>  3 0.47507931E+03</rscale>
<asrwt>0</asrwt>
<pdfrwt beam="1">  1        1 0.81401819E-01 0.47507931E+03</pdfrwt>
<pdfrwt beam="2">  1       -1 0.16406329E-01 0.47507931E+03</pdfrwt>
<totfact> 0.11665768E+03</totfact>
</mgrwt>
</event>
<event>
 4    0  0.1264838E-002  0.5081551E+03  0.7546771E-02  0.1011672E+00
         -4   -1    0    0    0  501 -0.00000000000E+00  0.00000000000E+00  0.12253518494E+04  0.12253518494E+04  0.00000000000E+00 0. -1.
          4   -1    0    0  502    0  0.00000000000E+00 -0.00000000000E+00 -0.52683157177E+02  0.52683157177E+02  0.00000000000E+00 0.  1.
         25    1    1    2    0    0 -0.12342192524E+03  0.19374374130E+03  0.45863227183E+03  0.52795659830E+03  0.12500000000E+03 0.  0.
         21    1    1    2  502  501  0.12342192524E+03 -0.19374374130E+03  0.71403642043E+03  0.75007840832E+03  0.00000000000E+00 0. -1.
<mgrwt>
<rscale>  3 0.50815511E+03</rscale>
<asrwt>0</asrwt>
<pdfrwt beam="1">  1        4 0.81051020E-02 0.50815511E+03</pdfrwt>
<pdfrwt beam="2">  1       -4 0.18851565E+00 0.50815511E+03</pdfrwt>
<totfact> 0.35428608E+01</totfact>
</mgrwt>
</event>
<event>
 4    0  0.1264838E-002  0.7851553E+03  0.7546771E-02  0.9581756E-01
          1   -1    0    0  502    0  0.00000000000E+00  0.00000000000E+00  0.79663179225E+03  0.79663179225E+03  0.00000000000E+00 0. -1.
         -1   -1    0    0    0  501 -0.00000000000E+00 -0.00000000000E+00 -0.19346105320E+03  0.19346105320E+03  0.00000000000E+00 0.  1.
         25    1    1    2    0    0  0.23474256038E+03 -0.55267255518E+02  0.68382769783E+03  0.73580150823E+03  0.12500000000E+03 0.  0.
         21    1    1    2  502  501 -0.23474256038E+03  0.55267255518E+02 -0.80656958789E+02  0.25429133722E+03  0.00000000000E+00 0.  1.
<mgrwt>
<rscale>  3 0.78515534E+03</rscale>
<asrwt>0</asrwt>
<pdfrwt beam="1">  1        1 0.12255874E+00 0.78515534E+03</pdfrwt>
<pdfrwt beam="2">  1       -1 0.29763239E-01 0.78515534E+03</pdfrwt>
<totfact> 0.23263300E+02</totfact>
</mgrwt>
</event>
<event>
 4    0  0.1264838E-002  0.6731179E+03  0.7546771E-02  0.9764342E-01
          2   -1    0    0  502    0  0.00000000000E+00  0.00000000000E+00  0.60707645500E+03  0.60707645500E+03  0.00000000000E+00 0. -1.
         -2   -1    0    0    0  501 -0.00000000000E+00 -0.00000000000E+00 -0.18658591345E+03  0.18658591345E+03  0.00000000000E+00 0.  1.
         25    1    1    2    0    0  0.12427341211E+03 -0.27821311935E+03  0.35062102041E+03  0.48104731648E+03  0.12500000000E+03 0.  0.
         21    1    1    2  502  501 -0.12427341211E+03  0.27821311935E+03  0.69869521143E+02  0.31261505198E+03  0.00000000000E+00 0.  1.
<mgrwt>
<rscale>  3 0.67311786E+03</rscale>
<asrwt>0</asrwt>
<pdfrwt beam="1">  1        2 0.93396377E-01 0.67311786E+03</pdfrwt>
<pdfrwt beam="2">  1       -2 0.28705525E-01 0.67311786E+03</pdfrwt>
<totfact> 0.54744649E+02</totfact>
</mgrwt>
</event>
<event>
 4    0  0.1264838E-002  0.5043877E+03  0.7546771E-02  0.1012640E+00
          2   -1    0    0  502    0  0.00000000000E+00  0.00000000000E+00  0.37718345296E+03  0.37718345296E+03  0.00000000000E+00 0. -1.
         -2   -1    0    0    0  501 -0.00000000000E+00 -0.00000000000E+00 -0.16862281638E+03  0.16862281638E+03  0.00000000000E+00 0.  1.
         25    1    1    2    0    0 -0.88579467150E+02 -0.20329538399E+03  0.21098938465E+02  0.25543198773E+03  0.12500000000E+03 0.  0.
         21    1    1    2  502  501  0.88579467150E+02  0.20329538399E+03  0.18746169812E+03  0.29037428160E+03  0.00000000000E+00 0. -1.
<mgrwt>
<rscale>  3 0.50438769E+03</rscale>
<asrwt>0</asrwt>
<pdfrwt beam="1">  1        2 0.58028223E-01 0.50438769E+03</pdfrwt>
<pdfrwt beam="2">  1       -2 0.25941972E-01 0.50438769E+03</pdfrwt>
<totfact> 0.11392998E+03</totfact>
</mgrwt>
</event>
<event>
 4    0  0.1264838E-002  0.6875324E+03  0.7546771E-02  0.9738794E-01
         -2   -1    0    0    0  501 -0.00000000000E+00  0.00000000000E+00  0.91358054784E+02  0.91358054784E+02  0.00000000000E+00 0. -1.
          2   -1    0    0  502    0  0.00000000000E+00 -0.00000000000E+00 -0.12935389315E+04  0.12935389315E+04  0.00000000000E+00 0.  1.
         25    1    1    2    0    0  0.10920039246E+03  0.23693686869E+03 -0.10358662247E+04  0.10755034360E+04  0.12500000000E+03 0.  0.
         21    1    1    2  502  501 -0.10920039246E+03 -0.23693686869E+03 -0.16631465201E+03  0.30939355024E+03  0.00000000000E+00 0.  1.
<mgrwt>
<rscale>  3 0.68753240E+03</rscale>
<asrwt>0</asrwt>
<pdfrwt beam="1">  1        2 0.19900598E+00 0.68753240E+03</pdfrwt>
<pdfrwt beam="2">  1       -2 0.14055086E-01 0.68753240E+03</pdfrwt>
<totfact> 0.65947928E+02</totfact>
</mgrwt>
</event>
<event>
 4    0  0.1264838E-002  0.9927819E+03  0.7546771E-02  0.9316497E-01
         -2   -1    0    0    0  501 -0.00000000000E+00  0.00000000000E+00  0.75594906141E+02  0.75594906141E+02  0.00000000000E+00 0. -1.
          2   -1    0    0  502    0  0.00000000000E+00 -0.00000000000E+00 -0.32595312699E+04  0.32595312699E+04  0.00000000000E+00 0.  1.
         25    1    1    2    0    0 -0.23786551172E+03 -0.12879317218E+03 -0.25061434232E+03  0.38935874389E+03  0.12500000000E+03 0.  0.
         21    1    1    2  502  501  0.23786551172E+03  0.12879317218E+03 -0.29333220214E+04  0.29457674321E+04  0.00000000000E+00 0.  1.
<mgrwt>
<rscale>  3 0.99278187E+03</rscale>
<asrwt>0</asrwt>
<pdfrwt beam="1">  1        2 0.50146625E+00 0.99278187E+03</pdfrwt>
<pdfrwt beam="2">  1       -2 0.11629988E-01 0.99278187E+03</pdfrwt>
<totfact> 0.65666797E+01</totfact>
</mgrwt>
</event>
<event>
 4    0  0.1264838E-002  0.5532354E+03  0.7546771E-02  0.1000748E+00
         -2   -1    0    0    0  501 -0.00000000000E+00  0.00000000000E+00  0.58624054018E+02  0.58624054018E+02  0.00000000000E+00 0.  1.
          2   -1    0    0  502    0  0.00000000000E+00 -0.00000000000E+00 -0.13052211172E+04  0.13052211172E+04  0.00000000000E+00 0. -1.
         25    1    1    2    0    0 -0.14371729261E+01 -0.24896003581E+03 -0.86020744759E+03  0.90419302020E+03  0.12500000000E+03 0.  0.
         21    1    1    2  502  501  0.14371729261E+01  0.24896003581E+03 -0.38638961562E+03  0.45965215105E+03  0.00000000000E+00 0. -1.
<mgrwt>
<rscale>  3 0.55323540E+03</rscale>
<asrwt>0</asrwt>
<pdfrwt beam="1">  1        2 0.20080324E+00 0.55323540E+03</pdfrwt>
<pdfrwt beam="2">  1       -2 0.90190854E-02 0.55323540E+03</pdfrwt>
<totfact> 0.13513245E+03</totfact>
</mgrwt>
</event>
<event>
 4    0  0.1264838E-002  0.5813274E+03  0.7546771E-02  0.9944921E-01
          4   -1    0    0  502    0  0.00000000000E+00  0.00000000000E+00  0.11014181837E+03  0.11014181837E+03  0.00000000000E+00 0.  1.
         -4   -1    0    0    0  501 -0.00000000000E+00 -0.00000000000E+00 -0.76706006519E+03  0.76706006519E+03  0.00000000000E+00 0. -1.
         25    1    1    2    0    0 -0.21033670825E+03  0.10145697621E+03 -0.11821618446E+03  0.29006053700E+03  0.12500000000E+03 0.  0.
         21    1    1    2  502  501  0.21033670825E+03 -0.10145697621E+03 -0.53870206235E+03  0.58714134656E+03  0.00000000000E+00 0.  1.
<mgrwt>
<rscale>  3 0.58132741E+03</rscale>
<asrwt>0</asrwt>
<pdfrwt beam="1">  1        4 0.16944895E-01 0.58132741E+03</pdfrwt>
<pdfrwt beam="2">  1       -4 0.11800924E+00 0.58132741E+03</pdfrwt>
<totfact> 0.34071940E+01</totfact>
</mgrwt>
</event>
<event>
 4    0  0.1264838E-002  0.4692836E+03  0.7546771E-02  0.1022123E+00
          2   -1    0    0  502    0  0.00000000000E+00  0.00000000000E+00  0.14905199623E+04  0.14905199623E+04  0.00000000000E+00 0. -1.
         -2   -1    0    0    0  501 -0.00000000000E+00 -0.00000000000E+00 -0.36937969823E+02  0.36937969823E+02  0.00000000000E+00 0.  1.
         25    1    1    2    0    0 -0.67778544295E+02  0.19661614294E+03  0.56567632187E+03  0.61552135614E+03  0.12500000000E+03 0.  0.
         21    1    1    2  502  501  0.67778544295E+02 -0.19661614294E+03  0.88790567058E+03  0.91193657596E+03  0.00000000000E+00 0. -1.
<mgrwt>
<rscale>  3 0.46928363E+03</rscale>
<asrwt>0</asrwt>
<pdfrwt beam="1">  1        2 0.22931072E+00 0.46928363E+03</pdfrwt>
<pdfrwt beam="2">  1       -2 0.56827657E-02 0.46928363E+03</pdfrwt>
<totfact> 0.22129107E+03</totfact>
</mgrwt>
</event>
<event>
 4    0  0.1264838E-002  0.4888467E+03  0.7546771E-02  0.1016732E+00
         -1   -1    0    0    0  501 -0.00000000000E+00  0.00000000000E+00  0.79158565695E+02  0.79158565695E+02  0.00000000000E+00 0.  1.
          1   -1    0    0  502    0  0.00000000000E+00 -0.00000000000E+00 -0.75472268474E+03  0.75472268474E+03  0.00000000000E+00 0. -1.
         25    1    1    2    0    0 -0.21504481434E+02 -0.22580132323E+03 -0.40617653708E+03  0.48171885947E+03  0.12500000000E+03 0.  0.
         21    1    1    2  502  501  0.21504481434E+02  0.22580132323E+03 -0.26938758196E+03  0.35216239097E+03  0.00000000000E+00 0.  1.
<mgrwt>
<rscale>  3 0.48884666E+03</rscale>
<asrwt>0</asrwt>
<pdfrwt beam="1">  1        1 0.11611118E+00 0.48884666E+03</pdfrwt>
<pdfrwt beam="2">  1       -1 0.12178241E-01 0.48884666E+03</pdfrwt>
<totfact> 0.11262171E+03</totfact>
</mgrwt>
</event>
<event>
 4    0  0.1264838E-002  0.5248299E+03  0.7546771E-02  0.1007494E+00
         -2   -1    0    0    0  501 -0.00000000000E+00  0.00000000000E+00  0.60032263388E+02  0.60032263388E+02  0.00000000000E+00 0.  1.
          2   -1    0    0  502    0  0.00000000000E+00 -0.00000000000E+00 -0.11470766652E+04  0.11470766652E+04  0.00000000000E+00 0. -1.
         25    1    1    2    0    0 -0.11180616803E+03 -0.19184443456E+03 -0.82594708756E+03  0.86436016667E+03  0.12500000000E+03 0.  0.
         21    1    1    2  502  501  0.11180616803E+03  0.19184443456E+03 -0.26109731424E+03  0.34274876191E+03  0.00000000000E+00 0.  1.
<mgrwt>
<rscale>  3 0.52482991E+03</rscale>
<asrwt>0</asrwt>
<pdfrwt beam="1">  1        2 0.17647332E+00 0.52482991E+03</pdfrwt>
<pdfrwt beam="2">  1       -2 0.92357337E-02 0.52482991E+03</pdfrwt>
<totfact> 0.16084358E+03</totfact>
</mgrwt>
</event>
<event>
 4    0  0.1412209E-002  0.7222529E+03  0.7546771E-02  0.9679916E-01
         -1   -1    0    0    0  501 -0.00000000000E+00  0.00000000000E+00  0.26055425457E+03  0.26055425457E+03  0.00000000000E+00 0. -1.
          1   -1    0    0  502    0  0.00000000000E+00 -0.00000000000E+00 -0.50051879998E+03  0.50051879998E+03  0.00000000000E+00 0.  1.
         25    1    1    2    0    0  0.20646052842E+03  0.97542585780E+02  0.15636489265E+03  0.30367002732E+03  0.12500000000E+03 0.  0.
         21    1    1    2  502  501 -0.20646052842E+03 -0.97542585780E+02 -0.39632943806E+03  0.45740302722E+03  0.00000000000E+00 0.  1.
<mgrwt>
<rscale>  3 0.72225287E+03</rscale>
<asrwt>0</asrwt>
<pdfrwt beam="1">  1        1 0.77002891E-01 0.72225287E+03</pdfrwt>
<pdfrwt beam="2">  1       -1 0.40085271E-01 0.72225287E+03</pdfrwt>
<totfact> 0.27185970E+02</totfact>
</mgrwt>
</event>
<event>
 4    0  0.1264838E-002  0.4427575E+03  0.7546771E-02  0.1029904E+00
         -2   -1    0    0    0  501 -0.00000000000E+00  0.00000000000E+00  0.18791339505E+02  0.18791339505E+02  0.00000000000E+00 0. -1.
          2   -1    0    0  502    0  0.00000000000E+00 -0.00000000000E+00 -0.26080391473E+04  0.26080391473E+04  0.00000000000E+00 0.  1.
         25    1    1    2    0    0  0.68193844867E+02  0.19016020836E+03 -0.15543433412E+04  0.15723929305E+04  0.12500000000E+03 0.  0.
         21    1    1    2  502  501 -0.68193844867E+02 -0.19016020836E+03 -0.10349044665E+04  0.10544375563E+04  0.00000000000E+00 0.  1.
<mgrwt>
<rscale>  3 0.44275749E+03</rscale>
<asrwt>0</asrwt>
<pdfrwt beam="1">  1        2 0.40123667E+00 0.44275749E+03</pdfrwt>
<pdfrwt beam="2">  1       -2 0.28909762E-02 0.44275749E+03</pdfrwt>
<totfact> 0.15367570E+03</totfact>
</mgrwt>
</event>
<event>
 4    0  0.1264838E-002  0.6531731E+03  0.7546771E-02  0.9800843E-01
          2   -1    0    0  502    0  0.00000000000E+00  0.00000000000E+00  0.14991357096E+04  0.14991357096E+04  0.00000000000E+00 0.  1.
         -2   -1    0    0    0  501 -0.00000000000E+00 -0.00000000000E+00 -0.71146836845E+02  0.71146836845E+02  0.00000000000E+00 0. -1.
         25    1    1    2    0    0 -0.27271232794E+03  0.22062463796E+02  0.11135942897E+04  0.11535059637E+04  0.12500000000E+03 0.  0.
         21    1    1    2  502  501  0.27271232794E+03 -0.22062463796E+02  0.31439458306E+03  0.41677658281E+03  0.00000000000E+00 0. -1.
<mgrwt>
<rscale>  3 0.65317307E+03</rscale>
<asrwt>0</asrwt>
<pdfrwt beam="1">  1        2 0.23063624E+00 0.65317307E+03</pdfrwt>
<pdfrwt beam="2">  1       -2 0.10945668E-01 0.65317307E+03</pdfrwt>
<totfact> 0.76528771E+02</totfact>
</mgrwt>
</event>
<event>
 4    0  0.1264838E-002  0.4975583E+03  0.7546771E-02  0.1014418E+00
         -4   -1    0    0    0  501 -0.00000000000E+00  0.00000000000E+00  0.26230470144E+03  0.26230470144E+03  0.00000000000E+00 0. -1.
          4   -1    0    0  502    0  0.00000000000E+00 -0.00000000000E+00 -0.23595101311E+03  0.23595101311E+03  0.00000000000E+00 0.  1.
         25    1    1    2    0    0 -0.16942412990E+03  0.14443959684E+03 -0.55064774856E+02  0.26119812855E+03  0.12500000000E+03 0.  0.
         21    1    1    2  502  501  0.16942412990E+03 -0.14443959684E+03  0.81418463190E+02  0.23705758599E+03  0.00000000000E+00 0. -1.
<mgrwt>
<rscale>  3 0.49755828E+03</rscale>
<asrwt>0</asrwt>
<pdfrwt beam="1">  1        4 0.36300156E-01 0.49755828E+03</pdfrwt>
<pdfrwt beam="2">  1       -4 0.40354570E-01 0.49755828E+03</pdfrwt>
<totfact> 0.86254246E+01</totfact>
</mgrwt>
</event>
<event>
 4    0  0.1264838E-002  0.4768981E+03  0.7546771E-02  0.1019991E+00
         -1   -1    0    0    0  501 -0.00000000000E+00  0.00000000000E+00  0.59465855720E+02  0.59465855720E+02  0.00000000000E+00 0. -1.
          1   -1    0    0  502    0  0.00000000000E+00 -0.00000000000E+00 -0.95614430043E+03  0.95614430043E+03  0.00000000000E+00 0.  1.
         25    1    1    2    0    0 -0.14222154616E+03  0.15713206715E+03 -0.62034520979E+03  0.66736094734E+03  0.12500000000E+03 0.  0.
         21    1    1    2  502  501  0.14222154616E+03 -0.15713206715E+03 -0.27633323492E+03  0.34824920882E+03  0.00000000000E+00 0. -1.
<mgrwt>
<rscale>  3 0.47689806E+03</rscale>
<asrwt>0</asrwt>
<pdfrwt beam="1">  1        1 0.14709912E+00 0.47689806E+03</pdfrwt>
<pdfrwt beam="2">  1       -1 0.91485936E-02 0.47689806E+03</pdfrwt>
<totfact> 0.12048887E+03</totfact>
</mgrwt>
</event>
<event>
 4    0  0.1264838E-002  0.4780112E+03  0.7546771E-02  0.1019683E+00
         -2   -1    0    0    0  501 -0.00000000000E+00  0.00000000000E+00  0.49391880794E+02  0.49391880794E+02  0.00000000000E+00 0.  1.
          2   -1    0    0  502    0  0.00000000000E+00 -0.00000000000E+00 -0.11565397367E+04  0.11565397367E+04  0.00000000000E+00 0. -1.
         25    1    1    2    0    0  0.21081958671E+03  0.65173290136E+02 -0.51634222872E+03  0.57526233411E+03  0.12500000000E+03 0.  0.
         21    1    1    2  502  501 -0.21081958671E+03 -0.65173290136E+02 -0.59080562720E+03  0.63066928340E+03  0.00000000000E+00 0.  1.
<mgrwt>
<rscale>  3 0.47801118E+03</rscale>
<asrwt>0</asrwt>
<pdfrwt beam="1">  1        2 0.17792917E+00 0.47801118E+03</pdfrwt>
<pdfrwt beam="2">  1       -2 0.75987519E-02 0.47801118E+03</pdfrwt>
<totfact> 0.21684980E+03</totfact>
</mgrwt>
</event>
<event>
 4    0  0.1264838E-002  0.6638820E+03  0.7546771E-02  0.9781074E-01
         -2   -1    0    0    0  501 -0.00000000000E+00  0.00000000000E+00  0.88217549142E+02  0.88217549142E+02  0.00000000000E+00 0. -1.
          2   -1    0    0  502    0  0.00000000000E+00 -0.00000000000E+00 -0.12490127118E+04  0.12490127118E+04  0.00000000000E+00 0.  1.
         25    1    1    2    0    0 -0.17469154048E+03  0.14542121852E+03 -0.10551717030E+04  0.10865895213E+04  0.12500000000E+03 0.  0.
         21    1    1    2  502  501  0.17469154048E+03 -0.14542121852E+03 -0.10562345967E+03  0.25064073960E+03  0.00000000000E+00 0.  1.
<mgrwt>
<rscale>  3 0.66388204E+03</rscale>
<asrwt>0</asrwt>
<pdfrwt beam="1">  1        2 0.19215580E+00 0.66388204E+03</pdfrwt>
<pdfrwt beam="2">  1       -2 0.13571931E-01 0.66388204E+03</pdfrwt>
<totfact> 0.74275123E+02</totfact>
</mgrwt>
</event>
<event>
 4    0  0.1264838E-002  0.5533731E+03  0.7546771E-02  0.1000716E+00
          1   -1    0    0  502    0  0.00000000000E+00  0.00000000000E+00  0.52818217542E+03  0.52818217542E+03  0.00000000000E+00 0.  1.
         -1   -1    0    0    0  501 -0.00000000000E+00 -0.00000000000E+00 -0.14494138446E+03  0.14494138446E+03  0.00000000000E+00 0. -1.
         25    1    1    2    0    0  0.22232689543E+03  0.10888555248E+03  0.30783786121E+03  0.41433616879E+03  0.12500000000E+03 0.  0.
         21    1    1    2  502  501 -0.22232689543E+03 -0.10888555248E+03  0.75402929748E+02  0.25878739109E+03  0.00000000000E+00 0.  1.
<mgrwt>
<rscale>  3 0.55337313E+03</rscale>
<asrwt>0</asrwt>
<pdfrwt beam="1">  1        1 0.81258795E-01 0.55337313E+03</pdfrwt>
<pdfrwt beam="2">  1       -1 0.22298675E-01 0.55337313E+03</pdfrwt>
<totfact> 0.70452020E+02</totfact>
</mgrwt>
</event>
<event>
 4    0  0.1264838E-002  0.8371824E+03  0.7546771E-02  0.9507704E-01
          2   -1    0    0  502    0  0.00000000000E+00  0.00000000000E+00  0.45007333208E+03  0.45007333208E+03  0.00000000000E+00 0.  1.
         -2   -1    0    0    0  501 -0.00000000000E+00 -0.00000000000E+00 -0.38931119670E+03  0.38931119670E+03  0.00000000000E+00 0. -1.
         25    1    1    2    0    0  0.18052656533E+03 -0.30428936605E+03  0.23729657875E+03  0.44397806857E+03  0.12500000000E+03 0.  0.
         21    1    1    2  502  501 -0.18052656533E+03  0.30428936605E+03 -0.17653444337E+03  0.39540646021E+03  0.00000000000E+00 0. -1.
<mgrwt>
<rscale>  3 0.83718239E+03</rscale>
<asrwt>0</asrwt>
<pdfrwt beam="1">  1        2 0.69242051E-01 0.83718239E+03</pdfrwt>
<pdfrwt beam="2">  1       -2 0.59894030E-01 0.83718239E+03</pdfrwt>
<totfact> 0.18192437E+02</totfact>
</mgrwt>
</event>
<event>
 4    0  0.1264838E-002  0.7493905E+03  0.7546771E-02  0.9636307E-01
          2   -1    0    0  502    0  0.00000000000E+00  0.00000000000E+00  0.10707458668E+04  0.10707458668E+04  0.00000000000E+00 0. -1.
         -2   -1    0    0    0  501 -0.00000000000E+00 -0.00000000000E+00 -0.13112029390E+03  0.13112029390E+03  0.00000000000E+00 0.  1.
         25    1    1    2    0    0 -0.14688031782E+03  0.32561715692E+03  0.59733192028E+03  0.70712854817E+03  0.12500000000E+03 0.  0.
         21    1    1    2  502  501  0.14688031782E+03 -0.32561715692E+03  0.34229365266E+03  0.49473761257E+03  0.00000000000E+00 0.  1.
<mgrwt>
<rscale>  3 0.74939045E+03</rscale>
<asrwt>0</asrwt>
<pdfrwt beam="1">  1        2 0.16473013E+00 0.74939045E+03</pdfrwt>
<pdfrwt beam="2">  1       -2 0.20172354E-01 0.74939045E+03</pdfrwt>
<totfact> 0.48064362E+02</totfact>
</mgrwt>
</event>
<event>
 4    0  0.1264838E-002  0.4622833E+03  0.7546771E-02  0.1024121E+00
          1   -1    0    0  502    0  0.00000000000E+00  0.00000000000E+00  0.21411089171E+04  0.21411089171E+04  0.00000000000E+00 0.  1.
         -1   -1    0    0    0  501 -0.00000000000E+00 -0.00000000000E+00 -0.24952711426E+02  0.24952711426E+02  0.00000000000E+00 0. -1.
         25    1    1    2    0    0  0.19073073009E+03  0.96773317226E+02  0.11940161222E+04  0.12194436380E+04  0.12500000000E+03 0.  0.
         21    1    1    2  502  501 -0.19073073009E+03 -0.96773317226E+02  0.92214008352E+03  0.94661799051E+03  0.00000000000E+00 0. -1.
<mgrwt>
<rscale>  3 0.46228335E+03</rscale>
<asrwt>0</asrwt>
<pdfrwt beam="1">  1        1 0.32940123E+00 0.46228335E+03</pdfrwt>
<pdfrwt beam="2">  1       -1 0.38388804E-02 0.46228335E+03</pdfrwt>
<totfact> 0.70012050E+02</totfact>
</mgrwt>
</event>
<event>
 4    0  0.1264838E-002  0.7646585E+03  0.7546771E-02  0.9612630E-01
          1   -1    0    0  502    0  0.00000000000E+00  0.00000000000E+00  0.36367435439E+03  0.36367435439E+03  0.00000000000E+00 0. -1.
         -1   -1    0    0    0  501 -0.00000000000E+00 -0.00000000000E+00 -0.40194101881E+03  0.40194101881E+03  0.00000000000E+00 0.  1.
         25    1    1    2    0    0 -0.29656915536E+03 -0.19667679044E+03  0.89268805514E+02  0.38759378664E+03  0.12500000000E+03 0.  0.
         21    1    1    2  502  501  0.29656915536E+03  0.19667679044E+03 -0.12753546993E+03  0.37802158655E+03  0.00000000000E+00 0. -1.
<mgrwt>
<rscale>  3 0.76465846E+03</rscale>
<asrwt>0</asrwt>
<pdfrwt beam="1">  1        1 0.55949901E-01 0.76465846E+03</pdfrwt>
<pdfrwt beam="2">  1       -1 0.61837080E-01 0.76465846E+03</pdfrwt>
<totfact> 0.18297477E+02</totfact>
</mgrwt>
</event>
<event>
 4    0  0.1264838E-002  0.5972089E+03  0.7546771E-02  0.9911214E-01
          1   -1    0    0  502    0  0.00000000000E+00  0.00000000000E+00  0.48496563382E+03  0.48496563382E+03  0.00000000000E+00 0.  1.
         -1   -1    0    0    0  501 -0.00000000000E+00 -0.00000000000E+00 -0.18385759543E+03  0.18385759543E+03  0.00000000000E+00 0. -1.
         25    1    1    2    0    0 -0.77099474564E+02 -0.22124841646E+03 -0.25599211173E+02  0.26678738796E+03  0.12500000000E+03 0.  0.
         21    1    1    2  502  501  0.77099474564E+02  0.22124841646E+03  0.32670724956E+03  0.40203584129E+03  0.00000000000E+00 0.  1.
<mgrwt>
<rscale>  3 0.59720889E+03</rscale>
<asrwt>0</asrwt>
<pdfrwt beam="1">  1        1 0.74610097E-01 0.59720889E+03</pdfrwt>
<pdfrwt beam="2">  1       -1 0.28285784E-01 0.59720889E+03</pdfrwt>
<totfact> 0.52817801E+02</totfact>
</mgrwt>
</event>
<event>
 4    0  0.1264838E-002  0.5778215E+03  0.7546771E-02  0.9952518E-01
          2   -1    0    0  502    0  0.00000000000E+00  0.00000000000E+00  0.24605122304E+04  0.24605122304E+04  0.00000000000E+00 0. -1.
         -2   -1    0    0    0  501 -0.00000000000E+00 -0.00000000000E+00 -0.33923600751E+02  0.33923600751E+02  0.00000000000E+00 0.  1.
         25    1    1    2    0    0  0.99368865448E+02 -0.24655191942E+03  0.95944150872E+03  0.10034017286E+04  0.12500000000E+03 0.  0.
         21    1    1    2  502  501 -0.99368865448E+02  0.24655191942E+03  0.14671471209E+04  0.14910341025E+04  0.00000000000E+00 0. -1.
<mgrwt>
<rscale>  3 0.57782155E+03</rscale>
<asrwt>0</asrwt>
<pdfrwt beam="1">  1        2 0.37854020E+00 0.57782155E+03</pdfrwt>
<pdfrwt beam="2">  1       -2 0.52190174E-02 0.57782155E+03</pdfrwt>
<totfact> 0.74494539E+02</totfact>
</mgrwt>
</event>
<event>
 4    0  0.1264838E-002  0.4445316E+03  0.7546771E-02  0.1029365E+00
          2   -1    0    0  502    0  0.00000000000E+00  0.00000000000E+00  0.84218300405E+03  0.84218300405E+03  0.00000000000E+00 0.  1.
         -2   -1    0    0    0  501 -0.00000000000E+00 -0.00000000000E+00 -0.58659550150E+02  0.58659550150E+02  0.00000000000E+00 0. -1.
         25    1    1    2    0    0 -0.18641318146E+03 -0.78168804660E+02  0.35744221986E+03  0.42924372655E+03  0.12500000000E+03 0.  0.
         21    1    1    2  502  501  0.18641318146E+03  0.78168804660E+02  0.42608123405E+03  0.47159882766E+03  0.00000000000E+00 0.  1.
<mgrwt>
<rscale>  3 0.44453156E+03</rscale>
<asrwt>0</asrwt>
<pdfrwt beam="1">  1        2 0.12956661E+00 0.44453156E+03</pdfrwt>
<pdfrwt beam="2">  1       -2 0.90245468E-02 0.44453156E+03</pdfrwt>
<totfact> 0.26041034E+03</totfact>
</mgrwt>
</event>
<event>
 4    0  0.1264838E-002  0.4611813E+03  0.7546771E-02  0.1024439E+00
          2   -1    0    0  502    0  0.00000000000E+00  0.00000000000E+00  0.77807543372E+03  0.77807543372E+03  0.00000000000E+00 0.  1.
         -2   -1    0    0    0  501 -0.00000000000E+00 -0.00000000000E+00 -0.68337916722E+02  0.68337916722E+02  0.00000000000E+00 0. -1.
         25    1    1    2    0    0 -0.19430360558E+03 -0.83024757835E+02  0.32291503044E+03  0.40564284592E+03  0.12500000000E+03 0.  0.
         21    1    1    2  502  501  0.19430360558E+03  0.83024757835E+02  0.38682248655E+03  0.44077050452E+03  0.00000000000E+00 0.  1.
<mgrwt>
<rscale>  3 0.46118133E+03</rscale>
<asrwt>0</asrwt>
<pdfrwt beam="1">  1        2 0.11970391E+00 0.46118133E+03</pdfrwt>
<pdfrwt beam="2">  1       -2 0.10513526E-01 0.46118133E+03</pdfrwt>
<totfact> 0.22596044E+03</totfact>
</mgrwt>
</event>
<event>
 4    0  0.1264838E-002  0.5091297E+03  0.7546771E-02  0.1011423E+00
         -2   -1    0    0    0  501 -0.00000000000E+00  0.00000000000E+00  0.13460129109E+03  0.13460129109E+03  0.00000000000E+00 0.  1.
          2   -1    0    0  502    0  0.00000000000E+00 -0.00000000000E+00 -0.48144609269E+03  0.48144609269E+03  0.00000000000E+00 0. -1.
         25    1    1    2    0    0 -0.16534497651E+03  0.16053993634E+03 -0.10626418202E+03  0.28289416537E+03  0.12500000000E+03 0.  0.
         21    1    1    2  502  501  0.16534497651E+03 -0.16053993634E+03 -0.24058061959E+03  0.33315321841E+03  0.00000000000E+00 0. -1.
<mgrwt>
<rscale>  3 0.50912971E+03</rscale>
<asrwt>0</asrwt>
<pdfrwt beam="1">  1        2 0.74068630E-01 0.50912971E+03</pdfrwt>
<pdfrwt beam="2">  1       -2 0.20707891E-01 0.50912971E+03</pdfrwt>
<totfact> 0.12917401E+03</totfact>
</mgrwt>
</event>
<event>
 4    0  0.1264838E-002  0.6229699E+03  0.7546771E-02  0.9858864E-01
          3   -1    0    0  502    0  0.00000000000E+00  0.00000000000E+00  0.90463952680E+02  0.90463952680E+02  0.00000000000E+00 0. -1.
         -3   -1    0    0    0  501 -0.00000000000E+00 -0.00000000000E+00 -0.10725030318E+04  0.10725030318E+04  0.00000000000E+00 0.  1.
         25    1    1    2    0    0  0.77790811386E+02 -0.27792536578E+03 -0.65627665807E+03  0.72774856317E+03  0.12500000000E+03 0.  0.
         21    1    1    2  502  501 -0.77790811386E+02  0.27792536578E+03 -0.32576242108E+03  0.43521842133E+03  0.00000000000E+00 0. -1.
<mgrwt>
<rscale>  3 0.62296987E+03</rscale>
<asrwt>0</asrwt>
<pdfrwt beam="1">  1        3 0.13917532E-01 0.62296987E+03</pdfrwt>
<pdfrwt beam="2">  1       -3 0.16500046E+00 0.62296987E+03</pdfrwt>
<totfact> 0.28960888E+01</totfact>
</mgrwt>
</event>
<event>
 4    0  0.1264838E-002  0.5277675E+03  0.7546771E-02  0.1006775E+00
         -1   -1    0    0    0  501 -0.00000000000E+00  0.00000000000E+00  0.18110862173E+03  0.18110862173E+03  0.00000000000E+00 0.  1.
          1   -1    0    0  502    0  0.00000000000E+00 -0.00000000000E+00 -0.38449102610E+03  0.38449102610E+03  0.00000000000E+00 0. -1.
         25    1    1    2    0    0 -0.77532074043E+02 -0.23560405715E+03 -0.13185198142E+03  0.30745802844E+03  0.12500000000E+03 0.  0.
         21    1    1    2  502  501  0.77532074043E+02  0.23560405715E+03 -0.71530422953E+02  0.25814161938E+03  0.00000000000E+00 0. -1.
<mgrwt>
<rscale>  3 0.52776752E+03</rscale>
<asrwt>0</asrwt>
<pdfrwt beam="1">  1        1 0.59152466E-01 0.52776752E+03</pdfrwt>
<pdfrwt beam="2">  1       -1 0.27862865E-01 0.52776752E+03</pdfrwt>
<totfact> 0.73933272E+02</totfact>
</mgrwt>
</event>
<event>
 4    0  0.1264838E-002  0.6020965E+03  0.7546771E-02  0.9901066E-01
         -2   -1    0    0    0  501 -0.00000000000E+00  0.00000000000E+00  0.78001221244E+02  0.78001221244E+02  0.00000000000E+00 0. -1.
          2   -1    0    0  502    0  0.00000000000E+00 -0.00000000000E+00 -0.11619054141E+04  0.11619054141E+04  0.00000000000E+00 0.  1.
         25    1    1    2    0    0 -0.20701757835E+03 -0.17095027002E+03 -0.78036519620E+03  0.83467066080E+03  0.12500000000E+03 0.  0.
         21    1    1    2  502  501  0.20701757835E+03  0.17095027002E+03 -0.30353899661E+03  0.40523597450E+03  0.00000000000E+00 0. -1.
<mgrwt>
<rscale>  3 0.60209647E+03</rscale>
<asrwt>0</asrwt>
<pdfrwt beam="1">  1        2 0.17875469E+00 0.60209647E+03</pdfrwt>
<pdfrwt beam="2">  1       -2 0.12000187E-01 0.60209647E+03</pdfrwt>
<totfact> 0.10273195E+03</totfact>
</mgrwt>
</event>
<event>
 4    0  0.1264838E-002  0.6209916E+03  0.7546771E-02  0.9862787E-01
          1   -1    0    0  502    0  0.00000000000E+00  0.00000000000E+00  0.12059226764E+04  0.12059226764E+04  0.00000000000E+00 0.  1.
         -1   -1    0    0    0  501 -0.00000000000E+00 -0.00000000000E+00 -0.79945131159E+02  0.79945131159E+02  0.00000000000E+00 0. -1.
         25    1    1    2    0    0  0.22285088539E+03 -0.44830105843E+02  0.98453765422E+03  0.10181412712E+04  0.12500000000E+03 0.  0.
         21    1    1    2  502  501 -0.22285088539E+03  0.44830105843E+02  0.14143989103E+03  0.26772653638E+03  0.00000000000E+00 0. -1.
<mgrwt>
<rscale>  3 0.62099162E+03</rscale>
<asrwt>0</asrwt>
<pdfrwt beam="1">  1        1 0.18552655E+00 0.62099162E+03</pdfrwt>
<pdfrwt beam="2">  1       -1 0.12299252E-01 0.62099162E+03</pdfrwt>
<totfact> 0.48871545E+02</totfact>
</mgrwt>
</event>
<event>
 4    0  0.1264838E-002  0.7717277E+03  0.7546771E-02  0.9601866E-01
          3   -1    0    0  502    0  0.00000000000E+00  0.00000000000E+00  0.23054190391E+04  0.23054190391E+04  0.00000000000E+00 0. -1.
         -3   -1    0    0    0  501 -0.00000000000E+00 -0.00000000000E+00 -0.64583010019E+02  0.64583010019E+02  0.00000000000E+00 0.  1.
         25    1    1    2    0    0 -0.10765153509E+02  0.33110646350E+03  0.16942918115E+04  0.17308948903E+04  0.12500000000E+03 0.  0.
         21    1    1    2  502  501  0.10765153509E+02 -0.33110646350E+03  0.54654421761E+03  0.63910715886E+03  0.00000000000E+00 0.  1.
<mgrwt>
<rscale>  3 0.77172767E+03</rscale>
<asrwt>0</asrwt>
<pdfrwt beam="1">  1        3 0.35467979E+00 0.77172767E+03</pdfrwt>
<pdfrwt beam="2">  1       -3 0.99358495E-02 0.77172767E+03</pdfrwt>
<totfact> 0.41398058E+00</totfact>
</mgrwt>
</event>
<event>
 4    0  0.1264838E-002  0.5507762E+03  0.7546771E-02  0.1001314E+00
         -1   -1    0    0    0  501 -0.00000000000E+00  0.00000000000E+00  0.23843659928E+03  0.23843659928E+03  0.00000000000E+00 0. -1.
          1   -1    0    0  502    0  0.00000000000E+00 -0.00000000000E+00 -0.31806609228E+03  0.31806609228E+03  0.00000000000E+00 0.  1.
         25    1    1    2    0    0 -0.62073648892E+02 -0.22752246665E+03 -0.15531689740E+03  0.30881701594E+03  0.12500000000E+03 0.  0.
         21    1    1    2  502  501  0.62073648892E+02  0.22752246665E+03  0.75687404397E+02  0.24768567561E+03  0.00000000000E+00 0. -1.
<mgrwt>
<rscale>  3 0.55077617E+03</rscale>
<asrwt>0</asrwt>
<pdfrwt beam="1">  1        1 0.48933245E-01 0.55077617E+03</pdfrwt>
<pdfrwt beam="2">  1       -1 0.36682554E-01 0.55077617E+03</pdfrwt>
<totfact> 0.58464201E+02</totfact>
</mgrwt>
</event>
<event>
 4    0  0.1264838E-002  0.5662683E+03  0.7546771E-02  0.9977971E-01
         -1   -1    0    0    0  501 -0.00000000000E+00  0.00000000000E+00  0.51138123667E+03  0.51138123667E+03  0.00000000000E+00 0. -1.
          1   -1    0    0  502    0  0.00000000000E+00 -0.00000000000E+00 -0.15676160535E+03  0.15676160535E+03  0.00000000000E+00 0.  1.
         25    1    1    2    0    0 -0.26359978451E+03 -0.51824990300E+02  0.20871025799E+03  0.36243019715E+03  0.12500000000E+03 0.  0.
         21    1    1    2  502  501  0.26359978451E+03  0.51824990300E+02  0.14590937333E+03  0.30571264488E+03  0.00000000000E+00 0.  1.
<mgrwt>
<rscale>  3 0.56626829E+03</rscale>
<asrwt>0</asrwt>
<pdfrwt beam="1">  1        1 0.24117170E-01 0.56626829E+03</pdfrwt>
<pdfrwt beam="2">  1       -1 0.78674035E-01 0.56626829E+03</pdfrwt>
<totfact> 0.33597285E+02</totfact>
</mgrwt>
</event>
<event>
 4    0  0.1264838E-002  0.5206234E+03  0.7546771E-02  0.1008532E+00
          2   -1    0    0  502    0  0.00000000000E+00  0.00000000000E+00  0.89768234191E+03  0.89768234191E+03  0.00000000000E+00 0. -1.
         -2   -1    0    0    0  501 -0.00000000000E+00 -0.00000000000E+00 -0.75485706791E+02  0.75485706791E+02  0.00000000000E+00 0.  1.
         25    1    1    2    0    0  0.17144969838E+03 -0.17282895461E+03  0.37840827239E+03  0.46699321970E+03  0.12500000000E+03 0.  0.
         21    1    1    2  502  501 -0.17144969838E+03  0.17282895461E+03  0.44378836272E+03  0.50617482900E+03  0.00000000000E+00 0.  1.
<mgrwt>
<rscale>  3 0.52062342E+03</rscale>
<asrwt>0</asrwt>
<pdfrwt beam="1">  1        2 0.13810497E+00 0.52062342E+03</pdfrwt>
<pdfrwt beam="2">  1       -2 0.11613186E-01 0.52062342E+03</pdfrwt>
<totfact> 0.15888483E+03</totfact>
</mgrwt>
</event>
<event>
 4    0  0.1264838E-002  0.6458001E+03  0.7546771E-02  0.9814692E-01
          1   -1    0    0  502    0  0.00000000000E+00  0.00000000000E+00  0.95230983669E+03  0.95230983669E+03  0.00000000000E+00 0.  1.
         -1   -1    0    0    0  501 -0.00000000000E+00 -0.00000000000E+00 -0.10948582393E+03  0.10948582393E+03  0.00000000000E+00 0. -1.
         25    1    1    2    0    0  0.80783794393E+02 -0.27715483895E+03  0.24789045347E+03  0.40051904213E+03  0.12500000000E+03 0.  0.
         21    1    1    2  502  501 -0.80783794393E+02  0.27715483895E+03  0.59493355929E+03  0.66127661849E+03  0.00000000000E+00 0.  1.
<mgrwt>
<rscale>  3 0.64580005E+03</rscale>
<asrwt>0</asrwt>
<pdfrwt beam="1">  1        1 0.14650920E+00 0.64580005E+03</pdfrwt>
<pdfrwt beam="2">  1       -1 0.16843974E-01 0.64580005E+03</pdfrwt>
<totfact> 0.45484669E+02</totfact>
</mgrwt>
</event>
<event>
 4    0  0.1264838E-002  0.6346013E+03  0.7546771E-02  0.9836111E-01
         -2   -1    0    0    0  501 -0.00000000000E+00  0.00000000000E+00  0.38013606725E+02  0.38013606725E+02  0.00000000000E+00 0. -1.
          2   -1    0    0  502    0  0.00000000000E+00 -0.00000000000E+00 -0.26485170873E+04  0.26485170873E+04  0.00000000000E+00 0.  1.
         25    1    1    2    0    0 -0.69961284185E+02 -0.20173423486E+03 -0.22778406509E+04  0.22912385982E+04  0.12500000000E+03 0.  0.
         21    1    1    2  502  501  0.69961284185E+02  0.20173423486E+03 -0.33266282962E+03  0.39529209581E+03  0.00000000000E+00 0. -1.
<mgrwt>
<rscale>  3 0.63460125E+03</rscale>
<asrwt>0</asrwt>
<pdfrwt beam="1">  1        2 0.40746421E+00 0.63460125E+03</pdfrwt>
<pdfrwt beam="2">  1       -2 0.58482466E-02 0.63460125E+03</pdfrwt>
<totfact> 0.48543038E+02</totfact>
</mgrwt>
</event>
<event>
 4    0  0.1264838E-002  0.6541831E+03  0.7546771E-02  0.9798961E-01
          2   -1    0    0  502    0  0.00000000000E+00  0.00000000000E+00  0.88682835435E+03  0.88682835435E+03  0.00000000000E+00 0. -1.
         -2   -1    0    0    0  501 -0.00000000000E+00 -0.00000000000E+00 -0.12064215874E+03  0.12064215874E+03  0.00000000000E+00 0.  1.
         25    1    1    2    0    0  0.87413330083E+02  0.26643892656E+03  0.61859074203E+03  0.69058692283E+03  0.12500000000E+03 0.  0.
         21    1    1    2  502  501 -0.87413330083E+02 -0.26643892656E+03  0.14759545358E+03  0.31688359027E+03  0.00000000000E+00 0.  1.
<mgrwt>
<rscale>  3 0.65418312E+03</rscale>
<asrwt>0</asrwt>
<pdfrwt beam="1">  1        2 0.13643513E+00 0.65418312E+03</pdfrwt>
<pdfrwt beam="2">  1       -2 0.18560333E-01 0.65418312E+03</pdfrwt>
<totfact> 0.73253366E+02</totfact>
</mgrwt>
</event>
<event>
 4    0  0.1264838E-002  0.6068966E+03  0.7546771E-02  0.9891200E-01
         -2   -1    0    0    0  501 -0.00000000000E+00  0.00000000000E+00  0.34478892355E+02  0.34478892355E+02  0.00000000000E+00 0.  1.
          2   -1    0    0  502    0  0.00000000000E+00 -0.00000000000E+00 -0.26706445713E+04  0.26706445713E+04  0.00000000000E+00 0. -1.
         25    1    1    2    0    0  0.14721628805E+03 -0.21919013018E+03 -0.83326415599E+03  0.88298986534E+03  0.12500000000E+03 0.  0.
         21    1    1    2  502  501 -0.14721628805E+03  0.21919013018E+03 -0.18029015230E+04  0.18221335984E+04  0.00000000000E+00 0.  1.
<mgrwt>
<rscale>  3 0.60689659E+03</rscale>
<asrwt>0</asrwt>
<pdfrwt beam="1">  1        2 0.41086863E+00 0.60689659E+03</pdfrwt>
<pdfrwt beam="2">  1       -2 0.53044419E-02 0.60689659E+03</pdfrwt>
<totfact> 0.55044571E+02</totfact>
</mgrwt>
</event>
<event>
 4    0  0.1264838E-002  0.5882290E+03  0.7546771E-02  0.9930133E-01
         -1   -1    0    0    0  501 -0.00000000000E+00  0.00000000000E+00  0.12765152446E+03  0.12765152446E+03  0.00000000000E+00 0.  1.
          1   -1    0    0  502    0  0.00000000000E+00 -0.00000000000E+00 -0.67765222738E+03  0.67765222738E+03  0.00000000000E+00 0. -1.
         25    1    1    2    0    0  0.23867078044E+03 -0.61206130737E+02 -0.10294298800E+03  0.29484265406E+03  0.12500000000E+03 0.  0.
         21    1    1    2  502  501 -0.23867078044E+03  0.61206130737E+02 -0.44705771492E+03  0.51046109778E+03  0.00000000000E+00 0. -1.
<mgrwt>
<rscale>  3 0.58822900E+03</rscale>
<asrwt>0</asrwt>
<pdfrwt beam="1">  1        1 0.10425419E+00 0.58822900E+03</pdfrwt>
<pdfrwt beam="2">  1       -1 0.19638696E-01 0.58822900E+03</pdfrwt>
<totfact> 0.60926035E+02</totfact>
</mgrwt>
</event>
<event>
 4    0  0.1264838E-002  0.6180028E+03  0.7546771E-02  0.9868744E-01
         -2   -1    0    0    0  501 -0.00000000000E+00  0.00000000000E+00  0.24490880539E+03  0.24490880539E+03  0.00000000000E+00 0.  1.
          2   -1    0    0  502    0  0.00000000000E+00 -0.00000000000E+00 -0.38986703886E+03  0.38986703886E+03  0.00000000000E+00 0. -1.
         25    1    1    2    0    0  0.19760106045E+03 -0.14634254333E+03  0.94474883570E+02  0.29156958467E+03  0.12500000000E+03 0.  0.
         21    1    1    2  502  501 -0.19760106045E+03  0.14634254333E+03 -0.23943311705E+03  0.34320625958E+03  0.00000000000E+00 0. -1.
<mgrwt>
<rscale>  3 0.61800282E+03</rscale>
<asrwt>0</asrwt>
<pdfrwt beam="1">  1        2 0.59979544E-01 0.61800282E+03</pdfrwt>
<pdfrwt beam="2">  1       -2 0.37678278E-01 0.61800282E+03</pdfrwt>
<totfact> 0.54803219E+02</totfact>
</mgrwt>
</event>
<event>
 4    0  0.1264838E-002  0.7471999E+03  0.7546771E-02  0.9639754E-01
         -2   -1    0    0    0  501 -0.00000000000E+00  0.00000000000E+00  0.34597010586E+02  0.34597010586E+02  0.00000000000E+00 0.  1.
          2   -1    0    0  502    0  0.00000000000E+00 -0.00000000000E+00 -0.40343631333E+04  0.40343631333E+04  0.00000000000E+00 0. -1.
         25    1    1    2    0    0 -0.12596358122E+03 -0.33539406821E+03 -0.17328712338E+04  0.17739288931E+04  0.12500000000E+03 0.  0.
         21    1    1    2  502  501  0.12596358122E+03  0.33539406821E+03 -0.22668948889E+04  0.22950312507E+04  0.00000000000E+00 0. -1.
<mgrwt>
<rscale>  3 0.74719985E+03</rscale>
<asrwt>0</asrwt>
<pdfrwt beam="1">  1        2 0.62067129E+00 0.74719985E+03</pdfrwt>
<pdfrwt beam="2">  1       -2 0.53226167E-02 0.74719985E+03</pdfrwt>
<totfact> 0.66335853E+01</totfact>
</mgrwt>
</event>
<event>
 4    0  0.1264838E-002  0.5427123E+03  0.7546771E-02  0.1003195E+00
         -2   -1    0    0    0  501 -0.00000000000E+00  0.00000000000E+00  0.34328252812E+02  0.34328252812E+02  0.00000000000E+00 0. -1.
          2   -1    0    0  502    0  0.00000000000E+00 -0.00000000000E+00 -0.21450014290E+04  0.21450014290E+04  0.00000000000E+00 0.  1.
         25    1    1    2    0    0 -0.25646851100E+03 -0.85657725767E+01 -0.10575352690E+04  0.10953790735E+04  0.12500000000E+03 0.  0.
         21    1    1    2  502  501  0.25646851100E+03  0.85657725767E+01 -0.10531379072E+04  0.10839506083E+04  0.00000000000E+00 0. -1.
<mgrwt>
<rscale>  3 0.54271227E+03</rscale>
<asrwt>0</asrwt>
<pdfrwt beam="1">  1        2 0.33000036E+00 0.54271227E+03</pdfrwt>
<pdfrwt beam="2">  1       -2 0.52812674E-02 0.54271227E+03</pdfrwt>
<totfact> 0.10942883E+03</totfact>
</mgrwt>
</event>
<event>
 4    0  0.1264838E-002  0.6677758E+03  0.7546771E-02  0.9773984E-01
          1   -1    0    0  502    0  0.00000000000E+00  0.00000000000E+00  0.35975568274E+04  0.35975568274E+04  0.00000000000E+00 0.  1.
         -1   -1    0    0    0  501 -0.00000000000E+00 -0.00000000000E+00 -0.30988013057E+02  0.30988013057E+02  0.00000000000E+00 0. -1.
         25    1    1    2    0    0  0.24329144634E+03  0.14076266886E+03  0.99004657791E+03  0.10367362650E+04  0.12500000000E+03 0.  0.
         21    1    1    2  502  501 -0.24329144634E+03 -0.14076266886E+03  0.25765222365E+04  0.25918085755E+04  0.00000000000E+00 0. -1.
<mgrwt>
<rscale>  3 0.66777582E+03</rscale>
<asrwt>0</asrwt>
<pdfrwt beam="1">  1        1 0.55346995E+00 0.66777582E+03</pdfrwt>
<pdfrwt beam="2">  1       -1 0.47673895E-02 0.66777582E+03</pdfrwt>
<totfact> 0.45601078E+01</totfact>
</mgrwt>
</event>
<event>
 4    0  0.1264838E-002  0.8770462E+03  0.7546771E-02  0.9454739E-01
         -2   -1    0    0    0  501 -0.00000000000E+00  0.00000000000E+00  0.11007459789E+03  0.11007459789E+03  0.00000000000E+00 0. -1.
          2   -1    0    0  502    0  0.00000000000E+00 -0.00000000000E+00 -0.17470197654E+04  0.17470197654E+04  0.00000000000E+00 0.  1.
         25    1    1    2    0    0  0.57952740661E+02  0.42187428387E+03 -0.71470321003E+03  0.84128598584E+03  0.12500000000E+03 0.  0.
         21    1    1    2  502  501 -0.57952740661E+02 -0.42187428387E+03 -0.92224195746E+03  0.10158083774E+04  0.00000000000E+00 0.  1.
<mgrwt>
<rscale>  3 0.87704617E+03</rscale>
<asrwt>0</asrwt>
<pdfrwt beam="1">  1        2 0.26877227E+00 0.87704617E+03</pdfrwt>
<pdfrwt beam="2">  1       -2 0.16934554E-01 0.87704617E+03</pdfrwt>
<totfact> 0.26539938E+02</totfact>
</mgrwt>
</event>
<event>
 4    0  0.1264838E-002  0.1113185E+04  0.7546771E-02  0.9192435E-01
          1   -1    0    0  502    0  0.00000000000E+00  0.00000000000E+00  0.15897228071E+04  0.15897228071E+04  0.00000000000E+00 0. -1.
         -1   -1    0    0    0  501 -0.00000000000E+00 -0.00000000000E+00 -0.19487388098E+03  0.19487388098E+03  0.00000000000E+00 0.  1.
         25    1    1    2    0    0  0.25805569849E+03 -0.48428545635E+03  0.65793576408E+03  0.86581153631E+03  0.12500000000E+03 0.  0.
         21    1    1    2  502  501 -0.25805569849E+03  0.48428545635E+03  0.73691316207E+03  0.91878515181E+03  0.00000000000E+00 0.  1.
<mgrwt>
<rscale>  3 0.11131854E+04</rscale>
<asrwt>0</asrwt>
<pdfrwt beam="1">  1        1 0.24457273E+00 0.11131854E+04</pdfrwt>
<pdfrwt beam="2">  1       -1 0.29980598E-01 0.11131854E+04</pdfrwt>
<totfact> 0.57689490E+01</totfact>
</mgrwt>
</event>
<event>
 4    0  0.1264838E-002  0.8333835E+03  0.7546771E-02  0.9512914E-01
          2   -1    0    0  502    0  0.00000000000E+00  0.00000000000E+00  0.26768897230E+04  0.26768897230E+04  0.00000000000E+00 0. -1.
         -2   -1    0    0    0  501 -0.00000000000E+00 -0.00000000000E+00 -0.64863341829E+02  0.64863341829E+02  0.00000000000E+00 0.  1.
         25    1    1    2    0    0 -0.27123604791E+03  0.76580768703E+02  0.23028385967E+04  0.23233863669E+04  0.12500000000E+03 0.  0.
         21    1    1    2  502  501  0.27123604791E+03 -0.76580768703E+02  0.30918778455E+03  0.41836669793E+03  0.00000000000E+00 0.  1.
<mgrwt>
<rscale>  3 0.83338350E+03</rscale>
<asrwt>0</asrwt>
<pdfrwt beam="1">  1        2 0.41182910E+00 0.83338350E+03</pdfrwt>
<pdfrwt beam="2">  1       -2 0.99789778E-02 0.83338350E+03</pdfrwt>
<totfact> 0.19537777E+02</totfact>
</mgrwt>
</event>
<event>
 4    0  0.1264838E-002  0.5439403E+03  0.7546771E-02  0.1002906E+00
         -2   -1    0    0    0  501 -0.00000000000E+00  0.00000000000E+00  0.79955636327E+02  0.79955636327E+02  0.00000000000E+00 0.  1.
          2   -1    0    0  502    0  0.00000000000E+00 -0.00000000000E+00 -0.92511003606E+03  0.92511003606E+03  0.00000000000E+00 0. -1.
         25    1    1    2    0    0 -0.73200289948E+01  0.25475457568E+03 -0.37555800970E+03  0.47076777216E+03  0.12500000000E+03 0.  0.
         21    1    1    2  502  501  0.73200289948E+01 -0.25475457568E+03 -0.46959639003E+03  0.53429790022E+03  0.00000000000E+00 0. -1.
<mgrwt>
<rscale>  3 0.54394030E+03</rscale>
<asrwt>0</asrwt>
<pdfrwt beam="1">  1        2 0.14232461E+00 0.54394030E+03</pdfrwt>
<pdfrwt beam="2">  1       -2 0.12300868E-01 0.54394030E+03</pdfrwt>
<totfact> 0.13861167E+03</totfact>
</mgrwt>
</event>
<event>
 4    0  0.1264838E-002  0.4824996E+03  0.7546771E-02  0.1018450E+00
          2   -1    0    0  502    0  0.00000000000E+00  0.00000000000E+00  0.81832706444E+02  0.81832706444E+02  0.00000000000E+00 0. -1.
         -2   -1    0    0    0  501 -0.00000000000E+00 -0.00000000000E+00 -0.71122504510E+03  0.71122504510E+03  0.00000000000E+00 0.  1.
         25    1    1    2    0    0  0.13827041043E+02  0.20658869491E+03 -0.19083087414E+03  0.30807709823E+03  0.12500000000E+03 0.  0.
         21    1    1    2  502  501 -0.13827041043E+02 -0.20658869491E+03 -0.43856146452E+03  0.48498065331E+03  0.00000000000E+00 0.  1.
<mgrwt>
<rscale>  3 0.48249962E+03</rscale>
<asrwt>0</asrwt>
<pdfrwt beam="1">  1        2 0.12589647E-01 0.48249962E+03</pdfrwt>
<pdfrwt beam="2">  1       -2 0.10941924E+00 0.48249962E+03</pdfrwt>
<totfact> 0.33500259E+02</totfact>
</mgrwt>
</event>
<event>
 4    0  0.1264838E-002  0.5689188E+03  0.7546771E-02  0.9972074E-01
         -2   -1    0    0    0  501 -0.00000000000E+00  0.00000000000E+00  0.73374674335E+03  0.73374674335E+03  0.00000000000E+00 0.  1.
          2   -1    0    0  502    0  0.00000000000E+00 -0.00000000000E+00 -0.11027938450E+03  0.11027938450E+03  0.00000000000E+00 0. -1.
         25    1    1    2    0    0  0.74968117144E+02 -0.21826224137E+03  0.53677118553E+03  0.59750056921E+03  0.12500000000E+03 0.  0.
         21    1    1    2  502  501 -0.74968117144E+02  0.21826224137E+03  0.86696173329E+02  0.24652555864E+03  0.00000000000E+00 0. -1.
<mgrwt>
<rscale>  3 0.56891876E+03</rscale>
<asrwt>0</asrwt>
<pdfrwt beam="1">  1        2 0.16966060E-01 0.56891876E+03</pdfrwt>
<pdfrwt beam="2">  1       -2 0.11288411E+00 0.56891876E+03</pdfrwt>
<totfact> 0.21602048E+02</totfact>
</mgrwt>
</event>
<event>
 4    0  0.1264838E-002  0.6754982E+03  0.7546771E-02  0.9760076E-01
          2   -1    0    0  502    0  0.00000000000E+00  0.00000000000E+00  0.11898020726E+04  0.11898020726E+04  0.00000000000E+00 0. -1.
         -2   -1    0    0    0  501 -0.00000000000E+00 -0.00000000000E+00 -0.95876823485E+02  0.95876823485E+02  0.00000000000E+00 0.  1.
         25    1    1    2    0    0  0.11096415605E+03 -0.20846076015E+03  0.13744118550E+03  0.30047298035E+03  0.12500000000E+03 0.  0.
         21    1    1    2  502  501 -0.11096415605E+03  0.20846076015E+03  0.95648406367E+03  0.98520591579E+03  0.00000000000E+00 0.  1.
<mgrwt>
<rscale>  3 0.67549817E+03</rscale>
<asrwt>0</asrwt>
<pdfrwt beam="1">  1        2 0.18304646E+00 0.67549817E+03</pdfrwt>
<pdfrwt beam="2">  1       -2 0.14750281E-01 0.67549817E+03</pdfrwt>
<totfact> 0.69932130E+02</totfact>
</mgrwt>
</event>
<event>
 4    0  0.1264838E-002  0.4932983E+03  0.7546771E-02  0.1015543E+00
         -1   -1    0    0    0  501 -0.00000000000E+00  0.00000000000E+00  0.12951601367E+03  0.12951601367E+03  0.00000000000E+00 0.  1.
          1   -1    0    0  502    0  0.00000000000E+00 -0.00000000000E+00 -0.46971642818E+03  0.46971642818E+03  0.00000000000E+00 0. -1.
         25    1    1    2    0    0 -0.21779563965E+03  0.70724882446E+02 -0.14587497107E+03  0.29890041290E+03  0.12500000000E+03 0.  0.
         21    1    1    2  502  501  0.21779563965E+03 -0.70724882446E+02 -0.19432544344E+03  0.30033202896E+03  0.00000000000E+00 0. -1.
<mgrwt>
<rscale>  3 0.49329828E+03</rscale>
<asrwt>0</asrwt>
<pdfrwt beam="1">  1        1 0.72264065E-01 0.49329828E+03</pdfrwt>
<pdfrwt beam="2">  1       -1 0.19925541E-01 0.49329828E+03</pdfrwt>
<totfact> 0.99744894E+02</totfact>
</mgrwt>
</event>
<event>
 4    0  0.1264838E-002  0.1000576E+04  0.7546771E-02  0.9307913E-01
         -1   -1    0    0    0  501 -0.00000000000E+00  0.00000000000E+00  0.87849918375E+03  0.87849918375E+03  0.00000000000E+00 0. -1.
          1   -1    0    0  502    0  0.00000000000E+00 -0.00000000000E+00 -0.28490419379E+03  0.28490419379E+03  0.00000000000E+00 0.  1.
         25    1    1    2    0    0  0.16594638701E+03  0.19905429183E+03 -0.18549865925E+03  0.34233838090E+03  0.12500000000E+03 0.  0.
         21    1    1    2  502  501 -0.16594638701E+03 -0.19905429183E+03  0.77909364921E+03  0.82106499664E+03  0.00000000000E+00 0. -1.
<mgrwt>
<rscale>  3 0.10005760E+04</rscale>
<asrwt>0</asrwt>
<pdfrwt beam="1">  1        1 0.43831415E-01 0.10005760E+04</pdfrwt>
<pdfrwt beam="2">  1       -1 0.13515372E+00 0.10005760E+04</pdfrwt>
<totfact> 0.43201630E+01</totfact>
</mgrwt>
</event>
<event>
 4    0  0.1264838E-002  0.6346198E+03  0.7546771E-02  0.9836075E-01
          2   -1    0    0  502    0  0.00000000000E+00  0.00000000000E+00  0.26087321290E+04  0.26087321290E+04  0.00000000000E+00 0.  1.
         -2   -1    0    0    0  501 -0.00000000000E+00 -0.00000000000E+00 -0.38595591680E+02  0.38595591680E+02  0.00000000000E+00 0. -1.
         25    1    1    2    0    0  0.19825934074E+03 -0.18298266101E+03  0.74152417720E+03  0.79891959908E+03  0.12500000000E+03 0.  0.
         21    1    1    2  502  501 -0.19825934074E+03  0.18298266101E+03  0.18286123601E+04  0.18484081216E+04  0.00000000000E+00 0.  1.
<mgrwt>
<rscale>  3 0.63461976E+03</rscale>
<asrwt>0</asrwt>
<pdfrwt beam="1">  1        2 0.40134326E+00 0.63461976E+03</pdfrwt>
<pdfrwt beam="2">  1       -2 0.59377854E-02 0.63461976E+03</pdfrwt>
<totfact> 0.49957847E+02</totfact>
</mgrwt>
</event>
<event>
 4    0  0.1264838E-002  0.5556697E+03  0.7546771E-02  0.1000190E+00
         -4   -1    0    0    0  501 -0.00000000000E+00  0.00000000000E+00  0.10396946056E+03  0.10396946056E+03  0.00000000000E+00 0. -1.
          4   -1    0    0  502    0  0.00000000000E+00 -0.00000000000E+00 -0.74245074902E+03  0.74245074902E+03  0.00000000000E+00 0.  1.
         25    1    1    2    0    0 -0.15042001177E+03 -0.19351307614E+03 -0.18689779800E+03  0.33260979762E+03  0.12500000000E+03 0.  0.
         21    1    1    2  502  501  0.15042001177E+03  0.19351307614E+03 -0.45158349045E+03  0.51381041195E+03  0.00000000000E+00 0.  1.
<mgrwt>
<rscale>  3 0.55566970E+03</rscale>
<asrwt>0</asrwt>
<pdfrwt beam="1">  1        4 0.11422319E+00 0.55566970E+03</pdfrwt>
<pdfrwt beam="2">  1       -4 0.15995302E-01 0.55566970E+03</pdfrwt>
<totfact> 0.40847883E+01</totfact>
</mgrwt>
</event>
<event>
 4    0  0.1309367E-002  0.6338657E+03  0.7546771E-02  0.9837534E-01
         -1   -1    0    0    0  501 -0.00000000000E+00  0.00000000000E+00  0.11294253640E+03  0.11294253640E+03  0.00000000000E+00 0. -1.
          1   -1    0    0  502    0  0.00000000000E+00 -0.00000000000E+00 -0.88935880481E+03  0.88935880481E+03  0.00000000000E+00 0.  1.
         25    1    1    2    0    0 -0.15740244300E+03  0.17958495071E+03 -0.10428723534E+03  0.28901057254E+03  0.12500000000E+03 0.  0.
         21    1    1    2  502  501  0.15740244300E+03 -0.17958495071E+03 -0.67212903307E+03  0.71329076868E+03  0.00000000000E+00 0.  1.
<mgrwt>
<rscale>  3 0.63386572E+03</rscale>
<asrwt>0</asrwt>
<pdfrwt beam="1">  1        1 0.13682443E+00 0.63386572E+03</pdfrwt>
<pdfrwt beam="2">  1       -1 0.17375775E-01 0.63386572E+03</pdfrwt>
<totfact> 0.48577497E+02</totfact>
</mgrwt>
</event>
<event>
 4    0  0.1264838E-002  0.7641241E+03  0.7546771E-02  0.9613449E-01
         -2   -1    0    0    0  501 -0.00000000000E+00  0.00000000000E+00  0.26593757763E+03  0.26593757763E+03  0.00000000000E+00 0.  1.
          2   -1    0    0  502    0  0.00000000000E+00 -0.00000000000E+00 -0.54889345305E+03  0.54889345305E+03  0.00000000000E+00 0. -1.
         25    1    1    2    0    0 -0.33730301158E+03 -0.14949761836E+03 -0.95927451049E+02  0.40118566198E+03  0.12500000000E+03 0.  0.
         21    1    1    2  502  501  0.33730301158E+03  0.14949761836E+03 -0.18702842438E+03  0.41364536869E+03  0.00000000000E+00 0. -1.
<mgrwt>
<rscale>  3 0.76412406E+03</rscale>
<asrwt>0</asrwt>
<pdfrwt beam="1">  1        2 0.84445146E-01 0.76412406E+03</pdfrwt>
<pdfrwt beam="2">  1       -2 0.40913474E-01 0.76412406E+03</pdfrwt>
<totfact> 0.31439631E+02</totfact>
</mgrwt>
</event>
<event>
 4    0  0.1264838E-002  0.5000569E+03  0.7546771E-02  0.1013764E+00
         -2   -1    0    0    0  501 -0.00000000000E+00  0.00000000000E+00  0.51257976598E+03  0.51257976598E+03  0.00000000000E+00 0. -1.
          2   -1    0    0  502    0  0.00000000000E+00 -0.00000000000E+00 -0.12196001883E+03  0.12196001883E+03  0.00000000000E+00 0.  1.
         25    1    1    2    0    0  0.23347766487E+03 -0.89573927648E+01  0.18364691314E+03  0.32240230084E+03  0.12500000000E+03 0.  0.
         21    1    1    2  502  501 -0.23347766487E+03  0.89573927648E+01  0.20697283401E+03  0.31213748397E+03  0.00000000000E+00 0. -1.
<mgrwt>
<rscale>  3 0.50005695E+03</rscale>
<asrwt>0</asrwt>
<pdfrwt beam="1">  1        2 0.18763080E-01 0.50005695E+03</pdfrwt>
<pdfrwt beam="2">  1       -2 0.78858424E-01 0.50005695E+03</pdfrwt>
<totfact> 0.44161598E+02</totfact>
</mgrwt>
</event>
<event>
 4    0  0.1264838E-002  0.4647440E+03  0.7546771E-02  0.1023414E+00
          2   -1    0    0  502    0  0.00000000000E+00  0.00000000000E+00  0.22758449066E+04  0.22758449066E+04  0.00000000000E+00 0.  1.
         -2   -1    0    0    0  501 -0.00000000000E+00 -0.00000000000E+00 -0.23726024241E+02  0.23726024241E+02  0.00000000000E+00 0. -1.
         25    1    1    2    0    0  0.20014290829E+03  0.50164497506E+02  0.15162556649E+04  0.15353272947E+04  0.12500000000E+03 0.  0.
         21    1    1    2  502  501 -0.20014290829E+03 -0.50164497506E+02  0.73586321742E+03  0.76424363609E+03  0.00000000000E+00 0. -1.
<mgrwt>
<rscale>  3 0.46474402E+03</rscale>
<asrwt>0</asrwt>
<pdfrwt beam="1">  1        2 0.35012981E+00 0.46474402E+03</pdfrwt>
<pdfrwt beam="2">  1       -2 0.36501594E-02 0.46474402E+03</pdfrwt>
<totfact> 0.16471497E+03</totfact>
</mgrwt>
</event>
<event>
 4    0  0.1264838E-002  0.4869635E+03  0.7546771E-02  0.1017239E+00
         -2   -1    0    0    0  501 -0.00000000000E+00  0.00000000000E+00  0.13846003766E+03  0.13846003766E+03  0.00000000000E+00 0.  1.
          2   -1    0    0  502    0  0.00000000000E+00 -0.00000000000E+00 -0.42816229565E+03  0.42816229565E+03  0.00000000000E+00 0. -1.
         25    1    1    2    0    0 -0.73309928379E+02  0.21052460890E+03 -0.10192713870E+03  0.27515286325E+03  0.12500000000E+03 0.  0.
         21    1    1    2  502  501  0.73309928379E+02 -0.21052460890E+03 -0.18777511930E+03  0.29146947006E+03  0.00000000000E+00 0.  1.
<mgrwt>
<rscale>  3 0.48696352E+03</rscale>
<asrwt>0</asrwt>
<pdfrwt beam="1">  1        2 0.65871121E-01 0.48696352E+03</pdfrwt>
<pdfrwt beam="2">  1       -2 0.21301545E-01 0.48696352E+03</pdfrwt>
<totfact> 0.14034671E+03</totfact>
</mgrwt>
</event>
<event>
 4    0  0.1264838E-002  0.4795666E+03  0.7546771E-02  0.1019254E+00
         -2   -1    0    0    0  501 -0.00000000000E+00  0.00000000000E+00  0.52786566782E+02  0.52786566782E+02  0.00000000000E+00 0.  1.
          2   -1    0    0  502    0  0.00000000000E+00 -0.00000000000E+00 -0.10892170564E+04  0.10892170564E+04  0.00000000000E+00 0. -1.
         25    1    1    2    0    0 -0.10671470721E+03  0.17882926863E+03 -0.74660328640E+03  0.78511744556E+03  0.12500000000E+03 0.  0.
         21    1    1    2  502  501  0.10671470721E+03 -0.17882926863E+03 -0.28982720324E+03  0.35688617764E+03  0.00000000000E+00 0. -1.
<mgrwt>
<rscale>  3 0.47956659E+03</rscale>
<asrwt>0</asrwt>
<pdfrwt beam="1">  1        2 0.16757184E+00 0.47956659E+03</pdfrwt>
<pdfrwt beam="2">  1       -2 0.81210108E-02 0.47956659E+03</pdfrwt>
<totfact> 0.21409003E+03</totfact>
</mgrwt>
</event>
<event>
 4    0  0.1264838E-002  0.5691199E+03  0.7546771E-02  0.9971628E-01
         -1   -1    0    0    0  501 -0.00000000000E+00  0.00000000000E+00  0.27476278213E+03  0.27476278213E+03  0.00000000000E+00 0. -1.
          1   -1    0    0  502    0  0.00000000000E+00 -0.00000000000E+00 -0.29470650013E+03  0.29470650013E+03  0.00000000000E+00 0.  1.
         25    1    1    2    0    0  0.29125120430E+02 -0.26848799525E+03  0.99616103321E+01  0.29775545321E+03  0.12500000000E+03 0.  0.
         21    1    1    2  502  501 -0.29125120430E+02  0.26848799525E+03 -0.29905328330E+02  0.27171382905E+03  0.00000000000E+00 0. -1.
<mgrwt>
<rscale>  3 0.56911994E+03</rscale>
<asrwt>0</asrwt>
<pdfrwt beam="1">  1        1 0.45339462E-01 0.56911994E+03</pdfrwt>
<pdfrwt beam="2">  1       -1 0.42271197E-01 0.56911994E+03</pdfrwt>
<totfact> 0.49924676E+02</totfact>
</mgrwt>
</event>
<event>
 4    0  0.1264838E-002  0.5107042E+03  0.7546771E-02  0.1011022E+00
         -1   -1    0    0    0  501 -0.00000000000E+00  0.00000000000E+00  0.60672701675E+02  0.60672701675E+02  0.00000000000E+00 0. -1.
          1   -1    0    0  502    0  0.00000000000E+00 -0.00000000000E+00 -0.10746957258E+04  0.10746957258E+04  0.00000000000E+00 0.  1.
         25    1    1    2    0    0  0.17812938345E+02  0.20976305064E+03 -0.28091930155E+03  0.37263721254E+03  0.12500000000E+03 0.  0.
         21    1    1    2  502  501 -0.17812938345E+02 -0.20976305064E+03 -0.73310372262E+03  0.76273121498E+03  0.00000000000E+00 0.  1.
<mgrwt>
<rscale>  3 0.51070419E+03</rscale>
<asrwt>0</asrwt>
<pdfrwt beam="1">  1        1 0.16533780E+00 0.51070419E+03</pdfrwt>
<pdfrwt beam="2">  1       -1 0.93342619E-02 0.51070419E+03</pdfrwt>
<totfact> 0.94767487E+02</totfact>
</mgrwt>
</event>
<event>
 4    0  0.1264838E-002  0.5975301E+03  0.7546771E-02  0.9910544E-01
         -1   -1    0    0    0  501 -0.00000000000E+00  0.00000000000E+00  0.50737555451E+03  0.50737555451E+03  0.00000000000E+00 0.  1.
          1   -1    0    0  502    0  0.00000000000E+00 -0.00000000000E+00 -0.17592598996E+03  0.17592598996E+03  0.00000000000E+00 0. -1.
         25    1    1    2    0    0 -0.22180902830E+03 -0.72647026923E+02 -0.15420077674E+02  0.26521616533E+03  0.12500000000E+03 0.  0.
         21    1    1    2  502  501  0.22180902830E+03  0.72647026923E+02  0.34686964222E+03  0.41808537914E+03  0.00000000000E+00 0.  1.
<mgrwt>
<rscale>  3 0.59753007E+03</rscale>
<asrwt>0</asrwt>
<pdfrwt beam="1">  1        1 0.27065537E-01 0.59753007E+03</pdfrwt>
<pdfrwt beam="2">  1       -1 0.78057777E-01 0.59753007E+03</pdfrwt>
<totfact> 0.29363414E+02</totfact>
</mgrwt>
</event>
<event>
 4    0  0.1264838E-002  0.4912322E+03  0.7546771E-02  0.1016093E+00
          2   -1    0    0  502    0  0.00000000000E+00  0.00000000000E+00  0.30357962780E+03  0.30357962780E+03  0.00000000000E+00 0.  1.
         -2   -1    0    0    0  501 -0.00000000000E+00 -0.00000000000E+00 -0.19871974449E+03  0.19871974449E+03  0.00000000000E+00 0. -1.
         25    1    1    2    0    0  0.50465210074E+02  0.22181051816E+03  0.88498707160E+02  0.27423286558E+03  0.12500000000E+03 0.  0.
         21    1    1    2  502  501 -0.50465210074E+02 -0.22181051816E+03  0.16361176153E+02  0.22806650671E+03  0.00000000000E+00 0.  1.
<mgrwt>
<rscale>  3 0.49123219E+03</rscale>
<asrwt>0</asrwt>
<pdfrwt beam="1">  1        2 0.46704558E-01 0.49123219E+03</pdfrwt>
<pdfrwt beam="2">  1       -2 0.30572269E-01 0.49123219E+03</pdfrwt>
<totfact> 0.10728126E+03</totfact>
</mgrwt>
</event>
<event>
 4    0  0.1264838E-002  0.6256849E+03  0.7546771E-02  0.9853506E-01
         -2   -1    0    0    0  501 -0.00000000000E+00  0.00000000000E+00  0.70475566528E+02  0.70475566528E+02  0.00000000000E+00 0.  1.
          2   -1    0    0  502    0  0.00000000000E+00 -0.00000000000E+00 -0.13887137322E+04  0.13887137322E+04  0.00000000000E+00 0. -1.
         25    1    1    2    0    0  0.14054735811E+02 -0.28148195460E+03 -0.44323999848E+03  0.53992251538E+03  0.12500000000E+03 0.  0.
         21    1    1    2  502  501 -0.14054735811E+02  0.28148195460E+03 -0.87499816716E+03  0.91926678331E+03  0.00000000000E+00 0. -1.
<mgrwt>
<rscale>  3 0.62568486E+03</rscale>
<asrwt>0</asrwt>
<pdfrwt beam="1">  1        2 0.21364825E+00 0.62568486E+03</pdfrwt>
<pdfrwt beam="2">  1       -2 0.10842396E-01 0.62568486E+03</pdfrwt>
<totfact> 0.89694961E+02</totfact>
</mgrwt>
</event>
<event>
 4    0  0.1264838E-002  0.5414248E+03  0.7546771E-02  0.1003498E+00
          1   -1    0    0  502    0  0.00000000000E+00  0.00000000000E+00  0.15918627857E+03  0.15918627857E+03  0.00000000000E+00 0. -1.
         -1   -1    0    0    0  501 -0.00000000000E+00 -0.00000000000E+00 -0.46037389164E+03  0.46037389164E+03  0.00000000000E+00 0.  1.
         25    1    1    2    0    0  0.17067117188E+03  0.18783144561E+03 -0.19942670783E+03  0.34612904048E+03  0.12500000000E+03 0.  0.
         21    1    1    2  502  501 -0.17067117188E+03 -0.18783144561E+03 -0.10176090524E+03  0.27343112973E+03  0.00000000000E+00 0. -1.
<mgrwt>
<rscale>  3 0.54142481E+03</rscale>
<asrwt>0</asrwt>
<pdfrwt beam="1">  1        1 0.24490197E-01 0.54142481E+03</pdfrwt>
<pdfrwt beam="2">  1       -1 0.70826752E-01 0.54142481E+03</pdfrwt>
<totfact> 0.40962832E+02</totfact>
</mgrwt>
</event>
<event>
 4    0  0.1264838E-002  0.5776783E+03  0.7546771E-02  0.9952830E-01
          1   -1    0    0  502    0  0.00000000000E+00  0.00000000000E+00  0.46558622520E+03  0.46558622520E+03  0.00000000000E+00 0. -1.
         -1   -1    0    0    0  501 -0.00000000000E+00 -0.00000000000E+00 -0.17918928766E+03  0.17918928766E+03  0.00000000000E+00 0.  1.
         25    1    1    2    0    0 -0.18070646068E+03  0.20759690375E+03  0.14223814449E+03  0.33407781897E+03  0.12500000000E+03 0.  0.
         21    1    1    2  502  501  0.18070646068E+03 -0.20759690375E+03  0.14415879305E+03  0.31069769390E+03  0.00000000000E+00 0.  1.
<mgrwt>
<rscale>  3 0.57767833E+03</rscale>
<asrwt>0</asrwt>
<pdfrwt beam="1">  1        1 0.71628650E-01 0.57767833E+03</pdfrwt>
<pdfrwt beam="2">  1       -1 0.27567583E-01 0.57767833E+03</pdfrwt>
<totfact> 0.58366689E+02</totfact>
</mgrwt>
</event>
<event>
 4    0  0.1264838E-002  0.5283049E+03  0.7546771E-02  0.1006644E+00
         -1   -1    0    0    0  501 -0.00000000000E+00  0.00000000000E+00  0.12820313834E+03  0.12820313834E+03  0.00000000000E+00 0. -1.
          1   -1    0    0  502    0  0.00000000000E+00 -0.00000000000E+00 -0.54426531301E+03  0.54426531301E+03  0.00000000000E+00 0.  1.
         25    1    1    2    0    0 -0.47875951760E+01 -0.22429691882E+03 -0.81110477935E+02  0.26932496819E+03  0.12500000000E+03 0.  0.
         21    1    1    2  502  501  0.47875951760E+01  0.22429691882E+03 -0.33495169674E+03  0.40314348316E+03  0.00000000000E+00 0.  1.
<mgrwt>
<rscale>  3 0.52830492E+03</rscale>
<asrwt>0</asrwt>
<pdfrwt beam="1">  1        1 0.83733126E-01 0.52830492E+03</pdfrwt>
<pdfrwt beam="2">  1       -1 0.19723560E-01 0.52830492E+03</pdfrwt>
<totfact> 0.82938222E+02</totfact>
</mgrwt>
</event>
<event>
 4    0  0.1264838E-002  0.6825888E+03  0.7546771E-02  0.9747480E-01
          2   -1    0    0  502    0  0.00000000000E+00  0.00000000000E+00  0.29904300895E+04  0.29904300895E+04  0.00000000000E+00 0.  1.
         -2   -1    0    0    0  501 -0.00000000000E+00 -0.00000000000E+00 -0.38951539563E+02  0.38951539563E+02  0.00000000000E+00 0. -1.
         25    1    1    2    0    0 -0.26789059354E+03  0.48661300259E+02  0.69889888457E+03  0.76040643284E+03  0.12500000000E+03 0.  0.
         21    1    1    2  502  501  0.26789059354E+03 -0.48661300259E+02  0.22525796654E+04  0.22689751963E+04  0.00000000000E+00 0.  1.
<mgrwt>
<rscale>  3 0.68258877E+03</rscale>
<asrwt>0</asrwt>
<pdfrwt beam="1">  1        2 0.46006599E+00 0.68258877E+03</pdfrwt>
<pdfrwt beam="2">  1       -2 0.59925469E-02 0.68258877E+03</pdfrwt>
<totfact> 0.29190144E+02</totfact>
</mgrwt>
</event>
<event>
 4    0  0.1264838E-002  0.5445642E+03  0.7546771E-02  0.1002760E+00
         -1   -1    0    0    0  501 -0.00000000000E+00  0.00000000000E+00  0.29437277109E+03  0.29437277109E+03  0.00000000000E+00 0. -1.
          1   -1    0    0  502    0  0.00000000000E+00 -0.00000000000E+00 -0.25184920750E+03  0.25184920750E+03  0.00000000000E+00 0.  1.
         25    1    1    2    0    0  0.16140431456E+02  0.25121884805E+03 -0.33997986578E+02  0.28311179106E+03  0.12500000000E+03 0.  0.
         21    1    1    2  502  501 -0.16140431456E+02 -0.25121884805E+03  0.76521550172E+02  0.26311018753E+03  0.00000000000E+00 0.  1.
<mgrwt>
<rscale>  3 0.54456423E+03</rscale>
<asrwt>0</asrwt>
<pdfrwt beam="1">  1        1 0.38746032E-01 0.54456423E+03</pdfrwt>
<pdfrwt beam="2">  1       -1 0.45288119E-01 0.54456423E+03</pdfrwt>
<totfact> 0.53861088E+02</totfact>
</mgrwt>
</event>
<event>
 4    0  0.1264838E-002  0.5062672E+03  0.7546771E-02  0.1012156E+00
         -2   -1    0    0    0  501 -0.00000000000E+00  0.00000000000E+00  0.19749936788E+03  0.19749936788E+03  0.00000000000E+00 0. -1.
          2   -1    0    0  502    0  0.00000000000E+00 -0.00000000000E+00 -0.32443959757E+03  0.32443959757E+03  0.00000000000E+00 0.  1.
         25    1    1    2    0    0  0.16160719235E+03 -0.16071256503E+03  0.22545818269E+01  0.25995287326E+03  0.12500000000E+03 0.  0.
         21    1    1    2  502  501 -0.16160719235E+03  0.16071256503E+03 -0.12919481151E+03  0.26198609219E+03  0.00000000000E+00 0.  1.
<mgrwt>
<rscale>  3 0.50626718E+03</rscale>
<asrwt>0</asrwt>
<pdfrwt beam="1">  1        2 0.49913784E-01 0.50626718E+03</pdfrwt>
<pdfrwt beam="2">  1       -2 0.30384518E-01 0.50626718E+03</pdfrwt>
<totfact> 0.10086437E+03</totfact>
</mgrwt>
</event>
<event>
 4    0  0.1264838E-002  0.6721856E+03  0.7546771E-02  0.9766018E-01
          2   -1    0    0  502    0  0.00000000000E+00  0.00000000000E+00  0.54951118315E+03  0.54951118315E+03  0.00000000000E+00 0.  1.
         -2   -1    0    0    0  501 -0.00000000000E+00 -0.00000000000E+00 -0.20556154252E+03  0.20556154252E+03  0.00000000000E+00 0. -1.
         25    1    1    2    0    0 -0.24199212381E+03 -0.90210673178E+02 -0.42724253911E+02  0.29008363520E+03  0.12500000000E+03 0.  0.
         21    1    1    2  502  501  0.24199212381E+03  0.90210673178E+02  0.38667389454E+03  0.46498909048E+03  0.00000000000E+00 0.  1.
<mgrwt>
<rscale>  3 0.67218559E+03</rscale>
<asrwt>0</asrwt>
<pdfrwt beam="1">  1        2 0.84540181E-01 0.67218559E+03</pdfrwt>
<pdfrwt beam="2">  1       -2 0.31624853E-01 0.67218559E+03</pdfrwt>
<totfact> 0.51517360E+02</totfact>
</mgrwt>
</event>
<event>
 4    0  0.1264838E-002  0.4919786E+03  0.7546771E-02  0.1015894E+00
          1   -1    0    0  502    0  0.00000000000E+00  0.00000000000E+00  0.78955603303E+03  0.78955603303E+03  0.00000000000E+00 0.  1.
         -1   -1    0    0    0  501 -0.00000000000E+00 -0.00000000000E+00 -0.76638943762E+02  0.76638943762E+02  0.00000000000E+00 0. -1.
         25    1    1    2    0    0 -0.22989480915E+03 -0.17434222951E+01  0.39669724193E+03  0.47523506242E+03  0.12500000000E+03 0.  0.
         21    1    1    2  502  501  0.22989480915E+03  0.17434222951E+01  0.31621984734E+03  0.39095991438E+03  0.00000000000E+00 0. -1.
<mgrwt>
<rscale>  3 0.49197862E+03</rscale>
<asrwt>0</asrwt>
<pdfrwt beam="1">  1        1 0.12147015E+00 0.49197862E+03</pdfrwt>
<pdfrwt beam="2">  1       -1 0.11790607E-01 0.49197862E+03</pdfrwt>
<totfact> 0.11053957E+03</totfact>
</mgrwt>
</event>
<event>
 4    0  0.1264838E-002  0.5872916E+03  0.7546771E-02  0.9932128E-01
          2   -1    0    0  502    0  0.00000000000E+00  0.00000000000E+00  0.43775183962E+03  0.43775183962E+03  0.00000000000E+00 0. -1.
         -2   -1    0    0    0  501 -0.00000000000E+00 -0.00000000000E+00 -0.19697885675E+03  0.19697885675E+03  0.00000000000E+00 0.  1.
         25    1    1    2    0    0  0.21010559617E+03  0.83566247261E+02  0.30495133503E+03  0.39968487082E+03  0.12500000000E+03 0.  0.
         21    1    1    2  502  501 -0.21010559617E+03 -0.83566247261E+02 -0.64178352166E+02  0.23504582555E+03  0.00000000000E+00 0.  1.
<mgrwt>
<rscale>  3 0.58729160E+03</rscale>
<asrwt>0</asrwt>
<pdfrwt beam="1">  1        2 0.67346437E-01 0.58729160E+03</pdfrwt>
<pdfrwt beam="2">  1       -2 0.30304439E-01 0.58729160E+03</pdfrwt>
<totfact> 0.72594523E+02</totfact>
</mgrwt>
</event>
<event>
 4    0  0.1264838E-002  0.5001455E+03  0.7546771E-02  0.1013741E+00
         -2   -1    0    0    0  501 -0.00000000000E+00  0.00000000000E+00  0.30908979449E+03  0.30908979449E+03  0.00000000000E+00 0. -1.
          2   -1    0    0  502    0  0.00000000000E+00 -0.00000000000E+00 -0.20232431436E+03  0.20232431436E+03  0.00000000000E+00 0.  1.
         25    1    1    2    0    0 -0.18398672298E+03  0.12010137678E+03  0.14036763057E+03  0.28914274441E+03  0.12500000000E+03 0.  0.
         21    1    1    2  502  501  0.18398672298E+03 -0.12010137678E+03 -0.33602150439E+02  0.22227136444E+03  0.00000000000E+00 0.  1.
<mgrwt>
<rscale>  3 0.50014550E+03</rscale>
<asrwt>0</asrwt>
<pdfrwt beam="1">  1        2 0.31126818E-01 0.50014550E+03</pdfrwt>
<pdfrwt beam="2">  1       -2 0.47552276E-01 0.50014550E+03</pdfrwt>
<totfact> 0.71909377E+02</totfact>
</mgrwt>
</event>
<event>
 4    0  0.1264838E-002  0.5184489E+03  0.7546771E-02  0.1009073E+00
          1   -1    0    0  502    0  0.00000000000E+00  0.00000000000E+00  0.33213760063E+02  0.33213760063E+02  0.00000000000E+00 0.  1.
         -1   -1    0    0    0  501 -0.00000000000E+00 -0.00000000000E+00 -0.20231767384E+04  0.20231767384E+04  0.00000000000E+00 0. -1.
         25    1    1    2    0    0  0.89015228049E+01  0.21340484535E+03 -0.15219843826E+04  0.15419735167E+04  0.12500000000E+03 0.  0.
         21    1    1    2  502  501 -0.89015228049E+01 -0.21340484535E+03 -0.46797859575E+03  0.51441698184E+03  0.00000000000E+00 0.  1.
<mgrwt>
<rscale>  3 0.51844887E+03</rscale>
<asrwt>0</asrwt>
<pdfrwt beam="1">  1        1 0.51098082E-02 0.51844887E+03</pdfrwt>
<pdfrwt beam="2">  1       -1 0.31125802E+00 0.51844887E+03</pdfrwt>
<totfact> 0.51239728E+01</totfact>
</mgrwt>
</event>
<event>
 4    0  0.1264838E-002  0.6545315E+03  0.7546771E-02  0.9798313E-01
         -2   -1    0    0    0  501 -0.00000000000E+00  0.00000000000E+00  0.25845907317E+02  0.25845907317E+02  0.00000000000E+00 0.  1.
          2   -1    0    0  502    0  0.00000000000E+00 -0.00000000000E+00 -0.41439010267E+04  0.41439010267E+04  0.00000000000E+00 0. -1.
         25    1    1    2    0    0 -0.17854874895E+03 -0.25944193727E+03 -0.22334473317E+04  0.22590045945E+04  0.12500000000E+03 0.  0.
         21    1    1    2  502  501  0.17854874895E+03  0.25944193727E+03 -0.18846077877E+04  0.19107423395E+04  0.00000000000E+00 0.  1.
<mgrwt>
<rscale>  3 0.65453153E+03</rscale>
<asrwt>0</asrwt>
<pdfrwt beam="1">  1        2 0.63752297E+00 0.65453153E+03</pdfrwt>
<pdfrwt beam="2">  1       -2 0.39762951E-02 0.65453153E+03</pdfrwt>
<totfact> 0.86282287E+01</totfact>
</mgrwt>
</event>
<event>
 4    0  0.1264838E-002  0.5833750E+03  0.7546771E-02  0.9940511E-01
         -2   -1    0    0    0  501 -0.00000000000E+00  0.00000000000E+00  0.29587878564E+02  0.29587878564E+02  0.00000000000E+00 0. -1.
          2   -1    0    0  502    0  0.00000000000E+00 -0.00000000000E+00 -0.28755559816E+04  0.28755559816E+04  0.00000000000E+00 0.  1.
         25    1    1    2    0    0  0.15362925223E+03  0.14118919162E+03 -0.57125693818E+03  0.62088310042E+03  0.12500000000E+03 0.  0.
         21    1    1    2  502  501 -0.15362925223E+03 -0.14118919162E+03 -0.22747111649E+04  0.22842607598E+04  0.00000000000E+00 0.  1.
<mgrwt>
<rscale>  3 0.58337501E+03</rscale>
<asrwt>0</asrwt>
<pdfrwt beam="1">  1        2 0.44239324E+00 0.58337501E+03</pdfrwt>
<pdfrwt beam="2">  1       -2 0.45519812E-02 0.58337501E+03</pdfrwt>
<totfact> 0.53081537E+02</totfact>
</mgrwt>
</event>
<event>
 4    0  0.1264838E-002  0.5924923E+03  0.7546771E-02  0.9921106E-01
          2   -1    0    0  502    0  0.00000000000E+00  0.00000000000E+00  0.66422180403E+03  0.66422180403E+03  0.00000000000E+00 0.  1.
         -2   -1    0    0    0  501 -0.00000000000E+00 -0.00000000000E+00 -0.13212723237E+03  0.13212723237E+03  0.00000000000E+00 0. -1.
         25    1    1    2    0    0  0.12312467773E+03  0.22051792611E+03  0.44967365800E+03  0.53067809518E+03  0.12500000000E+03 0.  0.
         21    1    1    2  502  501 -0.12312467773E+03 -0.22051792611E+03  0.82420913652E+02  0.26567094122E+03  0.00000000000E+00 0. -1.
<mgrwt>
<rscale>  3 0.59249232E+03</rscale>
<asrwt>0</asrwt>
<pdfrwt beam="1">  1        2 0.10218797E+00 0.59249232E+03</pdfrwt>
<pdfrwt beam="2">  1       -2 0.20327267E-01 0.59249232E+03</pdfrwt>
<totfact> 0.91180605E+02</totfact>
</mgrwt>
</event>
<event>
 4    0  0.1264838E-002  0.4426300E+03  0.7546771E-02  0.1029943E+00
          2   -1    0    0  502    0  0.00000000000E+00  0.00000000000E+00  0.99322322011E+03  0.99322322011E+03  0.00000000000E+00 0.  1.
         -2   -1    0    0    0  501 -0.00000000000E+00 -0.00000000000E+00 -0.49314513513E+02  0.49314513513E+02  0.00000000000E+00 0. -1.
         25    1    1    2    0    0 -0.16336142351E+02  0.20225465612E+03  0.55076333259E+03  0.60011587547E+03  0.12500000000E+03 0.  0.
         21    1    1    2  502  501  0.16336142351E+02 -0.20225465612E+03  0.39314537400E+03  0.44242185815E+03  0.00000000000E+00 0. -1.
<mgrwt>
<rscale>  3 0.44262996E+03</rscale>
<asrwt>0</asrwt>
<pdfrwt beam="1">  1        2 0.15280356E+00 0.44262996E+03</pdfrwt>
<pdfrwt beam="2">  1       -2 0.75868490E-02 0.44262996E+03</pdfrwt>
<totfact> 0.27319991E+03</totfact>
</mgrwt>
</event>
<event>
 4    0  0.1264838E-002  0.6080311E+03  0.7546771E-02  0.9888883E-01
          1   -1    0    0  502    0  0.00000000000E+00  0.00000000000E+00  0.18515661827E+04  0.18515661827E+04  0.00000000000E+00 0. -1.
         -1   -1    0    0    0  501 -0.00000000000E+00 -0.00000000000E+00 -0.49917449261E+02  0.49917449261E+02  0.00000000000E+00 0.  1.
         25    1    1    2    0    0 -0.26079567155E+03  0.11124040437E+03  0.73171002387E+03  0.79461523324E+03  0.12500000000E+03 0.  0.
         21    1    1    2  502  501  0.26079567155E+03 -0.11124040437E+03  0.10699387096E+04  0.11068683987E+04  0.00000000000E+00 0. -1.
<mgrwt>
<rscale>  3 0.60803112E+03</rscale>
<asrwt>0</asrwt>
<pdfrwt beam="1">  1        1 0.28485628E+00 0.60803112E+03</pdfrwt>
<pdfrwt beam="2">  1       -1 0.76796090E-02 0.60803112E+03</pdfrwt>
<totfact> 0.37226651E+02</totfact>
</mgrwt>
</event>
<event>
 4    0  0.1264838E-002  0.6415548E+03  0.7546771E-02  0.9822756E-01
          1   -1    0    0  502    0  0.00000000000E+00  0.00000000000E+00  0.63251399252E+03  0.63251399252E+03  0.00000000000E+00 0. -1.
         -1   -1    0    0    0  501 -0.00000000000E+00 -0.00000000000E+00 -0.16268122400E+03  0.16268122400E+03  0.00000000000E+00 0.  1.
         25    1    1    2    0    0  0.38309205543E+02  0.24917720909E+03  0.46443787036E+03  0.54303260692E+03  0.12500000000E+03 0.  0.
         21    1    1    2  502  501 -0.38309205543E+02 -0.24917720909E+03  0.53948981662E+01  0.25216260961E+03  0.00000000000E+00 0.  1.
<mgrwt>
<rscale>  3 0.64155483E+03</rscale>
<asrwt>0</asrwt>
<pdfrwt beam="1">  1        1 0.97309844E-01 0.64155483E+03</pdfrwt>
<pdfrwt beam="2">  1       -1 0.25027881E-01 0.64155483E+03</pdfrwt>
<totfact> 0.44804402E+02</totfact>
</mgrwt>
</event>
<event>
 4    0  0.1264838E-002  0.5670031E+03  0.7546771E-02  0.9976332E-01
         -2   -1    0    0    0  501 -0.00000000000E+00  0.00000000000E+00  0.20185218997E+03  0.20185218997E+03  0.00000000000E+00 0.  1.
          2   -1    0    0  502    0  0.00000000000E+00 -0.00000000000E+00 -0.39817818534E+03  0.39817818534E+03  0.00000000000E+00 0. -1.
         25    1    1    2    0    0  0.39776969466E+02 -0.26096247969E+03 -0.16153891885E+03  0.33377154673E+03  0.12500000000E+03 0.  0.
         21    1    1    2  502  501 -0.39776969466E+02  0.26096247969E+03 -0.34787076518E+02  0.26625882858E+03  0.00000000000E+00 0.  1.
<mgrwt>
<rscale>  3 0.56700313E+03</rscale>
<asrwt>0</asrwt>
<pdfrwt beam="1">  1        2 0.61258181E-01 0.56700313E+03</pdfrwt>
<pdfrwt beam="2">  1       -2 0.31054184E-01 0.56700313E+03</pdfrwt>
<totfact> 0.77183952E+02</totfact>
</mgrwt>
</event>
<event>
 4    0  0.1264838E-002  0.4490191E+03  0.7546771E-02  0.1028015E+00
         -2   -1    0    0    0  501 -0.00000000000E+00  0.00000000000E+00  0.74707184657E+02  0.74707184657E+02  0.00000000000E+00 0.  1.
          2   -1    0    0  502    0  0.00000000000E+00 -0.00000000000E+00 -0.67469460501E+03  0.67469460501E+03  0.00000000000E+00 0. -1.
         25    1    1    2    0    0 -0.14222677704E+02 -0.20653391977E+03 -0.33328652119E+03  0.41178082736E+03  0.12500000000E+03 0.  0.
         21    1    1    2  502  501  0.14222677704E+02  0.20653391977E+03 -0.26670089917E+03  0.33762096231E+03  0.00000000000E+00 0. -1.
<mgrwt>
<rscale>  3 0.44901908E+03</rscale>
<asrwt>0</asrwt>
<pdfrwt beam="1">  1        2 0.10379917E+00 0.44901908E+03</pdfrwt>
<pdfrwt beam="2">  1       -2 0.11493413E-01 0.44901908E+03</pdfrwt>
<totfact> 0.23379144E+03</totfact>
</mgrwt>
</event>
<event>
 4    0  0.1264838E-002  0.4989792E+03  0.7546771E-02  0.1014046E+00
          3   -1    0    0  502    0  0.00000000000E+00  0.00000000000E+00  0.26911425791E+04  0.26911425791E+04  0.00000000000E+00 0. -1.
         -3   -1    0    0    0  501 -0.00000000000E+00 -0.00000000000E+00 -0.23129603153E+02  0.23129603153E+02  0.00000000000E+00 0.  1.
         25    1    1    2    0    0 -0.13795853375E+02  0.22165866525E+03  0.10196684282E+04  0.10510335831E+04  0.12500000000E+03 0.  0.
         21    1    1    2  502  501  0.13795853375E+02 -0.22165866525E+03  0.16483445478E+04  0.16632385992E+04  0.00000000000E+00 0. -1.
<mgrwt>
<rscale>  3 0.49897920E+03</rscale>
<asrwt>0</asrwt>
<pdfrwt beam="1">  1        3 0.41402169E+00 0.49897920E+03</pdfrwt>
<pdfrwt beam="2">  1       -3 0.35584026E-02 0.49897920E+03</pdfrwt>
<totfact> 0.11057689E+01</totfact>
</mgrwt>
</event>
<event>
 4    0  0.1264838E-002  0.8958243E+03  0.7546771E-02  0.9430816E-01
         -2   -1    0    0    0  501 -0.00000000000E+00  0.00000000000E+00  0.24654828972E+03  0.24654828972E+03  0.00000000000E+00 0.  1.
          2   -1    0    0  502    0  0.00000000000E+00 -0.00000000000E+00 -0.81373636912E+03  0.81373636912E+03  0.00000000000E+00 0. -1.
         25    1    1    2    0    0 -0.41185717136E+03 -0.14588415890E+03 -0.34178658918E+03  0.56864012342E+03  0.12500000000E+03 0.  0.
         21    1    1    2  502  501  0.41185717136E+03  0.14588415890E+03 -0.22540149022E+03  0.49164453542E+03  0.00000000000E+00 0.  1.
<mgrwt>
<rscale>  3 0.89582434E+03</rscale>
<asrwt>0</asrwt>
<pdfrwt beam="1">  1        2 0.12519021E+00 0.89582434E+03</pdfrwt>
<pdfrwt beam="2">  1       -2 0.37930506E-01 0.89582434E+03</pdfrwt>
<totfact> 0.22136765E+02</totfact>
</mgrwt>
</event>
<event>
 4    0  0.1264838E-002  0.1043812E+04  0.7546771E-02  0.9261756E-01
          2   -1    0    0  502    0  0.00000000000E+00  0.00000000000E+00  0.13160653710E+04  0.13160653710E+04  0.00000000000E+00 0.  1.
         -2   -1    0    0    0  501 -0.00000000000E+00 -0.00000000000E+00 -0.20696974006E+03  0.20696974006E+03  0.00000000000E+00 0. -1.
         25    1    1    2    0    0  0.25540489535E+03  0.39787307016E+03  0.85828818860E+03  0.98783513565E+03  0.12500000000E+03 0.  0.
         21    1    1    2  502  501 -0.25540489535E+03 -0.39787307016E+03  0.25080744230E+03  0.53519997538E+03  0.00000000000E+00 0. -1.
<mgrwt>
<rscale>  3 0.10438117E+04</rscale>
<asrwt>0</asrwt>
<pdfrwt beam="1">  1        2 0.20247159E+00 0.10438117E+04</pdfrwt>
<pdfrwt beam="2">  1       -2 0.31841499E-01 0.10438117E+04</pdfrwt>
<totfact> 0.14758917E+02</totfact>
</mgrwt>
</event>
<event>
 4    0  0.1264838E-002  0.6771665E+03  0.7546771E-02  0.9757097E-01
         -2   -1    0    0    0  501 -0.00000000000E+00  0.00000000000E+00  0.19972720323E+03  0.19972720323E+03  0.00000000000E+00 0.  1.
          2   -1    0    0  502    0  0.00000000000E+00 -0.00000000000E+00 -0.57397601797E+03  0.57397601797E+03  0.00000000000E+00 0. -1.
         25    1    1    2    0    0 -0.19204579188E+03 -0.24894065516E+03 -0.90630895268E+02  0.35027417140E+03  0.12500000000E+03 0.  0.
         21    1    1    2  502  501  0.19204579188E+03  0.24894065516E+03 -0.28361791947E+03  0.42342904980E+03  0.00000000000E+00 0. -1.
<mgrwt>
<rscale>  3 0.67716652E+03</rscale>
<asrwt>0</asrwt>
<pdfrwt beam="1">  1        2 0.88304002E-01 0.67716652E+03</pdfrwt>
<pdfrwt beam="2">  1       -2 0.30727262E-01 0.67716652E+03</pdfrwt>
<totfact> 0.51618304E+02</totfact>
</mgrwt>
</event>
<event>
 4    0  0.1264838E-002  0.8579074E+03  0.7546771E-02  0.9479785E-01
          2   -1    0    0  502    0  0.00000000000E+00  0.00000000000E+00  0.74029460451E+03  0.74029460451E+03  0.00000000000E+00 0. -1.
         -2   -1    0    0    0  501 -0.00000000000E+00 -0.00000000000E+00 -0.24855141450E+03  0.24855141450E+03  0.00000000000E+00 0.  1.
         25    1    1    2    0    0 -0.33955755047E+03 -0.18589768908E+03  0.43842194518E+03  0.59807698744E+03  0.12500000000E+03 0.  0.
         21    1    1    2  502  501  0.33955755047E+03  0.18589768908E+03  0.53321244834E+02  0.39076903157E+03  0.00000000000E+00 0.  1.
<mgrwt>
<rscale>  3 0.85790739E+03</rscale>
<asrwt>0</asrwt>
<pdfrwt beam="1">  1        2 0.11389148E+00 0.85790739E+03</pdfrwt>
<pdfrwt beam="2">  1       -2 0.38238679E-01 0.85790739E+03</pdfrwt>
<totfact> 0.24721255E+02</totfact>
</mgrwt>
</event>
<event>
 4    0  0.1264838E-002  0.6348856E+03  0.7546771E-02  0.9835561E-01
         -1   -1    0    0    0  501 -0.00000000000E+00  0.00000000000E+00  0.13190495668E+03  0.13190495668E+03  0.00000000000E+00 0.  1.
          1   -1    0    0  502    0  0.00000000000E+00 -0.00000000000E+00 -0.76395873862E+03  0.76395873862E+03  0.00000000000E+00 0. -1.
         25    1    1    2    0    0 -0.24045804479E+03 -0.13783010068E+03 -0.14817099682E+03  0.33822603723E+03  0.12500000000E+03 0.  0.
         21    1    1    2  502  501  0.24045804479E+03  0.13783010068E+03 -0.48388278513E+03  0.55763765807E+03  0.00000000000E+00 0. -1.
<mgrwt>
<rscale>  3 0.63488564E+03</rscale>
<asrwt>0</asrwt>
<pdfrwt beam="1">  1        1 0.11753211E+00 0.63488564E+03</pdfrwt>
<pdfrwt beam="2">  1       -1 0.20293070E-01 0.63488564E+03</pdfrwt>
<totfact> 0.48012791E+02</totfact>
</mgrwt>
</event>
<event>
 4    0  0.1264838E-002  0.4564348E+03  0.7546771E-02  0.1025820E+00
          1   -1    0    0  502    0  0.00000000000E+00  0.00000000000E+00  0.14170722595E+04  0.14170722595E+04  0.00000000000E+00 0.  1.
         -1   -1    0    0    0  501 -0.00000000000E+00 -0.00000000000E+00 -0.36754079491E+02  0.36754079491E+02  0.00000000000E+00 0. -1.
         25    1    1    2    0    0 -0.86505671704E+02 -0.19243598338E+03  0.76417576787E+03  0.80256117720E+03  0.12500000000E+03 0.  0.
         21    1    1    2  502  501  0.86505671704E+02  0.19243598338E+03  0.61614241212E+03  0.65126516178E+03  0.00000000000E+00 0. -1.
<mgrwt>
<rscale>  3 0.45643482E+03</rscale>
<asrwt>0</asrwt>
<pdfrwt beam="1">  1        1 0.21801108E+00 0.45643482E+03</pdfrwt>
<pdfrwt beam="2">  1       -1 0.56544748E-02 0.45643482E+03</pdfrwt>
<totfact> 0.11790233E+03</totfact>
</mgrwt>
</event>
<event>
 4    0  0.1264838E-002  0.1186540E+04  0.7546771E-02  0.9124720E-01
          1   -1    0    0  502    0  0.00000000000E+00  0.00000000000E+00  0.74141018453E+03  0.74141018453E+03  0.00000000000E+00 0.  1.
         -1   -1    0    0    0  501 -0.00000000000E+00 -0.00000000000E+00 -0.47472942175E+03  0.47472942175E+03  0.00000000000E+00 0. -1.
         25    1    1    2    0    0  0.14804633072E+03 -0.26190934544E+03 -0.38141687875E+03  0.50161544699E+03  0.12500000000E+03 0.  0.
         21    1    1    2  502  501 -0.14804633072E+03  0.26190934544E+03  0.64809764152E+03  0.71452415929E+03  0.00000000000E+00 0.  1.
<mgrwt>
<rscale>  3 0.11865399E+04</rscale>
<asrwt>0</asrwt>
<pdfrwt beam="1">  1        1 0.11406311E+00 0.11865399E+04</pdfrwt>
<pdfrwt beam="2">  1       -1 0.73035295E-01 0.11865399E+04</pdfrwt>
<totfact> 0.46703029E+01</totfact>
</mgrwt>
</event>
<event>
 4    0  0.1264838E-002  0.5528232E+03  0.7546771E-02  0.1000843E+00
          2   -1    0    0  502    0  0.00000000000E+00  0.00000000000E+00  0.57104432331E+03  0.57104432331E+03  0.00000000000E+00 0.  1.
         -2   -1    0    0    0  501 -0.00000000000E+00 -0.00000000000E+00 -0.13379584783E+03  0.13379584783E+03  0.00000000000E+00 0. -1.
         25    1    1    2    0    0 -0.21767914441E+03 -0.92171920398E+02  0.84931481237E+02  0.28056769117E+03  0.12500000000E+03 0.  0.
         21    1    1    2  502  501  0.21767914441E+03  0.92171920398E+02  0.35231699425E+03  0.42427247997E+03  0.00000000000E+00 0.  1.
<mgrwt>
<rscale>  3 0.55282315E+03</rscale>
<asrwt>0</asrwt>
<pdfrwt beam="1">  1        2 0.87852971E-01 0.55282315E+03</pdfrwt>
<pdfrwt beam="2">  1       -2 0.20583977E-01 0.55282315E+03</pdfrwt>
<totfact> 0.10708535E+03</totfact>
</mgrwt>
</event>
<event>
 4    0  0.1264838E-002  0.4912650E+03  0.7546771E-02  0.1016084E+00
          3   -1    0    0  502    0  0.00000000000E+00  0.00000000000E+00  0.18188616841E+03  0.18188616841E+03  0.00000000000E+00 0.  1.
         -3   -1    0    0    0  501 -0.00000000000E+00 -0.00000000000E+00 -0.33172019656E+03  0.33172019656E+03  0.00000000000E+00 0. -1.
         25    1    1    2    0    0 -0.19907523283E+03  0.39434792105E+02  0.32783857553E+02  0.24059474739E+03  0.12500000000E+03 0.  0.
         21    1    1    2  502  501  0.19907523283E+03 -0.39434792105E+02 -0.18261788570E+03  0.27301161758E+03  0.00000000000E+00 0. -1.
<mgrwt>
<rscale>  3 0.49126496E+03</rscale>
<asrwt>0</asrwt>
<pdfrwt beam="1">  1        3 0.27982488E-01 0.49126496E+03</pdfrwt>
<pdfrwt beam="2">  1       -3 0.51033876E-01 0.49126496E+03</pdfrwt>
<totfact> 0.12242140E+02</totfact>
</mgrwt>
</event>
<event>
 4    0  0.1264838E-002  0.5529672E+03  0.7546771E-02  0.1000809E+00
          2   -1    0    0  502    0  0.00000000000E+00  0.00000000000E+00  0.17531189828E+03  0.17531189828E+03  0.00000000000E+00 0.  1.
         -2   -1    0    0    0  501 -0.00000000000E+00 -0.00000000000E+00 -0.43604107562E+03  0.43604107562E+03  0.00000000000E+00 0. -1.
         25    1    1    2    0    0 -0.19275616047E+03 -0.92751474745E+02  0.30908380423E+02  0.24967599293E+03  0.12500000000E+03 0.  0.
         21    1    1    2  502  501  0.19275616047E+03  0.92751474745E+02 -0.29163755777E+03  0.36167698097E+03  0.00000000000E+00 0.  1.
<mgrwt>
<rscale>  3 0.55296723E+03</rscale>
<asrwt>0</asrwt>
<pdfrwt beam="1">  1        2 0.26971062E-01 0.55296723E+03</pdfrwt>
<pdfrwt beam="2">  1       -2 0.67083241E-01 0.55296723E+03</pdfrwt>
<totfact> 0.41361382E+02</totfact>
</mgrwt>
</event>
<event>
 4    0  0.1264838E-002  0.4890945E+03  0.7546771E-02  0.1016665E+00
         -2   -1    0    0    0  501 -0.00000000000E+00  0.00000000000E+00  0.65733980351E+02  0.65733980351E+02  0.00000000000E+00 0.  1.
          2   -1    0    0  502    0  0.00000000000E+00 -0.00000000000E+00 -0.90977843852E+03  0.90977843852E+03  0.00000000000E+00 0. -1.
         25    1    1    2    0    0  0.19657757300E+03  0.10678567031E+03 -0.54314143224E+03  0.60056101855E+03  0.12500000000E+03 0.  0.
         21    1    1    2  502  501 -0.19657757300E+03 -0.10678567031E+03 -0.30090302593E+03  0.37495140032E+03  0.00000000000E+00 0.  1.
<mgrwt>
<rscale>  3 0.48909450E+03</rscale>
<asrwt>0</asrwt>
<pdfrwt beam="1">  1        2 0.13996591E+00 0.48909450E+03</pdfrwt>
<pdfrwt beam="2">  1       -2 0.10112920E-01 0.48909450E+03</pdfrwt>
<totfact> 0.19538656E+03</totfact>
</mgrwt>
</event>
<event>
 4    0  0.1264838E-002  0.6040291E+03  0.7546771E-02  0.9897082E-01
          2   -1    0    0  502    0  0.00000000000E+00  0.00000000000E+00  0.13143186276E+04  0.13143186276E+04  0.00000000000E+00 0.  1.
         -2   -1    0    0    0  501 -0.00000000000E+00 -0.00000000000E+00 -0.69399289917E+02  0.69399289917E+02  0.00000000000E+00 0. -1.
         25    1    1    2    0    0  0.18924883208E+03  0.21373950881E+03  0.75328899445E+03  0.81521102006E+03  0.12500000000E+03 0.  0.
         21    1    1    2  502  501 -0.18924883208E+03 -0.21373950881E+03  0.49163034326E+03  0.56850689748E+03  0.00000000000E+00 0.  1.
<mgrwt>
<rscale>  3 0.60402907E+03</rscale>
<asrwt>0</asrwt>
<pdfrwt beam="1">  1        2 0.20220285E+00 0.60402907E+03</pdfrwt>
<pdfrwt beam="2">  1       -2 0.10676815E-01 0.60402907E+03</pdfrwt>
<totfact> 0.10144066E+03</totfact>
</mgrwt>
</event>
<event>
 4    0  0.1264838E-002  0.4864052E+03  0.7546771E-02  0.1017390E+00
          1   -1    0    0  502    0  0.00000000000E+00  0.00000000000E+00  0.10605406439E+04  0.10605406439E+04  0.00000000000E+00 0. -1.
         -1   -1    0    0    0  501 -0.00000000000E+00 -0.00000000000E+00 -0.55771083200E+02  0.55771083200E+02  0.00000000000E+00 0.  1.
         25    1    1    2    0    0 -0.20690482668E+03 -0.93719142659E+02  0.53485960232E+03  0.59438428579E+03  0.12500000000E+03 0.  0.
         21    1    1    2  502  501  0.20690482668E+03  0.93719142659E+02  0.46990995843E+03  0.52192744135E+03  0.00000000000E+00 0.  1.
<mgrwt>
<rscale>  3 0.48640518E+03</rscale>
<asrwt>0</asrwt>
<pdfrwt beam="1">  1        1 0.16316008E+00 0.48640518E+03</pdfrwt>
<pdfrwt beam="2">  1       -1 0.85801674E-02 0.48640518E+03</pdfrwt>
<totfact> 0.11084187E+03</totfact>
</mgrwt>
</event>
<event>
 4    0  0.1264838E-002  0.1072124E+04  0.7546771E-02  0.9232796E-01
          2   -1    0    0  502    0  0.00000000000E+00  0.00000000000E+00  0.32420047958E+04  0.32420047958E+04  0.00000000000E+00 0.  1.
         -2   -1    0    0    0  501 -0.00000000000E+00 -0.00000000000E+00 -0.88637313634E+02  0.88637313634E+02  0.00000000000E+00 0. -1.
         25    1    1    2    0    0 -0.86474320217E+01 -0.40655228827E+03  0.26481395222E+04  0.26820938594E+04  0.12500000000E+03 0.  0.
         21    1    1    2  502  501  0.86474320217E+01  0.40655228827E+03  0.50522795990E+03  0.64854825005E+03  0.00000000000E+00 0. -1.
<mgrwt>
<rscale>  3 0.10721242E+04</rscale>
<asrwt>0</asrwt>
<pdfrwt beam="1">  1        2 0.49876988E+00 0.10721242E+04</pdfrwt>
<pdfrwt beam="2">  1       -2 0.13636512E-01 0.10721242E+04</pdfrwt>
<totfact> 0.51237477E+01</totfact>
</mgrwt>
</event>
<event>
 4    0  0.1264838E-002  0.4721012E+03  0.7546771E-02  0.1021329E+00
          2   -1    0    0  502    0  0.00000000000E+00  0.00000000000E+00  0.32023033662E+03  0.32023033662E+03  0.00000000000E+00 0. -1.
         -2   -1    0    0    0  501 -0.00000000000E+00 -0.00000000000E+00 -0.17399937420E+03  0.17399937420E+03  0.00000000000E+00 0.  1.
         25    1    1    2    0    0 -0.11290566277E+03 -0.18780735530E+03  0.64919414926E+02  0.26049725876E+03  0.12500000000E+03 0.  0.
         21    1    1    2  502  501  0.11290566277E+03  0.18780735530E+03  0.81311547488E+02  0.23373245205E+03  0.00000000000E+00 0. -1.
<mgrwt>
<rscale>  3 0.47210117E+03</rscale>
<asrwt>0</asrwt>
<pdfrwt beam="1">  1        2 0.49266205E-01 0.47210117E+03</pdfrwt>
<pdfrwt beam="2">  1       -2 0.26769135E-01 0.47210117E+03</pdfrwt>
<totfact> 0.12893379E+03</totfact>
</mgrwt>
</event>
<event>
 4    0  0.1264838E-002  0.6494851E+03  0.7546771E-02  0.9807746E-01
          1   -1    0    0  502    0  0.00000000000E+00  0.00000000000E+00  0.77290668729E+03  0.77290668729E+03  0.00000000000E+00 0.  1.
         -1   -1    0    0    0  501 -0.00000000000E+00 -0.00000000000E+00 -0.13644301897E+03  0.13644301897E+03  0.00000000000E+00 0. -1.
         25    1    1    2    0    0 -0.15175050946E+03  0.21324147383E+03  0.56963758610E+03  0.63922775501E+03  0.12500000000E+03 0.  0.
         21    1    1    2  502  501  0.15175050946E+03 -0.21324147383E+03  0.66826082231E+02  0.27012195125E+03  0.00000000000E+00 0. -1.
<mgrwt>
<rscale>  3 0.64948509E+03</rscale>
<asrwt>0</asrwt>
<pdfrwt beam="1">  1        1 0.11890872E+00 0.64948509E+03</pdfrwt>
<pdfrwt beam="2">  1       -1 0.20991234E-01 0.64948509E+03</pdfrwt>
<totfact> 0.44536566E+02</totfact>
</mgrwt>
</event>
<event>
 4    0  0.1264838E-002  0.6650434E+03  0.7546771E-02  0.9778954E-01
          2   -1    0    0  502    0  0.00000000000E+00  0.00000000000E+00  0.44422103793E+03  0.44422103793E+03  0.00000000000E+00 0. -1.
         -2   -1    0    0    0  501 -0.00000000000E+00 -0.00000000000E+00 -0.24890914498E+03  0.24890914498E+03  0.00000000000E+00 0.  1.
         25    1    1    2    0    0 -0.15150763834E+03  0.28115054470E+03  0.69908760070E+02  0.35001775383E+03  0.12500000000E+03 0.  0.
         21    1    1    2  502  501  0.15150763834E+03 -0.28115054470E+03  0.12540313288E+03  0.34311242909E+03  0.00000000000E+00 0. -1.
<mgrwt>
<rscale>  3 0.66504339E+03</rscale>
<asrwt>0</asrwt>
<pdfrwt beam="1">  1        2 0.68341698E-01 0.66504339E+03</pdfrwt>
<pdfrwt beam="2">  1       -2 0.38293715E-01 0.66504339E+03</pdfrwt>
<totfact> 0.45812131E+02</totfact>
</mgrwt>
</event>
<event>
 4    0  0.1272563E-002  0.6895713E+03  0.7546771E-02  0.9735235E-01
         -3   -1    0    0    0  501 -0.00000000000E+00  0.00000000000E+00  0.31722951392E+03  0.31722951392E+03  0.00000000000E+00 0. -1.
          3   -1    0    0  502    0  0.00000000000E+00 -0.00000000000E+00 -0.37473546155E+03  0.37473546155E+03  0.00000000000E+00 0.  1.
         25    1    1    2    0    0 -0.25114364488E+03  0.31744684162E+02  0.18810899536E+03  0.33925042295E+03  0.12500000000E+03 0.  0.
         21    1    1    2  502  501  0.25114364488E+03 -0.31744684162E+02 -0.24561494299E+03  0.35271455251E+03  0.00000000000E+00 0.  1.
<mgrwt>
<rscale>  3 0.68957131E+03</rscale>
<asrwt>0</asrwt>
<pdfrwt beam="1">  1        3 0.57651609E-01 0.68957131E+03</pdfrwt>
<pdfrwt beam="2">  1       -3 0.48804541E-01 0.68957131E+03</pdfrwt>
<totfact> 0.32444036E+01</totfact>
</mgrwt>
</event>
<event>
 4    0  0.1264838E-002  0.6375488E+03  0.7546771E-02  0.9830428E-01
          2   -1    0    0  502    0  0.00000000000E+00  0.00000000000E+00  0.11959721818E+04  0.11959721818E+04  0.00000000000E+00 0. -1.
         -2   -1    0    0    0  501 -0.00000000000E+00 -0.00000000000E+00 -0.84966126205E+02  0.84966126205E+02  0.00000000000E+00 0.  1.
         25    1    1    2    0    0 -0.20081935135E+03 -0.22652189860E+03  0.48020406032E+03  0.58125856722E+03  0.12500000000E+03 0.  0.
         21    1    1    2  502  501  0.20081935135E+03  0.22652189860E+03  0.63080199530E+03  0.69967974081E+03  0.00000000000E+00 0.  1.
<mgrwt>
<rscale>  3 0.63754882E+03</rscale>
<asrwt>0</asrwt>
<pdfrwt beam="1">  1        2 0.18399571E+00 0.63754882E+03</pdfrwt>
<pdfrwt beam="2">  1       -2 0.13071713E-01 0.63754882E+03</pdfrwt>
<totfact> 0.85021498E+02</totfact>
</mgrwt>
</event>
<event>
 4    0  0.1264838E-002  0.5527807E+03  0.7546771E-02  0.1000852E+00
         -1   -1    0    0    0  501 -0.00000000000E+00  0.00000000000E+00  0.14958368205E+03  0.14958368205E+03  0.00000000000E+00 0. -1.
          1   -1    0    0  502    0  0.00000000000E+00 -0.00000000000E+00 -0.51069483450E+03  0.51069483450E+03  0.00000000000E+00 0.  1.
         25    1    1    2    0    0 -0.23471456625E+03  0.21326133030E+02 -0.52382245637E+02  0.27187245395E+03  0.12500000000E+03 0.  0.
         21    1    1    2  502  501  0.23471456625E+03 -0.21326133030E+02 -0.30872890681E+03  0.38840606260E+03  0.00000000000E+00 0.  1.
<mgrwt>
<rscale>  3 0.55278066E+03</rscale>
<asrwt>0</asrwt>
<pdfrwt beam="1">  1        1 0.78568434E-01 0.55278066E+03</pdfrwt>
<pdfrwt beam="2">  1       -1 0.23012875E-01 0.55278066E+03</pdfrwt>
<totfact> 0.69988932E+02</totfact>
</mgrwt>
</event>
<event>
 4    0  0.1264838E-002  0.5864133E+03  0.7546771E-02  0.9934002E-01
          2   -1    0    0  502    0  0.00000000000E+00  0.00000000000E+00  0.44160039287E+03  0.44160039287E+03  0.00000000000E+00 0. -1.
         -2   -1    0    0    0  501 -0.00000000000E+00 -0.00000000000E+00 -0.19467856194E+03  0.19467856194E+03  0.00000000000E+00 0.  1.
         25    1    1    2    0    0 -0.11162072994E+03  0.25623506771E+03  0.14514680786E+03  0.33883357730E+03  0.12500000000E+03 0.  0.
         21    1    1    2  502  501  0.11162072994E+03 -0.25623506771E+03  0.10177502308E+03  0.29744537751E+03  0.00000000000E+00 0.  1.
<mgrwt>
<rscale>  3 0.58641327E+03</rscale>
<asrwt>0</asrwt>
<pdfrwt beam="1">  1        2 0.67938522E-01 0.58641327E+03</pdfrwt>
<pdfrwt beam="2">  1       -2 0.29950548E-01 0.58641327E+03</pdfrwt>
<totfact> 0.73459198E+02</totfact>
</mgrwt>
</event>
<event>
 4    0  0.1264838E-002  0.6989816E+03  0.7546771E-02  0.9718975E-01
         -1   -1    0    0    0  501 -0.00000000000E+00  0.00000000000E+00  0.47374340532E+03  0.47374340532E+03  0.00000000000E+00 0.  1.
          1   -1    0    0  502    0  0.00000000000E+00 -0.00000000000E+00 -0.25782696304E+03  0.25782696304E+03  0.00000000000E+00 0. -1.
         25    1    1    2    0    0 -0.26716949571E+03  0.14355767190E+03 -0.45470658270E+02  0.33118110659E+03  0.12500000000E+03 0.  0.
         21    1    1    2  502  501  0.26716949571E+03 -0.14355767190E+03  0.26138710055E+03  0.40038926176E+03  0.00000000000E+00 0.  1.
<mgrwt>
<rscale>  3 0.69898161E+03</rscale>
<asrwt>0</asrwt>
<pdfrwt beam="1">  1        1 0.39665687E-01 0.69898161E+03</pdfrwt>
<pdfrwt beam="2">  1       -1 0.72883601E-01 0.69898161E+03</pdfrwt>
<totfact> 0.20574587E+02</totfact>
</mgrwt>
</event>
<event>
 4    0  0.1264838E-002  0.5100653E+03  0.7546771E-02  0.1011185E+00
         -2   -1    0    0    0  501 -0.00000000000E+00  0.00000000000E+00  0.13379493926E+03  0.13379493926E+03  0.00000000000E+00 0. -1.
          2   -1    0    0  502    0  0.00000000000E+00 -0.00000000000E+00 -0.48612930340E+03  0.48612930340E+03  0.00000000000E+00 0.  1.
         25    1    1    2    0    0  0.11041433192E+03 -0.21159690719E+03 -0.15959330068E+03  0.31314469092E+03  0.12500000000E+03 0.  0.
         21    1    1    2  502  501 -0.11041433192E+03  0.21159690719E+03 -0.19274106346E+03  0.30677955175E+03  0.00000000000E+00 0. -1.
<mgrwt>
<rscale>  3 0.51006525E+03</rscale>
<asrwt>0</asrwt>
<pdfrwt beam="1">  1        2 0.74789122E-01 0.51006525E+03</pdfrwt>
<pdfrwt beam="2">  1       -2 0.20583837E-01 0.51006525E+03</pdfrwt>
<totfact> 0.12910168E+03</totfact>
</mgrwt>
</event>
<event>
 4    0  0.1425029E-002  0.7494586E+03  0.7546771E-02  0.9636200E-01
         -2   -1    0    0    0  501 -0.00000000000E+00  0.00000000000E+00  0.13408706237E+03  0.13408706237E+03  0.00000000000E+00 0.  1.
          2   -1    0    0  502    0  0.00000000000E+00 -0.00000000000E+00 -0.10472453921E+04  0.10472453921E+04  0.00000000000E+00 0. -1.
         25    1    1    2    0    0 -0.20628968426E+03  0.15166863348E+03 -0.60793548941E+02  0.29134114678E+03  0.12500000000E+03 0.  0.
         21    1    1    2  502  501  0.20628968426E+03 -0.15166863348E+03 -0.85236478083E+03  0.88999130772E+03  0.00000000000E+00 0. -1.
<mgrwt>
<rscale>  3 0.74945863E+03</rscale>
<asrwt>0</asrwt>
<pdfrwt beam="1">  1        2 0.16111468E+00 0.74945863E+03</pdfrwt>
<pdfrwt beam="2">  1       -2 0.20628778E-01 0.74945863E+03</pdfrwt>
<totfact> 0.47795105E+02</totfact>
</mgrwt>
</event>
<event>
 4    0  0.1264838E-002  0.8101894E+03  0.7546771E-02  0.9545384E-01
          2   -1    0    0  502    0  0.00000000000E+00  0.00000000000E+00  0.15932142685E+04  0.15932142685E+04  0.00000000000E+00 0.  1.
         -2   -1    0    0    0  501 -0.00000000000E+00 -0.00000000000E+00 -0.10300041106E+03  0.10300041106E+03  0.00000000000E+00 0. -1.
         25    1    1    2    0    0 -0.28941241022E+03 -0.26794723476E+03  0.82304831057E+03  0.92118878919E+03  0.12500000000E+03 0.  0.
         21    1    1    2  502  501  0.28941241022E+03  0.26794723476E+03  0.66716554691E+03  0.77502589040E+03  0.00000000000E+00 0.  1.
<mgrwt>
<rscale>  3 0.81018942E+03</rscale>
<asrwt>0</asrwt>
<pdfrwt beam="1">  1        2 0.24510987E+00 0.81018942E+03</pdfrwt>
<pdfrwt beam="2">  1       -2 0.15846218E-01 0.81018942E+03</pdfrwt>
<totfact> 0.36289731E+02</totfact>
</mgrwt>
</event>
<event>
 4    0  0.1264838E-002  0.7471698E+03  0.7546771E-02  0.9639801E-01
         -2   -1    0    0    0  501 -0.00000000000E+00  0.00000000000E+00  0.22513661742E+03  0.22513661742E+03  0.00000000000E+00 0.  1.
          2   -1    0    0  502    0  0.00000000000E+00 -0.00000000000E+00 -0.61991541311E+03  0.61991541311E+03  0.00000000000E+00 0. -1.
         25    1    1    2    0    0  0.24543366333E+03  0.19030709519E+03  0.99071838699E+01  0.33492928487E+03  0.12500000000E+03 0.  0.
         21    1    1    2  502  501 -0.24543366333E+03 -0.19030709519E+03 -0.40468597956E+03  0.51012274565E+03  0.00000000000E+00 0. -1.
<mgrwt>
<rscale>  3 0.74716975E+03</rscale>
<asrwt>0</asrwt>
<pdfrwt beam="1">  1        2 0.95371600E-01 0.74716975E+03</pdfrwt>
<pdfrwt beam="2">  1       -2 0.34636403E-01 0.74716975E+03</pdfrwt>
<totfact> 0.37486589E+02</totfact>
</mgrwt>
</event>
<event>
 4    0  0.1264838E-002  0.6397834E+03  0.7546771E-02  0.9826141E-01
          1   -1    0    0  502    0  0.00000000000E+00  0.00000000000E+00  0.29152761329E+03  0.29152761329E+03  0.00000000000E+00 0. -1.
         -1   -1    0    0    0  501 -0.00000000000E+00 -0.00000000000E+00 -0.35101548961E+03  0.35101548961E+03  0.00000000000E+00 0.  1.
         25    1    1    2    0    0 -0.21925601786E+03  0.19119493406E+03 -0.13150442045E+03  0.34285145001E+03  0.12500000000E+03 0.  0.
         21    1    1    2  502  501  0.21925601786E+03 -0.19119493406E+03  0.72016544134E+02  0.29969165288E+03  0.00000000000E+00 0. -1.
<mgrwt>
<rscale>  3 0.63978343E+03</rscale>
<asrwt>0</asrwt>
<pdfrwt beam="1">  1        1 0.44850402E-01 0.63978343E+03</pdfrwt>
<pdfrwt beam="2">  1       -1 0.54002383E-01 0.63978343E+03</pdfrwt>
<totfact> 0.31949095E+02</totfact>
</mgrwt>
</event>
<event>
 4    0  0.1264838E-002  0.5842867E+03  0.7546771E-02  0.9938553E-01
         -1   -1    0    0    0  501 -0.00000000000E+00  0.00000000000E+00  0.12943649268E+04  0.12943649268E+04  0.00000000000E+00 0. -1.
          1   -1    0    0  502    0  0.00000000000E+00 -0.00000000000E+00 -0.65937932646E+02  0.65937932646E+02  0.00000000000E+00 0.  1.
         25    1    1    2    0    0 -0.23394528368E+03 -0.15073077237E+03  0.68014370817E+03  0.74543317961E+03  0.12500000000E+03 0.  0.
         21    1    1    2  502  501  0.23394528368E+03  0.15073077237E+03  0.54828328594E+03  0.61486967980E+03  0.00000000000E+00 0. -1.
<mgrwt>
<rscale>  3 0.58428674E+03</rscale>
<asrwt>0</asrwt>
<pdfrwt beam="1">  1        1 0.10144298E-01 0.58428674E+03</pdfrwt>
<pdfrwt beam="2">  1       -1 0.19913305E+00 0.58428674E+03</pdfrwt>
<totfact> 0.10369714E+02</totfact>
</mgrwt>
</event>
<event>
 4    0  0.1264838E-002  0.4532762E+03  0.7546771E-02  0.1026750E+00
         -2   -1    0    0    0  501 -0.00000000000E+00  0.00000000000E+00  0.42127238117E+02  0.42127238117E+02  0.00000000000E+00 0.  1.
          2   -1    0    0  502    0  0.00000000000E+00 -0.00000000000E+00 -0.12192783620E+04  0.12192783620E+04  0.00000000000E+00 0. -1.
         25    1    1    2    0    0  0.20333785181E+03 -0.34583408337E+02 -0.53272493326E+03  0.58477615258E+03  0.12500000000E+03 0.  0.
         21    1    1    2  502  501 -0.20333785181E+03  0.34583408337E+02 -0.64442619061E+03  0.67662944752E+03  0.00000000000E+00 0. -1.
<mgrwt>
<rscale>  3 0.45327621E+03</rscale>
<asrwt>0</asrwt>
<pdfrwt beam="1">  1        2 0.18758128E+00 0.45327621E+03</pdfrwt>
<pdfrwt beam="2">  1       -2 0.64811139E-02 0.45327621E+03</pdfrwt>
<totfact> 0.25601368E+03</totfact>
</mgrwt>
</event>
<event>
 4    0  0.1264838E-002  0.4992595E+03  0.7546771E-02  0.1013972E+00
         -2   -1    0    0    0  501 -0.00000000000E+00  0.00000000000E+00  0.75482777946E+03  0.75482777946E+03  0.00000000000E+00 0. -1.
          2   -1    0    0  502    0  0.00000000000E+00 -0.00000000000E+00 -0.82555278435E+02  0.82555278435E+02  0.00000000000E+00 0.  1.
         25    1    1    2    0    0 -0.19133209272E+03  0.12579197713E+03  0.27649337450E+03  0.38013836606E+03  0.12500000000E+03 0.  0.
         21    1    1    2  502  501  0.19133209272E+03 -0.12579197713E+03  0.39577912653E+03  0.45724469184E+03  0.00000000000E+00 0.  1.
<mgrwt>
<rscale>  3 0.49925952E+03</rscale>
<asrwt>0</asrwt>
<pdfrwt beam="1">  1        2 0.12700813E-01 0.49925952E+03</pdfrwt>
<pdfrwt beam="2">  1       -2 0.11612735E+00 0.49925952E+03</pdfrwt>
<totfact> 0.28699155E+02</totfact>
</mgrwt>
</event>
<event>
 4    0  0.1264838E-002  0.5332021E+03  0.7546771E-02  0.1005459E+00
          1   -1    0    0  502    0  0.00000000000E+00  0.00000000000E+00  0.63160674933E+03  0.63160674933E+03  0.00000000000E+00 0. -1.
         -1   -1    0    0    0  501 -0.00000000000E+00 -0.00000000000E+00 -0.11253221712E+03  0.11253221712E+03  0.00000000000E+00 0.  1.
         25    1    1    2    0    0  0.96663197547E+02 -0.22510065371E+03  0.35594294411E+03  0.44981602630E+03  0.12500000000E+03 0.  0.
         21    1    1    2  502  501 -0.96663197547E+02  0.22510065371E+03  0.16313158810E+03  0.29432294015E+03  0.00000000000E+00 0.  1.
<mgrwt>
<rscale>  3 0.53320205E+03</rscale>
<asrwt>0</asrwt>
<pdfrwt beam="1">  1        1 0.97170267E-01 0.53320205E+03</pdfrwt>
<pdfrwt beam="2">  1       -1 0.17312649E-01 0.53320205E+03</pdfrwt>
<totfact> 0.83228247E+02</totfact>
</mgrwt>
</event>
<event>
 4    0  0.1264838E-002  0.4970041E+03  0.7546771E-02  0.1014564E+00
         -1   -1    0    0    0  501 -0.00000000000E+00  0.00000000000E+00  0.51970387976E+03  0.51970387976E+03  0.00000000000E+00 0.  1.
          1   -1    0    0  502    0  0.00000000000E+00 -0.00000000000E+00 -0.11882394238E+03  0.11882394238E+03  0.00000000000E+00 0. -1.
         25    1    1    2    0    0 -0.20720438738E+03  0.77273610993E+02  0.11973770593E+03  0.28083266784E+03  0.12500000000E+03 0.  0.
         21    1    1    2  502  501  0.20720438738E+03 -0.77273610993E+02  0.28114223145E+03  0.35769515430E+03  0.00000000000E+00 0.  1.
<mgrwt>
<rscale>  3 0.49700408E+03</rscale>
<asrwt>0</asrwt>
<pdfrwt beam="1">  1        1 0.18280607E-01 0.49700408E+03</pdfrwt>
<pdfrwt beam="2">  1       -1 0.79954442E-01 0.49700408E+03</pdfrwt>
<totfact> 0.46810082E+02</totfact>
</mgrwt>
</event>
<event>
 4    0  0.1264838E-002  0.4745585E+03  0.7546771E-02  0.1020641E+00
         -2   -1    0    0    0  501 -0.00000000000E+00  0.00000000000E+00  0.18416790035E+03  0.18416790035E+03  0.00000000000E+00 0.  1.
          2   -1    0    0  502    0  0.00000000000E+00 -0.00000000000E+00 -0.30570710045E+03  0.30570710045E+03  0.00000000000E+00 0. -1.
         25    1    1    2    0    0 -0.20213964938E+03 -0.88795266906E+02 -0.60998936467E+02  0.26094234521E+03  0.12500000000E+03 0.  0.
         21    1    1    2  502  501  0.20213964938E+03  0.88795266906E+02 -0.60540263627E+02  0.22893265559E+03  0.00000000000E+00 0. -1.
<mgrwt>
<rscale>  3 0.47455847E+03</rscale>
<asrwt>0</asrwt>
<pdfrwt beam="1">  1        2 0.47031861E-01 0.47455847E+03</pdfrwt>
<pdfrwt beam="2">  1       -2 0.28333524E-01 0.47455847E+03</pdfrwt>
<totfact> 0.12238818E+03</totfact>
</mgrwt>
</event>
<event>
 4    0  0.1264838E-002  0.6230136E+03  0.7546771E-02  0.9858778E-01
          2   -1    0    0  502    0  0.00000000000E+00  0.00000000000E+00  0.26415603576E+04  0.26415603576E+04  0.00000000000E+00 0.  1.
         -2   -1    0    0    0  501 -0.00000000000E+00 -0.00000000000E+00 -0.36734533207E+02  0.36734533207E+02  0.00000000000E+00 0. -1.
         25    1    1    2    0    0 -0.14685067842E+03  0.21684008400E+03  0.19747910660E+04  0.19959983713E+04  0.12500000000E+03 0.  0.
         21    1    1    2  502  501  0.14685067842E+03 -0.21684008400E+03  0.63003475841E+03  0.68229651955E+03  0.00000000000E+00 0.  1.
<mgrwt>
<rscale>  3 0.62301360E+03</rscale>
<asrwt>0</asrwt>
<pdfrwt beam="1">  1        2 0.40639375E+00 0.62301360E+03</pdfrwt>
<pdfrwt beam="2">  1       -2 0.56514687E-02 0.62301360E+03</pdfrwt>
<totfact> 0.51743410E+02</totfact>
</mgrwt>
</event>
<event>
 4    0  0.1264838E-002  0.5025082E+03  0.7546771E-02  0.1013126E+00
         -2   -1    0    0    0  501 -0.00000000000E+00  0.00000000000E+00  0.33160689486E+03  0.33160689486E+03  0.00000000000E+00 0.  1.
          2   -1    0    0  502    0  0.00000000000E+00 -0.00000000000E+00 -0.19037184676E+03  0.19037184676E+03  0.00000000000E+00 0. -1.
         25    1    1    2    0    0  0.16073879465E+03 -0.15797403598E+03  0.14669132822E+03  0.29654021975E+03  0.12500000000E+03 0.  0.
         21    1    1    2  502  501 -0.16073879465E+03  0.15797403598E+03 -0.54562801222E+01  0.22543852187E+03  0.00000000000E+00 0.  1.
<mgrwt>
<rscale>  3 0.50250818E+03</rscale>
<asrwt>0</asrwt>
<pdfrwt beam="1">  1        2 0.29287976E-01 0.50250818E+03</pdfrwt>
<pdfrwt beam="2">  1       -2 0.51016445E-01 0.50250818E+03</pdfrwt>
<totfact> 0.66810908E+02</totfact>
</mgrwt>
</event>
<event>
 4    0  0.1264838E-002  0.5131420E+03  0.7546771E-02  0.1010404E+00
         -2   -1    0    0    0  501 -0.00000000000E+00  0.00000000000E+00  0.83178663000E+02  0.83178663000E+02  0.00000000000E+00 0. -1.
          2   -1    0    0  502    0  0.00000000000E+00 -0.00000000000E+00 -0.79141300669E+03  0.79141300669E+03  0.00000000000E+00 0.  1.
         25    1    1    2    0    0 -0.19042443275E+02  0.24052467738E+03 -0.38495627964E+03  0.47120173207E+03  0.12500000000E+03 0.  0.
         21    1    1    2  502  501  0.19042443275E+02 -0.24052467738E+03 -0.32327806405E+03  0.40338993762E+03  0.00000000000E+00 0.  1.
<mgrwt>
<rscale>  3 0.51314199E+03</rscale>
<asrwt>0</asrwt>
<pdfrwt beam="1">  1        2 0.12175585E+00 0.51314199E+03</pdfrwt>
<pdfrwt beam="2">  1       -2 0.12796717E-01 0.51314199E+03</pdfrwt>
<totfact> 0.16031255E+03</totfact>
</mgrwt>
</event>
<event>
 4    0  0.1264838E-002  0.5251724E+03  0.7546771E-02  0.1007410E+00
          2   -1    0    0  502    0  0.00000000000E+00  0.00000000000E+00  0.13238348397E+04  0.13238348397E+04  0.00000000000E+00 0. -1.
         -2   -1    0    0    0  501 -0.00000000000E+00 -0.00000000000E+00 -0.52084677604E+02  0.52084677604E+02  0.00000000000E+00 0.  1.
         25    1    1    2    0    0 -0.14334479754E+03 -0.20202021460E+03  0.67357658329E+03  0.72848494264E+03  0.12500000000E+03 0.  0.
         21    1    1    2  502  501  0.14334479754E+03  0.20202021460E+03  0.59817357876E+03  0.64743457463E+03  0.00000000000E+00 0.  1.
<mgrwt>
<rscale>  3 0.52517239E+03</rscale>
<asrwt>0</asrwt>
<pdfrwt beam="1">  1        2 0.20366687E+00 0.52517239E+03</pdfrwt>
<pdfrwt beam="2">  1       -2 0.80130283E-02 0.52517239E+03</pdfrwt>
<totfact> 0.15945071E+03</totfact>
</mgrwt>
</event>
<event>
 4    0  0.1264838E-002  0.7560169E+03  0.7546771E-02  0.9625958E-01
          2   -1    0    0  502    0  0.00000000000E+00  0.00000000000E+00  0.56774226327E+03  0.56774226327E+03  0.00000000000E+00 0. -1.
         -2   -1    0    0    0  501 -0.00000000000E+00 -0.00000000000E+00 -0.25168176411E+03  0.25168176411E+03  0.00000000000E+00 0.  1.
         25    1    1    2    0    0 -0.10922359527E+03  0.23422673898E+03  0.44580405966E+03  0.53024354652E+03  0.12500000000E+03 0.  0.
         21    1    1    2  502  501  0.10922359527E+03 -0.23422673898E+03 -0.12974356050E+03  0.28918048086E+03  0.00000000000E+00 0.  1.
<mgrwt>
<rscale>  3 0.75601686E+03</rscale>
<asrwt>0</asrwt>
<pdfrwt beam="1">  1        2 0.87344963E-01 0.75601686E+03</pdfrwt>
<pdfrwt beam="2">  1       -2 0.38720272E-01 0.75601686E+03</pdfrwt>
<totfact> 0.33636791E+02</totfact>
</mgrwt>
</event>
<event>
 4    0  0.1264838E-002  0.5446046E+03  0.7546771E-02  0.1002751E+00
          2   -1    0    0  502    0  0.00000000000E+00  0.00000000000E+00  0.86415694280E+03  0.86415694280E+03  0.00000000000E+00 0.  1.
         -2   -1    0    0    0  501 -0.00000000000E+00 -0.00000000000E+00 -0.85804484662E+02  0.85804484662E+02  0.00000000000E+00 0. -1.
         25    1    1    2    0    0  0.20005410368E+03 -0.80289504281E+02  0.16254074699E+03  0.29751057684E+03  0.12500000000E+03 0.  0.
         21    1    1    2  502  501 -0.20005410368E+03  0.80289504281E+02  0.61581171115E+03  0.65245085063E+03  0.00000000000E+00 0. -1.
<mgrwt>
<rscale>  3 0.54460459E+03</rscale>
<asrwt>0</asrwt>
<pdfrwt beam="1">  1        2 0.13294722E+00 0.54460459E+03</pdfrwt>
<pdfrwt beam="2">  1       -2 0.13200691E-01 0.54460459E+03</pdfrwt>
<totfact> 0.13545490E+03</totfact>
</mgrwt>
</event>
<event>
 4    0  0.1264838E-002  0.4872807E+03  0.7546771E-02  0.1017153E+00
         -2   -1    0    0    0  501 -0.00000000000E+00  0.00000000000E+00  0.31335396463E+02  0.31335396463E+02  0.00000000000E+00 0.  1.
          2   -1    0    0  502    0  0.00000000000E+00 -0.00000000000E+00 -0.18943629184E+04  0.18943629184E+04  0.00000000000E+00 0. -1.
         25    1    1    2    0    0  0.99455099711E+02  0.20471575212E+03 -0.98370625437E+03  0.10174000447E+04  0.12500000000E+03 0.  0.
         21    1    1    2  502  501 -0.99455099711E+02 -0.20471575212E+03 -0.87932126760E+03  0.90829827021E+03  0.00000000000E+00 0.  1.
<mgrwt>
<rscale>  3 0.48728067E+03</rscale>
<asrwt>0</asrwt>
<pdfrwt beam="1">  1        2 0.29144041E+00 0.48728067E+03</pdfrwt>
<pdfrwt beam="2">  1       -2 0.48208309E-02 0.48728067E+03</pdfrwt>
<totfact> 0.17262161E+03</totfact>
</mgrwt>
</event>
<event>
 4    0  0.1264838E-002  0.4863644E+03  0.7546771E-02  0.1017401E+00
         -2   -1    0    0    0  501 -0.00000000000E+00  0.00000000000E+00  0.23951148843E+02  0.23951148843E+02  0.00000000000E+00 0.  1.
          2   -1    0    0  502    0  0.00000000000E+00 -0.00000000000E+00 -0.24690917982E+04  0.24690917982E+04  0.00000000000E+00 0. -1.
         25    1    1    2    0    0 -0.69613049340E+02  0.21613747330E+03 -0.13272161387E+04  0.13522903027E+04  0.12500000000E+03 0.  0.
         21    1    1    2  502  501  0.69613049340E+02 -0.21613747330E+03 -0.11179245106E+04  0.11407526443E+04  0.00000000000E+00 0.  1.
<mgrwt>
<rscale>  3 0.48636441E+03</rscale>
<asrwt>0</asrwt>
<pdfrwt beam="1">  1        2 0.37986033E+00 0.48636441E+03</pdfrwt>
<pdfrwt beam="2">  1       -2 0.36847916E-02 0.48636441E+03</pdfrwt>
<totfact> 0.12684039E+03</totfact>
</mgrwt>
</event>
<event>
 4    0  0.1264838E-002  0.6406829E+03  0.7546771E-02  0.9824421E-01
         -2   -1    0    0    0  501 -0.00000000000E+00  0.00000000000E+00  0.92182308872E+03  0.92182308872E+03  0.00000000000E+00 0. -1.
          2   -1    0    0  502    0  0.00000000000E+00 -0.00000000000E+00 -0.11132142276E+03  0.11132142276E+03  0.00000000000E+00 0.  1.
         25    1    1    2    0    0 -0.16641650694E+03  0.18332626259E+03  0.12486036239E+03  0.30416785239E+03  0.12500000000E+03 0.  0.
         21    1    1    2  502  501  0.16641650694E+03 -0.18332626259E+03  0.68564130357E+03  0.72897665909E+03  0.00000000000E+00 0. -1.
<mgrwt>
<rscale>  3 0.64068294E+03</rscale>
<asrwt>0</asrwt>
<pdfrwt beam="1">  1        2 0.17126373E-01 0.64068294E+03</pdfrwt>
<pdfrwt beam="2">  1       -2 0.14181893E+00 0.64068294E+03</pdfrwt>
<totfact> 0.12037502E+02</totfact>
</mgrwt>
</event>
<event>
 4    0  0.1264838E-002  0.6291521E+03  0.7546771E-02  0.9846705E-01
          1   -1    0    0  502    0  0.00000000000E+00  0.00000000000E+00  0.17678045133E+04  0.17678045133E+04  0.00000000000E+00 0.  1.
         -1   -1    0    0    0  501 -0.00000000000E+00 -0.00000000000E+00 -0.55977968740E+02  0.55977968740E+02  0.00000000000E+00 0. -1.
         25    1    1    2    0    0  0.14900206704E+03 -0.17891936958E+03  0.14479415295E+04  0.14718605333E+04  0.12500000000E+03 0.  0.
         21    1    1    2  502  501 -0.14900206704E+03  0.17891936958E+03  0.26388501506E+03  0.35192194868E+03  0.00000000000E+00 0. -1.
<mgrwt>
<rscale>  3 0.62915215E+03</rscale>
<asrwt>0</asrwt>
<pdfrwt beam="1">  1        1 0.27196988E+00 0.62915215E+03</pdfrwt>
<pdfrwt beam="2">  1       -1 0.86119965E-02 0.62915215E+03</pdfrwt>
<totfact> 0.35338909E+02</totfact>
</mgrwt>
</event>
<event>
 4    0  0.1264838E-002  0.5082249E+03  0.7546771E-02  0.1011654E+00
         -1   -1    0    0    0  501 -0.00000000000E+00  0.00000000000E+00  0.56162821493E+02  0.56162821493E+02  0.00000000000E+00 0. -1.
          1   -1    0    0  502    0  0.00000000000E+00 -0.00000000000E+00 -0.11497489118E+04  0.11497489118E+04  0.00000000000E+00 0.  1.
         25    1    1    2    0    0 -0.11451627722E+03  0.20920288600E+03 -0.55419159809E+03  0.61614377596E+03  0.12500000000E+03 0.  0.
         21    1    1    2  502  501  0.11451627722E+03 -0.20920288600E+03 -0.53939449217E+03  0.58976795729E+03  0.00000000000E+00 0. -1.
<mgrwt>
<rscale>  3 0.50822492E+03</rscale>
<asrwt>0</asrwt>
<pdfrwt beam="1">  1        1 0.17688445E+00 0.50822492E+03</pdfrwt>
<pdfrwt beam="2">  1       -1 0.86404342E-02 0.50822492E+03</pdfrwt>
<totfact> 0.94189173E+02</totfact>
</mgrwt>
</event>
<event>
 4    0  0.1264838E-002  0.5650676E+03  0.7546771E-02  0.9980653E-01
         -4   -1    0    0    0  501 -0.00000000000E+00  0.00000000000E+00  0.22458625911E+03  0.22458625911E+03  0.00000000000E+00 0.  1.
          4   -1    0    0  502    0  0.00000000000E+00 -0.00000000000E+00 -0.35543295168E+03  0.35543295168E+03  0.00000000000E+00 0. -1.
         25    1    1    2    0    0 -0.22187996287E+03 -0.10799906960E+03  0.40535158637E+02  0.27957577871E+03  0.12500000000E+03 0.  0.
         21    1    1    2  502  501  0.22187996287E+03  0.10799906960E+03 -0.17138185120E+03  0.30044343208E+03  0.00000000000E+00 0. -1.
<mgrwt>
<rscale>  3 0.56506763E+03</rscale>
<asrwt>0</asrwt>
<pdfrwt beam="1">  1        4 0.54681992E-01 0.56506763E+03</pdfrwt>
<pdfrwt beam="2">  1       -4 0.34551733E-01 0.56506763E+03</pdfrwt>
<totfact> 0.51244482E+01</totfact>
</mgrwt>
</event>
<event>
 4    0  0.1264838E-002  0.7301748E+03  0.7546771E-02  0.9666977E-01
          1   -1    0    0  502    0  0.00000000000E+00  0.00000000000E+00  0.11271808351E+04  0.11271808351E+04  0.00000000000E+00 0.  1.
         -1   -1    0    0    0  501 -0.00000000000E+00 -0.00000000000E+00 -0.11824972264E+03  0.11824972264E+03  0.00000000000E+00 0. -1.
         25    1    1    2    0    0 -0.12114420674E+03  0.33071327670E+03  0.58626312580E+03  0.69525293446E+03  0.12500000000E+03 0.  0.
         21    1    1    2  502  501  0.12114420674E+03 -0.33071327670E+03  0.42266798670E+03  0.55017762331E+03  0.00000000000E+00 0. -1.
<mgrwt>
<rscale>  3 0.73017483E+03</rscale>
<asrwt>0</asrwt>
<pdfrwt beam="1">  1        1 0.17341243E+00 0.73017483E+03</pdfrwt>
<pdfrwt beam="2">  1       -1 0.18192266E-01 0.73017483E+03</pdfrwt>
<totfact> 0.29356902E+02</totfact>
</mgrwt>
</event>
<event>
 4    0  0.1264838E-002  0.5195543E+03  0.7546771E-02  0.1008797E+00
         -2   -1    0    0    0  501 -0.00000000000E+00  0.00000000000E+00  0.12308463994E+03  0.12308463994E+03  0.00000000000E+00 0.  1.
          2   -1    0    0  502    0  0.00000000000E+00 -0.00000000000E+00 -0.54827455315E+03  0.54827455315E+03  0.00000000000E+00 0. -1.
         25    1    1    2    0    0  0.70779608290E+02 -0.21199109443E+03 -0.35378142557E+03  0.43673364210E+03  0.12500000000E+03 0.  0.
         21    1    1    2  502  501 -0.70779608290E+02  0.21199109443E+03 -0.71408487639E+02  0.23462555098E+03  0.00000000000E+00 0.  1.
<mgrwt>
<rscale>  3 0.51955433E+03</rscale>
<asrwt>0</asrwt>
<pdfrwt beam="1">  1        2 0.84349933E-01 0.51955433E+03</pdfrwt>
<pdfrwt beam="2">  1       -2 0.18936098E-01 0.51955433E+03</pdfrwt>
<totfact> 0.12986112E+03</totfact>
</mgrwt>
</event>
<event>
 4    0  0.1264838E-002  0.5398407E+03  0.7546771E-02  0.1003873E+00
          1   -1    0    0  502    0  0.00000000000E+00  0.00000000000E+00  0.47621222509E+03  0.47621222509E+03  0.00000000000E+00 0.  1.
         -1   -1    0    0    0  501 -0.00000000000E+00 -0.00000000000E+00 -0.15299270925E+03  0.15299270925E+03  0.00000000000E+00 0. -1.
         25    1    1    2    0    0 -0.13794735539E+03  0.21065088261E+03  0.12013379962E+03  0.30571293236E+03  0.12500000000E+03 0.  0.
         21    1    1    2  502  501  0.13794735539E+03 -0.21065088261E+03  0.20308571622E+03  0.32349200197E+03  0.00000000000E+00 0.  1.
<mgrwt>
<rscale>  3 0.53984071E+03</rscale>
<asrwt>0</asrwt>
<pdfrwt beam="1">  1        1 0.73263419E-01 0.53984071E+03</pdfrwt>
<pdfrwt beam="2">  1       -1 0.23537340E-01 0.53984071E+03</pdfrwt>
<totfact> 0.74122093E+02</totfact>
</mgrwt>
</event>
<event>
 4    0  0.1264838E-002  0.5979900E+03  0.7546771E-02  0.9909585E-01
          2   -1    0    0  502    0  0.00000000000E+00  0.00000000000E+00  0.16328096141E+04  0.16328096141E+04  0.00000000000E+00 0.  1.
         -2   -1    0    0    0  501 -0.00000000000E+00 -0.00000000000E+00 -0.54751032652E+02  0.54751032652E+02  0.00000000000E+00 0. -1.
         25    1    1    2    0    0  0.60532350071E+02  0.20291801318E+03  0.13657248056E+04  0.13876848094E+04  0.12500000000E+03 0.  0.
         21    1    1    2  502  501 -0.60532350071E+02 -0.20291801318E+03  0.21233377577E+03  0.29987583732E+03  0.00000000000E+00 0. -1.
<mgrwt>
<rscale>  3 0.59799001E+03</rscale>
<asrwt>0</asrwt>
<pdfrwt beam="1">  1        2 0.25120144E+00 0.59799001E+03</pdfrwt>
<pdfrwt beam="2">  1       -2 0.84232370E-02 0.59799001E+03</pdfrwt>
<totfact> 0.99002288E+02</totfact>
</mgrwt>
</event>
<event>
 4    0  0.1264838E-002  0.4598038E+03  0.7546771E-02  0.1024838E+00
         -2   -1    0    0    0  501 -0.00000000000E+00  0.00000000000E+00  0.27963638915E+03  0.27963638915E+03  0.00000000000E+00 0. -1.
          2   -1    0    0  502    0  0.00000000000E+00 -0.00000000000E+00 -0.18901293524E+03  0.18901293524E+03  0.00000000000E+00 0.  1.
         25    1    1    2    0    0  0.20203113069E+03 -0.32852399499E+02 -0.11077853351E+02  0.24009076774E+03  0.12500000000E+03 0.  0.
         21    1    1    2  502  501 -0.20203113069E+03  0.32852399499E+02  0.10170130726E+03  0.22855855665E+03  0.00000000000E+00 0. -1.
<mgrwt>
<rscale>  3 0.45980385E+03</rscale>
<asrwt>0</asrwt>
<pdfrwt beam="1">  1        2 0.29078913E-01 0.45980385E+03</pdfrwt>
<pdfrwt beam="2">  1       -2 0.43020983E-01 0.45980385E+03</pdfrwt>
<totfact> 0.94597186E+02</totfact>
</mgrwt>
</event>
<event>
 4    0  0.1264838E-002  0.4756010E+03  0.7546771E-02  0.1020351E+00
         -2   -1    0    0    0  501 -0.00000000000E+00  0.00000000000E+00  0.10745083426E+03  0.10745083426E+03  0.00000000000E+00 0. -1.
          2   -1    0    0  502    0  0.00000000000E+00 -0.00000000000E+00 -0.52627857556E+03  0.52627857556E+03  0.00000000000E+00 0.  1.
         25    1    1    2    0    0  0.77686085555E+02  0.20694790789E+03 -0.20789868557E+03  0.32819114542E+03  0.12500000000E+03 0.  0.
         21    1    1    2  502  501 -0.77686085555E+02 -0.20694790789E+03 -0.21092905572E+03  0.30553826440E+03  0.00000000000E+00 0.  1.
<mgrwt>
<rscale>  3 0.47560098E+03</rscale>
<asrwt>0</asrwt>
<pdfrwt beam="1">  1        2 0.80965934E-01 0.47560098E+03</pdfrwt>
<pdfrwt beam="2">  1       -2 0.16530898E-01 0.47560098E+03</pdfrwt>
<totfact> 0.17175015E+03</totfact>
</mgrwt>
</event>
<event>
 4    0  0.1264838E-002  0.5443549E+03  0.7546771E-02  0.1002809E+00
         -1   -1    0    0    0  501 -0.00000000000E+00  0.00000000000E+00  0.40331264797E+03  0.40331264797E+03  0.00000000000E+00 0.  1.
          1   -1    0    0  502    0  0.00000000000E+00 -0.00000000000E+00 -0.18368027250E+03  0.18368027250E+03  0.00000000000E+00 0. -1.
         25    1    1    2    0    0  0.14827846371E+03  0.18029030281E+03 -0.24341787477E+01  0.26480562931E+03  0.12500000000E+03 0.  0.
         21    1    1    2  502  501 -0.14827846371E+03 -0.18029030281E+03  0.22206655421E+03  0.32218729116E+03  0.00000000000E+00 0.  1.
<mgrwt>
<rscale>  3 0.54435495E+03</rscale>
<asrwt>0</asrwt>
<pdfrwt beam="1">  1        1 0.28258504E-01 0.54435495E+03</pdfrwt>
<pdfrwt beam="2">  1       -1 0.62048099E-01 0.54435495E+03</pdfrwt>
<totfact> 0.44360209E+02</totfact>
</mgrwt>
</event>
<event>
 4    0  0.1264838E-002  0.8022936E+03  0.7546771E-02  0.9556703E-01
          1   -1    0    0  502    0  0.00000000000E+00  0.00000000000E+00  0.21003251016E+04  0.21003251016E+04  0.00000000000E+00 0. -1.
         -1   -1    0    0    0  501 -0.00000000000E+00 -0.00000000000E+00 -0.76616112311E+02  0.76616112311E+02  0.00000000000E+00 0.  1.
         25    1    1    2    0    0 -0.89700535177E+02 -0.25788066568E+03  0.17973903697E+04  0.18223023253E+04  0.12500000000E+03 0.  0.
         21    1    1    2  502  501  0.89700535177E+02  0.25788066568E+03  0.22631861963E+03  0.35463888864E+03  0.00000000000E+00 0.  1.
<mgrwt>
<rscale>  3 0.80229357E+03</rscale>
<asrwt>0</asrwt>
<pdfrwt beam="1">  1        1 0.32312689E+00 0.80229357E+03</pdfrwt>
<pdfrwt beam="2">  1       -1 0.11787096E-01 0.80229357E+03</pdfrwt>
<totfact> 0.12703801E+02</totfact>
</mgrwt>
</event>
<event>
 4    0  0.1264838E-002  0.1094372E+04  0.7546771E-02  0.9210695E-01
         -1   -1    0    0    0  501 -0.00000000000E+00  0.00000000000E+00  0.11894452114E+03  0.11894452114E+03  0.00000000000E+00 0.  1.
          1   -1    0    0  502    0  0.00000000000E+00 -0.00000000000E+00 -0.25172429019E+04  0.25172429019E+04  0.00000000000E+00 0. -1.
         25    1    1    2    0    0  0.64434077947E+02  0.50894641484E+03 -0.16212599134E+04  0.17050768049E+04  0.12500000000E+03 0.  0.
         21    1    1    2  502  501 -0.64434077947E+02 -0.50894641484E+03 -0.77703846736E+03  0.93111061821E+03  0.00000000000E+00 0. -1.
<mgrwt>
<rscale>  3 0.10943715E+04</rscale>
<asrwt>0</asrwt>
<pdfrwt beam="1">  1        1 0.38726812E+00 0.10943715E+04</pdfrwt>
<pdfrwt beam="2">  1       -1 0.18299158E-01 0.10943715E+04</pdfrwt>
<totfact> 0.31459245E+01</totfact>
</mgrwt>
</event>
<event>
 4    0  0.1264838E-002  0.5791372E+03  0.7546771E-02  0.9949661E-01
          1   -1    0    0  502    0  0.00000000000E+00  0.00000000000E+00  0.64207158863E+03  0.64207158863E+03  0.00000000000E+00 0. -1.
         -1   -1    0    0    0  501 -0.00000000000E+00 -0.00000000000E+00 -0.13059286617E+03  0.13059286617E+03  0.00000000000E+00 0.  1.
         25    1    1    2    0    0 -0.25756595728E+03  0.19312157956E+02  0.39773445125E+03  0.49043947181E+03  0.12500000000E+03 0.  0.
         21    1    1    2  502  501  0.25756595728E+03 -0.19312157956E+02  0.11374427121E+03  0.28222498300E+03  0.00000000000E+00 0.  1.
<mgrwt>
<rscale>  3 0.57913718E+03</rscale>
<asrwt>0</asrwt>
<pdfrwt beam="1">  1        1 0.98780242E-01 0.57913718E+03</pdfrwt>
<pdfrwt beam="2">  1       -1 0.20091211E-01 0.57913718E+03</pdfrwt>
<totfact> 0.63529582E+02</totfact>
</mgrwt>
</event>
<event>
 4    0  0.1331873E-002  0.5765096E+03  0.7546771E-02  0.9955376E-01
         -1   -1    0    0    0  501 -0.00000000000E+00  0.00000000000E+00  0.15147553243E+03  0.15147553243E+03  0.00000000000E+00 0.  1.
          1   -1    0    0  502    0  0.00000000000E+00 -0.00000000000E+00 -0.54854298095E+03  0.54854298095E+03  0.00000000000E+00 0. -1.
         25    1    1    2    0    0  0.12711417814E+03  0.18786045585E+03 -0.19709938215E+02  0.25973649497E+03  0.12500000000E+03 0.  0.
         21    1    1    2  502  501 -0.12711417814E+03 -0.18786045585E+03 -0.37735751031E+03  0.44028201842E+03  0.00000000000E+00 0. -1.
<mgrwt>
<rscale>  3 0.57650964E+03</rscale>
<asrwt>0</asrwt>
<pdfrwt beam="1">  1        1 0.84391230E-01 0.57650964E+03</pdfrwt>
<pdfrwt beam="2">  1       -1 0.23303928E-01 0.57650964E+03</pdfrwt>
<totfact> 0.62046234E+02</totfact>
</mgrwt>
</event>
<event>
 4    0  0.1264838E-002  0.4464600E+03  0.7546771E-02  0.1028783E+00
         -1   -1    0    0    0  501 -0.00000000000E+00  0.00000000000E+00  0.25450762879E+02  0.25450762879E+02  0.00000000000E+00 0.  1.
          1   -1    0    0  502    0  0.00000000000E+00 -0.00000000000E+00 -0.19579619280E+04  0.19579619280E+04  0.00000000000E+00 0. -1.
         25    1    1    2    0    0  0.12752758913E+03  0.16012010096E+03 -0.95056530508E+03  0.98035765511E+03  0.12500000000E+03 0.  0.
         21    1    1    2  502  501 -0.12752758913E+03 -0.16012010096E+03 -0.98194586000E+03  0.10030550357E+04  0.00000000000E+00 0. -1.
<mgrwt>
<rscale>  3 0.44645996E+03</rscale>
<asrwt>0</asrwt>
<pdfrwt beam="1">  1        1 0.30122487E+00 0.44645996E+03</pdfrwt>
<pdfrwt beam="2">  1       -1 0.39155025E-02 0.44645996E+03</pdfrwt>
<totfact> 0.89876226E+02</totfact>
</mgrwt>
</event>
<event>
 4    0  0.1264838E-002  0.4686650E+03  0.7546771E-02  0.1022298E+00
         -2   -1    0    0    0  501 -0.00000000000E+00  0.00000000000E+00  0.63426195258E+02  0.63426195258E+02  0.00000000000E+00 0.  1.
          2   -1    0    0  502    0  0.00000000000E+00 -0.00000000000E+00 -0.86575769990E+03  0.86575769990E+03  0.00000000000E+00 0. -1.
         25    1    1    2    0    0 -0.20304735022E+03 -0.38561642582E+02 -0.56507243543E+03  0.61452996997E+03  0.12500000000E+03 0.  0.
         21    1    1    2  502  501  0.20304735022E+03  0.38561642582E+02 -0.23725906922E+03  0.31465392519E+03  0.00000000000E+00 0.  1.
<mgrwt>
<rscale>  3 0.46866498E+03</rscale>
<asrwt>0</asrwt>
<pdfrwt beam="1">  1        2 0.13319348E+00 0.46866498E+03</pdfrwt>
<pdfrwt beam="2">  1       -2 0.97578772E-02 0.46866498E+03</pdfrwt>
<totfact> 0.22145478E+03</totfact>
</mgrwt>
</event>
<event>
 4    0  0.1264838E-002  0.5360386E+03  0.7546771E-02  0.1004778E+00
          1   -1    0    0  502    0  0.00000000000E+00  0.00000000000E+00  0.12117202950E+04  0.12117202950E+04  0.00000000000E+00 0.  1.
         -1   -1    0    0    0  501 -0.00000000000E+00 -0.00000000000E+00 -0.59282943832E+02  0.59282943832E+02  0.00000000000E+00 0. -1.
         25    1    1    2    0    0 -0.11465047656E+03  0.21955155669E+03  0.48015913475E+03  0.55454973853E+03  0.12500000000E+03 0.  0.
         21    1    1    2  502  501  0.11465047656E+03 -0.21955155669E+03  0.67227821641E+03  0.71645350029E+03  0.00000000000E+00 0.  1.
<mgrwt>
<rscale>  3 0.53603860E+03</rscale>
<asrwt>0</asrwt>
<pdfrwt beam="1">  1        1 0.18641849E+00 0.53603860E+03</pdfrwt>
<pdfrwt beam="2">  1       -1 0.91204538E-02 0.53603860E+03</pdfrwt>
<totfact> 0.78014092E+02</totfact>
</mgrwt>
</event>
<event>
 4    0  0.1264838E-002  0.5049771E+03  0.7546771E-02  0.1012488E+00
          3   -1    0    0  502    0  0.00000000000E+00  0.00000000000E+00  0.82608622968E+02  0.82608622968E+02  0.00000000000E+00 0. -1.
         -3   -1    0    0    0  501 -0.00000000000E+00 -0.00000000000E+00 -0.77171695550E+03  0.77171695550E+03  0.00000000000E+00 0.  1.
         25    1    1    2    0    0  0.15365822514E+03 -0.17647094384E+03 -0.30181354793E+03  0.40183238034E+03  0.12500000000E+03 0.  0.
         21    1    1    2  502  501 -0.15365822514E+03  0.17647094384E+03 -0.38729478460E+03  0.45249319813E+03  0.00000000000E+00 0.  1.
<mgrwt>
<rscale>  3 0.50497713E+03</rscale>
<asrwt>0</asrwt>
<pdfrwt beam="1">  1        3 0.12709019E-01 0.50497713E+03</pdfrwt>
<pdfrwt beam="2">  1       -3 0.11872568E+00 0.50497713E+03</pdfrwt>
<totfact> 0.77574325E+01</totfact>
</mgrwt>
</event>
<event>
 4    0  0.1264838E-002  0.5163208E+03  0.7546771E-02  0.1009605E+00
          2   -1    0    0  502    0  0.00000000000E+00  0.00000000000E+00  0.23563267014E+04  0.23563267014E+04  0.00000000000E+00 0.  1.
         -2   -1    0    0    0  501 -0.00000000000E+00 -0.00000000000E+00 -0.28284194996E+02  0.28284194996E+02  0.00000000000E+00 0. -1.
         25    1    1    2    0    0 -0.98426428811E+02  0.21131405998E+03  0.91488431672E+03  0.95235482191E+03  0.12500000000E+03 0.  0.
         21    1    1    2  502  501  0.98426428811E+02 -0.21131405998E+03  0.14131581897E+04  0.14322560745E+04  0.00000000000E+00 0.  1.
<mgrwt>
<rscale>  3 0.51632085E+03</rscale>
<asrwt>0</asrwt>
<pdfrwt beam="1">  1        2 0.36251165E+00 0.51632085E+03</pdfrwt>
<pdfrwt beam="2">  1       -2 0.43514165E-02 0.51632085E+03</pdfrwt>
<totfact> 0.11330121E+03</totfact>
</mgrwt>
</event>
<event>
 4    0  0.1264838E-002  0.4946467E+03  0.7546771E-02  0.1015186E+00
         -2   -1    0    0    0  501 -0.00000000000E+00  0.00000000000E+00  0.17109868226E+04  0.17109868226E+04  0.00000000000E+00 0. -1.
          2   -1    0    0  502    0  0.00000000000E+00 -0.00000000000E+00 -0.35750618113E+02  0.35750618113E+02  0.00000000000E+00 0.  1.
         25    1    1    2    0    0 -0.13718929904E+03  0.17854727418E+03  0.10814625845E+04  0.11117042568E+04  0.12500000000E+03 0.  0.
         21    1    1    2  502  501  0.13718929904E+03 -0.17854727418E+03  0.59377361996E+03  0.63503318389E+03  0.00000000000E+00 0. -1.
<mgrwt>
<rscale>  3 0.49464669E+03</rscale>
<asrwt>0</asrwt>
<pdfrwt beam="1">  1        2 0.55000964E-02 0.49464669E+03</pdfrwt>
<pdfrwt beam="2">  1       -2 0.26322868E+00 0.49464669E+03</pdfrwt>
<totfact> 0.81491432E+01</totfact>
</mgrwt>
</event>
<event>
 4    0  0.1264838E-002  0.5385127E+03  0.7546771E-02  0.1004188E+00
          2   -1    0    0  502    0  0.00000000000E+00  0.00000000000E+00  0.16629211424E+03  0.16629211424E+03  0.00000000000E+00 0.  1.
         -2   -1    0    0    0  501 -0.00000000000E+00 -0.00000000000E+00 -0.43597361948E+03  0.43597361948E+03  0.00000000000E+00 0. -1.
         25    1    1    2    0    0  0.18301351962E+03 -0.14403010706E+03 -0.25756734565E+03  0.36905901648E+03  0.12500000000E+03 0.  0.
         21    1    1    2  502  501 -0.18301351962E+03  0.14403010706E+03 -0.12114159596E+02  0.23320671724E+03  0.00000000000E+00 0.  1.
<mgrwt>
<rscale>  3 0.53851267E+03</rscale>
<asrwt>0</asrwt>
<pdfrwt beam="1">  1        2 0.25583402E-01 0.53851267E+03</pdfrwt>
<pdfrwt beam="2">  1       -2 0.67072866E-01 0.53851267E+03</pdfrwt>
<totfact> 0.43944348E+02</totfact>
</mgrwt>
</event>
<event>
 4    0  0.1264838E-002  0.5319932E+03  0.7546771E-02  0.1005750E+00
          2   -1    0    0  502    0  0.00000000000E+00  0.00000000000E+00  0.56872992563E+03  0.56872992563E+03  0.00000000000E+00 0.  1.
         -2   -1    0    0    0  501 -0.00000000000E+00 -0.00000000000E+00 -0.12440735699E+03  0.12440735699E+03  0.00000000000E+00 0. -1.
         25    1    1    2    0    0  0.56204229564E+02  0.23739543504E+03  0.31305385648E+03  0.41610482460E+03  0.12500000000E+03 0.  0.
         21    1    1    2  502  501 -0.56204229564E+02 -0.23739543504E+03  0.13126871216E+03  0.27703245802E+03  0.00000000000E+00 0.  1.
<mgrwt>
<rscale>  3 0.53199318E+03</rscale>
<asrwt>0</asrwt>
<pdfrwt beam="1">  1        2 0.87496910E-01 0.53199318E+03</pdfrwt>
<pdfrwt beam="2">  1       -2 0.19139594E-01 0.53199318E+03</pdfrwt>
<totfact> 0.12211789E+03</totfact>
</mgrwt>
</event>
<event>
 4    0  0.1264838E-002  0.4612907E+03  0.7546771E-02  0.1024408E+00
         -2   -1    0    0    0  501 -0.00000000000E+00  0.00000000000E+00  0.27557187752E+02  0.27557187752E+02  0.00000000000E+00 0. -1.
          2   -1    0    0  502    0  0.00000000000E+00 -0.00000000000E+00 -0.19304323269E+04  0.19304323269E+04  0.00000000000E+00 0.  1.
         25    1    1    2    0    0  0.82142127715E+01  0.21354499225E+03 -0.10143485135E+04  0.10441249178E+04  0.12500000000E+03 0.  0.
         21    1    1    2  502  501 -0.82142127715E+01 -0.21354499225E+03 -0.88852662563E+03  0.91386459690E+03  0.00000000000E+00 0. -1.
<mgrwt>
<rscale>  3 0.46129074E+03</rscale>
<asrwt>0</asrwt>
<pdfrwt beam="1">  1        2 0.29698967E+00 0.46129074E+03</pdfrwt>
<pdfrwt beam="2">  1       -2 0.42395662E-02 0.46129074E+03</pdfrwt>
<totfact> 0.20138707E+03</totfact>
</mgrwt>
</event>
<event>
 4    0  0.1264838E-002  0.4382061E+03  0.7546771E-02  0.1031299E+00
          1   -1    0    0  502    0  0.00000000000E+00  0.00000000000E+00  0.20483879635E+04  0.20483879635E+04  0.00000000000E+00 0. -1.
         -1   -1    0    0    0  501 -0.00000000000E+00 -0.00000000000E+00 -0.23436062288E+02  0.23436062288E+02  0.00000000000E+00 0.  1.
         25    1    1    2    0    0  0.71079129598E+02 -0.18817521515E+03  0.11280727653E+04  0.11526644430E+04  0.12500000000E+03 0.  0.
         21    1    1    2  502  501 -0.71079129598E+02  0.18817521515E+03  0.89687913593E+03  0.91915958284E+03  0.00000000000E+00 0.  1.
<mgrwt>
<rscale>  3 0.43820611E+03</rscale>
<asrwt>0</asrwt>
<pdfrwt beam="1">  1        1 0.31513647E+00 0.43820611E+03</pdfrwt>
<pdfrwt beam="2">  1       -1 0.36055496E-02 0.43820611E+03</pdfrwt>
<totfact> 0.88762600E+02</totfact>
</mgrwt>
</event>
<event>
 4    0  0.1264838E-002  0.6874073E+03  0.7546771E-02  0.9739013E-01
         -1   -1    0    0    0  501 -0.00000000000E+00  0.00000000000E+00  0.16300431681E+04  0.16300431681E+04  0.00000000000E+00 0.  1.
          1   -1    0    0  502    0  0.00000000000E+00 -0.00000000000E+00 -0.72471827600E+02  0.72471827600E+02  0.00000000000E+00 0. -1.
         25    1    1    2    0    0 -0.22043099331E+03 -0.91788000378E+02  0.23202414433E+03  0.35563332715E+03  0.12500000000E+03 0.  0.
         21    1    1    2  502  501  0.22043099331E+03  0.91788000378E+02  0.13255471962E+04  0.13468816686E+04  0.00000000000E+00 0. -1.
<mgrwt>
<rscale>  3 0.68740732E+03</rscale>
<asrwt>0</asrwt>
<pdfrwt beam="1">  1        1 0.11149513E-01 0.68740732E+03</pdfrwt>
<pdfrwt beam="2">  1       -1 0.25077584E+00 0.68740732E+03</pdfrwt>
<totfact> 0.41273739E+01</totfact>
</mgrwt>
</event>
<event>
 4    0  0.1264838E-002  0.4674386E+03  0.7546771E-02  0.1022646E+00
         -1   -1    0    0    0  501 -0.00000000000E+00  0.00000000000E+00  0.27415393073E+03  0.27415393073E+03  0.00000000000E+00 0. -1.
          1   -1    0    0  502    0  0.00000000000E+00 -0.00000000000E+00 -0.19924829340E+03  0.19924829340E+03  0.00000000000E+00 0.  1.
         25    1    1    2    0    0  0.16186539817E+03 -0.13728584617E+03  0.85915502653E+02  0.26087216080E+03  0.12500000000E+03 0.  0.
         21    1    1    2  502  501 -0.16186539817E+03  0.13728584617E+03 -0.11009865327E+02  0.21253006333E+03  0.00000000000E+00 0.  1.
<mgrwt>
<rscale>  3 0.46743856E+03</rscale>
<asrwt>0</asrwt>
<pdfrwt beam="1">  1        1 0.30653584E-01 0.46743856E+03</pdfrwt>
<pdfrwt beam="2">  1       -1 0.42177528E-01 0.46743856E+03</pdfrwt>
<totfact> 0.82973420E+02</totfact>
</mgrwt>
</event>
<event>
 4    0  0.1264838E-002  0.5890354E+03  0.7546771E-02  0.9928419E-01
         -1   -1    0    0    0  501 -0.00000000000E+00  0.00000000000E+00  0.15159584395E+03  0.15159584395E+03  0.00000000000E+00 0. -1.
          1   -1    0    0  502    0  0.00000000000E+00 -0.00000000000E+00 -0.57218381747E+03  0.57218381747E+03  0.00000000000E+00 0.  1.
         25    1    1    2    0    0 -0.27477502452E+03  0.84974825946E+01 -0.29277523986E+03  0.42061367356E+03  0.12500000000E+03 0.  0.
         21    1    1    2  502  501  0.27477502452E+03 -0.84974825946E+01 -0.12781273367E+03  0.30316598786E+03  0.00000000000E+00 0. -1.
<mgrwt>
<rscale>  3 0.58903544E+03</rscale>
<asrwt>0</asrwt>
<pdfrwt beam="1">  1        1 0.88028278E-01 0.58903544E+03</pdfrwt>
<pdfrwt beam="2">  1       -1 0.23322438E-01 0.58903544E+03</pdfrwt>
<totfact> 0.58383715E+02</totfact>
</mgrwt>
</event>
<event>
 4    0  0.1264838E-002  0.6334930E+03  0.7546771E-02  0.9838256E-01
          4   -1    0    0  502    0  0.00000000000E+00  0.00000000000E+00  0.24231284642E+03  0.24231284642E+03  0.00000000000E+00 0.  1.
         -4   -1    0    0    0  501 -0.00000000000E+00 -0.00000000000E+00 -0.41404465758E+03  0.41404465758E+03  0.00000000000E+00 0. -1.
         25    1    1    2    0    0 -0.27782132382E+02 -0.29698773968E+03 -0.15218410790E+03  0.35743330440E+03  0.12500000000E+03 0.  0.
         21    1    1    2  502  501  0.27782132382E+02  0.29698773968E+03 -0.19547703259E+02  0.29892419959E+03  0.00000000000E+00 0.  1.
<mgrwt>
<rscale>  3 0.63349298E+03</rscale>
<asrwt>0</asrwt>
<pdfrwt beam="1">  1        4 0.37278900E-01 0.63349298E+03</pdfrwt>
<pdfrwt beam="2">  1       -4 0.63699178E-01 0.63349298E+03</pdfrwt>
<totfact> 0.31962392E+01</totfact>
</mgrwt>
</event>
<event>
 4    0  0.1264838E-002  0.5177191E+03  0.7546771E-02  0.1009255E+00
          1   -1    0    0  502    0  0.00000000000E+00  0.00000000000E+00  0.17373955663E+03  0.17373955663E+03  0.00000000000E+00 0.  1.
         -1   -1    0    0    0  501 -0.00000000000E+00 -0.00000000000E+00 -0.38568233974E+03  0.38568233974E+03  0.00000000000E+00 0. -1.
         25    1    1    2    0    0 -0.17573629894E+03 -0.16447415629E+03 -0.70460188964E+02  0.28022247069E+03  0.12500000000E+03 0.  0.
         21    1    1    2  502  501  0.17573629894E+03  0.16447415629E+03 -0.14148259415E+03  0.27919942568E+03  0.00000000000E+00 0. -1.
<mgrwt>
<rscale>  3 0.51771915E+03</rscale>
<asrwt>0</asrwt>
<pdfrwt beam="1">  1        1 0.26729163E-01 0.51771915E+03</pdfrwt>
<pdfrwt beam="2">  1       -1 0.59335743E-01 0.51771915E+03</pdfrwt>
<totfact> 0.52074754E+02</totfact>
</mgrwt>
</event>
<event>
 4    0  0.1264838E-002  0.4513732E+03  0.7546771E-02  0.1027313E+00
          2   -1    0    0  502    0  0.00000000000E+00  0.00000000000E+00  0.94254320661E+03  0.94254320661E+03  0.00000000000E+00 0.  1.
         -2   -1    0    0    0  501 -0.00000000000E+00 -0.00000000000E+00 -0.54039375235E+02  0.54039375235E+02  0.00000000000E+00 0. -1.
         25    1    1    2    0    0 -0.20319154429E+03  0.45024209419E+02  0.50121850171E+03  0.55691917686E+03  0.12500000000E+03 0.  0.
         21    1    1    2  502  501  0.20319154429E+03 -0.45024209419E+02  0.38728532967E+03  0.43966340498E+03  0.00000000000E+00 0. -1.
<mgrwt>
<rscale>  3 0.45137322E+03</rscale>
<asrwt>0</asrwt>
<pdfrwt beam="1">  1        2 0.14500663E+00 0.45137322E+03</pdfrwt>
<pdfrwt beam="2">  1       -2 0.83137508E-02 0.45137322E+03</pdfrwt>
<totfact> 0.25458121E+03</totfact>
</mgrwt>
</event>
<event>
 4    0  0.1264838E-002  0.5930633E+03  0.7546771E-02  0.9919903E-01
          2   -1    0    0  502    0  0.00000000000E+00  0.00000000000E+00  0.10083779214E+04  0.10083779214E+04  0.00000000000E+00 0.  1.
         -2   -1    0    0    0  501 -0.00000000000E+00 -0.00000000000E+00 -0.87200452126E+02  0.87200452126E+02  0.00000000000E+00 0. -1.
         25    1    1    2    0    0 -0.14921212033E+03  0.20525176196E+03  0.24811526555E+03  0.37626948806E+03  0.12500000000E+03 0.  0.
         21    1    1    2  502  501  0.14921212033E+03 -0.20525176196E+03  0.67306220373E+03  0.71930888548E+03  0.00000000000E+00 0.  1.
<mgrwt>
<rscale>  3 0.59306327E+03</rscale>
<asrwt>0</asrwt>
<pdfrwt beam="1">  1        2 0.15513506E+00 0.59306327E+03</pdfrwt>
<pdfrwt beam="2">  1       -2 0.13415455E-01 0.59306327E+03</pdfrwt>
<totfact> 0.10603753E+03</totfact>
</mgrwt>
</event>
<event>
 4    0  0.1264838E-002  0.5468221E+03  0.7546771E-02  0.1002232E+00
          2   -1    0    0  502    0  0.00000000000E+00  0.00000000000E+00  0.47921111684E+03  0.47921111684E+03  0.00000000000E+00 0. -1.
         -2   -1    0    0    0  501 -0.00000000000E+00 -0.00000000000E+00 -0.15599307168E+03  0.15599307168E+03  0.00000000000E+00 0.  1.
         25    1    1    2    0    0 -0.19585318125E+03  0.76852278166E+02  0.34576530951E+03  0.42360759026E+03  0.12500000000E+03 0.  0.
         21    1    1    2  502  501  0.19585318125E+03 -0.76852278166E+02 -0.22547264351E+02  0.21159659826E+03  0.00000000000E+00 0.  1.
<mgrwt>
<rscale>  3 0.54682214E+03</rscale>
<asrwt>0</asrwt>
<pdfrwt beam="1">  1        2 0.73724786E-01 0.54682214E+03</pdfrwt>
<pdfrwt beam="2">  1       -2 0.23998934E-01 0.54682214E+03</pdfrwt>
<totfact> 0.10010455E+03</totfact>
</mgrwt>
</event>
<event>
 4    0  0.1264838E-002  0.5668223E+03  0.7546771E-02  0.9976735E-01
          2   -1    0    0  502    0  0.00000000000E+00  0.00000000000E+00  0.29123597363E+03  0.29123597363E+03  0.00000000000E+00 0.  1.
         -2   -1    0    0    0  501 -0.00000000000E+00 -0.00000000000E+00 -0.27579659080E+03  0.27579659080E+03  0.00000000000E+00 0. -1.
         25    1    1    2    0    0 -0.67517558757E+01  0.26537424682E+03 -0.39148259311E+02  0.29601801177E+03  0.12500000000E+03 0.  0.
         21    1    1    2  502  501  0.67517558757E+01 -0.26537424682E+03  0.54587642140E+02  0.27101455267E+03  0.00000000000E+00 0.  1.
<mgrwt>
<rscale>  3 0.56682233E+03</rscale>
<asrwt>0</asrwt>
<pdfrwt beam="1">  1        2 0.44805535E-01 0.56682233E+03</pdfrwt>
<pdfrwt beam="2">  1       -2 0.42430245E-01 0.56682233E+03</pdfrwt>
<totfact> 0.60171624E+02</totfact>
</mgrwt>
</event>
<event>
 4    0  0.1264838E-002  0.7502891E+03  0.7546771E-02  0.9634897E-01
         -2   -1    0    0    0  501 -0.00000000000E+00  0.00000000000E+00  0.87149854744E+02  0.87149854744E+02  0.00000000000E+00 0. -1.
          2   -1    0    0  502    0  0.00000000000E+00 -0.00000000000E+00 -0.16148442354E+04  0.16148442354E+04  0.00000000000E+00 0.  1.
         25    1    1    2    0    0 -0.19554537666E+03 -0.25388139397E+03 -0.11801476514E+04  0.12292547480E+04  0.12500000000E+03 0.  0.
         21    1    1    2  502  501  0.19554537666E+03  0.25388139397E+03 -0.34754672927E+03  0.47273934210E+03  0.00000000000E+00 0. -1.
<mgrwt>
<rscale>  3 0.75028912E+03</rscale>
<asrwt>0</asrwt>
<pdfrwt beam="1">  1        2 0.24843756E+00 0.75028912E+03</pdfrwt>
<pdfrwt beam="2">  1       -2 0.13407671E-01 0.75028912E+03</pdfrwt>
<totfact> 0.46977780E+02</totfact>
</mgrwt>
</event>
<event>
 4    0  0.1264838E-002  0.5137323E+03  0.7546771E-02  0.1010255E+00
         -2   -1    0    0    0  501 -0.00000000000E+00  0.00000000000E+00  0.97761768351E+02  0.97761768351E+02  0.00000000000E+00 0.  1.
          2   -1    0    0  502    0  0.00000000000E+00 -0.00000000000E+00 -0.67490817390E+03  0.67490817390E+03  0.00000000000E+00 0. -1.
         25    1    1    2    0    0  0.68426876460E+02  0.21322976273E+03 -0.16904875766E+03  0.30716713952E+03  0.12500000000E+03 0.  0.
         21    1    1    2  502  501 -0.68426876460E+02 -0.21322976273E+03 -0.40809764789E+03  0.46550280273E+03  0.00000000000E+00 0. -1.
<mgrwt>
<rscale>  3 0.51373229E+03</rscale>
<asrwt>0</asrwt>
<pdfrwt beam="1">  1        2 0.10383203E+00 0.51373229E+03</pdfrwt>
<pdfrwt beam="2">  1       -2 0.15040272E-01 0.51373229E+03</pdfrwt>
<totfact> 0.14983460E+03</totfact>
</mgrwt>
</event>
