<event>
 5    0  0.1856407E+000  0.2313408E+03  0.7546771E-02  0.1125700E+00
         21   -1    0    0  502  501  0.00000000000E+00  0.00000000000E+00  0.38468725343E+03  0.38468725343E+03  0.00000000000E+00 0.  1.
         21   -1    0    0  503  502 -0.00000000000E+00 -0.00000000000E+00 -0.17625621671E+03  0.17625621671E+03  0.00000000000E+00 0.  1.
         25    1    1    2    0    0 -0.20871494107E+03 -0.22358113932E+02  0.70191024047E+02  0.25419203713E+03  0.12500000000E+03 0.  0.
         21    1    1    2  503  504  0.42304716167E+02 -0.66761715752E+02  0.71352440278E+02  0.10647998138E+03  0.00000000000E+00 0.  1.
         21    1    1    2  504  501  0.16641022490E+03  0.89119829684E+02  0.66887572399E+02  0.20027145163E+03  0.00000000000E+00 0.  1.
<mgrwt>
<rscale>  4 0.23134079E+03</rscale>
<asrwt>0</asrwt>
<pdfrwt beam="1">  1       21 0.59182654E-01 0.23134079E+03</pdfrwt>
<pdfrwt beam="2">  1       21 0.27116341E-01 0.23134079E+03</pdfrwt>
<totfact> 0.33913705E+04</totfact>
</mgrwt>
</event>
<event>
 5    0  0.2051072E+000  0.3182680E+03  0.7546771E-02  0.1076449E+00
         21   -1    0    0  502  501  0.00000000000E+00  0.00000000000E+00  0.10253207373E+04  0.10253207373E+04  0.00000000000E+00 0. -1.
         21   -1    0    0  503  502 -0.00000000000E+00 -0.00000000000E+00 -0.11255537295E+03  0.11255537295E+03  0.00000000000E+00 0. -1.
         25    1    1    2    0    0  0.28023101508E+03  0.11661839438E+03  0.43656813419E+03  0.54621058897E+03  0.12500000000E+03 0.  0.
         21    1    1    2  503  504 -0.28151132365E+03 -0.51705566831E+02  0.38877307557E+03  0.48276971246E+03  0.00000000000E+00 0. -1.
         21    1    1    2  504  501  0.12803085668E+01 -0.64912827553E+02  0.87424154617E+02  0.10889580883E+03  0.00000000000E+00 0. -1.
<mgrwt>
<rscale>  4 0.31826796E+03</rscale>
<asrwt>0</asrwt>
<pdfrwt beam="1">  1       21 0.15774165E+00 0.31826796E+03</pdfrwt>
<pdfrwt beam="2">  1       21 0.17316212E-01 0.31826796E+03</pdfrwt>
<totfact> 0.72827948E+03</totfact>
</mgrwt>
</event>
<event>
 5    0  0.1856407E+000  0.2924033E+03  0.7546771E-02  0.1089101E+00
         21   -1    0    0  502  501  0.00000000000E+00  0.00000000000E+00  0.11620248190E+03  0.11620248190E+03  0.00000000000E+00 0. -1.
         21   -1    0    0  503  502 -0.00000000000E+00 -0.00000000000E+00 -0.24079350040E+04  0.24079350040E+04  0.00000000000E+00 0. -1.
         25    1    1    2    0    0  0.10552706926E+03 -0.24236077079E+03 -0.90256572854E+02  0.30601626511E+03  0.12500000000E+03 0.  0.
         21    1    1    2  503  504 -0.17128432106E+02  0.10860983837E+03 -0.80572527481E+03  0.81319290371E+03  0.00000000000E+00 0. -1.
         21    1    1    2  504  501 -0.88398637155E+02  0.13375093242E+03 -0.13957506744E+04  0.14049283171E+04  0.00000000000E+00 0. -1.
<mgrwt>
<rscale>  4 0.29240333E+03</rscale>
<asrwt>0</asrwt>
<pdfrwt beam="1">  1       21 0.17877307E-01 0.29240333E+03</pdfrwt>
<pdfrwt beam="2">  1       21 0.37045150E+00 0.29240333E+03</pdfrwt>
<totfact> 0.32984897E+02</totfact>
</mgrwt>
</event>
<event>
 5    0  0.1856407E+000  0.4657028E+03  0.7546771E-02  0.1023140E+00
         21   -1    0    0  502  501  0.00000000000E+00  0.00000000000E+00  0.45586504440E+03  0.45586504440E+03  0.00000000000E+00 0.  1.
         21   -1    0    0  503  502 -0.00000000000E+00 -0.00000000000E+00 -0.55146888932E+03  0.55146888932E+03  0.00000000000E+00 0.  1.
         25    1    1    2    0    0 -0.14848736888E+03 -0.42332686023E+03  0.15215919421E+03  0.48993014777E+03  0.12500000000E+03 0.  0.
         21    1    1    2  503  504  0.12450931257E+03  0.40564438496E+03 -0.23426449182E+03  0.48469556228E+03  0.00000000000E+00 0.  1.
         21    1    1    2  504  501  0.23978056315E+02  0.17682475272E+02 -0.13498547311E+02  0.32708223674E+02  0.00000000000E+00 0.  1.
<mgrwt>
<rscale>  4 0.46570283E+03</rscale>
<asrwt>0</asrwt>
<pdfrwt beam="1">  1       21 0.70133084E-01 0.46570283E+03</pdfrwt>
<pdfrwt beam="2">  1       21 0.84841367E-01 0.46570283E+03</pdfrwt>
<totfact> 0.19041218E+03</totfact>
</mgrwt>
</event>
<event>
 5    0  0.1856407E+000  0.2286040E+03  0.7546771E-02  0.1127626E+00
         21   -1    0    0  502  501  0.00000000000E+00  0.00000000000E+00  0.88603099514E+03  0.88603099514E+03  0.00000000000E+00 0.  1.
         21   -1    0    0  503  502 -0.00000000000E+00 -0.00000000000E+00 -0.84718294412E+02  0.84718294412E+02  0.00000000000E+00 0.  1.
         25    1    1    2    0    0 -0.64600897122E+02  0.19237456210E+03  0.63028997562E+03  0.67384842615E+03  0.12500000000E+03 0.  0.
         21    1    1    2  503  504  0.64999785078E+02 -0.20218140110E+02  0.68285277279E+02  0.96419004054E+02  0.00000000000E+00 0.  1.
         21    1    1    2  504  501 -0.39888795600E+00 -0.17215642199E+03  0.10273744783E+03  0.20048185935E+03  0.00000000000E+00 0.  1.
<mgrwt>
<rscale>  4 0.22860403E+03</rscale>
<asrwt>0</asrwt>
<pdfrwt beam="1">  1       21 0.13631245E+00 0.22860403E+03</pdfrwt>
<pdfrwt beam="2">  1       21 0.13033584E-01 0.22860403E+03</pdfrwt>
<totfact> 0.18957059E+04</totfact>
</mgrwt>
</event>
<event>
 5    0  0.1856407E+000  0.2362736E+03  0.7546771E-02  0.1122300E+00
         21   -1    0    0  502  501  0.00000000000E+00  0.00000000000E+00  0.16751936279E+03  0.16751936279E+03  0.00000000000E+00 0.  1.
         21   -1    0    0  503  502 -0.00000000000E+00 -0.00000000000E+00 -0.30174815520E+03  0.30174815520E+03  0.00000000000E+00 0.  1.
         25    1    1    2    0    0 -0.48969561794E+02 -0.19442788067E+03 -0.96611728102E+02  0.25526269757E+03  0.12500000000E+03 0.  0.
         21    1    1    2  503  504  0.45309023583E+02  0.77095131292E+02  0.38497260742E+01  0.89506353282E+02  0.00000000000E+00 0.  1.
         21    1    1    2  504  501  0.36605382107E+01  0.11733274937E+03 -0.41466790386E+02  0.12449846714E+03  0.00000000000E+00 0.  1.
<mgrwt>
<rscale>  4 0.23627361E+03</rscale>
<asrwt>0</asrwt>
<pdfrwt beam="1">  1       21 0.25772210E-01 0.23627361E+03</pdfrwt>
<pdfrwt beam="2">  1       21 0.46422793E-01 0.23627361E+03</pdfrwt>
<totfact> 0.62328174E+04</totfact>
</mgrwt>
</event>
<event>
 5    0  0.1856407E+000  0.2782404E+03  0.7546771E-02  0.1096654E+00
         21   -1    0    0  502  501  0.00000000000E+00  0.00000000000E+00  0.10732027056E+04  0.10732027056E+04  0.00000000000E+00 0.  1.
         21   -1    0    0  503  502 -0.00000000000E+00 -0.00000000000E+00 -0.11397759114E+03  0.11397759114E+03  0.00000000000E+00 0. -1.
         25    1    1    2    0    0 -0.15047864371E+03  0.19786079327E+03  0.87386191863E+03  0.91708907340E+03  0.12500000000E+03 0.  0.
         21    1    1    2  503  504  0.79742961887E+02 -0.14654885357E+03  0.71901265218E+02  0.18167360401E+03  0.00000000000E+00 0. -1.
         21    1    1    2  504  501  0.70735681822E+02 -0.51311939698E+02  0.13461930643E+02  0.88417619370E+02  0.00000000000E+00 0. -1.
<mgrwt>
<rscale>  4 0.27824039E+03</rscale>
<asrwt>0</asrwt>
<pdfrwt beam="1">  1       21 0.16510810E+00 0.27824039E+03</pdfrwt>
<pdfrwt beam="2">  1       21 0.17535015E-01 0.27824039E+03</pdfrwt>
<totfact> 0.64107481E+03</totfact>
</mgrwt>
</event>
<event>
 5    0  0.1856407E+000  0.3983607E+03  0.7546771E-02  0.1044349E+00
         21   -1    0    0  502  501  0.00000000000E+00  0.00000000000E+00  0.11019026772E+03  0.11019026772E+03  0.00000000000E+00 0.  1.
         21   -1    0    0  503  502 -0.00000000000E+00 -0.00000000000E+00 -0.18270508956E+04  0.18270508956E+04  0.00000000000E+00 0.  1.
         25    1    1    2    0    0  0.77311920597E+02  0.37025551337E+03 -0.39754335893E+03  0.56278948149E+03  0.12500000000E+03 0.  0.
         21    1    1    2  503  504 -0.83451528058E+02 -0.25545461500E+03 -0.86300589566E+03  0.90388074092E+03  0.00000000000E+00 0.  1.
         21    1    1    2  504  501  0.61396074613E+01 -0.11480089837E+03 -0.45631137326E+03  0.47057094090E+03  0.00000000000E+00 0.  1.
<mgrwt>
<rscale>  4 0.39836074E+03</rscale>
<asrwt>0</asrwt>
<pdfrwt beam="1">  1       21 0.16952347E-01 0.39836074E+03</pdfrwt>
<pdfrwt beam="2">  1       21 0.28108478E+00 0.39836074E+03</pdfrwt>
<totfact> 0.11526355E+03</totfact>
</mgrwt>
</event>
<event>
 5    0  0.1856407E+000  0.3506006E+03  0.7546771E-02  0.1062369E+00
         21   -1    0    0  502  501  0.00000000000E+00  0.00000000000E+00  0.10507136614E+04  0.10507136614E+04  0.00000000000E+00 0. -1.
         21   -1    0    0  503  502 -0.00000000000E+00 -0.00000000000E+00 -0.23132490038E+03  0.23132490038E+03  0.00000000000E+00 0. -1.
         25    1    1    2    0    0  0.27377508509E+03 -0.17984154638E+03  0.87220084405E+03  0.94002930347E+03  0.12500000000E+03 0.  0.
         21    1    1    2  503  504 -0.24503238652E+03  0.18612693640E+03 -0.54678736092E+02  0.31252819245E+03  0.00000000000E+00 0. -1.
         21    1    1    2  504  501 -0.28742698577E+02 -0.62853900179E+01  0.18666530356E+01  0.29481065834E+02  0.00000000000E+00 0. -1.
<mgrwt>
<rscale>  4 0.35060060E+03</rscale>
<asrwt>0</asrwt>
<pdfrwt beam="1">  1       21 0.16164825E+00 0.35060060E+03</pdfrwt>
<pdfrwt beam="2">  1       21 0.35588447E-01 0.35060060E+03</pdfrwt>
<totfact> 0.16605420E+03</totfact>
</mgrwt>
</event>
<event>
 5    0  0.4213492E+000  0.3214199E+03  0.7546771E-02  0.1074998E+00
         21   -1    0    0  502  501  0.00000000000E+00  0.00000000000E+00  0.20861038900E+03  0.20861038900E+03  0.00000000000E+00 0.  1.
         21   -1    0    0  503  502 -0.00000000000E+00 -0.00000000000E+00 -0.53530955937E+03  0.53530955937E+03  0.00000000000E+00 0.  1.
         25    1    1    2    0    0 -0.26739056320E+03  0.12723220067E+03 -0.29927244530E+02  0.32281013947E+03  0.12500000000E+03 0.  0.
         21    1    1    2  503  504  0.24740376405E+03 -0.10563544076E+03 -0.26137678241E+03  0.37508037964E+03  0.00000000000E+00 0.  1.
         21    1    1    2  504  501  0.19986799158E+02 -0.21596759912E+02 -0.35395143439E+02  0.46029429264E+02  0.00000000000E+00 0.  1.
<mgrwt>
<rscale>  4 0.32141989E+03</rscale>
<asrwt>0</asrwt>
<pdfrwt beam="1">  1       21 0.32093907E-01 0.32141989E+03</pdfrwt>
<pdfrwt beam="2">  1       21 0.82355315E-01 0.32141989E+03</pdfrwt>
<totfact> 0.11225961E+04</totfact>
</mgrwt>
</event>
