<event>
 5    0  0.1943430E+001  0.3336593E+03  0.7546771E-02  0.1069529E+00
         21   -1    0    0  503  501  0.00000000000E+00  0.00000000000E+00  0.41478717425E+03  0.41478717425E+03  0.00000000000E+00 0. -1.
         21   -1    0    0  504  502 -0.00000000000E+00 -0.00000000000E+00 -0.17551188530E+04  0.17551188530E+04  0.00000000000E+00 0. -1.
         25    1    1    2    0    0  0.13118522856E+03 -0.28060487932E+03  0.30918001109E+03  0.45515485469E+03  0.12500000000E+03 0.  0.
         21    1    1    2  503  502 -0.12634881063E+03 -0.49929649742E+02 -0.55659117768E+03  0.57293169832E+03  0.00000000000E+00 0.  1.
         21    1    1    2  504  501 -0.48364179289E+01  0.33053452906E+03 -0.10929205122E+04  0.11418194742E+04  0.00000000000E+00 0. -1.
<mgrwt>
<rscale>  4 0.33365934E+03</rscale>
<asrwt>0</asrwt>
<pdfrwt beam="1">  1       21 0.63813411E-01 0.33365934E+03</pdfrwt>
<pdfrwt beam="2">  1       21 0.27001829E+00 0.33365934E+03</pdfrwt>
<totfact> 0.97796297E+01</totfact>
</mgrwt>
</event>
<event>
 5    0  0.1943430E+001  0.3905405E+03  0.7546771E-02  0.1047105E+00
         21   -1    0    0  504  501  0.00000000000E+00  0.00000000000E+00  0.55360220991E+03  0.55360220991E+03  0.00000000000E+00 0.  1.
         21   -1    0    0  501  502 -0.00000000000E+00 -0.00000000000E+00 -0.38057572290E+03  0.38057572290E+03  0.00000000000E+00 0.  1.
         25    1    1    2    0    0 -0.30455447792E+03  0.21113245504E+03  0.19418389037E+03  0.43664943246E+03  0.12500000000E+03 0.  0.
         21    1    1    2  503  502 -0.37794270938E+02 -0.62393508386E+02 -0.92196088799E+02  0.11756477191E+03  0.00000000000E+00 0.  1.
         21    1    1    2  504  503  0.34234874886E+03 -0.14873894665E+03  0.71038685443E+02  0.37996372843E+03  0.00000000000E+00 0.  1.
<mgrwt>
<rscale>  4 0.39054048E+03</rscale>
<asrwt>0</asrwt>
<pdfrwt beam="1">  1       21 0.85169571E-01 0.39054048E+03</pdfrwt>
<pdfrwt beam="2">  1       21 0.58550111E-01 0.39054048E+03</pdfrwt>
<totfact> 0.28976858E+03</totfact>
</mgrwt>
</event>
<event>
 5    0  0.1943430E+001  0.2848751E+03  0.7546771E-02  0.1093056E+00
         21   -1    0    0  503  501  0.00000000000E+00  0.00000000000E+00  0.27042454766E+03  0.27042454766E+03  0.00000000000E+00 0.  1.
         21   -1    0    0  504  502 -0.00000000000E+00 -0.00000000000E+00 -0.58739432919E+03  0.58739432919E+03  0.00000000000E+00 0.  1.
         25    1    1    2    0    0 -0.24546628106E+03 -0.10132021741E+03  0.87853083239E+02  0.30637011249E+03  0.12500000000E+03 0.  0.
         21    1    1    2  503  502  0.21308933305E+03  0.10862624893E+03 -0.12539531477E+03  0.27005686583E+03  0.00000000000E+00 0.  1.
         21    1    1    2  504  501  0.32376948011E+02 -0.73060315210E+01 -0.27942755000E+03  0.28139189853E+03  0.00000000000E+00 0. -1.
<mgrwt>
<rscale>  4 0.28487509E+03</rscale>
<asrwt>0</asrwt>
<pdfrwt beam="1">  1       21 0.41603777E-01 0.28487509E+03</pdfrwt>
<pdfrwt beam="2">  1       21 0.90368357E-01 0.28487509E+03</pdfrwt>
<totfact> 0.54520460E+03</totfact>
</mgrwt>
</event>
<event>
 5    0  0.1943430E+001  0.3300125E+03  0.7546771E-02  0.1071131E+00
         21   -1    0    0  503  501  0.00000000000E+00  0.00000000000E+00  0.44229447639E+03  0.44229447639E+03  0.00000000000E+00 0. -1.
         21   -1    0    0  504  502 -0.00000000000E+00 -0.00000000000E+00 -0.27629943388E+03  0.27629943388E+03  0.00000000000E+00 0. -1.
         25    1    1    2    0    0 -0.13745801023E+03 -0.26153617955E+03  0.11917642163E+03  0.34223368809E+03  0.12500000000E+03 0.  0.
         21    1    1    2  503  502  0.11823468906E+02 -0.29263107334E+02 -0.37047428849E+02  0.48668633144E+02  0.00000000000E+00 0. -1.
         21    1    1    2  504  501  0.12563454132E+03  0.29079928689E+03  0.83866049727E+02  0.32769158904E+03  0.00000000000E+00 0. -1.
<mgrwt>
<rscale>  4 0.33001247E+03</rscale>
<asrwt>0</asrwt>
<pdfrwt beam="1">  1       21 0.68045304E-01 0.33001247E+03</pdfrwt>
<pdfrwt beam="2">  1       21 0.42507605E-01 0.33001247E+03</pdfrwt>
<totfact> 0.97548890E+03</totfact>
</mgrwt>
</event>
<event>
 5    0  0.1943430E+001  0.3339720E+03  0.7546771E-02  0.1069393E+00
         21   -1    0    0  504  501  0.00000000000E+00  0.00000000000E+00  0.85233024785E+03  0.85233024785E+03  0.00000000000E+00 0. -1.
         21   -1    0    0  503  502 -0.00000000000E+00 -0.00000000000E+00 -0.55838058618E+03  0.55838058618E+03  0.00000000000E+00 0.  1.
         25    1    1    2    0    0  0.25665843719E+03  0.17930007243E+03  0.75421472564E+03  0.82612766673E+03  0.12500000000E+03 0.  0.
         21    1    1    2  503  501 -0.59224457812E+02 -0.17573764353E+01 -0.75257639977E+01  0.59726559408E+02  0.00000000000E+00 0. -1.
         21    1    1    2  504  502 -0.19743397938E+03 -0.17754269600E+03 -0.45273929997E+03  0.52485660790E+03  0.00000000000E+00 0.  1.
<mgrwt>
<rscale>  4 0.33397198E+03</rscale>
<asrwt>0</asrwt>
<pdfrwt beam="1">  1       21 0.13112773E+00 0.33397198E+03</pdfrwt>
<pdfrwt beam="2">  1       21 0.85904706E-01 0.33397198E+03</pdfrwt>
<totfact> 0.43831173E+02</totfact>
</mgrwt>
</event>
<event>
 5    0  0.1943430E+001  0.3370979E+03  0.7546771E-02  0.1068039E+00
         21   -1    0    0  504  501  0.00000000000E+00  0.00000000000E+00  0.24692978213E+04  0.24692978213E+04  0.00000000000E+00 0.  1.
         21   -1    0    0  501  502 -0.00000000000E+00 -0.00000000000E+00 -0.49746537334E+03  0.49746537334E+03  0.00000000000E+00 0.  1.
         25    1    1    2    0    0 -0.25949299863E+03 -0.18257477729E+03  0.23879360815E+04  0.24121637372E+04  0.12500000000E+03 0.  0.
         21    1    1    2  503  502  0.47904831835E+02  0.13762898914E+03 -0.12544022512E+03  0.19228068453E+03  0.00000000000E+00 0. -1.
         21    1    1    2  504  503  0.21158816680E+03  0.44945788149E+02 -0.29066340844E+03  0.36231877291E+03  0.00000000000E+00 0.  1.
<mgrwt>
<rscale>  4 0.33709788E+03</rscale>
<asrwt>0</asrwt>
<pdfrwt beam="1">  1       21 0.37989197E+00 0.33709788E+03</pdfrwt>
<pdfrwt beam="2">  1       21 0.76533135E-01 0.33709788E+03</pdfrwt>
<totfact> 0.14185683E+01</totfact>
</mgrwt>
</event>
<event>
 5    0  0.1943430E+001  0.4839659E+03  0.7546771E-02  0.1018051E+00
         21   -1    0    0  503  501  0.00000000000E+00  0.00000000000E+00  0.48741384553E+03  0.48741384553E+03  0.00000000000E+00 0. -1.
         21   -1    0    0  504  502 -0.00000000000E+00 -0.00000000000E+00 -0.11945826197E+04  0.11945826197E+04  0.00000000000E+00 0. -1.
         25    1    1    2    0    0  0.44868246313E+03  0.14790528319E+03  0.23135876495E+03  0.54068826845E+03  0.12500000000E+03 0.  0.
         21    1    1    2  503  502 -0.42542203173E+03 -0.15184815386E+03 -0.40327171874E+03  0.60553269610E+03  0.00000000000E+00 0. -1.
         21    1    1    2  504  501 -0.23260431405E+02  0.39428706689E+01 -0.53525582039E+03  0.53577550071E+03  0.00000000000E+00 0. -1.
<mgrwt>
<rscale>  4 0.48396586E+03</rscale>
<asrwt>0</asrwt>
<pdfrwt beam="1">  1       21 0.74986746E-01 0.48396586E+03</pdfrwt>
<pdfrwt beam="2">  1       21 0.18378194E+00 0.48396586E+03</pdfrwt>
<totfact> 0.21811662E+02</totfact>
</mgrwt>
</event>
<event>
 5    0  0.1943430E+001  0.2567809E+03  0.7546771E-02  0.1109093E+00
         21   -1    0    0  504  501  0.00000000000E+00  0.00000000000E+00  0.38539955469E+03  0.38539955469E+03  0.00000000000E+00 0. -1.
         21   -1    0    0  503  502 -0.00000000000E+00 -0.00000000000E+00 -0.35114309234E+03  0.35114309234E+03  0.00000000000E+00 0. -1.
         25    1    1    2    0    0 -0.20267159009E+03  0.12827811222E+03 -0.23309819368E+03  0.35705856019E+03  0.12500000000E+03 0.  0.
         21    1    1    2  503  501  0.19611227546E+03 -0.10469280064E+03  0.27520352633E+03  0.35377618348E+03  0.00000000000E+00 0. -1.
         21    1    1    2  504  502  0.65593146353E+01 -0.23585311572E+02 -0.78488702919E+01  0.25707903362E+02  0.00000000000E+00 0.  1.
<mgrwt>
<rscale>  4 0.25678085E+03</rscale>
<asrwt>0</asrwt>
<pdfrwt beam="1">  1       21 0.59292239E-01 0.25678085E+03</pdfrwt>
<pdfrwt beam="2">  1       21 0.54022014E-01 0.25678085E+03</pdfrwt>
<totfact> 0.82676902E+03</totfact>
</mgrwt>
</event>
<event>
 5    0  0.1943430E+001  0.4990228E+03  0.7546771E-02  0.1014034E+00
         21   -1    0    0  504  501  0.00000000000E+00  0.00000000000E+00  0.20456180981E+03  0.20456180981E+03  0.00000000000E+00 0. -1.
         21   -1    0    0  501  502 -0.00000000000E+00 -0.00000000000E+00 -0.15480749083E+04  0.15480749083E+04  0.00000000000E+00 0. -1.
         25    1    1    2    0    0  0.45259207437E+03  0.13235800865E+03 -0.34403057065E+03  0.59694242752E+03  0.12500000000E+03 0.  0.
         21    1    1    2  503  502  0.15195021408E+02  0.62426766051E+02 -0.19123422964E+03  0.20173874289E+03  0.00000000000E+00 0. -1.
         21    1    1    2  504  503 -0.46778709578E+03 -0.19478477470E+03 -0.80824829822E+03  0.95395554771E+03  0.00000000000E+00 0. -1.
<mgrwt>
<rscale>  4 0.49902279E+03</rscale>
<asrwt>0</asrwt>
<pdfrwt beam="1">  1       21 0.31471047E-01 0.49902279E+03</pdfrwt>
<pdfrwt beam="2">  1       21 0.23816538E+00 0.49902279E+03</pdfrwt>
<totfact> 0.60495736E+02</totfact>
</mgrwt>
</event>
<event>
 5    0  0.1943430E+001  0.3500515E+03  0.7546771E-02  0.1062594E+00
         21   -1    0    0  504  501  0.00000000000E+00  0.00000000000E+00  0.17771620597E+03  0.17771620597E+03  0.00000000000E+00 0. -1.
         21   -1    0    0  501  502 -0.00000000000E+00 -0.00000000000E+00 -0.71394600551E+03  0.71394600551E+03  0.00000000000E+00 0. -1.
         25    1    1    2    0    0  0.58927786369E+02  0.30752519067E+03 -0.30884018965E+03  0.45722148861E+03  0.12500000000E+03 0.  0.
         21    1    1    2  503  502 -0.14187624186E+00  0.24542579426E+02 -0.44473680349E+02  0.50796324449E+02  0.00000000000E+00 0. -1.
         21    1    1    2  504  503 -0.58785910127E+02 -0.33206777009E+03 -0.18291592954E+03  0.38364439842E+03  0.00000000000E+00 0. -1.
<mgrwt>
<rscale>  4 0.35005147E+03</rscale>
<asrwt>0</asrwt>
<pdfrwt beam="1">  1       21 0.27340954E-01 0.35005147E+03</pdfrwt>
<pdfrwt beam="2">  1       21 0.10983785E+00 0.35005147E+03</pdfrwt>
<totfact> 0.76612454E+03</totfact>
</mgrwt>
</event>
<event>
 5    0  0.1943430E+001  0.2669336E+03  0.7546771E-02  0.1103048E+00
         21   -1    0    0  503  501  0.00000000000E+00  0.00000000000E+00  0.87482989847E+03  0.87482989847E+03  0.00000000000E+00 0.  1.
         21   -1    0    0  504  502 -0.00000000000E+00 -0.00000000000E+00 -0.13391133932E+03  0.13391133932E+03  0.00000000000E+00 0.  1.
         25    1    1    2    0    0  0.20300461984E+03 -0.12007362380E+03  0.72173545371E+03  0.76951648192E+03  0.12500000000E+03 0.  0.
         21    1    1    2  503  502 -0.18250435686E+03  0.10589940099E+03  0.27858581446E+02  0.21283473392E+03  0.00000000000E+00 0.  1.
         21    1    1    2  504  501 -0.20500262984E+02  0.14174222802E+02 -0.86754760012E+01  0.26390021946E+02  0.00000000000E+00 0. -1.
<mgrwt>
<rscale>  4 0.26693361E+03</rscale>
<asrwt>0</asrwt>
<pdfrwt beam="1">  1       21 0.13458921E+00 0.26693361E+03</pdfrwt>
<pdfrwt beam="2">  1       21 0.20601745E-01 0.26693361E+03</pdfrwt>
<totfact> 0.82303756E+03</totfact>
</mgrwt>
</event>
<event>
 5    0  0.1943430E+001  0.2090117E+03  0.7546771E-02  0.1142351E+00
         21   -1    0    0  503  501  0.00000000000E+00  0.00000000000E+00  0.44288022349E+03  0.44288022349E+03  0.00000000000E+00 0. -1.
         21   -1    0    0  504  502 -0.00000000000E+00 -0.00000000000E+00 -0.28530120496E+03  0.28530120496E+03  0.00000000000E+00 0.  1.
         25    1    1    2    0    0 -0.13282968129E+03  0.17909084950E+03  0.28241306426E+03  0.38091914559E+03  0.12500000000E+03 0.  0.
         21    1    1    2  503  502  0.56112799991E+02 -0.11077589364E+03  0.58379514258E+02  0.13721556989E+03  0.00000000000E+00 0.  1.
         21    1    1    2  504  501  0.76716881295E+02 -0.68314955865E+02 -0.18321355999E+03  0.21004671298E+03  0.00000000000E+00 0.  1.
<mgrwt>
<rscale>  4 0.20901172E+03</rscale>
<asrwt>0</asrwt>
<pdfrwt beam="1">  1       21 0.68135419E-01 0.20901172E+03</pdfrwt>
<pdfrwt beam="2">  1       21 0.43892493E-01 0.20901172E+03</pdfrwt>
<totfact> 0.96962838E+03</totfact>
</mgrwt>
</event>
<event>
 5    0  0.1943430E+001  0.2382837E+03  0.7546771E-02  0.1120941E+00
         21   -1    0    0  504  501  0.00000000000E+00  0.00000000000E+00  0.11222103948E+04  0.11222103948E+04  0.00000000000E+00 0. -1.
         21   -1    0    0  501  502 -0.00000000000E+00 -0.00000000000E+00 -0.12672279246E+03  0.12672279246E+03  0.00000000000E+00 0.  1.
         25    1    1    2    0    0 -0.20085017942E+03  0.52866928657E+02  0.96647066495E+03  0.99640667045E+03  0.12500000000E+03 0.  0.
         21    1    1    2  503  502  0.47888446408E+02  0.40075560285E+02  0.38380633308E+02  0.73296840618E+02  0.00000000000E+00 0. -1.
         21    1    1    2  504  503  0.15296173302E+03 -0.92942488943E+02 -0.93636959342E+01  0.17922967617E+03  0.00000000000E+00 0.  1.
<mgrwt>
<rscale>  4 0.23828371E+03</rscale>
<asrwt>0</asrwt>
<pdfrwt beam="1">  1       21 0.17264775E+00 0.23828371E+03</pdfrwt>
<pdfrwt beam="2">  1       21 0.19495815E-01 0.23828371E+03</pdfrwt>
<totfact> 0.47696349E+03</totfact>
</mgrwt>
</event>
<event>
 5    0  0.1943430E+001  0.4667783E+03  0.7546771E-02  0.1022833E+00
         21   -1    0    0  503  501  0.00000000000E+00  0.00000000000E+00  0.32089980048E+03  0.32089980048E+03  0.00000000000E+00 0.  1.
         21   -1    0    0  504  502 -0.00000000000E+00 -0.00000000000E+00 -0.11344187410E+04  0.11344187410E+04  0.00000000000E+00 0. -1.
         25    1    1    2    0    0 -0.25635471043E+03 -0.41414102417E+03 -0.20045814224E+03  0.54133076048E+03  0.12500000000E+03 0.  0.
         21    1    1    2  503  502  0.81487726732E+02  0.31303269397E+02 -0.45674751998E+03  0.46501445278E+03  0.00000000000E+00 0. -1.
         21    1    1    2  504  501  0.17486698370E+03  0.38283775477E+03 -0.15631327828E+03  0.44897332819E+03  0.00000000000E+00 0.  1.
<mgrwt>
<rscale>  4 0.46677832E+03</rscale>
<asrwt>0</asrwt>
<pdfrwt beam="1">  1       21 0.49369201E-01 0.46677832E+03</pdfrwt>
<pdfrwt beam="2">  1       21 0.17452596E+00 0.46677832E+03</pdfrwt>
<totfact> 0.64172597E+02</totfact>
</mgrwt>
</event>
