<event>
 5    0  0.1861957E+000  0.2514601E+03  0.7546771E-02  0.1112386E+00
         21   -1    0    0  504  501  0.00000000000E+00  0.00000000000E+00  0.28477713373E+03  0.28477713373E+03  0.00000000000E+00 0. -1.
         21   -1    0    0  501  502 -0.00000000000E+00 -0.00000000000E+00 -0.24137539266E+03  0.24137539266E+03  0.00000000000E+00 0. -1.
         25    1    1    2    0    0 -0.17171000926E+03  0.13462116442E+03  0.13303337074E+03  0.28448209595E+03  0.12500000000E+03 0.  0.
         21    1    1    2  503  502  0.10555010423E+03 -0.85343700294E+02 -0.27746030198E+02  0.13854318415E+03  0.00000000000E+00 0. -1.
         21    1    1    2  504  503  0.66159905028E+02 -0.49277464123E+02 -0.61885599473E+02  0.10312724628E+03  0.00000000000E+00 0. -1.
<mgrwt>
<rscale>  4 0.25146011E+03</rscale>
<asrwt>0</asrwt>
<pdfrwt beam="1">  1       21 0.43811867E-01 0.25146011E+03</pdfrwt>
<pdfrwt beam="2">  1       21 0.37134676E-01 0.25146011E+03</pdfrwt>
<totfact> 0.34026833E+04</totfact>
</mgrwt>
</event>
<event>
 5    0  0.1861957E+000  0.2373392E+03  0.7546771E-02  0.1121578E+00
         21   -1    0    0  503  501  0.00000000000E+00  0.00000000000E+00  0.34513555267E+03  0.34513555267E+03  0.00000000000E+00 0. -1.
         21   -1    0    0  504  502 -0.00000000000E+00 -0.00000000000E+00 -0.65161938624E+03  0.65161938624E+03  0.00000000000E+00 0.  1.
         25    1    1    2    0    0 -0.24092971571E+02 -0.20121678386E+03  0.27728209928E+03  0.36548464806E+03  0.12500000000E+03 0.  0.
         21    1    1    2  503  502  0.43815646009E+02  0.63531733231E+01 -0.10020399303E+03  0.10954913904E+03  0.00000000000E+00 0.  1.
         21    1    1    2  504  501 -0.19722674438E+02  0.19486361054E+03 -0.48356193983E+03  0.52172115181E+03  0.00000000000E+00 0.  1.
<mgrwt>
<rscale>  4 0.23733918E+03</rscale>
<asrwt>0</asrwt>
<pdfrwt beam="1">  1       21 0.53097778E-01 0.23733918E+03</pdfrwt>
<pdfrwt beam="2">  1       21 0.10024914E+00 0.23733918E+03</pdfrwt>
<totfact> 0.26445686E+03</totfact>
</mgrwt>
</event>
<event>
 5    0  0.1861957E+000  0.3151100E+03  0.7546771E-02  0.1077922E+00
         21   -1    0    0  503  501  0.00000000000E+00  0.00000000000E+00  0.20422267022E+03  0.20422267022E+03  0.00000000000E+00 0.  1.
         21   -1    0    0  504  502 -0.00000000000E+00 -0.00000000000E+00 -0.61253784615E+03  0.61253784615E+03  0.00000000000E+00 0.  1.
         25    1    1    2    0    0 -0.22162392325E+03 -0.18786398906E+03 -0.14250235803E+02  0.31660402866E+03  0.12500000000E+03 0.  0.
         21    1    1    2  503  502 -0.97622060839E+01  0.18729875095E+02 -0.32720941211E+02  0.38945717126E+02  0.00000000000E+00 0. -1.
         21    1    1    2  504  501  0.23138612933E+03  0.16913411397E+03 -0.36134399892E+03  0.46121077059E+03  0.00000000000E+00 0.  1.
<mgrwt>
<rscale>  4 0.31511000E+03</rscale>
<asrwt>0</asrwt>
<pdfrwt beam="1">  1       21 0.31418873E-01 0.31511000E+03</pdfrwt>
<pdfrwt beam="2">  1       21 0.94236591E-01 0.31511000E+03</pdfrwt>
<totfact> 0.85697084E+03</totfact>
</mgrwt>
</event>
<event>
 5    0  0.1861957E+000  0.2831334E+03  0.7546771E-02  0.1093990E+00
         21   -1    0    0  503  501  0.00000000000E+00  0.00000000000E+00  0.64167892264E+03  0.64167892264E+03  0.00000000000E+00 0.  1.
         21   -1    0    0  504  502 -0.00000000000E+00 -0.00000000000E+00 -0.34464287598E+03  0.34464287598E+03  0.00000000000E+00 0.  1.
         25    1    1    2    0    0 -0.23595029771E+03 -0.12733494584E+03  0.52489920935E+03  0.60252046555E+03  0.12500000000E+03 0.  0.
         21    1    1    2  503  502  0.14309414833E+03  0.14250102624E+03 -0.10082773742E+03  0.22571821016E+03  0.00000000000E+00 0.  1.
         21    1    1    2  504  501  0.92856149388E+02 -0.15166080402E+02 -0.12703542528E+03  0.15808312292E+03  0.00000000000E+00 0.  1.
<mgrwt>
<rscale>  4 0.28313335E+03</rscale>
<asrwt>0</asrwt>
<pdfrwt beam="1">  1       21 0.98719834E-01 0.28313335E+03</pdfrwt>
<pdfrwt beam="2">  1       21 0.53021981E-01 0.28313335E+03</pdfrwt>
<totfact> 0.26697528E+03</totfact>
</mgrwt>
</event>
<event>
 5    0  0.1861957E+000  0.3502146E+03  0.7546771E-02  0.1062527E+00
         21   -1    0    0  504  501  0.00000000000E+00  0.00000000000E+00  0.14454629858E+03  0.14454629858E+03  0.00000000000E+00 0.  1.
         21   -1    0    0  503  502 -0.00000000000E+00 -0.00000000000E+00 -0.11561253690E+04  0.11561253690E+04  0.00000000000E+00 0. -1.
         25    1    1    2    0    0 -0.19619217488E+03  0.26178983529E+03 -0.16855375144E+03  0.38866522158E+03  0.12500000000E+03 0.  0.
         21    1    1    2  503  501  0.10197399246E+03 -0.90008761404E+02 -0.48694197922E+03  0.50558160903E+03  0.00000000000E+00 0.  1.
         21    1    1    2  504  502  0.94218182423E+02 -0.17178107388E+03 -0.35608333976E+03  0.40642483696E+03  0.00000000000E+00 0. -1.
<mgrwt>
<rscale>  4 0.35021463E+03</rscale>
<asrwt>0</asrwt>
<pdfrwt beam="1">  1       21 0.22237891E-01 0.35021463E+03</pdfrwt>
<pdfrwt beam="2">  1       21 0.17786545E+00 0.35021463E+03</pdfrwt>
<totfact> 0.31914210E+03</totfact>
</mgrwt>
</event>
<event>
 5    0  0.1861957E+000  0.2639549E+03  0.7546771E-02  0.1104790E+00
         21   -1    0    0  504  501  0.00000000000E+00  0.00000000000E+00  0.16867049589E+03  0.16867049589E+03  0.00000000000E+00 0.  1.
         21   -1    0    0  501  502 -0.00000000000E+00 -0.00000000000E+00 -0.64542730981E+03  0.64542730981E+03  0.00000000000E+00 0.  1.
         25    1    1    2    0    0  0.21126819929E+03 -0.70525139731E+02 -0.20459635957E+02  0.25622576777E+03  0.12500000000E+03 0.  0.
         21    1    1    2  503  502  0.30389450817E+02 -0.13879668451E+02 -0.17243354104E+03  0.17564022885E+03  0.00000000000E+00 0.  1.
         21    1    1    2  504  503 -0.24165765011E+03  0.84404808182E+02 -0.28386363693E+03  0.38223180908E+03  0.00000000000E+00 0.  1.
<mgrwt>
<rscale>  4 0.26395488E+03</rscale>
<asrwt>0</asrwt>
<pdfrwt beam="1">  1       21 0.25949307E-01 0.26395488E+03</pdfrwt>
<pdfrwt beam="2">  1       21 0.99296509E-01 0.26395488E+03</pdfrwt>
<totfact> 0.11276386E+04</totfact>
</mgrwt>
</event>
<event>
 5    0  0.1861957E+000  0.4067659E+03  0.7546771E-02  0.1041462E+00
         21   -1    0    0  503  501  0.00000000000E+00  0.00000000000E+00  0.31343098831E+03  0.31343098831E+03  0.00000000000E+00 0.  1.
         21   -1    0    0  504  502 -0.00000000000E+00 -0.00000000000E+00 -0.62840501311E+03  0.62840501311E+03  0.00000000000E+00 0. -1.
         25    1    1    2    0    0 -0.37557627222E+03 -0.12335275472E+03  0.88312521286E+01  0.41470040917E+03  0.12500000000E+03 0.  0.
         21    1    1    2  503  502  0.16921008934E+02  0.20725573828E+02 -0.72647059453E+02  0.77417473486E+02  0.00000000000E+00 0. -1.
         21    1    1    2  504  501  0.35865526328E+03  0.10262718090E+03 -0.25115821747E+03  0.44971811876E+03  0.00000000000E+00 0. -1.
<mgrwt>
<rscale>  4 0.40676587E+03</rscale>
<asrwt>0</asrwt>
<pdfrwt beam="1">  1       21 0.48220153E-01 0.40676587E+03</pdfrwt>
<pdfrwt beam="2">  1       21 0.96677693E-01 0.40676587E+03</pdfrwt>
<totfact> 0.32323905E+03</totfact>
</mgrwt>
</event>
<event>
 5    0  0.1861957E+000  0.2424258E+03  0.7546771E-02  0.1118187E+00
         21   -1    0    0  504  501  0.00000000000E+00  0.00000000000E+00  0.13775680690E+03  0.13775680690E+03  0.00000000000E+00 0.  1.
         21   -1    0    0  501  502 -0.00000000000E+00 -0.00000000000E+00 -0.40611719800E+03  0.40611719800E+03  0.00000000000E+00 0. -1.
         25    1    1    2    0    0  0.20339131621E+03  0.42157321141E+02 -0.69358822997E+02  0.25215256009E+03  0.12500000000E+03 0.  0.
         21    1    1    2  503  502 -0.10904280676E+03  0.15785008812E+01 -0.10905546914E+03  0.15422684825E+03  0.00000000000E+00 0. -1.
         21    1    1    2  504  503 -0.94348509449E+02 -0.43735822022E+02 -0.89946098956E+02  0.13749459655E+03  0.00000000000E+00 0. -1.
<mgrwt>
<rscale>  4 0.24242580E+03</rscale>
<asrwt>0</asrwt>
<pdfrwt beam="1">  1       21 0.21193355E-01 0.24242580E+03</pdfrwt>
<pdfrwt beam="2">  1       21 0.62479569E-01 0.24242580E+03</pdfrwt>
<totfact> 0.48064373E+04</totfact>
</mgrwt>
</event>
<event>
 5    0  0.1861957E+000  0.2283865E+03  0.7546771E-02  0.1127781E+00
         21   -1    0    0  504  501  0.00000000000E+00  0.00000000000E+00  0.23323266596E+03  0.23323266596E+03  0.00000000000E+00 0.  1.
         21   -1    0    0  503  502 -0.00000000000E+00 -0.00000000000E+00 -0.38836500631E+03  0.38836500631E+03  0.00000000000E+00 0.  1.
         25    1    1    2    0    0  0.20685443884E+03  0.26419219482E+02  0.31273698324E+00  0.24312924923E+03  0.12500000000E+03 0.  0.
         21    1    1    2  503  501 -0.25065409173E+02 -0.81912452831E+02  0.49513898955E+02  0.98942159141E+02  0.00000000000E+00 0.  1.
         21    1    1    2  504  502 -0.18178902967E+03  0.55493233349E+02 -0.20495897629E+03  0.27952626391E+03  0.00000000000E+00 0.  1.
<mgrwt>
<rscale>  4 0.22838646E+03</rscale>
<asrwt>0</asrwt>
<pdfrwt beam="1">  1       21 0.35881949E-01 0.22838646E+03</pdfrwt>
<pdfrwt beam="2">  1       21 0.59748462E-01 0.22838646E+03</pdfrwt>
<totfact> 0.19182209E+04</totfact>
</mgrwt>
</event>
<event>
 5    0  0.1861957E+000  0.2758654E+03  0.7546771E-02  0.1097969E+00
         21   -1    0    0  502  501  0.00000000000E+00  0.00000000000E+00  0.26648754657E+03  0.26648754657E+03  0.00000000000E+00 0.  1.
         21   -1    0    0  503  502 -0.00000000000E+00 -0.00000000000E+00 -0.27867614948E+03  0.27867614948E+03  0.00000000000E+00 0.  1.
         25    1    1    2    0    0 -0.69268507595E+02  0.23596314098E+03 -0.20355010662E+02  0.27661535841E+03  0.12500000000E+03 0.  0.
         21    1    1    2  503  504  0.22048243984E+02 -0.90848425467E+02 -0.49048154906E+02  0.10557122227E+03  0.00000000000E+00 0.  1.
         21    1    1    2  504  501  0.47220263611E+02 -0.14511471552E+03  0.57214562661E+02  0.16297711537E+03  0.00000000000E+00 0.  1.
<mgrwt>
<rscale>  4 0.27586542E+03</rscale>
<asrwt>0</asrwt>
<pdfrwt beam="1">  1       21 0.40998084E-01 0.27586542E+03</pdfrwt>
<pdfrwt beam="2">  1       21 0.42873254E-01 0.27586542E+03</pdfrwt>
<totfact> 0.28813369E+04</totfact>
</mgrwt>
</event>
<event>
 5    0  0.1861957E+000  0.2385986E+03  0.7546771E-02  0.1120730E+00
         21   -1    0    0  504  501  0.00000000000E+00  0.00000000000E+00  0.27696686240E+03  0.27696686240E+03  0.00000000000E+00 0.  1.
         21   -1    0    0  503  502 -0.00000000000E+00 -0.00000000000E+00 -0.23405211935E+03  0.23405211935E+03  0.00000000000E+00 0. -1.
         25    1    1    2    0    0  0.69224292244E+02 -0.18922613244E+03  0.12405060529E+03  0.26760434321E+03  0.12500000000E+03 0.  0.
         21    1    1    2  503  501 -0.51609154787E+02  0.20083481270E+03 -0.66589950654E+02  0.21778968841E+03  0.00000000000E+00 0. -1.
         21    1    1    2  504  502 -0.17615137457E+02 -0.11608680265E+02 -0.14545911581E+02  0.25624950124E+02  0.00000000000E+00 0.  1.
<mgrwt>
<rscale>  4 0.23859858E+03</rscale>
<asrwt>0</asrwt>
<pdfrwt beam="1">  1       21 0.42610286E-01 0.23859858E+03</pdfrwt>
<pdfrwt beam="2">  1       21 0.36008018E-01 0.23859858E+03</pdfrwt>
<totfact> 0.38538858E+04</totfact>
</mgrwt>
</event>
<event>
 5    0  0.1861957E+000  0.2571018E+03  0.7546771E-02  0.1108897E+00
         21   -1    0    0  502  501  0.00000000000E+00  0.00000000000E+00  0.20923007705E+04  0.20923007705E+04  0.00000000000E+00 0. -1.
         21   -1    0    0  503  502 -0.00000000000E+00 -0.00000000000E+00 -0.11780478952E+03  0.11780478952E+03  0.00000000000E+00 0.  1.
         25    1    1    2    0    0  0.93123107432E+02  0.20740810016E+03  0.19075660772E+04  0.19251294430E+04  0.12500000000E+03 0.  0.
         21    1    1    2  503  504 -0.52090742936E+02 -0.18824449062E+03 -0.10144094575E+02  0.19558204520E+03  0.00000000000E+00 0.  1.
         21    1    1    2  504  501 -0.41032364496E+02 -0.19163609536E+02  0.77073998293E+02  0.89394071837E+02  0.00000000000E+00 0.  1.
<mgrwt>
<rscale>  4 0.25710180E+03</rscale>
<asrwt>0</asrwt>
<pdfrwt beam="1">  1       21 0.32189240E+00 0.25710180E+03</pdfrwt>
<pdfrwt beam="2">  1       21 0.18123815E-01 0.25710180E+03</pdfrwt>
<totfact> 0.65258445E+02</totfact>
</mgrwt>
</event>
<event>
 5    0  0.1861957E+000  0.2376320E+03  0.7546771E-02  0.1121380E+00
         21   -1    0    0  503  501  0.00000000000E+00  0.00000000000E+00  0.33062864085E+04  0.33062864085E+04  0.00000000000E+00 0. -1.
         21   -1    0    0  504  502 -0.00000000000E+00 -0.00000000000E+00 -0.13678562438E+03  0.13678562438E+03  0.00000000000E+00 0. -1.
         25    1    1    2    0    0  0.22824616303E+02  0.20545317370E+03  0.25733280377E+04  0.25846419789E+04  0.12500000000E+03 0.  0.
         21    1    1    2  503  502  0.12335862254E+03 -0.63960882352E+02  0.63610381108E+03  0.65110398762E+03  0.00000000000E+00 0. -1.
         21    1    1    2  504  501 -0.14618323884E+03 -0.14149229135E+03 -0.39931064690E+02  0.20732606628E+03  0.00000000000E+00 0. -1.
<mgrwt>
<rscale>  4 0.23763197E+03</rscale>
<asrwt>0</asrwt>
<pdfrwt beam="1">  1       21 0.50865939E+00 0.23763197E+03</pdfrwt>
<pdfrwt beam="2">  1       21 0.21043945E-01 0.23763197E+03</pdfrwt>
<totfact> 0.31814699E+01</totfact>
</mgrwt>
</event>
<event>
 5    0  0.1861957E+000  0.2775845E+03  0.7546771E-02  0.1097016E+00
         21   -1    0    0  503  501  0.00000000000E+00  0.00000000000E+00  0.39900245039E+03  0.39900245039E+03  0.00000000000E+00 0. -1.
         21   -1    0    0  504  502 -0.00000000000E+00 -0.00000000000E+00 -0.44114376258E+03  0.44114376258E+03  0.00000000000E+00 0. -1.
         25    1    1    2    0    0 -0.18633994276E+03 -0.15565179174E+03  0.25013177959E+03  0.37032548076E+03  0.12500000000E+03 0.  0.
         21    1    1    2  503  502 -0.22843456670E+01 -0.31211015161E+02 -0.17805356521E+03  0.18078279174E+03  0.00000000000E+00 0. -1.
         21    1    1    2  504  501  0.18862428843E+03  0.18686280690E+03 -0.11421952657E+03  0.28903794048E+03  0.00000000000E+00 0. -1.
<mgrwt>
<rscale>  4 0.27758451E+03</rscale>
<asrwt>0</asrwt>
<pdfrwt beam="1">  1       21 0.61384993E-01 0.27758451E+03</pdfrwt>
<pdfrwt beam="2">  1       21 0.67868271E-01 0.27758451E+03</pdfrwt>
<totfact> 0.46218633E+03</totfact>
</mgrwt>
</event>
<event>
 5    0  0.1861957E+000  0.5455485E+03  0.7546771E-02  0.1002530E+00
         21   -1    0    0  503  501  0.00000000000E+00  0.00000000000E+00  0.63215330195E+03  0.63215330195E+03  0.00000000000E+00 0. -1.
         21   -1    0    0  504  502 -0.00000000000E+00 -0.00000000000E+00 -0.16095264853E+04  0.16095264853E+04  0.00000000000E+00 0.  1.
         25    1    1    2    0    0  0.23055889998E+03 -0.47929805766E+03  0.45190839213E+03  0.70903471658E+03  0.12500000000E+03 0.  0.
         21    1    1    2  503  502  0.21118282614E+02  0.21339730651E+02 -0.61387498963E+02  0.68335869013E+02  0.00000000000E+00 0.  1.
         21    1    1    2  504  501 -0.25167718259E+03  0.45795832701E+03 -0.13678940765E+04  0.14643092016E+04  0.00000000000E+00 0.  1.
<mgrwt>
<rscale>  4 0.54554853E+03</rscale>
<asrwt>0</asrwt>
<pdfrwt beam="1">  1       21 0.97254353E-01 0.54554853E+03</pdfrwt>
<pdfrwt beam="2">  1       21 0.24761946E+00 0.54554853E+03</pdfrwt>
<totfact> 0.44000957E+01</totfact>
</mgrwt>
</event>
<event>
 5    0  0.1861957E+000  0.4000996E+03  0.7546771E-02  0.1043745E+00
         21   -1    0    0  504  501  0.00000000000E+00  0.00000000000E+00  0.38676446931E+03  0.38676446931E+03  0.00000000000E+00 0. -1.
         21   -1    0    0  503  502 -0.00000000000E+00 -0.00000000000E+00 -0.57389847287E+03  0.57389847287E+03  0.00000000000E+00 0. -1.
         25    1    1    2    0    0 -0.37243160356E+03  0.30829464155E+02  0.10793367116E+03  0.40857120868E+03  0.12500000000E+03 0.  0.
         21    1    1    2  503  501  0.39337085623E+03 -0.91732362754E+01 -0.17918262268E+03  0.43235539902E+03  0.00000000000E+00 0. -1.
         21    1    1    2  504  502 -0.20939252664E+02 -0.21656227880E+02 -0.11588505204E+03  0.11973633447E+03  0.00000000000E+00 0. -1.
<mgrwt>
<rscale>  4 0.40009961E+03</rscale>
<asrwt>0</asrwt>
<pdfrwt beam="1">  1       21 0.59502226E-01 0.40009961E+03</pdfrwt>
<pdfrwt beam="2">  1       21 0.88292073E-01 0.40009961E+03</pdfrwt>
<totfact> 0.25610914E+03</totfact>
</mgrwt>
</event>
<event>
 5    0  0.1861957E+000  0.2815029E+03  0.7546771E-02  0.1094871E+00
         21   -1    0    0  503  501  0.00000000000E+00  0.00000000000E+00  0.87314428398E+03  0.87314428398E+03  0.00000000000E+00 0.  1.
         21   -1    0    0  504  502 -0.00000000000E+00 -0.00000000000E+00 -0.33261729707E+03  0.33261729707E+03  0.00000000000E+00 0.  1.
         25    1    1    2    0    0  0.11991156573E+03 -0.23206391543E+03  0.74549935435E+03  0.79976667333E+03  0.12500000000E+03 0.  0.
         21    1    1    2  503  502 -0.12629381147E+03  0.17344670896E+03 -0.24279046322E+02  0.21592443066E+03  0.00000000000E+00 0.  1.
         21    1    1    2  504  501  0.63822457377E+01  0.58617206470E+02 -0.18069332111E+03  0.19007047706E+03  0.00000000000E+00 0.  1.
<mgrwt>
<rscale>  4 0.28150291E+03</rscale>
<asrwt>0</asrwt>
<pdfrwt beam="1">  1       21 0.13432989E+00 0.28150291E+03</pdfrwt>
<pdfrwt beam="2">  1       21 0.51171892E-01 0.28150291E+03</pdfrwt>
<totfact> 0.13419146E+03</totfact>
</mgrwt>
</event>
<event>
 5    0  0.1861957E+000  0.4333841E+03  0.7546771E-02  0.1032796E+00
         21   -1    0    0  504  501  0.00000000000E+00  0.00000000000E+00  0.11082797488E+04  0.11082797488E+04  0.00000000000E+00 0.  1.
         21   -1    0    0  501  502 -0.00000000000E+00 -0.00000000000E+00 -0.60338761083E+03  0.60338761083E+03  0.00000000000E+00 0.  1.
         25    1    1    2    0    0 -0.13679603080E+03 -0.46402375721E+03  0.31120153693E+03  0.58864471278E+03  0.12500000000E+03 0.  0.
         21    1    1    2  503  502  0.17539710177E+02  0.96266713223E+02 -0.40152151411E+03  0.41327284909E+03  0.00000000000E+00 0.  1.
         21    1    1    2  504  503  0.11925632062E+03  0.36775704399E+03  0.59521211519E+03  0.70974979780E+03  0.00000000000E+00 0.  1.
<mgrwt>
<rscale>  4 0.43338411E+03</rscale>
<asrwt>0</asrwt>
<pdfrwt beam="1">  1       21 0.17050458E+00 0.43338411E+03</pdfrwt>
<pdfrwt beam="2">  1       21 0.92828863E-01 0.43338411E+03</pdfrwt>
<totfact> 0.16921010E+02</totfact>
</mgrwt>
</event>
<event>
 5    0  0.2359993E+000  0.2874961E+03  0.7546771E-02  0.1091664E+00
         21   -1    0    0  504  501  0.00000000000E+00  0.00000000000E+00  0.69758664940E+03  0.69758664940E+03  0.00000000000E+00 0. -1.
         21   -1    0    0  501  502 -0.00000000000E+00 -0.00000000000E+00 -0.54773451921E+03  0.54773451921E+03  0.00000000000E+00 0.  1.
         25    1    1    2    0    0  0.16877646082E+03 -0.26058572948E+03 -0.13718197392E+03  0.36171025712E+03  0.12500000000E+03 0.  0.
         21    1    1    2  503  502 -0.10264125545E+02  0.62949048995E+02 -0.26693940585E+03  0.27445324090E+03  0.00000000000E+00 0.  1.
         21    1    1    2  504  503 -0.15851233528E+03  0.19763668049E+03  0.55397350996E+03  0.60915767060E+03  0.00000000000E+00 0. -1.
<mgrwt>
<rscale>  4 0.28749614E+03</rscale>
<asrwt>0</asrwt>
<pdfrwt beam="1">  1       21 0.10732102E+00 0.28749614E+03</pdfrwt>
<pdfrwt beam="2">  1       21 0.84266848E-01 0.28749614E+03</pdfrwt>
<totfact> 0.78087912E+02</totfact>
</mgrwt>
</event>
<event>
 5    0  0.1861957E+000  0.2649450E+03  0.7546771E-02  0.1104208E+00
         21   -1    0    0  504  501  0.00000000000E+00  0.00000000000E+00  0.84765435679E+02  0.84765435679E+02  0.00000000000E+00 0.  1.
         21   -1    0    0  503  502 -0.00000000000E+00 -0.00000000000E+00 -0.92872403167E+03  0.92872403167E+03  0.00000000000E+00 0.  1.
         25    1    1    2    0    0 -0.57666645200E+02  0.21111578593E+03 -0.35117345437E+03  0.43225352756E+03  0.12500000000E+03 0.  0.
         21    1    1    2  503  501  0.66053473744E+02 -0.23790824128E+03 -0.31002371321E+03  0.39633079040E+03  0.00000000000E+00 0.  1.
         21    1    1    2  504  502 -0.83868285436E+01  0.26792455351E+02 -0.18276142841E+03  0.18490514939E+03  0.00000000000E+00 0.  1.
<mgrwt>
<rscale>  4 0.26494503E+03</rscale>
<asrwt>0</asrwt>
<pdfrwt beam="1">  1       21 0.13040837E-01 0.26494503E+03</pdfrwt>
<pdfrwt beam="2">  1       21 0.14288062E+00 0.26494503E+03</pdfrwt>
<totfact> 0.16423825E+04</totfact>
</mgrwt>
</event>
<event>
 5    0  0.1861957E+000  0.2692847E+03  0.7546771E-02  0.1101690E+00
         21   -1    0    0  503  501  0.00000000000E+00  0.00000000000E+00  0.10480857156E+04  0.10480857156E+04  0.00000000000E+00 0. -1.
         21   -1    0    0  504  502 -0.00000000000E+00 -0.00000000000E+00 -0.22169919103E+03  0.22169919103E+03  0.00000000000E+00 0. -1.
         25    1    1    2    0    0 -0.86355202432E+02  0.23739192473E+03  0.60602454016E+03  0.66835835462E+03  0.12500000000E+03 0.  0.
         21    1    1    2  503  502  0.27304266927E+03 -0.84273087141E+02  0.21892130352E+03  0.35997331789E+03  0.00000000000E+00 0. -1.
         21    1    1    2  504  501 -0.18668746684E+03 -0.15311883759E+03  0.14406808654E+01  0.24145323410E+03  0.00000000000E+00 0. -1.
<mgrwt>
<rscale>  4 0.26928468E+03</rscale>
<asrwt>0</asrwt>
<pdfrwt beam="1">  1       21 0.16124395E+00 0.26928468E+03</pdfrwt>
<pdfrwt beam="2">  1       21 0.34107568E-01 0.26928468E+03</pdfrwt>
<totfact> 0.19144655E+03</totfact>
</mgrwt>
</event>
<event>
 5    0  0.1861957E+000  0.2430901E+03  0.7546771E-02  0.1117751E+00
         21   -1    0    0  504  501  0.00000000000E+00  0.00000000000E+00  0.14909702486E+03  0.14909702486E+03  0.00000000000E+00 0. -1.
         21   -1    0    0  501  502 -0.00000000000E+00 -0.00000000000E+00 -0.24811896327E+04  0.24811896327E+04  0.00000000000E+00 0. -1.
         25    1    1    2    0    0  0.19936725944E+03 -0.71742409767E+02  0.10460440974E+02  0.24622895509E+03  0.12500000000E+03 0.  0.
         21    1    1    2  503  502 -0.13058498489E+03  0.16390319519E+03 -0.21469562248E+04  0.21571596434E+04  0.00000000000E+00 0. -1.
         21    1    1    2  504  503 -0.68782274550E+02 -0.92160785425E+02 -0.19559682393E+03  0.22689805903E+03  0.00000000000E+00 0. -1.
<mgrwt>
<rscale>  4 0.24309014E+03</rscale>
<asrwt>0</asrwt>
<pdfrwt beam="1">  1       21 0.22938008E-01 0.24309014E+03</pdfrwt>
<pdfrwt beam="2">  1       21 0.38172142E+00 0.24309014E+03</pdfrwt>
<totfact> 0.18641800E+02</totfact>
</mgrwt>
</event>
<event>
 5    0  0.1861957E+000  0.2335556E+03  0.7546771E-02  0.1124162E+00
         21   -1    0    0  504  501  0.00000000000E+00  0.00000000000E+00  0.23314465222E+03  0.23314465222E+03  0.00000000000E+00 0.  1.
         21   -1    0    0  501  502 -0.00000000000E+00 -0.00000000000E+00 -0.47888689626E+03  0.47888689626E+03  0.00000000000E+00 0.  1.
         25    1    1    2    0    0  0.59482112457E+02  0.19986514313E+03  0.10943605231E+03  0.26661854153E+03  0.12500000000E+03 0.  0.
         21    1    1    2  503  502 -0.29416052854E+01 -0.36446755411E+02 -0.22760608101E+03  0.23052450441E+03  0.00000000000E+00 0. -1.
         21    1    1    2  504  503 -0.56540507171E+02 -0.16341838772E+03 -0.12757221533E+03  0.21488850253E+03  0.00000000000E+00 0.  1.
<mgrwt>
<rscale>  4 0.23355559E+03</rscale>
<asrwt>0</asrwt>
<pdfrwt beam="1">  1       21 0.35868408E-01 0.23355559E+03</pdfrwt>
<pdfrwt beam="2">  1       21 0.73674907E-01 0.23355559E+03</pdfrwt>
<totfact> 0.12085042E+04</totfact>
</mgrwt>
</event>
<event>
 5    0  0.1861957E+000  0.2426819E+03  0.7546771E-02  0.1118019E+00
         21   -1    0    0  504  501  0.00000000000E+00  0.00000000000E+00  0.31863853353E+03  0.31863853353E+03  0.00000000000E+00 0. -1.
         21   -1    0    0  501  502 -0.00000000000E+00 -0.00000000000E+00 -0.18921163859E+03  0.18921163859E+03  0.00000000000E+00 0. -1.
         25    1    1    2    0    0  0.11373069109E+03 -0.18718855963E+03  0.49453102242E+02  0.25699189924E+03  0.12500000000E+03 0.  0.
         21    1    1    2  503  502  0.49783383048E+01  0.24386313964E+02 -0.13976785503E+02  0.28545169364E+02  0.00000000000E+00 0.  1.
         21    1    1    2  504  503 -0.11870902940E+03  0.16280224566E+03  0.93950578198E+02  0.22231310352E+03  0.00000000000E+00 0. -1.
<mgrwt>
<rscale>  4 0.24268195E+03</rscale>
<asrwt>0</asrwt>
<pdfrwt beam="1">  1       21 0.49021313E-01 0.24268195E+03</pdfrwt>
<pdfrwt beam="2">  1       21 0.29109483E-01 0.24268195E+03</pdfrwt>
<totfact> 0.43831006E+04</totfact>
</mgrwt>
</event>
<event>
 5    0  0.1861957E+000  0.2541973E+03  0.7546771E-02  0.1110681E+00
         21   -1    0    0  503  501  0.00000000000E+00  0.00000000000E+00  0.67519065527E+03  0.67519065527E+03  0.00000000000E+00 0. -1.
         21   -1    0    0  504  502 -0.00000000000E+00 -0.00000000000E+00 -0.11325190362E+03  0.11325190362E+03  0.00000000000E+00 0. -1.
         25    1    1    2    0    0  0.22019485529E+03 -0.37606008302E+02  0.34321585025E+03  0.42816130841E+03  0.12500000000E+03 0.  0.
         21    1    1    2  503  502 -0.21994566633E+03  0.95866657559E+01  0.23956421717E+03  0.32535982303E+03  0.00000000000E+00 0. -1.
         21    1    1    2  504  501 -0.24918896266E+00  0.28019342546E+02 -0.20841315771E+02  0.34921427447E+02  0.00000000000E+00 0. -1.
<mgrwt>
<rscale>  4 0.25419732E+03</rscale>
<asrwt>0</asrwt>
<pdfrwt beam="1">  1       21 0.10387548E+00 0.25419732E+03</pdfrwt>
<pdfrwt beam="2">  1       21 0.17423370E-01 0.25419732E+03</pdfrwt>
<totfact> 0.21604810E+04</totfact>
</mgrwt>
</event>
<event>
 5    0  0.1861957E+000  0.3240631E+03  0.7546771E-02  0.1073794E+00
         21   -1    0    0  503  501  0.00000000000E+00  0.00000000000E+00  0.22336683177E+03  0.22336683177E+03  0.00000000000E+00 0. -1.
         21   -1    0    0  504  502 -0.00000000000E+00 -0.00000000000E+00 -0.61660203971E+03  0.61660203971E+03  0.00000000000E+00 0. -1.
         25    1    1    2    0    0  0.26596870796E+03  0.16220958417E+03 -0.69759162506E+02  0.34284492641E+03  0.12500000000E+03 0.  0.
         21    1    1    2  503  502  0.61661949193E+01 -0.70669814315E+02 -0.13841027447E+03  0.15553021795E+03  0.00000000000E+00 0. -1.
         21    1    1    2  504  501 -0.27213490288E+03 -0.91539769855E+02 -0.18506577096E+03  0.34159372713E+03  0.00000000000E+00 0. -1.
<mgrwt>
<rscale>  4 0.32406315E+03</rscale>
<asrwt>0</asrwt>
<pdfrwt beam="1">  1       21 0.34364129E-01 0.32406315E+03</pdfrwt>
<pdfrwt beam="2">  1       21 0.94861850E-01 0.32406315E+03</pdfrwt>
<totfact> 0.70279325E+03</totfact>
</mgrwt>
</event>
<event>
 5    0  0.1861957E+000  0.5127905E+03  0.7546771E-02  0.1010493E+00
         21   -1    0    0  503  501  0.00000000000E+00  0.00000000000E+00  0.16427765570E+04  0.16427765570E+04  0.00000000000E+00 0.  1.
         21   -1    0    0  504  502 -0.00000000000E+00 -0.00000000000E+00 -0.18626386778E+03  0.18626386778E+03  0.00000000000E+00 0.  1.
         25    1    1    2    0    0  0.46201889636E+03 -0.19161961311E+03  0.83321863461E+03  0.97982540781E+03  0.12500000000E+03 0.  0.
         21    1    1    2  503  502 -0.46457224395E+03  0.16891882016E+03  0.64835377028E+03  0.81530580097E+03  0.00000000000E+00 0.  1.
         21    1    1    2  504  501  0.25533475983E+01  0.22700792959E+02 -0.25059715632E+02  0.33909216041E+02  0.00000000000E+00 0.  1.
<mgrwt>
<rscale>  4 0.51279050E+03</rscale>
<asrwt>0</asrwt>
<pdfrwt beam="1">  1       21 0.25273485E+00 0.51279050E+03</pdfrwt>
<pdfrwt beam="2">  1       21 0.28655981E-01 0.51279050E+03</pdfrwt>
<totfact> 0.58846847E+02</totfact>
</mgrwt>
</event>
<event>
 5    0  0.1861957E+000  0.3230746E+03  0.7546771E-02  0.1074904E+00
         21   -1    0    0  504  501  0.00000000000E+00  0.00000000000E+00  0.10396714902E+04  0.10396714902E+04  0.00000000000E+00 0.  1.
         21   -1    0    0  501  502 -0.00000000000E+00 -0.00000000000E+00 -0.31275930413E+03  0.31275930413E+03  0.00000000000E+00 0. -1.
         25    1    1    2    0    0 -0.26904596091E+03 -0.11260078417E+03  0.92196377000E+03  0.97504197800E+03  0.12500000000E+03 0.  0.
         21    1    1    2  503  502  0.94362829627E+02 -0.28443374686E+02 -0.60065151711E+02  0.11541746674E+03  0.00000000000E+00 0. -1.
         21    1    1    2  504  503  0.17468313128E+03  0.14104415885E+03 -0.13498643224E+03  0.26197134956E+03  0.00000000000E+00 0. -1.
<mgrwt>
<rscale>  4 0.32162532E+03</rscale>
<asrwt>0</asrwt>
<pdfrwt beam="1">  1       21 0.15994946E+00 0.32307460E+03</pdfrwt>
<pdfrwt beam="2">  1       21 0.48116816E-01 0.32307460E+03</pdfrwt>
<totfact> 0.93420662E+02</totfact>
</mgrwt>
</event>
<event>
 5    0  0.1861957E+000  0.2427057E+03  0.7546771E-02  0.1118003E+00
         21   -1    0    0  502  501  0.00000000000E+00  0.00000000000E+00  0.10850986838E+04  0.10850986838E+04  0.00000000000E+00 0.  1.
         21   -1    0    0  503  502 -0.00000000000E+00 -0.00000000000E+00 -0.53876197713E+02  0.53876197713E+02  0.00000000000E+00 0.  1.
         25    1    1    2    0    0 -0.12166074677E+03 -0.16875934873E+03  0.73168370187E+03  0.77088721268E+03  0.12500000000E+03 0.  0.
         21    1    1    2  503  504  0.10825153204E+03  0.15204777847E+03  0.28943809712E+03  0.34439996107E+03  0.00000000000E+00 0.  1.
         21    1    1    2  504  501  0.13409214735E+02  0.16711570260E+02  0.10100687146E+02  0.23687707808E+02  0.00000000000E+00 0. -1.
<mgrwt>
<rscale>  4 0.24270570E+03</rscale>
<asrwt>0</asrwt>
<pdfrwt beam="1">  1       21 0.16693824E+00 0.24270570E+03</pdfrwt>
<pdfrwt beam="2">  1       21 0.82886466E-02 0.24270570E+03</pdfrwt>
<totfact> 0.24525540E+04</totfact>
</mgrwt>
</event>
<event>
 5    0  0.1861957E+000  0.3615810E+03  0.7546771E-02  0.1057960E+00
         21   -1    0    0  504  501  0.00000000000E+00  0.00000000000E+00  0.56994483337E+03  0.56994483337E+03  0.00000000000E+00 0. -1.
         21   -1    0    0  503  502 -0.00000000000E+00 -0.00000000000E+00 -0.43541358865E+03  0.43541358865E+03  0.00000000000E+00 0. -1.
         25    1    1    2    0    0 -0.26678294112E+03  0.21426199137E+03  0.32788180142E+03  0.49011510314E+03  0.12500000000E+03 0.  0.
         21    1    1    2  503  501  0.18328519943E+03 -0.29015926992E+03 -0.20822952882E+03  0.40142920039E+03  0.00000000000E+00 0. -1.
         21    1    1    2  504  502  0.83497741692E+02  0.75897278553E+02  0.14878972117E+02  0.11381411850E+03  0.00000000000E+00 0. -1.
<mgrwt>
<rscale>  4 0.36158101E+03</rscale>
<asrwt>0</asrwt>
<pdfrwt beam="1">  1       21 0.87683820E-01 0.36158101E+03</pdfrwt>
<pdfrwt beam="2">  1       21 0.66986706E-01 0.36158101E+03</pdfrwt>
<totfact> 0.20396798E+03</totfact>
</mgrwt>
</event>
<event>
 5    0  0.1861957E+000  0.5979169E+03  0.7546771E-02  0.9909737E-01
         21   -1    0    0  504  501  0.00000000000E+00  0.00000000000E+00  0.17193610280E+03  0.17193610280E+03  0.00000000000E+00 0. -1.
         21   -1    0    0  503  502 -0.00000000000E+00 -0.00000000000E+00 -0.21419643129E+04  0.21419643129E+04  0.00000000000E+00 0. -1.
         25    1    1    2    0    0  0.52384328905E+03 -0.24721227129E+03 -0.95320560736E+03  0.11223865771E+04  0.12500000000E+03 0.  0.
         21    1    1    2  503  501 -0.54184154985E+03  0.23395552621E+03 -0.92686363352E+03  0.10988192065E+04  0.00000000000E+00 0. -1.
         21    1    1    2  504  502  0.17998260803E+02  0.13256745075E+02 -0.89958969192E+02  0.92694632099E+02  0.00000000000E+00 0. -1.
<mgrwt>
<rscale>  4 0.59791686E+03</rscale>
<asrwt>0</asrwt>
<pdfrwt beam="1">  1       21 0.26451706E-01 0.59791686E+03</pdfrwt>
<pdfrwt beam="2">  1       21 0.32953299E+00 0.59791686E+03</pdfrwt>
<totfact> 0.22552130E+02</totfact>
</mgrwt>
</event>
<event>
 5    0  0.1861957E+000  0.2173383E+03  0.7546771E-02  0.1135883E+00
         21   -1    0    0  503  501  0.00000000000E+00  0.00000000000E+00  0.72366594280E+02  0.72366594280E+02  0.00000000000E+00 0.  1.
         21   -1    0    0  504  502 -0.00000000000E+00 -0.00000000000E+00 -0.90507856725E+03  0.90507856725E+03  0.00000000000E+00 0. -1.
         25    1    1    2    0    0 -0.13724028296E+03  0.14782705504E+03 -0.44665012604E+03  0.50577570974E+03  0.12500000000E+03 0.  0.
         21    1    1    2  503  502  0.11393568945E+03 -0.12507945842E+03 -0.12954023219E+03  0.21308891103E+03  0.00000000000E+00 0.  1.
         21    1    1    2  504  501  0.23304593506E+02 -0.22747596622E+02 -0.25652161474E+03  0.25858054076E+03  0.00000000000E+00 0. -1.
<mgrwt>
<rscale>  4 0.21733831E+03</rscale>
<asrwt>0</asrwt>
<pdfrwt beam="1">  1       21 0.11133322E-01 0.21733831E+03</pdfrwt>
<pdfrwt beam="2">  1       21 0.13924286E+00 0.21733831E+03</pdfrwt>
<totfact> 0.23970790E+04</totfact>
</mgrwt>
</event>
<event>
 5    0  0.1861957E+000  0.2609670E+03  0.7546771E-02  0.1106564E+00
         21   -1    0    0  502  501  0.00000000000E+00  0.00000000000E+00  0.15388018376E+03  0.15388018376E+03  0.00000000000E+00 0. -1.
         21   -1    0    0  503  502 -0.00000000000E+00 -0.00000000000E+00 -0.96662075017E+03  0.96662075017E+03  0.00000000000E+00 0. -1.
         25    1    1    2    0    0 -0.13314963866E+03 -0.19107972251E+03  0.71809943342E+01  0.26441795194E+03  0.12500000000E+03 0.  0.
         21    1    1    2  503  504  0.11400889419E+03  0.17092036588E+03 -0.78503669654E+03  0.81147668749E+03  0.00000000000E+00 0. -1.
         21    1    1    2  504  501  0.19140744469E+02  0.20159356628E+02 -0.34884864194E+02  0.44606294492E+02  0.00000000000E+00 0. -1.
<mgrwt>
<rscale>  4 0.26096703E+03</rscale>
<asrwt>0</asrwt>
<pdfrwt beam="1">  1       21 0.23673875E-01 0.26096703E+03</pdfrwt>
<pdfrwt beam="2">  1       21 0.14871088E+00 0.26096703E+03</pdfrwt>
<totfact> 0.48843993E+03</totfact>
</mgrwt>
</event>
<event>
 5    0  0.1861957E+000  0.1780136E+03  0.7546771E-02  0.1169739E+00
         21   -1    0    0  503  501  0.00000000000E+00  0.00000000000E+00  0.58046325159E+02  0.58046325159E+02  0.00000000000E+00 0.  1.
         21   -1    0    0  504  502 -0.00000000000E+00 -0.00000000000E+00 -0.17458028739E+04  0.17458028739E+04  0.00000000000E+00 0.  1.
         25    1    1    2    0    0 -0.39633329859E+02  0.21902483674E+03 -0.40655865997E+03  0.48006002119E+03  0.12500000000E+03 0.  0.
         21    1    1    2  503  502  0.19916538420E+02 -0.10189358279E+03 -0.12948679980E+03  0.16596928040E+03  0.00000000000E+00 0.  1.
         21    1    1    2  504  501  0.19716791439E+02 -0.11713125395E+03 -0.11517110890E+04  0.11578198975E+04  0.00000000000E+00 0.  1.
<mgrwt>
<rscale>  4 0.17801361E+03</rscale>
<asrwt>0</asrwt>
<pdfrwt beam="1">  1       21 0.89302035E-02 0.17801361E+03</pdfrwt>
<pdfrwt beam="2">  1       21 0.26858507E+00 0.17801361E+03</pdfrwt>
<totfact> 0.52143208E+03</totfact>
</mgrwt>
</event>
<event>
 5    0  0.1861957E+000  0.3244226E+03  0.7546771E-02  0.1073632E+00
         21   -1    0    0  503  501  0.00000000000E+00  0.00000000000E+00  0.19533116506E+03  0.19533116506E+03  0.00000000000E+00 0. -1.
         21   -1    0    0  504  502 -0.00000000000E+00 -0.00000000000E+00 -0.15189941998E+04  0.15189941998E+04  0.00000000000E+00 0. -1.
         25    1    1    2    0    0  0.13469685804E+03  0.26703419300E+03 -0.82285266342E+02  0.33443440142E+03  0.12500000000E+03 0.  0.
         21    1    1    2  503  502  0.76594777468E+02 -0.35687152531E+03 -0.86727426283E+03  0.94095095115E+03  0.00000000000E+00 0. -1.
         21    1    1    2  504  501 -0.21129163550E+03  0.89837332316E+02 -0.37410350554E+03  0.43894001227E+03  0.00000000000E+00 0. -1.
<mgrwt>
<rscale>  4 0.32442261E+03</rscale>
<asrwt>0</asrwt>
<pdfrwt beam="1">  1       21 0.30050948E-01 0.32442261E+03</pdfrwt>
<pdfrwt beam="2">  1       21 0.23369142E+00 0.32442261E+03</pdfrwt>
<totfact> 0.78049045E+02</totfact>
</mgrwt>
</event>
<event>
 5    0  0.1861957E+000  0.3232553E+03  0.7546771E-02  0.1074161E+00
         21   -1    0    0  503  501  0.00000000000E+00  0.00000000000E+00  0.51218322049E+03  0.51218322049E+03  0.00000000000E+00 0. -1.
         21   -1    0    0  504  502 -0.00000000000E+00 -0.00000000000E+00 -0.23914370083E+03  0.23914370083E+03  0.00000000000E+00 0. -1.
         25    1    1    2    0    0  0.12026071748E+03 -0.25031075333E+03  0.27061778900E+03  0.40740287324E+03  0.12500000000E+03 0.  0.
         21    1    1    2  503  502  0.13064360859E+02 -0.25971012628E+02  0.22109509094E+02  0.36523984092E+02  0.00000000000E+00 0. -1.
         21    1    1    2  504  501 -0.13332507834E+03  0.27628176596E+03 -0.19687778441E+02  0.30740006398E+03  0.00000000000E+00 0. -1.
<mgrwt>
<rscale>  4 0.32325533E+03</rscale>
<asrwt>0</asrwt>
<pdfrwt beam="1">  1       21 0.78797419E-01 0.32325533E+03</pdfrwt>
<pdfrwt beam="2">  1       21 0.36791339E-01 0.32325533E+03</pdfrwt>
<totfact> 0.94399361E+03</totfact>
</mgrwt>
</event>
<event>
 5    0  0.1861957E+000  0.4863136E+03  0.7546771E-02  0.1017414E+00
         21   -1    0    0  504  501  0.00000000000E+00  0.00000000000E+00  0.27988253158E+03  0.27988253158E+03  0.00000000000E+00 0.  1.
         21   -1    0    0  503  502 -0.00000000000E+00 -0.00000000000E+00 -0.12999285544E+04  0.12999285544E+04  0.00000000000E+00 0.  1.
         25    1    1    2    0    0  0.34191526359E+03 -0.33133548807E+03 -0.12083889494E+03  0.50686910703E+03  0.12500000000E+03 0.  0.
         21    1    1    2  503  501 -0.34251743298E+03  0.30458114849E+03 -0.52154175229E+03  0.69432965318E+03  0.00000000000E+00 0.  1.
         21    1    1    2  504  502  0.60216938162E+00  0.26754339580E+02 -0.37766537559E+03  0.37861232576E+03  0.00000000000E+00 0. -1.
<mgrwt>
<rscale>  4 0.48631363E+03</rscale>
<asrwt>0</asrwt>
<pdfrwt beam="1">  1       21 0.43058851E-01 0.48631363E+03</pdfrwt>
<pdfrwt beam="2">  1       21 0.19998901E+00 0.48631363E+03</pdfrwt>
<totfact> 0.56529421E+02</totfact>
</mgrwt>
</event>
<event>
 5    0  0.1861957E+000  0.5075953E+03  0.7546771E-02  0.1011815E+00
         21   -1    0    0  503  501  0.00000000000E+00  0.00000000000E+00  0.67833035441E+03  0.67833035441E+03  0.00000000000E+00 0. -1.
         21   -1    0    0  504  502 -0.00000000000E+00 -0.00000000000E+00 -0.13702684544E+04  0.13702684544E+04  0.00000000000E+00 0. -1.
         25    1    1    2    0    0 -0.28727728653E+03 -0.39933693890E+03  0.52155251190E+03  0.72776387160E+03  0.12500000000E+03 0.  0.
         21    1    1    2  503  502  0.22925178410E+02 -0.16883150076E+02 -0.62819003906E+02  0.68969789135E+02  0.00000000000E+00 0.  1.
         21    1    1    2  504  501  0.26435210812E+03  0.41622008898E+03 -0.11506716080E+04  0.12518651481E+04  0.00000000000E+00 0. -1.
<mgrwt>
<rscale>  4 0.50759530E+03</rscale>
<asrwt>0</asrwt>
<pdfrwt beam="1">  1       21 0.10435852E+00 0.50759530E+03</pdfrwt>
<pdfrwt beam="2">  1       21 0.21081053E+00 0.50759530E+03</pdfrwt>
<totfact> 0.64732483E+01</totfact>
</mgrwt>
</event>
<event>
 5    0  0.1861957E+000  0.2332252E+03  0.7546771E-02  0.1124390E+00
         21   -1    0    0  504  501  0.00000000000E+00  0.00000000000E+00  0.11812384148E+04  0.11812384148E+04  0.00000000000E+00 0. -1.
         21   -1    0    0  503  502 -0.00000000000E+00 -0.00000000000E+00 -0.12909777859E+03  0.12909777859E+03  0.00000000000E+00 0. -1.
         25    1    1    2    0    0  0.54529010786E+02 -0.19417174395E+03  0.78949363684E+03  0.82437933124E+03  0.12500000000E+03 0.  0.
         21    1    1    2  503  501 -0.16634960355E+03 -0.68446777375E+01  0.17008099732E+03  0.23800543242E+03  0.00000000000E+00 0. -1.
         21    1    1    2  504  502  0.11182059276E+03  0.20101642168E+03  0.92566002011E+02  0.24795142968E+03  0.00000000000E+00 0. -1.
<mgrwt>
<rscale>  4 0.23322521E+03</rscale>
<asrwt>0</asrwt>
<pdfrwt beam="1">  1       21 0.18172898E+00 0.23322521E+03</pdfrwt>
<pdfrwt beam="2">  1       21 0.19861198E-01 0.23322521E+03</pdfrwt>
<totfact> 0.39999734E+03</totfact>
</mgrwt>
</event>
<event>
 5    0  0.1861957E+000  0.2728025E+03  0.7546771E-02  0.1099686E+00
         21   -1    0    0  504  501  0.00000000000E+00  0.00000000000E+00  0.87558333743E+02  0.87558333743E+02  0.00000000000E+00 0. -1.
         21   -1    0    0  503  502 -0.00000000000E+00 -0.00000000000E+00 -0.89797249283E+03  0.89797249283E+03  0.00000000000E+00 0. -1.
         25    1    1    2    0    0 -0.17087861258E+03  0.14047764864E+03 -0.45535197195E+03  0.52144404145E+03  0.12500000000E+03 0.  0.
         21    1    1    2  503  501  0.20254654055E+03 -0.15764609139E+03 -0.27430760812E+03  0.37566215552E+03  0.00000000000E+00 0. -1.
         21    1    1    2  504  502 -0.31667927972E+02  0.17168442747E+02 -0.80754579021E+02  0.88424629608E+02  0.00000000000E+00 0. -1.
<mgrwt>
<rscale>  4 0.27280247E+03</rscale>
<asrwt>0</asrwt>
<pdfrwt beam="1">  1       21 0.13470513E-01 0.27280247E+03</pdfrwt>
<pdfrwt beam="2">  1       21 0.13814961E+00 0.27280247E+03</pdfrwt>
<totfact> 0.16844023E+04</totfact>
</mgrwt>
</event>
<event>
 5    0  0.1861957E+000  0.5789318E+03  0.7546771E-02  0.9950106E-01
         21   -1    0    0  503  501  0.00000000000E+00  0.00000000000E+00  0.11415919071E+04  0.11415919071E+04  0.00000000000E+00 0. -1.
         21   -1    0    0  504  502 -0.00000000000E+00 -0.00000000000E+00 -0.67845543812E+03  0.67845543812E+03  0.00000000000E+00 0. -1.
         25    1    1    2    0    0  0.17720447814E+03 -0.57776369244E+03 -0.12781568771E+01  0.61712149943E+03  0.12500000000E+03 0.  0.
         21    1    1    2  503  502 -0.21184335631E+03  0.51209724597E+03  0.73603562690E+03  0.92134121855E+03  0.00000000000E+00 0. -1.
         21    1    1    2  504  501  0.34638878169E+02  0.65666446476E+02 -0.27162100106E+03  0.28158462722E+03  0.00000000000E+00 0. -1.
<mgrwt>
<rscale>  4 0.57893185E+03</rscale>
<asrwt>0</asrwt>
<pdfrwt beam="1">  1       21 0.17562952E+00 0.57893185E+03</pdfrwt>
<pdfrwt beam="2">  1       21 0.10437776E+00 0.57893185E+03</pdfrwt>
<totfact> 0.10895109E+02</totfact>
</mgrwt>
</event>
<event>
 5    0  0.1861957E+000  0.2451166E+03  0.7546771E-02  0.1116431E+00
         21   -1    0    0  503  501  0.00000000000E+00  0.00000000000E+00  0.41899959563E+03  0.41899959563E+03  0.00000000000E+00 0.  1.
         21   -1    0    0  504  502 -0.00000000000E+00 -0.00000000000E+00 -0.36254483575E+03  0.36254483575E+03  0.00000000000E+00 0. -1.
         25    1    1    2    0    0  0.21174448859E+03 -0.25040962628E+02  0.33645866291E+03  0.41748318541E+03  0.12500000000E+03 0.  0.
         21    1    1    2  503  502 -0.18244377790E+02 -0.13470468414E+02 -0.79877781213E+02  0.83034756408E+02  0.00000000000E+00 0. -1.
         21    1    1    2  504  501 -0.19350011080E+03  0.38511431041E+02 -0.20012612182E+03  0.28102648956E+03  0.00000000000E+00 0. -1.
<mgrwt>
<rscale>  4 0.24511657E+03</rscale>
<asrwt>0</asrwt>
<pdfrwt beam="1">  1       21 0.64461476E-01 0.24511657E+03</pdfrwt>
<pdfrwt beam="2">  1       21 0.55776129E-01 0.24511657E+03</pdfrwt>
<totfact> 0.64845550E+03</totfact>
</mgrwt>
</event>
<event>
 5    0  0.1861957E+000  0.2771168E+03  0.7546771E-02  0.1097274E+00
         21   -1    0    0  504  501  0.00000000000E+00  0.00000000000E+00  0.57267591665E+03  0.57267591665E+03  0.00000000000E+00 0. -1.
         21   -1    0    0  501  502 -0.00000000000E+00 -0.00000000000E+00 -0.34749783941E+03  0.34749783941E+03  0.00000000000E+00 0.  1.
         25    1    1    2    0    0  0.75466916373E+02 -0.23761741488E+03  0.44540583437E+03  0.52551750552E+03  0.12500000000E+03 0.  0.
         21    1    1    2  503  502 -0.13376887242E+03  0.20535107374E+03 -0.11647384563E+03  0.27134725248E+03  0.00000000000E+00 0. -1.
         21    1    1    2  504  503  0.58301956044E+02  0.32266341140E+02 -0.10375391150E+03  0.12330899805E+03  0.00000000000E+00 0.  1.
<mgrwt>
<rscale>  4 0.27711682E+03</rscale>
<asrwt>0</asrwt>
<pdfrwt beam="1">  1       21 0.88103987E-01 0.27711682E+03</pdfrwt>
<pdfrwt beam="2">  1       21 0.53461206E-01 0.27711682E+03</pdfrwt>
<totfact> 0.34426151E+03</totfact>
</mgrwt>
</event>
<event>
 5    0  0.1861957E+000  0.2951424E+03  0.7546771E-02  0.1087694E+00
         21   -1    0    0  504  501  0.00000000000E+00  0.00000000000E+00  0.76529625653E+03  0.76529625653E+03  0.00000000000E+00 0.  1.
         21   -1    0    0  503  502 -0.00000000000E+00 -0.00000000000E+00 -0.18113629707E+03  0.18113629707E+03  0.00000000000E+00 0.  1.
         25    1    1    2    0    0 -0.10146121665E+03 -0.25967773676E+03  0.51632414565E+03  0.59995210545E+03  0.12500000000E+03 0.  0.
         21    1    1    2  503  501  0.48561848996E+02  0.26105933599E+03  0.66980819091E+01  0.26562208942E+03  0.00000000000E+00 0.  1.
         21    1    1    2  504  502  0.52899367658E+02 -0.13815992306E+01  0.61137731896E+02  0.80858358729E+02  0.00000000000E+00 0.  1.
<mgrwt>
<rscale>  4 0.29514241E+03</rscale>
<asrwt>0</asrwt>
<pdfrwt beam="1">  1       21 0.11773788E+00 0.29514241E+03</pdfrwt>
<pdfrwt beam="2">  1       21 0.27867123E-01 0.29514241E+03</pdfrwt>
<totfact> 0.63761162E+03</totfact>
</mgrwt>
</event>
<event>
 5    0  0.1861957E+000  0.2622947E+03  0.7546771E-02  0.1105772E+00
         21   -1    0    0  504  501  0.00000000000E+00  0.00000000000E+00  0.21596252526E+04  0.21596252526E+04  0.00000000000E+00 0.  1.
         21   -1    0    0  501  502 -0.00000000000E+00 -0.00000000000E+00 -0.13885596064E+03  0.13885596064E+03  0.00000000000E+00 0. -1.
         25    1    1    2    0    0  0.23027488218E+03  0.16469155829E+02  0.20160653563E+04  0.20330868834E+04  0.12500000000E+03 0.  0.
         21    1    1    2  503  502 -0.63400149835E+01  0.34053074085E+02 -0.77455460247E+01  0.35493677294E+02  0.00000000000E+00 0.  1.
         21    1    1    2  504  503 -0.22393486719E+03 -0.50522229915E+02  0.12449481689E+02  0.22990065257E+03  0.00000000000E+00 0. -1.
<mgrwt>
<rscale>  4 0.26229475E+03</rscale>
<asrwt>0</asrwt>
<pdfrwt beam="1">  1       21 0.33225001E+00 0.26229475E+03</pdfrwt>
<pdfrwt beam="2">  1       21 0.21362457E-01 0.26229475E+03</pdfrwt>
<totfact> 0.41396028E+02</totfact>
</mgrwt>
</event>
<event>
 5    0  0.1861957E+000  0.2694095E+03  0.7546771E-02  0.1101618E+00
         21   -1    0    0  504  501  0.00000000000E+00  0.00000000000E+00  0.13954031966E+03  0.13954031966E+03  0.00000000000E+00 0.  1.
         21   -1    0    0  501  502 -0.00000000000E+00 -0.00000000000E+00 -0.52918237853E+03  0.52918237853E+03  0.00000000000E+00 0.  1.
         25    1    1    2    0    0 -0.78030875152E+02  0.21589258917E+03 -0.25183900857E+03  0.36296875041E+03  0.12500000000E+03 0.  0.
         21    1    1    2  503  502  0.89909206232E+01  0.18393398467E+02 -0.35431533231E+02  0.40921232971E+02  0.00000000000E+00 0.  1.
         21    1    1    2  504  503  0.69039954529E+02 -0.23428598764E+03 -0.10237151707E+03  0.26483271481E+03  0.00000000000E+00 0.  1.
<mgrwt>
<rscale>  4 0.26940954E+03</rscale>
<asrwt>0</asrwt>
<pdfrwt beam="1">  1       21 0.21467741E-01 0.26940954E+03</pdfrwt>
<pdfrwt beam="2">  1       21 0.81412676E-01 0.26940954E+03</pdfrwt>
<totfact> 0.25703934E+04</totfact>
</mgrwt>
</event>
<event>
 5    0  0.1861957E+000  0.2863235E+03  0.7546771E-02  0.1092284E+00
         21   -1    0    0  503  501  0.00000000000E+00  0.00000000000E+00  0.44372144508E+03  0.44372144508E+03  0.00000000000E+00 0.  1.
         21   -1    0    0  504  502 -0.00000000000E+00 -0.00000000000E+00 -0.23949387188E+03  0.23949387188E+03  0.00000000000E+00 0.  1.
         25    1    1    2    0    0 -0.20252014938E+03 -0.15919083487E+03  0.27255215229E+03  0.39530470340E+03  0.12500000000E+03 0.  0.
         21    1    1    2  503  502  0.14700560414E+03  0.16815837832E+03 -0.57590805802E+02  0.23066119908E+03  0.00000000000E+00 0.  1.
         21    1    1    2  504  501  0.55514545245E+02 -0.89675434571E+01 -0.10733773286E+02  0.57249414481E+02  0.00000000000E+00 0.  1.
<mgrwt>
<rscale>  4 0.28632348E+03</rscale>
<asrwt>0</asrwt>
<pdfrwt beam="1">  1       21 0.68264838E-01 0.28632348E+03</pdfrwt>
<pdfrwt beam="2">  1       21 0.36845211E-01 0.28632348E+03</pdfrwt>
<totfact> 0.13211125E+04</totfact>
</mgrwt>
</event>
<event>
 5    0  0.1861957E+000  0.1937224E+03  0.7546771E-02  0.1155146E+00
         21   -1    0    0  503  501  0.00000000000E+00  0.00000000000E+00  0.11378547887E+03  0.11378547887E+03  0.00000000000E+00 0.  1.
         21   -1    0    0  504  502 -0.00000000000E+00 -0.00000000000E+00 -0.92602172841E+03  0.92602172841E+03  0.00000000000E+00 0.  1.
         25    1    1    2    0    0  0.19681530819E+03 -0.74429285236E+02 -0.18585562124E+03  0.30731628005E+03  0.12500000000E+03 0.  0.
         21    1    1    2  503  502 -0.68837917827E+02  0.62680125870E+02 -0.59224682685E+03  0.59951960854E+03  0.00000000000E+00 0.  1.
         21    1    1    2  504  501 -0.12797739036E+03  0.11749159366E+02 -0.34133801447E+02  0.13297131868E+03  0.00000000000E+00 0.  1.
<mgrwt>
<rscale>  4 0.19372236E+03</rscale>
<asrwt>0</asrwt>
<pdfrwt beam="1">  1       21 0.17505459E-01 0.19372236E+03</pdfrwt>
<pdfrwt beam="2">  1       21 0.14246488E+00 0.19372236E+03</pdfrwt>
<totfact> 0.10101527E+04</totfact>
</mgrwt>
</event>
<event>
 5    0  0.1861957E+000  0.4140831E+03  0.7546771E-02  0.1039009E+00
         21   -1    0    0  503  501  0.00000000000E+00  0.00000000000E+00  0.27053603334E+03  0.27053603334E+03  0.00000000000E+00 0. -1.
         21   -1    0    0  504  502 -0.00000000000E+00 -0.00000000000E+00 -0.72876807199E+03  0.72876807199E+03  0.00000000000E+00 0. -1.
         25    1    1    2    0    0  0.38237949055E+03 -0.67803958717E+02 -0.10289993447E+03  0.42074320925E+03  0.12500000000E+03 0.  0.
         21    1    1    2  503  502 -0.39455562896E+03  0.87046549512E+02 -0.25982146512E+03  0.48037322976E+03  0.00000000000E+00 0. -1.
         21    1    1    2  504  501  0.12176138408E+02 -0.19242590795E+02 -0.95510639056E+02  0.98187666333E+02  0.00000000000E+00 0. -1.
<mgrwt>
<rscale>  4 0.41408305E+03</rscale>
<asrwt>0</asrwt>
<pdfrwt beam="1">  1       21 0.41620929E-01 0.41408305E+03</pdfrwt>
<pdfrwt beam="2">  1       21 0.11211816E+00 0.41408305E+03</pdfrwt>
<totfact> 0.30503559E+03</totfact>
</mgrwt>
</event>
<event>
 5    0  0.1861957E+000  0.3157754E+03  0.7546771E-02  0.1077610E+00
         21   -1    0    0  503  501  0.00000000000E+00  0.00000000000E+00  0.87721767068E+03  0.87721767068E+03  0.00000000000E+00 0. -1.
         21   -1    0    0  504  502 -0.00000000000E+00 -0.00000000000E+00 -0.25880873991E+03  0.25880873991E+03  0.00000000000E+00 0. -1.
         25    1    1    2    0    0  0.68595121523E+02 -0.29141537143E+03  0.66542976511E+03  0.74030397925E+03  0.12500000000E+03 0.  0.
         21    1    1    2  503  502 -0.12363715665E+03  0.23805137038E+03  0.49175668300E+02  0.27271385700E+03  0.00000000000E+00 0. -1.
         21    1    1    2  504  501  0.55042035129E+02  0.53364001046E+02 -0.96196502639E+02  0.12300857433E+03  0.00000000000E+00 0. -1.
<mgrwt>
<rscale>  4 0.31577537E+03</rscale>
<asrwt>0</asrwt>
<pdfrwt beam="1">  1       21 0.13495656E+00 0.31577537E+03</pdfrwt>
<pdfrwt beam="2">  1       21 0.39816730E-01 0.31577537E+03</pdfrwt>
<totfact> 0.21859206E+03</totfact>
</mgrwt>
</event>
<event>
 5    0  0.1861957E+000  0.2435634E+03  0.7546771E-02  0.1117442E+00
         21   -1    0    0  503  501  0.00000000000E+00  0.00000000000E+00  0.64897122470E+03  0.64897122470E+03  0.00000000000E+00 0.  1.
         21   -1    0    0  504  502 -0.00000000000E+00 -0.00000000000E+00 -0.23735756816E+03  0.23735756816E+03  0.00000000000E+00 0.  1.
         25    1    1    2    0    0 -0.40797586281E+02  0.20034101216E+03  0.52396948050E+03  0.57616836142E+03  0.12500000000E+03 0.  0.
         21    1    1    2  503  502 -0.18737086850E+02  0.35498055932E+02  0.43488735605E+01  0.40374535289E+02  0.00000000000E+00 0. -1.
         21    1    1    2  504  501  0.59534673131E+02 -0.23583906809E+03 -0.11670469752E+03  0.26978589615E+03  0.00000000000E+00 0.  1.
<mgrwt>
<rscale>  4 0.24356336E+03</rscale>
<asrwt>0</asrwt>
<pdfrwt beam="1">  1       21 0.99841726E-01 0.24356336E+03</pdfrwt>
<pdfrwt beam="2">  1       21 0.36516549E-01 0.24356336E+03</pdfrwt>
<totfact> 0.57487685E+03</totfact>
</mgrwt>
</event>
<event>
 5    0  0.1861957E+000  0.2619851E+03  0.7546771E-02  0.1105956E+00
         21   -1    0    0  503  501  0.00000000000E+00  0.00000000000E+00  0.13364379805E+04  0.13364379805E+04  0.00000000000E+00 0.  1.
         21   -1    0    0  504  502 -0.00000000000E+00 -0.00000000000E+00 -0.15658283697E+03  0.15658283697E+03  0.00000000000E+00 0.  1.
         25    1    1    2    0    0  0.15026647230E+03 -0.14939209666E+03  0.62523459715E+03  0.67189382548E+03  0.12500000000E+03 0.  0.
         21    1    1    2  503  502 -0.23983968601E+03  0.99058846073E+02  0.63803429378E+03  0.68878406632E+03  0.00000000000E+00 0.  1.
         21    1    1    2  504  501  0.89573213718E+02  0.50333250584E+02 -0.83413747382E+02  0.13234292570E+03  0.00000000000E+00 0.  1.
<mgrwt>
<rscale>  4 0.26198513E+03</rscale>
<asrwt>0</asrwt>
<pdfrwt beam="1">  1       21 0.20560584E+00 0.26198513E+03</pdfrwt>
<pdfrwt beam="2">  1       21 0.24089668E-01 0.26198513E+03</pdfrwt>
<totfact> 0.18865734E+03</totfact>
</mgrwt>
</event>
<event>
 5    0  0.1861957E+000  0.2699920E+03  0.7546771E-02  0.1101284E+00
         21   -1    0    0  503  501  0.00000000000E+00  0.00000000000E+00  0.39589444196E+02  0.39589444196E+02  0.00000000000E+00 0.  1.
         21   -1    0    0  504  502 -0.00000000000E+00 -0.00000000000E+00 -0.18797877574E+04  0.18797877574E+04  0.00000000000E+00 0.  1.
         25    1    1    2    0    0 -0.19431660026E+03 -0.11131624202E+03 -0.10647646915E+04  0.10952164604E+04  0.12500000000E+03 0.  0.
         21    1    1    2  503  502 -0.19530805124E+02 -0.15927752974E+02 -0.12997741663E+03  0.13239816651E+03  0.00000000000E+00 0.  1.
         21    1    1    2  504  501  0.21384740539E+03  0.12724399500E+03 -0.64545620513E+03  0.69176257473E+03  0.00000000000E+00 0.  1.
<mgrwt>
<rscale>  4 0.26999204E+03</rscale>
<asrwt>0</asrwt>
<pdfrwt beam="1">  1       21 0.60906844E-02 0.26999204E+03</pdfrwt>
<pdfrwt beam="2">  1       21 0.28919808E+00 0.26999204E+03</pdfrwt>
<totfact> 0.70468153E+03</totfact>
</mgrwt>
</event>
<event>
 5    0  0.1861957E+000  0.2637215E+03  0.7546771E-02  0.1104928E+00
         21   -1    0    0  504  501  0.00000000000E+00  0.00000000000E+00  0.11201062308E+04  0.11201062308E+04  0.00000000000E+00 0.  1.
         21   -1    0    0  501  502 -0.00000000000E+00 -0.00000000000E+00 -0.25958778670E+03  0.25958778670E+03  0.00000000000E+00 0.  1.
         25    1    1    2    0    0  0.14787809085E+03  0.15493177183E+03  0.74719948816E+03  0.78727622775E+03  0.12500000000E+03 0.  0.
         21    1    1    2  503  502 -0.25628855536E+03 -0.29971630385E+03  0.36940459389E+02  0.39607863353E+03  0.00000000000E+00 0.  1.
         21    1    1    2  504  503  0.10841046451E+03  0.14478453202E+03  0.76378496566E+02  0.19633915622E+03  0.00000000000E+00 0.  1.
<mgrwt>
<rscale>  4 0.26372155E+03</rscale>
<asrwt>0</asrwt>
<pdfrwt beam="1">  1       21 0.17232403E+00 0.26372155E+03</pdfrwt>
<pdfrwt beam="2">  1       21 0.39936583E-01 0.26372155E+03</pdfrwt>
<totfact> 0.11638319E+03</totfact>
</mgrwt>
</event>
<event>
 5    0  0.1861957E+000  0.2379201E+03  0.7546771E-02  0.1121186E+00
         21   -1    0    0  503  501  0.00000000000E+00  0.00000000000E+00  0.11514316640E+04  0.11514316640E+04  0.00000000000E+00 0.  1.
         21   -1    0    0  504  502 -0.00000000000E+00 -0.00000000000E+00 -0.19324605749E+03  0.19324605749E+03  0.00000000000E+00 0.  1.
         25    1    1    2    0    0 -0.20635837471E+03  0.66404250875E+02  0.85986223552E+03  0.89553412409E+03  0.12500000000E+03 0.  0.
         21    1    1    2  503  502  0.19092919960E+02 -0.10969753867E+03 -0.11631881388E+03  0.16102222221E+03  0.00000000000E+00 0.  1.
         21    1    1    2  504  501  0.18726545475E+03  0.43293287796E+02  0.21464218486E+03  0.28812137518E+03  0.00000000000E+00 0.  1.
<mgrwt>
<rscale>  4 0.23792011E+03</rscale>
<asrwt>0</asrwt>
<pdfrwt beam="1">  1       21 0.17714333E+00 0.23792011E+03</pdfrwt>
<pdfrwt beam="2">  1       21 0.29730163E-01 0.23792011E+03</pdfrwt>
<totfact> 0.19801384E+03</totfact>
</mgrwt>
</event>
<event>
 5    0  0.1861957E+000  0.2437672E+03  0.7546771E-02  0.1117308E+00
         21   -1    0    0  503  501  0.00000000000E+00  0.00000000000E+00  0.23246257897E+03  0.23246257897E+03  0.00000000000E+00 0. -1.
         21   -1    0    0  504  502 -0.00000000000E+00 -0.00000000000E+00 -0.47168618503E+03  0.47168618503E+03  0.00000000000E+00 0. -1.
         25    1    1    2    0    0 -0.19738738791E+03  0.67228364221E+02  0.67617659394E+02  0.25234615457E+03  0.12500000000E+03 0.  0.
         21    1    1    2  503  502  0.20722651438E+03 -0.42736283688E+02 -0.84397707172E+02  0.22779857590E+03  0.00000000000E+00 0. -1.
         21    1    1    2  504  501 -0.98391264705E+01 -0.24492080533E+02 -0.22244355828E+03  0.22400403353E+03  0.00000000000E+00 0.  1.
<mgrwt>
<rscale>  4 0.24376721E+03</rscale>
<asrwt>0</asrwt>
<pdfrwt beam="1">  1       21 0.35763474E-01 0.24376721E+03</pdfrwt>
<pdfrwt beam="2">  1       21 0.72567104E-01 0.24376721E+03</pdfrwt>
<totfact> 0.12503877E+04</totfact>
</mgrwt>
</event>
<event>
 5    0  0.1861957E+000  0.2891797E+03  0.7546771E-02  0.1090778E+00
         21   -1    0    0  504  501  0.00000000000E+00  0.00000000000E+00  0.15501711552E+03  0.15501711552E+03  0.00000000000E+00 0.  1.
         21   -1    0    0  501  502 -0.00000000000E+00 -0.00000000000E+00 -0.16317545147E+04  0.16317545147E+04  0.00000000000E+00 0. -1.
         25    1    1    2    0    0  0.24480841119E+03 -0.89826108804E+02 -0.45218588851E+01  0.28921503283E+03  0.12500000000E+03 0.  0.
         21    1    1    2  503  502 -0.56552045343E+02  0.58542508021E+01 -0.53086327144E+03  0.53389907196E+03  0.00000000000E+00 0. -1.
         21    1    1    2  504  503 -0.18825636584E+03  0.83971858002E+02 -0.94135226883E+03  0.96365752540E+03  0.00000000000E+00 0. -1.
<mgrwt>
<rscale>  4 0.28917968E+03</rscale>
<asrwt>0</asrwt>
<pdfrwt beam="1">  1       21 0.23848786E-01 0.28917968E+03</pdfrwt>
<pdfrwt beam="2">  1       21 0.25103917E+00 0.28917968E+03</pdfrwt>
<totfact> 0.98578731E+02</totfact>
</mgrwt>
</event>
<event>
 5    0  0.1861957E+000  0.2391519E+03  0.7546771E-02  0.1120359E+00
         21   -1    0    0  503  501  0.00000000000E+00  0.00000000000E+00  0.12399432402E+03  0.12399432402E+03  0.00000000000E+00 0. -1.
         21   -1    0    0  504  502 -0.00000000000E+00 -0.00000000000E+00 -0.98438645392E+03  0.98438645392E+03  0.00000000000E+00 0. -1.
         25    1    1    2    0    0 -0.14292757967E+03 -0.14619126287E+03 -0.28357752021E+02  0.24130756405E+03  0.12500000000E+03 0.  0.
         21    1    1    2  503  502  0.29661233370E+02 -0.23027790724E+02 -0.87988786283E+02  0.95666579443E+02  0.00000000000E+00 0. -1.
         21    1    1    2  504  501  0.11326634630E+03  0.16921905360E+03 -0.74404559159E+03  0.77140663445E+03  0.00000000000E+00 0. -1.
<mgrwt>
<rscale>  4 0.23915187E+03</rscale>
<asrwt>0</asrwt>
<pdfrwt beam="1">  1       21 0.19076050E-01 0.23915187E+03</pdfrwt>
<pdfrwt beam="2">  1       21 0.15144407E+00 0.23915187E+03</pdfrwt>
<totfact> 0.70989740E+03</totfact>
</mgrwt>
</event>
<event>
 5    0  0.1861957E+000  0.2829982E+03  0.7546771E-02  0.1094063E+00
         21   -1    0    0  502  501  0.00000000000E+00  0.00000000000E+00  0.68670563121E+03  0.68670563121E+03  0.00000000000E+00 0.  1.
         21   -1    0    0  503  502 -0.00000000000E+00 -0.00000000000E+00 -0.33104516367E+03  0.33104516367E+03  0.00000000000E+00 0.  1.
         25    1    1    2    0    0  0.57106789615E+02  0.26206717409E+03  0.56751025755E+03  0.64002600070E+03  0.12500000000E+03 0.  0.
         21    1    1    2  503  504  0.34717923889E+02 -0.18336234442E+03 -0.16122237944E+03  0.24661658343E+03  0.00000000000E+00 0.  1.
         21    1    1    2  504  501 -0.91824713504E+02 -0.78704829668E+02 -0.50627410569E+02  0.13110821074E+03  0.00000000000E+00 0.  1.
<mgrwt>
<rscale>  4 0.28299818E+03</rscale>
<asrwt>0</asrwt>
<pdfrwt beam="1">  1       21 0.10564702E+00 0.28299818E+03</pdfrwt>
<pdfrwt beam="2">  1       21 0.50930025E-01 0.28299818E+03</pdfrwt>
<totfact> 0.24684575E+03</totfact>
</mgrwt>
</event>
<event>
 5    0  0.1861957E+000  0.2330386E+03  0.7546771E-02  0.1124519E+00
         21   -1    0    0  503  501  0.00000000000E+00  0.00000000000E+00  0.24532994767E+03  0.24532994767E+03  0.00000000000E+00 0.  1.
         21   -1    0    0  504  502 -0.00000000000E+00 -0.00000000000E+00 -0.60235928403E+03  0.60235928403E+03  0.00000000000E+00 0.  1.
         25    1    1    2    0    0 -0.21046057697E+03 -0.21483691202E+02  0.13429880975E+03  0.28002923731E+03  0.12500000000E+03 0.  0.
         21    1    1    2  503  502  0.16050142893E+03 -0.20628474887E+02 -0.15171728098E+03  0.22182059420E+03  0.00000000000E+00 0.  1.
         21    1    1    2  504  501  0.49959148037E+02  0.42112166089E+02 -0.33961086514E+03  0.34583940019E+03  0.00000000000E+00 0.  1.
<mgrwt>
<rscale>  4 0.23303861E+03</rscale>
<asrwt>0</asrwt>
<pdfrwt beam="1">  1       21 0.37743069E-01 0.23303861E+03</pdfrwt>
<pdfrwt beam="2">  1       21 0.92670659E-01 0.23303861E+03</pdfrwt>
<totfact> 0.64579211E+03</totfact>
</mgrwt>
</event>
<event>
 5    0  0.1861957E+000  0.2509079E+03  0.7546771E-02  0.1112732E+00
         21   -1    0    0  504  501  0.00000000000E+00  0.00000000000E+00  0.96500977240E+03  0.96500977240E+03  0.00000000000E+00 0. -1.
         21   -1    0    0  501  502 -0.00000000000E+00 -0.00000000000E+00 -0.13078586108E+03  0.13078586108E+03  0.00000000000E+00 0. -1.
         25    1    1    2    0    0 -0.15696176480E+03 -0.12730696230E+03  0.61367662739E+03  0.65807906916E+03  0.12500000000E+03 0.  0.
         21    1    1    2  503  502 -0.97370118362E+02  0.17993265848E+02  0.37700764558E+02  0.10595303306E+03  0.00000000000E+00 0. -1.
         21    1    1    2  504  503  0.25433188316E+03  0.10931369645E+03  0.18284651937E+03  0.33176353126E+03  0.00000000000E+00 0. -1.
<mgrwt>
<rscale>  4 0.25090785E+03</rscale>
<asrwt>0</asrwt>
<pdfrwt beam="1">  1       21 0.14846304E+00 0.25090785E+03</pdfrwt>
<pdfrwt beam="2">  1       21 0.20120902E-01 0.25090785E+03</pdfrwt>
<totfact> 0.67207557E+03</totfact>
</mgrwt>
</event>
<event>
 5    0  0.1861957E+000  0.3571271E+03  0.7546771E-02  0.1059727E+00
         21   -1    0    0  503  501  0.00000000000E+00  0.00000000000E+00  0.19027193315E+03  0.19027193315E+03  0.00000000000E+00 0.  1.
         21   -1    0    0  504  502 -0.00000000000E+00 -0.00000000000E+00 -0.89021756074E+03  0.89021756074E+03  0.00000000000E+00 0.  1.
         25    1    1    2    0    0 -0.23260996473E+01 -0.33246899471E+03 -0.24618319537E+03  0.43217150400E+03  0.12500000000E+03 0.  0.
         21    1    1    2  503  502 -0.11057694807E+03  0.51693338089E+01 -0.15825911114E+03  0.19313189720E+03  0.00000000000E+00 0.  1.
         21    1    1    2  504  501  0.11290304772E+03  0.32729966091E+03 -0.29550332108E+03  0.45518609269E+03  0.00000000000E+00 0.  1.
<mgrwt>
<rscale>  4 0.35712715E+03</rscale>
<asrwt>0</asrwt>
<pdfrwt beam="1">  1       21 0.29272606E-01 0.35712715E+03</pdfrwt>
<pdfrwt beam="2">  1       21 0.13695655E+00 0.35712715E+03</pdfrwt>
<totfact> 0.38175082E+03</totfact>
</mgrwt>
</event>
<event>
 5    0  0.1861957E+000  0.2821256E+03  0.7546771E-02  0.1094534E+00
         21   -1    0    0  504  501  0.00000000000E+00  0.00000000000E+00  0.90330552997E+03  0.90330552997E+03  0.00000000000E+00 0.  1.
         21   -1    0    0  501  502 -0.00000000000E+00 -0.00000000000E+00 -0.23918695073E+03  0.23918695073E+03  0.00000000000E+00 0.  1.
         25    1    1    2    0    0 -0.31069633944E+02 -0.24484035903E+03  0.59875316424E+03  0.65957749754E+03  0.12500000000E+03 0.  0.
         21    1    1    2  503  502  0.21792811987E+02 -0.21803062789E+02 -0.14180787470E+03  0.14511985918E+03  0.00000000000E+00 0.  1.
         21    1    1    2  504  503  0.92768219567E+01  0.26664342182E+03  0.20717328970E+03  0.33779512399E+03  0.00000000000E+00 0.  1.
<mgrwt>
<rscale>  4 0.28212559E+03</rscale>
<asrwt>0</asrwt>
<pdfrwt beam="1">  1       21 0.13897008E+00 0.28212559E+03</pdfrwt>
<pdfrwt beam="2">  1       21 0.36797993E-01 0.28212559E+03</pdfrwt>
<totfact> 0.24247803E+03</totfact>
</mgrwt>
</event>
<event>
 5    0  0.1861957E+000  0.2402098E+03  0.7546771E-02  0.1119653E+00
         21   -1    0    0  504  501  0.00000000000E+00  0.00000000000E+00  0.40907059777E+03  0.40907059777E+03  0.00000000000E+00 0.  1.
         21   -1    0    0  501  502 -0.00000000000E+00 -0.00000000000E+00 -0.15559473235E+03  0.15559473235E+03  0.00000000000E+00 0.  1.
         25    1    1    2    0    0 -0.16643287818E+03  0.11989925486E+03  0.25933206538E+03  0.35348812482E+03  0.12500000000E+03 0.  0.
         21    1    1    2  503  502  0.16023419733E+02 -0.20767442240E+02  0.14365484820E+02  0.29906584412E+02  0.00000000000E+00 0. -1.
         21    1    1    2  504  503  0.15040945845E+03 -0.99131812620E+02 -0.20221684781E+02  0.18127062089E+03  0.00000000000E+00 0.  1.
<mgrwt>
<rscale>  4 0.24020977E+03</rscale>
<asrwt>0</asrwt>
<pdfrwt beam="1">  1       21 0.62933938E-01 0.24020977E+03</pdfrwt>
<pdfrwt beam="2">  1       21 0.23937651E-01 0.24020977E+03</pdfrwt>
<totfact> 0.37578849E+04</totfact>
</mgrwt>
</event>
<event>
 5    0  0.1861957E+000  0.3103209E+03  0.7546771E-02  0.1080192E+00
         21   -1    0    0  503  501  0.00000000000E+00  0.00000000000E+00  0.60143276973E+02  0.60143276973E+02  0.00000000000E+00 0.  1.
         21   -1    0    0  504  502 -0.00000000000E+00 -0.00000000000E+00 -0.23729092714E+04  0.23729092714E+04  0.00000000000E+00 0.  1.
         25    1    1    2    0    0 -0.26999257075E+03 -0.72338216655E+02 -0.47501946957E+03  0.56515245936E+03  0.12500000000E+03 0.  0.
         21    1    1    2  503  502 -0.25079980093E+02  0.23302246437E+02 -0.23496206867E+03  0.23744299064E+03  0.00000000000E+00 0. -1.
         21    1    1    2  504  501  0.29507255085E+03  0.49035970218E+02 -0.16027844562E+04  0.16304570984E+04  0.00000000000E+00 0.  1.
<mgrwt>
<rscale>  4 0.31032088E+03</rscale>
<asrwt>0</asrwt>
<pdfrwt beam="1">  1       21 0.92528113E-02 0.31032088E+03</pdfrwt>
<pdfrwt beam="2">  1       21 0.36506299E+00 0.31032088E+03</pdfrwt>
<totfact> 0.11588627E+03</totfact>
</mgrwt>
</event>
<event>
 5    0  0.1861957E+000  0.4284413E+03  0.7546771E-02  0.1034353E+00
         21   -1    0    0  504  501  0.00000000000E+00  0.00000000000E+00  0.16782530479E+03  0.16782530479E+03  0.00000000000E+00 0. -1.
         21   -1    0    0  501  502 -0.00000000000E+00 -0.00000000000E+00 -0.17216085883E+04  0.17216085883E+04  0.00000000000E+00 0. -1.
         25    1    1    2    0    0  0.13988435294E+03  0.39065017909E+03 -0.22563620358E+03  0.48858150906E+03  0.12500000000E+03 0.  0.
         21    1    1    2  503  502 -0.46118477851E+02 -0.88569305240E+01 -0.86142480815E+02  0.98111600836E+02  0.00000000000E+00 0. -1.
         21    1    1    2  504  503 -0.93765875090E+02 -0.38179324857E+03 -0.12420045991E+04  0.13027407832E+04  0.00000000000E+00 0. -1.
<mgrwt>
<rscale>  4 0.42844128E+03</rscale>
<asrwt>0</asrwt>
<pdfrwt beam="1">  1       21 0.25819276E-01 0.42844128E+03</pdfrwt>
<pdfrwt beam="2">  1       21 0.26486288E+00 0.42844128E+03</pdfrwt>
<totfact> 0.63552781E+02</totfact>
</mgrwt>
</event>
<event>
 5    0  0.1861957E+000  0.2380260E+03  0.7546771E-02  0.1121115E+00
         21   -1    0    0  503  501  0.00000000000E+00  0.00000000000E+00  0.40757113780E+03  0.40757113780E+03  0.00000000000E+00 0. -1.
         21   -1    0    0  504  502 -0.00000000000E+00 -0.00000000000E+00 -0.35767742137E+03  0.35767742137E+03  0.00000000000E+00 0. -1.
         25    1    1    2    0    0  0.71745958040E+02  0.21046431603E+03  0.27977425216E+02  0.25661341964E+03  0.12500000000E+03 0.  0.
         21    1    1    2  503  502 -0.64949597179E+01 -0.25369412908E+02 -0.20611744136E+03  0.20777437582E+03  0.00000000000E+00 0. -1.
         21    1    1    2  504  501 -0.65250998322E+02 -0.18509490313E+03  0.22803373258E+03  0.30086076371E+03  0.00000000000E+00 0. -1.
<mgrwt>
<rscale>  4 0.23802602E+03</rscale>
<asrwt>0</asrwt>
<pdfrwt beam="1">  1       21 0.62703253E-01 0.23802602E+03</pdfrwt>
<pdfrwt beam="2">  1       21 0.55027295E-01 0.23802602E+03</pdfrwt>
<totfact> 0.71192816E+03</totfact>
</mgrwt>
</event>
<event>
 5    0  0.1861957E+000  0.2767909E+03  0.7546771E-02  0.1097455E+00
         21   -1    0    0  504  501  0.00000000000E+00  0.00000000000E+00  0.74834437300E+03  0.74834437300E+03  0.00000000000E+00 0. -1.
         21   -1    0    0  503  502 -0.00000000000E+00 -0.00000000000E+00 -0.11738580960E+03  0.11738580960E+03  0.00000000000E+00 0. -1.
         25    1    1    2    0    0 -0.22131259526E+03 -0.13516328343E+03  0.36935223949E+03  0.46828885832E+03  0.12500000000E+03 0.  0.
         21    1    1    2  503  501  0.19465364632E+03  0.13397453770E+03  0.27897299547E+03  0.36560244936E+03  0.00000000000E+00 0. -1.
         21    1    1    2  504  502  0.26658948938E+02  0.11887457298E+01 -0.17366671567E+02  0.31838874921E+02  0.00000000000E+00 0. -1.
<mgrwt>
<rscale>  4 0.27679092E+03</rscale>
<asrwt>0</asrwt>
<pdfrwt beam="1">  1       21 0.11512990E+00 0.27679092E+03</pdfrwt>
<pdfrwt beam="2">  1       21 0.18059356E-01 0.27679092E+03</pdfrwt>
<totfact> 0.15551553E+04</totfact>
</mgrwt>
</event>
<event>
 5    0  0.1861957E+000  0.2874624E+03  0.7546771E-02  0.1091682E+00
         21   -1    0    0  503  501  0.00000000000E+00  0.00000000000E+00  0.66448037028E+03  0.66448037028E+03  0.00000000000E+00 0.  1.
         21   -1    0    0  504  502 -0.00000000000E+00 -0.00000000000E+00 -0.16461136696E+03  0.16461136696E+03  0.00000000000E+00 0.  1.
         25    1    1    2    0    0 -0.27714718163E+01  0.25343951568E+03  0.43655811856E+03  0.52004544037E+03  0.12500000000E+03 0.  0.
         21    1    1    2  503  502 -0.13532650114E+02 -0.27245410592E+03  0.72676209816E+02  0.28230516100E+03  0.00000000000E+00 0.  1.
         21    1    1    2  504  501  0.16304121930E+02  0.19014590240E+02 -0.93653250541E+01  0.26741135864E+02  0.00000000000E+00 0. -1.
<mgrwt>
<rscale>  4 0.28746237E+03</rscale>
<asrwt>0</asrwt>
<pdfrwt beam="1">  1       21 0.10222775E+00 0.28746237E+03</pdfrwt>
<pdfrwt beam="2">  1       21 0.25324826E-01 0.28746237E+03</pdfrwt>
<totfact> 0.10891857E+04</totfact>
</mgrwt>
</event>
<event>
 5    0  0.1861957E+000  0.4174652E+03  0.7546771E-02  0.1037894E+00
         21   -1    0    0  504  501  0.00000000000E+00  0.00000000000E+00  0.12457462137E+04  0.12457462137E+04  0.00000000000E+00 0. -1.
         21   -1    0    0  503  502 -0.00000000000E+00 -0.00000000000E+00 -0.51243289276E+03  0.51243289276E+03  0.00000000000E+00 0.  1.
         25    1    1    2    0    0  0.14104221388E+03 -0.37480274118E+03  0.11124158820E+04  0.11888919612E+04  0.12500000000E+03 0.  0.
         21    1    1    2  503  501 -0.11806375298E+03  0.35812546385E+03 -0.28980276462E+03  0.47558231675E+03  0.00000000000E+00 0.  1.
         21    1    1    2  504  502 -0.22978460906E+02  0.16677277335E+02 -0.89299796425E+02  0.93704828512E+02  0.00000000000E+00 0. -1.
<mgrwt>
<rscale>  4 0.41746519E+03</rscale>
<asrwt>0</asrwt>
<pdfrwt beam="1">  1       21 0.19165326E+00 0.41746519E+03</pdfrwt>
<pdfrwt beam="2">  1       21 0.78835830E-01 0.41746519E+03</pdfrwt>
<totfact> 0.17784747E+02</totfact>
</mgrwt>
</event>
<event>
 5    0  0.1861957E+000  0.2513385E+03  0.7546771E-02  0.1112462E+00
         21   -1    0    0  504  501  0.00000000000E+00  0.00000000000E+00  0.27597843328E+03  0.27597843328E+03  0.00000000000E+00 0.  1.
         21   -1    0    0  501  502 -0.00000000000E+00 -0.00000000000E+00 -0.75702405221E+03  0.75702405221E+03  0.00000000000E+00 0. -1.
         25    1    1    2    0    0 -0.19023568011E+03  0.68823762426E+02 -0.18065923465E+03  0.29864541404E+03  0.12500000000E+03 0.  0.
         21    1    1    2  503  502 -0.28380612150E+02 -0.28301205406E+02 -0.45931222667E+03  0.46105763082E+03  0.00000000000E+00 0. -1.
         21    1    1    2  504  503  0.21861629226E+03 -0.40522557021E+02  0.15892584238E+03  0.27329944063E+03  0.00000000000E+00 0.  1.
<mgrwt>
<rscale>  4 0.25133852E+03</rscale>
<asrwt>0</asrwt>
<pdfrwt beam="1">  1       21 0.42458222E-01 0.25133852E+03</pdfrwt>
<pdfrwt beam="2">  1       21 0.11646524E+00 0.25133852E+03</pdfrwt>
<totfact> 0.28976603E+03</totfact>
</mgrwt>
</event>
<event>
 5    0  0.1861957E+000  0.2674668E+03  0.7546771E-02  0.1102738E+00
         21   -1    0    0  504  501  0.00000000000E+00  0.00000000000E+00  0.17981867749E+04  0.17981867749E+04  0.00000000000E+00 0.  1.
         21   -1    0    0  503  502 -0.00000000000E+00 -0.00000000000E+00 -0.27199372952E+03  0.27199372952E+03  0.00000000000E+00 0. -1.
         25    1    1    2    0    0 -0.11593528228E+03  0.22401766358E+03  0.10788890899E+04  0.11150119155E+04  0.12500000000E+03 0.  0.
         21    1    1    2  503  501  0.15751666379E+03 -0.16160248703E+03  0.67695639476E+03  0.71358028531E+03  0.00000000000E+00 0.  1.
         21    1    1    2  504  502 -0.41581381502E+02 -0.62415176548E+02 -0.22965243933E+03  0.24158830361E+03  0.00000000000E+00 0. -1.
<mgrwt>
<rscale>  4 0.26746685E+03</rscale>
<asrwt>0</asrwt>
<pdfrwt beam="1">  1       21 0.27664411E+00 0.26746685E+03</pdfrwt>
<pdfrwt beam="2">  1       21 0.41845190E-01 0.26746685E+03</pdfrwt>
<totfact> 0.23294472E+02</totfact>
</mgrwt>
</event>
<event>
 5    0  0.1861957E+000  0.2559887E+03  0.7546771E-02  0.1109578E+00
         21   -1    0    0  503  501  0.00000000000E+00  0.00000000000E+00  0.15695451315E+04  0.15695451315E+04  0.00000000000E+00 0.  1.
         21   -1    0    0  504  502 -0.00000000000E+00 -0.00000000000E+00 -0.71605328566E+02  0.71605328566E+02  0.00000000000E+00 0. -1.
         25    1    1    2    0    0  0.86995658012E+02 -0.20665939898E+03  0.12927369050E+04  0.13179795360E+04  0.12500000000E+03 0.  0.
         21    1    1    2  503  502  0.20682785077E+02  0.13830967704E+02  0.41010669927E+02  0.47968201072E+02  0.00000000000E+00 0.  1.
         21    1    1    2  504  501 -0.10767844309E+03  0.19282843127E+03  0.16419222798E+03  0.27520272300E+03  0.00000000000E+00 0. -1.
<mgrwt>
<rscale>  4 0.25598871E+03</rscale>
<asrwt>0</asrwt>
<pdfrwt beam="1">  1       21 0.24146846E+00 0.25598871E+03</pdfrwt>
<pdfrwt beam="2">  1       21 0.11016206E-01 0.25598871E+03</pdfrwt>
<totfact> 0.48225777E+03</totfact>
</mgrwt>
</event>
<event>
 5    0  0.1861957E+000  0.2750319E+03  0.7546771E-02  0.1098434E+00
         21   -1    0    0  502  501  0.00000000000E+00  0.00000000000E+00  0.51036660716E+02  0.51036660716E+02  0.00000000000E+00 0.  1.
         21   -1    0    0  503  502 -0.00000000000E+00 -0.00000000000E+00 -0.20415803364E+04  0.20415803364E+04  0.00000000000E+00 0. -1.
         25    1    1    2    0    0  0.10198755869E+03 -0.23551305832E+03 -0.51360671723E+03  0.58760932834E+03  0.12500000000E+03 0.  0.
         21    1    1    2  503  504 -0.12671514484E+03  0.20642446095E+03 -0.13746882092E+04  0.13958636963E+04  0.00000000000E+00 0. -1.
         21    1    1    2  504  501  0.24727586143E+02  0.29088597366E+02 -0.10224874921E+03  0.10914397248E+03  0.00000000000E+00 0.  1.
<mgrwt>
<rscale>  4 0.27503188E+03</rscale>
<asrwt>0</asrwt>
<pdfrwt beam="1">  1       21 0.78517959E-02 0.27503188E+03</pdfrwt>
<pdfrwt beam="2">  1       21 0.31408921E+00 0.27503188E+03</pdfrwt>
<totfact> 0.32225082E+03</totfact>
</mgrwt>
</event>
<event>
 5    0  0.1861957E+000  0.3377446E+03  0.7546771E-02  0.1067761E+00
         21   -1    0    0  503  501  0.00000000000E+00  0.00000000000E+00  0.33312437908E+03  0.33312437908E+03  0.00000000000E+00 0.  1.
         21   -1    0    0  504  502 -0.00000000000E+00 -0.00000000000E+00 -0.15287427619E+04  0.15287427619E+04  0.00000000000E+00 0.  1.
         25    1    1    2    0    0 -0.17419085347E+02 -0.31672443926E+03  0.16607516503E+03  0.37924102547E+03  0.12500000000E+03 0.  0.
         21    1    1    2  503  502 -0.11684206843E+02  0.16340835963E+02 -0.10448987204E+04  0.10450918044E+04  0.00000000000E+00 0.  1.
         21    1    1    2  504  501  0.29103292190E+02  0.30038360329E+03 -0.31679482744E+03  0.43753431116E+03  0.00000000000E+00 0.  1.
<mgrwt>
<rscale>  4 0.33774464E+03</rscale>
<asrwt>0</asrwt>
<pdfrwt beam="1">  1       21 0.51249904E-01 0.33774464E+03</pdfrwt>
<pdfrwt beam="2">  1       21 0.23519119E+00 0.33774464E+03</pdfrwt>
<totfact> 0.25417844E+02</totfact>
</mgrwt>
</event>
<event>
 5    0  0.1861957E+000  0.3173250E+03  0.7546771E-02  0.1076887E+00
         21   -1    0    0  504  501  0.00000000000E+00  0.00000000000E+00  0.98068356024E+03  0.98068356024E+03  0.00000000000E+00 0.  1.
         21   -1    0    0  503  502 -0.00000000000E+00 -0.00000000000E+00 -0.32151945451E+03  0.32151945451E+03  0.00000000000E+00 0.  1.
         25    1    1    2    0    0 -0.29271803731E+03  0.67325723583E+02  0.17920303454E+03  0.37142338377E+03  0.12500000000E+03 0.  0.
         21    1    1    2  503  501  0.28548143328E+03 -0.45862686350E+02  0.67505669281E+03  0.73437359243E+03  0.00000000000E+00 0.  1.
         21    1    1    2  504  502  0.72366040356E+01 -0.21463037234E+02 -0.19509562162E+03  0.19640603855E+03  0.00000000000E+00 0.  1.
<mgrwt>
<rscale>  4 0.31732504E+03</rscale>
<asrwt>0</asrwt>
<pdfrwt beam="1">  1       21 0.15087439E+00 0.31732504E+03</pdfrwt>
<pdfrwt beam="2">  1       21 0.49464532E-01 0.31732504E+03</pdfrwt>
<totfact> 0.10369682E+03</totfact>
</mgrwt>
</event>
<event>
 5    0  0.1861957E+000  0.2496678E+03  0.7546771E-02  0.1113515E+00
         21   -1    0    0  503  501  0.00000000000E+00  0.00000000000E+00  0.32225051006E+03  0.32225051006E+03  0.00000000000E+00 0.  1.
         21   -1    0    0  504  502 -0.00000000000E+00 -0.00000000000E+00 -0.11907409162E+04  0.11907409162E+04  0.00000000000E+00 0.  1.
         25    1    1    2    0    0  0.18781096446E+03 -0.10693949980E+03  0.25901576976E+03  0.35975433837E+03  0.12500000000E+03 0.  0.
         21    1    1    2  503  502 -0.10320639528E+03  0.32799983377E+02 -0.79211133892E+03  0.79947968842E+03  0.00000000000E+00 0.  1.
         21    1    1    2  504  501 -0.84604569178E+02  0.74139516422E+02 -0.33539483695E+03  0.35375739946E+03  0.00000000000E+00 0.  1.
<mgrwt>
<rscale>  4 0.24966781E+03</rscale>
<asrwt>0</asrwt>
<pdfrwt beam="1">  1       21 0.49577002E-01 0.24966781E+03</pdfrwt>
<pdfrwt beam="2">  1       21 0.18319091E+00 0.24966781E+03</pdfrwt>
<totfact> 0.63331266E+02</totfact>
</mgrwt>
</event>
<event>
 5    0  0.1861957E+000  0.3092676E+03  0.7546771E-02  0.1080697E+00
         21   -1    0    0  504  501  0.00000000000E+00  0.00000000000E+00  0.19541395233E+04  0.19541395233E+04  0.00000000000E+00 0.  1.
         21   -1    0    0  501  502 -0.00000000000E+00 -0.00000000000E+00 -0.65234553211E+02  0.65234553211E+02  0.00000000000E+00 0. -1.
         25    1    1    2    0    0  0.26070475897E+03  0.92645703831E+02  0.13551726598E+04  0.13887649677E+04  0.12500000000E+03 0.  0.
         21    1    1    2  503  502 -0.28058899928E+03 -0.54025600953E+02  0.41226893843E+03  0.50161203102E+03  0.00000000000E+00 0. -1.
         21    1    1    2  504  503  0.19884240319E+02 -0.38620102879E+02  0.12146337186E+03  0.12899707773E+03  0.00000000000E+00 0.  1.
<mgrwt>
<rscale>  4 0.30926755E+03</rscale>
<asrwt>0</asrwt>
<pdfrwt beam="1">  1       21 0.30063680E+00 0.30926755E+03</pdfrwt>
<pdfrwt beam="2">  1       21 0.10036087E-01 0.30926755E+03</pdfrwt>
<totfact> 0.24379706E+03</totfact>
</mgrwt>
</event>
<event>
 5    0  0.1861957E+000  0.2745606E+03  0.7546771E-02  0.1098697E+00
         21   -1    0    0  504  501  0.00000000000E+00  0.00000000000E+00  0.10245445273E+03  0.10245445273E+03  0.00000000000E+00 0. -1.
         21   -1    0    0  503  502 -0.00000000000E+00 -0.00000000000E+00 -0.93222666135E+03  0.93222666135E+03  0.00000000000E+00 0. -1.
         25    1    1    2    0    0 -0.71826230845E+02  0.22462280345E+03 -0.23424184056E+03  0.35511779896E+03  0.12500000000E+03 0.  0.
         21    1    1    2  503  501  0.12453901966E+03 -0.22823642979E+03 -0.40044512662E+03  0.47744961486E+03  0.00000000000E+00 0. -1.
         21    1    1    2  504  502 -0.52712788816E+02  0.36136263348E+01 -0.19508524145E+03  0.20211370025E+03  0.00000000000E+00 0. -1.
<mgrwt>
<rscale>  4 0.27456061E+03</rscale>
<asrwt>0</asrwt>
<pdfrwt beam="1">  1       21 0.15762223E-01 0.27456061E+03</pdfrwt>
<pdfrwt beam="2">  1       21 0.14341949E+00 0.27456061E+03</pdfrwt>
<totfact> 0.11440905E+04</totfact>
</mgrwt>
</event>
<event>
 5    0  0.1861957E+000  0.2728218E+03  0.7546771E-02  0.1099675E+00
         21   -1    0    0  503  501  0.00000000000E+00  0.00000000000E+00  0.22948283445E+03  0.22948283445E+03  0.00000000000E+00 0.  1.
         21   -1    0    0  504  502 -0.00000000000E+00 -0.00000000000E+00 -0.10511505707E+04  0.10511505707E+04  0.00000000000E+00 0.  1.
         25    1    1    2    0    0  0.21606079613E+01  0.25162968178E+03  0.53690999760E+02  0.28605923938E+03  0.12500000000E+03 0.  0.
         21    1    1    2  503  502 -0.16572531860E+02 -0.22528986300E+03 -0.15586054933E+03  0.27444978051E+03  0.00000000000E+00 0.  1.
         21    1    1    2  504  501  0.14411923899E+02 -0.26339818780E+02 -0.71949818673E+03  0.72012438531E+03  0.00000000000E+00 0.  1.
<mgrwt>
<rscale>  4 0.27282176E+03</rscale>
<asrwt>0</asrwt>
<pdfrwt beam="1">  1       21 0.35305052E-01 0.27282176E+03</pdfrwt>
<pdfrwt beam="2">  1       21 0.16171547E+00 0.27282176E+03</pdfrwt>
<totfact> 0.17681345E+03</totfact>
</mgrwt>
</event>
<event>
 5    0  0.1861957E+000  0.2819896E+03  0.7546771E-02  0.1094607E+00
         21   -1    0    0  504  501  0.00000000000E+00  0.00000000000E+00  0.12753355295E+03  0.12753355295E+03  0.00000000000E+00 0. -1.
         21   -1    0    0  503  502 -0.00000000000E+00 -0.00000000000E+00 -0.81818429224E+03  0.81818429224E+03  0.00000000000E+00 0. -1.
         25    1    1    2    0    0  0.49143400416E+02  0.24249813318E+03 -0.41207352531E+03  0.49663871039E+03  0.12500000000E+03 0.  0.
         21    1    1    2  503  501  0.27480273911E+02 -0.25789075058E+03 -0.15285279727E+03  0.30104282473E+03  0.00000000000E+00 0. -1.
         21    1    1    2  504  502 -0.76623674328E+02  0.15392617398E+02 -0.12572441672E+03  0.14803631006E+03  0.00000000000E+00 0.  1.
<mgrwt>
<rscale>  4 0.28198960E+03</rscale>
<asrwt>0</asrwt>
<pdfrwt beam="1">  1       21 0.19620547E-01 0.28198960E+03</pdfrwt>
<pdfrwt beam="2">  1       21 0.12587451E+00 0.28198960E+03</pdfrwt>
<totfact> 0.10619567E+04</totfact>
</mgrwt>
</event>
<event>
 5    0  0.1861957E+000  0.3427002E+03  0.7546771E-02  0.1065652E+00
         21   -1    0    0  503  501  0.00000000000E+00  0.00000000000E+00  0.67038716648E+03  0.67038716648E+03  0.00000000000E+00 0. -1.
         21   -1    0    0  504  502 -0.00000000000E+00 -0.00000000000E+00 -0.72316325643E+03  0.72316325643E+03  0.00000000000E+00 0.  1.
         25    1    1    2    0    0 -0.25766972533E+03  0.18257896430E+03  0.56235749148E+03  0.65696249039E+03  0.12500000000E+03 0.  0.
         21    1    1    2  503  502  0.29118622959E+03 -0.21174472720E+03 -0.53297686694E+03  0.64318705716E+03  0.00000000000E+00 0.  1.
         21    1    1    2  504  501 -0.33516504257E+02  0.29165762900E+02 -0.82156714493E+02  0.93400875368E+02  0.00000000000E+00 0.  1.
<mgrwt>
<rscale>  4 0.34270024E+03</rscale>
<asrwt>0</asrwt>
<pdfrwt beam="1">  1       21 0.10313649E+00 0.34270024E+03</pdfrwt>
<pdfrwt beam="2">  1       21 0.11125589E+00 0.34270024E+03</pdfrwt>
<totfact> 0.42724858E+02</totfact>
</mgrwt>
</event>
<event>
 5    0  0.1861957E+000  0.3604311E+03  0.7546771E-02  0.1058413E+00
         21   -1    0    0  504  501  0.00000000000E+00  0.00000000000E+00  0.20435568409E+04  0.20435568409E+04  0.00000000000E+00 0. -1.
         21   -1    0    0  503  502 -0.00000000000E+00 -0.00000000000E+00 -0.17961871555E+03  0.17961871555E+03  0.00000000000E+00 0. -1.
         25    1    1    2    0    0 -0.17547656957E+03 -0.27776384889E+03  0.16276777563E+04  0.16652040898E+04  0.12500000000E+03 0.  0.
         21    1    1    2  503  501  0.24260050094E+03  0.33181830748E+03  0.15434022580E+03  0.43906639308E+03  0.00000000000E+00 0. -1.
         21    1    1    2  504  502 -0.67123931374E+02 -0.54054458581E+02  0.81920143197E+02  0.11890507355E+03  0.00000000000E+00 0. -1.
<mgrwt>
<rscale>  4 0.36043115E+03</rscale>
<asrwt>0</asrwt>
<pdfrwt beam="1">  1       21 0.31439334E+00 0.36043115E+03</pdfrwt>
<pdfrwt beam="2">  1       21 0.27633650E-01 0.36043115E+03</pdfrwt>
<totfact> 0.29406000E+02</totfact>
</mgrwt>
</event>
<event>
 5    0  0.1861957E+000  0.2501268E+03  0.7546771E-02  0.1113225E+00
         21   -1    0    0  502  501  0.00000000000E+00  0.00000000000E+00  0.86825101090E+02  0.86825101090E+02  0.00000000000E+00 0. -1.
         21   -1    0    0  503  502 -0.00000000000E+00 -0.00000000000E+00 -0.85009119458E+03  0.85009119458E+03  0.00000000000E+00 0.  1.
         25    1    1    2    0    0 -0.49304618228E+02  0.21096798081E+03 -0.16808185235E+03  0.30135517814E+03  0.12500000000E+03 0.  0.
         21    1    1    2  503  504  0.37733018365E+02 -0.18991676755E+03 -0.47408481351E+03  0.51210210863E+03  0.00000000000E+00 0.  1.
         21    1    1    2  504  501  0.11571599863E+02 -0.21051213262E+02 -0.12109942764E+03  0.12345900889E+03  0.00000000000E+00 0. -1.
<mgrwt>
<rscale>  4 0.25012684E+03</rscale>
<asrwt>0</asrwt>
<pdfrwt beam="1">  1       21 0.13357708E-01 0.25012684E+03</pdfrwt>
<pdfrwt beam="2">  1       21 0.13078326E+00 0.25012684E+03</pdfrwt>
<totfact> 0.19921041E+04</totfact>
</mgrwt>
</event>
<event>
 5    0  0.1861957E+000  0.2517128E+03  0.7546771E-02  0.1112227E+00
         21   -1    0    0  503  501  0.00000000000E+00  0.00000000000E+00  0.33339631711E+03  0.33339631711E+03  0.00000000000E+00 0. -1.
         21   -1    0    0  504  502 -0.00000000000E+00 -0.00000000000E+00 -0.42019014455E+03  0.42019014455E+03  0.00000000000E+00 0.  1.
         25    1    1    2    0    0  0.18459069678E+03  0.12147592584E+03  0.17043244278E+03  0.30578152895E+03  0.12500000000E+03 0.  0.
         21    1    1    2  503  502 -0.10020037323E+03 -0.21459786169E+03 -0.19880280616E+03  0.30921661142E+03  0.00000000000E+00 0.  1.
         21    1    1    2  504  501 -0.84390323547E+02  0.93121935853E+02 -0.58423464056E+02  0.13858832129E+03  0.00000000000E+00 0.  1.
<mgrwt>
<rscale>  4 0.25171284E+03</rscale>
<asrwt>0</asrwt>
<pdfrwt beam="1">  1       21 0.51291741E-01 0.25171284E+03</pdfrwt>
<pdfrwt beam="2">  1       21 0.64644638E-01 0.25171284E+03</pdfrwt>
<totfact> 0.76678999E+03</totfact>
</mgrwt>
</event>
<event>
 5    0  0.1861957E+000  0.3031623E+03  0.7546771E-02  0.1083670E+00
         21   -1    0    0  504  501  0.00000000000E+00  0.00000000000E+00  0.50287488570E+03  0.50287488570E+03  0.00000000000E+00 0.  1.
         21   -1    0    0  501  502 -0.00000000000E+00 -0.00000000000E+00 -0.55248603559E+03  0.55248603559E+03  0.00000000000E+00 0.  1.
         25    1    1    2    0    0 -0.36884723313E+02  0.31796965236E+03  0.15390213215E+03  0.37653160414E+03  0.12500000000E+03 0.  0.
         21    1    1    2  503  502 -0.12984359875E+03 -0.11302030862E+03 -0.34026715817E+03  0.38133278016E+03  0.00000000000E+00 0. -1.
         21    1    1    2  504  503  0.16672832206E+03 -0.20494934375E+03  0.13675387614E+03  0.29749653698E+03  0.00000000000E+00 0.  1.
<mgrwt>
<rscale>  4 0.30316227E+03</rscale>
<asrwt>0</asrwt>
<pdfrwt beam="1">  1       21 0.77365367E-01 0.30316227E+03</pdfrwt>
<pdfrwt beam="2">  1       21 0.84997852E-01 0.30316227E+03</pdfrwt>
<totfact> 0.16364547E+03</totfact>
</mgrwt>
</event>
