<event>
 5    0  0.3351395E+000  0.3151591E+03  0.7546771E-02  0.1077899E+00
         21   -1    0    0  502  501  0.00000000000E+00  0.00000000000E+00  0.18266743361E+04  0.18266743361E+04  0.00000000000E+00 0.  1.
         21   -1    0    0  503  502 -0.00000000000E+00 -0.00000000000E+00 -0.76248967269E+02  0.76248967269E+02  0.00000000000E+00 0. -1.
         25    1    1    2    0    0  0.90946064367E+01  0.28916696994E+03  0.14314276345E+04  0.14657115409E+04  0.12500000000E+03 0.  0.
         21    1    1    2  503  504 -0.30847745859E+02 -0.25246545239E+03  0.25392383570E+03  0.35939908515E+03  0.00000000000E+00 0. -1.
         21    1    1    2  504  501  0.21753139422E+02 -0.36701517549E+02  0.65073898630E+02  0.77812677296E+02  0.00000000000E+00 0. -1.
<mgrwt>
<rscale>  4 0.31515908E+03</rscale>
<asrwt>0</asrwt>
<pdfrwt beam="1">  1       21 0.28102679E+00 0.31515908E+03</pdfrwt>
<pdfrwt beam="2">  1       21 0.11730612E-01 0.31515908E+03</pdfrwt>
<totfact> 0.23953099E+03</totfact>
</mgrwt>
</event>
<event>
 5    0  0.2159162E+000  0.2594290E+03  0.7546771E-02  0.1107487E+00
         21   -1    0    0  502  501  0.00000000000E+00  0.00000000000E+00  0.33528024811E+03  0.33528024811E+03  0.00000000000E+00 0.  1.
         21   -1    0    0  503  502 -0.00000000000E+00 -0.00000000000E+00 -0.14542213501E+04  0.14542213501E+04  0.00000000000E+00 0.  1.
         25    1    1    2    0    0 -0.52644246818E+02  0.22119607031E+03  0.27027546094E+03  0.37466377331E+03  0.12500000000E+03 0.  0.
         21    1    1    2  503  504  0.20643649630E+02  0.36001081542E+01 -0.28882024378E+02  0.35683222682E+02  0.00000000000E+00 0. -1.
         21    1    1    2  504  501  0.32000597188E+02 -0.22479617846E+03 -0.13603345385E+04  0.13791546022E+04  0.00000000000E+00 0.  1.
<mgrwt>
<rscale>  4 0.25942897E+03</rscale>
<asrwt>0</asrwt>
<pdfrwt beam="1">  1       21 0.51581577E-01 0.25942897E+03</pdfrwt>
<pdfrwt beam="2">  1       21 0.22372636E+00 0.25942897E+03</pdfrwt>
<totfact> 0.31575578E+02</totfact>
</mgrwt>
</event>
<event>
 5    0  0.2719130E+000  0.3771927E+03  0.7546771E-02  0.1051976E+00
         21   -1    0    0  502  501  0.00000000000E+00  0.00000000000E+00  0.15248309602E+03  0.15248309602E+03  0.00000000000E+00 0. -1.
         21   -1    0    0  503  502 -0.00000000000E+00 -0.00000000000E+00 -0.10620648221E+04  0.10620648221E+04  0.00000000000E+00 0. -1.
         25    1    1    2    0    0  0.54945297493E+02  0.36400849235E+03 -0.38213034395E+03  0.54513279849E+03  0.12500000000E+03 0.  0.
         21    1    1    2  503  504 -0.11065116817E+03 -0.32726767198E+03 -0.44325189332E+03  0.56197869272E+03  0.00000000000E+00 0. -1.
         21    1    1    2  504  501  0.55705870679E+02 -0.36740820372E+02 -0.84199488765E+02  0.10743642687E+03  0.00000000000E+00 0. -1.
<mgrwt>
<rscale>  4 0.37719266E+03</rscale>
<asrwt>0</asrwt>
<pdfrwt beam="1">  1       21 0.23458938E-01 0.37719266E+03</pdfrwt>
<pdfrwt beam="2">  1       21 0.16339459E+00 0.37719266E+03</pdfrwt>
<totfact> 0.36150164E+03</totfact>
</mgrwt>
</event>
<event>
 5    0  0.2678323E+000  0.2383947E+03  0.7546771E-02  0.1120867E+00
         21   -1    0    0  502  501  0.00000000000E+00  0.00000000000E+00  0.11591050463E+04  0.11591050463E+04  0.00000000000E+00 0. -1.
         21   -1    0    0  503  502 -0.00000000000E+00 -0.00000000000E+00 -0.13328627275E+03  0.13328627275E+03  0.00000000000E+00 0. -1.
         25    1    1    2    0    0 -0.19883009903E+03 -0.74412104072E+02  0.94266238674E+03  0.97432435302E+03  0.12500000000E+03 0.  0.
         21    1    1    2  503  504  0.15774824796E+03  0.86589062292E+02  0.15295042080E+03  0.23616944482E+03  0.00000000000E+00 0. -1.
         21    1    1    2  504  501  0.41081851076E+02 -0.12176958220E+02 -0.69794033999E+02  0.81897521215E+02  0.00000000000E+00 0. -1.
<mgrwt>
<rscale>  4 0.23839465E+03</rscale>
<asrwt>0</asrwt>
<pdfrwt beam="1">  1       21 0.17832385E+00 0.23839465E+03</pdfrwt>
<pdfrwt beam="2">  1       21 0.20505581E-01 0.23839465E+03</pdfrwt>
<totfact> 0.39599871E+03</totfact>
</mgrwt>
</event>
<event>
 5    0  0.2159162E+000  0.3460283E+03  0.7546771E-02  0.1064257E+00
         21   -1    0    0  502  501  0.00000000000E+00  0.00000000000E+00  0.22632392654E+03  0.22632392654E+03  0.00000000000E+00 0. -1.
         21   -1    0    0  503  502 -0.00000000000E+00 -0.00000000000E+00 -0.50165125811E+03  0.50165125811E+03  0.00000000000E+00 0. -1.
         25    1    1    2    0    0  0.13621652333E+03  0.29249898839E+03 -0.13105037509E+03  0.37001324335E+03  0.12500000000E+03 0.  0.
         21    1    1    2  503  504 -0.10550317446E+03 -0.23619559728E+03 -0.13885285439E+03  0.29359733508E+03  0.00000000000E+00 0. -1.
         21    1    1    2  504  501 -0.30713348869E+02 -0.56303391116E+02 -0.54241020830E+01  0.64364606216E+02  0.00000000000E+00 0. -1.
<mgrwt>
<rscale>  4 0.34602832E+03</rscale>
<asrwt>0</asrwt>
<pdfrwt beam="1">  1       21 0.34819066E-01 0.34602832E+03</pdfrwt>
<pdfrwt beam="2">  1       21 0.77177117E-01 0.34602832E+03</pdfrwt>
<totfact> 0.10959747E+04</totfact>
</mgrwt>
</event>
<event>
 5    0  0.2159162E+000  0.2431123E+03  0.7546771E-02  0.1117737E+00
         21   -1    0    0  502  501  0.00000000000E+00  0.00000000000E+00  0.61144797626E+03  0.61144797626E+03  0.00000000000E+00 0. -1.
         21   -1    0    0  503  502 -0.00000000000E+00 -0.00000000000E+00 -0.94768759671E+02  0.94768759671E+02  0.00000000000E+00 0.  1.
         25    1    1    2    0    0 -0.10110421472E+03  0.18236376638E+03  0.39106523710E+03  0.46047326219E+03  0.12500000000E+03 0.  0.
         21    1    1    2  503  504  0.93094175372E+02 -0.14727034905E+03  0.11270390710E+03  0.20750241414E+03  0.00000000000E+00 0.  1.
         21    1    1    2  504  501  0.80100393520E+01 -0.35093417325E+02  0.12910072380E+02  0.38241059593E+02  0.00000000000E+00 0.  1.
<mgrwt>
<rscale>  4 0.24311233E+03</rscale>
<asrwt>0</asrwt>
<pdfrwt beam="1">  1       21 0.94068917E-01 0.24311233E+03</pdfrwt>
<pdfrwt beam="2">  1       21 0.14579810E-01 0.24311233E+03</pdfrwt>
<totfact> 0.38183969E+04</totfact>
</mgrwt>
</event>
<event>
 5    0  0.2159162E+000  0.2419242E+03  0.7546771E-02  0.1118518E+00
         21   -1    0    0  502  501  0.00000000000E+00  0.00000000000E+00  0.59241702075E+02  0.59241702075E+02  0.00000000000E+00 0. -1.
         21   -1    0    0  503  502 -0.00000000000E+00 -0.00000000000E+00 -0.11229425445E+04  0.11229425445E+04  0.00000000000E+00 0. -1.
         25    1    1    2    0    0  0.38437563801E+02 -0.20353103190E+03 -0.27581492894E+03  0.36688036508E+03  0.12500000000E+03 0.  0.
         21    1    1    2  503  504 -0.40965857065E+02  0.16690511153E+03 -0.67823518736E+03  0.69967027025E+03  0.00000000000E+00 0. -1.
         21    1    1    2  504  501  0.25282932634E+01  0.36625920368E+02 -0.10965072615E+03  0.11563361127E+03  0.00000000000E+00 0. -1.
<mgrwt>
<rscale>  4 0.24192422E+03</rscale>
<asrwt>0</asrwt>
<pdfrwt beam="1">  1       21 0.91141086E-02 0.24192422E+03</pdfrwt>
<pdfrwt beam="2">  1       21 0.17276038E+00 0.24192422E+03</pdfrwt>
<totfact> 0.18877092E+04</totfact>
</mgrwt>
</event>
<event>
 5    0  0.2159162E+000  0.4007590E+03  0.7546771E-02  0.1043517E+00
         21   -1    0    0  502  501  0.00000000000E+00  0.00000000000E+00  0.28954355101E+04  0.28954355101E+04  0.00000000000E+00 0. -1.
         21   -1    0    0  503  502 -0.00000000000E+00 -0.00000000000E+00 -0.83893214758E+02  0.83893214758E+02  0.00000000000E+00 0. -1.
         25    1    1    2    0    0 -0.27557966279E+03  0.25434367662E+03  0.56005982248E+03  0.68551211596E+03  0.12500000000E+03 0.  0.
         21    1    1    2  503  504  0.27444445469E+03 -0.29211578667E+03  0.20675444852E+04  0.21060369393E+04  0.00000000000E+00 0. -1.
         21    1    1    2  504  501  0.11352081036E+01  0.37772110055E+02  0.18393798770E+03  0.18777966960E+03  0.00000000000E+00 0.  1.
<mgrwt>
<rscale>  4 0.40075903E+03</rscale>
<asrwt>0</asrwt>
<pdfrwt beam="1">  1       21 0.44545154E+00 0.40075903E+03</pdfrwt>
<pdfrwt beam="2">  1       21 0.12906651E-01 0.40075903E+03</pdfrwt>
<totfact> 0.18016537E+02</totfact>
</mgrwt>
</event>
<event>
 5    0  0.2159162E+000  0.5432525E+03  0.7546771E-02  0.1003068E+00
         21   -1    0    0  502  501  0.00000000000E+00  0.00000000000E+00  0.72858473293E+03  0.72858473293E+03  0.00000000000E+00 0. -1.
         21   -1    0    0  503  502 -0.00000000000E+00 -0.00000000000E+00 -0.17002842453E+04  0.17002842453E+04  0.00000000000E+00 0. -1.
         25    1    1    2    0    0 -0.45545510092E+03 -0.26843791503E+03  0.57592359892E+03  0.79171412453E+03  0.12500000000E+03 0.  0.
         21    1    1    2  503  504  0.19618161167E+02  0.10165583682E+02 -0.30376697629E+02  0.37562682252E+02  0.00000000000E+00 0.  1.
         21    1    1    2  504  501  0.43583693975E+03  0.25827233135E+03 -0.15172464136E+04  0.15995921714E+04  0.00000000000E+00 0. -1.
<mgrwt>
<rscale>  4 0.54325249E+03</rscale>
<asrwt>0</asrwt>
<pdfrwt beam="1">  1       21 0.11208996E+00 0.54325249E+03</pdfrwt>
<pdfrwt beam="2">  1       21 0.26158219E+00 0.54325249E+03</pdfrwt>
<totfact> 0.25449510E+01</totfact>
</mgrwt>
</event>
<event>
 5    0  0.2159162E+000  0.2475977E+03  0.7546771E-02  0.1114832E+00
         21   -1    0    0  502  501  0.00000000000E+00  0.00000000000E+00  0.74906433005E+03  0.74906433005E+03  0.00000000000E+00 0.  1.
         21   -1    0    0  503  502 -0.00000000000E+00 -0.00000000000E+00 -0.94792314407E+02  0.94792314407E+02  0.00000000000E+00 0.  1.
         25    1    1    2    0    0 -0.14347137713E+03  0.15841592685E+03  0.54911964722E+03  0.60235955117E+03  0.12500000000E+03 0.  0.
         21    1    1    2  503  504  0.10472515736E+03 -0.12100024388E+03  0.58968420195E+02  0.17054527898E+03  0.00000000000E+00 0.  1.
         21    1    1    2  504  501  0.38746219766E+02 -0.37415682968E+02  0.46183948238E+02  0.70951814303E+02  0.00000000000E+00 0.  1.
<mgrwt>
<rscale>  4 0.24759774E+03</rscale>
<asrwt>0</asrwt>
<pdfrwt beam="1">  1       21 0.11524066E+00 0.24759774E+03</pdfrwt>
<pdfrwt beam="2">  1       21 0.14583433E-01 0.24759774E+03</pdfrwt>
<totfact> 0.23351571E+04</totfact>
</mgrwt>
</event>
<event>
 5    0  0.2159162E+000  0.2137350E+03  0.7546771E-02  0.1138642E+00
         21   -1    0    0  502  501  0.00000000000E+00  0.00000000000E+00  0.57504987266E+02  0.57504987266E+02  0.00000000000E+00 0.  1.
         21   -1    0    0  503  502 -0.00000000000E+00 -0.00000000000E+00 -0.12564987546E+04  0.12564987546E+04  0.00000000000E+00 0.  1.
         25    1    1    2    0    0  0.21775080647E+03 -0.84958819237E+02 -0.53077438693E+03  0.59327890954E+03  0.12500000000E+03 0.  0.
         21    1    1    2  503  504 -0.63539539000E+02  0.84805792959E+02 -0.18161953967E+03  0.21027351884E+03  0.00000000000E+00 0.  1.
         21    1    1    2  504  501 -0.15421126747E+03  0.15302627754E+00 -0.48659984071E+03  0.51045131346E+03  0.00000000000E+00 0.  1.
<mgrwt>
<rscale>  4 0.21373496E+03</rscale>
<asrwt>0</asrwt>
<pdfrwt beam="1">  1       21 0.88469217E-02 0.21373496E+03</pdfrwt>
<pdfrwt beam="2">  1       21 0.19330749E+00 0.21373496E+03</pdfrwt>
<totfact> 0.14696700E+04</totfact>
</mgrwt>
</event>
<event>
 5    0  0.2159162E+000  0.3505832E+03  0.7546771E-02  0.1062376E+00
         21   -1    0    0  502  501  0.00000000000E+00  0.00000000000E+00  0.96283750048E+03  0.96283750048E+03  0.00000000000E+00 0. -1.
         21   -1    0    0  503  502 -0.00000000000E+00 -0.00000000000E+00 -0.24181551929E+03  0.24181551929E+03  0.00000000000E+00 0.  1.
         25    1    1    2    0    0 -0.39699786148E+02  0.33146218673E+03  0.76108788132E+03  0.84043025727E+03  0.12500000000E+03 0.  0.
         21    1    1    2  503  504  0.22010759370E+02 -0.53593757972E+01  0.22244690475E+02  0.31749373086E+02  0.00000000000E+00 0.  1.
         21    1    1    2  504  501  0.17689026777E+02 -0.32610281093E+03 -0.62310590600E+02  0.33247338941E+03  0.00000000000E+00 0.  1.
<mgrwt>
<rscale>  4 0.35058319E+03</rscale>
<asrwt>0</asrwt>
<pdfrwt beam="1">  1       21 0.14812884E+00 0.35058319E+03</pdfrwt>
<pdfrwt beam="2">  1       21 0.37202388E-01 0.35058319E+03</pdfrwt>
<totfact> 0.19259307E+03</totfact>
</mgrwt>
</event>
<event>
 5    0  0.2440532E+000  0.2832661E+03  0.7546771E-02  0.1093918E+00
         21   -1    0    0  502  501  0.00000000000E+00  0.00000000000E+00  0.24268289542E+03  0.24268289542E+03  0.00000000000E+00 0.  1.
         21   -1    0    0  503  502 -0.00000000000E+00 -0.00000000000E+00 -0.40280953683E+03  0.40280953683E+03  0.00000000000E+00 0.  1.
         25    1    1    2    0    0  0.26794367981E+03 -0.19414254224E+02 -0.18733004668E+03  0.35055424003E+03  0.12500000000E+03 0.  0.
         21    1    1    2  503  504 -0.23335056923E+03 -0.26896518231E+02  0.12169467108E+02  0.23521055840E+03  0.00000000000E+00 0.  1.
         21    1    1    2  504  501 -0.34593110582E+02  0.46310772455E+02  0.15033938156E+02  0.59727633819E+02  0.00000000000E+00 0.  1.
<mgrwt>
<rscale>  4 0.28326606E+03</rscale>
<asrwt>0</asrwt>
<pdfrwt beam="1">  1       21 0.37335830E-01 0.28326606E+03</pdfrwt>
<pdfrwt beam="2">  1       21 0.61970698E-01 0.28326606E+03</pdfrwt>
<totfact> 0.15933127E+04</totfact>
</mgrwt>
</event>
<event>
 5    0  0.2159162E+000  0.2770720E+03  0.7546771E-02  0.1097299E+00
         21   -1    0    0  502  501  0.00000000000E+00  0.00000000000E+00  0.15630318442E+04  0.15630318442E+04  0.00000000000E+00 0.  1.
         21   -1    0    0  503  502 -0.00000000000E+00 -0.00000000000E+00 -0.14182478992E+03  0.14182478992E+03  0.00000000000E+00 0. -1.
         25    1    1    2    0    0  0.20904146703E+03  0.13208167272E+03  0.14251910407E+04  0.14518741012E+04  0.12500000000E+03 0.  0.
         21    1    1    2  503  504 -0.18408472883E+03 -0.11700014457E+03 -0.21154105588E+02  0.21914314363E+03  0.00000000000E+00 0. -1.
         21    1    1    2  504  501 -0.24956738203E+02 -0.15081528155E+02  0.17170119074E+02  0.33839389212E+02  0.00000000000E+00 0. -1.
<mgrwt>
<rscale>  4 0.27707202E+03</rscale>
<asrwt>0</asrwt>
<pdfrwt beam="1">  1       21 0.24046643E+00 0.27707202E+03</pdfrwt>
<pdfrwt beam="2">  1       21 0.21819200E-01 0.27707202E+03</pdfrwt>
<totfact> 0.13662230E+03</totfact>
</mgrwt>
</event>
<event>
 5    0  0.2159162E+000  0.2446784E+03  0.7546771E-02  0.1116715E+00
         21   -1    0    0  502  501  0.00000000000E+00  0.00000000000E+00  0.86908729102E+02  0.86908729102E+02  0.00000000000E+00 0.  1.
         21   -1    0    0  503  502 -0.00000000000E+00 -0.00000000000E+00 -0.21491154760E+04  0.21491154760E+04  0.00000000000E+00 0. -1.
         25    1    1    2    0    0  0.38210347600E+02  0.20683924200E+03 -0.10351019518E+03  0.26567247355E+03  0.12500000000E+03 0.  0.
         21    1    1    2  503  504 -0.13199690163E+02 -0.29144699350E+02 -0.42257444209E+03  0.42378391242E+03  0.00000000000E+00 0.  1.
         21    1    1    2  504  501 -0.25010657437E+02 -0.17769454265E+03 -0.15361221097E+04  0.15465678192E+04  0.00000000000E+00 0. -1.
<mgrwt>
<rscale>  4 0.24467837E+03</rscale>
<asrwt>0</asrwt>
<pdfrwt beam="1">  1       21 0.13370574E-01 0.24467837E+03</pdfrwt>
<pdfrwt beam="2">  1       21 0.33063315E+00 0.24467837E+03</pdfrwt>
<totfact> 0.10275927E+03</totfact>
</mgrwt>
</event>
<event>
 5    0  0.2159162E+000  0.3314104E+03  0.7546771E-02  0.1070514E+00
         21   -1    0    0  502  501  0.00000000000E+00  0.00000000000E+00  0.69313077279E+03  0.69313077279E+03  0.00000000000E+00 0. -1.
         21   -1    0    0  503  502 -0.00000000000E+00 -0.00000000000E+00 -0.11166940200E+04  0.11166940200E+04  0.00000000000E+00 0.  1.
         25    1    1    2    0    0  0.30359928758E+03  0.45114846748E+02  0.62855242391E+03  0.71057091582E+03  0.12500000000E+03 0.  0.
         21    1    1    2  503  504 -0.96435091033E+02  0.96496362004E+01 -0.22815926157E+03  0.24789007827E+03  0.00000000000E+00 0.  1.
         21    1    1    2  504  501 -0.20716419655E+03 -0.54764482948E+02 -0.82395640955E+03  0.85136379872E+03  0.00000000000E+00 0.  1.
<mgrwt>
<rscale>  4 0.33141044E+03</rscale>
<asrwt>0</asrwt>
<pdfrwt beam="1">  1       21 0.10663550E+00 0.33141044E+03</pdfrwt>
<pdfrwt beam="2">  1       21 0.17179908E+00 0.33141044E+03</pdfrwt>
<totfact> 0.12661258E+02</totfact>
</mgrwt>
</event>
