<event>
 5    0  0.2159162E+000  0.2540528E+03  0.7546771E-02  0.1110770E+00
         21   -1    0    0  502  501  0.00000000000E+00  0.00000000000E+00  0.15924786010E+03  0.15924786010E+03  0.00000000000E+00 0. -1.
         21   -1    0    0  503  502 -0.00000000000E+00 -0.00000000000E+00 -0.45339446245E+03  0.45339446245E+03  0.00000000000E+00 0.  1.
         25    1    1    2    0    0  0.52872892540E+02  0.21476097400E+03 -0.19882812759E+02  0.25482963910E+03  0.12500000000E+03 0.  0.
         21    1    1    2  503  504 -0.42004602356E+02 -0.97053977027E+02 -0.16991121537E+03  0.20013416046E+03  0.00000000000E+00 0.  1.
         21    1    1    2  504  501 -0.10868290184E+02 -0.11770699697E+03 -0.10435257421E+03  0.15767852299E+03  0.00000000000E+00 0.  1.
<mgrwt>
<rscale>  4 0.25405279E+03</rscale>
<asrwt>0</asrwt>
<pdfrwt beam="1">  1       21 0.24499671E-01 0.25405279E+03</pdfrwt>
<pdfrwt beam="2">  1       21 0.69752993E-01 0.25405279E+03</pdfrwt>
<totfact> 0.28497180E+04</totfact>
</mgrwt>
</event>
<event>
 5    0  0.2159162E+000  0.4781585E+03  0.7546771E-02  0.1019642E+00
         21   -1    0    0  502  501  0.00000000000E+00  0.00000000000E+00  0.36671786642E+03  0.36671786642E+03  0.00000000000E+00 0.  1.
         21   -1    0    0  503  502 -0.00000000000E+00 -0.00000000000E+00 -0.70602115274E+03  0.70602115274E+03  0.00000000000E+00 0.  1.
         25    1    1    2    0    0 -0.25960988444E+03 -0.38159305799E+03  0.31032814730E+02  0.47916447030E+03  0.12500000000E+03 0.  0.
         21    1    1    2  503  504  0.23688325713E+03  0.36705430572E+03 -0.35064883132E+03  0.56017599357E+03  0.00000000000E+00 0.  1.
         21    1    1    2  504  501  0.22726627309E+02  0.14538752267E+02 -0.19687269728E+02  0.33398555293E+02  0.00000000000E+00 0. -1.
<mgrwt>
<rscale>  4 0.47815850E+03</rscale>
<asrwt>0</asrwt>
<pdfrwt beam="1">  1       21 0.56418133E-01 0.47815850E+03</pdfrwt>
<pdfrwt beam="2">  1       21 0.10861864E+00 0.47815850E+03</pdfrwt>
<totfact> 0.16914342E+03</totfact>
</mgrwt>
</event>
<event>
 5    0  0.2159162E+000  0.2416153E+03  0.7546771E-02  0.1118721E+00
         21   -1    0    0  502  501  0.00000000000E+00  0.00000000000E+00  0.10408392255E+04  0.10408392255E+04  0.00000000000E+00 0.  1.
         21   -1    0    0  503  502 -0.00000000000E+00 -0.00000000000E+00 -0.28775304491E+03  0.28775304491E+03  0.00000000000E+00 0.  1.
         25    1    1    2    0    0  0.92039157989E+02 -0.18515327712E+03  0.97985134557E+03  0.10092009721E+04  0.12500000000E+03 0.  0.
         21    1    1    2  503  504 -0.67167202251E+02  0.64328704084E+02 -0.14189439558E+03  0.16965740397E+03  0.00000000000E+00 0.  1.
         21    1    1    2  504  501 -0.24871955738E+02  0.12082457304E+03 -0.84870769380E+02  0.14973389438E+03  0.00000000000E+00 0.  1.
<mgrwt>
<rscale>  4 0.24161528E+03</rscale>
<asrwt>0</asrwt>
<pdfrwt beam="1">  1       21 0.16012911E+00 0.24161528E+03</pdfrwt>
<pdfrwt beam="2">  1       21 0.44269700E-01 0.24161528E+03</pdfrwt>
<totfact> 0.11750396E+03</totfact>
</mgrwt>
</event>
<event>
 5    0  0.2159162E+000  0.3095376E+03  0.7546771E-02  0.1080568E+00
         21   -1    0    0  502  501  0.00000000000E+00  0.00000000000E+00  0.11143295755E+03  0.11143295755E+03  0.00000000000E+00 0. -1.
         21   -1    0    0  503  502 -0.00000000000E+00 -0.00000000000E+00 -0.12688303330E+04  0.12688303330E+04  0.00000000000E+00 0. -1.
         25    1    1    2    0    0  0.25957849954E+03 -0.11317029401E+03 -0.17586952729E+03  0.35601067892E+03  0.12500000000E+03 0.  0.
         21    1    1    2  503  504 -0.20339123015E+03  0.10241503462E+03 -0.67347147281E+03  0.71092943145E+03  0.00000000000E+00 0. -1.
         21    1    1    2  504  501 -0.56187269394E+02  0.10755259396E+02 -0.30805637538E+03  0.31332318021E+03  0.00000000000E+00 0. -1.
<mgrwt>
<rscale>  4 0.30953758E+03</rscale>
<asrwt>0</asrwt>
<pdfrwt beam="1">  1       21 0.17143533E-01 0.30953758E+03</pdfrwt>
<pdfrwt beam="2">  1       21 0.19520466E+00 0.30953758E+03</pdfrwt>
<totfact> 0.40598386E+03</totfact>
</mgrwt>
</event>
<event>
 5    0  0.2285667E+000  0.2452629E+03  0.7546771E-02  0.1116336E+00
         21   -1    0    0  502  501  0.00000000000E+00  0.00000000000E+00  0.81646517592E+02  0.81646517592E+02  0.00000000000E+00 0. -1.
         21   -1    0    0  503  502 -0.00000000000E+00 -0.00000000000E+00 -0.66563207561E+03  0.66563207561E+03  0.00000000000E+00 0. -1.
         25    1    1    2    0    0  0.29170351632E+02  0.20899279749E+03 -0.26762880065E+03  0.36301387543E+03  0.12500000000E+03 0.  0.
         21    1    1    2  503  504 -0.95667076386E+01 -0.41149793957E+02 -0.10817373890E+03  0.11613089695E+03  0.00000000000E+00 0. -1.
         21    1    1    2  504  501 -0.19603643993E+02 -0.16784300353E+03 -0.20818301846E+03  0.26813382082E+03  0.00000000000E+00 0. -1.
<mgrwt>
<rscale>  4 0.24526292E+03</rscale>
<asrwt>0</asrwt>
<pdfrwt beam="1">  1       21 0.12561003E-01 0.24526292E+03</pdfrwt>
<pdfrwt beam="2">  1       21 0.10240494E+00 0.24526292E+03</pdfrwt>
<totfact> 0.40864439E+04</totfact>
</mgrwt>
</event>
<event>
 5    0  0.2159162E+000  0.3769807E+03  0.7546771E-02  0.1052055E+00
         21   -1    0    0  502  501  0.00000000000E+00  0.00000000000E+00  0.63210551166E+03  0.63210551166E+03  0.00000000000E+00 0.  1.
         21   -1    0    0  503  502 -0.00000000000E+00 -0.00000000000E+00 -0.26991025847E+03  0.26991025847E+03  0.00000000000E+00 0. -1.
         25    1    1    2    0    0 -0.29909490540E+03  0.19243616330E+03  0.37921994462E+03  0.53471693987E+03  0.12500000000E+03 0.  0.
         21    1    1    2  503  504  0.26184967076E+03 -0.17955278707E+03 -0.42562685336E+02  0.32033737778E+03  0.00000000000E+00 0. -1.
         21    1    1    2  504  501  0.37245234643E+02 -0.12883376235E+02  0.25537993904E+02  0.46961452485E+02  0.00000000000E+00 0.  1.
<mgrwt>
<rscale>  4 0.37698069E+03</rscale>
<asrwt>0</asrwt>
<pdfrwt beam="1">  1       21 0.97247001E-01 0.37698069E+03</pdfrwt>
<pdfrwt beam="2">  1       21 0.41524655E-01 0.37698069E+03</pdfrwt>
<totfact> 0.44068707E+03</totfact>
</mgrwt>
</event>
