<event>
 5    0  0.1856407E+000  0.2659364E+03  0.7546771E-02  0.1103628E+00
         21   -1    0    0  502  501  0.00000000000E+00  0.00000000000E+00  0.20650544905E+04  0.20650544905E+04  0.00000000000E+00 0. -1.
         21   -1    0    0  503  502 -0.00000000000E+00 -0.00000000000E+00 -0.21435094179E+03  0.21435094179E+03  0.00000000000E+00 0.  1.
         25    1    1    2    0    0  0.23489176282E+03  0.12341271923E+02  0.19606781898E+04  0.19786890638E+04  0.12500000000E+03 0.  0.
         21    1    1    2  503  504 -0.22193180282E+03 -0.55654281556E+02 -0.11342423087E+03  0.25537458822E+03  0.00000000000E+00 0.  1.
         21    1    1    2  504  501 -0.12959959993E+02  0.43313009633E+02  0.34495897671E+01  0.45341780248E+02  0.00000000000E+00 0. -1.
<mgrwt>
<rscale>  4 0.26593640E+03</rscale>
<asrwt>0</asrwt>
<pdfrwt beam="1">  1       21 0.31770068E+00 0.26593640E+03</pdfrwt>
<pdfrwt beam="2">  1       21 0.32977069E-01 0.26593640E+03</pdfrwt>
<totfact> 0.21661560E+02</totfact>
</mgrwt>
</event>
<event>
 5    0  0.1856407E+000  0.2131253E+03  0.7546771E-02  0.1139115E+00
         21   -1    0    0  502  501  0.00000000000E+00  0.00000000000E+00  0.37630324682E+03  0.37630324682E+03  0.00000000000E+00 0. -1.
         21   -1    0    0  503  502 -0.00000000000E+00 -0.00000000000E+00 -0.22832858059E+03  0.22832858059E+03  0.00000000000E+00 0. -1.
         25    1    1    2    0    0 -0.15154868799E+03 -0.15708981470E+03  0.18823906131E+03  0.31417058888E+03  0.12500000000E+03 0.  0.
         21    1    1    2  503  504  0.10405049168E+03  0.22267760031E+02 -0.89740558142E+02  0.13919671595E+03  0.00000000000E+00 0. -1.
         21    1    1    2  504  501  0.47498196306E+02  0.13482205467E+03  0.49476163062E+02  0.15126452257E+03  0.00000000000E+00 0. -1.
<mgrwt>
<rscale>  4 0.21312528E+03</rscale>
<asrwt>0</asrwt>
<pdfrwt beam="1">  1       21 0.57892807E-01 0.21312528E+03</pdfrwt>
<pdfrwt beam="2">  1       21 0.35127474E-01 0.21312528E+03</pdfrwt>
<totfact> 0.21595860E+04</totfact>
</mgrwt>
</event>
<event>
 5    0  0.2132056E+000  0.2842814E+03  0.7546771E-02  0.1093373E+00
         21   -1    0    0  502  501  0.00000000000E+00  0.00000000000E+00  0.14654842910E+04  0.14654842910E+04  0.00000000000E+00 0.  1.
         21   -1    0    0  503  502 -0.00000000000E+00 -0.00000000000E+00 -0.97428498181E+02  0.97428498181E+02  0.00000000000E+00 0.  1.
         25    1    1    2    0    0  0.53297719456E+02 -0.25739054659E+03  0.12017358193E+04  0.12364806993E+04  0.12500000000E+03 0.  0.
         21    1    1    2  503  504 -0.70971094891E+02  0.21965726503E+03  0.16674426071E+03  0.28476281160E+03  0.00000000000E+00 0.  1.
         21    1    1    2  504  501  0.17673375435E+02  0.37733281561E+02 -0.42428713579E+00  0.41669278326E+02  0.00000000000E+00 0.  1.
<mgrwt>
<rscale>  4 0.28428138E+03</rscale>
<asrwt>0</asrwt>
<pdfrwt beam="1">  1       21 0.22545911E+00 0.28428138E+03</pdfrwt>
<pdfrwt beam="2">  1       21 0.14989001E-01 0.28428138E+03</pdfrwt>
<totfact> 0.33849755E+03</totfact>
</mgrwt>
</event>
<event>
 5    0  0.1856407E+000  0.2732838E+03  0.7546771E-02  0.1099415E+00
         21   -1    0    0  502  501  0.00000000000E+00  0.00000000000E+00  0.43938363497E+03  0.43938363497E+03  0.00000000000E+00 0. -1.
         21   -1    0    0  503  502 -0.00000000000E+00 -0.00000000000E+00 -0.42419287235E+03  0.42419287235E+03  0.00000000000E+00 0. -1.
         25    1    1    2    0    0  0.23663692313E+03  0.55335374187E+02  0.35176302173E+03  0.44544501398E+03  0.12500000000E+03 0.  0.
         21    1    1    2  503  504 -0.98094243172E+02 -0.44488863053E+01 -0.10719035146E+03  0.14536865060E+03  0.00000000000E+00 0. -1.
         21    1    1    2  504  501 -0.13854267995E+03 -0.50886487881E+02 -0.22938190766E+03  0.27276284274E+03  0.00000000000E+00 0. -1.
<mgrwt>
<rscale>  4 0.27328380E+03</rscale>
<asrwt>0</asrwt>
<pdfrwt beam="1">  1       21 0.67597483E-01 0.27328380E+03</pdfrwt>
<pdfrwt beam="2">  1       21 0.65260442E-01 0.27328380E+03</pdfrwt>
<totfact> 0.40888165E+03</totfact>
</mgrwt>
</event>
<event>
 5    0  0.1856407E+000  0.2582640E+03  0.7546771E-02  0.1108191E+00
         21   -1    0    0  502  501  0.00000000000E+00  0.00000000000E+00  0.21319596139E+03  0.21319596139E+03  0.00000000000E+00 0. -1.
         21   -1    0    0  503  502 -0.00000000000E+00 -0.00000000000E+00 -0.47015624462E+03  0.47015624462E+03  0.00000000000E+00 0. -1.
         25    1    1    2    0    0  0.61530751827E+02  0.21746091265E+03  0.81318737689E+02  0.27076376983E+03  0.12500000000E+03 0.  0.
         21    1    1    2  503  504 -0.23930714900E+02 -0.49797376629E+02 -0.13830834851E+03  0.14893507680E+03  0.00000000000E+00 0. -1.
         21    1    1    2  504  501 -0.37600036927E+02 -0.16766353602E+03 -0.19997067242E+03  0.26365335939E+03  0.00000000000E+00 0. -1.
<mgrwt>
<rscale>  4 0.25826398E+03</rscale>
<asrwt>0</asrwt>
<pdfrwt beam="1">  1       21 0.32799379E-01 0.25826398E+03</pdfrwt>
<pdfrwt beam="2">  1       21 0.72331730E-01 0.25826398E+03</pdfrwt>
<totfact> 0.14852343E+04</totfact>
</mgrwt>
</event>
<event>
 5    0  0.1856407E+000  0.3827699E+03  0.7546771E-02  0.1049915E+00
         21   -1    0    0  502  501  0.00000000000E+00  0.00000000000E+00  0.54585653706E+03  0.54585653706E+03  0.00000000000E+00 0. -1.
         21   -1    0    0  503  502 -0.00000000000E+00 -0.00000000000E+00 -0.46581775360E+03  0.46581775360E+03  0.00000000000E+00 0. -1.
         25    1    1    2    0    0  0.26169428081E+03 -0.24980779487E+03  0.37853123420E+03  0.53832957030E+03  0.12500000000E+03 0.  0.
         21    1    1    2  503  504 -0.22928481182E+03  0.20659409890E+03 -0.27861398804E+03  0.41578648482E+03  0.00000000000E+00 0. -1.
         21    1    1    2  504  501 -0.32409468993E+02  0.43213695969E+02 -0.19878462701E+02  0.57558235545E+02  0.00000000000E+00 0. -1.
<mgrwt>
<rscale>  4 0.38276995E+03</rscale>
<asrwt>0</asrwt>
<pdfrwt beam="1">  1       21 0.83977929E-01 0.38276995E+03</pdfrwt>
<pdfrwt beam="2">  1       21 0.71664270E-01 0.38276995E+03</pdfrwt>
<totfact> 0.19207568E+03</totfact>
</mgrwt>
</event>
<event>
 5    0  0.1856407E+000  0.2661714E+03  0.7546771E-02  0.1103491E+00
         21   -1    0    0  502  501  0.00000000000E+00  0.00000000000E+00  0.89553148092E+03  0.89553148092E+03  0.00000000000E+00 0. -1.
         21   -1    0    0  503  502 -0.00000000000E+00 -0.00000000000E+00 -0.37909817541E+03  0.37909817541E+03  0.00000000000E+00 0. -1.
         25    1    1    2    0    0  0.26726555069E+02 -0.23435202365E+03  0.82663613076E+03  0.86866994446E+03  0.12500000000E+03 0.  0.
         21    1    1    2  503  504 -0.13442577264E+01  0.22196453263E+03 -0.30503272107E+03  0.37724663246E+03  0.00000000000E+00 0. -1.
         21    1    1    2  504  501 -0.25382297343E+02  0.12387491021E+02 -0.51701041796E+01  0.28713079414E+02  0.00000000000E+00 0.  1.
<mgrwt>
<rscale>  4 0.26617135E+03</rscale>
<asrwt>0</asrwt>
<pdfrwt beam="1">  1       21 0.13777407E+00 0.26617135E+03</pdfrwt>
<pdfrwt beam="2">  1       21 0.58322797E-01 0.26617135E+03</pdfrwt>
<totfact> 0.96160665E+02</totfact>
</mgrwt>
</event>
