<event>
 5    0  0.1911311E+001  0.5229455E+03  0.7546771E-02  0.1007957E+00
         21   -1    0    0  504  501  0.00000000000E+00  0.00000000000E+00  0.63272843105E+03  0.63272843105E+03  0.00000000000E+00 0. -1.
         21   -1    0    0  503  502 -0.00000000000E+00 -0.00000000000E+00 -0.84394887426E+03  0.84394887426E+03  0.00000000000E+00 0. -1.
         25    1    1    2    0    0 -0.40797344517E+02  0.52677427434E+03  0.23670089392E+03  0.59229036174E+03  0.12500000000E+03 0.  0.
         21    1    1    2  503  501 -0.62790270379E+02 -0.50100257069E+03 -0.54296837088E+03  0.74145859336E+03  0.00000000000E+00 0. -1.
         21    1    1    2  504  502  0.10358761490E+03 -0.25771703658E+02  0.95047033750E+02  0.14292835021E+03  0.00000000000E+00 0. -1.
<mgrwt>
<rscale>  4 0.52294551E+03</rscale>
<asrwt>0</asrwt>
<pdfrwt beam="1">  1       21 0.97342836E-01 0.52294551E+03</pdfrwt>
<pdfrwt beam="2">  1       21 0.12983829E+00 0.52294551E+03</pdfrwt>
<totfact> 0.30357145E+02</totfact>
</mgrwt>
</event>
<event>
 5    0  0.2886826E+001  0.2991387E+03  0.7546771E-02  0.1085672E+00
         21   -1    0    0  502  501  0.00000000000E+00  0.00000000000E+00  0.81844028806E+03  0.81844028806E+03  0.00000000000E+00 0.  1.
         21   -1    0    0  504  502 -0.00000000000E+00 -0.00000000000E+00 -0.14378696714E+03  0.14378696714E+03  0.00000000000E+00 0.  1.
         25    1    1    2    0    0 -0.17974474749E+03 -0.20212357841E+03  0.12327718290E+03  0.32246608973E+03  0.12500000000E+03 0.  0.
         21    1    1    2  503  501  0.21309149149E+02 -0.19657554199E+02  0.53399118505E+01  0.29479042269E+02  0.00000000000E+00 0. -1.
         21    1    1    2  504  503  0.15843559834E+03  0.22178113261E+03  0.54603622617E+03  0.61028212320E+03  0.00000000000E+00 0.  1.
<mgrwt>
<rscale>  4 0.29913871E+03</rscale>
<asrwt>0</asrwt>
<pdfrwt beam="1">  1       21 0.12591389E+00 0.29913871E+03</pdfrwt>
<pdfrwt beam="2">  1       21 0.22121072E-01 0.29913871E+03</pdfrwt>
<totfact> 0.83841528E+03</totfact>
</mgrwt>
</event>
<event>
 5    0  0.1911311E+001  0.2604015E+03  0.7546771E-02  0.1106902E+00
         21   -1    0    0  502  501  0.00000000000E+00  0.00000000000E+00  0.10170325104E+04  0.10170325104E+04  0.00000000000E+00 0.  1.
         21   -1    0    0  504  502 -0.00000000000E+00 -0.00000000000E+00 -0.34852431102E+03  0.34852431102E+03  0.00000000000E+00 0.  1.
         25    1    1    2    0    0  0.17038734346E+03  0.20156073749E+03 -0.31317930011E+02  0.29370800202E+03  0.12500000000E+03 0.  0.
         21    1    1    2  503  501 -0.16269565222E+03 -0.15601377452E+03  0.86833926280E+03  0.89711941703E+03  0.00000000000E+00 0.  1.
         21    1    1    2  504  503 -0.76916912397E+01 -0.45546962966E+02 -0.16851313337E+03  0.17472940242E+03  0.00000000000E+00 0.  1.
<mgrwt>
<rscale>  4 0.26040150E+03</rscale>
<asrwt>0</asrwt>
<pdfrwt beam="1">  1       21 0.15646654E+00 0.26040150E+03</pdfrwt>
<pdfrwt beam="2">  1       21 0.53619125E-01 0.26040150E+03</pdfrwt>
<totfact> 0.82536988E+02</totfact>
</mgrwt>
</event>
