<event>
 5    0  0.2039092E+000  0.2579707E+03  0.7546771E-02  0.1108369E+00
         21   -1    0    0  502  501  0.00000000000E+00  0.00000000000E+00  0.11224759947E+04  0.11224759947E+04  0.00000000000E+00 0.  1.
         21   -1    0    0  503  502 -0.00000000000E+00 -0.00000000000E+00 -0.68718410293E+02  0.68718410293E+02  0.00000000000E+00 0. -1.
         25    1    1    2    0    0 -0.47794303492E+02 -0.22054383380E+03  0.83736705067E+03  0.87620343278E+03  0.12500000000E+03 0.  0.
         21    1    1    2  503  504  0.43133566571E+02  0.20006373144E+03  0.17803410131E+03  0.27126028539E+03  0.00000000000E+00 0. -1.
         21    1    1    2  504  501  0.46607369212E+01  0.20480102366E+02  0.38356432462E+02  0.43730686855E+02  0.00000000000E+00 0. -1.
<mgrwt>
<rscale>  4 0.25797069E+03</rscale>
<asrwt>0</asrwt>
<pdfrwt beam="1">  1       21 0.17268860E+00 0.25797069E+03</pdfrwt>
<pdfrwt beam="2">  1       21 0.10572064E-01 0.25797069E+03</pdfrwt>
<totfact> 0.14388193E+04</totfact>
</mgrwt>
</event>
<event>
 5    0  0.1856407E+000  0.2487436E+03  0.7546771E-02  0.1114101E+00
         21   -1    0    0  502  501  0.00000000000E+00  0.00000000000E+00  0.37132002474E+03  0.37132002474E+03  0.00000000000E+00 0.  1.
         21   -1    0    0  503  502 -0.00000000000E+00 -0.00000000000E+00 -0.18249383846E+03  0.18249383846E+03  0.00000000000E+00 0.  1.
         25    1    1    2    0    0  0.49416783931E+01 -0.21499752074E+03  0.21199967761E+03  0.32682903392E+03  0.12500000000E+03 0.  0.
         21    1    1    2  503  504 -0.18298409361E+02  0.90538982759E+02 -0.40051234790E+02  0.10067889845E+03  0.00000000000E+00 0.  1.
         21    1    1    2  504  501  0.13356730968E+02  0.12445853798E+03  0.16877743469E+02  0.12630593083E+03  0.00000000000E+00 0.  1.
<mgrwt>
<rscale>  4 0.24874355E+03</rscale>
<asrwt>0</asrwt>
<pdfrwt beam="1">  1       21 0.57126158E-01 0.24874355E+03</pdfrwt>
<pdfrwt beam="2">  1       21 0.28075975E-01 0.24874355E+03</pdfrwt>
<totfact> 0.33935983E+04</totfact>
</mgrwt>
</event>
<event>
 5    0  0.1856407E+000  0.2975653E+03  0.7546771E-02  0.1086464E+00
         21   -1    0    0  502  501  0.00000000000E+00  0.00000000000E+00  0.11259992820E+03  0.11259992820E+03  0.00000000000E+00 0. -1.
         21   -1    0    0  503  502 -0.00000000000E+00 -0.00000000000E+00 -0.80171449120E+03  0.80171449120E+03  0.00000000000E+00 0. -1.
         25    1    1    2    0    0  0.26043458531E+03  0.71371877091E+02 -0.46734974785E+03  0.55404052639E+03  0.12500000000E+03 0.  0.
         21    1    1    2  503  504 -0.21219426417E+03 -0.46587594186E+02 -0.21494687392E+03  0.30561244786E+03  0.00000000000E+00 0. -1.
         21    1    1    2  504  501 -0.48240321137E+02 -0.24784282904E+02 -0.68179412291E+01  0.54661445143E+02  0.00000000000E+00 0. -1.
<mgrwt>
<rscale>  4 0.29756532E+03</rscale>
<asrwt>0</asrwt>
<pdfrwt beam="1">  1       21 0.17323065E-01 0.29756532E+03</pdfrwt>
<pdfrwt beam="2">  1       21 0.12334069E+00 0.29756532E+03</pdfrwt>
<totfact> 0.14011023E+04</totfact>
</mgrwt>
</event>
<event>
 5    0  0.1856407E+000  0.2354254E+03  0.7546771E-02  0.1122878E+00
         21   -1    0    0  502  501  0.00000000000E+00  0.00000000000E+00  0.11394938670E+03  0.11394938670E+03  0.00000000000E+00 0. -1.
         21   -1    0    0  503  502 -0.00000000000E+00 -0.00000000000E+00 -0.75315731624E+03  0.75315731624E+03  0.00000000000E+00 0.  1.
         25    1    1    2    0    0 -0.16509675842E+03 -0.12300310928E+03 -0.74793309996E+02  0.25220179173E+03  0.12500000000E+03 0.  0.
         21    1    1    2  503  504  0.14722847742E+02  0.13661689009E+02 -0.24116455375E+03  0.24199947516E+03  0.00000000000E+00 0. -1.
         21    1    1    2  504  501  0.15037391068E+03  0.10934142027E+03 -0.32325006580E+03  0.37290543605E+03  0.00000000000E+00 0.  1.
<mgrwt>
<rscale>  4 0.23542538E+03</rscale>
<asrwt>0</asrwt>
<pdfrwt beam="1">  1       21 0.17530675E-01 0.23542538E+03</pdfrwt>
<pdfrwt beam="2">  1       21 0.11587036E+00 0.23542538E+03</pdfrwt>
<totfact> 0.16526240E+04</totfact>
</mgrwt>
</event>
<event>
 5    0  0.1856407E+000  0.2200475E+03  0.7546771E-02  0.1133848E+00
         21   -1    0    0  502  501  0.00000000000E+00  0.00000000000E+00  0.12442891768E+04  0.12442891768E+04  0.00000000000E+00 0.  1.
         21   -1    0    0  503  502 -0.00000000000E+00 -0.00000000000E+00 -0.69043205487E+02  0.69043205487E+02  0.00000000000E+00 0.  1.
         25    1    1    2    0    0  0.79208623839E+02  0.20139439686E+03  0.62246643183E+03  0.67076312357E+03  0.12500000000E+03 0.  0.
         21    1    1    2  503  504 -0.10780629754E+03 -0.33377581725E+02  0.75523054048E+02  0.13579393375E+03  0.00000000000E+00 0.  1.
         21    1    1    2  504  501  0.28597673698E+02 -0.16801681514E+03  0.47725648539E+03  0.50677532493E+03  0.00000000000E+00 0.  1.
<mgrwt>
<rscale>  4 0.22004755E+03</rscale>
<asrwt>0</asrwt>
<pdfrwt beam="1">  1       21 0.19142909E+00 0.22004755E+03</pdfrwt>
<pdfrwt beam="2">  1       21 0.10622033E-01 0.22004755E+03</pdfrwt>
<totfact> 0.10893872E+04</totfact>
</mgrwt>
</event>
<event>
 5    0  0.1856407E+000  0.2458852E+03  0.7546771E-02  0.1115933E+00
         21   -1    0    0  502  501  0.00000000000E+00  0.00000000000E+00  0.92850143554E+03  0.92850143554E+03  0.00000000000E+00 0. -1.
         21   -1    0    0  503  502 -0.00000000000E+00 -0.00000000000E+00 -0.18325596606E+03  0.18325596606E+03  0.00000000000E+00 0. -1.
         25    1    1    2    0    0 -0.10624459355E+03  0.21483387560E+03  0.78807959379E+03  0.83314821846E+03  0.12500000000E+03 0.  0.
         21    1    1    2  503  504  0.35979140065E+02 -0.17586438623E+02  0.36994063742E+02  0.54519190157E+02  0.00000000000E+00 0.  1.
         21    1    1    2  504  501  0.70265453488E+02 -0.19724743698E+03 -0.79828188051E+02  0.22408999299E+03  0.00000000000E+00 0. -1.
<mgrwt>
<rscale>  4 0.24588522E+03</rscale>
<asrwt>0</asrwt>
<pdfrwt beam="1">  1       21 0.14284637E+00 0.24588522E+03</pdfrwt>
<pdfrwt beam="2">  1       21 0.28193226E-01 0.24588522E+03</pdfrwt>
<totfact> 0.39167808E+03</totfact>
</mgrwt>
</event>
<event>
 5    0  0.1856407E+000  0.2395107E+03  0.7546771E-02  0.1120119E+00
         21   -1    0    0  502  501  0.00000000000E+00  0.00000000000E+00  0.34617874846E+02  0.34617874846E+02  0.00000000000E+00 0. -1.
         21   -1    0    0  503  502 -0.00000000000E+00 -0.00000000000E+00 -0.15719401587E+04  0.15719401587E+04  0.00000000000E+00 0. -1.
         25    1    1    2    0    0  0.15861911075E+03  0.12876476569E+03 -0.79491306949E+03  0.83021212664E+03  0.12500000000E+03 0.  0.
         21    1    1    2  503  504 -0.83908591115E+02 -0.87492805826E+01 -0.23846117124E+03  0.25294452309E+03  0.00000000000E+00 0. -1.
         21    1    1    2  504  501 -0.74710519631E+02 -0.12001548510E+03 -0.50394804314E+03  0.52340138383E+03  0.00000000000E+00 0. -1.
<mgrwt>
<rscale>  4 0.23951072E+03</rscale>
<asrwt>0</asrwt>
<pdfrwt beam="1">  1       21 0.53258275E-02 0.23951072E+03</pdfrwt>
<pdfrwt beam="2">  1       21 0.24183692E+00 0.23951072E+03</pdfrwt>
<totfact> 0.17293039E+04</totfact>
</mgrwt>
</event>
<event>
 5    0  0.1856407E+000  0.2407061E+03  0.7546771E-02  0.1119323E+00
         21   -1    0    0  502  501  0.00000000000E+00  0.00000000000E+00  0.25678539102E+03  0.25678539102E+03  0.00000000000E+00 0.  1.
         21   -1    0    0  503  502 -0.00000000000E+00 -0.00000000000E+00 -0.17129139075E+04  0.17129139075E+04  0.00000000000E+00 0. -1.
         25    1    1    2    0    0  0.14692604919E+03  0.14777276237E+03  0.18830850221E+03  0.30742339734E+03  0.12500000000E+03 0.  0.
         21    1    1    2  503  504 -0.11413142481E+03 -0.86141337389E+02 -0.14212445248E+04  0.14284195152E+04  0.00000000000E+00 0. -1.
         21    1    1    2  504  501 -0.32794624376E+02 -0.61631424981E+02 -0.22319249389E+03  0.23385638597E+03  0.00000000000E+00 0.  1.
<mgrwt>
<rscale>  4 0.24070609E+03</rscale>
<asrwt>0</asrwt>
<pdfrwt beam="1">  1       21 0.39505443E-01 0.24070609E+03</pdfrwt>
<pdfrwt beam="2">  1       21 0.26352523E+00 0.24070609E+03</pdfrwt>
<totfact> 0.32211164E+02</totfact>
</mgrwt>
</event>
<event>
 5    0  0.1856407E+000  0.1959804E+03  0.7546771E-02  0.1153175E+00
         21   -1    0    0  502  501  0.00000000000E+00  0.00000000000E+00  0.18039248195E+03  0.18039248195E+03  0.00000000000E+00 0. -1.
         21   -1    0    0  503  502 -0.00000000000E+00 -0.00000000000E+00 -0.41803453254E+03  0.41803453254E+03  0.00000000000E+00 0.  1.
         25    1    1    2    0    0 -0.60760944529E+02 -0.21703475797E+03 -0.16167409881E+02  0.25822928512E+03  0.12500000000E+03 0.  0.
         21    1    1    2  503  504  0.60916060289E+02  0.12419761616E+03 -0.20282268858E+03  0.24550531005E+03  0.00000000000E+00 0.  1.
         21    1    1    2  504  501 -0.15511576019E+00  0.92837141811E+02 -0.18651952132E+02  0.94692419332E+02  0.00000000000E+00 0.  1.
<mgrwt>
<rscale>  4 0.19598044E+03</rscale>
<asrwt>0</asrwt>
<pdfrwt beam="1">  1       21 0.27752689E-01 0.19598044E+03</pdfrwt>
<pdfrwt beam="2">  1       21 0.64313005E-01 0.19598044E+03</pdfrwt>
<totfact> 0.27593409E+04</totfact>
</mgrwt>
</event>
<event>
 5    0  0.1856407E+000  0.3060412E+03  0.7546771E-02  0.1082259E+00
         21   -1    0    0  502  501  0.00000000000E+00  0.00000000000E+00  0.50129404562E+03  0.50129404562E+03  0.00000000000E+00 0.  1.
         21   -1    0    0  503  502 -0.00000000000E+00 -0.00000000000E+00 -0.50811526683E+03  0.50811526683E+03  0.00000000000E+00 0. -1.
         25    1    1    2    0    0 -0.11626657196E+03 -0.24691579397E+03  0.36105555697E+03  0.46954386407E+03  0.12500000000E+03 0.  0.
         21    1    1    2  503  504  0.12033969396E+03  0.30582824530E+03 -0.34514141482E+03  0.47658698449E+03  0.00000000000E+00 0. -1.
         21    1    1    2  504  501 -0.40731219975E+01 -0.58912451331E+02 -0.22735363362E+02  0.63278463886E+02  0.00000000000E+00 0.  1.
<mgrwt>
<rscale>  4 0.30604122E+03</rscale>
<asrwt>0</asrwt>
<pdfrwt beam="1">  1       21 0.77122161E-01 0.30604122E+03</pdfrwt>
<pdfrwt beam="2">  1       21 0.78171579E-01 0.30604122E+03</pdfrwt>
<totfact> 0.19943032E+03</totfact>
</mgrwt>
</event>
<event>
 5    0  0.1856407E+000  0.2965125E+03  0.7546771E-02  0.1086997E+00
         21   -1    0    0  502  501  0.00000000000E+00  0.00000000000E+00  0.78640171007E+03  0.78640171007E+03  0.00000000000E+00 0.  1.
         21   -1    0    0  503  502 -0.00000000000E+00 -0.00000000000E+00 -0.10776462099E+03  0.10776462099E+03  0.00000000000E+00 0. -1.
         25    1    1    2    0    0  0.26782014539E+03  0.23812072589E+02  0.41100250173E+03  0.50679650897E+03  0.12500000000E+03 0.  0.
         21    1    1    2  503  504 -0.58437786859E+02 -0.36592124267E+02  0.83126991030E+02  0.10800025523E+03  0.00000000000E+00 0.  1.
         21    1    1    2  504  501 -0.20938235853E+03  0.12780051678E+02  0.18450759632E+03  0.27936956685E+03  0.00000000000E+00 0. -1.
<mgrwt>
<rscale>  4 0.29651247E+03</rscale>
<asrwt>0</asrwt>
<pdfrwt beam="1">  1       21 0.12098487E+00 0.29651247E+03</pdfrwt>
<pdfrwt beam="2">  1       21 0.16579173E-01 0.29651247E+03</pdfrwt>
<totfact> 0.15967602E+04</totfact>
</mgrwt>
</event>
<event>
 5    0  0.1986951E+000  0.2356600E+03  0.7546771E-02  0.1122718E+00
         21   -1    0    0  502  501  0.00000000000E+00  0.00000000000E+00  0.17733621014E+03  0.17733621014E+03  0.00000000000E+00 0.  1.
         21   -1    0    0  503  502 -0.00000000000E+00 -0.00000000000E+00 -0.40476221786E+03  0.40476221786E+03  0.00000000000E+00 0.  1.
         25    1    1    2    0    0  0.50101574152E+02 -0.21163615360E+03 -0.23039671901E+03  0.34059899790E+03  0.12500000000E+03 0.  0.
         21    1    1    2  503  504 -0.28346487599E+02  0.17491301583E+03 -0.39219744683E+02  0.18148353875E+03  0.00000000000E+00 0.  1.
         21    1    1    2  504  501 -0.21755086553E+02  0.36723137771E+02  0.42190455974E+02  0.60015891345E+02  0.00000000000E+00 0.  1.
<mgrwt>
<rscale>  4 0.23566004E+03</rscale>
<asrwt>0</asrwt>
<pdfrwt beam="1">  1       21 0.27282494E-01 0.23566004E+03</pdfrwt>
<pdfrwt beam="2">  1       21 0.62271110E-01 0.23566004E+03</pdfrwt>
<totfact> 0.29963515E+04</totfact>
</mgrwt>
</event>
<event>
 5    0  0.1856407E+000  0.2734212E+03  0.7546771E-02  0.1099337E+00
         21   -1    0    0  502  501  0.00000000000E+00  0.00000000000E+00  0.14137420801E+03  0.14137420801E+03  0.00000000000E+00 0. -1.
         21   -1    0    0  503  502 -0.00000000000E+00 -0.00000000000E+00 -0.14820456943E+04  0.14820456943E+04  0.00000000000E+00 0.  1.
         25    1    1    2    0    0  0.22648078861E+03 -0.89259423757E+02 -0.20421253502E+02  0.27441359283E+03  0.12500000000E+03 0.  0.
         21    1    1    2  503  504 -0.23339708085E+03  0.64468415844E+02 -0.12661592468E+04  0.12891041898E+04  0.00000000000E+00 0.  1.
         21    1    1    2  504  501  0.69162922469E+01  0.24791007913E+02 -0.54090986040E+02  0.59902119684E+02  0.00000000000E+00 0.  1.
<mgrwt>
<rscale>  4 0.27342118E+03</rscale>
<asrwt>0</asrwt>
<pdfrwt beam="1">  1       21 0.21749878E-01 0.27342118E+03</pdfrwt>
<pdfrwt beam="2">  1       21 0.22800703E+00 0.27342118E+03</pdfrwt>
<totfact> 0.16427948E+03</totfact>
</mgrwt>
</event>
<event>
 5    0  0.2864054E+000  0.2906330E+03  0.7546771E-02  0.1090019E+00
         21   -1    0    0  502  501  0.00000000000E+00  0.00000000000E+00  0.14574010778E+04  0.14574010778E+04  0.00000000000E+00 0. -1.
         21   -1    0    0  503  502 -0.00000000000E+00 -0.00000000000E+00 -0.57217460796E+02  0.57217460796E+02  0.00000000000E+00 0. -1.
         25    1    1    2    0    0  0.19855744904E+03  0.16999962749E+03  0.70642113955E+03  0.76353176772E+03  0.12500000000E+03 0.  0.
         21    1    1    2  503  504 -0.21422571783E+03 -0.15378937884E+03  0.65716104411E+03  0.70809919441E+03  0.00000000000E+00 0. -1.
         21    1    1    2  504  501  0.15668268785E+02 -0.16210248657E+02  0.36601433375E+02  0.42987576500E+02  0.00000000000E+00 0. -1.
<mgrwt>
<rscale>  4 0.29063301E+03</rscale>
<asrwt>0</asrwt>
<pdfrwt beam="1">  1       21 0.22421552E+00 0.29063301E+03</pdfrwt>
<pdfrwt beam="2">  1       21 0.88026874E-02 0.29063301E+03</pdfrwt>
<totfact> 0.89487757E+03</totfact>
</mgrwt>
</event>
<event>
 5    0  0.1856407E+000  0.5661049E+03  0.7546771E-02  0.9978335E-01
         21   -1    0    0  502  501  0.00000000000E+00  0.00000000000E+00  0.16128781525E+03  0.16128781525E+03  0.00000000000E+00 0. -1.
         21   -1    0    0  503  502 -0.00000000000E+00 -0.00000000000E+00 -0.22754646978E+04  0.22754646978E+04  0.00000000000E+00 0.  1.
         25    1    1    2    0    0  0.44257904611E+03 -0.33011136062E+03 -0.14930414621E+04  0.15967615758E+04  0.12500000000E+03 0.  0.
         21    1    1    2  503  504 -0.43054943189E+01  0.35926874946E+02 -0.26382433520E+02  0.44780692526E+02  0.00000000000E+00 0.  1.
         21    1    1    2  504  501 -0.43827355179E+03  0.29418448567E+03 -0.59475298694E+03  0.79521024471E+03  0.00000000000E+00 0.  1.
<mgrwt>
<rscale>  4 0.56610487E+03</rscale>
<asrwt>0</asrwt>
<pdfrwt beam="1">  1       21 0.24813511E-01 0.56610487E+03</pdfrwt>
<pdfrwt beam="2">  1       21 0.35007147E+00 0.56610487E+03</pdfrwt>
<totfact> 0.19402120E+02</totfact>
</mgrwt>
</event>
