<LesHouchesEvents version="3.0">
  <!--
  <scalesfunctionalform>
    muR  H_T/2 := sum_i mT(i)/2, i=final state
    muF1 H_T/2 := sum_i mT(i)/2, i=final state
    muF2 H_T/2 := sum_i mT(i)/2, i=final state
    QES  H_T/2 := sum_i mT(i)/2, i=final state
  </scalesfunctionalform>
HERWIG6   
  -->
  <header>
       12
  </header>
  <init>
   2212   2212 0.65000000D+04 0.65000000D+04 -1 -1   244800   244800 -4   1
 0.62948417D-05 0.36770808D-06 0.91499294D-06     66
  </init>
  <event>
  5     66 0.91499294E-06 0.40855279E+02 0.75467711E-02 0.93567518E-01
       -2 -1    0    0    0  501 0.00000000E+00 0.00000000E+00 0.12899512E+04 0.12899512E+04 0.32000000E+00 0.0000E+00 0.9000E+01
       -1 -1    0    0    0  502 0.00000000E+00 0.00000000E+00 -.49605624E+03 0.49605634E+03 0.32000000E+00 0.0000E+00 0.9000E+01
       25  1    1    2    0    0 -.30528727E+03 -.38791510E+03 0.19032653E+03 0.54362453E+03 0.12500000E+03 0.0000E+00 0.9000E+01
       -2  1    1    2    0  501 0.29923691E+03 0.42831602E+03 0.84719359E+03 0.99535643E+03 0.32000000E+00 0.0000E+00 0.9000E+01
       -1  1    1    2    0  502 0.60503592E+01 -.40400923E+02 -.24362514E+03 0.24702663E+03 0.32000000E+00 0.0000E+00 0.9000E+01
#aMCatNLO 1  0  0  5  1 0.18833897D+02 0.00000000D+00  -5  6  0 0.00000000D+00 0.00000000D+00 0.00000000D+00 0.00000000D+00 0.00000000D+00
  <mgrwgt>
 0.4576292188D-03    7    2    0
 0.799930289390737D+03 0.000000000000000D+00 0.000000000000000D+00 0.799930289390737D+03
 0.799930289390737D+03 -.000000000000000D+00 -.000000000000000D+00 -.799930289390737D+03
 0.512407733080016D+03 -.305279405706440D+03 -.387898846543923D+03 -.572333313866770D+02
 0.690747061984000D+03 0.299228171509560D+03 0.428303504333269D+03 0.451829739161130D+03
 0.396705783717457D+03 0.605123419687998D+01 -.404046577893456D+02 -.394596407774453D+03
 0.000000000000000D+00 0.000000000000000D+00 0.000000000000000D+00 0.000000000000000D+00
 0.799930289390737D+03 0.000000000000000D+00 0.000000000000000D+00 0.799930289390737D+03
 0.799930289390737D+03 -.000000000000000D+00 -.000000000000000D+00 -.799930289390737D+03
 0.513195190409825D+03 -.305213829030172D+03 -.388336708156508D+03 -.615095368758791D+02
 0.686676049592199D+03 0.299316243440132D+03 0.427715439799684D+03 0.446086635143219D+03
 0.202048236852890D+02 -.183220208211652D+02 0.305829653929347D+01 -.794891662179090D+01
 0.379784515094159D+03 0.242196064112053D+02 -.424370281824694D+02 -.376628181645549D+03
0.218924507840D-02 0.000000000000D+00 0.000000000000D+00 0.426195974470D-05 0.000000000000D+00  6 -2 -1 25 -2 -1 21 0 0.19845404D+00 0.76316355D-01 0.28758168D+06 0.28758168D+06 0.28758168D+06 0.10859128D+01  1  2  2  4  6  5       -1 0.531621298005D-03 0.100000000000D+01
0.916205835961D-03 0.000000000000D+00 -.840727754254D-05 0.426195974470D-05 0.000000000000D+00  6 -2 -1 25 -2 -1 21 2 0.19845404D+00 0.76316355D-01 0.28758168D+06 0.28758168D+06 0.28758168D+06 0.10859128D+01  1  2  3  4  6  5       -1 0.262355987600D-03 0.100000000000D+01
-.162603051766D-02 0.000000000000D+00 0.000000000000D+00 0.426195974470D-05 0.000000000000D+00  6 -2 -1 25 -2 -1 21 2 0.19845404D+00 0.76316355D-01 0.28758168D+06 0.28758168D+06 0.28758168D+06 0.10859128D+01  1  2 15  4  6  5       -1 -.465614631107D-03 0.100000000000D+01
0.916635580709D-08 0.000000000000D+00 0.000000000000D+00 0.426195974470D-05 0.000000000000D+00  6 -2 -1 25 -2 -1 21 2 0.19845404D+00 0.76316355D-01 0.30193812D+06 0.30193812D+06 0.30193812D+06 0.10843450D+01  1  2 12  4  6  5       -1 0.260982835402D-08 0.100000000000D+01
-.141754692106D-03 0.000000000000D+00 0.000000000000D+00 0.426195974470D-05 0.000000000000D+00  6 -2 -1 25 -2 -1 21 2 0.19845404D+00 0.76316355D-01 0.28758168D+06 0.28758168D+06 0.28758168D+06 0.10859128D+01  1  2  4  4  6  5       -1 -.405915251625D-04 0.100000000000D+01
-.586136027158D-03 0.000000000000D+00 0.000000000000D+00 0.426195974470D-05 0.000000000000D+00  6 -2 -1 25 -2 -1 21 2 0.19845404D+00 0.76316355D-01 0.28758168D+06 0.28758168D+06 0.28758168D+06 0.10859128D+01  1  2  5  4  6  5       -1 -.167840337004D-03 0.100000000000D+01
0.117930938337D-02 0.000000000000D+00 -.000000000000D+00 0.426195974470D-05 0.000000000000D+00  6 -2 -1 25 -2 -1 21 2 0.19845404D+00 0.76316355D-01 0.28758168D+06 0.28758168D+06 0.28758168D+06 0.10859128D+01  1  2  6  4  6  5       -1 0.337695816612D-03 0.100000000000D+01
  </mgrwgt>
  </event>
  <event>
  5     66 0.91499294E-06 0.91987677E+02 0.75467711E-02 0.92522509E-01
       -2 -1    0    0    0  501 0.00000000E+00 0.00000000E+00 0.81115458E+03 0.81115464E+03 0.32000000E+00 0.0000E+00 0.9000E+01
       -1 -1    0    0    0  502 -.00000000E+00 -.00000000E+00 -.12231969E+04 0.12231969E+04 0.32000000E+00 0.0000E+00 0.9000E+01
       25  1    1    2    0    0 -.57178147E+03 0.13927260E+03 0.18729662E+03 0.63010787E+03 0.12500000E+03 0.0000E+00 0.9000E+01
       -2  1    1    2    0  501 0.91595541E+02 -.88879411E+01 0.33406031E+03 0.34650416E+03 0.32000000E+00 0.0000E+00 0.9000E+01
       -1  1    1    2    0  502 0.48018593E+03 -.13038466E+03 -.93339920E+03 0.10577395E+04 0.32000000E+00 0.0000E+00 0.9000E+01
#aMCatNLO 1  0  0  4  2 0.14046153D+02 0.00000000D+00  -5  6  0 0.00000000D+00 0.00000000D+00 0.00000000D+00 0.00000000D+00 0.00000000D+00
  <mgrwgt>
 0.1407233619D-04    7    2    0
 0.996093287134936D+03 0.000000000000000D+00 0.000000000000000D+00 0.996093287134936D+03
 0.996093287134936D+03 -.000000000000000D+00 -.000000000000000D+00 -.996093287134936D+03
 0.682305775034083D+03 -.571824791807092D+03 0.139289782495460D+03 0.321762233041735D+03
 0.422756298717838D+03 0.915576461613234D+02 -.888426395381629D+01 0.412627138454322D+03
 0.887124500517950D+03 0.480267145645769D+03 -.130405518541644D+03 -.734389371496057D+03
 0.000000000000000D+00 0.000000000000000D+00 0.000000000000000D+00 0.000000000000000D+00
 0.996093287134936D+03 0.000000000000000D+00 0.000000000000000D+00 0.996093287134936D+03
 0.996093287134936D+03 -.000000000000000D+00 -.000000000000000D+00 -.996093287134936D+03
 0.682741255195555D+03 -.571482527364914D+03 0.139256570985840D+03 0.323304732257168D+03
 0.398926220854583D+03 0.997434659035224D+02 -.533367152727577D+01 0.386218749729880D+03
 0.885714345638097D+03 0.480711657582218D+03 -.130448651600865D+03 -.732386068702290D+03
 0.248047525816362D+02 -.897259612082635D+01 -.347424785769876D+01 0.228625867152427D+02
0.659256851235D-04 0.000000000000D+00 0.000000000000D+00 0.239265171311D-05 0.000000000000D+00  6 -2 -1 25 -2 -1 21 0 0.12479302D+00 0.18818414D+00 0.35480916D+06 0.35480916D+06 0.35480916D+06 0.10792012D+01  1  2  2  3  6  4       -2 0.579494330913D-05 0.100000000000D+01
0.126978327146D-04 0.000000000000D+00 -.253171989506D-06 0.239265171311D-05 0.000000000000D+00  6 -2 -1 25 -2 -1 21 2 0.12479302D+00 0.18818414D+00 0.35480916D+06 0.35480916D+06 0.35480916D+06 0.10792012D+01  1  2  3  3  6  4       -2 0.129995694531D-05 0.100000000000D+01
-.379319207054D-04 0.000000000000D+00 0.000000000000D+00 0.239265171311D-05 0.000000000000D+00  6 -2 -1 25 -2 -1 21 2 0.12479302D+00 0.18818414D+00 0.35480916D+06 0.35480916D+06 0.35480916D+06 0.10792012D+01  1  2 15  3  6  4       -2 -.388332913798D-05 0.100000000000D+01
0.189955646558D-08 0.000000000000D+00 0.000000000000D+00 0.239265171311D-05 0.000000000000D+00  6 -2 -1 25 -2 -1 21 2 0.12479302D+00 0.18818414D+00 0.36538672D+06 0.36538672D+06 0.36538672D+06 0.10782728D+01  1  2 12  3  6  4       -2 0.193718753286D-09 0.100000000000D+01
-.323784402454D-04 0.000000000000D+00 0.000000000000D+00 0.239265171311D-05 0.000000000000D+00  6 -2 -1 25 -2 -1 21 2 0.12479302D+00 0.18818414D+00 0.35480916D+06 0.35480916D+06 0.35480916D+06 0.10792012D+01  1  2  4  3  6  4       -2 -.331478443772D-05 0.100000000000D+01
-.196153250572D-02 0.000000000000D+00 0.000000000000D+00 0.239265171311D-05 0.000000000000D+00  6 -2 -1 25 -2 -1 21 2 0.12479302D+00 0.18818414D+00 0.35480916D+06 0.35480916D+06 0.35480916D+06 0.10792012D+01  1  2  5  3  6  4       -2 -.200814411527D-03 0.100000000000D+01
0.209999578108D-02 0.000000000000D+00 -.000000000000D+00 0.239265171311D-05 0.000000000000D+00  6 -2 -1 25 -2 -1 21 2 0.12479302D+00 0.18818414D+00 0.35480916D+06 0.35480916D+06 0.35480916D+06 0.10792012D+01  1  2  6  3  6  4       -2 0.214989767316D-03 0.100000000000D+01
  </mgrwgt>
  </event>
  <event>
  5     66 0.91499294E-06 0.13975396E+02 0.75467711E-02 0.93706034E-01
       -2 -1    0    0    0  501 0.00000000E+00 0.00000000E+00 0.31043334E+03 0.31043351E+03 0.32000000E+00 0.0000E+00 0.9000E+01
       -1 -1    0    0    0  502 -.00000000E+00 -.00000000E+00 -.13654943E+04 0.13654943E+04 0.32000000E+00 0.0000E+00 0.9000E+01
       25  1    1    2    0    0 0.13591211E+03 0.50618224E+03 -.50584666E+03 0.73905237E+03 0.12500000E+03 0.0000E+00 0.9000E+01
       -2  1    1    2    0  501 -.14902286E+03 -.51102075E+03 -.17200419E+03 0.55940644E+03 0.32000000E+00 0.0000E+00 0.9000E+01
       -1  1    1    2    0  502 0.13110754E+02 0.48385149E+01 -.37721011E+03 0.37746904E+03 0.32000000E+00 0.0000E+00 0.9000E+01
#aMCatNLO 1  0  0  5  4 0.39291649D+00 0.00000000D+00  -5  6  0 0.00000000D+00 0.00000000D+00 0.00000000D+00 0.00000000D+00 0.00000000D+00
  <mgrwgt>
 0.1762314671D-03    7    2    0
 0.651072292876749D+03 0.000000000000000D+00 0.000000000000000D+00 0.651072292876749D+03
 0.651072292876749D+03 -.000000000000000D+00 -.000000000000000D+00 -.651072292876749D+03
 0.541332477548138D+03 0.135910634549388D+03 0.506178663684476D+03 -.522236641321373D+02
 0.580614707032056D+03 -.149021774025325D+03 -.511017023556833D+03 0.231878309730298D+03
 0.180197401173303D+03 0.131111394759376D+02 0.483835987235681D+01 -.179654645598160D+03
 0.000000000000000D+00 0.000000000000000D+00 0.000000000000000D+00 -.000000000000000D+00
 0.651072292876749D+03 0.000000000000000D+00 0.000000000000000D+00 0.651072292876749D+03
 0.651072292876749D+03 -.000000000000000D+00 -.000000000000000D+00 -.651072292876749D+03
 0.541333685167778D+03 0.135911264126233D+03 0.506178896015110D+03 -.522322908731822D+02
 0.580610619235422D+03 -.149021098765856D+03 -.511016774368094D+03 0.231869057025697D+03
 0.176401739131141D+03 0.131741506017527D+02 0.453910444786101D+01 -.175850538399019D+03
 0.379854221915614D+01 -.643159621293994D-01 0.298773905122555D+00 -.378622775349620D+01
0.258422616173D-05 0.000000000000D+00 0.000000000000D+00 0.108226180112D-05 0.000000000000D+00  6 -2 -1 25 -2 -1 21 0 0.47758991D-01 0.21007606D+00 0.29435256D+06 0.29435256D+06 0.29435256D+06 0.10851630D+01  1  2  2  4  6  5       -1 0.132215177324D-05 0.100000000000D+01
0.170282055988D-05 0.000000000000D+00 -.992410890340D-08 0.108226180112D-05 0.000000000000D+00  6 -2 -1 25 -2 -1 21 2 0.47758991D-01 0.21007606D+00 0.29435256D+06 0.29435256D+06 0.29435256D+06 0.10851630D+01  1  2  3  4  6  5       -1 0.102591091287D-05 0.100000000000D+01
-.159103579077D-05 0.000000000000D+00 0.000000000000D+00 0.108226180112D-05 0.000000000000D+00  6 -2 -1 25 -2 -1 21 2 0.47758991D-01 0.21007606D+00 0.29435256D+06 0.29435256D+06 0.29435256D+06 0.10851630D+01  1  2 15  4  6  5       -1 -.958563115213D-06 0.100000000000D+01
-.531122987075D-02 0.000000000000D+00 0.000000000000D+00 0.108226180112D-05 0.000000000000D+00  6 -2 -1 25 -2 -1 21 2 0.47758991D-01 0.21007606D+00 0.29435256D+06 0.29435256D+06 0.29435256D+06 0.10851630D+01  1  2  4  4  6  5       -1 -.319989599231D-02 0.100000000000D+01
-.751271233621D-02 0.000000000000D+00 0.000000000000D+00 0.108226180112D-05 0.000000000000D+00  6 -2 -1 25 -2 -1 21 2 0.47758991D-01 0.21007606D+00 0.29435256D+06 0.29435256D+06 0.29435256D+06 0.10851630D+01  1  2  5  4  6  5       -1 -.452623943625D-02 0.100000000000D+01
0.776840511726D-02 0.000000000000D+00 -.000000000000D+00 0.108226180112D-05 0.000000000000D+00  6 -2 -1 25 -2 -1 21 2 0.47758991D-01 0.21007606D+00 0.29435256D+06 0.29435256D+06 0.29435256D+06 0.10851630D+01  1  2  6  4  6  5       -1 0.468028855958D-02 0.100000000000D+01
0.534604916364D-02 0.000000000000D+00 0.000000000000D+00 0.108226180112D-05 0.395345030604D-04  6 -2 -1 25 -2 -1 21 2 0.47758991D-01 0.21007606D+00 0.29449600D+06 0.29449600D+06 0.29449600D+06 0.10851473D+01  1  2 11  4  6  5       -1 0.322068883654D-02 0.100000000000D+01
  </mgrwgt>
  </event>
  <event>
  6     66 0.91499294E-06 0.20722134E+03 0.75467711E-02 0.91081570E-01
       -2 -1    0    0    0  501 0.00000000E+00 0.00000000E+00 0.17388094E+04 0.17388094E+04 0.32000000E+00 0.0000E+00 0.9000E+01
       21 -1    0    0  503  502 0.00000000E+00 0.00000000E+00 -.30111378E+03 0.30111471E+03 0.75000000E+00 0.0000E+00 0.9000E+01
       25  1    1    2    0    0 0.60091024E+03 0.29305693E+03 0.91337839E+03 0.11387979E+04 0.12500000E+03 0.0000E+00 0.9000E+01
        1  1    1    2  503    0 -.16919022E+03 -.89701892E+02 0.20528617E+03 0.28073880E+03 0.32000000E+00 0.0000E+00 0.9000E+01
       -2  1    1    2    0  501 -.12893341E+03 -.16151556E+03 0.21318533E+03 0.29691613E+03 0.32000000E+00 0.0000E+00 0.9000E+01
       -1  1    1    2    0  502 -.30278661E+03 -.41839474E+02 0.10584568E+03 0.32347130E+03 0.32000000E+00 0.0000E+00 0.9000E+01
#aMCatNLO 2  0  0  2  1 0.19149872D+03 0.00000000D+00  -5  6  0 0.00000000D+00 0.00000000D+00 0.00000000D+00 0.00000000D+00 0.00000000D+00
  <mgrwgt>
 0.1313610011D-01    1    2    0
 0.620328182379291D+03 0.000000000000000D+00 0.000000000000000D+00 0.620328182379291D+03
 0.620328182379291D+03 0.000000000000000D+00 0.000000000000000D+00 -.620328182379291D+03
 0.604319638862924D+03 0.512556929072553D+03 0.246134070150694D+03 0.162113046625441D+03
 0.000000000000000D+00 -.000000000000000D+00 -.000000000000000D+00 0.000000000000000D+00
 0.238320637906956D+03 -.158995549851644D+03 -.177382513208747D+03 0.725159206663343D+01
 0.398016087988702D+03 -.353561379220909D+03 -.687515569419469D+02 -.169364638692075D+03
 0.729648303426685D+03 0.000000000000000D+00 0.000000000000000D+00 0.729648303426685D+03
 0.717578925532348D+03 0.000000000000000D+00 0.000000000000000D+00 -.717578925532348D+03
 0.699170305871645D+03 0.600913223958334D+03 0.292979135773297D+03 0.162113046625441D+03
 0.191878682073545D+03 -.169190216541709D+03 -.897018917197061D+02 0.120693778943366D+02
 0.206635322455157D+03 -.128834473271228D+03 -.161391602617890D+03 0.725159206663343D+01
 0.349542918558686D+03 -.302888534145397D+03 -.418856414357007D+02 -.169364638692075D+03
0.588878061260D-02 0.000000000000D+00 0.000000000000D+00 0.574432845542D-09 0.817818711233D-09  6 -2 21 25 1 -2 -1 2 0.26750916D+00 0.46325262D-01 0.47879080D+06 0.47879080D+06 0.47879080D+06 0.10698433D+01  1  2  1  6  4  2       -1 0.131361001119D-01 0.100000000000D+01
  </mgrwgt>
  </event>
  <event>
  5     66 -.91499294E-06 0.48658943E+02 0.75467711E-02 0.94437613E-01
       -2 -1    0    0    0  501 0.00000000E+00 0.00000000E+00 0.10774781E+04 0.10774782E+04 0.32000000E+00 0.0000E+00 0.9000E+01
       -1 -1    0    0    0  502 0.00000000E+00 0.00000000E+00 -.97635906E+03 0.97635911E+03 0.32000000E+00 0.0000E+00 0.9000E+01
       25  1    1    2    0    0 0.12106718E+03 0.48011254E+03 -.64472679E+02 0.51473007E+03 0.12500000E+03 0.0000E+00 0.9000E+01
       -2  1    1    2    0  501 -.38141159E+02 -.30222841E+02 0.77531869E+03 0.77684448E+03 0.32000000E+00 0.0000E+00 0.9000E+01
       -1  1    1    2    0  502 -.82926021E+02 -.44988970E+03 -.60972693E+03 0.76226275E+03 0.32000000E+00 0.0000E+00 0.9000E+01
#aMCatNLO 1  0  0  5  2 0.72858581D+01 0.00000000D+00  -5  6  0 0.00000000D+00 0.00000000D+00 0.00000000D+00 0.00000000D+00 0.00000000D+00
  <mgrwgt>
 -.1515132752D-02    9    2    0
 0.102567326297886D+04 0.000000000000000D+00 0.000000000000000D+00 0.102567326297886D+04
 0.102567326297886D+04 -.000000000000000D+00 -.000000000000000D+00 -.102567326297886D+04
 0.518578508476046D+03 0.121076639737152D+03 0.480171294899031D+03 -.898590246897188D+02
 0.739494855235662D+03 -.381373302084973D+02 -.302198072962422D+02 0.737892233467435D+03
 0.793273162246017D+03 -.829393095286543D+02 -.449951487602789D+03 -.648033208777716D+03
 0.000000000000000D+00 0.000000000000000D+00 0.000000000000000D+00 -.000000000000000D+00
 0.102567326297886D+04 0.000000000000000D+00 0.000000000000000D+00 0.102567326297886D+04
 0.102567326297886D+04 -.000000000000000D+00 -.000000000000000D+00 -.102567326297886D+04
 0.518524010314679D+03 0.121062672417834D+03 0.480095521226203D+03 -.899681561354348D+02
 0.739345030162727D+03 -.381572466859188D+02 -.303278555630356D+02 0.737736619213538D+03
 0.739339624265021D+03 -.777607614564004D+02 -.425284124925318D+03 -.599758082123592D+03
 0.541378612152993D+02 -.514466427551456D+01 -.244835407378489D+02 -.480103809545118D+02
0.850905980880D-04 0.000000000000D+00 0.000000000000D+00 0.261797799846D-04 0.000000000000D+00  6 -2 -1 25 -2 -1 21 0 0.16576588D+00 0.15020909D+00 0.25853384D+06 0.25853384D+06 0.25853384D+06 0.10893641D+01  1  2  2  4  6  5       -1 0.722129873256D-05 0.100000000000D+01
0.385423179173D-04 0.000000000000D+00 -.326770301527D-06 0.261797799846D-04 0.000000000000D+00  6 -2 -1 25 -2 -1 21 2 0.16576588D+00 0.15020909D+00 0.25853384D+06 0.25853384D+06 0.25853384D+06 0.10893641D+01  1  2  3  4  6  5       -1 0.388166204011D-05 0.100000000000D+01
-.488432082177D-04 0.000000000000D+00 0.000000000000D+00 0.261797799846D-04 0.000000000000D+00  6 -2 -1 25 -2 -1 21 2 0.16576588D+00 0.15020909D+00 0.25853384D+06 0.25853384D+06 0.25853384D+06 0.10893641D+01  1  2 15  4  6  5       -1 -.491908212845D-05 0.100000000000D+01
0.207602054225D-01 0.000000000000D+00 0.000000000000D+00 0.261797799846D-04 0.000000000000D+00  6 -2 -1 25 -2 -1 21 2 0.16576588D+00 0.15020909D+00 0.25844714D+06 0.25844714D+06 0.25844714D+06 0.10893751D+01  1  2 12  4  6  5       -1 0.209088830046D-02 0.100000000000D+01
0.110593013896D-07 0.000000000000D+00 0.000000000000D+00 0.261797799846D-04 0.000000000000D+00  6 -2 -1 25 -2 -1 21 2 0.16576588D+00 0.15020909D+00 0.25844714D+06 0.25844714D+06 0.25844714D+06 0.10893751D+01  1  2 12  4  6  5       -1 0.111385043723D-08 0.100000000000D+01
-.389832863312D-01 0.000000000000D+00 0.000000000000D+00 0.261797799846D-04 0.000000000000D+00  6 -2 -1 25 -2 -1 21 2 0.16576588D+00 0.15020909D+00 0.25853384D+06 0.25853384D+06 0.25853384D+06 0.10893641D+01  1  2  4  4  6  5       -1 -.392607271507D-02 0.100000000000D+01
-.223019525269D-01 0.000000000000D+00 0.000000000000D+00 0.261797799846D-04 0.000000000000D+00  6 -2 -1 25 -2 -1 21 2 0.16576588D+00 0.15020909D+00 0.25853384D+06 0.25853384D+06 0.25853384D+06 0.10893641D+01  1  2  5  4  6  5       -1 -.224606736756D-02 0.100000000000D+01
0.238757821869D-01 0.000000000000D+00 -.000000000000D+00 0.261797799846D-04 0.000000000000D+00  6 -2 -1 25 -2 -1 21 2 0.16576588D+00 0.15020909D+00 0.25853384D+06 0.25853384D+06 0.25853384D+06 0.10893641D+01  1  2  6  4  6  5       -1 0.240457041509D-02 0.100000000000D+01
0.154258872697D-02 0.000000000000D+00 0.000000000000D+00 0.261797799846D-04 0.436830896932D-05  6 -2 -1 25 -2 -1 21 2 0.16576588D+00 0.15020909D+00 0.25844714D+06 0.25844714D+06 0.25844714D+06 0.10893751D+01  1  2 11  4  6  5       -1 0.155363622662D-03 0.100000000000D+01
  </mgrwgt>
  </event>
  <event>
  6     66 0.91499294E-06 0.46193023E+02 0.75467711E-02 0.94382592E-01
       -4 -1    0    0    0  501 0.00000000E+00 0.00000000E+00 0.55188189E+03 0.55188406E+03 0.15500000E+01 0.0000E+00 0.9000E+01
       21 -1    0    0  503  502 0.00000000E+00 0.00000000E+00 -.52742048E+03 0.52742101E+03 0.75000000E+00 0.0000E+00 0.9000E+01
       25  1    1    2    0    0 0.49463247E+03 0.65236142E+02 -.97213202E+02 0.52344288E+03 0.12500000E+03 0.0000E+00 0.9000E+01
        3  1    1    2  503    0 -.49030693E+02 0.20116018E+02 -.13630574E+01 0.53016705E+02 0.50000000E+00 0.0000E+00 0.9000E+01
       -4  1    1    2    0  501 -.61286953E+02 -.11962229E+02 0.90867288E+02 0.11026537E+03 0.15500000E+01 0.0000E+00 0.9000E+01
       -3  1    1    2    0  502 -.38431483E+03 -.73389930E+02 0.32170379E+02 0.39258012E+03 0.50000000E+00 0.0000E+00 0.9000E+01
#aMCatNLO 2  0  0  2  2 0.52996821D+02 0.00000000D+00  -5  6  0 0.00000000D+00 0.00000000D+00 0.00000000D+00 0.00000000D+00 0.00000000D+00
  <mgrwgt>
 0.1445837686D-02    1    2    0
 0.512296850929962D+03 0.000000000000000D+00 0.000000000000000D+00 0.512296850929962D+03
 0.512296850929962D+03 0.000000000000000D+00 0.000000000000000D+00 -.512296850929962D+03
 0.504503889122841D+03 0.470330957240703D+03 0.754036451634948D+02 -.109554804080757D+03
 0.000000000000000D+00 -.000000000000000D+00 0.000000000000000D+00 -.000000000000000D+00
 0.109655243134347D+03 -.658065416986857D+02 -.970980832838698D+01 0.871750597289037D+02
 0.410434569602736D+03 -.404524415542017D+03 -.656938368351078D+02 0.223797443518533D+02
 0.538165448074032D+03 0.000000000000000D+00 0.000000000000000D+00 0.538165448074032D+03
 0.540863411679126D+03 0.000000000000000D+00 0.000000000000000D+00 -.540863411679126D+03
 0.526205032097683D+03 0.494976148799560D+03 0.652923642343122D+02 -.109554804080757D+03
 0.530654505955428D+02 -.490306931112627D+02 0.201160178047933D+02 -.269796360509348D+01
 0.106843375287077D+03 -.606298620237823D+02 -.118336653228978D+02 0.871750597289037D+02
 0.392915001772855D+03 -.385315593664515D+03 -.735747167162077D+02 0.223797443518533D+02
0.180692600350D-03 0.000000000000D+00 0.000000000000D+00 0.711945426244D-08 0.822437502488D-09  6 -4 21 25 3 -4 -3 2 0.84904929D-01 0.81141643D-01 0.26097897D+06 0.26097897D+06 0.26097897D+06 0.10890577D+01  1  2  1  6  4  2       -3 0.144583768644D-02 0.100000000000D+01
  </mgrwgt>
  </event>
  <event>
  6     66 0.91499294E-06 0.15436069E+03 0.75467711E-02 0.95309660E-01
       -2 -1    0    0    0  501 0.00000000E+00 0.00000000E+00 0.15637772E+04 0.15637773E+04 0.32000000E+00 0.0000E+00 0.9000E+01
       -1 -1    0    0    0  503 0.00000000E+00 0.00000000E+00 -.82646326E+03 0.82646332E+03 0.32000000E+00 0.0000E+00 0.9000E+01
       25  1    1    2    0    0 -.45818356E+03 -.46175234E+02 0.72850557E+02 0.48269714E+03 0.12500000E+03 0.0000E+00 0.9000E+01
       -2  1    1    2    0  501 0.15665722E+03 0.41446615E+02 0.12433204E+04 0.12538361E+04 0.32000000E+00 0.0000E+00 0.9000E+01
       -1  1    1    2    0  502 0.25653209E+03 -.50102525E+01 -.46913003E+03 0.53471198E+03 0.32000000E+00 0.0000E+00 0.9000E+01
       21  1    1    2  502  503 0.44994247E+02 0.97388723E+01 -.10972695E+03 0.11899535E+03 0.75000000E+00 0.0000E+00 0.9000E+01
#aMCatNLO 2  0  0  2  5 0.91356741D+02 0.00000000D+00  -5  6  0 0.00000000D+00 0.00000000D+00 0.00000000D+00 0.00000000D+00 0.00000000D+00
  <mgrwgt>
 0.1004118931D-03    1    2    0
 0.105344165363431D+04 0.000000000000000D+00 0.000000000000000D+00 0.105344165363431D+04
 0.105344165363431D+04 0.000000000000000D+00 0.000000000000000D+00 -.105344165363431D+04
 0.481073873832352D+03 -.447831530983834D+03 -.439273786110250D+02 -.115431266774237D+03
 0.855285182708888D+03 0.174872425332322D+03 0.453888563209831D+02 0.835985783576277D+03
 0.770524250727380D+03 0.272959105651512D+03 -.146147770995810D+01 -.720554516802040D+03
 0.000000000000000D+00 0.000000000000000D+00 0.000000000000000D+00 -.000000000000000D+00
 0.105682415189419D+04 0.000000000000000D+00 0.000000000000000D+00 0.105682415189419D+04
 0.122291163584140D+04 0.000000000000000D+00 0.000000000000000D+00 -.122291163584140D+04
 0.490955566993119D+03 -.458209541322609D+03 -.461736683982799D+02 -.115431266774237D+03
 0.851544979290264D+03 0.156649210763103D+03 0.414444951725991D+02 0.835985783576277D+03
 0.764885654279277D+03 0.256566083795215D+03 -.500969903331388D+01 -.720554516802040D+03
 0.172349587172926D+03 0.449942467642911D+02 0.973887225899472D+01 -.166087483947211D+03
0.202211727474D-02 0.000000000000D+00 0.000000000000D+00 0.131006973314D-04 0.648423742693D-06  6 -2 -1 25 -2 -1 21 2 0.24058093D+00 0.12714810D+00 0.22178586D+06 0.22178586D+06 0.22178586D+06 0.10943932D+01  1  2  1  2  6  2       -1 0.100411893148D-03 0.100000000000D+01
  </mgrwgt>
  </event>
  <event>
  5     66 -.91499294E-06 0.19403437E+03 0.75467711E-02 0.93664009E-01
       -2 -1    0    0    0  501 0.00000000E+00 0.00000000E+00 0.25776707E+04 0.25776707E+04 0.32000000E+00 0.0000E+00 0.9000E+01
       -1 -1    0    0    0  502 0.00000000E+00 0.00000000E+00 -.15269729E+04 0.15269730E+04 0.32000000E+00 0.0000E+00 0.9000E+01
       25  1    1    2    0    0 -.59348740E+02 -.53020145E+03 0.11068583E+04 0.12350693E+04 0.12500000E+03 0.0000E+00 0.9000E+01
       -2  1    1    2    0  501 0.28009146E+02 0.33873039E+03 0.13795554E+04 0.14208082E+04 0.32000000E+00 0.0000E+00 0.9000E+01
       -1  1    1    2    0  502 0.31339594E+02 0.19147106E+03 -.14357159E+04 0.14487662E+04 0.32000000E+00 0.0000E+00 0.9000E+01
#aMCatNLO 1  0  0  2  5 0.13231444D+02 0.00000000D+00  -5  6  0 0.00000000D+00 0.00000000D+00 0.00000000D+00 0.00000000D+00 0.00000000D+00
  <mgrwgt>
 -.1366277979D-03   11    4    0
 0.198394392224307D+04 0.000000000000000D+00 0.000000000000000D+00 0.198394392224307D+04
 0.198394392224307D+04 0.000000000000000D+00 0.000000000000000D+00 -.198394392224307D+04
 0.984652399583658D+03 -.593477576505870D+02 -.530174994174906D+03 0.818112258323600D+03
 0.110433454385466D+04 0.280056963983624D+02 0.338688672278788D+03 0.105074280820283D+04
 0.187890090104783D+04 0.313420612522245D+02 0.191486321896118D+03 -.186885506652643D+04
 0.000000000000000D+00 -.000000000000000D+00 0.000000000000000D+00 -.000000000000000D+00
 0.198416555972794D+04 0.000000000000000D+00 0.000000000000000D+00 0.198416555972794D+04
 0.219177222513166D+04 0.000000000000000D+00 0.000000000000000D+00 -.219177222513166D+04
 0.986172497905818D+03 -.579461325781820D+02 -.533147047375947D+03 0.818112258323600D+03
 0.110335901369042D+04 0.295757793856354D+02 0.335359415218469D+03 0.105074280820283D+04
 0.187837839382315D+04 0.340141894917387D+02 0.185820250816058D+03 -.186885506652643D+04
 0.208027879440216D+03 -.564383629919207D+01 0.119673813414198D+02 -.207606665403715D+03
 0.198394392224307D+04 0.000000000000000D+00 0.000000000000000D+00 0.198394392224307D+04
 0.198394392224307D+04 0.000000000000000D+00 0.000000000000000D+00 -.198394392224307D+04
 0.984652399583658D+03 -.593477576505870D+02 -.530174994174906D+03 0.818112258323600D+03
 0.000000000000000D+00 -.000000000000000D+00 0.000000000000000D+00 -.000000000000000D+00
 0.110433454385466D+04 0.280056963983624D+02 0.338688672278788D+03 0.105074280820283D+04
 0.187890090104783D+04 0.313420612522245D+02 0.191486321896118D+03 -.186885506652643D+04
 0.198416555972794D+04 0.000000000000000D+00 0.000000000000000D+00 0.198416555972794D+04
 0.219177222513166D+04 0.000000000000000D+00 0.000000000000000D+00 -.219177222513166D+04
 0.986172497905818D+03 -.579461325781820D+02 -.533147047375947D+03 0.818112258323600D+03
 0.208027879440216D+03 -.564383629919207D+01 0.119673813414198D+02 -.207606665403715D+03
 0.110335901369042D+04 0.295757793856354D+02 0.335359415218469D+03 0.105074280820283D+04
 0.187837839382315D+04 0.340141894917387D+02 0.185820250816058D+03 -.186885506652643D+04
0.911682866951D-03 0.000000000000D+00 0.000000000000D+00 0.414066514293D-04 0.000000000000D+00  6 -2 -1 25 -2 -1 21 0 0.39656473D+00 0.23491891D+00 0.29258031D+06 0.29258031D+06 0.29258031D+06 0.10853574D+01  1  2  2  2  6  2       -1 0.444340527184D-06 0.100000000000D+01
0.117149331710D-03 0.000000000000D+00 -.350110226070D-05 0.414066514293D-04 0.000000000000D+00  6 -2 -1 25 -2 -1 21 2 0.39656473D+00 0.23491891D+00 0.29258031D+06 0.29258031D+06 0.29258031D+06 0.10853574D+01  1  2  3  2  6  2       -1 0.672601034858D-07 0.100000000000D+01
-.582201552214D-03 0.000000000000D+00 0.000000000000D+00 0.414066514293D-04 0.000000000000D+00  6 -2 -1 25 -2 -1 21 2 0.39656473D+00 0.23491891D+00 0.29258031D+06 0.29258031D+06 0.29258031D+06 0.10853574D+01  1  2 15  2  6  2       -1 -.334265130494D-06 0.100000000000D+01
0.536267428328D+00 0.000000000000D+00 0.000000000000D+00 0.414066514293D-04 0.000000000000D+00  6 -2 -1 25 -2 -1 21 2 0.39656473D+00 0.26485781D+00 0.29673193D+06 0.29673193D+06 0.29673193D+06 0.10849040D+01  1  2 12  2  6  2       -1 0.173181091491D-03 0.100000000000D+01
0.155318769359D-07 0.000000000000D+00 0.000000000000D+00 0.414066514293D-04 0.000000000000D+00  6 -2 -1 25 -2 -1 21 2 0.39656473D+00 0.25955179D+00 0.29673193D+06 0.29673193D+06 0.29673193D+06 0.10849040D+01  1  2 12  2  6  2       -1 0.555845876296D-11 0.100000000000D+01
-.779359759471D+00 0.000000000000D+00 0.000000000000D+00 0.414066514293D-04 0.000000000000D+00  6 -2 -1 25 -2 -1 21 2 0.39656473D+00 0.23491891D+00 0.29258031D+06 0.29258031D+06 0.29258031D+06 0.10853574D+01  1  2  4  2  6  2       -1 -.447461520346D-03 0.100000000000D+01
-.665323471406D+00 0.000000000000D+00 -.148781303182D-02 0.414066514293D-04 0.000000000000D+00  6 -2 -1 25 -2 -1 21 2 0.39656473D+00 0.25953809D+00 0.29258031D+06 0.29258031D+06 0.29258031D+06 0.10853574D+01  1  2  5  2  6  2       -1 -.238838735416D-03 0.100000000000D+01
0.662187722657D+00 0.000000000000D+00 0.148045447037D-02 0.414066514293D-04 0.000000000000D+00  6 -2 -1 25 -2 -1 21 2 0.39656473D+00 0.23491891D+00 0.29258031D+06 0.29258031D+06 0.29258031D+06 0.10853574D+01  1  2  6  2  6  2       -1 0.380188380955D-03 0.100000000000D+01
0.102007367048D-01 0.000000000000D+00 0.000000000000D+00 0.414066514293D-04 0.000000000000D+00  6 -2 21 25 1 -2 -1 2 0.39656473D+00 0.26485781D+00 0.29673193D+06 0.29673193D+06 0.29673193D+06 0.10849040D+01  3  4 12  6  4  2       -1 0.251700872904D-04 0.100000000000D+01
0.252373789537D-09 0.000000000000D+00 0.000000000000D+00 0.414066514293D-04 0.000000000000D+00  6 -2 21 25 1 -2 -1 2 0.39656473D+00 0.25955179D+00 0.29673193D+06 0.29673193D+06 0.29673193D+06 0.10849040D+01  3  4 12  6  4  2       -1 0.676326612474D-12 0.100000000000D+01
-.108007691320D-01 0.000000000000D+00 -.240951330402D-04 0.414066514293D-04 0.000000000000D+00  6 -2 21 25 1 -2 -1 2 0.39656473D+00 0.25953809D+00 0.29258031D+06 0.29258031D+06 0.29258031D+06 0.10853574D+01  3  4  5  6  4  2       -1 -.290444435904D-04 0.100000000000D+01
  </mgrwgt>
  </event>
  <event>
  5     66 -.91499294E-06 0.15242077E+03 0.75467711E-02 0.92961003E-01
       -2 -1    0    0    0  501 0.00000000E+00 0.00000000E+00 0.93601749E+03 0.93601754E+03 0.32000000E+00 0.0000E+00 0.9000E+01
       -1 -1    0    0    0  502 0.00000000E+00 0.00000000E+00 -.53319660E+03 0.53319670E+03 0.32000000E+00 0.0000E+00 0.9000E+01
       25  1    1    2    0    0 0.35801007E+02 0.52478978E+03 0.23849361E+03 0.59092320E+03 0.12500000E+03 0.0000E+00 0.9000E+01
       -2  1    1    2    0  501 0.13062737E+03 -.37454890E+03 0.39275159E+03 0.55821528E+03 0.32000000E+00 0.0000E+00 0.9000E+01
       -1  1    1    2    0  502 -.16642837E+03 -.15024088E+03 -.22842431E+03 0.32007576E+03 0.32000000E+00 0.0000E+00 0.9000E+01
#aMCatNLO 1  0  0  5  2 0.14161515D+02 0.00000000D+00  -5  6  0 0.00000000D+00 0.00000000D+00 0.00000000D+00 0.00000000D+00 0.00000000D+00
  <mgrwgt>
 -.3027385000D-04    8    2    0
 0.706456971150612D+03 0.000000000000000D+00 0.000000000000000D+00 0.706456971150612D+03
 0.706456971150612D+03 -.000000000000000D+00 -.000000000000000D+00 -.706456971150612D+03
 0.546470853749149D+03 0.358524509398866D+02 0.524762796193634D+03 0.796492529152945D+02
 0.468397973766540D+03 0.130603072882513D+03 -.374479234845875D+03 0.249208350284442D+03
 0.398045114785536D+03 -.166455523822400D+03 -.150283561347759D+03 -.328857603199737D+03
 0.000000000000000D+00 0.000000000000000D+00 0.000000000000000D+00 -.000000000000000D+00
 0.706456971150612D+03 0.000000000000000D+00 0.000000000000000D+00 0.706456971150612D+03
 0.706456971150612D+03 -.000000000000000D+00 -.000000000000000D+00 -.706456971150612D+03
 0.546271567142099D+03 0.356890892446775D+02 0.524615305880426D+03 0.793265076299027D+02
 0.468312923727911D+03 0.130463037429318D+03 -.374605665174758D+03 0.248931689453708D+03
 0.191197344951879D+03 -.911242543013656D+02 -.757991783487694D+02 -.150024263225384D+03
 0.207132106479336D+03 -.750278723726296D+02 -.742104623568989D+02 -.178233933858227D+03
0.122880080426D-05 0.000000000000D+00 0.000000000000D+00 0.303169279593D-07 0.000000000000D+00  6 -2 -1 25 -2 -1 21 0 0.14400270D+00 0.82030258D-01 0.33726803D+06 0.33726803D+06 0.33726803D+06 0.10808094D+01  1  2  2  4  6  5       -1 0.647810014318D-06 0.100000000000D+01
0.601162974818D-07 0.000000000000D+00 -.471891863905D-08 0.303169279593D-07 0.000000000000D+00  6 -2 -1 25 -2 -1 21 2 0.14400270D+00 0.82030258D-01 0.33726803D+06 0.33726803D+06 0.33726803D+06 0.10808094D+01  1  2  3  4  6  5       -1 0.370217227082D-07 0.100000000000D+01
-.768266323100D-06 0.000000000000D+00 0.000000000000D+00 0.303169279593D-07 0.000000000000D+00  6 -2 -1 25 -2 -1 21 2 0.14400270D+00 0.82030258D-01 0.33726803D+06 0.33726803D+06 0.33726803D+06 0.10808094D+01  1  2 15  4  6  5       -1 -.473125324934D-06 0.100000000000D+01
0.498004674427D-04 0.000000000000D+00 0.000000000000D+00 0.303169279593D-07 0.000000000000D+00  6 -2 -1 25 -2 -1 21 2 0.14400270D+00 0.82030258D-01 0.33710390D+06 0.33710390D+06 0.33710390D+06 0.10808249D+01  1  2 12  4  6  5       -1 0.306704908454D-04 0.100000000000D+01
0.168998533134D-06 0.000000000000D+00 0.000000000000D+00 0.303169279593D-07 0.000000000000D+00  6 -2 -1 25 -2 -1 21 2 0.14400270D+00 0.82030258D-01 0.33710390D+06 0.33710390D+06 0.33710390D+06 0.10808249D+01  1  2 12  4  6  5       -1 0.104080709069D-06 0.100000000000D+01
-.130867822212D-03 0.000000000000D+00 0.000000000000D+00 0.303169279593D-07 0.000000000000D+00  6 -2 -1 25 -2 -1 21 2 0.14400270D+00 0.82030258D-01 0.33726803D+06 0.33726803D+06 0.33726803D+06 0.10808094D+01  1  2  4  4  6  5       -1 -.805929910579D-04 0.100000000000D+01
-.501515485051D-04 0.000000000000D+00 0.000000000000D+00 0.303169279593D-07 0.000000000000D+00  6 -2 -1 25 -2 -1 21 2 0.14400270D+00 0.82030258D-01 0.33726803D+06 0.33726803D+06 0.33726803D+06 0.10808094D+01  1  2  5  4  6  5       -1 -.308850810832D-04 0.100000000000D+01
0.815444730895D-04 0.000000000000D+00 -.000000000000D+00 0.303169279593D-07 0.000000000000D+00  6 -2 -1 25 -2 -1 21 2 0.14400270D+00 0.82030258D-01 0.33726803D+06 0.33726803D+06 0.33726803D+06 0.10808094D+01  1  2  6  4  6  5       -1 0.502179441777D-04 0.100000000000D+01
  </mgrwgt>
  </event>
  <event>
  5     66 0.91499294E-06 0.10758326E+03 0.75467711E-02 0.89429768E-01
       -2 -1    0    0    0  501 0.00000000E+00 0.00000000E+00 0.87641543E+03 0.87641549E+03 0.32000000E+00 0.0000E+00 0.9000E+01
       -1 -1    0    0    0  502 0.00000000E+00 0.00000000E+00 -.11243192E+04 0.11243192E+04 0.32000000E+00 0.0000E+00 0.9000E+01
       25  1    1    2    0    0 -.41396489E+03 0.32845022E+03 0.30539016E+03 0.62300451E+03 0.12500000E+03 0.0000E+00 0.9000E+01
       -2  1    1    2    0  501 0.35269947E+03 -.24003641E+03 0.29753025E+03 0.52013339E+03 0.32000000E+00 0.0000E+00 0.9000E+01
       -1  1    1    2    0  502 0.61265419E+02 -.88413808E+02 -.85082417E+03 0.85759683E+03 0.32000000E+00 0.0000E+00 0.9000E+01
#aMCatNLO 1  0  0  2  4 0.15731964D+02 0.00000000D+00  -5  6  0 0.00000000D+00 0.00000000D+00 0.00000000D+00 0.00000000D+00 0.00000000D+00
  <mgrwgt>
 0.1064283512D-04    5    4    0
 0.992658450267331D+03 0.000000000000000D+00 0.000000000000000D+00 0.992658450267331D+03
 0.992658450267331D+03 0.000000000000000D+00 0.000000000000000D+00 -.992658450267331D+03
 0.666012634127503D+03 -.413895343071184D+03 0.328409893055814D+03 0.385727126275184D+03
 0.561197966287758D+03 0.352619767895150D+03 -.239982171076435D+03 0.364706750993900D+03
 0.758106300119400D+03 0.612755751760345D+02 -.884277219793783D+02 -.750433877269083D+03
 0.000000000000000D+00 0.000000000000000D+00 0.000000000000000D+00 -.000000000000000D+00
 0.105123810471913D+04 0.000000000000000D+00 0.000000000000000D+00 0.105123810471913D+04
 0.203056407168096D+04 0.000000000000000D+00 0.000000000000000D+00 -.203056407168096D+04
 0.620472085022056D+03 -.424361487865246D+03 0.201227532817707D+03 0.385727126275184D+03
 0.614478106976926D+03 0.343055102391905D+03 -.356209947160800D+03 0.364706750993900D+03
 0.789824239665737D+03 0.486824484024413D+02 -.241456713777013D+03 -.750433877269083D+03
 0.105702774473538D+04 0.326239370708997D+02 0.396439128120105D+03 -.979325966961831D+03
 0.992658450267331D+03 0.000000000000000D+00 0.000000000000000D+00 0.992658450267331D+03
 0.992658450267331D+03 0.000000000000000D+00 0.000000000000000D+00 -.992658450267331D+03
 0.666012634127503D+03 -.413895343071184D+03 0.328409893055814D+03 0.385727126275184D+03
 0.000000000000000D+00 0.000000000000000D+00 0.000000000000000D+00 -.000000000000000D+00
 0.561197966287758D+03 0.352619767895150D+03 -.239982171076435D+03 0.364706750993900D+03
 0.758106300119400D+03 0.612755751760345D+02 -.884277219793783D+02 -.750433877269083D+03
 0.105123810471913D+04 0.000000000000000D+00 0.000000000000000D+00 0.105123810471913D+04
 0.203056407168096D+04 0.000000000000000D+00 0.000000000000000D+00 -.203056407168096D+04
 0.620472085022056D+03 -.424361487865246D+03 0.201227532817707D+03 0.385727126275184D+03
 0.105702774473538D+04 0.326239370708997D+02 0.396439128120105D+03 -.979325966961831D+03
 0.614478106976926D+03 0.343055102391905D+03 -.356209947160800D+03 0.364706750993900D+03
 0.789824239665737D+03 0.486824484024413D+02 -.241456713777013D+03 -.750433877269083D+03
0.330150120582D-03 0.000000000000D+00 0.000000000000D+00 0.221858043248D-05 0.000000000000D+00  6 -2 -1 25 -2 -1 21 0 0.13483315D+00 0.17297219D+00 0.29001542D+06 0.29001542D+06 0.29001542D+06 0.10856411D+01  1  2  2  2  6  2       -1 0.319511283487D-04 0.100000000000D+01
0.739164326549D-04 0.000000000000D+00 -.126786339356D-05 0.221858043248D-05 0.000000000000D+00  6 -2 -1 25 -2 -1 21 2 0.13483315D+00 0.17297219D+00 0.29001542D+06 0.29001542D+06 0.29001542D+06 0.10856411D+01  1  2  3  2  6  2       -1 0.843117905461D-05 0.100000000000D+01
-.224715540648D-03 0.000000000000D+00 0.000000000000D+00 0.221858043248D-05 0.000000000000D+00  6 -2 -1 25 -2 -1 21 2 0.13483315D+00 0.17297219D+00 0.29001542D+06 0.29001542D+06 0.29001542D+06 0.10856411D+01  1  2 15  2  6  2       -1 -.256318776692D-04 0.100000000000D+01
-.777732347930D-03 0.000000000000D+00 -.135640999142D-03 0.221858043248D-05 0.000000000000D+00  6 -2 -1 25 -2 -1 21 2 0.13483315D+00 0.35906514D+00 0.29001542D+06 0.29001542D+06 0.29001542D+06 0.10856411D+01  1  2  5  2  6  2       -1 -.216278029913D-05 0.100000000000D+01
-.530749501936D-04 0.000000000000D+00 -.107126148271D-04 0.221858043248D-05 0.000000000000D+00  6 -2 21 25 1 -2 -1 2 0.13483315D+00 0.35906514D+00 0.29001542D+06 0.29001542D+06 0.29001542D+06 0.10856411D+01  3  4  5  6  4  2       -1 -.194481431460D-05 0.100000000000D+01
  </mgrwgt>
  </event>
  <event>
  5     66 0.91499294E-06 0.17084790E+03 0.75467711E-02 0.88604016E-01
       -2 -1    0    0    0  501 0.00000000E+00 0.00000000E+00 0.18693499E+04 0.18693499E+04 0.32000000E+00 0.0000E+00 0.9000E+01
       -1 -1    0    0    0  502 0.00000000E+00 0.00000000E+00 -.43964870E+03 0.43964882E+03 0.32000000E+00 0.0000E+00 0.9000E+01
       25  1    1    2    0    0 0.18606368E+03 0.44234415E+03 -.49637775E+02 0.49837431E+03 0.12500000E+03 0.0000E+00 0.9000E+01
       -2  1    1    2    0  501 0.30618628E+02 -.16809362E+03 0.14498270E+04 0.14598600E+04 0.32000000E+00 0.0000E+00 0.9000E+01
       -1  1    1    2    0  502 -.21668231E+03 -.27425053E+03 0.29511959E+02 0.35076436E+03 0.32000000E+00 0.0000E+00 0.9000E+01
#aMCatNLO 1  0  0  2  5 0.42061828D+01 0.00000000D+00  -5  6  0 0.00000000D+00 0.00000000D+00 0.00000000D+00 0.00000000D+00 0.00000000D+00
  <mgrwgt>
 0.1487259128D-04    3    2    0
 0.906563518434269D+03 0.000000000000000D+00 0.000000000000000D+00 0.906563518434269D+03
 0.906563518434269D+03 0.000000000000000D+00 0.000000000000000D+00 -.906563518434269D+03
 0.673814938177333D+03 0.186091927651170D+03 0.442384428570516D+03 -.456144037264911D+03
 0.715839251579020D+03 0.306165520841174D+02 -.168082222033505D+03 0.695152377163433D+03
 0.423472847112185D+03 -.216708479735288D+03 -.274302206537011D+03 -.239008339898522D+03
 0.000000000000000D+00 0.000000000000000D+00 -.000000000000000D+00 0.000000000000000D+00
 0.191498467581389D+04 0.000000000000000D+00 0.000000000000000D+00 0.191498467581389D+04
 0.104938925205829D+04 0.000000000000000D+00 0.000000000000000D+00 -.104938925205829D+04
 0.698793643251581D+03 -.238143212565615D+02 0.513860925951346D+03 -.456144037264911D+03
 0.726614684695663D+03 -.189970801865259D+03 -.929686343778210D+02 0.695152377163433D+03
 0.484891666928053D+03 -.355620177041294D+03 -.227000510564044D+03 -.239008339898522D+03
 0.105407393299688D+04 0.569405300163115D+03 -.193891781009481D+03 0.865595423755605D+03
0.516258974026D-03 0.000000000000D+00 0.000000000000D+00 0.432494787234D-06 0.000000000000D+00  6 -2 -1 25 -2 -1 21 0 0.28759230D+00 0.67638273D-01 0.25825093D+06 0.25825093D+06 0.25825093D+06 0.10893998D+01  1  2  2  2  6  2       -1 0.420689940143D-04 0.100000000000D+01
0.551135201991D-04 0.000000000000D+00 -.198257039437D-05 0.432494787234D-06 0.000000000000D+00  6 -2 -1 25 -2 -1 21 2 0.28759230D+00 0.67638273D-01 0.25825093D+06 0.25825093D+06 0.25825093D+06 0.10893998D+01  1  2  3  2  6  2       -1 0.533000057679D-05 0.100000000000D+01
-.336331030394D-03 0.000000000000D+00 0.000000000000D+00 0.432494787234D-06 0.000000000000D+00  6 -2 -1 25 -2 -1 21 2 0.28759230D+00 0.67638273D-01 0.25825093D+06 0.25825093D+06 0.25825093D+06 0.10893998D+01  1  2 15  2  6  2       -1 -.325264033130D-04 0.100000000000D+01
  </mgrwgt>
  </event>
  <event>
  5     66 0.91499294E-06 0.60761819E+02 0.75467711E-02 0.91652909E-01
       -2 -1    0    0    0  501 0.00000000E+00 0.00000000E+00 0.30801941E+03 0.30801958E+03 0.32000000E+00 0.0000E+00 0.9000E+01
       -1 -1    0    0    0  502 0.00000000E+00 0.00000000E+00 -.18501820E+04 0.18501820E+04 0.32000000E+00 0.0000E+00 0.9000E+01
       25  1    1    2    0    0 -.95550401E+02 -.58528202E+03 -.75697733E+03 0.96970336E+03 0.12500000E+03 0.0000E+00 0.9000E+01
       -2  1    1    2    0  501 0.14454710E+03 0.62121953E+03 -.30948870E+03 0.70893648E+03 0.32000000E+00 0.0000E+00 0.9000E+01
       -1  1    1    2    0  502 -.48996703E+02 -.35937506E+02 -.47569650E+03 0.47956173E+03 0.32000000E+00 0.0000E+00 0.9000E+01
#aMCatNLO 1  0  0  1  5 0.61030448D+01 0.00000000D+00  -5  6  0 0.00000000D+00 0.00000000D+00 0.00000000D+00 0.00000000D+00 0.00000000D+00
  <mgrwgt>
 0.9357655675D-05    9    4    0
 0.754912026557569D+03 0.000000000000000D+00 0.000000000000000D+00 0.754912026557569D+03
 0.754912026557569D+03 0.000000000000000D+00 0.000000000000000D+00 -.754912026557569D+03
 0.612945286818866D+03 -.955520359324542D+02 -.585285052894561D+03 -.915867890082157D+02
 0.697266219127043D+03 0.144547584786571D+03 0.621221591162158D+03 0.281726659622491D+03
 0.199612547169229D+03 -.489955488541171D+02 -.359365382675968D+02 -.190139870614275D+03
 0.000000000000000D+00 0.000000000000000D+00 -.000000000000000D+00 0.000000000000000D+00
 0.758643745587995D+03 0.000000000000000D+00 0.000000000000000D+00 0.758643745587995D+03
 0.757417632980468D+03 0.000000000000000D+00 0.000000000000000D+00 -.757417632980468D+03
 0.611821765286956D+03 -.975196483266794D+02 -.583783051097111D+03 -.915867890082157D+02
 0.698331161904461D+03 0.142305530103973D+03 0.622933091950183D+03 0.281726659622491D+03
 0.199683460805809D+03 -.496370257561169D+02 -.354468587643296D+02 -.190139870614275D+03
 0.622499057123730D+01 0.485114397882327D+01 -.370318208874251D+01 0.122611260752697D+01
 0.754912026557569D+03 0.000000000000000D+00 0.000000000000000D+00 0.754912026557569D+03
 0.754912026557569D+03 0.000000000000000D+00 0.000000000000000D+00 -.754912026557569D+03
 0.612945286818866D+03 -.955520359324542D+02 -.585285052894561D+03 -.915867890082157D+02
 0.000000000000000D+00 0.000000000000000D+00 -.000000000000000D+00 0.000000000000000D+00
 0.697266219127043D+03 0.144547584786571D+03 0.621221591162158D+03 0.281726659622491D+03
 0.199612547169229D+03 -.489955488541171D+02 -.359365382675968D+02 -.190139870614275D+03
 0.758643745587995D+03 0.000000000000000D+00 0.000000000000000D+00 0.758643745587995D+03
 0.757417632980468D+03 0.000000000000000D+00 0.000000000000000D+00 -.757417632980468D+03
 0.611821765286956D+03 -.975196483266794D+02 -.583783051097111D+03 -.915867890082157D+02
 0.622499057123730D+01 0.485114397882327D+01 -.370318208874251D+01 0.122611260752697D+01
 0.698331161904461D+03 0.142305530103973D+03 0.622933091950183D+03 0.281726659622491D+03
 0.199683460805809D+03 -.496370257561169D+02 -.354468587643296D+02 -.190139870614275D+03
0.783682918260D-04 0.000000000000D+00 0.000000000000D+00 0.175673038737D-06 0.000000000000D+00  6 -2 -1 25 -2 -1 21 0 0.47387617D-01 0.28464339D+00 0.42552320D+06 0.42552320D+06 0.42552320D+06 0.10734964D+01  1  2  2  1  6  1       -2 0.949710772131D-05 0.100000000000D+01
0.181103946006D-04 0.000000000000D+00 -.300954875457D-06 0.175673038737D-06 0.000000000000D+00  6 -2 -1 25 -2 -1 21 2 0.47387617D-01 0.28464339D+00 0.42552320D+06 0.42552320D+06 0.42552320D+06 0.10734964D+01  1  2  3  1  6  1       -2 0.252918206896D-05 0.100000000000D+01
-.510049433676D-04 0.000000000000D+00 0.000000000000D+00 0.175673038737D-06 0.000000000000D+00  6 -2 -1 25 -2 -1 21 2 0.47387617D-01 0.28464339D+00 0.42552320D+06 0.42552320D+06 0.42552320D+06 0.10734964D+01  1  2 15  1  6  1       -2 -.712302470700D-05 0.100000000000D+01
-.426000526996D-04 0.000000000000D+00 0.000000000000D+00 0.175673038737D-06 0.000000000000D+00  6 -2 -1 25 -2 -1 21 2 0.47387617D-01 0.28464339D+00 0.42552320D+06 0.42552320D+06 0.42552320D+06 0.10734964D+01  1  2  4  1  6  1       -2 -.594925134436D-05 0.100000000000D+01
-.209302430470D-01 0.000000000000D+00 -.212813228338D-02 0.175673038737D-06 0.000000000000D+00  6 -2 -1 25 -2 -1 21 2 0.47783907D-01 0.28464339D+00 0.42552320D+06 0.42552320D+06 0.42552320D+06 0.10734964D+01  1  2  5  1  6  1       -2 -.287551472488D-02 0.100000000000D+01
0.209473134570D-01 0.000000000000D+00 0.212805848714D-02 0.175673038737D-06 0.000000000000D+00  6 -2 -1 25 -2 -1 21 2 0.47387617D-01 0.28464339D+00 0.42552320D+06 0.42552320D+06 0.42552320D+06 0.10734964D+01  1  2  6  1  6  1       -2 0.292536804176D-02 0.100000000000D+01
0.408081371806D-04 0.000000000000D+00 0.000000000000D+00 0.175673038737D-06 0.817508846633D-08  6 -2 -1 25 -2 -1 21 2 0.47621866D-01 0.28558814D+00 0.42968427D+06 0.42968427D+06 0.42968427D+06 0.10731936D+01  1  2 11  1  6  1       -2 0.553068121607D-05 0.100000000000D+01
-.322231802632D-04 0.000000000000D+00 -.328193786944D-05 0.175673038737D-06 0.000000000000D+00  6 21 -1 25 2 -2 -1 2 0.47783907D-01 0.28464339D+00 0.42552320D+06 0.42552320D+06 0.42552320D+06 0.10734964D+01  3  4  5  5  4  1       -2 -.461545379504D-04 0.100000000000D+01
0.830675193894D-06 0.000000000000D+00 0.000000000000D+00 0.175673038737D-06 0.287505413934D-10  6 21 -1 25 2 -2 -1 2 0.47621866D-01 0.28558814D+00 0.42968427D+06 0.42968427D+06 0.42968427D+06 0.10731936D+01  3  4 11  5  4  1       -2 0.117418178909D-05 0.100000000000D+01
  </mgrwgt>
  </event>
</LesHouchesEvents>
