<event>
 5    0  0.1911311E+001  0.3000669E+03  0.7546771E-02  0.1085207E+00
         21   -1    0    0  504  501  0.00000000000E+00  0.00000000000E+00  0.27953905915E+03  0.27953905915E+03  0.00000000000E+00 0. -1.
         21   -1    0    0  503  502 -0.00000000000E+00 -0.00000000000E+00 -0.14669155877E+04  0.14669155877E+04  0.00000000000E+00 0.  1.
         25    1    1    2    0    0  0.17205795941E+03 -0.18311902222E+03  0.14837666801E+03  0.31745417513E+03  0.12500000000E+03 0.  0.
         21    1    1    2  503  501 -0.20301963514E+03  0.18415413128E+03 -0.13614396425E+04  0.13887575801E+04  0.00000000000E+00 0.  1.
         21    1    1    2  504  502  0.30961675727E+02 -0.10351090588E+01  0.25686445944E+02  0.40242891544E+02  0.00000000000E+00 0. -1.
<mgrwt>
<rscale>  4 0.30006689E+03</rscale>
<asrwt>0</asrwt>
<pdfrwt beam="1">  1       21 0.43006009E-01 0.30006689E+03</pdfrwt>
<pdfrwt beam="2">  1       21 0.22567932E+00 0.30006689E+03</pdfrwt>
<totfact> 0.43274452E+02</totfact>
</mgrwt>
</event>
<event>
 5    0  0.1911311E+001  0.2568154E+03  0.7546771E-02  0.1109072E+00
         21   -1    0    0  503  501  0.00000000000E+00  0.00000000000E+00  0.31498728469E+03  0.31498728469E+03  0.00000000000E+00 0. -1.
         21   -1    0    0  504  502 -0.00000000000E+00 -0.00000000000E+00 -0.33911561631E+03  0.33911561631E+03  0.00000000000E+00 0.  1.
         25    1    1    2    0    0 -0.56063930067E+02 -0.23178386646E+03 -0.21744806387E+02  0.27011990229E+03  0.12500000000E+03 0.  0.
         21    1    1    2  503  502  0.42150678264E+02  0.21328910013E+03 -0.13064681882E+03  0.25364840070E+03  0.00000000000E+00 0.  1.
         21    1    1    2  504  501  0.13913251803E+02  0.18494766339E+02  0.12826329359E+03  0.13033459801E+03  0.00000000000E+00 0.  1.
<mgrwt>
<rscale>  4 0.25681545E+03</rscale>
<asrwt>0</asrwt>
<pdfrwt beam="1">  1       21 0.48459582E-01 0.25681545E+03</pdfrwt>
<pdfrwt beam="2">  1       21 0.52171633E-01 0.25681545E+03</pdfrwt>
<totfact> 0.13660528E+04</totfact>
</mgrwt>
</event>
<event>
 5    0  0.1911311E+001  0.2362234E+03  0.7546771E-02  0.1122335E+00
         21   -1    0    0  503  501  0.00000000000E+00  0.00000000000E+00  0.85393044269E+03  0.85393044269E+03  0.00000000000E+00 0. -1.
         21   -1    0    0  501  502 -0.00000000000E+00 -0.00000000000E+00 -0.11437972403E+03  0.11437972403E+03  0.00000000000E+00 0. -1.
         25    1    1    2    0    0  0.21108772843E+03 -0.12336560208E+03  0.15451940724E+03  0.31508466811E+03  0.12500000000E+03 0.  0.
         21    1    1    2  503  504 -0.47168169009E+02  0.23851143116E+02  0.19953773210E+02  0.56496603976E+02  0.00000000000E+00 0. -1.
         21    1    1    2  504  502 -0.16391955942E+03  0.99514458961E+02  0.56507753821E+03  0.59672889463E+03  0.00000000000E+00 0. -1.
<mgrwt>
<rscale>  4 0.23622338E+03</rscale>
<asrwt>0</asrwt>
<pdfrwt beam="1">  1       21 0.13137391E+00 0.23622338E+03</pdfrwt>
<pdfrwt beam="2">  1       21 0.17596881E-01 0.23622338E+03</pdfrwt>
<totfact> 0.11970695E+04</totfact>
</mgrwt>
</event>
