<event>
 5    0  0.1911311E+001  0.4499392E+03  0.7546771E-02  0.1027740E+00
         21   -1    0    0  502  501  0.00000000000E+00  0.00000000000E+00  0.35179031401E+04  0.35179031401E+04  0.00000000000E+00 0. -1.
         21   -1    0    0  504  502 -0.00000000000E+00 -0.00000000000E+00 -0.13037258666E+03  0.13037258666E+03  0.00000000000E+00 0.  1.
         25    1    1    2    0    0  0.45518991378E+02  0.34551899965E+03  0.31963586417E+03  0.48912927060E+03  0.12500000000E+03 0.  0.
         21    1    1    2  503  501 -0.64929436242E+02 -0.44393527694E+03  0.30101476929E+04  0.30433999893E+04  0.00000000000E+00 0. -1.
         21    1    1    2  504  503  0.19410444863E+02  0.98416277288E+02  0.57746996436E+02  0.11574646691E+03  0.00000000000E+00 0. -1.
<mgrwt>
<rscale>  4 0.44993922E+03</rscale>
<asrwt>0</asrwt>
<pdfrwt beam="1">  1       21 0.54121579E+00 0.44993922E+03</pdfrwt>
<pdfrwt beam="2">  1       21 0.20057324E-01 0.44993922E+03</pdfrwt>
<totfact> 0.15998370E+01</totfact>
</mgrwt>
</event>
<event>
 5    0  0.1911311E+001  0.2413663E+03  0.7546771E-02  0.1118886E+00
         21   -1    0    0  503  501  0.00000000000E+00  0.00000000000E+00  0.13659992007E+04  0.13659992007E+04  0.00000000000E+00 0.  1.
         21   -1    0    0  504  502 -0.00000000000E+00 -0.00000000000E+00 -0.52678260071E+02  0.52678260071E+02  0.00000000000E+00 0.  1.
         25    1    1    2    0    0  0.16793980551E+03  0.14322731642E+03  0.67907849947E+03  0.72490720157E+03  0.12500000000E+03 0.  0.
         21    1    1    2  503  502 -0.15974399292E+03 -0.11985044674E+03  0.31112085120E+03  0.36970049623E+03  0.00000000000E+00 0.  1.
         21    1    1    2  504  501 -0.81958125871E+01 -0.23376869678E+02  0.32312158998E+03  0.32406976300E+03  0.00000000000E+00 0.  1.
<mgrwt>
<rscale>  4 0.24136630E+03</rscale>
<asrwt>0</asrwt>
<pdfrwt beam="1">  1       21 0.21015370E+00 0.24136630E+03</pdfrwt>
<pdfrwt beam="2">  1       21 0.81043487E-02 0.24136630E+03</pdfrwt>
<totfact> 0.13089154E+04</totfact>
</mgrwt>
</event>
<event>
 5    0  0.2216756E+001  0.2779150E+03  0.7546771E-02  0.1096833E+00
         21   -1    0    0  503  501  0.00000000000E+00  0.00000000000E+00  0.31401049393E+03  0.31401049393E+03  0.00000000000E+00 0. -1.
         21   -1    0    0  504  502 -0.00000000000E+00 -0.00000000000E+00 -0.42293149728E+03  0.42293149728E+03  0.00000000000E+00 0. -1.
         25    1    1    2    0    0  0.17359746800E+03  0.16869636039E+03  0.59945390713E+02  0.27894980332E+03  0.12500000000E+03 0.  0.
         21    1    1    2  503  502 -0.19274090767E+03 -0.15955572677E+03 -0.26211023138E+03  0.36236564521E+03  0.00000000000E+00 0. -1.
         21    1    1    2  504  501  0.19143439671E+02 -0.91406336254E+01  0.93243837319E+02  0.95626542672E+02  0.00000000000E+00 0.  1.
<mgrwt>
<rscale>  4 0.27791503E+03</rscale>
<asrwt>0</asrwt>
<pdfrwt beam="1">  1       21 0.48309307E-01 0.27791503E+03</pdfrwt>
<pdfrwt beam="2">  1       21 0.65066384E-01 0.27791503E+03</pdfrwt>
<totfact> 0.84527038E+03</totfact>
</mgrwt>
</event>
<event>
 5    0  0.2228762E+001  0.2393039E+03  0.7546771E-02  0.1120257E+00
         21   -1    0    0  502  501  0.00000000000E+00  0.00000000000E+00  0.50800316917E+03  0.50800316917E+03  0.00000000000E+00 0.  1.
         21   -1    0    0  504  502 -0.00000000000E+00 -0.00000000000E+00 -0.18485905057E+03  0.18485905057E+03  0.00000000000E+00 0.  1.
         25    1    1    2    0    0 -0.33856335561E+02  0.19871755943E+03  0.29537705121E+03  0.37882386707E+03  0.12500000000E+03 0.  0.
         21    1    1    2  503  501  0.61208035008E+02  0.58796515372E+01  0.80205918203E+02  0.10106425266E+03  0.00000000000E+00 0. -1.
         21    1    1    2  504  503 -0.27351699447E+02 -0.20459721097E+03 -0.52438850811E+02  0.21297410001E+03  0.00000000000E+00 0.  1.
<mgrwt>
<rscale>  4 0.23930386E+03</rscale>
<asrwt>0</asrwt>
<pdfrwt beam="1">  1       21 0.78154333E-01 0.23930386E+03</pdfrwt>
<pdfrwt beam="2">  1       21 0.28439854E-01 0.23930386E+03</pdfrwt>
<totfact> 0.16675705E+04</totfact>
</mgrwt>
</event>
