<event>
 5    0  0.1723834E+000  0.5565586E+03  0.7546771E-02  0.9999872E-01
         21   -1    0    0  503  501  0.00000000000E+00  0.00000000000E+00  0.25680324025E+03  0.25680324025E+03  0.00000000000E+00 0.  1.
         21   -1    0    0  504  502 -0.00000000000E+00 -0.00000000000E+00 -0.57346221098E+03  0.57346221098E+03  0.00000000000E+00 0.  1.
         25    1    1    2    0    0  0.21347289041E+03  0.12286982524E+03  0.73744177892E+02  0.28588611836E+03  0.12500000000E+03 0.  0.
         21    1    1    2  503  502  0.15797555646E+02 -0.39727646026E+02 -0.26821664426E+03  0.27160268202E+03  0.00000000000E+00 0.  1.
         21    1    1    2  504  501 -0.22927044606E+03 -0.83142179216E+02 -0.12218650437E+03  0.27277665085E+03  0.00000000000E+00 0.  1.
<mgrwt>
<rscale>  4 0.55655856E+03</rscale>
<asrwt>0</asrwt>
<pdfrwt beam="1">  1       21 0.39508191E-01 0.55655856E+03</pdfrwt>
<pdfrwt beam="2">  1       21 0.88224954E-01 0.55655856E+03</pdfrwt>
<totfact> 0.58133235E+03</totfact>
</mgrwt>
</event>
<event>
 5    0  0.1723834E+000  0.4639253E+03  0.7546771E-02  0.1023649E+00
         21   -1    0    0  503  501  0.00000000000E+00  0.00000000000E+00  0.37596657116E+03  0.37596657116E+03  0.00000000000E+00 0. -1.
         21   -1    0    0  504  502 -0.00000000000E+00 -0.00000000000E+00 -0.27871713973E+03  0.27871713973E+03  0.00000000000E+00 0. -1.
         25    1    1    2    0    0  0.16938785703E+02 -0.26289587700E+03  0.71642929685E+02  0.30026467321E+03  0.12500000000E+03 0.  0.
         21    1    1    2  503  502 -0.10804172475E+03  0.11878271613E+03 -0.49627489833E+02  0.16806318956E+03  0.00000000000E+00 0. -1.
         21    1    1    2  504  501  0.91102939049E+02  0.14411316087E+03  0.75233991576E+02  0.18635584812E+03  0.00000000000E+00 0. -1.
<mgrwt>
<rscale>  4 0.46392532E+03</rscale>
<asrwt>0</asrwt>
<pdfrwt beam="1">  1       21 0.57841011E-01 0.46392532E+03</pdfrwt>
<pdfrwt beam="2">  1       21 0.42879560E-01 0.46392532E+03</pdfrwt>
<totfact> 0.13104459E+04</totfact>
</mgrwt>
</event>
<event>
 5    0  0.1723834E+000  0.4645803E+03  0.7546771E-02  0.1023461E+00
         21   -1    0    0  503  501  0.00000000000E+00  0.00000000000E+00  0.42707439627E+03  0.42707439627E+03  0.00000000000E+00 0.  1.
         21   -1    0    0  504  502 -0.00000000000E+00 -0.00000000000E+00 -0.22741797607E+03  0.22741797607E+03  0.00000000000E+00 0.  1.
         25    1    1    2    0    0  0.20168047922E+03 -0.63778765462E+02  0.48870820017E+02  0.25051168370E+03  0.12500000000E+03 0.  0.
         21    1    1    2  503  502 -0.16234373119E+03  0.53765447183E+02  0.24650043855E+03  0.30001446061E+03  0.00000000000E+00 0.  1.
         21    1    1    2  504  501 -0.39336748024E+02  0.10013318279E+02 -0.95714838362E+02  0.10396622803E+03  0.00000000000E+00 0.  1.
<mgrwt>
<rscale>  4 0.46458030E+03</rscale>
<asrwt>0</asrwt>
<pdfrwt beam="1">  1       21 0.65703753E-01 0.46458030E+03</pdfrwt>
<pdfrwt beam="2">  1       21 0.34987381E-01 0.46458030E+03</pdfrwt>
<totfact> 0.15020434E+04</totfact>
</mgrwt>
</event>
<event>
 5    0  0.1723834E+000  0.6680584E+03  0.7546771E-02  0.9773472E-01
         21   -1    0    0  503  501  0.00000000000E+00  0.00000000000E+00  0.76569984191E+03  0.76569984191E+03  0.00000000000E+00 0. -1.
         21   -1    0    0  504  502 -0.00000000000E+00 -0.00000000000E+00 -0.10218505743E+04  0.10218505743E+04  0.00000000000E+00 0. -1.
         25    1    1    2    0    0  0.13243181901E+00 -0.29027109921E+03  0.61200939803E+03  0.68879447722E+03  0.12500000000E+03 0.  0.
         21    1    1    2  503  502 -0.93466851374E+01  0.22121341399E+03  0.63238491219E+01  0.22150107476E+03  0.00000000000E+00 0. -1.
         21    1    1    2  504  501  0.92142533184E+01  0.69057685220E+02 -0.87448397953E+03  0.87725486422E+03  0.00000000000E+00 0. -1.
<mgrwt>
<rscale>  4 0.66805837E+03</rscale>
<asrwt>0</asrwt>
<pdfrwt beam="1">  1       21 0.11779998E+00 0.66805837E+03</pdfrwt>
<pdfrwt beam="2">  1       21 0.15720778E+00 0.66805837E+03</pdfrwt>
<totfact> 0.10667933E+02</totfact>
</mgrwt>
</event>
<event>
 5    0  0.1723834E+000  0.6788329E+03  0.7546771E-02  0.9754132E-01
         21   -1    0    0  503  501  0.00000000000E+00  0.00000000000E+00  0.22124725984E+03  0.22124725984E+03  0.00000000000E+00 0. -1.
         21   -1    0    0  504  502 -0.00000000000E+00 -0.00000000000E+00 -0.70989965672E+03  0.70989965672E+03  0.00000000000E+00 0.  1.
         25    1    1    2    0    0 -0.59673719078E+02  0.28252792061E+03  0.13169657709E+01  0.31465808916E+03  0.12500000000E+03 0.  0.
         21    1    1    2  503  502 -0.19180643146E+02  0.96449034712E+01 -0.18713718713E+03  0.18836466771E+03  0.00000000000E+00 0.  1.
         21    1    1    2  504  501  0.78854362224E+02 -0.29217282409E+03 -0.30283217552E+03  0.42812415968E+03  0.00000000000E+00 0.  1.
<mgrwt>
<rscale>  4 0.67883286E+03</rscale>
<asrwt>0</asrwt>
<pdfrwt beam="1">  1       21 0.34038039E-01 0.67883286E+03</pdfrwt>
<pdfrwt beam="2">  1       21 0.10921533E+00 0.67883286E+03</pdfrwt>
<totfact> 0.45541570E+03</totfact>
</mgrwt>
</event>
<event>
 5    0  0.1723834E+000  0.5165832E+03  0.7546771E-02  0.1009539E+00
         21   -1    0    0  503  501  0.00000000000E+00  0.00000000000E+00  0.12916240927E+03  0.12916240927E+03  0.00000000000E+00 0.  1.
         21   -1    0    0  504  502 -0.00000000000E+00 -0.00000000000E+00 -0.64301711651E+03  0.64301711651E+03  0.00000000000E+00 0. -1.
         25    1    1    2    0    0  0.67023949912E+02  0.23778539102E+03 -0.16485562070E+03  0.32223667967E+03  0.12500000000E+03 0.  0.
         21    1    1    2  503  502 -0.17143208761E+02 -0.22925309336E+03 -0.25605246335E+03  0.34411296751E+03  0.00000000000E+00 0.  1.
         21    1    1    2  504  501 -0.49880741151E+02 -0.85322976640E+01 -0.92946623185E+02  0.10582987859E+03  0.00000000000E+00 0. -1.
<mgrwt>
<rscale>  4 0.51658323E+03</rscale>
<asrwt>0</asrwt>
<pdfrwt beam="1">  1       21 0.19871140E-01 0.51658323E+03</pdfrwt>
<pdfrwt beam="2">  1       21 0.98925708E-01 0.51658323E+03</pdfrwt>
<totfact> 0.17403267E+04</totfact>
</mgrwt>
</event>
<event>
 5    0  0.1723834E+000  0.8303538E+03  0.7546771E-02  0.9517091E-01
         21   -1    0    0  503  501  0.00000000000E+00  0.00000000000E+00  0.14782513863E+04  0.14782513863E+04  0.00000000000E+00 0.  1.
         21   -1    0    0  504  502 -0.00000000000E+00 -0.00000000000E+00 -0.13817746526E+03  0.13817746526E+03  0.00000000000E+00 0. -1.
         25    1    1    2    0    0 -0.15985562236E+03  0.15385864481E+03  0.13640913117E+04  0.13876586068E+04  0.12500000000E+03 0.  0.
         21    1    1    2  503  502  0.13370359673E+03 -0.14712923676E+03 -0.11869247982E+02  0.19915959213E+03  0.00000000000E+00 0. -1.
         21    1    1    2  504  501  0.26152025631E+02 -0.67294080449E+01 -0.12148142650E+02  0.29610652595E+02  0.00000000000E+00 0. -1.
<mgrwt>
<rscale>  4 0.83035383E+03</rscale>
<asrwt>0</asrwt>
<pdfrwt beam="1">  1       21 0.22742328E+00 0.83035383E+03</pdfrwt>
<pdfrwt beam="2">  1       21 0.21258073E-01 0.83035383E+03</pdfrwt>
<totfact> 0.13760622E+03</totfact>
</mgrwt>
</event>
<event>
 5    0  0.1723834E+000  0.9389886E+03  0.7546771E-02  0.9378115E-01
         21   -1    0    0  503  501  0.00000000000E+00  0.00000000000E+00  0.33546893293E+03  0.33546893293E+03  0.00000000000E+00 0. -1.
         21   -1    0    0  504  502 -0.00000000000E+00 -0.00000000000E+00 -0.83952932016E+03  0.83952932016E+03  0.00000000000E+00 0. -1.
         25    1    1    2    0    0  0.41944243056E+02  0.36508670900E+03 -0.41491452913E+03  0.56817839724E+03  0.12500000000E+03 0.  0.
         21    1    1    2  503  502 -0.96629290157E+02 -0.41660110447E+03  0.67627580997E+02  0.43297481414E+03  0.00000000000E+00 0. -1.
         21    1    1    2  504  501  0.54685047101E+02  0.51514395476E+02 -0.15677343910E+03  0.17384504170E+03  0.00000000000E+00 0. -1.
<mgrwt>
<rscale>  4 0.93898857E+03</rscale>
<asrwt>0</asrwt>
<pdfrwt beam="1">  1       21 0.51610605E-01 0.93898857E+03</pdfrwt>
<pdfrwt beam="2">  1       21 0.12915836E+00 0.93898857E+03</pdfrwt>
<totfact> 0.11716233E+03</totfact>
</mgrwt>
</event>
<event>
 5    0  0.1723834E+000  0.4422337E+03  0.7546771E-02  0.1030064E+00
         21   -1    0    0  503  501  0.00000000000E+00  0.00000000000E+00  0.35419554820E+03  0.35419554820E+03  0.00000000000E+00 0.  1.
         21   -1    0    0  504  502 -0.00000000000E+00 -0.00000000000E+00 -0.58803174349E+03  0.58803174349E+03  0.00000000000E+00 0.  1.
         25    1    1    2    0    0  0.21393430685E+03  0.30108488308E+00  0.14441499634E+03  0.28679028831E+03  0.12500000000E+03 0.  0.
         21    1    1    2  503  502 -0.18978480282E+03 -0.31571073256E+02  0.70534955572E+02  0.20491506535E+03  0.00000000000E+00 0.  1.
         21    1    1    2  504  501 -0.24149504026E+02  0.31269988373E+02 -0.44878614721E+03  0.45052193803E+03  0.00000000000E+00 0.  1.
<mgrwt>
<rscale>  4 0.44223373E+03</rscale>
<asrwt>0</asrwt>
<pdfrwt beam="1">  1       21 0.54491623E-01 0.44223373E+03</pdfrwt>
<pdfrwt beam="2">  1       21 0.90466421E-01 0.44223373E+03</pdfrwt>
<totfact> 0.28790926E+03</totfact>
</mgrwt>
</event>
<event>
 5    0  0.1723834E+000  0.6186959E+03  0.7546771E-02  0.9867360E-01
         21   -1    0    0  503  501  0.00000000000E+00  0.00000000000E+00  0.14974171956E+03  0.14974171956E+03  0.00000000000E+00 0. -1.
         21   -1    0    0  504  502 -0.00000000000E+00 -0.00000000000E+00 -0.99360092279E+03  0.99360092279E+03  0.00000000000E+00 0. -1.
         25    1    1    2    0    0 -0.57053429438E+02 -0.22185595429E+03 -0.46601408470E+03  0.53410606194E+03  0.12500000000E+03 0.  0.
         21    1    1    2  503  502  0.66914937234E+02  0.24605348539E+03 -0.25876838319E+02  0.25629970203E+03  0.00000000000E+00 0. -1.
         21    1    1    2  504  501 -0.98615077958E+01 -0.24197531107E+02 -0.35196828021E+03  0.35293687838E+03  0.00000000000E+00 0. -1.
<mgrwt>
<rscale>  4 0.61869588E+03</rscale>
<asrwt>0</asrwt>
<pdfrwt beam="1">  1       21 0.23037187E-01 0.61869588E+03</pdfrwt>
<pdfrwt beam="2">  1       21 0.15286168E+00 0.61869588E+03</pdfrwt>
<totfact> 0.41506510E+03</totfact>
</mgrwt>
</event>
<event>
 5    0  0.1723834E+000  0.8732280E+03  0.7546771E-02  0.9459681E-01
         21   -1    0    0  503  501  0.00000000000E+00  0.00000000000E+00  0.35232251572E+03  0.35232251572E+03  0.00000000000E+00 0. -1.
         21   -1    0    0  504  502 -0.00000000000E+00 -0.00000000000E+00 -0.67735311905E+03  0.67735311905E+03  0.00000000000E+00 0. -1.
         25    1    1    2    0    0 -0.25740945521E+03  0.35959755174E+03 -0.20575584033E+03  0.50351811554E+03  0.12500000000E+03 0.  0.
         21    1    1    2  503  502  0.25226899014E+03 -0.30213965952E+03  0.62088809969E-01  0.39360896978E+03  0.00000000000E+00 0. -1.
         21    1    1    2  504  501  0.51404650715E+01 -0.57457892228E+02 -0.11933685181E+03  0.13254854945E+03  0.00000000000E+00 0.  1.
<mgrwt>
<rscale>  4 0.87322797E+03</rscale>
<asrwt>0</asrwt>
<pdfrwt beam="1">  1       21 0.54203464E-01 0.87322797E+03</pdfrwt>
<pdfrwt beam="2">  1       21 0.10420817E+00 0.87322797E+03</pdfrwt>
<totfact> 0.18490327E+03</totfact>
</mgrwt>
</event>
<event>
 5    0  0.1723834E+000  0.8388363E+03  0.7546771E-02  0.9505444E-01
         21   -1    0    0  503  501  0.00000000000E+00  0.00000000000E+00  0.71075038513E+03  0.71075038513E+03  0.00000000000E+00 0. -1.
         21   -1    0    0  504  502 -0.00000000000E+00 -0.00000000000E+00 -0.27661651440E+03  0.27661651440E+03  0.00000000000E+00 0.  1.
         25    1    1    2    0    0 -0.29117117387E+03 -0.11915167280E+03 -0.72791550415E+02  0.34626779151E+03  0.12500000000E+03 0.  0.
         21    1    1    2  503  502  0.28455416200E+03  0.96906529116E+02  0.52940084222E+03  0.60879158851E+03  0.00000000000E+00 0. -1.
         21    1    1    2  504  501  0.66170118725E+01  0.22245143685E+02 -0.22475421078E+02  0.32307519501E+02  0.00000000000E+00 0.  1.
<mgrwt>
<rscale>  4 0.83883632E+03</rscale>
<asrwt>0</asrwt>
<pdfrwt beam="1">  1       21 0.10934621E+00 0.83883632E+03</pdfrwt>
<pdfrwt beam="2">  1       21 0.42556387E-01 0.83883632E+03</pdfrwt>
<totfact> 0.27699537E+03</totfact>
</mgrwt>
</event>
<event>
 5    0  0.1723834E+000  0.4649637E+03  0.7546771E-02  0.1023351E+00
         21   -1    0    0  503  501  0.00000000000E+00  0.00000000000E+00  0.55371563864E+03  0.55371563864E+03  0.00000000000E+00 0. -1.
         21   -1    0    0  504  502 -0.00000000000E+00 -0.00000000000E+00 -0.17581257190E+03  0.17581257190E+03  0.00000000000E+00 0. -1.
         25    1    1    2    0    0 -0.22067909101E+03  0.20596590593E+02  0.29437435474E+03  0.38910762198E+03  0.12500000000E+03 0.  0.
         21    1    1    2  503  502  0.15104110130E+02 -0.31835208496E+02 -0.73486358558E+02  0.81497604486E+02  0.00000000000E+00 0. -1.
         21    1    1    2  504  501  0.20557498088E+03  0.11238617903E+02  0.15701507056E+03  0.25892298407E+03  0.00000000000E+00 0. -1.
<mgrwt>
<rscale>  4 0.46496371E+03</rscale>
<asrwt>0</asrwt>
<pdfrwt beam="1">  1       21 0.85187020E-01 0.46496371E+03</pdfrwt>
<pdfrwt beam="2">  1       21 0.27048088E-01 0.46496371E+03</pdfrwt>
<totfact> 0.13870027E+04</totfact>
</mgrwt>
</event>
<event>
 5    0  0.1723834E+000  0.7028900E+03  0.7546771E-02  0.9712303E-01
         21   -1    0    0  503  501  0.00000000000E+00  0.00000000000E+00  0.85002839590E+03  0.85002839590E+03  0.00000000000E+00 0. -1.
         21   -1    0    0  504  502 -0.00000000000E+00 -0.00000000000E+00 -0.15663274233E+03  0.15663274233E+03  0.00000000000E+00 0. -1.
         25    1    1    2    0    0  0.75976165317E+02  0.31664137018E+03  0.24751219053E+03  0.42769313703E+03  0.12500000000E+03 0.  0.
         21    1    1    2  503  502 -0.58044365271E+02 -0.33613907410E+03  0.42655832137E+03  0.54617820078E+03  0.00000000000E+00 0. -1.
         21    1    1    2  504  501 -0.17931800046E+02  0.19497703924E+02  0.19325141671E+02  0.32789800423E+02  0.00000000000E+00 0. -1.
<mgrwt>
<rscale>  4 0.70288998E+03</rscale>
<asrwt>0</asrwt>
<pdfrwt beam="1">  1       21 0.13077360E+00 0.70288998E+03</pdfrwt>
<pdfrwt beam="2">  1       21 0.24097345E-01 0.70288998E+03</pdfrwt>
<totfact> 0.56801156E+03</totfact>
</mgrwt>
</event>
<event>
 5    0  0.1723834E+000  0.3687498E+03  0.7546771E-02  0.1055172E+00
         21   -1    0    0  503  501  0.00000000000E+00  0.00000000000E+00  0.26925763155E+04  0.26925763155E+04  0.00000000000E+00 0.  1.
         21   -1    0    0  504  502 -0.00000000000E+00 -0.00000000000E+00 -0.65026194513E+02  0.65026194513E+02  0.00000000000E+00 0.  1.
         25    1    1    2    0    0 -0.15641484207E+03 -0.16917467706E+03  0.16222769329E+04  0.16433177176E+04  0.12500000000E+03 0.  0.
         21    1    1    2  503  502  0.10708760585E+03  0.83094759033E+02  0.36403187722E+02  0.14034844631E+03  0.00000000000E+00 0.  1.
         21    1    1    2  504  501  0.49327236222E+02  0.86079918026E+02  0.96887000040E+03  0.97393634607E+03  0.00000000000E+00 0. -1.
<mgrwt>
<rscale>  4 0.36874979E+03</rscale>
<asrwt>0</asrwt>
<pdfrwt beam="1">  1       21 0.41424242E+00 0.36874979E+03</pdfrwt>
<pdfrwt beam="2">  1       21 0.10004032E-01 0.36874979E+03</pdfrwt>
<totfact> 0.47085897E+02</totfact>
</mgrwt>
</event>
<event>
 5    0  0.1723834E+000  0.9057319E+03  0.7546771E-02  0.9418445E-01
         21   -1    0    0  503  501  0.00000000000E+00  0.00000000000E+00  0.19655315973E+04  0.19655315973E+04  0.00000000000E+00 0. -1.
         21   -1    0    0  504  502 -0.00000000000E+00 -0.00000000000E+00 -0.20367965760E+03  0.20367965760E+03  0.00000000000E+00 0.  1.
         25    1    1    2    0    0  0.20802612562E+03 -0.12147162175E+03  0.18697017979E+04  0.18892961750E+04  0.12500000000E+03 0.  0.
         21    1    1    2  503  502 -0.14647862887E+03  0.43568391860E+02 -0.35013813936E+02  0.15678061313E+03  0.00000000000E+00 0.  1.
         21    1    1    2  504  501 -0.61547496746E+02  0.77903229888E+02 -0.72836044210E+02  0.12313446682E+03  0.00000000000E+00 0.  1.
<mgrwt>
<rscale>  4 0.90573187E+03</rscale>
<asrwt>0</asrwt>
<pdfrwt beam="1">  1       21 0.30238946E+00 0.90573187E+03</pdfrwt>
<pdfrwt beam="2">  1       21 0.31335333E-01 0.90573187E+03</pdfrwt>
<totfact> 0.21187575E+02</totfact>
</mgrwt>
</event>
<event>
 5    0  0.1723834E+000  0.6957721E+03  0.7546771E-02  0.9724490E-01
         21   -1    0    0  503  501  0.00000000000E+00  0.00000000000E+00  0.75451131428E+03  0.75451131428E+03  0.00000000000E+00 0. -1.
         21   -1    0    0  504  502 -0.00000000000E+00 -0.00000000000E+00 -0.33904073305E+03  0.33904073305E+03  0.00000000000E+00 0.  1.
         25    1    1    2    0    0  0.95049143269E+02 -0.23273192942E+03 -0.86700425084E+01  0.28088905327E+03  0.12500000000E+03 0.  0.
         21    1    1    2  503  502 -0.51662146875E+02  0.19523011213E+03  0.59716166634E+03  0.63038546133E+03  0.00000000000E+00 0. -1.
         21    1    1    2  504  501 -0.43386996394E+02  0.37501817290E+02 -0.17302104261E+03  0.18227753274E+03  0.00000000000E+00 0.  1.
<mgrwt>
<rscale>  4 0.69577212E+03</rscale>
<asrwt>0</asrwt>
<pdfrwt beam="1">  1       21 0.11607866E+00 0.69577212E+03</pdfrwt>
<pdfrwt beam="2">  1       21 0.52160113E-01 0.69577212E+03</pdfrwt>
<totfact> 0.15910790E+03</totfact>
</mgrwt>
</event>
<event>
 5    0  0.1723834E+000  0.4917472E+03  0.7546771E-02  0.1015956E+00
         21   -1    0    0  503  501  0.00000000000E+00  0.00000000000E+00  0.11889686322E+03  0.11889686322E+03  0.00000000000E+00 0.  1.
         21   -1    0    0  504  502 -0.00000000000E+00 -0.00000000000E+00 -0.10424529899E+04  0.10424529899E+04  0.00000000000E+00 0.  1.
         25    1    1    2    0    0 -0.19623838112E+03  0.18099339154E+03 -0.31893656935E+03  0.43429672492E+03  0.12500000000E+03 0.  0.
         21    1    1    2  503  502  0.10023881534E+03 -0.21279392044E+02 -0.50590018999E+03  0.51617403544E+03  0.00000000000E+00 0.  1.
         21    1    1    2  504  501  0.95999565783E+02 -0.15971399950E+03 -0.98719367289E+02  0.21087909272E+03  0.00000000000E+00 0.  1.
<mgrwt>
<rscale>  4 0.49174725E+03</rscale>
<asrwt>0</asrwt>
<pdfrwt beam="1">  1       21 0.18291825E-01 0.49174725E+03</pdfrwt>
<pdfrwt beam="2">  1       21 0.16037739E+00 0.49174725E+03</pdfrwt>
<totfact> 0.58600059E+03</totfact>
</mgrwt>
</event>
<event>
 5    0  0.1723834E+000  0.5733661E+03  0.7546771E-02  0.9962257E-01
         21   -1    0    0  503  501  0.00000000000E+00  0.00000000000E+00  0.15864099429E+03  0.15864099429E+03  0.00000000000E+00 0. -1.
         21   -1    0    0  504  502 -0.00000000000E+00 -0.00000000000E+00 -0.77421679924E+03  0.77421679924E+03  0.00000000000E+00 0.  1.
         25    1    1    2    0    0 -0.13578302688E+03  0.21866332985E+03 -0.34663599130E+03  0.44947991354E+03  0.12500000000E+03 0.  0.
         21    1    1    2  503  502  0.94764469784E+01 -0.28103654264E+02 -0.25242767590E+03  0.25416402182E+03  0.00000000000E+00 0.  1.
         21    1    1    2  504  501  0.12630657990E+03 -0.19055967558E+03 -0.16512137754E+02  0.22921385817E+03  0.00000000000E+00 0. -1.
<mgrwt>
<rscale>  4 0.57336609E+03</rscale>
<asrwt>0</asrwt>
<pdfrwt beam="1">  1       21 0.24406307E-01 0.57336609E+03</pdfrwt>
<pdfrwt beam="2">  1       21 0.11911028E+00 0.57336609E+03</pdfrwt>
<totfact> 0.72736806E+03</totfact>
</mgrwt>
</event>
<event>
 5    0  0.1723834E+000  0.5514577E+03  0.7546771E-02  0.1001157E+00
         21   -1    0    0  503  501  0.00000000000E+00  0.00000000000E+00  0.39348522763E+03  0.39348522763E+03  0.00000000000E+00 0.  1.
         21   -1    0    0  504  502 -0.00000000000E+00 -0.00000000000E+00 -0.18127570625E+04  0.18127570625E+04  0.00000000000E+00 0.  1.
         25    1    1    2    0    0 -0.15505303481E+03  0.15857070528E+03 -0.97577866005E+02  0.27263996793E+03  0.12500000000E+03 0.  0.
         21    1    1    2  503  502  0.27075279354E+02 -0.10429817989E+03  0.29338736716E+03  0.31254972130E+03  0.00000000000E+00 0.  1.
         21    1    1    2  504  501  0.12797775546E+03 -0.54272525387E+02 -0.16150813360E+04  0.16210526009E+04  0.00000000000E+00 0.  1.
<mgrwt>
<rscale>  4 0.55145772E+03</rscale>
<asrwt>0</asrwt>
<pdfrwt beam="1">  1       21 0.60536189E-01 0.55145772E+03</pdfrwt>
<pdfrwt beam="2">  1       21 0.27888570E+00 0.55145772E+03</pdfrwt>
<totfact> 0.84139560E+01</totfact>
</mgrwt>
</event>
<event>
 5    0  0.1723834E+000  0.5246319E+03  0.7546771E-02  0.1007542E+00
         21   -1    0    0  503  501  0.00000000000E+00  0.00000000000E+00  0.79429565204E+02  0.79429565204E+02  0.00000000000E+00 0.  1.
         21   -1    0    0  504  502 -0.00000000000E+00 -0.00000000000E+00 -0.10501252292E+04  0.10501252292E+04  0.00000000000E+00 0.  1.
         25    1    1    2    0    0 -0.15299884662E+03 -0.18838600716E+03 -0.43507194523E+03  0.51362489454E+03  0.12500000000E+03 0.  0.
         21    1    1    2  503  502 -0.30960759530E+02  0.16973137077E+02 -0.16045547078E+03  0.16429429119E+03  0.00000000000E+00 0.  1.
         21    1    1    2  504  501  0.18395960615E+03  0.17141287008E+03 -0.37516824795E+03  0.45163560865E+03  0.00000000000E+00 0.  1.
<mgrwt>
<rscale>  4 0.52463194E+03</rscale>
<asrwt>0</asrwt>
<pdfrwt beam="1">  1       21 0.12219934E-01 0.52463194E+03</pdfrwt>
<pdfrwt beam="2">  1       21 0.16155771E+00 0.52463194E+03</pdfrwt>
<totfact> 0.12037532E+04</totfact>
</mgrwt>
</event>
<event>
 5    0  0.1723834E+000  0.4652665E+03  0.7546771E-02  0.1023265E+00
         21   -1    0    0  503  501  0.00000000000E+00  0.00000000000E+00  0.16650059903E+03  0.16650059903E+03  0.00000000000E+00 0. -1.
         21   -1    0    0  504  502 -0.00000000000E+00 -0.00000000000E+00 -0.41974810954E+03  0.41974810954E+03  0.00000000000E+00 0. -1.
         25    1    1    2    0    0  0.12730873702E+03  0.16128438242E+03  0.43137234473E+01  0.24054890302E+03  0.12500000000E+03 0.  0.
         21    1    1    2  503  502 -0.10478137928E+03 -0.15747114651E+03 -0.16706161721E+03  0.25236062167E+03  0.00000000000E+00 0. -1.
         21    1    1    2  504  501 -0.22527357739E+02 -0.38132359123E+01 -0.90499616751E+02  0.93339183878E+02  0.00000000000E+00 0. -1.
<mgrwt>
<rscale>  4 0.46526651E+03</rscale>
<asrwt>0</asrwt>
<pdfrwt beam="1">  1       21 0.25615477E-01 0.46526651E+03</pdfrwt>
<pdfrwt beam="2">  1       21 0.64576633E-01 0.46526651E+03</pdfrwt>
<totfact> 0.29008180E+04</totfact>
</mgrwt>
</event>
<event>
 5    0  0.1723834E+000  0.4758289E+03  0.7546771E-02  0.1020288E+00
         21   -1    0    0  503  501  0.00000000000E+00  0.00000000000E+00  0.43477359400E+03  0.43477359400E+03  0.00000000000E+00 0.  1.
         21   -1    0    0  504  502 -0.00000000000E+00 -0.00000000000E+00 -0.20152697080E+03  0.20152697080E+03  0.00000000000E+00 0.  1.
         25    1    1    2    0    0  0.18735377594E+03  0.87133389502E+02  0.13027429875E+03  0.27439033846E+03  0.12500000000E+03 0.  0.
         21    1    1    2  503  502 -0.21862808737E+03 -0.80071471127E+02  0.16954489289E+03  0.28801936008E+03  0.00000000000E+00 0.  1.
         21    1    1    2  504  501  0.31274311435E+02 -0.70619183756E+01 -0.66572568445E+02  0.73890866257E+02  0.00000000000E+00 0.  1.
<mgrwt>
<rscale>  4 0.47582888E+03</rscale>
<asrwt>0</asrwt>
<pdfrwt beam="1">  1       21 0.66888245E-01 0.47582888E+03</pdfrwt>
<pdfrwt beam="2">  1       21 0.31004149E-01 0.47582888E+03</pdfrwt>
<totfact> 0.18350401E+04</totfact>
</mgrwt>
</event>
<event>
 5    0  0.1723834E+000  0.5094330E+03  0.7546771E-02  0.1011346E+00
         21   -1    0    0  503  501  0.00000000000E+00  0.00000000000E+00  0.52904322839E+02  0.52904322839E+02  0.00000000000E+00 0.  1.
         21   -1    0    0  504  502 -0.00000000000E+00 -0.00000000000E+00 -0.15963629826E+04  0.15963629826E+04  0.00000000000E+00 0.  1.
         25    1    1    2    0    0  0.21209454040E+03  0.11431081892E+03 -0.48097753303E+03  0.55228203363E+03  0.12500000000E+03 0.  0.
         21    1    1    2  503  502 -0.16308996696E+02 -0.12969445677E+02 -0.36271907449E+03  0.36331710240E+03  0.00000000000E+00 0.  1.
         21    1    1    2  504  501 -0.19578554370E+03 -0.10134137325E+03 -0.69976205226E+03  0.73366816943E+03  0.00000000000E+00 0.  1.
<mgrwt>
<rscale>  4 0.50943298E+03</rscale>
<asrwt>0</asrwt>
<pdfrwt beam="1">  1       21 0.81391268E-02 0.50943298E+03</pdfrwt>
<pdfrwt beam="2">  1       21 0.24559430E+00 0.50943298E+03</pdfrwt>
<totfact> 0.68507326E+03</totfact>
</mgrwt>
</event>
<event>
 5    0  0.1723834E+000  0.5260802E+03  0.7546771E-02  0.1007187E+00
         21   -1    0    0  503  501  0.00000000000E+00  0.00000000000E+00  0.28484847328E+03  0.28484847328E+03  0.00000000000E+00 0. -1.
         21   -1    0    0  504  502 -0.00000000000E+00 -0.00000000000E+00 -0.46021099587E+03  0.46021099587E+03  0.00000000000E+00 0. -1.
         25    1    1    2    0    0 -0.23291099894E+03 -0.10768194850E+03 -0.55407257194E+02  0.29075401908E+03  0.12500000000E+03 0.  0.
         21    1    1    2  503  502  0.20276995624E+03  0.78495643307E+02  0.93559236716E+02  0.23670773529E+03  0.00000000000E+00 0. -1.
         21    1    1    2  504  501  0.30141042704E+02  0.29186305191E+02 -0.21351450211E+03  0.21759771478E+03  0.00000000000E+00 0. -1.
<mgrwt>
<rscale>  4 0.52608015E+03</rscale>
<asrwt>0</asrwt>
<pdfrwt beam="1">  1       21 0.43822842E-01 0.52608015E+03</pdfrwt>
<pdfrwt beam="2">  1       21 0.70801691E-01 0.52608015E+03</pdfrwt>
<totfact> 0.78609910E+03</totfact>
</mgrwt>
</event>
<event>
 5    0  0.1723834E+000  0.4513252E+03  0.7546771E-02  0.1027328E+00
         21   -1    0    0  503  501  0.00000000000E+00  0.00000000000E+00  0.30687200677E+03  0.30687200677E+03  0.00000000000E+00 0.  1.
         21   -1    0    0  504  502 -0.00000000000E+00 -0.00000000000E+00 -0.44557751589E+03  0.44557751589E+03  0.00000000000E+00 0.  1.
         25    1    1    2    0    0 -0.19472587602E+03  0.18763865846E+03  0.31656317867E+02  0.29958897744E+03  0.12500000000E+03 0.  0.
         21    1    1    2  503  502 -0.74852575742E+02 -0.85931978064E+02 -0.11018330325E+03  0.15851679174E+03  0.00000000000E+00 0. -1.
         21    1    1    2  504  501  0.26957845176E+03 -0.10170668040E+03 -0.60178523738E+02  0.29434375348E+03  0.00000000000E+00 0.  1.
<mgrwt>
<rscale>  4 0.45132517E+03</rscale>
<asrwt>0</asrwt>
<pdfrwt beam="1">  1       21 0.47211078E-01 0.45132517E+03</pdfrwt>
<pdfrwt beam="2">  1       21 0.68550387E-01 0.45132517E+03</pdfrwt>
<totfact> 0.73841332E+03</totfact>
</mgrwt>
</event>
<event>
 5    0  0.1943914E+000  0.5953680E+03  0.7546771E-02  0.9915063E-01
         21   -1    0    0  503  501  0.00000000000E+00  0.00000000000E+00  0.82147718095E+03  0.82147718095E+03  0.00000000000E+00 0. -1.
         21   -1    0    0  504  502 -0.00000000000E+00 -0.00000000000E+00 -0.27905602814E+03  0.27905602814E+03  0.00000000000E+00 0. -1.
         25    1    1    2    0    0 -0.30885916374E+03  0.83774967597E+02  0.66262062726E+03  0.74639354492E+03  0.12500000000E+03 0.  0.
         21    1    1    2  503  502  0.24390177295E+03 -0.37109311813E+02 -0.59634295792E+02  0.25381376068E+03  0.00000000000E+00 0. -1.
         21    1    1    2  504  501  0.64957390790E+02 -0.46665655784E+02 -0.60565178656E+02  0.10032590350E+03  0.00000000000E+00 0.  1.
<mgrwt>
<rscale>  4 0.59536800E+03</rscale>
<asrwt>0</asrwt>
<pdfrwt beam="1">  1       21 0.12638110E+00 0.59536800E+03</pdfrwt>
<pdfrwt beam="2">  1       21 0.42931697E-01 0.59536800E+03</pdfrwt>
<totfact> 0.19857721E+03</totfact>
</mgrwt>
</event>
<event>
 5    0  0.1723834E+000  0.1015902E+04  0.7546771E-02  0.9291274E-01
         21   -1    0    0  503  501  0.00000000000E+00  0.00000000000E+00  0.45738439870E+03  0.45738439870E+03  0.00000000000E+00 0.  1.
         21   -1    0    0  504  502 -0.00000000000E+00 -0.00000000000E+00 -0.11751076840E+04  0.11751076840E+04  0.00000000000E+00 0.  1.
         25    1    1    2    0    0 -0.28920710275E+03  0.17144098603E+03 -0.43309931683E+03  0.56234578171E+03  0.12500000000E+03 0.  0.
         21    1    1    2  503  502  0.29114074733E+03 -0.14188545596E+03  0.32557353409E+03  0.45923038169E+03  0.00000000000E+00 0.  1.
         21    1    1    2  504  501 -0.19336445824E+01 -0.29555530075E+02 -0.61019750256E+03  0.61091591931E+03  0.00000000000E+00 0.  1.
<mgrwt>
<rscale>  4 0.10159016E+04</rscale>
<asrwt>0</asrwt>
<pdfrwt beam="1">  1       21 0.70366831E-01 0.10159016E+04</pdfrwt>
<pdfrwt beam="2">  1       21 0.18078580E+00 0.10159016E+04</pdfrwt>
<totfact> 0.22437405E+02</totfact>
</mgrwt>
</event>
<event>
 5    0  0.1723834E+000  0.5919785E+03  0.7546771E-02  0.9922189E-01
         21   -1    0    0  503  501  0.00000000000E+00  0.00000000000E+00  0.36342051873E+03  0.36342051873E+03  0.00000000000E+00 0.  1.
         21   -1    0    0  504  502 -0.00000000000E+00 -0.00000000000E+00 -0.32333687577E+03  0.32333687577E+03  0.00000000000E+00 0.  1.
         25    1    1    2    0    0 -0.11562703387E+02  0.20510460519E+03 -0.15947720245E+03  0.28854735015E+03  0.12500000000E+03 0.  0.
         21    1    1    2  503  502  0.16632638631E+02 -0.15870143729E+03  0.27004682695E+03  0.31366874185E+03  0.00000000000E+00 0.  1.
         21    1    1    2  504  501 -0.50699352444E+01 -0.46403167898E+02 -0.70485981538E+02  0.84541302496E+02  0.00000000000E+00 0.  1.
<mgrwt>
<rscale>  4 0.59197853E+03</rscale>
<asrwt>0</asrwt>
<pdfrwt beam="1">  1       21 0.55910849E-01 0.59197853E+03</pdfrwt>
<pdfrwt beam="2">  1       21 0.49744134E-01 0.59197853E+03</pdfrwt>
<totfact> 0.99981698E+03</totfact>
</mgrwt>
</event>
<event>
 5    0  0.1723834E+000  0.5086763E+03  0.7546771E-02  0.1011539E+00
         21   -1    0    0  503  501  0.00000000000E+00  0.00000000000E+00  0.56239041868E+03  0.56239041868E+03  0.00000000000E+00 0. -1.
         21   -1    0    0  504  502 -0.00000000000E+00 -0.00000000000E+00 -0.31449615647E+03  0.31449615647E+03  0.00000000000E+00 0. -1.
         25    1    1    2    0    0 -0.25511809608E+02 -0.22118488674E+03  0.19449039670E+03  0.32097526534E+03  0.12500000000E+03 0.  0.
         21    1    1    2  503  502  0.41882524467E+02  0.24778688830E+03  0.25140162600E+03  0.35546485821E+03  0.00000000000E+00 0. -1.
         21    1    1    2  504  501 -0.16370714859E+02 -0.26602001555E+02 -0.19799776051E+03  0.20044645159E+03  0.00000000000E+00 0. -1.
<mgrwt>
<rscale>  4 0.50867627E+03</rscale>
<asrwt>0</asrwt>
<pdfrwt beam="1">  1       21 0.86521603E-01 0.50867627E+03</pdfrwt>
<pdfrwt beam="2">  1       21 0.48384024E-01 0.50867627E+03</pdfrwt>
<totfact> 0.40353037E+03</totfact>
</mgrwt>
</event>
<event>
 5    0  0.1723834E+000  0.6299621E+03  0.7546771E-02  0.9845123E-01
         21   -1    0    0  503  501  0.00000000000E+00  0.00000000000E+00  0.68676566219E+03  0.68676566219E+03  0.00000000000E+00 0.  1.
         21   -1    0    0  504  502 -0.00000000000E+00 -0.00000000000E+00 -0.64292616116E+03  0.64292616116E+03  0.00000000000E+00 0.  1.
         25    1    1    2    0    0  0.24794129124E+03 -0.77983422313E+02  0.21354352421E+02  0.28920115219E+03  0.12500000000E+03 0.  0.
         21    1    1    2  503  502 -0.52483056417E+03  0.15446154415E+03 -0.28736691237E+03  0.61796863354E+03  0.00000000000E+00 0.  1.
         21    1    1    2  504  501  0.27688927293E+03 -0.76478121833E+02  0.30985206099E+03  0.42252203763E+03  0.00000000000E+00 0.  1.
<mgrwt>
<rscale>  4 0.62996207E+03</rscale>
<asrwt>0</asrwt>
<pdfrwt beam="1">  1       21 0.10565626E+00 0.62996207E+03</pdfrwt>
<pdfrwt beam="2">  1       21 0.98911716E-01 0.62996207E+03</pdfrwt>
<totfact> 0.47440582E+02</totfact>
</mgrwt>
</event>
<event>
 5    0  0.1723834E+000  0.5623156E+03  0.7546771E-02  0.9986829E-01
         21   -1    0    0  503  501  0.00000000000E+00  0.00000000000E+00  0.10524519562E+04  0.10524519562E+04  0.00000000000E+00 0.  1.
         21   -1    0    0  504  502 -0.00000000000E+00 -0.00000000000E+00 -0.25297978378E+03  0.25297978378E+03  0.00000000000E+00 0. -1.
         25    1    1    2    0    0 -0.29848850527E+03 -0.59175171942E+02  0.36659822811E+03  0.49256101105E+03  0.12500000000E+03 0.  0.
         21    1    1    2  503  502  0.12738692971E+03 -0.29386342244E+01 -0.15315092190E+03  0.19922668072E+03  0.00000000000E+00 0. -1.
         21    1    1    2  504  501  0.17110157556E+03  0.62113806167E+02  0.58602486625E+03  0.61364404824E+03  0.00000000000E+00 0.  1.
<mgrwt>
<rscale>  4 0.56231563E+03</rscale>
<asrwt>0</asrwt>
<pdfrwt beam="1">  1       21 0.16191568E+00 0.56231563E+03</pdfrwt>
<pdfrwt beam="2">  1       21 0.38919967E-01 0.56231563E+03</pdfrwt>
<totfact> 0.12599931E+03</totfact>
</mgrwt>
</event>
<event>
 5    0  0.1723834E+000  0.6310796E+03  0.7546771E-02  0.9842944E-01
         21   -1    0    0  503  501  0.00000000000E+00  0.00000000000E+00  0.35425544378E+03  0.35425544378E+03  0.00000000000E+00 0.  1.
         21   -1    0    0  504  502 -0.00000000000E+00 -0.00000000000E+00 -0.43504732040E+03  0.43504732040E+03  0.00000000000E+00 0. -1.
         25    1    1    2    0    0 -0.80239202499E+02 -0.20132856991E+03  0.24689585389E+03  0.35150261073E+03  0.12500000000E+03 0.  0.
         21    1    1    2  503  502  0.28205745202E+02 -0.14202025537E+02 -0.15105781527E+03  0.15432344328E+03  0.00000000000E+00 0. -1.
         21    1    1    2  504  501  0.52033457297E+02  0.21553059544E+03 -0.17662991524E+03  0.28347671017E+03  0.00000000000E+00 0. -1.
<mgrwt>
<rscale>  4 0.63107958E+03</rscale>
<asrwt>0</asrwt>
<pdfrwt beam="1">  1       21 0.54500838E-01 0.63107958E+03</pdfrwt>
<pdfrwt beam="2">  1       21 0.66930356E-01 0.63107958E+03</pdfrwt>
<totfact> 0.54668976E+03</totfact>
</mgrwt>
</event>
<event>
 5    0  0.1723834E+000  0.1361689E+04  0.7546771E-02  0.8982026E-01
         21   -1    0    0  503  501  0.00000000000E+00  0.00000000000E+00  0.15844580771E+04  0.15844580771E+04  0.00000000000E+00 0.  1.
         21   -1    0    0  504  502 -0.00000000000E+00 -0.00000000000E+00 -0.32516192663E+03  0.32516192663E+03  0.00000000000E+00 0.  1.
         25    1    1    2    0    0  0.24222548502E+03 -0.46982738163E+03  0.59493034439E+02  0.54642051139E+03  0.12500000000E+03 0.  0.
         21    1    1    2  503  502 -0.25536305799E+03  0.43942293749E+03  0.12219005021E+04  0.13233834087E+04  0.00000000000E+00 0.  1.
         21    1    1    2  504  501  0.13137572972E+02  0.30404444141E+02 -0.22097386058E+02  0.39816083656E+02  0.00000000000E+00 0.  1.
<mgrwt>
<rscale>  4 0.13616891E+04</rscale>
<asrwt>0</asrwt>
<pdfrwt beam="1">  1       21 0.24376278E+00 0.13616891E+04</pdfrwt>
<pdfrwt beam="2">  1       21 0.50024913E-01 0.13616891E+04</pdfrwt>
<totfact> 0.16851379E+02</totfact>
</mgrwt>
</event>
<event>
 5    0  0.1723834E+000  0.5280485E+03  0.7546771E-02  0.1006707E+00
         21   -1    0    0  503  501  0.00000000000E+00  0.00000000000E+00  0.20131296565E+03  0.20131296565E+03  0.00000000000E+00 0. -1.
         21   -1    0    0  504  502 -0.00000000000E+00 -0.00000000000E+00 -0.85748007513E+03  0.85748007513E+03  0.00000000000E+00 0.  1.
         25    1    1    2    0    0 -0.36279595981E+02  0.28509789538E+03 -0.67714490038E+02  0.32063572976E+03  0.12500000000E+03 0.  0.
         21    1    1    2  503  502 -0.19999300112E+02 -0.21132735432E+03 -0.89025772415E+02  0.23018429756E+03  0.00000000000E+00 0. -1.
         21    1    1    2  504  501  0.56278896093E+02 -0.73770541065E+02 -0.49942684703E+03  0.50797301347E+03  0.00000000000E+00 0.  1.
<mgrwt>
<rscale>  4 0.52804848E+03</rscale>
<asrwt>0</asrwt>
<pdfrwt beam="1">  1       21 0.30971226E-01 0.52804848E+03</pdfrwt>
<pdfrwt beam="2">  1       21 0.13192001E+00 0.52804848E+03</pdfrwt>
<totfact> 0.35318780E+03</totfact>
</mgrwt>
</event>
<event>
 5    0  0.1723834E+000  0.5661499E+03  0.7546771E-02  0.9978235E-01
         21   -1    0    0  503  501  0.00000000000E+00  0.00000000000E+00  0.42789947458E+03  0.42789947458E+03  0.00000000000E+00 0. -1.
         21   -1    0    0  504  502 -0.00000000000E+00 -0.00000000000E+00 -0.57243240783E+03  0.57243240783E+03  0.00000000000E+00 0. -1.
         25    1    1    2    0    0  0.87779417709E+02 -0.23359492290E+03  0.58697164474E+02  0.28520548959E+03  0.12500000000E+03 0.  0.
         21    1    1    2  503  502  0.11443877459E+02 -0.23299677990E+02 -0.38453619344E+03  0.38541136645E+03  0.00000000000E+00 0. -1.
         21    1    1    2  504  501 -0.99223295167E+02  0.25689460089E+03  0.18130609572E+03  0.32971502637E+03  0.00000000000E+00 0. -1.
<mgrwt>
<rscale>  4 0.56614987E+03</rscale>
<asrwt>0</asrwt>
<pdfrwt beam="1">  1       21 0.65830688E-01 0.56614987E+03</pdfrwt>
<pdfrwt beam="2">  1       21 0.88066525E-01 0.56614987E+03</pdfrwt>
<totfact> 0.19455601E+03</totfact>
</mgrwt>
</event>
<event>
 5    0  0.1723834E+000  0.5720086E+03  0.7546771E-02  0.9965244E-01
         21   -1    0    0  503  501  0.00000000000E+00  0.00000000000E+00  0.14415149628E+03  0.14415149628E+03  0.00000000000E+00 0. -1.
         21   -1    0    0  504  502 -0.00000000000E+00 -0.00000000000E+00 -0.71615914316E+03  0.71615914316E+03  0.00000000000E+00 0. -1.
         25    1    1    2    0    0  0.22366582242E+03  0.88474057232E+02 -0.95139395784E+02  0.28728133171E+03  0.12500000000E+03 0.  0.
         21    1    1    2  503  502  0.33197383436E+02 -0.29471775620E+02 -0.13016077098E+03  0.13752264587E+03  0.00000000000E+00 0. -1.
         21    1    1    2  504  501 -0.25686320585E+03 -0.59002281612E+02 -0.34670748012E+03  0.43550666186E+03  0.00000000000E+00 0. -1.
<mgrwt>
<rscale>  4 0.57200859E+03</rscale>
<asrwt>0</asrwt>
<pdfrwt beam="1">  1       21 0.22177154E-01 0.57200859E+03</pdfrwt>
<pdfrwt beam="2">  1       21 0.11017833E+00 0.57200859E+03</pdfrwt>
<totfact> 0.10663199E+04</totfact>
</mgrwt>
</event>
<event>
 5    0  0.1723834E+000  0.3812974E+03  0.7546771E-02  0.1050455E+00
         21   -1    0    0  503  501  0.00000000000E+00  0.00000000000E+00  0.39130346837E+03  0.39130346837E+03  0.00000000000E+00 0.  1.
         21   -1    0    0  504  502 -0.00000000000E+00 -0.00000000000E+00 -0.42588816961E+03  0.42588816961E+03  0.00000000000E+00 0. -1.
         25    1    1    2    0    0 -0.89652645009E+02  0.19904245632E+03  0.27905883565E+03  0.37570511033E+03  0.12500000000E+03 0.  0.
         21    1    1    2  503  502  0.68182373061E+02 -0.10159555170E+03 -0.31889747058E+03  0.34156417971E+03  0.00000000000E+00 0. -1.
         21    1    1    2  504  501  0.21470271948E+02 -0.97446904622E+02  0.52539336831E+01  0.99922347936E+02  0.00000000000E+00 0.  1.
<mgrwt>
<rscale>  4 0.38129743E+03</rscale>
<asrwt>0</asrwt>
<pdfrwt beam="1">  1       21 0.60200534E-01 0.38129743E+03</pdfrwt>
<pdfrwt beam="2">  1       21 0.65521257E-01 0.38129743E+03</pdfrwt>
<totfact> 0.49678809E+03</totfact>
</mgrwt>
</event>
<event>
 5    0  0.1723834E+000  0.5199395E+03  0.7546771E-02  0.1008702E+00
         21   -1    0    0  503  501  0.00000000000E+00  0.00000000000E+00  0.74999474028E+02  0.74999474028E+02  0.00000000000E+00 0.  1.
         21   -1    0    0  504  502 -0.00000000000E+00 -0.00000000000E+00 -0.10674376781E+04  0.10674376781E+04  0.00000000000E+00 0.  1.
         25    1    1    2    0    0 -0.20904571054E+03 -0.81002864869E+02 -0.33963179067E+03  0.42571860007E+03  0.12500000000E+03 0.  0.
         21    1    1    2  503  502 -0.30355110749E+02 -0.82260104852E+01 -0.14369934295E+03  0.14710064976E+03  0.00000000000E+00 0. -1.
         21    1    1    2  504  501  0.23940082129E+03  0.89228875354E+02 -0.50910707046E+03  0.56961790230E+03  0.00000000000E+00 0.  1.
<mgrwt>
<rscale>  4 0.51993951E+03</rscale>
<asrwt>0</asrwt>
<pdfrwt beam="1">  1       21 0.11538380E-01 0.51993951E+03</pdfrwt>
<pdfrwt beam="2">  1       21 0.16422119E+00 0.51993951E+03</pdfrwt>
<totfact> 0.12781704E+04</totfact>
</mgrwt>
</event>
<event>
 5    0  0.1723834E+000  0.1233363E+04  0.7546771E-02  0.9084145E-01
         21   -1    0    0  503  501  0.00000000000E+00  0.00000000000E+00  0.55133515527E+03  0.55133515527E+03  0.00000000000E+00 0. -1.
         21   -1    0    0  504  502 -0.00000000000E+00 -0.00000000000E+00 -0.10566214316E+04  0.10566214316E+04  0.00000000000E+00 0.  1.
         25    1    1    2    0    0 -0.48725373054E+03 -0.15733832077E+03 -0.43998009163E+03  0.68657048155E+03  0.12500000000E+03 0.  0.
         21    1    1    2  503  502  0.39695457491E+02  0.21172373533E+02 -0.36372430774E+03  0.36649607200E+03  0.00000000000E+00 0.  1.
         21    1    1    2  504  501  0.44755827305E+03  0.13616594723E+03  0.29841812301E+03  0.55489003334E+03  0.00000000000E+00 0. -1.
<mgrwt>
<rscale>  4 0.12333631E+04</rscale>
<asrwt>0</asrwt>
<pdfrwt beam="1">  1       21 0.84820794E-01 0.12333631E+04</pdfrwt>
<pdfrwt beam="2">  1       21 0.16255714E+00 0.12333631E+04</pdfrwt>
<totfact> 0.19022586E+02</totfact>
</mgrwt>
</event>
<event>
 5    0  0.1723834E+000  0.5116529E+03  0.7546771E-02  0.1010781E+00
         21   -1    0    0  503  501  0.00000000000E+00  0.00000000000E+00  0.22680577978E+03  0.22680577978E+03  0.00000000000E+00 0.  1.
         21   -1    0    0  504  502 -0.00000000000E+00 -0.00000000000E+00 -0.55772993392E+03  0.55772993392E+03  0.00000000000E+00 0. -1.
         25    1    1    2    0    0 -0.20265682072E+03  0.45310477294E+02  0.10768689842E+03  0.26522498832E+03  0.12500000000E+03 0.  0.
         21    1    1    2  503  502  0.21589956973E+02 -0.32502225557E+02 -0.26592298760E+03  0.26877045270E+03  0.00000000000E+00 0. -1.
         21    1    1    2  504  501  0.18106686375E+03 -0.12808251737E+02 -0.17268806495E+03  0.25054027269E+03  0.00000000000E+00 0.  1.
<mgrwt>
<rscale>  4 0.51165286E+03</rscale>
<asrwt>0</asrwt>
<pdfrwt beam="1">  1       21 0.34893197E-01 0.51165286E+03</pdfrwt>
<pdfrwt beam="2">  1       21 0.85804604E-01 0.51165286E+03</pdfrwt>
<totfact> 0.80993431E+03</totfact>
</mgrwt>
</event>
<event>
 5    0  0.1723834E+000  0.6973633E+03  0.7546771E-02  0.9721752E-01
         21   -1    0    0  503  501  0.00000000000E+00  0.00000000000E+00  0.10038505452E+04  0.10038505452E+04  0.00000000000E+00 0.  1.
         21   -1    0    0  504  502 -0.00000000000E+00 -0.00000000000E+00 -0.14229973994E+03  0.14229973994E+03  0.00000000000E+00 0. -1.
         25    1    1    2    0    0  0.20343636977E+02  0.25008198727E+03  0.83646219911E+03  0.88218414998E+03  0.12500000000E+03 0.  0.
         21    1    1    2  503  502 -0.44623871050E+02 -0.21807056945E+03  0.21766321484E+02  0.22365114772E+03  0.00000000000E+00 0. -1.
         21    1    1    2  504  501  0.24280234073E+02 -0.32011417822E+02  0.33222846751E+01  0.40314987450E+02  0.00000000000E+00 0. -1.
<mgrwt>
<rscale>  4 0.69736326E+03</rscale>
<asrwt>0</asrwt>
<pdfrwt beam="1">  1       21 0.15443854E+00 0.69736326E+03</pdfrwt>
<pdfrwt beam="2">  1       21 0.21892268E-01 0.69736326E+03</pdfrwt>
<totfact> 0.43696747E+03</totfact>
</mgrwt>
</event>
<event>
 5    0  0.1723834E+000  0.4013265E+03  0.7546771E-02  0.1043321E+00
         21   -1    0    0  503  501  0.00000000000E+00  0.00000000000E+00  0.77727050441E+03  0.77727050441E+03  0.00000000000E+00 0.  1.
         21   -1    0    0  504  502 -0.00000000000E+00 -0.00000000000E+00 -0.66565123796E+03  0.66565123796E+03  0.00000000000E+00 0.  1.
         25    1    1    2    0    0 -0.11210727611E+03  0.19999984411E+03  0.47433087996E+03  0.54146353772E+03  0.12500000000E+03 0.  0.
         21    1    1    2  503  502  0.29565696526E+02 -0.86721679018E+02 -0.61019805896E+03  0.61703845194E+03  0.00000000000E+00 0.  1.
         21    1    1    2  504  501  0.82541579583E+02 -0.11327816509E+03  0.24748644545E+03  0.28441975270E+03  0.00000000000E+00 0.  1.
<mgrwt>
<rscale>  4 0.40132650E+03</rscale>
<asrwt>0</asrwt>
<pdfrwt beam="1">  1       21 0.11958008E+00 0.40132650E+03</pdfrwt>
<pdfrwt beam="2">  1       21 0.10240788E+00 0.40132650E+03</pdfrwt>
<totfact> 0.35103511E+02</totfact>
</mgrwt>
</event>
<event>
 5    0  0.1723834E+000  0.5495121E+03  0.7546771E-02  0.1001607E+00
         21   -1    0    0  503  501  0.00000000000E+00  0.00000000000E+00  0.61007133785E+03  0.61007133785E+03  0.00000000000E+00 0. -1.
         21   -1    0    0  504  502 -0.00000000000E+00 -0.00000000000E+00 -0.14339855771E+03  0.14339855771E+03  0.00000000000E+00 0. -1.
         25    1    1    2    0    0 -0.23431458925E+03 -0.76061264011E+02  0.19477323136E+03  0.33800925175E+03  0.12500000000E+03 0.  0.
         21    1    1    2  503  502 -0.18440415820E+02 -0.15038871763E+02 -0.10201535783E+02  0.25889919502E+02  0.00000000000E+00 0. -1.
         21    1    1    2  504  501  0.25275500507E+03  0.91100135773E+02  0.28210108456E+03  0.38957072430E+03  0.00000000000E+00 0. -1.
<mgrwt>
<rscale>  4 0.54951206E+03</rscale>
<asrwt>0</asrwt>
<pdfrwt beam="1">  1       21 0.93857127E-01 0.54951206E+03</pdfrwt>
<pdfrwt beam="2">  1       21 0.22061317E-01 0.54951206E+03</pdfrwt>
<totfact> 0.16046516E+04</totfact>
</mgrwt>
</event>
<event>
 5    0  0.1723834E+000  0.4436404E+03  0.7546771E-02  0.1029636E+00
         21   -1    0    0  503  501  0.00000000000E+00  0.00000000000E+00  0.39891588788E+03  0.39891588788E+03  0.00000000000E+00 0.  1.
         21   -1    0    0  504  502 -0.00000000000E+00 -0.00000000000E+00 -0.17425571398E+03  0.17425571398E+03  0.00000000000E+00 0. -1.
         25    1    1    2    0    0  0.20141074327E+03 -0.71662775955E+02  0.24718411267E+03  0.34989545084E+03  0.12500000000E+03 0.  0.
         21    1    1    2  503  502 -0.15566353512E+03  0.39425059055E+02  0.55293430325E+01  0.16067372244E+03  0.00000000000E+00 0. -1.
         21    1    1    2  504  501 -0.45747208152E+02  0.32237716900E+02 -0.28053281806E+02  0.62602428584E+02  0.00000000000E+00 0. -1.
<mgrwt>
<rscale>  4 0.44364038E+03</rscale>
<asrwt>0</asrwt>
<pdfrwt beam="1">  1       21 0.61371675E-01 0.44364038E+03</pdfrwt>
<pdfrwt beam="2">  1       21 0.26808572E-01 0.44364038E+03</pdfrwt>
<totfact> 0.29852236E+04</totfact>
</mgrwt>
</event>
<event>
 5    0  0.1723834E+000  0.4473266E+03  0.7546771E-02  0.1028522E+00
         21   -1    0    0  503  501  0.00000000000E+00  0.00000000000E+00  0.12651970035E+03  0.12651970035E+03  0.00000000000E+00 0. -1.
         21   -1    0    0  504  502 -0.00000000000E+00 -0.00000000000E+00 -0.55341930321E+03  0.55341930321E+03  0.00000000000E+00 0. -1.
         25    1    1    2    0    0  0.13340647521E+03 -0.16816847013E+03 -0.14997935965E+03  0.29016672844E+03  0.12500000000E+03 0.  0.
         21    1    1    2  503  502  0.98283408257E+01  0.30174434922E+02 -0.15115940543E+03  0.15445471393E+03  0.00000000000E+00 0. -1.
         21    1    1    2  504  501 -0.14323481604E+03  0.13799403521E+03 -0.12576083779E+03  0.23531756118E+03  0.00000000000E+00 0. -1.
<mgrwt>
<rscale>  4 0.44732659E+03</rscale>
<asrwt>0</asrwt>
<pdfrwt beam="1">  1       21 0.19464569E-01 0.44732659E+03</pdfrwt>
<pdfrwt beam="2">  1       21 0.85141431E-01 0.44732659E+03</pdfrwt>
<totfact> 0.26328179E+04</totfact>
</mgrwt>
</event>
<event>
 5    0  0.1723834E+000  0.5030832E+03  0.7546771E-02  0.1012977E+00
         21   -1    0    0  503  501  0.00000000000E+00  0.00000000000E+00  0.21123450158E+04  0.21123450158E+04  0.00000000000E+00 0. -1.
         21   -1    0    0  504  502 -0.00000000000E+00 -0.00000000000E+00 -0.79603754167E+02  0.79603754167E+02  0.00000000000E+00 0. -1.
         25    1    1    2    0    0  0.37991428676E+02 -0.21660529014E+03  0.59159770769E+03  0.64340815049E+03  0.12500000000E+03 0.  0.
         21    1    1    2  503  502  0.71379187595E+01  0.63092405923E+02 -0.28936894913E+02  0.69777829262E+02  0.00000000000E+00 0. -1.
         21    1    1    2  504  501 -0.45129347436E+02  0.15351288422E+03  0.14700804488E+04  0.14787627902E+04  0.00000000000E+00 0. -1.
<mgrwt>
<rscale>  4 0.50308317E+03</rscale>
<asrwt>0</asrwt>
<pdfrwt beam="1">  1       21 0.32497611E+00 0.50308317E+03</pdfrwt>
<pdfrwt beam="2">  1       21 0.12246733E-01 0.50308317E+03</pdfrwt>
<totfact> 0.10816564E+03</totfact>
</mgrwt>
</event>
<event>
 5    0  0.1723834E+000  0.5147333E+03  0.7546771E-02  0.1010003E+00
         21   -1    0    0  503  501  0.00000000000E+00  0.00000000000E+00  0.14728717580E+03  0.14728717580E+03  0.00000000000E+00 0.  1.
         21   -1    0    0  504  502 -0.00000000000E+00 -0.00000000000E+00 -0.63404850797E+03  0.63404850797E+03  0.00000000000E+00 0. -1.
         25    1    1    2    0    0  0.20939903043E+03  0.28807363514E+02 -0.34814888233E+03  0.42604044691E+03  0.12500000000E+03 0.  0.
         21    1    1    2  503  502 -0.40325057224E+02  0.29694265303E+01 -0.17486823805E+03  0.17948211168E+03  0.00000000000E+00 0. -1.
         21    1    1    2  504  501 -0.16907397321E+03 -0.31776790044E+02  0.36255788214E+02  0.17581312517E+03  0.00000000000E+00 0.  1.
<mgrwt>
<rscale>  4 0.51473335E+03</rscale>
<asrwt>0</asrwt>
<pdfrwt beam="1">  1       21 0.22659566E-01 0.51473335E+03</pdfrwt>
<pdfrwt beam="2">  1       21 0.97545922E-01 0.51473335E+03</pdfrwt>
<totfact> 0.14000110E+04</totfact>
</mgrwt>
</event>
<event>
 5    0  0.1723834E+000  0.5040083E+03  0.7546771E-02  0.1012738E+00
         21   -1    0    0  503  501  0.00000000000E+00  0.00000000000E+00  0.18033410225E+04  0.18033410225E+04  0.00000000000E+00 0.  1.
         21   -1    0    0  504  502 -0.00000000000E+00 -0.00000000000E+00 -0.52256040678E+02  0.52256040678E+02  0.00000000000E+00 0. -1.
         25    1    1    2    0    0  0.17128709499E+03  0.14932709738E+03  0.11035376827E+04  0.11336041055E+04  0.12500000000E+03 0.  0.
         21    1    1    2  503  502 -0.19996480762E+03 -0.12079942636E+03  0.63938294311E+03  0.68072679809E+03  0.00000000000E+00 0. -1.
         21    1    1    2  504  501  0.28677712637E+02 -0.28527671017E+02  0.81643560047E+01  0.41266159559E+02  0.00000000000E+00 0. -1.
<mgrwt>
<rscale>  4 0.50400825E+03</rscale>
<asrwt>0</asrwt>
<pdfrwt beam="1">  1       21 0.27743703E+00 0.50400825E+03</pdfrwt>
<pdfrwt beam="2">  1       21 0.80393923E-02 0.50400825E+03</pdfrwt>
<totfact> 0.44784624E+03</totfact>
</mgrwt>
</event>
<event>
 5    0  0.1723834E+000  0.5363025E+03  0.7546771E-02  0.1004715E+00
         21   -1    0    0  503  501  0.00000000000E+00  0.00000000000E+00  0.19657502474E+03  0.19657502474E+03  0.00000000000E+00 0. -1.
         21   -1    0    0  504  502 -0.00000000000E+00 -0.00000000000E+00 -0.43475814758E+03  0.43475814758E+03  0.00000000000E+00 0. -1.
         25    1    1    2    0    0 -0.16141325212E+03  0.13875115565E+03  0.57961796526E+02  0.25355609046E+03  0.12500000000E+03 0.  0.
         21    1    1    2  503  502  0.13279378204E+03 -0.15149852187E+03 -0.23876916627E+03  0.31240471417E+03  0.00000000000E+00 0. -1.
         21    1    1    2  504  501  0.28619470086E+02  0.12747366223E+02 -0.57375753098E+02  0.65372367689E+02  0.00000000000E+00 0. -1.
<mgrwt>
<rscale>  4 0.53630246E+03</rscale>
<asrwt>0</asrwt>
<pdfrwt beam="1">  1       21 0.30242311E-01 0.53630246E+03</pdfrwt>
<pdfrwt beam="2">  1       21 0.66885869E-01 0.53630246E+03</pdfrwt>
<totfact> 0.19015576E+04</totfact>
</mgrwt>
</event>
<event>
 5    0  0.1723834E+000  0.4735675E+03  0.7546771E-02  0.1020918E+00
         21   -1    0    0  503  501  0.00000000000E+00  0.00000000000E+00  0.66254297521E+03  0.66254297521E+03  0.00000000000E+00 0.  1.
         21   -1    0    0  504  502 -0.00000000000E+00 -0.00000000000E+00 -0.29927054008E+03  0.29927054008E+03  0.00000000000E+00 0. -1.
         25    1    1    2    0    0 -0.26698970675E+03 -0.49141879002E+02  0.27450348959E+03  0.40580240707E+03  0.12500000000E+03 0.  0.
         21    1    1    2  503  502  0.15568134261E+03  0.38449474763E+02  0.28680206766E+03  0.32858860078E+03  0.00000000000E+00 0.  1.
         21    1    1    2  504  501  0.11130836415E+03  0.10692404239E+02 -0.19803312212E+03  0.22742250744E+03  0.00000000000E+00 0. -1.
<mgrwt>
<rscale>  4 0.47356755E+03</rscale>
<asrwt>0</asrwt>
<pdfrwt beam="1">  1       21 0.10192969E+00 0.47356755E+03</pdfrwt>
<pdfrwt beam="2">  1       21 0.46041622E-01 0.47356755E+03</pdfrwt>
<totfact> 0.30591156E+03</totfact>
</mgrwt>
</event>
<event>
 5    0  0.1723834E+000  0.6444403E+03  0.7546771E-02  0.9817268E-01
         21   -1    0    0  503  501  0.00000000000E+00  0.00000000000E+00  0.70928606683E+02  0.70928606683E+02  0.00000000000E+00 0.  1.
         21   -1    0    0  504  502 -0.00000000000E+00 -0.00000000000E+00 -0.17600386086E+04  0.17600386086E+04  0.00000000000E+00 0.  1.
         25    1    1    2    0    0 -0.21236519446E+03  0.24438853581E+03 -0.70430191499E+03  0.78516935735E+03  0.12500000000E+03 0.  0.
         21    1    1    2  503  502  0.95771194639E+01 -0.29336880809E+02 -0.27750823576E+03  0.27921890106E+03  0.00000000000E+00 0.  1.
         21    1    1    2  504  501  0.20278807499E+03 -0.21505165500E+03 -0.70729985119E+03  0.76657895691E+03  0.00000000000E+00 0.  1.
<mgrwt>
<rscale>  4 0.64444029E+03</rscale>
<asrwt>0</asrwt>
<pdfrwt beam="1">  1       21 0.10912094E-01 0.64444029E+03</pdfrwt>
<pdfrwt beam="2">  1       21 0.27077516E+00 0.64444029E+03</pdfrwt>
<totfact> 0.27005809E+03</totfact>
</mgrwt>
</event>
<event>
 5    0  0.1723834E+000  0.6113103E+03  0.7546771E-02  0.9882215E-01
         21   -1    0    0  503  501  0.00000000000E+00  0.00000000000E+00  0.85072670551E+03  0.85072670551E+03  0.00000000000E+00 0.  1.
         21   -1    0    0  504  502 -0.00000000000E+00 -0.00000000000E+00 -0.23650238874E+03  0.23650238874E+03  0.00000000000E+00 0. -1.
         25    1    1    2    0    0  0.12130371033E+02  0.29086973728E+03  0.66049750417E+03  0.73255327655E+03  0.12500000000E+03 0.  0.
         21    1    1    2  503  502  0.34352676059E+02 -0.24155287288E+03  0.37579693417E+02  0.24686054790E+03  0.00000000000E+00 0. -1.
         21    1    1    2  504  501 -0.46483047092E+02 -0.49316864397E+02 -0.83852880824E+02  0.10781526981E+03  0.00000000000E+00 0. -1.
<mgrwt>
<rscale>  4 0.61131029E+03</rscale>
<asrwt>0</asrwt>
<pdfrwt beam="1">  1       21 0.13088103E+00 0.61131029E+03</pdfrwt>
<pdfrwt beam="2">  1       21 0.36384983E-01 0.61131029E+03</pdfrwt>
<totfact> 0.25413144E+03</totfact>
</mgrwt>
</event>
<event>
 5    0  0.1723834E+000  0.4820431E+03  0.7546771E-02  0.1018575E+00
         21   -1    0    0  503  501  0.00000000000E+00  0.00000000000E+00  0.10380054593E+03  0.10380054593E+03  0.00000000000E+00 0. -1.
         21   -1    0    0  504  502 -0.00000000000E+00 -0.00000000000E+00 -0.88022158864E+03  0.88022158864E+03  0.00000000000E+00 0. -1.
         25    1    1    2    0    0 -0.20355016338E+03  0.12143032993E+03 -0.26157945659E+03  0.37446869849E+03  0.12500000000E+03 0.  0.
         21    1    1    2  503  502  0.19961907771E+03 -0.77314541758E+02 -0.20444197002E+03  0.29600985399E+03  0.00000000000E+00 0. -1.
         21    1    1    2  504  501  0.39310856731E+01 -0.44115788172E+02 -0.31039961609E+03  0.31354358209E+03  0.00000000000E+00 0. -1.
<mgrwt>
<rscale>  4 0.48204307E+03</rscale>
<asrwt>0</asrwt>
<pdfrwt beam="1">  1       21 0.15969314E-01 0.48204307E+03</pdfrwt>
<pdfrwt beam="2">  1       21 0.13541871E+00 0.48204307E+03</pdfrwt>
<totfact> 0.11999890E+04</totfact>
</mgrwt>
</event>
<event>
 5    0  0.1723834E+000  0.5411964E+03  0.7546771E-02  0.1003552E+00
         21   -1    0    0  503  501  0.00000000000E+00  0.00000000000E+00  0.19421125679E+04  0.19421125679E+04  0.00000000000E+00 0.  1.
         21   -1    0    0  504  502 -0.00000000000E+00 -0.00000000000E+00 -0.48313668226E+02  0.48313668226E+02  0.00000000000E+00 0. -1.
         25    1    1    2    0    0 -0.26190907897E+03 -0.83133069131E+02  0.82548852842E+03  0.87895607591E+03  0.12500000000E+03 0.  0.
         21    1    1    2  503  502  0.21354967171E+03  0.69542961064E+02  0.10092492645E+04  0.10339360539E+04  0.00000000000E+00 0.  1.
         21    1    1    2  504  501  0.48359407262E+02  0.13590108067E+02  0.59061106801E+02  0.77534106331E+02  0.00000000000E+00 0. -1.
<mgrwt>
<rscale>  4 0.54119639E+03</rscale>
<asrwt>0</asrwt>
<pdfrwt beam="1">  1       21 0.29878649E+00 0.54119639E+03</pdfrwt>
<pdfrwt beam="2">  1       21 0.74328735E-02 0.54119639E+03</pdfrwt>
<totfact> 0.37659410E+03</totfact>
</mgrwt>
</event>
<event>
 5    0  0.1723834E+000  0.6821907E+03  0.7546771E-02  0.9748183E-01
         21   -1    0    0  503  501  0.00000000000E+00  0.00000000000E+00  0.51220311232E+03  0.51220311232E+03  0.00000000000E+00 0.  1.
         21   -1    0    0  504  502 -0.00000000000E+00 -0.00000000000E+00 -0.35691698940E+03  0.35691698940E+03  0.00000000000E+00 0. -1.
         25    1    1    2    0    0 -0.25649173306E+03  0.39213079182E+02  0.39819361878E+03  0.49143548177E+03  0.12500000000E+03 0.  0.
         21    1    1    2  503  502  0.45153439637E+02  0.45377460100E+00 -0.12400575213E+03  0.13197145746E+03  0.00000000000E+00 0. -1.
         21    1    1    2  504  501  0.21133829342E+03 -0.39666853783E+02 -0.11890174374E+03  0.24571316249E+03  0.00000000000E+00 0. -1.
<mgrwt>
<rscale>  4 0.68219072E+03</rscale>
<asrwt>0</asrwt>
<pdfrwt beam="1">  1       21 0.78800479E-01 0.68219072E+03</pdfrwt>
<pdfrwt beam="2">  1       21 0.54910306E-01 0.68219072E+03</pdfrwt>
<totfact> 0.36606506E+03</totfact>
</mgrwt>
</event>
<event>
 5    0  0.1723834E+000  0.7516507E+03  0.7546771E-02  0.9632764E-01
         21   -1    0    0  503  501  0.00000000000E+00  0.00000000000E+00  0.53330409264E+03  0.53330409264E+03  0.00000000000E+00 0.  1.
         21   -1    0    0  504  502 -0.00000000000E+00 -0.00000000000E+00 -0.32950544058E+03  0.32950544058E+03  0.00000000000E+00 0.  1.
         25    1    1    2    0    0  0.31718991628E+03 -0.19183542952E+02 -0.27942402888E+01  0.34148244331E+03  0.12500000000E+03 0.  0.
         21    1    1    2  503  502  0.55870299130E+02 -0.18148483532E+01 -0.44243108039E+02  0.71289807185E+02  0.00000000000E+00 0.  1.
         21    1    1    2  504  501 -0.37306021541E+03  0.20998391305E+02  0.25083600039E+03  0.45003728273E+03  0.00000000000E+00 0.  1.
<mgrwt>
<rscale>  4 0.75165069E+03</rscale>
<asrwt>0</asrwt>
<pdfrwt beam="1">  1       21 0.82046783E-01 0.75165069E+03</pdfrwt>
<pdfrwt beam="2">  1       21 0.50693145E-01 0.75165069E+03</pdfrwt>
<totfact> 0.39036668E+03</totfact>
</mgrwt>
</event>
<event>
 5    0  0.1723834E+000  0.4635167E+03  0.7546771E-02  0.1023766E+00
         21   -1    0    0  503  501  0.00000000000E+00  0.00000000000E+00  0.36707591912E+03  0.36707591912E+03  0.00000000000E+00 0. -1.
         21   -1    0    0  504  502 -0.00000000000E+00 -0.00000000000E+00 -0.32697662700E+03  0.32697662700E+03  0.00000000000E+00 0.  1.
         25    1    1    2    0    0  0.12344040004E+03  0.17744045838E+03  0.19219759106E+02  0.25043371932E+03  0.12500000000E+03 0.  0.
         21    1    1    2  503  502 -0.29542483772E+02 -0.34522212784E+02 -0.17662215354E+03  0.18237304253E+03  0.00000000000E+00 0.  1.
         21    1    1    2  504  501 -0.93897916271E+02 -0.14291824560E+03  0.19750168655E+03  0.26124578426E+03  0.00000000000E+00 0. -1.
<mgrwt>
<rscale>  4 0.46351670E+03</rscale>
<asrwt>0</asrwt>
<pdfrwt beam="1">  1       21 0.56473219E-01 0.46351670E+03</pdfrwt>
<pdfrwt beam="2">  1       21 0.50304096E-01 0.46351670E+03</pdfrwt>
<totfact> 0.98632607E+03</totfact>
</mgrwt>
</event>
<event>
 5    0  0.1723834E+000  0.5247916E+03  0.7546771E-02  0.1007503E+00
         21   -1    0    0  503  501  0.00000000000E+00  0.00000000000E+00  0.11172261976E+04  0.11172261976E+04  0.00000000000E+00 0.  1.
         21   -1    0    0  504  502 -0.00000000000E+00 -0.00000000000E+00 -0.72358863602E+02  0.72358863602E+02  0.00000000000E+00 0. -1.
         25    1    1    2    0    0  0.20156445823E+03  0.12807575530E+03  0.39693887034E+03  0.47980943791E+03  0.12500000000E+03 0.  0.
         21    1    1    2  503  502 -0.18419191650E+03 -0.14895828260E+03  0.63849185765E+03  0.68101915123E+03  0.00000000000E+00 0.  1.
         21    1    1    2  504  501 -0.17372541738E+02  0.20882527292E+02  0.94366060065E+01  0.28756472062E+02  0.00000000000E+00 0. -1.
<mgrwt>
<rscale>  4 0.52479160E+03</rscale>
<asrwt>0</asrwt>
<pdfrwt beam="1">  1       21 0.17188094E+00 0.52479160E+03</pdfrwt>
<pdfrwt beam="2">  1       21 0.11132134E-01 0.52479160E+03</pdfrwt>
<totfact> 0.11965093E+04</totfact>
</mgrwt>
</event>
<event>
 5    0  0.1723834E+000  0.4357145E+03  0.7546771E-02  0.1032070E+00
         21   -1    0    0  503  501  0.00000000000E+00  0.00000000000E+00  0.81787543245E+02  0.81787543245E+02  0.00000000000E+00 0.  1.
         21   -1    0    0  504  502 -0.00000000000E+00 -0.00000000000E+00 -0.68180063359E+03  0.68180063359E+03  0.00000000000E+00 0. -1.
         25    1    1    2    0    0 -0.48378243215E+02  0.19979481117E+03 -0.32493838370E+03  0.40431222365E+03  0.12500000000E+03 0.  0.
         21    1    1    2  503  502  0.70282471821E+02 -0.17941045828E+03 -0.19655523562E+03  0.27524843149E+03  0.00000000000E+00 0.  1.
         21    1    1    2  504  501 -0.21904228606E+02 -0.20384352893E+02 -0.78519471022E+02  0.84027521701E+02  0.00000000000E+00 0. -1.
<mgrwt>
<rscale>  4 0.43571446E+03</rscale>
<asrwt>0</asrwt>
<pdfrwt beam="1">  1       21 0.12582699E-01 0.43571446E+03</pdfrwt>
<pdfrwt beam="2">  1       21 0.10489240E+00 0.43571446E+03</pdfrwt>
<totfact> 0.36083284E+04</totfact>
</mgrwt>
</event>
<event>
 5    0  0.1723834E+000  0.5090373E+03  0.7546771E-02  0.1011447E+00
         21   -1    0    0  503  501  0.00000000000E+00  0.00000000000E+00  0.28530408006E+03  0.28530408006E+03  0.00000000000E+00 0. -1.
         21   -1    0    0  504  502 -0.00000000000E+00 -0.00000000000E+00 -0.40312025575E+03  0.40312025575E+03  0.00000000000E+00 0. -1.
         25    1    1    2    0    0 -0.28711614956E+03 -0.31243553954E+02 -0.28903310098E+02  0.31602570202E+03  0.12500000000E+03 0.  0.
         21    1    1    2  503  502  0.17518538457E+03  0.67440227289E+02  0.46129851217E+02  0.19330304290E+03  0.00000000000E+00 0.  1.
         21    1    1    2  504  501  0.11193076499E+03 -0.36196673335E+02 -0.13504271680E+03  0.17909559088E+03  0.00000000000E+00 0. -1.
<mgrwt>
<rscale>  4 0.50903734E+03</rscale>
<asrwt>0</asrwt>
<pdfrwt beam="1">  1       21 0.43892935E-01 0.50903734E+03</pdfrwt>
<pdfrwt beam="2">  1       21 0.62018501E-01 0.50903734E+03</pdfrwt>
<totfact> 0.10582816E+04</totfact>
</mgrwt>
</event>
<event>
 5    0  0.1723834E+000  0.6060879E+03  0.7546771E-02  0.9892856E-01
         21   -1    0    0  503  501  0.00000000000E+00  0.00000000000E+00  0.59848475227E+03  0.59848475227E+03  0.00000000000E+00 0. -1.
         21   -1    0    0  504  502 -0.00000000000E+00 -0.00000000000E+00 -0.17175649949E+03  0.17175649949E+03  0.00000000000E+00 0. -1.
         25    1    1    2    0    0 -0.21894103678E+03  0.13538325381E+03  0.67012182252E+02  0.29390378625E+03  0.12500000000E+03 0.  0.
         21    1    1    2  503  502  0.77162969165E+01  0.32365049834E+02  0.10113915391E+02  0.34775407595E+02  0.00000000000E+00 0. -1.
         21    1    1    2  504  501  0.21122473987E+03 -0.16774830365E+03  0.34960215514E+03  0.44156205791E+03  0.00000000000E+00 0. -1.
<mgrwt>
<rscale>  4 0.60608787E+03</rscale>
<asrwt>0</asrwt>
<pdfrwt beam="1">  1       21 0.92074576E-01 0.60608787E+03</pdfrwt>
<pdfrwt beam="2">  1       21 0.26424077E-01 0.60608787E+03</pdfrwt>
<totfact> 0.11674859E+04</totfact>
</mgrwt>
</event>
<event>
 5    0  0.1723834E+000  0.4638978E+03  0.7546771E-02  0.1023657E+00
         21   -1    0    0  503  501  0.00000000000E+00  0.00000000000E+00  0.30717268263E+03  0.30717268263E+03  0.00000000000E+00 0. -1.
         21   -1    0    0  504  502 -0.00000000000E+00 -0.00000000000E+00 -0.38851828296E+03  0.38851828296E+03  0.00000000000E+00 0.  1.
         25    1    1    2    0    0 -0.92758557347E+02  0.21125010036E+03 -0.18251434292E+03  0.31963610597E+03  0.12500000000E+03 0.  0.
         21    1    1    2  503  502  0.13979351369E+03 -0.31307864439E+02  0.12296649081E+03  0.18879397953E+03  0.00000000000E+00 0. -1.
         21    1    1    2  504  501 -0.47034956340E+02 -0.17994223592E+03 -0.21797748214E+02  0.18726088010E+03  0.00000000000E+00 0.  1.
<mgrwt>
<rscale>  4 0.46389775E+03</rscale>
<asrwt>0</asrwt>
<pdfrwt beam="1">  1       21 0.47257336E-01 0.46389775E+03</pdfrwt>
<pdfrwt beam="2">  1       21 0.59772044E-01 0.46389775E+03</pdfrwt>
<totfact> 0.99481102E+03</totfact>
</mgrwt>
</event>
<event>
 5    0  0.1723834E+000  0.4902244E+03  0.7546771E-02  0.1016362E+00
         21   -1    0    0  503  501  0.00000000000E+00  0.00000000000E+00  0.48329763759E+03  0.48329763759E+03  0.00000000000E+00 0. -1.
         21   -1    0    0  504  502 -0.00000000000E+00 -0.00000000000E+00 -0.41917554358E+03  0.41917554358E+03  0.00000000000E+00 0. -1.
         25    1    1    2    0    0  0.18285784651E+03  0.88968441490E+02 -0.86211896554E+00  0.23870089832E+03  0.12500000000E+03 0.  0.
         21    1    1    2  503  502 -0.91693060952E+02 -0.38535984219E+02  0.34813398606E+03  0.36206340848E+03  0.00000000000E+00 0. -1.
         21    1    1    2  504  501 -0.91164785558E+02 -0.50432457270E+02 -0.28314977309E+03  0.30170887437E+03  0.00000000000E+00 0. -1.
<mgrwt>
<rscale>  4 0.49022444E+03</rscale>
<asrwt>0</asrwt>
<pdfrwt beam="1">  1       21 0.74353482E-01 0.49022444E+03</pdfrwt>
<pdfrwt beam="2">  1       21 0.64488545E-01 0.49022444E+03</pdfrwt>
<totfact> 0.30904425E+03</totfact>
</mgrwt>
</event>
<event>
 5    0  0.1723834E+000  0.5545937E+03  0.7546771E-02  0.1000436E+00
         21   -1    0    0  503  501  0.00000000000E+00  0.00000000000E+00  0.16501251907E+03  0.16501251907E+03  0.00000000000E+00 0.  1.
         21   -1    0    0  504  502 -0.00000000000E+00 -0.00000000000E+00 -0.84805318418E+03  0.84805318418E+03  0.00000000000E+00 0.  1.
         25    1    1    2    0    0 -0.13298944837E+03 -0.18991736964E+03  0.20739903267E+02  0.26421571539E+03  0.12500000000E+03 0.  0.
         21    1    1    2  503  502  0.42469933864E+02  0.50269858931E+02 -0.37084326166E+03  0.37663706498E+03  0.00000000000E+00 0.  1.
         21    1    1    2  504  501  0.90519514510E+02  0.13964751071E+03 -0.33293730672E+03  0.37221292288E+03  0.00000000000E+00 0. -1.
<mgrwt>
<rscale>  4 0.55459372E+03</rscale>
<asrwt>0</asrwt>
<pdfrwt beam="1">  1       21 0.25386542E-01 0.55459372E+03</pdfrwt>
<pdfrwt beam="2">  1       21 0.13046972E+00 0.55459372E+03</pdfrwt>
<totfact> 0.53471973E+03</totfact>
</mgrwt>
</event>
<event>
 5    0  0.1723834E+000  0.5628177E+03  0.7546771E-02  0.9985699E-01
         21   -1    0    0  503  501  0.00000000000E+00  0.00000000000E+00  0.10235906331E+04  0.10235906331E+04  0.00000000000E+00 0. -1.
         21   -1    0    0  504  502 -0.00000000000E+00 -0.00000000000E+00 -0.12210601703E+03  0.12210601703E+03  0.00000000000E+00 0. -1.
         25    1    1    2    0    0 -0.19104148956E+03  0.10507071108E+03  0.14962247130E+03  0.29248690394E+03  0.12500000000E+03 0.  0.
         21    1    1    2  503  502  0.13092411563E+03 -0.83948533329E+02  0.77111646072E+03  0.78664418659E+03  0.00000000000E+00 0. -1.
         21    1    1    2  504  501  0.60117373929E+02 -0.21122177748E+02 -0.19254315956E+02  0.66565559593E+02  0.00000000000E+00 0. -1.
<mgrwt>
<rscale>  4 0.56281767E+03</rscale>
<asrwt>0</asrwt>
<pdfrwt beam="1">  1       21 0.15747548E+00 0.56281767E+03</pdfrwt>
<pdfrwt beam="2">  1       21 0.18785542E-01 0.56281767E+03</pdfrwt>
<totfact> 0.57411926E+03</totfact>
</mgrwt>
</event>
<event>
 5    0  0.1723834E+000  0.5497705E+03  0.7546771E-02  0.1001547E+00
         21   -1    0    0  503  501  0.00000000000E+00  0.00000000000E+00  0.56076747376E+03  0.56076747376E+03  0.00000000000E+00 0.  1.
         21   -1    0    0  504  502 -0.00000000000E+00 -0.00000000000E+00 -0.25562682273E+03  0.25562682273E+03  0.00000000000E+00 0.  1.
         25    1    1    2    0    0  0.21190486948E+03 -0.42514719481E+02  0.44819874367E+03  0.51304803762E+03  0.12500000000E+03 0.  0.
         21    1    1    2  503  502 -0.44366828581E+02 -0.14160877206E+02 -0.11525610540E+03  0.12430975728E+03  0.00000000000E+00 0.  1.
         21    1    1    2  504  501 -0.16753804090E+03  0.56675596687E+02 -0.27801987237E+02  0.17903650159E+03  0.00000000000E+00 0.  1.
<mgrwt>
<rscale>  4 0.54977048E+03</rscale>
<asrwt>0</asrwt>
<pdfrwt beam="1">  1       21 0.86271919E-01 0.54977048E+03</pdfrwt>
<pdfrwt beam="2">  1       21 0.39327204E-01 0.54977048E+03</pdfrwt>
<totfact> 0.61986044E+03</totfact>
</mgrwt>
</event>
<event>
 5    0  0.1723834E+000  0.7186420E+03  0.7546771E-02  0.9685873E-01
         21   -1    0    0  503  501  0.00000000000E+00  0.00000000000E+00  0.14422690402E+04  0.14422690402E+04  0.00000000000E+00 0.  1.
         21   -1    0    0  504  502 -0.00000000000E+00 -0.00000000000E+00 -0.12573238589E+03  0.12573238589E+03  0.00000000000E+00 0.  1.
         25    1    1    2    0    0  0.23779254577E+03  0.17777401198E+03  0.10579997980E+04  0.11059554542E+04  0.12500000000E+03 0.  0.
         21    1    1    2  503  502 -0.26142525158E+03 -0.15798550598E+03  0.28770085394E+03  0.41961215857E+03  0.00000000000E+00 0.  1.
         21    1    1    2  504  501  0.23632705806E+02 -0.19788505999E+02 -0.29163997624E+02  0.42433813295E+02  0.00000000000E+00 0.  1.
<mgrwt>
<rscale>  4 0.71864198E+03</rscale>
<asrwt>0</asrwt>
<pdfrwt beam="1">  1       21 0.22188753E+00 0.71864198E+03</pdfrwt>
<pdfrwt beam="2">  1       21 0.19343445E-01 0.71864198E+03</pdfrwt>
<totfact> 0.18437521E+03</totfact>
</mgrwt>
</event>
<event>
 5    0  0.1723834E+000  0.4555896E+03  0.7546771E-02  0.1026068E+00
         21   -1    0    0  503  501  0.00000000000E+00  0.00000000000E+00  0.54055450705E+03  0.54055450705E+03  0.00000000000E+00 0. -1.
         21   -1    0    0  504  502 -0.00000000000E+00 -0.00000000000E+00 -0.25802610843E+03  0.25802610843E+03  0.00000000000E+00 0.  1.
         25    1    1    2    0    0  0.49023769875E+02 -0.27076760318E+03  0.35078853720E+03  0.46302918134E+03  0.12500000000E+03 0.  0.
         21    1    1    2  503  502 -0.34980794255E+02  0.13249344546E+03  0.57032453120E+02  0.14842799522E+03  0.00000000000E+00 0. -1.
         21    1    1    2  504  501 -0.14042975620E+02  0.13827415772E+03 -0.12529259170E+03  0.18712343892E+03  0.00000000000E+00 0.  1.
<mgrwt>
<rscale>  4 0.45558964E+03</rscale>
<asrwt>0</asrwt>
<pdfrwt beam="1">  1       21 0.83162232E-01 0.45558964E+03</pdfrwt>
<pdfrwt beam="2">  1       21 0.39696324E-01 0.45558964E+03</pdfrwt>
<totfact> 0.68057227E+03</totfact>
</mgrwt>
</event>
<event>
 5    0  0.1723834E+000  0.4593355E+03  0.7546771E-02  0.1024974E+00
         21   -1    0    0  503  501  0.00000000000E+00  0.00000000000E+00  0.38608324158E+02  0.38608324158E+02  0.00000000000E+00 0. -1.
         21   -1    0    0  504  502 -0.00000000000E+00 -0.00000000000E+00 -0.17467114120E+04  0.17467114120E+04  0.00000000000E+00 0. -1.
         25    1    1    2    0    0 -0.21836948919E+03  0.59483288959E+01 -0.90128650486E+03  0.93576865745E+03  0.12500000000E+03 0.  0.
         21    1    1    2  503  502  0.19692917334E+03  0.13977903295E+02 -0.44835688501E+03  0.48989833377E+03  0.00000000000E+00 0. -1.
         21    1    1    2  504  501  0.21440315852E+02 -0.19926232191E+02 -0.35845969796E+03  0.35965274493E+03  0.00000000000E+00 0. -1.
<mgrwt>
<rscale>  4 0.45933549E+03</rscale>
<asrwt>0</asrwt>
<pdfrwt beam="1">  1       21 0.59397435E-02 0.45933549E+03</pdfrwt>
<pdfrwt beam="2">  1       21 0.26872477E+00 0.45933549E+03</pdfrwt>
<totfact> 0.87730378E+03</totfact>
</mgrwt>
</event>
<event>
 5    0  0.1723834E+000  0.5327117E+03  0.7546771E-02  0.1005577E+00
         21   -1    0    0  503  501  0.00000000000E+00  0.00000000000E+00  0.25624268440E+03  0.25624268440E+03  0.00000000000E+00 0.  1.
         21   -1    0    0  504  502 -0.00000000000E+00 -0.00000000000E+00 -0.32563515968E+03  0.32563515968E+03  0.00000000000E+00 0.  1.
         25    1    1    2    0    0 -0.81973854105E+02 -0.19558334684E+03 -0.14489169622E+03  0.28564166704E+03  0.12500000000E+03 0.  0.
         21    1    1    2  503  502  0.21345222971E+02 -0.14643428151E+02 -0.40902049588E+02  0.48404815796E+02  0.00000000000E+00 0.  1.
         21    1    1    2  504  501  0.60628631134E+02  0.21022677499E+03  0.11640127052E+03  0.24783136124E+03  0.00000000000E+00 0.  1.
<mgrwt>
<rscale>  4 0.53271171E+03</rscale>
<asrwt>0</asrwt>
<pdfrwt beam="1">  1       21 0.39421952E-01 0.53271171E+03</pdfrwt>
<pdfrwt beam="2">  1       21 0.50097717E-01 0.53271171E+03</pdfrwt>
<totfact> 0.20916268E+04</totfact>
</mgrwt>
</event>
<event>
 5    0  0.1723834E+000  0.1221780E+04  0.7546771E-02  0.9094003E-01
         21   -1    0    0  503  501  0.00000000000E+00  0.00000000000E+00  0.72834461474E+03  0.72834461474E+03  0.00000000000E+00 0.  1.
         21   -1    0    0  504  502 -0.00000000000E+00 -0.00000000000E+00 -0.80683585927E+03  0.80683585927E+03  0.00000000000E+00 0. -1.
         25    1    1    2    0    0  0.29026899713E+03  0.32329103565E+01  0.63588902571E+03  0.71010308789E+03  0.12500000000E+03 0.  0.
         21    1    1    2  503  502  0.31033580109E+02  0.13539690189E+02 -0.29279674831E+03  0.29474792980E+03  0.00000000000E+00 0. -1.
         21    1    1    2  504  501 -0.32130257724E+03 -0.16772600546E+02 -0.42158352194E+03  0.53032945632E+03  0.00000000000E+00 0. -1.
<mgrwt>
<rscale>  4 0.12217799E+04</rscale>
<asrwt>0</asrwt>
<pdfrwt beam="1">  1       21 0.11205302E+00 0.12217799E+04</pdfrwt>
<pdfrwt beam="2">  1       21 0.12412859E+00 0.12217799E+04</pdfrwt>
<totfact> 0.20119614E+02</totfact>
</mgrwt>
</event>
<event>
 5    0  0.1723834E+000  0.6444694E+03  0.7546771E-02  0.9817213E-01
         21   -1    0    0  503  501  0.00000000000E+00  0.00000000000E+00  0.11862682079E+03  0.11862682079E+03  0.00000000000E+00 0. -1.
         21   -1    0    0  504  502 -0.00000000000E+00 -0.00000000000E+00 -0.10664024236E+04  0.10664024236E+04  0.00000000000E+00 0.  1.
         25    1    1    2    0    0 -0.31559873127E+03  0.54290647983E+02 -0.41922156968E+03  0.54214551379E+03  0.12500000000E+03 0.  0.
         21    1    1    2  503  502  0.27788663561E+03 -0.10302317295E+03 -0.48130441605E+03  0.56523331230E+03  0.00000000000E+00 0.  1.
         21    1    1    2  504  501  0.37712095655E+02  0.48732524967E+02 -0.47249617078E+02  0.77650418302E+02  0.00000000000E+00 0.  1.
<mgrwt>
<rscale>  4 0.64446940E+03</rscale>
<asrwt>0</asrwt>
<pdfrwt beam="1">  1       21 0.18250280E-01 0.64446940E+03</pdfrwt>
<pdfrwt beam="2">  1       21 0.16406191E+00 0.64446940E+03</pdfrwt>
<totfact> 0.52901229E+03</totfact>
</mgrwt>
</event>
<event>
 5    0  0.1723834E+000  0.4000420E+03  0.7546771E-02  0.1043765E+00
         21   -1    0    0  503  501  0.00000000000E+00  0.00000000000E+00  0.76311769489E+03  0.76311769489E+03  0.00000000000E+00 0. -1.
         21   -1    0    0  504  502 -0.00000000000E+00 -0.00000000000E+00 -0.13957163285E+03  0.13957163285E+03  0.00000000000E+00 0. -1.
         25    1    1    2    0    0 -0.15817720073E+02  0.20818852044E+03  0.44456776806E+03  0.50681176063E+03  0.12500000000E+03 0.  0.
         21    1    1    2  503  502  0.16100072197E+02 -0.15548277603E+03  0.25754473136E+03  0.30126963773E+03  0.00000000000E+00 0. -1.
         21    1    1    2  504  501 -0.28235212485E+00 -0.52705744412E+02 -0.78566437382E+02  0.94607929370E+02  0.00000000000E+00 0. -1.
<mgrwt>
<rscale>  4 0.40004198E+03</rscale>
<asrwt>0</asrwt>
<pdfrwt beam="1">  1       21 0.11740272E+00 0.40004198E+03</pdfrwt>
<pdfrwt beam="2">  1       21 0.21472559E-01 0.40004198E+03</pdfrwt>
<totfact> 0.10163175E+04</totfact>
</mgrwt>
</event>
<event>
 5    0  0.1723834E+000  0.3954435E+03  0.7546771E-02  0.1045369E+00
         21   -1    0    0  503  501  0.00000000000E+00  0.00000000000E+00  0.25630674889E+03  0.25630674889E+03  0.00000000000E+00 0.  1.
         21   -1    0    0  504  502 -0.00000000000E+00 -0.00000000000E+00 -0.69593037198E+03  0.69593037198E+03  0.00000000000E+00 0.  1.
         25    1    1    2    0    0  0.15823036834E+02  0.27739586666E+03  0.87192116906E+02  0.31690108959E+03  0.12500000000E+03 0.  0.
         21    1    1    2  503  502  0.29717502446E+02 -0.77968782434E+02 -0.15833767517E+02  0.84929200983E+02  0.00000000000E+00 0. -1.
         21    1    1    2  504  501 -0.45540539280E+02 -0.19942708422E+03 -0.51098197247E+03  0.55040683029E+03  0.00000000000E+00 0.  1.
<mgrwt>
<rscale>  4 0.39544351E+03</rscale>
<asrwt>0</asrwt>
<pdfrwt beam="1">  1       21 0.39431808E-01 0.39544351E+03</pdfrwt>
<pdfrwt beam="2">  1       21 0.10706621E+00 0.39544351E+03</pdfrwt>
<totfact> 0.38496704E+03</totfact>
</mgrwt>
</event>
<event>
 5    0  0.1723834E+000  0.4142773E+03  0.7546771E-02  0.1038945E+00
         21   -1    0    0  503  501  0.00000000000E+00  0.00000000000E+00  0.19470111153E+04  0.19470111153E+04  0.00000000000E+00 0.  1.
         21   -1    0    0  504  502 -0.00000000000E+00 -0.00000000000E+00 -0.19334161598E+03  0.19334161598E+03  0.00000000000E+00 0.  1.
         25    1    1    2    0    0 -0.48638961693E+01 -0.27748336201E+03  0.15405820548E+04  0.15703626146E+04  0.12500000000E+03 0.  0.
         21    1    1    2  503  502 -0.73437080075E+02  0.21396468578E+03 -0.95350890261E+02  0.24549069995E+03  0.00000000000E+00 0.  1.
         21    1    1    2  504  501  0.78300976244E+02  0.63518676237E+02  0.30843833481E+03  0.32449941678E+03  0.00000000000E+00 0. -1.
<mgrwt>
<rscale>  4 0.41427734E+03</rscale>
<asrwt>0</asrwt>
<pdfrwt beam="1">  1       21 0.29954016E+00 0.41427734E+03</pdfrwt>
<pdfrwt beam="2">  1       21 0.29744865E-01 0.41427734E+03</pdfrwt>
<totfact> 0.30023801E+02</totfact>
</mgrwt>
</event>
<event>
 5    0  0.1723834E+000  0.5116061E+03  0.7546771E-02  0.1010793E+00
         21   -1    0    0  503  501  0.00000000000E+00  0.00000000000E+00  0.10656500356E+04  0.10656500356E+04  0.00000000000E+00 0.  1.
         21   -1    0    0  504  502 -0.00000000000E+00 -0.00000000000E+00 -0.10684304649E+03  0.10684304649E+03  0.00000000000E+00 0.  1.
         25    1    1    2    0    0 -0.18065659362E+03  0.16934011873E+03  0.42812623646E+03  0.51012739093E+03  0.12500000000E+03 0.  0.
         21    1    1    2  503  502  0.15856954601E+03 -0.15414505447E+03  0.57191544019E+03  0.61318208509E+03  0.00000000000E+00 0.  1.
         21    1    1    2  504  501  0.22087047607E+02 -0.15195064264E+02 -0.41234687544E+02  0.49183606078E+02  0.00000000000E+00 0.  1.
<mgrwt>
<rscale>  4 0.51160612E+03</rscale>
<asrwt>0</asrwt>
<pdfrwt beam="1">  1       21 0.16394615E+00 0.51160612E+03</pdfrwt>
<pdfrwt beam="2">  1       21 0.16437393E-01 0.51160612E+03</pdfrwt>
<totfact> 0.66947230E+03</totfact>
</mgrwt>
</event>
<event>
 5    0  0.1723834E+000  0.4770477E+03  0.7546771E-02  0.1019950E+00
         21   -1    0    0  503  501  0.00000000000E+00  0.00000000000E+00  0.10412365146E+04  0.10412365146E+04  0.00000000000E+00 0.  1.
         21   -1    0    0  504  502 -0.00000000000E+00 -0.00000000000E+00 -0.61288386530E+02  0.61288386530E+02  0.00000000000E+00 0.  1.
         25    1    1    2    0    0 -0.19847873491E+03  0.10353833960E+03  0.63886049930E+03  0.68839068380E+03  0.12500000000E+03 0.  0.
         21    1    1    2  503  502  0.18989548174E+02  0.66889915215E+01  0.12084278433E+02  0.23481382682E+02  0.00000000000E+00 0.  1.
         21    1    1    2  504  501  0.17948918673E+03 -0.11022733112E+03  0.32900335029E+03  0.39065283460E+03  0.00000000000E+00 0.  1.
<mgrwt>
<rscale>  4 0.47704767E+03</rscale>
<asrwt>0</asrwt>
<pdfrwt beam="1">  1       21 0.16019022E+00 0.47704767E+03</pdfrwt>
<pdfrwt beam="2">  1       21 0.94289833E-02 0.47704767E+03</pdfrwt>
<totfact> 0.19980251E+04</totfact>
</mgrwt>
</event>
<event>
 5    0  0.1723834E+000  0.4942914E+03  0.7546771E-02  0.1015280E+00
         21   -1    0    0  503  501  0.00000000000E+00  0.00000000000E+00  0.69554895995E+03  0.69554895995E+03  0.00000000000E+00 0.  1.
         21   -1    0    0  504  502 -0.00000000000E+00 -0.00000000000E+00 -0.10102408887E+03  0.10102408887E+03  0.00000000000E+00 0.  1.
         25    1    1    2    0    0  0.18159959439E+03  0.10496515269E+03  0.17686301499E+03  0.30149895859E+03  0.12500000000E+03 0.  0.
         21    1    1    2  503  502 -0.20685817142E+03 -0.84558714060E+02  0.39978919294E+03  0.45800860035E+03  0.00000000000E+00 0.  1.
         21    1    1    2  504  501  0.25258577033E+02 -0.20406438632E+02  0.17872663166E+02  0.37065489879E+02  0.00000000000E+00 0.  1.
<mgrwt>
<rscale>  4 0.49429137E+03</rscale>
<asrwt>0</asrwt>
<pdfrwt beam="1">  1       21 0.10700753E+00 0.49429137E+03</pdfrwt>
<pdfrwt beam="2">  1       21 0.15542168E-01 0.49429137E+03</pdfrwt>
<totfact> 0.22923166E+04</totfact>
</mgrwt>
</event>
<event>
 5    0  0.1723834E+000  0.7404378E+03  0.7546771E-02  0.9650473E-01
         21   -1    0    0  503  501  0.00000000000E+00  0.00000000000E+00  0.18971488625E+04  0.18971488625E+04  0.00000000000E+00 0. -1.
         21   -1    0    0  504  502 -0.00000000000E+00 -0.00000000000E+00 -0.27178234928E+03  0.27178234928E+03  0.00000000000E+00 0.  1.
         25    1    1    2    0    0  0.13359357178E+03  0.19100808704E+03  0.21518340557E+03  0.34096954375E+03  0.12500000000E+03 0.  0.
         21    1    1    2  503  502  0.54751381873E+02 -0.29411346183E+02 -0.19450693637E+03  0.20419522374E+03  0.00000000000E+00 0.  1.
         21    1    1    2  504  501 -0.18834495366E+03 -0.16159674085E+03  0.16046900440E+04  0.16237664443E+04  0.00000000000E+00 0. -1.
<mgrwt>
<rscale>  4 0.74043780E+03</rscale>
<asrwt>0</asrwt>
<pdfrwt beam="1">  1       21 0.29186905E+00 0.74043780E+03</pdfrwt>
<pdfrwt beam="2">  1       21 0.41812670E-01 0.74043780E+03</pdfrwt>
<totfact> 0.14313088E+02</totfact>
</mgrwt>
</event>
<event>
 5    0  0.1723834E+000  0.4830123E+03  0.7546771E-02  0.1018311E+00
         21   -1    0    0  503  501  0.00000000000E+00  0.00000000000E+00  0.38295244176E+03  0.38295244176E+03  0.00000000000E+00 0. -1.
         21   -1    0    0  504  502 -0.00000000000E+00 -0.00000000000E+00 -0.17905592397E+03  0.17905592397E+03  0.00000000000E+00 0. -1.
         25    1    1    2    0    0  0.46828597976E+02 -0.22089961359E+03  0.46570362318E+02  0.26226581081E+03  0.12500000000E+03 0.  0.
         21    1    1    2  503  502 -0.33786259325E+02  0.20131465336E+03  0.17613733795E+03  0.26961725241E+03  0.00000000000E+00 0. -1.
         21    1    1    2  504  501 -0.13042338651E+02  0.19584960239E+02 -0.18811182480E+02  0.30125302510E+02  0.00000000000E+00 0. -1.
<mgrwt>
<rscale>  4 0.48301229E+03</rscale>
<asrwt>0</asrwt>
<pdfrwt beam="1">  1       21 0.58915760E-01 0.48301229E+03</pdfrwt>
<pdfrwt beam="2">  1       21 0.27547065E-01 0.48301229E+03</pdfrwt>
<totfact> 0.30668189E+04</totfact>
</mgrwt>
</event>
<event>
 5    0  0.1723834E+000  0.5781913E+03  0.7546771E-02  0.9951714E-01
         21   -1    0    0  503  501  0.00000000000E+00  0.00000000000E+00  0.53295286755E+03  0.53295286755E+03  0.00000000000E+00 0.  1.
         21   -1    0    0  504  502 -0.00000000000E+00 -0.00000000000E+00 -0.22593324016E+03  0.22593324016E+03  0.00000000000E+00 0.  1.
         25    1    1    2    0    0  0.12317448376E+03 -0.22835078837E+03  0.95016800815E+02  0.30326428810E+03  0.12500000000E+03 0.  0.
         21    1    1    2  503  502  0.22490467996E+02  0.58690021373E+01 -0.66562942377E+02  0.70504550454E+02  0.00000000000E+00 0.  1.
         21    1    1    2  504  501 -0.14566495175E+03  0.22248178624E+03  0.27856576894E+03  0.38511726916E+03  0.00000000000E+00 0.  1.
<mgrwt>
<rscale>  4 0.57819135E+03</rscale>
<asrwt>0</asrwt>
<pdfrwt beam="1">  1       21 0.81992749E-01 0.57819135E+03</pdfrwt>
<pdfrwt beam="2">  1       21 0.34758960E-01 0.57819135E+03</pdfrwt>
<totfact> 0.89315086E+03</totfact>
</mgrwt>
</event>
<event>
 5    0  0.1723834E+000  0.4254597E+03  0.7546771E-02  0.1035304E+00
         21   -1    0    0  503  501  0.00000000000E+00  0.00000000000E+00  0.26262867550E+03  0.26262867550E+03  0.00000000000E+00 0. -1.
         21   -1    0    0  504  502 -0.00000000000E+00 -0.00000000000E+00 -0.39482780000E+03  0.39482780000E+03  0.00000000000E+00 0. -1.
         25    1    1    2    0    0 -0.51738534752E+02  0.24675257902E+03 -0.17590027610E+02  0.28195411028E+03  0.12500000000E+03 0.  0.
         21    1    1    2  503  502  0.85559553106E+02 -0.48210787273E+02 -0.14157568684E+03  0.17230319858E+03  0.00000000000E+00 0.  1.
         21    1    1    2  504  501 -0.33821018355E+02 -0.19854179175E+03  0.26966589952E+02  0.20319916665E+03  0.00000000000E+00 0. -1.
<mgrwt>
<rscale>  4 0.42545973E+03</rscale>
<asrwt>0</asrwt>
<pdfrwt beam="1">  1       21 0.40404412E-01 0.42545973E+03</pdfrwt>
<pdfrwt beam="2">  1       21 0.60742738E-01 0.42545973E+03</pdfrwt>
<totfact> 0.13463294E+04</totfact>
</mgrwt>
</event>
<event>
 5    0  0.1723834E+000  0.5310901E+03  0.7546771E-02  0.1005968E+00
         21   -1    0    0  503  501  0.00000000000E+00  0.00000000000E+00  0.12792933384E+04  0.12792933384E+04  0.00000000000E+00 0. -1.
         21   -1    0    0  504  502 -0.00000000000E+00 -0.00000000000E+00 -0.13720309155E+03  0.13720309155E+03  0.00000000000E+00 0.  1.
         25    1    1    2    0    0  0.15503301078E+03  0.15028803266E+03  0.96336265149E+03  0.99514537907E+03  0.12500000000E+03 0.  0.
         21    1    1    2  503  502 -0.23830871338E+03 -0.39813234944E+02  0.13205549732E+03  0.27534485817E+03  0.00000000000E+00 0.  1.
         21    1    1    2  504  501  0.83275702596E+02 -0.11047479772E+03  0.46672098018E+02  0.14600619270E+03  0.00000000000E+00 0.  1.
<mgrwt>
<rscale>  4 0.53109012E+03</rscale>
<asrwt>0</asrwt>
<pdfrwt beam="1">  1       21 0.19681435E+00 0.53109012E+03</pdfrwt>
<pdfrwt beam="2">  1       21 0.21108169E-01 0.53109012E+03</pdfrwt>
<totfact> 0.24205981E+03</totfact>
</mgrwt>
</event>
<event>
 5    0  0.1723834E+000  0.5279065E+03  0.7546771E-02  0.1006741E+00
         21   -1    0    0  503  501  0.00000000000E+00  0.00000000000E+00  0.11078622633E+04  0.11078622633E+04  0.00000000000E+00 0. -1.
         21   -1    0    0  504  502 -0.00000000000E+00 -0.00000000000E+00 -0.26010136020E+03  0.26010136020E+03  0.00000000000E+00 0. -1.
         25    1    1    2    0    0 -0.79932368709E+02  0.23457143014E+03  0.38614321952E+03  0.47554655438E+03  0.12500000000E+03 0.  0.
         21    1    1    2  503  502  0.99205361899E+01 -0.23818778455E+02 -0.19632118183E+03  0.19800948887E+03  0.00000000000E+00 0. -1.
         21    1    1    2  504  501  0.70011832519E+02 -0.21075265169E+03  0.65793886538E+03  0.69440758021E+03  0.00000000000E+00 0. -1.
<mgrwt>
<rscale>  4 0.52790650E+03</rscale>
<asrwt>0</asrwt>
<pdfrwt beam="1">  1       21 0.17044035E+00 0.52790650E+03</pdfrwt>
<pdfrwt beam="2">  1       21 0.40015595E-01 0.52790650E+03</pdfrwt>
<totfact> 0.10408053E+03</totfact>
</mgrwt>
</event>
<event>
 5    0  0.1723834E+000  0.7198854E+03  0.7546771E-02  0.9683817E-01
         21   -1    0    0  503  501  0.00000000000E+00  0.00000000000E+00  0.39329598409E+03  0.39329598409E+03  0.00000000000E+00 0.  1.
         21   -1    0    0  504  502 -0.00000000000E+00 -0.00000000000E+00 -0.82689640515E+03  0.82689640515E+03  0.00000000000E+00 0.  1.
         25    1    1    2    0    0 -0.19727994920E+03 -0.73997747555E+02 -0.25628851025E+03  0.35454738116E+03  0.12500000000E+03 0.  0.
         21    1    1    2  503  502  0.27837455562E+02  0.50440907753E+01 -0.49673852278E+03  0.49754349237E+03  0.00000000000E+00 0.  1.
         21    1    1    2  504  501  0.16944249364E+03  0.68953656780E+02  0.31942661197E+03  0.36810151571E+03  0.00000000000E+00 0.  1.
<mgrwt>
<rscale>  4 0.71988541E+03</rscale>
<asrwt>0</asrwt>
<pdfrwt beam="1">  1       21 0.60507074E-01 0.71988541E+03</pdfrwt>
<pdfrwt beam="2">  1       21 0.12721483E+00 0.71988541E+03</pdfrwt>
<totfact> 0.90199250E+02</totfact>
</mgrwt>
</event>
<event>
 5    0  0.1723834E+000  0.3767336E+03  0.7546771E-02  0.1052148E+00
         21   -1    0    0  503  501  0.00000000000E+00  0.00000000000E+00  0.18328015385E+03  0.18328015385E+03  0.00000000000E+00 0. -1.
         21   -1    0    0  504  502 -0.00000000000E+00 -0.00000000000E+00 -0.84086753796E+03  0.84086753796E+03  0.00000000000E+00 0. -1.
         25    1    1    2    0    0 -0.18497426332E+03  0.95757945329E+02  0.16877389716E+02  0.24350545880E+03  0.12500000000E+03 0.  0.
         21    1    1    2  503  502  0.11190422839E+03 -0.65363041941E+02 -0.32220534044E+02  0.13354042982E+03  0.00000000000E+00 0. -1.
         21    1    1    2  504  501  0.73070034930E+02 -0.30394903388E+02 -0.64224423978E+03  0.64710180319E+03  0.00000000000E+00 0. -1.
<mgrwt>
<rscale>  4 0.37673358E+03</rscale>
<asrwt>0</asrwt>
<pdfrwt beam="1">  1       21 0.28196947E-01 0.37673358E+03</pdfrwt>
<pdfrwt beam="2">  1       21 0.12936423E+00 0.37673358E+03</pdfrwt>
<totfact> 0.47235264E+03</totfact>
</mgrwt>
</event>
<event>
 5    0  0.1723834E+000  0.4520710E+03  0.7546771E-02  0.1027106E+00
         21   -1    0    0  503  501  0.00000000000E+00  0.00000000000E+00  0.41363186236E+03  0.41363186236E+03  0.00000000000E+00 0.  1.
         21   -1    0    0  504  502 -0.00000000000E+00 -0.00000000000E+00 -0.22510293313E+03  0.22510293313E+03  0.00000000000E+00 0.  1.
         25    1    1    2    0    0 -0.82163093602E+02 -0.18809025907E+03  0.48990392528E+02  0.24526267157E+03  0.12500000000E+03 0.  0.
         21    1    1    2  503  502  0.62867800988E+02  0.15461991100E+03  0.23628746727E+03  0.28929473633E+03  0.00000000000E+00 0.  1.
         21    1    1    2  504  501  0.19295292614E+02  0.33470348072E+02 -0.96748930569E+02  0.10417738758E+03  0.00000000000E+00 0.  1.
<mgrwt>
<rscale>  4 0.45207097E+03</rscale>
<asrwt>0</asrwt>
<pdfrwt beam="1">  1       21 0.63635671E-01 0.45207097E+03</pdfrwt>
<pdfrwt beam="2">  1       21 0.34631221E-01 0.45207097E+03</pdfrwt>
<totfact> 0.16518735E+04</totfact>
</mgrwt>
</event>
<event>
 5    0  0.1723834E+000  0.4120643E+03  0.7546771E-02  0.1039681E+00
         21   -1    0    0  503  501  0.00000000000E+00  0.00000000000E+00  0.17230159161E+03  0.17230159161E+03  0.00000000000E+00 0.  1.
         21   -1    0    0  504  502 -0.00000000000E+00 -0.00000000000E+00 -0.32860470959E+03  0.32860470959E+03  0.00000000000E+00 0. -1.
         25    1    1    2    0    0 -0.18636966541E+03 -0.86178943437E+02 -0.63845986277E+01  0.24047084143E+03  0.12500000000E+03 0.  0.
         21    1    1    2  503  502  0.39160518997E+02  0.22602818904E+02 -0.64449666547E+02  0.78728604639E+02  0.00000000000E+00 0. -1.
         21    1    1    2  504  501  0.14720914642E+03  0.63576124533E+02 -0.85468852808E+02  0.18170685512E+03  0.00000000000E+00 0. -1.
<mgrwt>
<rscale>  4 0.41206426E+03</rscale>
<asrwt>0</asrwt>
<pdfrwt beam="1">  1       21 0.26507937E-01 0.41206426E+03</pdfrwt>
<pdfrwt beam="2">  1       21 0.50554570E-01 0.41206426E+03</pdfrwt>
<totfact> 0.46766149E+04</totfact>
</mgrwt>
</event>
<event>
 5    0  0.1723834E+000  0.5010558E+03  0.7546771E-02  0.1013504E+00
         21   -1    0    0  503  501  0.00000000000E+00  0.00000000000E+00  0.29742788066E+03  0.29742788066E+03  0.00000000000E+00 0. -1.
         21   -1    0    0  504  502 -0.00000000000E+00 -0.00000000000E+00 -0.41119598854E+03  0.41119598854E+03  0.00000000000E+00 0. -1.
         25    1    1    2    0    0  0.21312022507E+03  0.74118350584E+02 -0.26482899590E+03  0.36969332871E+03  0.12500000000E+03 0.  0.
         21    1    1    2  503  502 -0.11253854122E+03  0.61008294125E+02  0.10141549871E+03  0.16331576345E+03  0.00000000000E+00 0. -1.
         21    1    1    2  504  501 -0.10058168385E+03 -0.13512664471E+03  0.49645389306E+02  0.17561477704E+03  0.00000000000E+00 0. -1.
<mgrwt>
<rscale>  4 0.50105583E+03</rscale>
<asrwt>0</asrwt>
<pdfrwt beam="1">  1       21 0.45758136E-01 0.50105583E+03</pdfrwt>
<pdfrwt beam="2">  1       21 0.63260921E-01 0.50105583E+03</pdfrwt>
<totfact> 0.93002058E+03</totfact>
</mgrwt>
</event>
<event>
 5    0  0.1723834E+000  0.4262612E+03  0.7546771E-02  0.1035048E+00
         21   -1    0    0  503  501  0.00000000000E+00  0.00000000000E+00  0.10277084576E+03  0.10277084576E+03  0.00000000000E+00 0. -1.
         21   -1    0    0  504  502 -0.00000000000E+00 -0.00000000000E+00 -0.75353120366E+03  0.75353120366E+03  0.00000000000E+00 0. -1.
         25    1    1    2    0    0 -0.12137647543E+03 -0.17704242076E+03 -0.20398072884E+03  0.32141780485E+03  0.12500000000E+03 0.  0.
         21    1    1    2  503  502  0.83995910107E+02  0.15677171353E+03 -0.14319601829E+03  0.22833699379E+03  0.00000000000E+00 0. -1.
         21    1    1    2  504  501  0.37380565324E+02  0.20270707229E+02 -0.30358361077E+03  0.30654725078E+03  0.00000000000E+00 0. -1.
<mgrwt>
<rscale>  4 0.42626124E+03</rscale>
<asrwt>0</asrwt>
<pdfrwt beam="1">  1       21 0.15810899E-01 0.42626124E+03</pdfrwt>
<pdfrwt beam="2">  1       21 0.11592788E+00 0.42626124E+03</pdfrwt>
<totfact> 0.18525350E+04</totfact>
</mgrwt>
</event>
<event>
 5    0  0.1723834E+000  0.5272826E+03  0.7546771E-02  0.1006893E+00
         21   -1    0    0  503  501  0.00000000000E+00  0.00000000000E+00  0.40620972801E+03  0.40620972801E+03  0.00000000000E+00 0. -1.
         21   -1    0    0  504  502 -0.00000000000E+00 -0.00000000000E+00 -0.41075659719E+03  0.41075659719E+03  0.00000000000E+00 0. -1.
         25    1    1    2    0    0 -0.27117064649E+03 -0.39726000802E+02  0.11126869995E+03  0.32111897833E+03  0.12500000000E+03 0.  0.
         21    1    1    2  503  502  0.22326846914E+03  0.24428958260E+02  0.12005656841E+03  0.25467462169E+03  0.00000000000E+00 0. -1.
         21    1    1    2  504  501  0.47902177347E+02  0.15297042542E+02 -0.23587213754E+03  0.24117272519E+03  0.00000000000E+00 0. -1.
<mgrwt>
<rscale>  4 0.52728255E+03</rscale>
<asrwt>0</asrwt>
<pdfrwt beam="1">  1       21 0.62493804E-01 0.52728255E+03</pdfrwt>
<pdfrwt beam="2">  1       21 0.63193323E-01 0.52728255E+03</pdfrwt>
<totfact> 0.47253519E+03</totfact>
</mgrwt>
</event>
<event>
 5    0  0.1723834E+000  0.5388149E+03  0.7546771E-02  0.1004117E+00
         21   -1    0    0  503  501  0.00000000000E+00  0.00000000000E+00  0.11883523569E+04  0.11883523569E+04  0.00000000000E+00 0.  1.
         21   -1    0    0  504  502 -0.00000000000E+00 -0.00000000000E+00 -0.44615555620E+03  0.44615555620E+03  0.00000000000E+00 0. -1.
         25    1    1    2    0    0  0.90684164003E+02 -0.21275958930E+03  0.39138485952E+03  0.47148421893E+03  0.12500000000E+03 0.  0.
         21    1    1    2  503  502 -0.99934537543E+02  0.23172387657E+03  0.73558711749E+03  0.77767041489E+03  0.00000000000E+00 0.  1.
         21    1    1    2  504  501  0.92503735403E+01 -0.18964287276E+02 -0.38477517628E+03  0.38535327932E+03  0.00000000000E+00 0. -1.
<mgrwt>
<rscale>  4 0.53881487E+03</rscale>
<asrwt>0</asrwt>
<pdfrwt beam="1">  1       21 0.18282344E+00 0.53881487E+03</pdfrwt>
<pdfrwt beam="2">  1       21 0.68639317E-01 0.53881487E+03</pdfrwt>
<totfact> 0.26416404E+02</totfact>
</mgrwt>
</event>
<event>
 5    0  0.1723834E+000  0.6219498E+03  0.7546771E-02  0.9860885E-01
         21   -1    0    0  503  501  0.00000000000E+00  0.00000000000E+00  0.94182184440E+03  0.94182184440E+03  0.00000000000E+00 0.  1.
         21   -1    0    0  504  502 -0.00000000000E+00 -0.00000000000E+00 -0.41309260595E+03  0.41309260595E+03  0.00000000000E+00 0. -1.
         25    1    1    2    0    0 -0.16947239076E+03  0.25919500648E+03  0.53381136594E+03  0.62966857713E+03  0.12500000000E+03 0.  0.
         21    1    1    2  503  502  0.14720975993E+03 -0.23904542964E+03  0.30452583075E+03  0.41418523929E+03  0.00000000000E+00 0. -1.
         21    1    1    2  504  501  0.22262630832E+02 -0.20149576843E+02 -0.30960795824E+03  0.31106063393E+03  0.00000000000E+00 0. -1.
<mgrwt>
<rscale>  4 0.62194978E+03</rscale>
<asrwt>0</asrwt>
<pdfrwt beam="1">  1       21 0.14489567E+00 0.62194978E+03</pdfrwt>
<pdfrwt beam="2">  1       21 0.63552709E-01 0.62194978E+03</pdfrwt>
<totfact> 0.58799786E+02</totfact>
</mgrwt>
</event>
<event>
 5    0  0.1723834E+000  0.1021958E+04  0.7546771E-02  0.9284784E-01
         21   -1    0    0  503  501  0.00000000000E+00  0.00000000000E+00  0.13866222553E+04  0.13866222553E+04  0.00000000000E+00 0.  1.
         21   -1    0    0  504  502 -0.00000000000E+00 -0.00000000000E+00 -0.28647501439E+03  0.28647501439E+03  0.00000000000E+00 0.  1.
         25    1    1    2    0    0  0.19873503859E+03  0.13927236841E+03 -0.71378610362E+02  0.28215654199E+03  0.12500000000E+03 0.  0.
         21    1    1    2  503  502 -0.21435354320E+03 -0.11924864909E+03  0.12678320759E+04  0.12913426557E+04  0.00000000000E+00 0.  1.
         21    1    1    2  504  501  0.15618504608E+02 -0.20023719327E+02 -0.96306224678E+02  0.99598071937E+02  0.00000000000E+00 0.  1.
<mgrwt>
<rscale>  4 0.10219583E+04</rscale>
<asrwt>0</asrwt>
<pdfrwt beam="1">  1       21 0.21332650E+00 0.10219583E+04</pdfrwt>
<pdfrwt beam="2">  1       21 0.44073080E-01 0.10219583E+04</pdfrwt>
<totfact> 0.37352311E+02</totfact>
</mgrwt>
</event>
<event>
 5    0  0.1723834E+000  0.3753273E+03  0.7546771E-02  0.1052674E+00
         21   -1    0    0  503  501  0.00000000000E+00  0.00000000000E+00  0.83399306494E+02  0.83399306494E+02  0.00000000000E+00 0.  1.
         21   -1    0    0  504  502 -0.00000000000E+00 -0.00000000000E+00 -0.84804006385E+03  0.84804006385E+03  0.00000000000E+00 0.  1.
         25    1    1    2    0    0  0.19692076901E+03  0.64944969251E+02 -0.22598294111E+03  0.33119318830E+03  0.12500000000E+03 0.  0.
         21    1    1    2  503  502 -0.64280753642E+02 -0.62770185626E+02 -0.39339682475E+03  0.40352592633E+03  0.00000000000E+00 0.  1.
         21    1    1    2  504  501 -0.13264001537E+03 -0.21747836255E+01 -0.14526099149E+03  0.19672025572E+03  0.00000000000E+00 0.  1.
<mgrwt>
<rscale>  4 0.37532725E+03</rscale>
<asrwt>0</asrwt>
<pdfrwt beam="1">  1       21 0.12830662E-01 0.37532725E+03</pdfrwt>
<pdfrwt beam="2">  1       21 0.13046771E+00 0.37532725E+03</pdfrwt>
<totfact> 0.20471529E+04</totfact>
</mgrwt>
</event>
<event>
 5    0  0.1723834E+000  0.4724372E+03  0.7546771E-02  0.1021235E+00
         21   -1    0    0  503  501  0.00000000000E+00  0.00000000000E+00  0.42579018040E+02  0.42579018040E+02  0.00000000000E+00 0.  1.
         21   -1    0    0  504  502 -0.00000000000E+00 -0.00000000000E+00 -0.14835488813E+04  0.14835488813E+04  0.00000000000E+00 0.  1.
         25    1    1    2    0    0 -0.22319649299E+03  0.21695476672E+01 -0.68299474744E+03  0.72933408425E+03  0.12500000000E+03 0.  0.
         21    1    1    2  503  502  0.85034028801E+01  0.24096116688E+02 -0.13344876293E+03  0.13587311370E+03  0.00000000000E+00 0.  1.
         21    1    1    2  504  501  0.21469309011E+03 -0.26265664355E+02 -0.62452635289E+03  0.66092070138E+03  0.00000000000E+00 0.  1.
<mgrwt>
<rscale>  4 0.47243724E+03</rscale>
<asrwt>0</asrwt>
<pdfrwt beam="1">  1       21 0.65506185E-02 0.47243724E+03</pdfrwt>
<pdfrwt beam="2">  1       21 0.22823828E+00 0.47243724E+03</pdfrwt>
<totfact> 0.13078528E+04</totfact>
</mgrwt>
</event>
<event>
 5    0  0.1723834E+000  0.5648809E+03  0.7546771E-02  0.9981071E-01
         21   -1    0    0  503  501  0.00000000000E+00  0.00000000000E+00  0.30644993615E+03  0.30644993615E+03  0.00000000000E+00 0.  1.
         21   -1    0    0  504  502 -0.00000000000E+00 -0.00000000000E+00 -0.49582839399E+03  0.49582839399E+03  0.00000000000E+00 0.  1.
         25    1    1    2    0    0 -0.16832050049E+03  0.21964245821E+03 -0.25412673611E+02  0.30470543860E+03  0.12500000000E+03 0.  0.
         21    1    1    2  503  502  0.70311167138E+01 -0.25535086275E+02 -0.23413399472E+03  0.23562725801E+03  0.00000000000E+00 0.  1.
         21    1    1    2  504  501  0.16128938377E+03 -0.19410737194E+03  0.70168210490E+02  0.26194563352E+03  0.00000000000E+00 0.  1.
<mgrwt>
<rscale>  4 0.56488085E+03</rscale>
<asrwt>0</asrwt>
<pdfrwt beam="1">  1       21 0.47146144E-01 0.56488085E+03</pdfrwt>
<pdfrwt beam="2">  1       21 0.76281291E-01 0.56488085E+03</pdfrwt>
<totfact> 0.56285123E+03</totfact>
</mgrwt>
</event>
<event>
 5    0  0.1723834E+000  0.5376843E+03  0.7546771E-02  0.1004385E+00
         21   -1    0    0  503  501  0.00000000000E+00  0.00000000000E+00  0.82185261326E+03  0.82185261326E+03  0.00000000000E+00 0. -1.
         21   -1    0    0  504  502 -0.00000000000E+00 -0.00000000000E+00 -0.60733734092E+03  0.60733734092E+03  0.00000000000E+00 0.  1.
         25    1    1    2    0    0  0.25233320124E+03 -0.49786577586E+02  0.69524892064E+03  0.75176246874E+03  0.12500000000E+03 0.  0.
         21    1    1    2  503  502 -0.18040898902E+01  0.12832001514E+03  0.15141526464E+01  0.12834162881E+03  0.00000000000E+00 0.  1.
         21    1    1    2  504  501 -0.25052911135E+03 -0.78533437556E+02 -0.48224780094E+03  0.54908585664E+03  0.00000000000E+00 0.  1.
<mgrwt>
<rscale>  4 0.53768433E+03</rscale>
<asrwt>0</asrwt>
<pdfrwt beam="1">  1       21 0.12643886E+00 0.53768433E+03</pdfrwt>
<pdfrwt beam="2">  1       21 0.93436514E-01 0.53768433E+03</pdfrwt>
<totfact> 0.35686747E+02</totfact>
</mgrwt>
</event>
<event>
 5    0  0.1723834E+000  0.3817730E+03  0.7546771E-02  0.1050280E+00
         21   -1    0    0  503  501  0.00000000000E+00  0.00000000000E+00  0.17687263119E+03  0.17687263119E+03  0.00000000000E+00 0. -1.
         21   -1    0    0  504  502 -0.00000000000E+00 -0.00000000000E+00 -0.69571847485E+03  0.69571847485E+03  0.00000000000E+00 0. -1.
         25    1    1    2    0    0  0.19018716935E+03 -0.68831311507E+02  0.23402110315E+02  0.23891749119E+03  0.12500000000E+03 0.  0.
         21    1    1    2  503  502 -0.36567335536E+02  0.11605369183E+03 -0.83459669195E+02  0.14755048559E+03  0.00000000000E+00 0.  1.
         21    1    1    2  504  501 -0.15361983382E+03 -0.47222380321E+02 -0.45878828478E+03  0.48612312926E+03  0.00000000000E+00 0. -1.
<mgrwt>
<rscale>  4 0.38177295E+03</rscale>
<asrwt>0</asrwt>
<pdfrwt beam="1">  1       21 0.27211174E-01 0.38177295E+03</pdfrwt>
<pdfrwt beam="2">  1       21 0.10703361E+00 0.38177295E+03</pdfrwt>
<totfact> 0.81393254E+03</totfact>
</mgrwt>
</event>
<event>
 5    0  0.1723834E+000  0.6225377E+03  0.7546771E-02  0.9859720E-01
         21   -1    0    0  503  501  0.00000000000E+00  0.00000000000E+00  0.16779330605E+04  0.16779330605E+04  0.00000000000E+00 0.  1.
         21   -1    0    0  504  502 -0.00000000000E+00 -0.00000000000E+00 -0.16000518677E+03  0.16000518677E+03  0.00000000000E+00 0. -1.
         25    1    1    2    0    0 -0.23468268795E+03  0.24611293898E+02  0.30214735354E+03  0.40323653488E+03  0.12500000000E+03 0.  0.
         21    1    1    2  503  502  0.41558981599E+02  0.15359923948E+02 -0.97289735774E+02  0.10690354953E+03  0.00000000000E+00 0. -1.
         21    1    1    2  504  501  0.19312370635E+03 -0.39971217847E+02  0.13130702560E+04  0.13277981629E+04  0.00000000000E+00 0.  1.
<mgrwt>
<rscale>  4 0.62253771E+03</rscale>
<asrwt>0</asrwt>
<pdfrwt beam="1">  1       21 0.25814353E+00 0.62253771E+03</pdfrwt>
<pdfrwt beam="2">  1       21 0.24616184E-01 0.62253771E+03</pdfrwt>
<totfact> 0.70286062E+02</totfact>
</mgrwt>
</event>
<event>
 5    0  0.1723834E+000  0.2000966E+04  0.7546771E-02  0.8606169E-01
         21   -1    0    0  503  501  0.00000000000E+00  0.00000000000E+00  0.10379433244E+04  0.10379433244E+04  0.00000000000E+00 0. -1.
         21   -1    0    0  504  502 -0.00000000000E+00 -0.00000000000E+00 -0.99759346901E+03  0.99759346901E+03  0.00000000000E+00 0. -1.
         25    1    1    2    0    0 -0.14666784111E+03 -0.96826839660E+03 -0.20750669986E+03  0.10088305973E+04  0.12500000000E+03 0.  0.
         21    1    1    2  503  502  0.18898903191E+02  0.20366596670E+02 -0.19052208761E+02  0.33689070341E+02  0.00000000000E+00 0.  1.
         21    1    1    2  504  501  0.12776893792E+03  0.94790179993E+03  0.26690876397E+03  0.99301712578E+03  0.00000000000E+00 0. -1.
<mgrwt>
<rscale>  4 0.20009662E+04</rscale>
<asrwt>0</asrwt>
<pdfrwt beam="1">  1       21 0.15968359E+00 0.20009662E+04</pdfrwt>
<pdfrwt beam="2">  1       21 0.15347592E+00 0.20009662E+04</pdfrwt>
<totfact> 0.38439307E+01</totfact>
</mgrwt>
</event>
<event>
 5    0  0.1845828E+000  0.4467726E+03  0.7546771E-02  0.1028689E+00
         21   -1    0    0  503  501  0.00000000000E+00  0.00000000000E+00  0.15300870686E+04  0.15300870686E+04  0.00000000000E+00 0. -1.
         21   -1    0    0  504  502 -0.00000000000E+00 -0.00000000000E+00 -0.38093984240E+03  0.38093984240E+03  0.00000000000E+00 0.  1.
         25    1    1    2    0    0 -0.30645949037E+03 -0.53949463865E+02  0.14147996042E+04  0.14539982407E+04  0.12500000000E+03 0.  0.
         21    1    1    2  503  502  0.25662108726E+03  0.62983826683E+02 -0.29694653180E+03  0.39749036165E+03  0.00000000000E+00 0.  1.
         21    1    1    2  504  501  0.49838403104E+02 -0.90343628181E+01  0.31294153809E+02  0.59538308660E+02  0.00000000000E+00 0.  1.
<mgrwt>
<rscale>  4 0.44677257E+03</rscale>
<asrwt>0</asrwt>
<pdfrwt beam="1">  1       21 0.23539801E+00 0.44677257E+03</pdfrwt>
<pdfrwt beam="2">  1       21 0.58606130E-01 0.44677257E+03</pdfrwt>
<totfact> 0.17682420E+02</totfact>
</mgrwt>
</event>
<event>
 5    0  0.1723834E+000  0.5845797E+03  0.7546771E-02  0.9937925E-01
         21   -1    0    0  503  501  0.00000000000E+00  0.00000000000E+00  0.67813096775E+03  0.67813096775E+03  0.00000000000E+00 0. -1.
         21   -1    0    0  504  502 -0.00000000000E+00 -0.00000000000E+00 -0.14615186616E+03  0.14615186616E+03  0.00000000000E+00 0. -1.
         25    1    1    2    0    0 -0.12225305758E+03  0.25170844358E+03  0.18288921219E+03  0.35689832529E+03  0.12500000000E+03 0.  0.
         21    1    1    2  503  502  0.90558958381E+02 -0.24045514829E+03  0.34945583083E+03  0.43374990603E+03  0.00000000000E+00 0. -1.
         21    1    1    2  504  501  0.31694099194E+02 -0.11253295298E+02 -0.36594143272E+00  0.33634602598E+02  0.00000000000E+00 0. -1.
<mgrwt>
<rscale>  4 0.58457966E+03</rscale>
<asrwt>0</asrwt>
<pdfrwt beam="1">  1       21 0.10432784E+00 0.58457966E+03</pdfrwt>
<pdfrwt beam="2">  1       21 0.22484903E-01 0.58457966E+03</pdfrwt>
<totfact> 0.11857438E+04</totfact>
</mgrwt>
</event>
<event>
 5    0  0.1723834E+000  0.6727602E+03  0.7546771E-02  0.9764984E-01
         21   -1    0    0  503  501  0.00000000000E+00  0.00000000000E+00  0.42956445833E+03  0.42956445833E+03  0.00000000000E+00 0. -1.
         21   -1    0    0  504  502 -0.00000000000E+00 -0.00000000000E+00 -0.37551839338E+03  0.37551839338E+03  0.00000000000E+00 0.  1.
         25    1    1    2    0    0  0.91085751514E+02  0.28272215602E+03  0.24215488315E+03  0.40310348431E+03  0.12500000000E+03 0.  0.
         21    1    1    2  503  502 -0.58055763831E+02 -0.12224536174E+02 -0.98738449391E+02  0.11519198057E+03  0.00000000000E+00 0.  1.
         21    1    1    2  504  501 -0.33029987683E+02 -0.27049761984E+03 -0.89370368816E+02  0.28678738684E+03  0.00000000000E+00 0.  1.
<mgrwt>
<rscale>  4 0.67276021E+03</rscale>
<asrwt>0</asrwt>
<pdfrwt beam="1">  1       21 0.66086840E-01 0.67276021E+03</pdfrwt>
<pdfrwt beam="2">  1       21 0.57772061E-01 0.67276021E+03</pdfrwt>
<totfact> 0.49079839E+03</totfact>
</mgrwt>
</event>
<event>
 5    0  0.1723834E+000  0.5628672E+03  0.7546771E-02  0.9985588E-01
         21   -1    0    0  503  501  0.00000000000E+00  0.00000000000E+00  0.11126742643E+04  0.11126742643E+04  0.00000000000E+00 0.  1.
         21   -1    0    0  504  502 -0.00000000000E+00 -0.00000000000E+00 -0.43336583649E+03  0.43336583649E+03  0.00000000000E+00 0.  1.
         25    1    1    2    0    0 -0.39145129904E+03 -0.35533332857E+02  0.93540320814E+03  0.10223017652E+04  0.12500000000E+03 0.  0.
         21    1    1    2  503  502  0.52196251292E+02 -0.59826371959E+02  0.12856962625E+02  0.80429751452E+02  0.00000000000E+00 0. -1.
         21    1    1    2  504  501  0.33925504775E+03  0.95359704815E+02 -0.26895174297E+03  0.44330858414E+03  0.00000000000E+00 0.  1.
<mgrwt>
<rscale>  4 0.56286717E+03</rscale>
<asrwt>0</asrwt>
<pdfrwt beam="1">  1       21 0.17118066E+00 0.56286717E+03</pdfrwt>
<pdfrwt beam="2">  1       21 0.66671668E-01 0.56286717E+03</pdfrwt>
<totfact> 0.33849851E+02</totfact>
</mgrwt>
</event>
<event>
 5    0  0.1723834E+000  0.4878831E+03  0.7546771E-02  0.1016991E+00
         21   -1    0    0  503  501  0.00000000000E+00  0.00000000000E+00  0.55190751742E+02  0.55190751742E+02  0.00000000000E+00 0.  1.
         21   -1    0    0  504  502 -0.00000000000E+00 -0.00000000000E+00 -0.18793596184E+04  0.18793596184E+04  0.00000000000E+00 0.  1.
         25    1    1    2    0    0  0.20330785593E+03  0.64376910530E+02 -0.72334783121E+03  0.76441844287E+03  0.12500000000E+03 0.  0.
         21    1    1    2  503  502 -0.21124171644E+03 -0.43916585381E+02 -0.30278165171E+03  0.37179087919E+03  0.00000000000E+00 0.  1.
         21    1    1    2  504  501  0.79338605087E+01 -0.20460325149E+02 -0.79803938371E+03  0.79834104805E+03  0.00000000000E+00 0.  1.
<mgrwt>
<rscale>  4 0.48788309E+03</rscale>
<asrwt>0</asrwt>
<pdfrwt beam="1">  1       21 0.84908874E-02 0.48788309E+03</pdfrwt>
<pdfrwt beam="2">  1       21 0.28913216E+00 0.48788309E+03</pdfrwt>
<totfact> 0.34758033E+03</totfact>
</mgrwt>
</event>
<event>
 5    0  0.1723834E+000  0.4499821E+03  0.7546771E-02  0.1027727E+00
         21   -1    0    0  503  501  0.00000000000E+00  0.00000000000E+00  0.15003847726E+03  0.15003847726E+03  0.00000000000E+00 0.  1.
         21   -1    0    0  504  502 -0.00000000000E+00 -0.00000000000E+00 -0.39540630183E+03  0.39540630183E+03  0.00000000000E+00 0.  1.
         25    1    1    2    0    0  0.19748742848E+03 -0.37210047481E+02 -0.21123377049E+03  0.31722323029E+03  0.12500000000E+03 0.  0.
         21    1    1    2  503  502 -0.14641659525E+02  0.33309094527E+02 -0.26795338586E+02  0.45186990847E+02  0.00000000000E+00 0.  1.
         21    1    1    2  504  501 -0.18284576895E+03  0.39009529538E+01 -0.73387154813E+01  0.18303455795E+03  0.00000000000E+00 0.  1.
<mgrwt>
<rscale>  4 0.44998214E+03</rscale>
<asrwt>0</asrwt>
<pdfrwt beam="1">  1       21 0.23082843E-01 0.44998214E+03</pdfrwt>
<pdfrwt beam="2">  1       21 0.60831738E-01 0.44998214E+03</pdfrwt>
<totfact> 0.40656812E+04</totfact>
</mgrwt>
</event>
<event>
 5    0  0.1723834E+000  0.3849528E+03  0.7546771E-02  0.1049118E+00
         21   -1    0    0  503  501  0.00000000000E+00  0.00000000000E+00  0.49697420210E+03  0.49697420210E+03  0.00000000000E+00 0. -1.
         21   -1    0    0  504  502 -0.00000000000E+00 -0.00000000000E+00 -0.17976419449E+03  0.17976419449E+03  0.00000000000E+00 0.  1.
         25    1    1    2    0    0 -0.52194337724E+02 -0.24008905617E+03  0.19299969586E+03  0.33651283242E+03  0.12500000000E+03 0.  0.
         21    1    1    2  503  502  0.87694767624E+02  0.59871150253E+02  0.11469135762E+03  0.15629790278E+03  0.00000000000E+00 0. -1.
         21    1    1    2  504  501 -0.35500429900E+02  0.18021790592E+03  0.95189541284E+01  0.18392766139E+03  0.00000000000E+00 0.  1.
<mgrwt>
<rscale>  4 0.38495277E+03</rscale>
<asrwt>0</asrwt>
<pdfrwt beam="1">  1       21 0.76457569E-01 0.38495277E+03</pdfrwt>
<pdfrwt beam="2">  1       21 0.27656030E-01 0.38495277E+03</pdfrwt>
<totfact> 0.17451978E+04</totfact>
</mgrwt>
</event>
<event>
 5    0  0.1723834E+000  0.4356011E+03  0.7546771E-02  0.1032105E+00
         21   -1    0    0  503  501  0.00000000000E+00  0.00000000000E+00  0.36800628862E+03  0.36800628862E+03  0.00000000000E+00 0.  1.
         21   -1    0    0  504  502 -0.00000000000E+00 -0.00000000000E+00 -0.18396004334E+03  0.18396004334E+03  0.00000000000E+00 0.  1.
         25    1    1    2    0    0  0.42576321614E+02  0.20965431429E+03  0.13739585558E+03  0.28332012953E+03  0.12500000000E+03 0.  0.
         21    1    1    2  503  502 -0.18916068976E+02 -0.23403373493E+02 -0.49332600282E+02  0.57786166225E+02  0.00000000000E+00 0.  1.
         21    1    1    2  504  501 -0.23660252637E+02 -0.18625094080E+03  0.95982989988E+02  0.21086003621E+03  0.00000000000E+00 0.  1.
<mgrwt>
<rscale>  4 0.43560114E+03</rscale>
<asrwt>0</asrwt>
<pdfrwt beam="1">  1       21 0.56616352E-01 0.43560114E+03</pdfrwt>
<pdfrwt beam="2">  1       21 0.28301545E-01 0.43560114E+03</pdfrwt>
<totfact> 0.32066126E+04</totfact>
</mgrwt>
</event>
<event>
 5    0  0.1723834E+000  0.5537110E+03  0.7546771E-02  0.1000639E+00
         21   -1    0    0  503  501  0.00000000000E+00  0.00000000000E+00  0.14757228650E+04  0.14757228650E+04  0.00000000000E+00 0.  1.
         21   -1    0    0  504  502 -0.00000000000E+00 -0.00000000000E+00 -0.73199981495E+02  0.73199981495E+02  0.00000000000E+00 0.  1.
         25    1    1    2    0    0 -0.78561228449E+02  0.26993220798E+03  0.75749071647E+03  0.81758941349E+03  0.12500000000E+03 0.  0.
         21    1    1    2  503  502  0.16701604260E+02 -0.32107000300E+02 -0.48761006290E+01  0.36518206561E+02  0.00000000000E+00 0.  1.
         21    1    1    2  504  501  0.61859624190E+02 -0.23782520768E+03  0.64990826763E+03  0.69481522641E+03  0.00000000000E+00 0.  1.
<mgrwt>
<rscale>  4 0.55371102E+03</rscale>
<asrwt>0</asrwt>
<pdfrwt beam="1">  1       21 0.22703426E+00 0.55371102E+03</pdfrwt>
<pdfrwt beam="2">  1       21 0.11261537E-01 0.55371102E+03</pdfrwt>
<totfact> 0.49217002E+03</totfact>
</mgrwt>
</event>
<event>
 5    0  0.1723834E+000  0.6330920E+03  0.7546771E-02  0.9839034E-01
         21   -1    0    0  503  501  0.00000000000E+00  0.00000000000E+00  0.71777443398E+03  0.71777443398E+03  0.00000000000E+00 0.  1.
         21   -1    0    0  504  502 -0.00000000000E+00 -0.00000000000E+00 -0.15361353167E+03  0.15361353167E+03  0.00000000000E+00 0.  1.
         25    1    1    2    0    0 -0.10511272190E+03  0.26799088984E+03  0.20736469252E+03  0.37615544267E+03  0.12500000000E+03 0.  0.
         21    1    1    2  503  502  0.10731082358E+03 -0.28903982816E+03  0.35982905713E+03  0.47385291545E+03  0.00000000000E+00 0.  1.
         21    1    1    2  504  501 -0.21981016823E+01  0.21048938326E+02 -0.30328473444E+01  0.21379607542E+02  0.00000000000E+00 0.  1.
<mgrwt>
<rscale>  4 0.63309198E+03</rscale>
<asrwt>0</asrwt>
<pdfrwt beam="1">  1       21 0.11042683E+00 0.63309198E+03</pdfrwt>
<pdfrwt beam="2">  1       21 0.23632851E-01 0.63309198E+03</pdfrwt>
<totfact> 0.92458521E+03</totfact>
</mgrwt>
</event>
<event>
 5    0  0.1723834E+000  0.4387687E+03  0.7546771E-02  0.1031125E+00
         21   -1    0    0  503  501  0.00000000000E+00  0.00000000000E+00  0.32767345250E+03  0.32767345250E+03  0.00000000000E+00 0.  1.
         21   -1    0    0  504  502 -0.00000000000E+00 -0.00000000000E+00 -0.35710508273E+03  0.35710508273E+03  0.00000000000E+00 0.  1.
         25    1    1    2    0    0 -0.18088961728E+03  0.88078796133E+02  0.49467456507E+02  0.24197305061E+03  0.12500000000E+03 0.  0.
         21    1    1    2  503  502  0.21066608866E+03  0.10715901865E+03 -0.63362180140E+02  0.24469986118E+03  0.00000000000E+00 0.  1.
         21    1    1    2  504  501 -0.29776471380E+02 -0.19523781479E+03 -0.15536906603E+02  0.19810562344E+03  0.00000000000E+00 0.  1.
<mgrwt>
<rscale>  4 0.43876868E+03</rscale>
<asrwt>0</asrwt>
<pdfrwt beam="1">  1       21 0.50411301E-01 0.43876868E+03</pdfrwt>
<pdfrwt beam="2">  1       21 0.54939243E-01 0.43876868E+03</pdfrwt>
<totfact> 0.10496851E+04</totfact>
</mgrwt>
</event>
<event>
 5    0  0.1723834E+000  0.3025051E+03  0.7546771E-02  0.1083995E+00
         21   -1    0    0  503  501  0.00000000000E+00  0.00000000000E+00  0.41888567869E+03  0.41888567869E+03  0.00000000000E+00 0.  1.
         21   -1    0    0  504  502 -0.00000000000E+00 -0.00000000000E+00 -0.29043768747E+03  0.29043768747E+03  0.00000000000E+00 0.  1.
         25    1    1    2    0    0  0.21447437546E+03 -0.87782423415E+02  0.29592101676E+03  0.39610511200E+03  0.12500000000E+03 0.  0.
         21    1    1    2  503  502 -0.19354653562E+03  0.11007524781E+03 -0.17322400824E+03  0.28210526167E+03  0.00000000000E+00 0.  1.
         21    1    1    2  504  501 -0.20927839840E+02 -0.22292824392E+02  0.57509826975E+01  0.31112992490E+02  0.00000000000E+00 0. -1.
<mgrwt>
<rscale>  4 0.30250506E+03</rscale>
<asrwt>0</asrwt>
<pdfrwt beam="1">  1       21 0.64443950E-01 0.30250506E+03</pdfrwt>
<pdfrwt beam="2">  1       21 0.44682721E-01 0.30250506E+03</pdfrwt>
<totfact> 0.10039967E+04</totfact>
</mgrwt>
</event>
<event>
 5    0  0.1723834E+000  0.4930092E+03  0.7546771E-02  0.1015620E+00
         21   -1    0    0  503  501  0.00000000000E+00  0.00000000000E+00  0.15564791320E+04  0.15564791320E+04  0.00000000000E+00 0. -1.
         21   -1    0    0  504  502 -0.00000000000E+00 -0.00000000000E+00 -0.57619928304E+02  0.57619928304E+02  0.00000000000E+00 0. -1.
         25    1    1    2    0    0  0.19124605325E+03  0.88339859847E+02  0.58760432564E+03  0.63661827435E+03  0.12500000000E+03 0.  0.
         21    1    1    2  503  502 -0.24755020994E+03  0.13360645655E+01  0.65419371235E+03  0.69946572811E+03  0.00000000000E+00 0. -1.
         21    1    1    2  504  501  0.56304156691E+02 -0.89675924412E+02  0.25706116573E+03  0.27801505788E+03  0.00000000000E+00 0. -1.
<mgrwt>
<rscale>  4 0.49300922E+03</rscale>
<asrwt>0</asrwt>
<pdfrwt beam="1">  1       21 0.23945830E+00 0.49300922E+03</pdfrwt>
<pdfrwt beam="2">  1       21 0.88646055E-02 0.49300922E+03</pdfrwt>
<totfact> 0.64613676E+03</totfact>
</mgrwt>
</event>
<event>
 5    0  0.1723834E+000  0.5266314E+03  0.7546771E-02  0.1007052E+00
         21   -1    0    0  503  501  0.00000000000E+00  0.00000000000E+00  0.64084580469E+03  0.64084580469E+03  0.00000000000E+00 0. -1.
         21   -1    0    0  504  502 -0.00000000000E+00 -0.00000000000E+00 -0.23251004397E+03  0.23251004397E+03  0.00000000000E+00 0. -1.
         25    1    1    2    0    0  0.21761662514E+03  0.14077171598E+03  0.45055074068E+03  0.53459764448E+03  0.12500000000E+03 0.  0.
         21    1    1    2  503  502 -0.11689899317E+03  0.13693573787E+02 -0.90118449507E+02  0.14823705174E+03  0.00000000000E+00 0. -1.
         21    1    1    2  504  501 -0.10071763197E+03 -0.15446528977E+03  0.47903469542E+02  0.19052115244E+03  0.00000000000E+00 0.  1.
<mgrwt>
<rscale>  4 0.52663144E+03</rscale>
<asrwt>0</asrwt>
<pdfrwt beam="1">  1       21 0.98591661E-01 0.52663144E+03</pdfrwt>
<pdfrwt beam="2">  1       21 0.35770776E-01 0.52663144E+03</pdfrwt>
<totfact> 0.55036268E+03</totfact>
</mgrwt>
</event>
<event>
 5    0  0.1723834E+000  0.4414000E+03  0.7546771E-02  0.1030318E+00
         21   -1    0    0  503  501  0.00000000000E+00  0.00000000000E+00  0.15253088291E+03  0.15253088291E+03  0.00000000000E+00 0. -1.
         21   -1    0    0  504  502 -0.00000000000E+00 -0.00000000000E+00 -0.21362531806E+04  0.21362531806E+04  0.00000000000E+00 0.  1.
         25    1    1    2    0    0 -0.19834725338E+03  0.19107592179E+03 -0.52979060768E+02  0.30705605627E+03  0.12500000000E+03 0.  0.
         21    1    1    2  503  502  0.91026153028E+02 -0.16111461921E+03 -0.18019409456E+04  0.18114179121E+04  0.00000000000E+00 0.  1.
         21    1    1    2  504  501  0.10732110035E+03 -0.29961302580E+02 -0.12880229130E+03  0.17031009505E+03  0.00000000000E+00 0.  1.
<mgrwt>
<rscale>  4 0.44140003E+03</rscale>
<asrwt>0</asrwt>
<pdfrwt beam="1">  1       21 0.23466291E-01 0.44140003E+03</pdfrwt>
<pdfrwt beam="2">  1       21 0.32865432E+00 0.44140003E+03</pdfrwt>
<totfact> 0.31357972E+02</totfact>
</mgrwt>
</event>
<event>
 5    0  0.1723834E+000  0.4516637E+03  0.7546771E-02  0.1027227E+00
         21   -1    0    0  503  501  0.00000000000E+00  0.00000000000E+00  0.20147953772E+03  0.20147953772E+03  0.00000000000E+00 0. -1.
         21   -1    0    0  504  502 -0.00000000000E+00 -0.00000000000E+00 -0.43667337801E+03  0.43667337801E+03  0.00000000000E+00 0. -1.
         25    1    1    2    0    0  0.16578290884E+03  0.12658548310E+03  0.60500515683E+02  0.25058565361E+03  0.12500000000E+03 0.  0.
         21    1    1    2  503  502 -0.12870233884E+03 -0.10717092832E+03 -0.11766179340E+03  0.20468072095E+03  0.00000000000E+00 0. -1.
         21    1    1    2  504  501 -0.37080570001E+02 -0.19414554776E+02 -0.17803256257E+03  0.18288654118E+03  0.00000000000E+00 0. -1.
<mgrwt>
<rscale>  4 0.45166366E+03</rscale>
<asrwt>0</asrwt>
<pdfrwt beam="1">  1       21 0.30996853E-01 0.45166366E+03</pdfrwt>
<pdfrwt beam="2">  1       21 0.67180518E-01 0.45166366E+03</pdfrwt>
<totfact> 0.18294637E+04</totfact>
</mgrwt>
</event>
<event>
 5    0  0.1723834E+000  0.5018791E+03  0.7546771E-02  0.1013290E+00
         21   -1    0    0  503  501  0.00000000000E+00  0.00000000000E+00  0.36197168305E+03  0.36197168305E+03  0.00000000000E+00 0. -1.
         21   -1    0    0  504  502 -0.00000000000E+00 -0.00000000000E+00 -0.32110025073E+03  0.32110025073E+03  0.00000000000E+00 0. -1.
         25    1    1    2    0    0  0.12918500234E+02 -0.23563289447E+03  0.17618040694E+03  0.31992856140E+03  0.12500000000E+03 0.  0.
         21    1    1    2  503  502 -0.21223150689E+02  0.20777717657E+02 -0.14490129539E+03  0.14791389753E+03  0.00000000000E+00 0. -1.
         21    1    1    2  504  501  0.83046504549E+01  0.21485517682E+03  0.95923207717E+01  0.21522947485E+03  0.00000000000E+00 0. -1.
<mgrwt>
<rscale>  4 0.50187909E+03</rscale>
<asrwt>0</asrwt>
<pdfrwt beam="1">  1       21 0.55687952E-01 0.50187909E+03</pdfrwt>
<pdfrwt beam="2">  1       21 0.49400038E-01 0.50187909E+03</pdfrwt>
<totfact> 0.10457761E+04</totfact>
</mgrwt>
</event>
<event>
 5    0  0.1723834E+000  0.5998465E+03  0.7546771E-02  0.9905725E-01
         21   -1    0    0  503  501  0.00000000000E+00  0.00000000000E+00  0.21179656226E+03  0.21179656226E+03  0.00000000000E+00 0. -1.
         21   -1    0    0  504  502 -0.00000000000E+00 -0.00000000000E+00 -0.54791877273E+03  0.54791877273E+03  0.00000000000E+00 0. -1.
         25    1    1    2    0    0  0.15203969917E+03 -0.16958083897E+03 -0.25532320630E+03  0.36426456147E+03  0.12500000000E+03 0.  0.
         21    1    1    2  503  502 -0.16898421960E+03  0.22190004259E+03  0.21040935624E+02  0.27971059391E+03  0.00000000000E+00 0. -1.
         21    1    1    2  504  501  0.16944520429E+02 -0.52319203619E+02 -0.10183993979E+03  0.11574017961E+03  0.00000000000E+00 0. -1.
<mgrwt>
<rscale>  4 0.59984650E+03</rscale>
<asrwt>0</asrwt>
<pdfrwt beam="1">  1       21 0.32584087E-01 0.59984650E+03</pdfrwt>
<pdfrwt beam="2">  1       21 0.84295195E-01 0.59984650E+03</pdfrwt>
<totfact> 0.94935868E+03</totfact>
</mgrwt>
</event>
<event>
 5    0  0.1723834E+000  0.5067922E+03  0.7546771E-02  0.1012021E+00
         21   -1    0    0  503  501  0.00000000000E+00  0.00000000000E+00  0.69749460960E+03  0.69749460960E+03  0.00000000000E+00 0.  1.
         21   -1    0    0  504  502 -0.00000000000E+00 -0.00000000000E+00 -0.30437332513E+03  0.30437332513E+03  0.00000000000E+00 0. -1.
         25    1    1    2    0    0  0.20810713629E+03 -0.18724695190E+02  0.17671222752E+03  0.30085113551E+03  0.12500000000E+03 0.  0.
         21    1    1    2  503  502 -0.23321246795E+03  0.27134606771E+02  0.42778995045E+03  0.48798420446E+03  0.00000000000E+00 0.  1.
         21    1    1    2  504  501  0.25105331657E+02 -0.84099115810E+01 -0.21138089351E+03  0.21303259476E+03  0.00000000000E+00 0. -1.
<mgrwt>
<rscale>  4 0.50679218E+03</rscale>
<asrwt>0</asrwt>
<pdfrwt beam="1">  1       21 0.10730686E+00 0.50679218E+03</pdfrwt>
<pdfrwt beam="2">  1       21 0.46826666E-01 0.50679218E+03</pdfrwt>
<totfact> 0.25721963E+03</totfact>
</mgrwt>
</event>
<event>
 5    0  0.1723834E+000  0.4016687E+03  0.7546771E-02  0.1043203E+00
         21   -1    0    0  503  501  0.00000000000E+00  0.00000000000E+00  0.84829140721E+03  0.84829140721E+03  0.00000000000E+00 0.  1.
         21   -1    0    0  504  502 -0.00000000000E+00 -0.00000000000E+00 -0.11509700767E+03  0.11509700767E+03  0.00000000000E+00 0. -1.
         25    1    1    2    0    0 -0.20335673950E+03  0.15574727970E+03  0.48738706376E+03  0.56460811945E+03  0.12500000000E+03 0.  0.
         21    1    1    2  503  502  0.15065887177E+03 -0.51688412813E+02  0.43261693448E+02  0.16504957371E+03  0.00000000000E+00 0. -1.
         21    1    1    2  504  501  0.52697867730E+02 -0.10405886688E+03  0.20254564234E+03  0.23373072171E+03  0.00000000000E+00 0. -1.
<mgrwt>
<rscale>  4 0.40166873E+03</rscale>
<asrwt>0</asrwt>
<pdfrwt beam="1">  1       21 0.13050637E+00 0.40166873E+03</pdfrwt>
<pdfrwt beam="2">  1       21 0.17707233E-01 0.40166873E+03</pdfrwt>
<totfact> 0.11168003E+04</totfact>
</mgrwt>
</event>
<event>
 5    0  0.1723834E+000  0.6070954E+03  0.7546771E-02  0.9890794E-01
         21   -1    0    0  503  501  0.00000000000E+00  0.00000000000E+00  0.47413036803E+03  0.47413036803E+03  0.00000000000E+00 0.  1.
         21   -1    0    0  504  502 -0.00000000000E+00 -0.00000000000E+00 -0.80770586491E+03  0.80770586491E+03  0.00000000000E+00 0. -1.
         25    1    1    2    0    0 -0.33558492355E+03  0.39832242905E+03  0.14391461180E+03  0.55462997925E+03  0.12500000000E+03 0.  0.
         21    1    1    2  503  502  0.33769201984E+02 -0.60415884956E+02 -0.33130112402E+00  0.69213784162E+02  0.00000000000E+00 0. -1.
         21    1    1    2  504  501  0.30181572157E+03 -0.33790654409E+03 -0.47715880755E+03  0.65799246952E+03  0.00000000000E+00 0. -1.
<mgrwt>
<rscale>  4 0.60709544E+03</rscale>
<asrwt>0</asrwt>
<pdfrwt beam="1">  1       21 0.72943133E-01 0.60709544E+03</pdfrwt>
<pdfrwt beam="2">  1       21 0.12426244E+00 0.60709544E+03</pdfrwt>
<totfact> 0.65013842E+02</totfact>
</mgrwt>
</event>
<event>
 5    0  0.1723834E+000  0.4500120E+03  0.7546771E-02  0.1027718E+00
         21   -1    0    0  503  501  0.00000000000E+00  0.00000000000E+00  0.20712773669E+03  0.20712773669E+03  0.00000000000E+00 0. -1.
         21   -1    0    0  504  502 -0.00000000000E+00 -0.00000000000E+00 -0.79199826457E+03  0.79199826457E+03  0.00000000000E+00 0. -1.
         25    1    1    2    0    0  0.28298297886E+03 -0.59282526014E+02 -0.70940983525E+02  0.32287986521E+03  0.12500000000E+03 0.  0.
         21    1    1    2  503  502 -0.20342308475E+03 -0.49084450730E+02 -0.49885368525E+03  0.54096694354E+03  0.00000000000E+00 0. -1.
         21    1    1    2  504  501 -0.79559894116E+02  0.10836697674E+03 -0.15075859103E+02  0.13527919252E+03  0.00000000000E+00 0.  1.
<mgrwt>
<rscale>  4 0.45001203E+03</rscale>
<asrwt>0</asrwt>
<pdfrwt beam="1">  1       21 0.31865806E-01 0.45001203E+03</pdfrwt>
<pdfrwt beam="2">  1       21 0.12184589E+00 0.45001203E+03</pdfrwt>
<totfact> 0.42025934E+03</totfact>
</mgrwt>
</event>
<event>
 5    0  0.1723834E+000  0.4043455E+03  0.7546771E-02  0.1042285E+00
         21   -1    0    0  503  501  0.00000000000E+00  0.00000000000E+00  0.51556167829E+03  0.51556167829E+03  0.00000000000E+00 0.  1.
         21   -1    0    0  504  502 -0.00000000000E+00 -0.00000000000E+00 -0.11712320963E+04  0.11712320963E+04  0.00000000000E+00 0. -1.
         25    1    1    2    0    0 -0.21013542728E+02  0.22786795642E+03  0.36991739920E+03  0.45258066328E+03  0.12500000000E+03 0.  0.
         21    1    1    2  503  502  0.69865632313E+02  0.92412003593E+02  0.38355825572E+02  0.12203423430E+03  0.00000000000E+00 0. -1.
         21    1    1    2  504  501 -0.48852089585E+02 -0.32027996001E+03 -0.10639436428E+04  0.11121788770E+04  0.00000000000E+00 0. -1.
<mgrwt>
<rscale>  4 0.40434546E+03</rscale>
<asrwt>0</asrwt>
<pdfrwt beam="1">  1       21 0.79317182E-01 0.40434546E+03</pdfrwt>
<pdfrwt beam="2">  1       21 0.18018955E+00 0.40434546E+03</pdfrwt>
<totfact> 0.21201372E+02</totfact>
</mgrwt>
</event>
<event>
 5    0  0.1723834E+000  0.6206949E+03  0.7546771E-02  0.9863377E-01
         21   -1    0    0  503  501  0.00000000000E+00  0.00000000000E+00  0.12871937863E+03  0.12871937863E+03  0.00000000000E+00 0.  1.
         21   -1    0    0  504  502 -0.00000000000E+00 -0.00000000000E+00 -0.13529379585E+04  0.13529379585E+04  0.00000000000E+00 0. -1.
         25    1    1    2    0    0 -0.32196852822E+02  0.31182485463E+03 -0.29962122791E+03  0.45129730502E+03  0.12500000000E+03 0.  0.
         21    1    1    2  503  502  0.11133264947E+02 -0.32030200127E+02 -0.60141365873E+03  0.60236888384E+03  0.00000000000E+00 0. -1.
         21    1    1    2  504  501  0.21063587874E+02 -0.27979465451E+03 -0.32318369320E+03  0.42799114824E+03  0.00000000000E+00 0.  1.
<mgrwt>
<rscale>  4 0.62069494E+03</rscale>
<asrwt>0</asrwt>
<pdfrwt beam="1">  1       21 0.19802981E-01 0.62069494E+03</pdfrwt>
<pdfrwt beam="2">  1       21 0.20814431E+00 0.62069494E+03</pdfrwt>
<totfact> 0.22313392E+03</totfact>
</mgrwt>
</event>
<event>
 5    0  0.1723834E+000  0.5226739E+03  0.7546771E-02  0.1008024E+00
         21   -1    0    0  503  501  0.00000000000E+00  0.00000000000E+00  0.94246645404E+02  0.94246645404E+02  0.00000000000E+00 0. -1.
         21   -1    0    0  504  502 -0.00000000000E+00 -0.00000000000E+00 -0.13886031211E+04  0.13886031211E+04  0.00000000000E+00 0.  1.
         25    1    1    2    0    0 -0.18598308337E+03  0.19881244347E+03 -0.24334793982E+03  0.38595247738E+03  0.12500000000E+03 0.  0.
         21    1    1    2  503  502  0.11297237995E+03 -0.14736792135E+03 -0.41500176643E+03  0.45464989718E+03  0.00000000000E+00 0.  1.
         21    1    1    2  504  501  0.73010703424E+02 -0.51444522127E+02 -0.63600676940E+03  0.64224739189E+03  0.00000000000E+00 0.  1.
<mgrwt>
<rscale>  4 0.52267391E+03</rscale>
<asrwt>0</asrwt>
<pdfrwt beam="1">  1       21 0.14499483E-01 0.52267391E+03</pdfrwt>
<pdfrwt beam="2">  1       21 0.21363126E+00 0.52267391E+03</pdfrwt>
<totfact> 0.38128859E+03</totfact>
</mgrwt>
</event>
<event>
 5    0  0.1723834E+000  0.4298112E+03  0.7546771E-02  0.1033920E+00
         21   -1    0    0  503  501  0.00000000000E+00  0.00000000000E+00  0.18314527601E+03  0.18314527601E+03  0.00000000000E+00 0.  1.
         21   -1    0    0  504  502 -0.00000000000E+00 -0.00000000000E+00 -0.33848231268E+03  0.33848231268E+03  0.00000000000E+00 0. -1.
         25    1    1    2    0    0  0.14689972953E+03  0.16991035701E+03 -0.46001425189E+02  0.26113251631E+03  0.12500000000E+03 0.  0.
         21    1    1    2  503  502 -0.13306996249E+03 -0.10665545567E+03 -0.67520986960E+02  0.18341778764E+03  0.00000000000E+00 0. -1.
         21    1    1    2  504  501 -0.13829767037E+02 -0.63254901344E+02 -0.41814624522E+02  0.77077284748E+02  0.00000000000E+00 0. -1.
<mgrwt>
<rscale>  4 0.42981116E+03</rscale>
<asrwt>0</asrwt>
<pdfrwt beam="1">  1       21 0.28176197E-01 0.42981116E+03</pdfrwt>
<pdfrwt beam="2">  1       21 0.52074201E-01 0.42981116E+03</pdfrwt>
<totfact> 0.38782445E+04</totfact>
</mgrwt>
</event>
<event>
 5    0  0.1723834E+000  0.1142572E+04  0.7546771E-02  0.9164664E-01
         21   -1    0    0  503  501  0.00000000000E+00  0.00000000000E+00  0.46459467401E+03  0.46459467401E+03  0.00000000000E+00 0.  1.
         21   -1    0    0  504  502 -0.00000000000E+00 -0.00000000000E+00 -0.14811336637E+04  0.14811336637E+04  0.00000000000E+00 0. -1.
         25    1    1    2    0    0 -0.57833166192E+02  0.38318024664E+03  0.32147083528E+03  0.51878731139E+03  0.12500000000E+03 0.  0.
         21    1    1    2  503  502 -0.44297748049E+02 -0.81600948831E+02 -0.77163950359E+03  0.77720558981E+03  0.00000000000E+00 0. -1.
         21    1    1    2  504  501  0.10213091424E+03 -0.30157929781E+03 -0.56637032133E+03  0.64973543647E+03  0.00000000000E+00 0. -1.
<mgrwt>
<rscale>  4 0.11425715E+04</rscale>
<asrwt>0</asrwt>
<pdfrwt beam="1">  1       21 0.71476106E-01 0.11425715E+04</pdfrwt>
<pdfrwt beam="2">  1       21 0.22786671E+00 0.11425715E+04</pdfrwt>
<totfact> 0.10027133E+02</totfact>
</mgrwt>
</event>
<event>
 5    0  0.1723834E+000  0.9180271E+03  0.7546771E-02  0.9403323E-01
         21   -1    0    0  503  501  0.00000000000E+00  0.00000000000E+00  0.56841991940E+03  0.56841991940E+03  0.00000000000E+00 0. -1.
         21   -1    0    0  504  502 -0.00000000000E+00 -0.00000000000E+00 -0.17106219131E+04  0.17106219131E+04  0.00000000000E+00 0. -1.
         25    1    1    2    0    0  0.20021036269E+02  0.44422441411E+03  0.11589242363E+03  0.47622707382E+03  0.12500000000E+03 0.  0.
         21    1    1    2  503  502  0.23902134048E+02  0.92074973067E+01 -0.13397545062E+04  0.13399993384E+04  0.00000000000E+00 0. -1.
         21    1    1    2  504  501 -0.43923170317E+02 -0.45343191142E+03  0.81660088831E+02  0.46281542032E+03  0.00000000000E+00 0. -1.
<mgrwt>
<rscale>  4 0.91802713E+03</rscale>
<asrwt>0</asrwt>
<pdfrwt beam="1">  1       21 0.87449220E-01 0.91802713E+03</pdfrwt>
<pdfrwt beam="2">  1       21 0.26317260E+00 0.91802713E+03</pdfrwt>
<totfact> 0.39269055E+01</totfact>
</mgrwt>
</event>
<event>
 5    0  0.1723834E+000  0.4536822E+03  0.7546771E-02  0.1026630E+00
         21   -1    0    0  503  501  0.00000000000E+00  0.00000000000E+00  0.70120476303E+02  0.70120476303E+02  0.00000000000E+00 0. -1.
         21   -1    0    0  504  502 -0.00000000000E+00 -0.00000000000E+00 -0.28449956006E+04  0.28449956006E+04  0.00000000000E+00 0. -1.
         25    1    1    2    0    0  0.18798889163E+03 -0.83120651174E+02 -0.52499118895E+03  0.57748559679E+03  0.12500000000E+03 0.  0.
         21    1    1    2  503  502 -0.15837910069E+03  0.84115457042E+02 -0.13991748683E+03  0.22745604579E+03  0.00000000000E+00 0. -1.
         21    1    1    2  504  501 -0.29609790945E+02 -0.99480586759E+00 -0.21099664485E+04  0.21101744343E+04  0.00000000000E+00 0. -1.
<mgrwt>
<rscale>  4 0.45368216E+03</rscale>
<asrwt>0</asrwt>
<pdfrwt beam="1">  1       21 0.10787766E-01 0.45368216E+03</pdfrwt>
<pdfrwt beam="2">  1       21 0.43769161E+00 0.45368216E+03</pdfrwt>
<totfact> 0.27090706E+02</totfact>
</mgrwt>
</event>
<event>
 5    0  0.1723834E+000  0.7840386E+03  0.7546771E-02  0.9583412E-01
         21   -1    0    0  503  501  0.00000000000E+00  0.00000000000E+00  0.11690432612E+04  0.11690432612E+04  0.00000000000E+00 0. -1.
         21   -1    0    0  504  502 -0.00000000000E+00 -0.00000000000E+00 -0.50941797619E+03  0.50941797619E+03  0.00000000000E+00 0. -1.
         25    1    1    2    0    0  0.28571842540E+03 -0.27615912754E+03  0.13874777086E+03  0.43906130125E+03  0.12500000000E+03 0.  0.
         21    1    1    2  503  502  0.16214346624E+03 -0.25121005530E+03  0.45492415390E+03  0.54438311999E+03  0.00000000000E+00 0. -1.
         21    1    1    2  504  501 -0.44786189165E+03  0.52736918284E+03  0.65953360240E+02  0.69501681614E+03  0.00000000000E+00 0. -1.
<mgrwt>
<rscale>  4 0.78403863E+03</rscale>
<asrwt>0</asrwt>
<pdfrwt beam="1">  1       21 0.17985281E+00 0.78403863E+03</pdfrwt>
<pdfrwt beam="2">  1       21 0.78371997E-01 0.78403863E+03</pdfrwt>
<totfact> 0.18806585E+02</totfact>
</mgrwt>
</event>
<event>
 5    0  0.1723834E+000  0.5414506E+03  0.7546771E-02  0.1003492E+00
         21   -1    0    0  503  501  0.00000000000E+00  0.00000000000E+00  0.82917508237E+03  0.82917508237E+03  0.00000000000E+00 0.  1.
         21   -1    0    0  504  502 -0.00000000000E+00 -0.00000000000E+00 -0.13047488548E+03  0.13047488548E+03  0.00000000000E+00 0. -1.
         25    1    1    2    0    0  0.18304428274E+03 -0.20404536551E+03  0.44373273410E+03  0.53634267026E+03  0.12500000000E+03 0.  0.
         21    1    1    2  503  502  0.15292195909E+02  0.76054190881E+02  0.24107557159E+01  0.77613806435E+02  0.00000000000E+00 0. -1.
         21    1    1    2  504  501 -0.19833647865E+03  0.12799117463E+03  0.25255670706E+03  0.34569349115E+03  0.00000000000E+00 0.  1.
<mgrwt>
<rscale>  4 0.54145065E+03</rscale>
<asrwt>0</asrwt>
<pdfrwt beam="1">  1       21 0.12756539E+00 0.54145065E+03</pdfrwt>
<pdfrwt beam="2">  1       21 0.20073060E-01 0.54145065E+03</pdfrwt>
<totfact> 0.89608962E+03</totfact>
</mgrwt>
</event>
<event>
 5    0  0.1723834E+000  0.7345436E+03  0.7546771E-02  0.9659916E-01
         21   -1    0    0  503  501  0.00000000000E+00  0.00000000000E+00  0.24919940801E+04  0.24919940801E+04  0.00000000000E+00 0.  1.
         21   -1    0    0  504  502 -0.00000000000E+00 -0.00000000000E+00 -0.23840640919E+03  0.23840640919E+03  0.00000000000E+00 0.  1.
         25    1    1    2    0    0  0.16181790934E+03 -0.40986702866E+03  0.11089881304E+04  0.11998565291E+04  0.12500000000E+03 0.  0.
         21    1    1    2  503  502 -0.14902191555E+02  0.23425021131E+03 -0.10715133888E+03  0.25802450704E+03  0.00000000000E+00 0.  1.
         21    1    1    2  504  501 -0.14691571779E+03  0.17561681735E+03  0.12517508794E+04  0.12725194532E+04  0.00000000000E+00 0.  1.
<mgrwt>
<rscale>  4 0.73454362E+03</rscale>
<asrwt>0</asrwt>
<pdfrwt beam="1">  1       21 0.38338369E+00 0.73454362E+03</pdfrwt>
<pdfrwt beam="2">  1       21 0.36677911E-01 0.73454362E+03</pdfrwt>
<totfact> 0.50641933E+01</totfact>
</mgrwt>
</event>
<event>
 5    0  0.1723834E+000  0.3028089E+03  0.7546771E-02  0.1083845E+00
         21   -1    0    0  503  501  0.00000000000E+00  0.00000000000E+00  0.14337342224E+04  0.14337342224E+04  0.00000000000E+00 0.  1.
         21   -1    0    0  504  502 -0.00000000000E+00 -0.00000000000E+00 -0.82504537723E+02  0.82504537723E+02  0.00000000000E+00 0.  1.
         25    1    1    2    0    0  0.11017671505E+01  0.22893495420E+03  0.99238624866E+03  0.10260935112E+04  0.12500000000E+03 0.  0.
         21    1    1    2  503  502 -0.89278078903E+01 -0.32002386283E+02  0.27326837703E+03  0.27528070104E+03  0.00000000000E+00 0. -1.
         21    1    1    2  504  501  0.78260407398E+01 -0.19693256792E+03  0.85575058969E+02  0.21486454789E+03  0.00000000000E+00 0.  1.
<mgrwt>
<rscale>  4 0.30280886E+03</rscale>
<asrwt>0</asrwt>
<pdfrwt beam="1">  1       21 0.22057448E+00 0.30280886E+03</pdfrwt>
<pdfrwt beam="2">  1       21 0.12693007E-01 0.30280886E+03</pdfrwt>
<totfact> 0.48601943E+03</totfact>
</mgrwt>
</event>
<event>
 5    0  0.1723834E+000  0.5885643E+03  0.7546771E-02  0.9929420E-01
         21   -1    0    0  503  501  0.00000000000E+00  0.00000000000E+00  0.43711805376E+03  0.43711805376E+03  0.00000000000E+00 0. -1.
         21   -1    0    0  504  502 -0.00000000000E+00 -0.00000000000E+00 -0.27388134887E+03  0.27388134887E+03  0.00000000000E+00 0.  1.
         25    1    1    2    0    0  0.24211292062E+03  0.25488995660E+02  0.27428343021E+03  0.38745935957E+03  0.12500000000E+03 0.  0.
         21    1    1    2  503  502 -0.42982089112E+02  0.70553679963E+02 -0.35314905914E+02  0.89846671171E+02  0.00000000000E+00 0.  1.
         21    1    1    2  504  501 -0.19913083151E+03 -0.96042675623E+02 -0.75731819394E+02  0.23369337189E+03  0.00000000000E+00 0.  1.
<mgrwt>
<rscale>  4 0.58856433E+03</rscale>
<asrwt>0</asrwt>
<pdfrwt beam="1">  1       21 0.67248931E-01 0.58856433E+03</pdfrwt>
<pdfrwt beam="2">  1       21 0.42135592E-01 0.58856433E+03</pdfrwt>
<totfact> 0.94417014E+03</totfact>
</mgrwt>
</event>
<event>
 5    0  0.1723834E+000  0.3737016E+03  0.7546771E-02  0.1053287E+00
         21   -1    0    0  503  501  0.00000000000E+00  0.00000000000E+00  0.41594073624E+03  0.41594073624E+03  0.00000000000E+00 0.  1.
         21   -1    0    0  504  502 -0.00000000000E+00 -0.00000000000E+00 -0.23933351409E+03  0.23933351409E+03  0.00000000000E+00 0.  1.
         25    1    1    2    0    0  0.19173037212E+03 -0.72373267278E+02  0.20718745435E+03  0.31709630501E+03  0.12500000000E+03 0.  0.
         21    1    1    2  503  502 -0.62132736330E+02  0.10272940749E+03 -0.12627847188E+03  0.17424138586E+03  0.00000000000E+00 0.  1.
         21    1    1    2  504  501 -0.12959763579E+03 -0.30356140210E+02  0.95698239686E+02  0.16393655947E+03  0.00000000000E+00 0. -1.
<mgrwt>
<rscale>  4 0.37370158E+03</rscale>
<asrwt>0</asrwt>
<pdfrwt beam="1">  1       21 0.63990882E-01 0.37370158E+03</pdfrwt>
<pdfrwt beam="2">  1       21 0.36820541E-01 0.37370158E+03</pdfrwt>
<totfact> 0.14754312E+04</totfact>
</mgrwt>
</event>
<event>
 5    0  0.1723834E+000  0.4548975E+03  0.7546771E-02  0.1026272E+00
         21   -1    0    0  503  501  0.00000000000E+00  0.00000000000E+00  0.20709352198E+03  0.20709352198E+03  0.00000000000E+00 0. -1.
         21   -1    0    0  504  502 -0.00000000000E+00 -0.00000000000E+00 -0.58673218045E+03  0.58673218045E+03  0.00000000000E+00 0.  1.
         25    1    1    2    0    0 -0.12395444508E+03 -0.17426447773E+03  0.51045594372E+02  0.25290999458E+03  0.12500000000E+03 0.  0.
         21    1    1    2  503  502 -0.76192530943E+01  0.52623386935E+02 -0.33223717510E+03  0.33646517559E+03  0.00000000000E+00 0.  1.
         21    1    1    2  504  501  0.13157369817E+03  0.12164109080E+03 -0.98447077746E+02  0.20445053225E+03  0.00000000000E+00 0. -1.
<mgrwt>
<rscale>  4 0.45489752E+03</rscale>
<asrwt>0</asrwt>
<pdfrwt beam="1">  1       21 0.31860542E-01 0.45489752E+03</pdfrwt>
<pdfrwt beam="2">  1       21 0.90266488E-01 0.45489752E+03</pdfrwt>
<totfact> 0.87706094E+03</totfact>
</mgrwt>
</event>
<event>
 5    0  0.1723834E+000  0.7333642E+03  0.7546771E-02  0.9661817E-01
         21   -1    0    0  503  501  0.00000000000E+00  0.00000000000E+00  0.13986988900E+04  0.13986988900E+04  0.00000000000E+00 0.  1.
         21   -1    0    0  504  502 -0.00000000000E+00 -0.00000000000E+00 -0.46042121041E+03  0.46042121041E+03  0.00000000000E+00 0.  1.
         25    1    1    2    0    0 -0.12137066901E+03 -0.19825990546E+03  0.12287437381E+04  0.12567712614E+04  0.12500000000E+03 0.  0.
         21    1    1    2  503  502  0.75278805748E+02  0.21236231571E+03  0.72121342262E+02  0.23657163764E+03  0.00000000000E+00 0. -1.
         21    1    1    2  504  501  0.46091863265E+02 -0.14102410245E+02 -0.36258740081E+03  0.36577720140E+03  0.00000000000E+00 0.  1.
<mgrwt>
<rscale>  4 0.73336420E+03</rscale>
<asrwt>0</asrwt>
<pdfrwt beam="1">  1       21 0.21518444E+00 0.73336420E+03</pdfrwt>
<pdfrwt beam="2">  1       21 0.70834033E-01 0.73336420E+03</pdfrwt>
<totfact> 0.13797808E+02</totfact>
</mgrwt>
</event>
<event>
 5    0  0.1723834E+000  0.3845277E+03  0.7546771E-02  0.1049273E+00
         21   -1    0    0  503  501  0.00000000000E+00  0.00000000000E+00  0.50906960329E+03  0.50906960329E+03  0.00000000000E+00 0.  1.
         21   -1    0    0  504  502 -0.00000000000E+00 -0.00000000000E+00 -0.18935718865E+03  0.18935718865E+03  0.00000000000E+00 0.  1.
         25    1    1    2    0    0  0.24505908339E+03  0.27788965923E+02  0.46606497932E+02  0.28039854962E+03  0.12500000000E+03 0.  0.
         21    1    1    2  503  502 -0.42162102571E+02 -0.91946695298E+02  0.64083997484E+02  0.11974387835E+03  0.00000000000E+00 0. -1.
         21    1    1    2  504  501 -0.20289698082E+03  0.64157729375E+02  0.20902191922E+03  0.29828436396E+03  0.00000000000E+00 0.  1.
<mgrwt>
<rscale>  4 0.38452773E+03</rscale>
<asrwt>0</asrwt>
<pdfrwt beam="1">  1       21 0.78318400E-01 0.38452773E+03</pdfrwt>
<pdfrwt beam="2">  1       21 0.29131875E-01 0.38452773E+03</pdfrwt>
<totfact> 0.14913995E+04</totfact>
</mgrwt>
</event>
<event>
 5    0  0.1723834E+000  0.3699845E+03  0.7546771E-02  0.1054699E+00
         21   -1    0    0  503  501  0.00000000000E+00  0.00000000000E+00  0.94941493805E+03  0.94941493805E+03  0.00000000000E+00 0. -1.
         21   -1    0    0  504  502 -0.00000000000E+00 -0.00000000000E+00 -0.94107250174E+02  0.94107250174E+02  0.00000000000E+00 0. -1.
         25    1    1    2    0    0 -0.17627598099E+03 -0.10108779518E+03  0.64154512193E+03  0.68446848523E+03  0.12500000000E+03 0.  0.
         21    1    1    2  503  502  0.59394477451E+02  0.50344027170E+02 -0.30445949346E+02  0.83601320892E+02  0.00000000000E+00 0. -1.
         21    1    1    2  504  501  0.11688150354E+03  0.50743768012E+02  0.24420851529E+03  0.27545238210E+03  0.00000000000E+00 0. -1.
<mgrwt>
<rscale>  4 0.36998455E+03</rscale>
<asrwt>0</asrwt>
<pdfrwt beam="1">  1       21 0.14606383E+00 0.36998455E+03</pdfrwt>
<pdfrwt beam="2">  1       21 0.14478039E-01 0.36998455E+03</pdfrwt>
<totfact> 0.12214047E+04</totfact>
</mgrwt>
</event>
<event>
 5    0  0.1723834E+000  0.4312368E+03  0.7546771E-02  0.1033470E+00
         21   -1    0    0  503  501  0.00000000000E+00  0.00000000000E+00  0.13549686319E+04  0.13549686319E+04  0.00000000000E+00 0.  1.
         21   -1    0    0  504  502 -0.00000000000E+00 -0.00000000000E+00 -0.67717004614E+02  0.67717004614E+02  0.00000000000E+00 0.  1.
         25    1    1    2    0    0 -0.10029113040E+03  0.20874642989E+03  0.77218116557E+03  0.81579540038E+03  0.12500000000E+03 0.  0.
         21    1    1    2  503  502  0.43114614122E+02 -0.50786194857E+02  0.16003866245E+01  0.66638343139E+02  0.00000000000E+00 0.  1.
         21    1    1    2  504  501  0.57176516276E+02 -0.15796023503E+03  0.51347007515E+03  0.54025189304E+03  0.00000000000E+00 0.  1.
<mgrwt>
<rscale>  4 0.43123677E+03</rscale>
<asrwt>0</asrwt>
<pdfrwt beam="1">  1       21 0.20845669E+00 0.43123677E+03</pdfrwt>
<pdfrwt beam="2">  1       21 0.10418002E-01 0.43123677E+03</pdfrwt>
<totfact> 0.77996337E+03</totfact>
</mgrwt>
</event>
<event>
 5    0  0.1723834E+000  0.8473904E+03  0.7546771E-02  0.9493846E-01
         21   -1    0    0  503  501  0.00000000000E+00  0.00000000000E+00  0.63978109084E+03  0.63978109084E+03  0.00000000000E+00 0. -1.
         21   -1    0    0  504  502 -0.00000000000E+00 -0.00000000000E+00 -0.33552959850E+03  0.33552959850E+03  0.00000000000E+00 0. -1.
         25    1    1    2    0    0  0.41503773696E+03  0.16265969050E+02  0.18888396597E+03  0.47309941604E+03  0.12500000000E+03 0.  0.
         21    1    1    2  503  502 -0.23598371182E+01 -0.40550105661E+02 -0.43341976564E+02  0.59400394214E+02  0.00000000000E+00 0. -1.
         21    1    1    2  504  501 -0.41267789985E+03  0.24284136611E+02  0.15870950294E+03  0.44281087908E+03  0.00000000000E+00 0. -1.
<mgrwt>
<rscale>  4 0.84739038E+03</rscale>
<asrwt>0</asrwt>
<pdfrwt beam="1">  1       21 0.98427860E-01 0.84739038E+03</pdfrwt>
<pdfrwt beam="2">  1       21 0.51619938E-01 0.84739038E+03</pdfrwt>
<totfact> 0.23804470E+03</totfact>
</mgrwt>
</event>
<event>
 5    0  0.1723834E+000  0.7693012E+03  0.7546771E-02  0.9605547E-01
         21   -1    0    0  503  501  0.00000000000E+00  0.00000000000E+00  0.17934815343E+04  0.17934815343E+04  0.00000000000E+00 0.  1.
         21   -1    0    0  504  502 -0.00000000000E+00 -0.00000000000E+00 -0.34344013442E+03  0.34344013442E+03  0.00000000000E+00 0.  1.
         25    1    1    2    0    0  0.20550837970E+03 -0.31422698727E+03  0.11103528278E+04  0.11787623577E+04  0.12500000000E+03 0.  0.
         21    1    1    2  503  502 -0.11137645184E+02  0.18358381904E+02 -0.26048146650E+03  0.26136501625E+03  0.00000000000E+00 0.  1.
         21    1    1    2  504  501 -0.19437073451E+03  0.29586860536E+03  0.60017003858E+03  0.69679429481E+03  0.00000000000E+00 0.  1.
<mgrwt>
<rscale>  4 0.76930116E+03</rscale>
<asrwt>0</asrwt>
<pdfrwt beam="1">  1       21 0.27592023E+00 0.76930116E+03</pdfrwt>
<pdfrwt beam="2">  1       21 0.52836945E-01 0.76930116E+03</pdfrwt>
<totfact> 0.10791193E+02</totfact>
</mgrwt>
</event>
<event>
 5    0  0.1723834E+000  0.5074745E+03  0.7546771E-02  0.1011846E+00
         21   -1    0    0  503  501  0.00000000000E+00  0.00000000000E+00  0.27012870398E+03  0.27012870398E+03  0.00000000000E+00 0.  1.
         21   -1    0    0  504  502 -0.00000000000E+00 -0.00000000000E+00 -0.36818758153E+03  0.36818758153E+03  0.00000000000E+00 0.  1.
         25    1    1    2    0    0 -0.19271519014E+03  0.13805445997E+03  0.38918224305E+02  0.27080953937E+03  0.12500000000E+03 0.  0.
         21    1    1    2  503  502  0.17134009027E+03 -0.16395549544E+03 -0.11295732130E+02  0.23741614222E+03  0.00000000000E+00 0.  1.
         21    1    1    2  504  501  0.21375099868E+02  0.25901035470E+02 -0.12568136973E+03  0.13009060393E+03  0.00000000000E+00 0.  1.
<mgrwt>
<rscale>  4 0.50747447E+03</rscale>
<asrwt>0</asrwt>
<pdfrwt beam="1">  1       21 0.41558262E-01 0.50747447E+03</pdfrwt>
<pdfrwt beam="2">  1       21 0.56644243E-01 0.50747447E+03</pdfrwt>
<totfact> 0.14474196E+04</totfact>
</mgrwt>
</event>
<event>
 5    0  0.1723834E+000  0.1236753E+04  0.7546771E-02  0.9081281E-01
         21   -1    0    0  503  501  0.00000000000E+00  0.00000000000E+00  0.13532412296E+04  0.13532412296E+04  0.00000000000E+00 0. -1.
         21   -1    0    0  504  502 -0.00000000000E+00 -0.00000000000E+00 -0.83378195641E+03  0.83378195641E+03  0.00000000000E+00 0.  1.
         25    1    1    2    0    0 -0.33328058147E+02 -0.60041484936E+03  0.65684731132E+03  0.89926755817E+03  0.12500000000E+03 0.  0.
         21    1    1    2  503  502  0.14310605899E+03  0.59148053504E+03  0.40715138382E+03  0.73218905809E+03  0.00000000000E+00 0.  1.
         21    1    1    2  504  501 -0.10977800084E+03  0.89343143182E+01 -0.54453942191E+03  0.55556656978E+03  0.00000000000E+00 0.  1.
<mgrwt>
<rscale>  4 0.12367528E+04</rscale>
<asrwt>0</asrwt>
<pdfrwt beam="1">  1       21 0.20819096E+00 0.12367528E+04</pdfrwt>
<pdfrwt beam="2">  1       21 0.12827415E+00 0.12367528E+04</pdfrwt>
<totfact> 0.31418194E+01</totfact>
</mgrwt>
</event>
<event>
 5    0  0.1723834E+000  0.7698902E+03  0.7546771E-02  0.9604652E-01
         21   -1    0    0  503  501  0.00000000000E+00  0.00000000000E+00  0.47244982986E+03  0.47244982986E+03  0.00000000000E+00 0. -1.
         21   -1    0    0  504  502 -0.00000000000E+00 -0.00000000000E+00 -0.34574810574E+03  0.34574810574E+03  0.00000000000E+00 0.  1.
         25    1    1    2    0    0  0.22618560693E+03 -0.27109158306E+03  0.17214783669E+03  0.41220195641E+03  0.12500000000E+03 0.  0.
         21    1    1    2  503  502  0.28823343306E+02  0.24209434869E+01 -0.19047515482E+02  0.34633133452E+02  0.00000000000E+00 0. -1.
         21    1    1    2  504  501 -0.25500895024E+03  0.26867063957E+03 -0.26398597089E+02  0.37136284574E+03  0.00000000000E+00 0.  1.
<mgrwt>
<rscale>  4 0.76989022E+03</rscale>
<asrwt>0</asrwt>
<pdfrwt beam="1">  1       21 0.72684589E-01 0.76989022E+03</pdfrwt>
<pdfrwt beam="2">  1       21 0.53192016E-01 0.76989022E+03</pdfrwt>
<totfact> 0.46445661E+03</totfact>
</mgrwt>
</event>
<event>
 5    0  0.1723834E+000  0.3847525E+03  0.7546771E-02  0.1049191E+00
         21   -1    0    0  503  501  0.00000000000E+00  0.00000000000E+00  0.73474908890E+03  0.73474908890E+03  0.00000000000E+00 0.  1.
         21   -1    0    0  504  502 -0.00000000000E+00 -0.00000000000E+00 -0.26318542689E+03  0.26318542689E+03  0.00000000000E+00 0. -1.
         25    1    1    2    0    0  0.19344535310E+03 -0.20846500582E+03  0.51733909669E+03  0.60344304143E+03  0.12500000000E+03 0.  0.
         21    1    1    2  503  502 -0.53750975041E+01  0.72904486339E+02  0.97572238502E+02  0.12191922542E+03  0.00000000000E+00 0. -1.
         21    1    1    2  504  501 -0.18807025559E+03  0.13556051949E+03 -0.14334767319E+03  0.27257224894E+03  0.00000000000E+00 0. -1.
<mgrwt>
<rscale>  4 0.38475248E+03</rscale>
<asrwt>0</asrwt>
<pdfrwt beam="1">  1       21 0.11303832E+00 0.38475248E+03</pdfrwt>
<pdfrwt beam="2">  1       21 0.40490066E-01 0.38475248E+03</pdfrwt>
<totfact> 0.32022804E+03</totfact>
</mgrwt>
</event>
<event>
 5    0  0.1723834E+000  0.4217211E+03  0.7546771E-02  0.1036508E+00
         21   -1    0    0  503  501  0.00000000000E+00  0.00000000000E+00  0.21931655754E+03  0.21931655754E+03  0.00000000000E+00 0. -1.
         21   -1    0    0  504  502 -0.00000000000E+00 -0.00000000000E+00 -0.82018423994E+03  0.82018423994E+03  0.00000000000E+00 0. -1.
         25    1    1    2    0    0 -0.19444567079E+03  0.19121567291E+03  0.16612059358E+02  0.30045550914E+03  0.12500000000E+03 0.  0.
         21    1    1    2  503  502  0.29499573269E+02 -0.11457096467E+03 -0.27221058466E+02  0.12139899832E+03  0.00000000000E+00 0. -1.
         21    1    1    2  504  501  0.16494609752E+03 -0.76644708240E+02 -0.59025868329E+03  0.61764629003E+03  0.00000000000E+00 0. -1.
<mgrwt>
<rscale>  4 0.42172109E+03</rscale>
<asrwt>0</asrwt>
<pdfrwt beam="1">  1       21 0.33741008E-01 0.42172109E+03</pdfrwt>
<pdfrwt beam="2">  1       21 0.12618219E+00 0.42172109E+03</pdfrwt>
<totfact> 0.34612186E+03</totfact>
</mgrwt>
</event>
<event>
 5    0  0.1723834E+000  0.4894757E+03  0.7546771E-02  0.1016563E+00
         21   -1    0    0  503  501  0.00000000000E+00  0.00000000000E+00  0.32784556349E+03  0.32784556349E+03  0.00000000000E+00 0.  1.
         21   -1    0    0  504  502 -0.00000000000E+00 -0.00000000000E+00 -0.33110621449E+03  0.33110621449E+03  0.00000000000E+00 0.  1.
         25    1    1    2    0    0  0.23316038465E+02  0.26518010272E+03  0.13823683186E+03  0.32495929932E+03  0.12500000000E+03 0.  0.
         21    1    1    2  503  502  0.53889059412E+02 -0.11672734258E+03 -0.96400445325E+02  0.16069333866E+03  0.00000000000E+00 0.  1.
         21    1    1    2  504  501 -0.77205097877E+02 -0.14845276014E+03 -0.45097037541E+02  0.17329914001E+03  0.00000000000E+00 0. -1.
<mgrwt>
<rscale>  4 0.48947569E+03</rscale>
<asrwt>0</asrwt>
<pdfrwt beam="1">  1       21 0.50437779E-01 0.48947569E+03</pdfrwt>
<pdfrwt beam="2">  1       21 0.50939417E-01 0.48947569E+03</pdfrwt>
<totfact> 0.12159284E+04</totfact>
</mgrwt>
</event>
<event>
 5    0  0.1723834E+000  0.4024342E+03  0.7546771E-02  0.1042940E+00
         21   -1    0    0  503  501  0.00000000000E+00  0.00000000000E+00  0.65121907376E+03  0.65121907376E+03  0.00000000000E+00 0. -1.
         21   -1    0    0  504  502 -0.00000000000E+00 -0.00000000000E+00 -0.16989848597E+04  0.16989848597E+04  0.00000000000E+00 0. -1.
         25    1    1    2    0    0 -0.13354167771E+03  0.21439512612E+03  0.52042404339E+03  0.59183176218E+03  0.12500000000E+03 0.  0.
         21    1    1    2  503  502  0.62056490529E+02 -0.77189492750E+02  0.64614231158E+02  0.11825491396E+03  0.00000000000E+00 0. -1.
         21    1    1    2  504  501  0.71485187176E+02 -0.13720563337E+03 -0.16328040605E+04  0.16401172573E+04  0.00000000000E+00 0. -1.
<mgrwt>
<rscale>  4 0.40243422E+03</rscale>
<asrwt>0</asrwt>
<pdfrwt beam="1">  1       21 0.10018755E+00 0.40243422E+03</pdfrwt>
<pdfrwt beam="2">  1       21 0.26138228E+00 0.40243422E+03</pdfrwt>
<totfact> 0.36888446E+01</totfact>
</mgrwt>
</event>
<event>
 5    0  0.1723834E+000  0.4805912E+03  0.7546771E-02  0.1018973E+00
         21   -1    0    0  503  501  0.00000000000E+00  0.00000000000E+00  0.43932233583E+03  0.43932233583E+03  0.00000000000E+00 0.  1.
         21   -1    0    0  504  502 -0.00000000000E+00 -0.00000000000E+00 -0.16390504461E+03  0.16390504461E+03  0.00000000000E+00 0.  1.
         25    1    1    2    0    0  0.22498230447E+03  0.62438683358E+02  0.20503143653E+03  0.33493061441E+03  0.12500000000E+03 0.  0.
         21    1    1    2  503  502 -0.18113070860E+02 -0.19399321336E+02 -0.25003961530E+02  0.36463887566E+02  0.00000000000E+00 0.  1.
         21    1    1    2  504  501 -0.20686923361E+03 -0.43039362022E+02  0.95389816212E+02  0.23183287846E+03  0.00000000000E+00 0.  1.
<mgrwt>
<rscale>  4 0.48059123E+03</rscale>
<asrwt>0</asrwt>
<pdfrwt beam="1">  1       21 0.67588051E-01 0.48059123E+03</pdfrwt>
<pdfrwt beam="2">  1       21 0.25216161E-01 0.48059123E+03</pdfrwt>
<totfact> 0.26922136E+04</totfact>
</mgrwt>
</event>
<event>
 5    0  0.1723834E+000  0.5024584E+03  0.7546771E-02  0.1013139E+00
         21   -1    0    0  503  501  0.00000000000E+00  0.00000000000E+00  0.96674529580E+02  0.96674529580E+02  0.00000000000E+00 0.  1.
         21   -1    0    0  504  502 -0.00000000000E+00 -0.00000000000E+00 -0.12732667298E+04  0.12732667298E+04  0.00000000000E+00 0.  1.
         25    1    1    2    0    0 -0.21981786899E+03 -0.10325408280E+03 -0.34515311650E+03  0.44015562585E+03  0.12500000000E+03 0.  0.
         21    1    1    2  503  502  0.19088636809E+03  0.12198636728E+03 -0.21479187296E+03  0.31217595682E+03  0.00000000000E+00 0.  1.
         21    1    1    2  504  501  0.28931500898E+02 -0.18732284486E+02 -0.61664721075E+03  0.61760967670E+03  0.00000000000E+00 0.  1.
<mgrwt>
<rscale>  4 0.50245838E+03</rscale>
<asrwt>0</asrwt>
<pdfrwt beam="1">  1       21 0.14873005E-01 0.50245838E+03</pdfrwt>
<pdfrwt beam="2">  1       21 0.19588718E+00 0.50245838E+03</pdfrwt>
<totfact> 0.48023504E+03</totfact>
</mgrwt>
</event>
<event>
 5    0  0.1723834E+000  0.9571198E+03  0.7546771E-02  0.9356867E-01
         21   -1    0    0  503  501  0.00000000000E+00  0.00000000000E+00  0.41439586232E+03  0.41439586232E+03  0.00000000000E+00 0.  1.
         21   -1    0    0  504  502 -0.00000000000E+00 -0.00000000000E+00 -0.89975197494E+03  0.89975197494E+03  0.00000000000E+00 0. -1.
         25    1    1    2    0    0  0.25368600167E+03  0.23384115167E+03 -0.38487709238E+03  0.53178345960E+03  0.12500000000E+03 0.  0.
         21    1    1    2  503  502 -0.22158482399E+03 -0.28963187090E+03  0.23953815488E+03  0.43630835714E+03  0.00000000000E+00 0.  1.
         21    1    1    2  504  501 -0.32101177687E+02  0.55790719225E+02 -0.34001717512E+03  0.34605602052E+03  0.00000000000E+00 0. -1.
<mgrwt>
<rscale>  4 0.95711982E+03</rscale>
<asrwt>0</asrwt>
<pdfrwt beam="1">  1       21 0.63753209E-01 0.95711982E+03</pdfrwt>
<pdfrwt beam="2">  1       21 0.13842338E+00 0.95711982E+03</pdfrwt>
<totfact> 0.60830341E+02</totfact>
</mgrwt>
</event>
<event>
 5    0  0.1723834E+000  0.4887235E+03  0.7546771E-02  0.1016765E+00
         21   -1    0    0  503  501  0.00000000000E+00  0.00000000000E+00  0.48894829278E+02  0.48894829278E+02  0.00000000000E+00 0.  1.
         21   -1    0    0  504  502 -0.00000000000E+00 -0.00000000000E+00 -0.13922565824E+04  0.13922565824E+04  0.00000000000E+00 0.  1.
         25    1    1    2    0    0  0.64867054489E+01  0.21994651200E+03 -0.52278187415E+03  0.58081359611E+03  0.12500000000E+03 0.  0.
         21    1    1    2  503  502 -0.22009080463E+02  0.86923762195E+01 -0.14574684266E+03  0.14765533913E+03  0.00000000000E+00 0.  1.
         21    1    1    2  504  501  0.15522375014E+02 -0.22863888821E+03 -0.67483303632E+03  0.71268247645E+03  0.00000000000E+00 0.  1.
<mgrwt>
<rscale>  4 0.48872346E+03</rscale>
<asrwt>0</asrwt>
<pdfrwt beam="1">  1       21 0.75222816E-02 0.48872346E+03</pdfrwt>
<pdfrwt beam="2">  1       21 0.21419332E+00 0.48872346E+03</pdfrwt>
<totfact> 0.12539194E+04</totfact>
</mgrwt>
</event>
<event>
 5    0  0.1723834E+000  0.6071371E+03  0.7546771E-02  0.9890709E-01
         21   -1    0    0  503  501  0.00000000000E+00  0.00000000000E+00  0.82873811957E+03  0.82873811957E+03  0.00000000000E+00 0. -1.
         21   -1    0    0  504  502 -0.00000000000E+00 -0.00000000000E+00 -0.25890890355E+03  0.25890890355E+03  0.00000000000E+00 0.  1.
         25    1    1    2    0    0  0.20868622232E+03 -0.60876183541E+02  0.50860665717E+03  0.56706400065E+03  0.12500000000E+03 0.  0.
         21    1    1    2  503  502 -0.28351083920E+03  0.11187851030E+03  0.19295335117E+03  0.36073008295E+03  0.00000000000E+00 0.  1.
         21    1    1    2  504  501  0.74824616883E+02 -0.51002326763E+02 -0.13173079233E+03  0.15985293952E+03  0.00000000000E+00 0.  1.
<mgrwt>
<rscale>  4 0.60713707E+03</rscale>
<asrwt>0</asrwt>
<pdfrwt beam="1">  1       21 0.12749817E+00 0.60713707E+03</pdfrwt>
<pdfrwt beam="2">  1       21 0.39832139E-01 0.60713707E+03</pdfrwt>
<totfact> 0.22612786E+03</totfact>
</mgrwt>
</event>
<event>
 5    0  0.1723834E+000  0.2774213E+03  0.7546771E-02  0.1097106E+00
         21   -1    0    0  503  501  0.00000000000E+00  0.00000000000E+00  0.58542106013E+02  0.58542106013E+02  0.00000000000E+00 0. -1.
         21   -1    0    0  504  502 -0.00000000000E+00 -0.00000000000E+00 -0.12280602855E+04  0.12280602855E+04  0.00000000000E+00 0. -1.
         25    1    1    2    0    0  0.19960409074E+03 -0.24702596145E+02 -0.28043463608E+03  0.36704304436E+03  0.12500000000E+03 0.  0.
         21    1    1    2  503  502 -0.15954112881E+03  0.18130004923E+02 -0.84294677849E+03  0.85810333890E+03  0.00000000000E+00 0. -1.
         21    1    1    2  504  501 -0.40062961936E+02  0.65725912221E+01 -0.46136764929E+02  0.61456008271E+02  0.00000000000E+00 0.  1.
<mgrwt>
<rscale>  4 0.27742126E+03</rscale>
<asrwt>0</asrwt>
<pdfrwt beam="1">  1       21 0.90064787E-02 0.27742126E+03</pdfrwt>
<pdfrwt beam="2">  1       21 0.18893233E+00 0.27742126E+03</pdfrwt>
<totfact> 0.14622055E+04</totfact>
</mgrwt>
</event>
<event>
 5    0  0.1723834E+000  0.5139122E+03  0.7546771E-02  0.1010210E+00
         21   -1    0    0  503  501  0.00000000000E+00  0.00000000000E+00  0.70366140693E+02  0.70366140693E+02  0.00000000000E+00 0. -1.
         21   -1    0    0  504  502 -0.00000000000E+00 -0.00000000000E+00 -0.11753525864E+04  0.11753525864E+04  0.00000000000E+00 0. -1.
         25    1    1    2    0    0 -0.95094748283E+02  0.22048851748E+03 -0.40199233704E+03  0.48464526876E+03  0.12500000000E+03 0.  0.
         21    1    1    2  503  502  0.13695191143E+03 -0.19215027940E+03 -0.51643146606E+03  0.56778430329E+03  0.00000000000E+00 0. -1.
         21    1    1    2  504  501 -0.41857163148E+02 -0.28338238079E+02 -0.18656264256E+03  0.19328915501E+03  0.00000000000E+00 0. -1.
<mgrwt>
<rscale>  4 0.51391217E+03</rscale>
<asrwt>0</asrwt>
<pdfrwt beam="1">  1       21 0.10825561E-01 0.51391217E+03</pdfrwt>
<pdfrwt beam="2">  1       21 0.18082346E+00 0.51391217E+03</pdfrwt>
<totfact> 0.10892724E+04</totfact>
</mgrwt>
</event>
<event>
 5    0  0.1723834E+000  0.3449882E+03  0.7546771E-02  0.1064691E+00
         21   -1    0    0  503  501  0.00000000000E+00  0.00000000000E+00  0.14311139969E+04  0.14311139969E+04  0.00000000000E+00 0. -1.
         21   -1    0    0  504  502 -0.00000000000E+00 -0.00000000000E+00 -0.36053185182E+02  0.36053185182E+02  0.00000000000E+00 0. -1.
         25    1    1    2    0    0  0.17592168456E+03  0.10000527521E+03  0.87672647351E+03  0.90841829766E+03  0.12500000000E+03 0.  0.
         21    1    1    2  503  502 -0.98616216149E+02 -0.29703370865E+02  0.22797323283E+03  0.25015843622E+03  0.00000000000E+00 0. -1.
         21    1    1    2  504  501 -0.77305468415E+02 -0.70301904343E+02  0.29036110538E+03  0.30859044820E+03  0.00000000000E+00 0.  1.
<mgrwt>
<rscale>  4 0.34498822E+03</rscale>
<asrwt>0</asrwt>
<pdfrwt beam="1">  1       21 0.22017134E+00 0.34498822E+03</pdfrwt>
<pdfrwt beam="2">  1       21 0.55466450E-02 0.34498822E+03</pdfrwt>
<totfact> 0.20651574E+04</totfact>
</mgrwt>
</event>
<event>
 5    0  0.1723834E+000  0.5720831E+03  0.7546771E-02  0.9965080E-01
         21   -1    0    0  503  501  0.00000000000E+00  0.00000000000E+00  0.53653021711E+03  0.53653021711E+03  0.00000000000E+00 0.  1.
         21   -1    0    0  504  502 -0.00000000000E+00 -0.00000000000E+00 -0.65061073024E+03  0.65061073024E+03  0.00000000000E+00 0.  1.
         25    1    1    2    0    0 -0.21111800075E+03  0.72520114591E+02  0.35825128854E+03  0.44022603626E+03  0.12500000000E+03 0.  0.
         21    1    1    2  503  502  0.23241770760E+03 -0.84457100166E+02  0.25396606531E+02  0.24858797275E+03  0.00000000000E+00 0.  1.
         21    1    1    2  504  501 -0.21299706846E+02  0.11936985575E+02 -0.49772840820E+03  0.49832693834E+03  0.00000000000E+00 0.  1.
<mgrwt>
<rscale>  4 0.57208306E+03</rscale>
<asrwt>0</asrwt>
<pdfrwt beam="1">  1       21 0.82543110E-01 0.57208306E+03</pdfrwt>
<pdfrwt beam="2">  1       21 0.10009396E+00 0.57208306E+03</pdfrwt>
<totfact> 0.85079162E+02</totfact>
</mgrwt>
</event>
<event>
 5    0  0.1723834E+000  0.5701630E+03  0.7546771E-02  0.9969318E-01
         21   -1    0    0  503  501  0.00000000000E+00  0.00000000000E+00  0.13203916684E+03  0.13203916684E+03  0.00000000000E+00 0.  1.
         21   -1    0    0  504  502 -0.00000000000E+00 -0.00000000000E+00 -0.98020065696E+03  0.98020065696E+03  0.00000000000E+00 0.  1.
         25    1    1    2    0    0  0.21800574238E+03 -0.17660632423E+03 -0.42276974144E+03  0.52256631326E+03  0.12500000000E+03 0.  0.
         21    1    1    2  503  502 -0.43769261274E+02  0.39205231893E+02 -0.35063421674E+03  0.35552377190E+03  0.00000000000E+00 0.  1.
         21    1    1    2  504  501 -0.17423648111E+03  0.13740109233E+03 -0.74757531945E+02  0.23414973864E+03  0.00000000000E+00 0.  1.
<mgrwt>
<rscale>  4 0.57016296E+03</rscale>
<asrwt>0</asrwt>
<pdfrwt beam="1">  1       21 0.20313718E-01 0.57016296E+03</pdfrwt>
<pdfrwt beam="2">  1       21 0.15080010E+00 0.57016296E+03</pdfrwt>
<totfact> 0.55629302E+03</totfact>
</mgrwt>
</event>
<event>
 5    0  0.1723834E+000  0.5378140E+03  0.7546771E-02  0.1004355E+00
         21   -1    0    0  503  501  0.00000000000E+00  0.00000000000E+00  0.17071762280E+03  0.17071762280E+03  0.00000000000E+00 0.  1.
         21   -1    0    0  504  502 -0.00000000000E+00 -0.00000000000E+00 -0.49846433186E+03  0.49846433186E+03  0.00000000000E+00 0.  1.
         25    1    1    2    0    0 -0.20946638317E+03  0.10499830383E+03 -0.33034875326E+03  0.42385859466E+03  0.12500000000E+03 0.  0.
         21    1    1    2  503  502  0.17343217167E+03 -0.77079231488E+02  0.29990036267E+02  0.19214403028E+03  0.00000000000E+00 0.  1.
         21    1    1    2  504  501  0.36034211499E+02 -0.27919072345E+02 -0.27387992065E+02  0.53179329710E+02  0.00000000000E+00 0. -1.
<mgrwt>
<rscale>  4 0.53781398E+03</rscale>
<asrwt>0</asrwt>
<pdfrwt beam="1">  1       21 0.26264250E-01 0.53781398E+03</pdfrwt>
<pdfrwt beam="2">  1       21 0.76686821E-01 0.53781398E+03</pdfrwt>
<totfact> 0.18423202E+04</totfact>
</mgrwt>
</event>
<event>
 5    0  0.1723834E+000  0.7342826E+03  0.7546771E-02  0.9660336E-01
         21   -1    0    0  503  501  0.00000000000E+00  0.00000000000E+00  0.11069146282E+04  0.11069146282E+04  0.00000000000E+00 0. -1.
         21   -1    0    0  504  502 -0.00000000000E+00 -0.00000000000E+00 -0.21322360918E+03  0.21322360918E+03  0.00000000000E+00 0. -1.
         25    1    1    2    0    0 -0.14989039821E+03 -0.19283773167E+03  0.22427138267E+03  0.35436728873E+03  0.12500000000E+03 0.  0.
         21    1    1    2  503  502  0.21792957235E+03  0.39479820841E+03  0.57993797765E+03  0.73463391004E+03  0.00000000000E+00 0. -1.
         21    1    1    2  504  501 -0.68039174136E+02 -0.20196047673E+03  0.89481658699E+02  0.23113703862E+03  0.00000000000E+00 0. -1.
<mgrwt>
<rscale>  4 0.73428259E+03</rscale>
<asrwt>0</asrwt>
<pdfrwt beam="1">  1       21 0.17029456E+00 0.73428259E+03</pdfrwt>
<pdfrwt beam="2">  1       21 0.32803633E-01 0.73428259E+03</pdfrwt>
<totfact> 0.14725628E+03</totfact>
</mgrwt>
</event>
<event>
 5    0  0.1723834E+000  0.4395321E+03  0.7546771E-02  0.1030890E+00
         21   -1    0    0  503  501  0.00000000000E+00  0.00000000000E+00  0.65495564124E+03  0.65495564124E+03  0.00000000000E+00 0.  1.
         21   -1    0    0  504  502 -0.00000000000E+00 -0.00000000000E+00 -0.26031120324E+03  0.26031120324E+03  0.00000000000E+00 0.  1.
         25    1    1    2    0    0 -0.19153125213E+03 -0.11716360377E+03  0.42027401386E+03  0.49261219769E+03  0.12500000000E+03 0.  0.
         21    1    1    2  503  502  0.59656915361E+02  0.69795416661E+01 -0.18117172897E+03  0.19086869028E+03  0.00000000000E+00 0.  1.
         21    1    1    2  504  501  0.13187433677E+03  0.11018406211E+03  0.15554215311E+03  0.23178595651E+03  0.00000000000E+00 0.  1.
<mgrwt>
<rscale>  4 0.43953206E+03</rscale>
<asrwt>0</asrwt>
<pdfrwt beam="1">  1       21 0.10076241E+00 0.43953206E+03</pdfrwt>
<pdfrwt beam="2">  1       21 0.40047878E-01 0.43953206E+03</pdfrwt>
<totfact> 0.42561681E+03</totfact>
</mgrwt>
</event>
<event>
 5    0  0.1723834E+000  0.7468529E+03  0.7546771E-02  0.9640301E-01
         21   -1    0    0  503  501  0.00000000000E+00  0.00000000000E+00  0.74473614418E+03  0.74473614418E+03  0.00000000000E+00 0.  1.
         21   -1    0    0  504  502 -0.00000000000E+00 -0.00000000000E+00 -0.25689259826E+03  0.25689259826E+03  0.00000000000E+00 0. -1.
         25    1    1    2    0    0 -0.17111908251E+02  0.20471275373E+03 -0.80385826715E+02  0.25354883175E+03  0.12500000000E+03 0.  0.
         21    1    1    2  503  502 -0.15315378313E+02  0.28942208132E+02 -0.64757994254E+02  0.72565901388E+02  0.00000000000E+00 0. -1.
         21    1    1    2  504  501  0.32427286564E+02 -0.23365496186E+03  0.63298736689E+03  0.67551400930E+03  0.00000000000E+00 0.  1.
<mgrwt>
<rscale>  4 0.74685293E+03</rscale>
<asrwt>0</asrwt>
<pdfrwt beam="1">  1       21 0.11457479E+00 0.74685293E+03</pdfrwt>
<pdfrwt beam="2">  1       21 0.39521938E-01 0.74685293E+03</pdfrwt>
<totfact> 0.29263413E+03</totfact>
</mgrwt>
</event>
<event>
 5    0  0.1723834E+000  0.6178019E+03  0.7546771E-02  0.9869146E-01
         21   -1    0    0  503  501  0.00000000000E+00  0.00000000000E+00  0.36156625059E+03  0.36156625059E+03  0.00000000000E+00 0. -1.
         21   -1    0    0  504  502 -0.00000000000E+00 -0.00000000000E+00 -0.56941521992E+03  0.56941521992E+03  0.00000000000E+00 0.  1.
         25    1    1    2    0    0 -0.23089239275E+03 -0.26172750407E+03  0.14301968899E+03  0.39735653368E+03  0.12500000000E+03 0.  0.
         21    1    1    2  503  502  0.10620663785E+03  0.91118861785E+02 -0.27598330422E+03  0.30943380731E+03  0.00000000000E+00 0.  1.
         21    1    1    2  504  501  0.12468575490E+03  0.17060864228E+03 -0.74885354094E+02  0.22419112952E+03  0.00000000000E+00 0.  1.
<mgrwt>
<rscale>  4 0.61780192E+03</rscale>
<asrwt>0</asrwt>
<pdfrwt beam="1">  1       21 0.55625578E-01 0.61780192E+03</pdfrwt>
<pdfrwt beam="2">  1       21 0.87602341E-01 0.61780192E+03</pdfrwt>
<totfact> 0.28176670E+03</totfact>
</mgrwt>
</event>
<event>
 5    0  0.1723834E+000  0.5864884E+03  0.7546771E-02  0.9933842E-01
         21   -1    0    0  503  501  0.00000000000E+00  0.00000000000E+00  0.14432213430E+03  0.14432213430E+03  0.00000000000E+00 0.  1.
         21   -1    0    0  504  502 -0.00000000000E+00 -0.00000000000E+00 -0.69894886896E+03  0.69894886896E+03  0.00000000000E+00 0.  1.
         25    1    1    2    0    0 -0.21983742316E+03  0.16228722984E+03 -0.32886010124E+03  0.44546560336E+03  0.12500000000E+03 0.  0.
         21    1    1    2  503  502  0.27723991546E+02  0.33119869567E+02 -0.70963751128E+02  0.83074661850E+02  0.00000000000E+00 0. -1.
         21    1    1    2  504  501  0.19211343161E+03 -0.19540709941E+03 -0.15480288229E+03  0.31473073804E+03  0.00000000000E+00 0.  1.
<mgrwt>
<rscale>  4 0.58648836E+03</rscale>
<asrwt>0</asrwt>
<pdfrwt beam="1">  1       21 0.22203405E-01 0.58648836E+03</pdfrwt>
<pdfrwt beam="2">  1       21 0.10753059E+00 0.58648836E+03</pdfrwt>
<totfact> 0.11266429E+04</totfact>
</mgrwt>
</event>
<event>
 5    0  0.1723834E+000  0.4685479E+03  0.7546771E-02  0.1022331E+00
         21   -1    0    0  503  501  0.00000000000E+00  0.00000000000E+00  0.14076986298E+03  0.14076986298E+03  0.00000000000E+00 0.  1.
         21   -1    0    0  504  502 -0.00000000000E+00 -0.00000000000E+00 -0.23074342334E+04  0.23074342334E+04  0.00000000000E+00 0.  1.
         25    1    1    2    0    0  0.24954756324E+03  0.17393441483E+03 -0.27766545721E+03  0.43040710161E+03  0.12500000000E+03 0.  0.
         21    1    1    2  503  502 -0.96195815737E+02 -0.51944179307E+02  0.90140557710E+01  0.10969542347E+03  0.00000000000E+00 0.  1.
         21    1    1    2  504  501 -0.15335174751E+03 -0.12199023553E+03 -0.18980129690E+04  0.19081015713E+04  0.00000000000E+00 0.  1.
<mgrwt>
<rscale>  4 0.46854793E+03</rscale>
<asrwt>0</asrwt>
<pdfrwt beam="1">  1       21 0.21656904E-01 0.46854793E+03</pdfrwt>
<pdfrwt beam="2">  1       21 0.35498985E+00 0.46854793E+03</pdfrwt>
<totfact> 0.24848874E+02</totfact>
</mgrwt>
</event>
<event>
 5    0  0.1723834E+000  0.4040787E+03  0.7546771E-02  0.1042376E+00
         21   -1    0    0  503  501  0.00000000000E+00  0.00000000000E+00  0.40033538527E+03  0.40033538527E+03  0.00000000000E+00 0. -1.
         21   -1    0    0  504  502 -0.00000000000E+00 -0.00000000000E+00 -0.37659261692E+03  0.37659261692E+03  0.00000000000E+00 0. -1.
         25    1    1    2    0    0 -0.75290565915E+02  0.19475917346E+03  0.70187078879E+02  0.25328053815E+03  0.12500000000E+03 0.  0.
         21    1    1    2  503  502  0.65588476608E+02 -0.87896829933E+02  0.21482614814E+03  0.24120110883E+03  0.00000000000E+00 0. -1.
         21    1    1    2  504  501  0.97020893064E+01 -0.10686234353E+03 -0.26127045867E+03  0.28244635522E+03  0.00000000000E+00 0. -1.
<mgrwt>
<rscale>  4 0.40407866E+03</rscale>
<asrwt>0</asrwt>
<pdfrwt beam="1">  1       21 0.61590059E-01 0.40407866E+03</pdfrwt>
<pdfrwt beam="2">  1       21 0.57937326E-01 0.40407866E+03</pdfrwt>
<totfact> 0.61377446E+03</totfact>
</mgrwt>
</event>
<event>
 5    0  0.1723834E+000  0.5078539E+03  0.7546771E-02  0.1011749E+00
         21   -1    0    0  503  501  0.00000000000E+00  0.00000000000E+00  0.89876328159E+03  0.89876328159E+03  0.00000000000E+00 0.  1.
         21   -1    0    0  504  502 -0.00000000000E+00 -0.00000000000E+00 -0.21528403232E+03  0.21528403232E+03  0.00000000000E+00 0.  1.
         25    1    1    2    0    0 -0.14001486783E+02 -0.22465813660E+03  0.25505261099E+03  0.36241434070E+03  0.12500000000E+03 0.  0.
         21    1    1    2  503  502 -0.22824914499E+03  0.19962059936E+03  0.58626801770E+02  0.30884163865E+03  0.00000000000E+00 0.  1.
         21    1    1    2  504  501  0.24225063178E+03  0.25037537240E+02  0.36979983651E+03  0.44279133455E+03  0.00000000000E+00 0.  1.
<mgrwt>
<rscale>  4 0.50785391E+03</rscale>
<asrwt>0</asrwt>
<pdfrwt beam="1">  1       21 0.13827127E+00 0.50785391E+03</pdfrwt>
<pdfrwt beam="2">  1       21 0.33120621E-01 0.50785391E+03</pdfrwt>
<totfact> 0.27444643E+03</totfact>
</mgrwt>
</event>
<event>
 5    0  0.1723834E+000  0.5232001E+03  0.7546771E-02  0.1007895E+00
         21   -1    0    0  503  501  0.00000000000E+00  0.00000000000E+00  0.11966840993E+03  0.11966840993E+03  0.00000000000E+00 0. -1.
         21   -1    0    0  504  502 -0.00000000000E+00 -0.00000000000E+00 -0.16412652830E+04  0.16412652830E+04  0.00000000000E+00 0. -1.
         25    1    1    2    0    0 -0.21350157685E+03 -0.10817235225E+03 -0.24328275537E+03  0.36344969413E+03  0.12500000000E+03 0.  0.
         21    1    1    2  503  502  0.23526497559E+03 -0.90940142166E+02 -0.27007078065E+03  0.36953747409E+03  0.00000000000E+00 0. -1.
         21    1    1    2  504  501 -0.21763398743E+02  0.19911249441E+03 -0.10082433371E+04  0.10279465247E+04  0.00000000000E+00 0. -1.
<mgrwt>
<rscale>  4 0.52320009E+03</rscale>
<asrwt>0</asrwt>
<pdfrwt beam="1">  1       21 0.18410524E-01 0.52320009E+03</pdfrwt>
<pdfrwt beam="2">  1       21 0.25250236E+00 0.52320009E+03</pdfrwt>
<totfact> 0.13841597E+03</totfact>
</mgrwt>
</event>
<event>
 5    0  0.1723834E+000  0.4436919E+03  0.7546771E-02  0.1029620E+00
         21   -1    0    0  503  501  0.00000000000E+00  0.00000000000E+00  0.18745421437E+03  0.18745421437E+03  0.00000000000E+00 0.  1.
         21   -1    0    0  504  502 -0.00000000000E+00 -0.00000000000E+00 -0.53017287861E+03  0.53017287861E+03  0.00000000000E+00 0.  1.
         25    1    1    2    0    0  0.18550898357E+03  0.12688847737E+03 -0.43166567269E+02  0.26077312209E+03  0.12500000000E+03 0.  0.
         21    1    1    2  503  502 -0.17567504047E+03 -0.62159536532E+02 -0.41882451331E+02  0.19099651190E+03  0.00000000000E+00 0.  1.
         21    1    1    2  504  501 -0.98339430963E+01 -0.64728940840E+02 -0.25766964564E+03  0.26585745899E+03  0.00000000000E+00 0.  1.
<mgrwt>
<rscale>  4 0.44369186E+03</rscale>
<asrwt>0</asrwt>
<pdfrwt beam="1">  1       21 0.28839110E-01 0.44369186E+03</pdfrwt>
<pdfrwt beam="2">  1       21 0.81565058E-01 0.44369186E+03</pdfrwt>
<totfact> 0.13606581E+04</totfact>
</mgrwt>
</event>
<event>
 5    0  0.1853688E+000  0.7911988E+03  0.7546771E-02  0.9572845E-01
         21   -1    0    0  503  501  0.00000000000E+00  0.00000000000E+00  0.42815783501E+03  0.42815783501E+03  0.00000000000E+00 0. -1.
         21   -1    0    0  504  502 -0.00000000000E+00 -0.00000000000E+00 -0.44342298056E+03  0.44342298056E+03  0.00000000000E+00 0.  1.
         25    1    1    2    0    0 -0.11563318945E+03 -0.18154445805E+03  0.35910619032E+03  0.43693441233E+03  0.12500000000E+03 0.  0.
         21    1    1    2  503  502  0.11058436599E+03  0.15699264354E+03 -0.30029790177E+03  0.35644694126E+03  0.00000000000E+00 0.  1.
         21    1    1    2  504  501  0.50488234594E+01  0.24551814509E+02 -0.74073434106E+02  0.78199461982E+02  0.00000000000E+00 0.  1.
<mgrwt>
<rscale>  4 0.79119881E+03</rscale>
<asrwt>0</asrwt>
<pdfrwt beam="1">  1       21 0.65870436E-01 0.79119881E+03</pdfrwt>
<pdfrwt beam="2">  1       21 0.68218920E-01 0.79119881E+03</pdfrwt>
<totfact> 0.33313660E+03</totfact>
</mgrwt>
</event>
<event>
 5    0  0.1723834E+000  0.4580058E+03  0.7546771E-02  0.1025361E+00
         21   -1    0    0  503  501  0.00000000000E+00  0.00000000000E+00  0.28812329730E+03  0.28812329730E+03  0.00000000000E+00 0. -1.
         21   -1    0    0  504  502 -0.00000000000E+00 -0.00000000000E+00 -0.55713305901E+03  0.55713305901E+03  0.00000000000E+00 0. -1.
         25    1    1    2    0    0 -0.67868969141E+02  0.20371511884E+03  0.16590156604E+03  0.29875470914E+03  0.12500000000E+03 0.  0.
         21    1    1    2  503  502  0.48850330431E+02 -0.47457570053E+02 -0.37002704262E+03  0.37624272486E+03  0.00000000000E+00 0. -1.
         21    1    1    2  504  501  0.19018638710E+02 -0.15625754879E+03 -0.64884285132E+02  0.17025892232E+03  0.00000000000E+00 0. -1.
<mgrwt>
<rscale>  4 0.45800578E+03</rscale>
<asrwt>0</asrwt>
<pdfrwt beam="1">  1       21 0.44326662E-01 0.45800578E+03</pdfrwt>
<pdfrwt beam="2">  1       21 0.85712777E-01 0.45800578E+03</pdfrwt>
<totfact> 0.50402085E+03</totfact>
</mgrwt>
</event>
<event>
 5    0  0.1723834E+000  0.4068600E+03  0.7546771E-02  0.1041430E+00
         21   -1    0    0  503  501  0.00000000000E+00  0.00000000000E+00  0.46314343814E+03  0.46314343814E+03  0.00000000000E+00 0. -1.
         21   -1    0    0  504  502 -0.00000000000E+00 -0.00000000000E+00 -0.10136857485E+04  0.10136857485E+04  0.00000000000E+00 0.  1.
         25    1    1    2    0    0 -0.12218836423E+03 -0.16296285025E+03  0.29658139384E+03  0.38088372252E+03  0.12500000000E+03 0.  0.
         21    1    1    2  503  502  0.15091168915E+03  0.82116951721E+01  0.69184642076E+02  0.16621758198E+03  0.00000000000E+00 0.  1.
         21    1    1    2  504  501 -0.28723324919E+02  0.15475115508E+03 -0.91630834626E+03  0.92972788213E+03  0.00000000000E+00 0.  1.
<mgrwt>
<rscale>  4 0.40685998E+03</rscale>
<asrwt>0</asrwt>
<pdfrwt beam="1">  1       21 0.71252836E-01 0.40685998E+03</pdfrwt>
<pdfrwt beam="2">  1       21 0.15595165E+00 0.40685998E+03</pdfrwt>
<totfact> 0.40651224E+02</totfact>
</mgrwt>
</event>
<event>
 5    0  0.1723834E+000  0.4885696E+03  0.7546771E-02  0.1016806E+00
         21   -1    0    0  503  501  0.00000000000E+00  0.00000000000E+00  0.29748861311E+03  0.29748861311E+03  0.00000000000E+00 0. -1.
         21   -1    0    0  504  502 -0.00000000000E+00 -0.00000000000E+00 -0.22908132271E+03  0.22908132271E+03  0.00000000000E+00 0. -1.
         25    1    1    2    0    0 -0.12812164771E+03  0.16791944501E+03 -0.86645106503E+02  0.26027768077E+03  0.12500000000E+03 0.  0.
         21    1    1    2  503  502  0.11759748440E+03 -0.13642761800E+03  0.14605330021E+03  0.23189055563E+03  0.00000000000E+00 0. -1.
         21    1    1    2  504  501  0.10524163315E+02 -0.31491827010E+02  0.89990967003E+01  0.34401699425E+02  0.00000000000E+00 0.  1.
<mgrwt>
<rscale>  4 0.48856959E+03</rscale>
<asrwt>0</asrwt>
<pdfrwt beam="1">  1       21 0.45767479E-01 0.48856959E+03</pdfrwt>
<pdfrwt beam="2">  1       21 0.35243280E-01 0.48856959E+03</pdfrwt>
<totfact> 0.32163892E+04</totfact>
</mgrwt>
</event>
<event>
 5    0  0.1723834E+000  0.4326621E+03  0.7546771E-02  0.1033022E+00
         21   -1    0    0  503  501  0.00000000000E+00  0.00000000000E+00  0.45219018630E+03  0.45219018630E+03  0.00000000000E+00 0. -1.
         21   -1    0    0  504  502 -0.00000000000E+00 -0.00000000000E+00 -0.33063420075E+03  0.33063420075E+03  0.00000000000E+00 0.  1.
         25    1    1    2    0    0 -0.20071801153E+03  0.15828139451E+03  0.33805513312E+03  0.44186761935E+03  0.12500000000E+03 0.  0.
         21    1    1    2  503  502  0.23843701461E+02 -0.51050000371E+02 -0.52110101823E+02  0.76746904493E+02  0.00000000000E+00 0.  1.
         21    1    1    2  504  501  0.17687431006E+03 -0.10723139414E+03 -0.16438904575E+03  0.26420986320E+03  0.00000000000E+00 0.  1.
<mgrwt>
<rscale>  4 0.43266207E+03</rscale>
<asrwt>0</asrwt>
<pdfrwt beam="1">  1       21 0.69567721E-01 0.43266207E+03</pdfrwt>
<pdfrwt beam="2">  1       21 0.50866800E-01 0.43266207E+03</pdfrwt>
<totfact> 0.61354638E+03</totfact>
</mgrwt>
</event>
<event>
 5    0  0.1723834E+000  0.4365151E+03  0.7546771E-02  0.1031821E+00
         21   -1    0    0  503  501  0.00000000000E+00  0.00000000000E+00  0.14355038470E+04  0.14355038470E+04  0.00000000000E+00 0.  1.
         21   -1    0    0  504  502 -0.00000000000E+00 -0.00000000000E+00 -0.86429056644E+02  0.86429056644E+02  0.00000000000E+00 0.  1.
         25    1    1    2    0    0  0.19924901782E+03  0.13898841715E+03  0.44837228088E+03  0.52505300063E+03  0.12500000000E+03 0.  0.
         21    1    1    2  503  502 -0.17659784656E+03 -0.98798344329E+02  0.16877873668E+03  0.26350365122E+03  0.00000000000E+00 0.  1.
         21    1    1    2  504  501 -0.22651171263E+02 -0.40190072819E+02  0.73192377281E+03  0.73337625180E+03  0.00000000000E+00 0. -1.
<mgrwt>
<rscale>  4 0.43651507E+03</rscale>
<asrwt>0</asrwt>
<pdfrwt beam="1">  1       21 0.22084673E+00 0.43651507E+03</pdfrwt>
<pdfrwt beam="2">  1       21 0.13296779E-01 0.43651507E+03</pdfrwt>
<totfact> 0.41542767E+03</totfact>
</mgrwt>
</event>
<event>
 5    0  0.1723834E+000  0.5362681E+03  0.7546771E-02  0.1004723E+00
         21   -1    0    0  503  501  0.00000000000E+00  0.00000000000E+00  0.48643039605E+03  0.48643039605E+03  0.00000000000E+00 0. -1.
         21   -1    0    0  504  502 -0.00000000000E+00 -0.00000000000E+00 -0.35577661425E+03  0.35577661425E+03  0.00000000000E+00 0. -1.
         25    1    1    2    0    0  0.16323041424E+03  0.19364255234E+03  0.17685399981E+03  0.33323256663E+03  0.12500000000E+03 0.  0.
         21    1    1    2  503  502  0.65311506656E+02 -0.83585009914E+02 -0.18984121391E+03  0.21746662567E+03  0.00000000000E+00 0. -1.
         21    1    1    2  504  501 -0.22854192090E+03 -0.11005754243E+03  0.14364099590E+03  0.29150781800E+03  0.00000000000E+00 0. -1.
<mgrwt>
<rscale>  4 0.53626813E+03</rscale>
<asrwt>0</asrwt>
<pdfrwt beam="1">  1       21 0.74835446E-01 0.53626813E+03</pdfrwt>
<pdfrwt beam="2">  1       21 0.54734863E-01 0.53626813E+03</pdfrwt>
<totfact> 0.43046903E+03</totfact>
</mgrwt>
</event>
<event>
 5    0  0.1723834E+000  0.4484472E+03  0.7546771E-02  0.1028186E+00
         21   -1    0    0  503  501  0.00000000000E+00  0.00000000000E+00  0.14262364617E+03  0.14262364617E+03  0.00000000000E+00 0.  1.
         21   -1    0    0  504  502 -0.00000000000E+00 -0.00000000000E+00 -0.53502808333E+03  0.53502808333E+03  0.00000000000E+00 0. -1.
         25    1    1    2    0    0  0.17723112788E+03 -0.11019296048E+03 -0.15847572018E+03  0.29033242175E+03  0.12500000000E+03 0.  0.
         21    1    1    2  503  502 -0.18166789050E+03  0.81153899920E+02 -0.55607600797E+02  0.20659473173E+03  0.00000000000E+00 0. -1.
         21    1    1    2  504  501  0.44367626192E+01  0.29039060563E+02 -0.17832111618E+03  0.18072457602E+03  0.00000000000E+00 0. -1.
<mgrwt>
<rscale>  4 0.44844724E+03</rscale>
<asrwt>0</asrwt>
<pdfrwt beam="1">  1       21 0.21942100E-01 0.44844724E+03</pdfrwt>
<pdfrwt beam="2">  1       21 0.82312011E-01 0.44844724E+03</pdfrwt>
<totfact> 0.22655628E+04</totfact>
</mgrwt>
</event>
<event>
 5    0  0.1723834E+000  0.5732301E+03  0.7546771E-02  0.9962556E-01
         21   -1    0    0  503  501  0.00000000000E+00  0.00000000000E+00  0.14287480895E+04  0.14287480895E+04  0.00000000000E+00 0.  1.
         21   -1    0    0  504  502 -0.00000000000E+00 -0.00000000000E+00 -0.10324819206E+03  0.10324819206E+03  0.00000000000E+00 0.  1.
         25    1    1    2    0    0  0.26787926434E+03 -0.14877883685E+03  0.67632390895E+03  0.75294984719E+03  0.12500000000E+03 0.  0.
         21    1    1    2  503  502 -0.45981790988E+02  0.66036694543E+02 -0.76495154726E+01  0.80831214364E+02  0.00000000000E+00 0.  1.
         21    1    1    2  504  501 -0.22189747335E+03  0.82742142303E+02  0.65682550398E+03  0.69821522002E+03  0.00000000000E+00 0.  1.
<mgrwt>
<rscale>  4 0.57323005E+03</rscale>
<asrwt>0</asrwt>
<pdfrwt beam="1">  1       21 0.21980738E+00 0.57323005E+03</pdfrwt>
<pdfrwt beam="2">  1       21 0.15884338E-01 0.57323005E+03</pdfrwt>
<totfact> 0.28833630E+03</totfact>
</mgrwt>
</event>
<event>
 5    0  0.1723834E+000  0.4428110E+03  0.7546771E-02  0.1029888E+00
         21   -1    0    0  503  501  0.00000000000E+00  0.00000000000E+00  0.48500646988E+03  0.48500646988E+03  0.00000000000E+00 0. -1.
         21   -1    0    0  504  502 -0.00000000000E+00 -0.00000000000E+00 -0.20229108973E+03  0.20229108973E+03  0.00000000000E+00 0. -1.
         25    1    1    2    0    0 -0.22220106083E+03  0.12520243604E+02  0.10979123797E+03  0.27786540603E+03  0.12500000000E+03 0.  0.
         21    1    1    2  503  502  0.10120857051E+03  0.10968512974E+03 -0.20464955628E+02  0.15064135170E+03  0.00000000000E+00 0. -1.
         21    1    1    2  504  501  0.12099249032E+03 -0.12220537335E+03  0.19338909781E+03  0.25879080188E+03  0.00000000000E+00 0. -1.
<mgrwt>
<rscale>  4 0.44281099E+03</rscale>
<asrwt>0</asrwt>
<pdfrwt beam="1">  1       21 0.74616379E-01 0.44281099E+03</pdfrwt>
<pdfrwt beam="2">  1       21 0.31121706E-01 0.44281099E+03</pdfrwt>
<totfact> 0.14355514E+04</totfact>
</mgrwt>
</event>
<event>
 5    0  0.1723834E+000  0.4414438E+03  0.7546771E-02  0.1030305E+00
         21   -1    0    0  503  501  0.00000000000E+00  0.00000000000E+00  0.14440214665E+03  0.14440214665E+03  0.00000000000E+00 0.  1.
         21   -1    0    0  504  502 -0.00000000000E+00 -0.00000000000E+00 -0.70896090070E+03  0.70896090070E+03  0.00000000000E+00 0.  1.
         25    1    1    2    0    0  0.20518424075E+03 -0.34981221700E+02 -0.15739244167E+03  0.28934691845E+03  0.12500000000E+03 0.  0.
         21    1    1    2  503  502 -0.16818466711E+02  0.15489928976E+02 -0.37040432348E+03  0.37110936606E+03  0.00000000000E+00 0.  1.
         21    1    1    2  504  501 -0.18836577404E+03  0.19491292724E+02 -0.36761988901E+02  0.19290676284E+03  0.00000000000E+00 0.  1.
<mgrwt>
<rscale>  4 0.44144385E+03</rscale>
<asrwt>0</asrwt>
<pdfrwt beam="1">  1       21 0.22215714E-01 0.44144385E+03</pdfrwt>
<pdfrwt beam="2">  1       21 0.10907091E+00 0.44144385E+03</pdfrwt>
<totfact> 0.11283683E+04</totfact>
</mgrwt>
</event>
<event>
 5    0  0.1723834E+000  0.4296246E+03  0.7546771E-02  0.1033979E+00
         21   -1    0    0  503  501  0.00000000000E+00  0.00000000000E+00  0.14965644923E+03  0.14965644923E+03  0.00000000000E+00 0.  1.
         21   -1    0    0  504  502 -0.00000000000E+00 -0.00000000000E+00 -0.11482031529E+04  0.11482031529E+04  0.00000000000E+00 0. -1.
         25    1    1    2    0    0 -0.27146175925E+03  0.12704420390E+03 -0.12287476667E+03  0.34721020256E+03  0.12500000000E+03 0.  0.
         21    1    1    2  503  502  0.96057376280E+02 -0.30557918423E+02 -0.75839342050E+02  0.12614440819E+03  0.00000000000E+00 0. -1.
         21    1    1    2  504  501  0.17540438297E+03 -0.96486285477E+02 -0.79983259498E+03  0.82450499140E+03  0.00000000000E+00 0. -1.
<mgrwt>
<rscale>  4 0.42962459E+03</rscale>
<asrwt>0</asrwt>
<pdfrwt beam="1">  1       21 0.23024069E-01 0.42962459E+03</pdfrwt>
<pdfrwt beam="2">  1       21 0.17664664E+00 0.42962459E+03</pdfrwt>
<totfact> 0.29360984E+03</totfact>
</mgrwt>
</event>
<event>
 5    0  0.1723834E+000  0.4325538E+03  0.7546771E-02  0.1033056E+00
         21   -1    0    0  503  501  0.00000000000E+00  0.00000000000E+00  0.58588469905E+03  0.58588469905E+03  0.00000000000E+00 0.  1.
         21   -1    0    0  504  502 -0.00000000000E+00 -0.00000000000E+00 -0.26480125217E+03  0.26480125217E+03  0.00000000000E+00 0. -1.
         25    1    1    2    0    0  0.18010417299E+03  0.94350937691E+02  0.25511781970E+03  0.34935614278E+03  0.12500000000E+03 0.  0.
         21    1    1    2  503  502 -0.62691165216E+02  0.59099655282E+02 -0.17345209510E+03  0.19367132143E+03  0.00000000000E+00 0. -1.
         21    1    1    2  504  501 -0.11741300778E+03 -0.15345059297E+03  0.23941772229E+03  0.30765848700E+03  0.00000000000E+00 0. -1.
<mgrwt>
<rscale>  4 0.43255384E+03</rscale>
<asrwt>0</asrwt>
<pdfrwt beam="1">  1       21 0.90136107E-01 0.43255384E+03</pdfrwt>
<pdfrwt beam="2">  1       21 0.40738654E-01 0.43255384E+03</pdfrwt>
<totfact> 0.53801403E+03</totfact>
</mgrwt>
</event>
<event>
 5    0  0.1723834E+000  0.4811449E+03  0.7546771E-02  0.1018821E+00
         21   -1    0    0  503  501  0.00000000000E+00  0.00000000000E+00  0.85583229466E+03  0.85583229466E+03  0.00000000000E+00 0. -1.
         21   -1    0    0  504  502 -0.00000000000E+00 -0.00000000000E+00 -0.22712232793E+03  0.22712232793E+03  0.00000000000E+00 0. -1.
         25    1    1    2    0    0 -0.19373541796E+03  0.76030385776E+02  0.37087514053E+03  0.44326899463E+03  0.12500000000E+03 0.  0.
         21    1    1    2  503  502  0.16010265016E+03 -0.17611721623E+03  0.39827865508E+03  0.46397846883E+03  0.00000000000E+00 0. -1.
         21    1    1    2  504  501  0.33632767798E+02  0.10008683046E+03 -0.14044382889E+03  0.17570715914E+03  0.00000000000E+00 0. -1.
<mgrwt>
<rscale>  4 0.48114488E+03</rscale>
<asrwt>0</asrwt>
<pdfrwt beam="1">  1       21 0.13166651E+00 0.48114488E+03</pdfrwt>
<pdfrwt beam="2">  1       21 0.34941897E-01 0.48114488E+03</pdfrwt>
<totfact> 0.28267709E+03</totfact>
</mgrwt>
</event>
<event>
 5    0  0.2141100E+000  0.8285169E+03  0.7546771E-02  0.9519633E-01
         21   -1    0    0  503  501  0.00000000000E+00  0.00000000000E+00  0.99588183478E+03  0.99588183478E+03  0.00000000000E+00 0.  1.
         21   -1    0    0  504  502 -0.00000000000E+00 -0.00000000000E+00 -0.48135625104E+03  0.48135625104E+03  0.00000000000E+00 0. -1.
         25    1    1    2    0    0 -0.60172650257E+02  0.21695268905E+03 -0.63542475007E+02  0.26523925663E+03  0.12500000000E+03 0.  0.
         21    1    1    2  503  502 -0.68941298232E+01 -0.57340158660E+02 -0.30586534304E+03  0.31127002891E+03  0.00000000000E+00 0. -1.
         21    1    1    2  504  501  0.67066780080E+02 -0.15961253039E+03  0.88393340180E+03  0.90072880028E+03  0.00000000000E+00 0.  1.
<mgrwt>
<rscale>  4 0.82851689E+03</rscale>
<asrwt>0</asrwt>
<pdfrwt beam="1">  1       21 0.15321259E+00 0.82851689E+03</pdfrwt>
<pdfrwt beam="2">  1       21 0.74054808E-01 0.82851689E+03</pdfrwt>
<totfact> 0.33647245E+02</totfact>
</mgrwt>
</event>
<event>
 5    0  0.1723834E+000  0.5897130E+03  0.7546771E-02  0.9926981E-01
         21   -1    0    0  503  501  0.00000000000E+00  0.00000000000E+00  0.17114320215E+04  0.17114320215E+04  0.00000000000E+00 0. -1.
         21   -1    0    0  504  502 -0.00000000000E+00 -0.00000000000E+00 -0.13410705203E+03  0.13410705203E+03  0.00000000000E+00 0. -1.
         25    1    1    2    0    0 -0.17550982518E+03  0.15329412132E+03  0.53993897766E+03  0.60121700405E+03  0.12500000000E+03 0.  0.
         21    1    1    2  503  502 -0.99039085708E+02 -0.18117064583E+02 -0.51613630039E+02  0.11314121854E+03  0.00000000000E+00 0. -1.
         21    1    1    2  504  501  0.27454891088E+03 -0.13517705674E+03  0.10889996219E+04  0.11311808510E+04  0.00000000000E+00 0. -1.
<mgrwt>
<rscale>  4 0.58971295E+03</rscale>
<asrwt>0</asrwt>
<pdfrwt beam="1">  1       21 0.26329722E+00 0.58971295E+03</pdfrwt>
<pdfrwt beam="2">  1       21 0.20631855E-01 0.58971295E+03</pdfrwt>
<totfact> 0.93085408E+02</totfact>
</mgrwt>
</event>
<event>
 5    0  0.1723834E+000  0.3751967E+03  0.7546771E-02  0.1052723E+00
         21   -1    0    0  503  501  0.00000000000E+00  0.00000000000E+00  0.45087158446E+03  0.45087158446E+03  0.00000000000E+00 0. -1.
         21   -1    0    0  504  502 -0.00000000000E+00 -0.00000000000E+00 -0.12337340179E+03  0.12337340179E+03  0.00000000000E+00 0.  1.
         25    1    1    2    0    0 -0.42846896837E+02  0.19722495302E+03  0.13325532897E+03  0.27224165985E+03  0.12500000000E+03 0.  0.
         21    1    1    2  503  502 -0.19507269545E+00 -0.84584814433E+02  0.14893517987E+02  0.85886237338E+02  0.00000000000E+00 0.  1.
         21    1    1    2  504  501  0.43041969533E+02 -0.11264013858E+03  0.17934933571E+03  0.21611708906E+03  0.00000000000E+00 0. -1.
<mgrwt>
<rscale>  4 0.37519674E+03</rscale>
<asrwt>0</asrwt>
<pdfrwt beam="1">  1       21 0.69364859E-01 0.37519674E+03</pdfrwt>
<pdfrwt beam="2">  1       21 0.18980523E-01 0.37519674E+03</pdfrwt>
<totfact> 0.44971106E+04</totfact>
</mgrwt>
</event>
<event>
 5    0  0.1723834E+000  0.6012920E+03  0.7546771E-02  0.9902729E-01
         21   -1    0    0  503  501  0.00000000000E+00  0.00000000000E+00  0.87352248739E+03  0.87352248739E+03  0.00000000000E+00 0.  1.
         21   -1    0    0  504  502 -0.00000000000E+00 -0.00000000000E+00 -0.96446832076E+03  0.96446832076E+03  0.00000000000E+00 0.  1.
         25    1    1    2    0    0 -0.21575723584E+03  0.12930143225E+03  0.72345206314E+03  0.77606567561E+03  0.12500000000E+03 0.  0.
         21    1    1    2  503  502  0.71543485050E+02  0.12065338691E+01 -0.85932962464E+03  0.86230350211E+03  0.00000000000E+00 0.  1.
         21    1    1    2  504  501  0.14421375079E+03 -0.13050796612E+03  0.44931728133E+02  0.19962163042E+03  0.00000000000E+00 0.  1.
<mgrwt>
<rscale>  4 0.60129200E+03</rscale>
<asrwt>0</asrwt>
<pdfrwt beam="1">  1       21 0.13438808E+00 0.60129200E+03</pdfrwt>
<pdfrwt beam="2">  1       21 0.14837974E+00 0.60129200E+03</pdfrwt>
<totfact> 0.91134938E+01</totfact>
</mgrwt>
</event>
<event>
 5    0  0.1723834E+000  0.6689894E+03  0.7546771E-02  0.9771785E-01
         21   -1    0    0  503  501  0.00000000000E+00  0.00000000000E+00  0.12850830369E+03  0.12850830369E+03  0.00000000000E+00 0. -1.
         21   -1    0    0  504  502 -0.00000000000E+00 -0.00000000000E+00 -0.10263334094E+04  0.10263334094E+04  0.00000000000E+00 0. -1.
         25    1    1    2    0    0  0.17278191767E+03  0.16440268887E+03 -0.73369836669E+03  0.78154982469E+03  0.12500000000E+03 0.  0.
         21    1    1    2  503  502 -0.15213937051E+03 -0.16084136239E+03 -0.14137820963E+02  0.22184726704E+03  0.00000000000E+00 0. -1.
         21    1    1    2  504  501 -0.20642547155E+02 -0.35613264893E+01 -0.14998891802E+03  0.15144462132E+03  0.00000000000E+00 0. -1.
<mgrwt>
<rscale>  4 0.66898936E+03</rscale>
<asrwt>0</asrwt>
<pdfrwt beam="1">  1       21 0.19770509E-01 0.66898936E+03</pdfrwt>
<pdfrwt beam="2">  1       21 0.15789744E+00 0.66898936E+03</pdfrwt>
<totfact> 0.50311612E+03</totfact>
</mgrwt>
</event>
<event>
 5    0  0.1723834E+000  0.4289297E+03  0.7546771E-02  0.1034199E+00
         21   -1    0    0  503  501  0.00000000000E+00  0.00000000000E+00  0.16093397021E+04  0.16093397021E+04  0.00000000000E+00 0. -1.
         21   -1    0    0  504  502 -0.00000000000E+00 -0.00000000000E+00 -0.63107973415E+02  0.63107973415E+02  0.00000000000E+00 0. -1.
         25    1    1    2    0    0 -0.16262157091E+03  0.12481748550E+03  0.11539637420E+04  0.11786782843E+04  0.12500000000E+03 0.  0.
         21    1    1    2  503  502  0.73296009224E+02  0.48793545791E+02  0.54269419226E+02  0.10343251395E+03  0.00000000000E+00 0.  1.
         21    1    1    2  504  501  0.89325561682E+02 -0.17361103129E+03  0.33799856746E+03  0.39033687728E+03  0.00000000000E+00 0. -1.
<mgrwt>
<rscale>  4 0.42892975E+03</rscale>
<asrwt>0</asrwt>
<pdfrwt beam="1">  1       21 0.24759069E+00 0.42892975E+03</pdfrwt>
<pdfrwt beam="2">  1       21 0.97089202E-02 0.42892975E+03</pdfrwt>
<totfact> 0.50185044E+03</totfact>
</mgrwt>
</event>
<event>
 5    0  0.1723834E+000  0.5099700E+03  0.7546771E-02  0.1011209E+00
         21   -1    0    0  503  501  0.00000000000E+00  0.00000000000E+00  0.29361782594E+03  0.29361782594E+03  0.00000000000E+00 0. -1.
         21   -1    0    0  504  502 -0.00000000000E+00 -0.00000000000E+00 -0.56929251170E+03  0.56929251170E+03  0.00000000000E+00 0. -1.
         25    1    1    2    0    0 -0.54304400201E+02 -0.21579738907E+03  0.14981227315E+03  0.29594965484E+03  0.12500000000E+03 0.  0.
         21    1    1    2  503  502  0.73577897249E+02  0.19049471644E+03 -0.78908555737E+02  0.21892579593E+03  0.00000000000E+00 0. -1.
         21    1    1    2  504  501 -0.19273497049E+02  0.25302672631E+02 -0.34657840318E+03  0.34803488687E+03  0.00000000000E+00 0. -1.
<mgrwt>
<rscale>  4 0.50996999E+03</rscale>
<asrwt>0</asrwt>
<pdfrwt beam="1">  1       21 0.45171974E-01 0.50996999E+03</pdfrwt>
<pdfrwt beam="2">  1       21 0.87583463E-01 0.50996999E+03</pdfrwt>
<totfact> 0.45312811E+03</totfact>
</mgrwt>
</event>
<event>
 5    0  0.1723834E+000  0.4442210E+03  0.7546771E-02  0.1029460E+00
         21   -1    0    0  503  501  0.00000000000E+00  0.00000000000E+00  0.13990522961E+04  0.13990522961E+04  0.00000000000E+00 0.  1.
         21   -1    0    0  504  502 -0.00000000000E+00 -0.00000000000E+00 -0.40886781798E+03  0.40886781798E+03  0.00000000000E+00 0.  1.
         25    1    1    2    0    0 -0.19314102847E+03  0.52308459674E+02  0.41261436075E+03  0.47530542026E+03  0.12500000000E+03 0.  0.
         21    1    1    2  503  502  0.33393256764E+03 -0.89834000155E+02 -0.29097192448E+03  0.45193557965E+03  0.00000000000E+00 0.  1.
         21    1    1    2  504  501 -0.14079153917E+03  0.37525540481E+02  0.86854204181E+03  0.88067911414E+03  0.00000000000E+00 0.  1.
<mgrwt>
<rscale>  4 0.44422104E+03</rscale>
<asrwt>0</asrwt>
<pdfrwt beam="1">  1       21 0.21523881E+00 0.44422104E+03</pdfrwt>
<pdfrwt beam="2">  1       21 0.62902742E-01 0.44422104E+03</pdfrwt>
<totfact> 0.20345925E+02</totfact>
</mgrwt>
</event>
<event>
 5    0  0.1723834E+000  0.4797497E+03  0.7546771E-02  0.1019204E+00
         21   -1    0    0  503  501  0.00000000000E+00  0.00000000000E+00  0.10453444988E+03  0.10453444988E+03  0.00000000000E+00 0.  1.
         21   -1    0    0  504  502 -0.00000000000E+00 -0.00000000000E+00 -0.22244087861E+04  0.22244087861E+04  0.00000000000E+00 0. -1.
         25    1    1    2    0    0 -0.20685729696E+03  0.10137585532E+03 -0.31066466627E+03  0.40645361385E+03  0.12500000000E+03 0.  0.
         21    1    1    2  503  502  0.19181371432E+03 -0.81965048192E+02 -0.13580582574E+03  0.24890558939E+03  0.00000000000E+00 0.  1.
         21    1    1    2  504  501  0.15043582643E+02 -0.19410807125E+02 -0.16734038442E+04  0.16735840327E+04  0.00000000000E+00 0. -1.
<mgrwt>
<rscale>  4 0.47974971E+03</rscale>
<asrwt>0</asrwt>
<pdfrwt beam="1">  1       21 0.16082225E-01 0.47974971E+03</pdfrwt>
<pdfrwt beam="2">  1       21 0.34221669E+00 0.47974971E+03</pdfrwt>
<totfact> 0.51948472E+02</totfact>
</mgrwt>
</event>
<event>
 5    0  0.1723834E+000  0.4174814E+03  0.7546771E-02  0.1037889E+00
         21   -1    0    0  503  501  0.00000000000E+00  0.00000000000E+00  0.11665723364E+03  0.11665723364E+03  0.00000000000E+00 0. -1.
         21   -1    0    0  504  502 -0.00000000000E+00 -0.00000000000E+00 -0.24245118846E+04  0.24245118846E+04  0.00000000000E+00 0.  1.
         25    1    1    2    0    0 -0.22428093555E+03  0.13662905411E+03 -0.89202773584E+02  0.30422289739E+03  0.12500000000E+03 0.  0.
         21    1    1    2  503  502  0.17501465590E+03 -0.11367881568E+03 -0.20276731031E+04  0.20383844622E+04  0.00000000000E+00 0.  1.
         21    1    1    2  504  501  0.49266279649E+02 -0.22950238431E+02 -0.19097877430E+03  0.19856175863E+03  0.00000000000E+00 0.  1.
<mgrwt>
<rscale>  4 0.41748139E+03</rscale>
<asrwt>0</asrwt>
<pdfrwt beam="1">  1       21 0.17947266E-01 0.41748139E+03</pdfrwt>
<pdfrwt beam="2">  1       21 0.37300184E+00 0.41748139E+03</pdfrwt>
<totfact> 0.28386981E+02</totfact>
</mgrwt>
</event>
<event>
 5    0  0.1723834E+000  0.7967430E+03  0.7546771E-02  0.9564743E-01
         21   -1    0    0  503  501  0.00000000000E+00  0.00000000000E+00  0.10988358701E+04  0.10988358701E+04  0.00000000000E+00 0.  1.
         21   -1    0    0  504  502 -0.00000000000E+00 -0.00000000000E+00 -0.23549544173E+03  0.23549544173E+03  0.00000000000E+00 0. -1.
         25    1    1    2    0    0 -0.32645379814E+03 -0.44761096626E+02  0.86054093194E+03  0.92990931474E+03  0.12500000000E+03 0.  0.
         21    1    1    2  503  502  0.35369894021E+02 -0.13028136502E+02 -0.86630126274E+02  0.94475078840E+02  0.00000000000E+00 0. -1.
         21    1    1    2  504  501  0.29108390412E+03  0.57789233128E+02  0.89429622659E+02  0.30994691822E+03  0.00000000000E+00 0. -1.
<mgrwt>
<rscale>  4 0.79674301E+03</rscale>
<asrwt>0</asrwt>
<pdfrwt beam="1">  1       21 0.16905167E+00 0.79674301E+03</pdfrwt>
<pdfrwt beam="2">  1       21 0.36230069E-01 0.79674301E+03</pdfrwt>
<totfact> 0.12098933E+03</totfact>
</mgrwt>
</event>
<event>
 5    0  0.1723834E+000  0.4377429E+03  0.7546771E-02  0.1031442E+00
         21   -1    0    0  503  501  0.00000000000E+00  0.00000000000E+00  0.20648870320E+03  0.20648870320E+03  0.00000000000E+00 0. -1.
         21   -1    0    0  504  502 -0.00000000000E+00 -0.00000000000E+00 -0.52405968789E+03  0.52405968789E+03  0.00000000000E+00 0. -1.
         25    1    1    2    0    0 -0.16989765587E+03 -0.14087528239E+03  0.22763601196E+01  0.25365575190E+03  0.12500000000E+03 0.  0.
         21    1    1    2  503  502 -0.95080721861E+01  0.18519200438E+02 -0.24695042260E+03  0.24782630095E+03  0.00000000000E+00 0.  1.
         21    1    1    2  504  501  0.17940572806E+03  0.12235608195E+03 -0.72896922214E+02  0.22906633825E+03  0.00000000000E+00 0. -1.
<mgrwt>
<rscale>  4 0.43774291E+03</rscale>
<asrwt>0</asrwt>
<pdfrwt beam="1">  1       21 0.31767493E-01 0.43774291E+03</pdfrwt>
<pdfrwt beam="2">  1       21 0.80624567E-01 0.43774291E+03</pdfrwt>
<totfact> 0.11552026E+04</totfact>
</mgrwt>
</event>
<event>
 5    0  0.1723834E+000  0.5370108E+03  0.7546771E-02  0.1004546E+00
         21   -1    0    0  503  501  0.00000000000E+00  0.00000000000E+00  0.24758333737E+03  0.24758333737E+03  0.00000000000E+00 0.  1.
         21   -1    0    0  504  502 -0.00000000000E+00 -0.00000000000E+00 -0.45688208772E+03  0.45688208772E+03  0.00000000000E+00 0.  1.
         25    1    1    2    0    0  0.33629555983E+02 -0.28474006417E+03 -0.12384081366E+03  0.33640659671E+03  0.12500000000E+03 0.  0.
         21    1    1    2  503  502  0.93490674778E+00  0.20006891783E+03  0.48494103021E+02  0.20586433387E+03  0.00000000000E+00 0.  1.
         21    1    1    2  504  501 -0.34564462731E+02  0.84671146347E+02 -0.13395203971E+03  0.16219449451E+03  0.00000000000E+00 0.  1.
<mgrwt>
<rscale>  4 0.53701083E+03</rscale>
<asrwt>0</asrwt>
<pdfrwt beam="1">  1       21 0.38089745E-01 0.53701083E+03</pdfrwt>
<pdfrwt beam="2">  1       21 0.70289550E-01 0.53701083E+03</pdfrwt>
<totfact> 0.10658704E+04</totfact>
</mgrwt>
</event>
<event>
 5    0  0.1723834E+000  0.5469521E+03  0.7546771E-02  0.1002202E+00
         21   -1    0    0  503  501  0.00000000000E+00  0.00000000000E+00  0.44749977632E+03  0.44749977632E+03  0.00000000000E+00 0.  1.
         21   -1    0    0  504  502 -0.00000000000E+00 -0.00000000000E+00 -0.39754920019E+03  0.39754920019E+03  0.00000000000E+00 0.  1.
         25    1    1    2    0    0 -0.17652478660E+03 -0.17412448526E+03  0.14688315429E+03  0.31413372577E+03  0.12500000000E+03 0.  0.
         21    1    1    2  503  502  0.21487837286E+03  0.16212309411E+03  0.13107380883E+03  0.29939431546E+03  0.00000000000E+00 0.  1.
         21    1    1    2  504  501 -0.38353586261E+02  0.12001391148E+02 -0.22800638699E+03  0.23152093528E+03  0.00000000000E+00 0.  1.
<mgrwt>
<rscale>  4 0.54695209E+03</rscale>
<asrwt>0</asrwt>
<pdfrwt beam="1">  1       21 0.68846119E-01 0.54695209E+03</pdfrwt>
<pdfrwt beam="2">  1       21 0.61161416E-01 0.54695209E+03</pdfrwt>
<totfact> 0.40695227E+03</totfact>
</mgrwt>
</event>
<event>
 5    0  0.1723834E+000  0.4234589E+03  0.7546771E-02  0.1035946E+00
         21   -1    0    0  503  501  0.00000000000E+00  0.00000000000E+00  0.36067299895E+03  0.36067299895E+03  0.00000000000E+00 0.  1.
         21   -1    0    0  504  502 -0.00000000000E+00 -0.00000000000E+00 -0.38292656495E+03  0.38292656495E+03  0.00000000000E+00 0.  1.
         25    1    1    2    0    0  0.16437226653E+03  0.13105957469E+03  0.21885226313E+03  0.32820141255E+03  0.12500000000E+03 0.  0.
         21    1    1    2  503  502 -0.13754323474E+03 -0.67831579464E+02  0.11336895184E+02  0.15377837880E+03  0.00000000000E+00 0.  1.
         21    1    1    2  504  501 -0.26829031796E+02 -0.63227995231E+02 -0.25244272432E+03  0.26161977255E+03  0.00000000000E+00 0.  1.
<mgrwt>
<rscale>  4 0.42345894E+03</rscale>
<asrwt>0</asrwt>
<pdfrwt beam="1">  1       21 0.55488154E-01 0.42345894E+03</pdfrwt>
<pdfrwt beam="2">  1       21 0.58911779E-01 0.42345894E+03</pdfrwt>
<totfact> 0.73796273E+03</totfact>
</mgrwt>
</event>
<event>
 5    0  0.1723834E+000  0.5445426E+03  0.7546771E-02  0.1002765E+00
         21   -1    0    0  503  501  0.00000000000E+00  0.00000000000E+00  0.54146361696E+03  0.54146361696E+03  0.00000000000E+00 0. -1.
         21   -1    0    0  504  502 -0.00000000000E+00 -0.00000000000E+00 -0.27748764302E+03  0.27748764302E+03  0.00000000000E+00 0. -1.
         25    1    1    2    0    0  0.23571394536E+03  0.10001203207E+03  0.30669472392E+03  0.41862886221E+03  0.12500000000E+03 0.  0.
         21    1    1    2  503  502 -0.21221577121E+02  0.83884231092E+01 -0.13941535911E+03  0.14127053244E+03  0.00000000000E+00 0. -1.
         21    1    1    2  504  501 -0.21449236824E+03 -0.10840045518E+03  0.96696609131E+02  0.25905186533E+03  0.00000000000E+00 0. -1.
<mgrwt>
<rscale>  4 0.54454256E+03</rscale>
<asrwt>0</asrwt>
<pdfrwt beam="1">  1       21 0.83302095E-01 0.54454256E+03</pdfrwt>
<pdfrwt beam="2">  1       21 0.42690407E-01 0.54454256E+03</pdfrwt>
<totfact> 0.56839338E+03</totfact>
</mgrwt>
</event>
<event>
 5    0  0.1723834E+000  0.6653072E+03  0.7546771E-02  0.9778473E-01
         21   -1    0    0  503  501  0.00000000000E+00  0.00000000000E+00  0.62798758715E+03  0.62798758715E+03  0.00000000000E+00 0.  1.
         21   -1    0    0  504  502 -0.00000000000E+00 -0.00000000000E+00 -0.15002469298E+04  0.15002469298E+04  0.00000000000E+00 0. -1.
         25    1    1    2    0    0 -0.37603999608E+03  0.11791886896E+03  0.14662413236E+03  0.43867365376E+03  0.12500000000E+03 0.  0.
         21    1    1    2  503  502  0.25172235245E+03 -0.29662152172E+03 -0.12868173959E+04  0.13443390496E+04  0.00000000000E+00 0. -1.
         21    1    1    2  504  501  0.12431764363E+03  0.17870265276E+03  0.26793392089E+03  0.34522181360E+03  0.00000000000E+00 0. -1.
<mgrwt>
<rscale>  4 0.66530724E+03</rscale>
<asrwt>0</asrwt>
<pdfrwt beam="1">  1       21 0.96613475E-01 0.66530724E+03</pdfrwt>
<pdfrwt beam="2">  1       21 0.23080722E+00 0.66530724E+03</pdfrwt>
<totfact> 0.53988717E+01</totfact>
</mgrwt>
</event>
<event>
 5    0  0.1723834E+000  0.4949870E+03  0.7546771E-02  0.1015096E+00
         21   -1    0    0  503  501  0.00000000000E+00  0.00000000000E+00  0.10648282577E+04  0.10648282577E+04  0.00000000000E+00 0.  1.
         21   -1    0    0  504  502 -0.00000000000E+00 -0.00000000000E+00 -0.69950979245E+02  0.69950979245E+02  0.00000000000E+00 0.  1.
         25    1    1    2    0    0  0.10989511465E+03  0.21369481870E+03  0.56434610980E+03  0.62598238267E+03  0.12500000000E+03 0.  0.
         21    1    1    2  503  502 -0.37552969118E+02 -0.24645116229E+01  0.22985693762E+02  0.44098088676E+02  0.00000000000E+00 0. -1.
         21    1    1    2  504  501 -0.72342145532E+02 -0.21123030707E+03  0.40754547488E+03  0.46469876559E+03  0.00000000000E+00 0.  1.
<mgrwt>
<rscale>  4 0.49498698E+03</rscale>
<asrwt>0</asrwt>
<pdfrwt beam="1">  1       21 0.16381972E+00 0.49498698E+03</pdfrwt>
<pdfrwt beam="2">  1       21 0.10761690E-01 0.49498698E+03</pdfrwt>
<totfact> 0.14708304E+04</totfact>
</mgrwt>
</event>
<event>
 5    0  0.1723834E+000  0.3443902E+03  0.7546771E-02  0.1064941E+00
         21   -1    0    0  503  501  0.00000000000E+00  0.00000000000E+00  0.13061568337E+03  0.13061568337E+03  0.00000000000E+00 0.  1.
         21   -1    0    0  504  502 -0.00000000000E+00 -0.00000000000E+00 -0.11344351368E+04  0.11344351368E+04  0.00000000000E+00 0. -1.
         25    1    1    2    0    0  0.20438439625E+03 -0.17651473626E+02 -0.55484204574E+02  0.24655233300E+03  0.12500000000E+03 0.  0.
         21    1    1    2  503  502 -0.10171514554E+03 -0.89338295844E+01 -0.49580126678E+02  0.11350759051E+03  0.00000000000E+00 0. -1.
         21    1    1    2  504  501 -0.10266925071E+03  0.26585303210E+02 -0.89875512216E+03  0.90499089664E+03  0.00000000000E+00 0. -1.
<mgrwt>
<rscale>  4 0.34439024E+03</rscale>
<asrwt>0</asrwt>
<pdfrwt beam="1">  1       21 0.20094721E-01 0.34439024E+03</pdfrwt>
<pdfrwt beam="2">  1       21 0.17452848E+00 0.34439024E+03</pdfrwt>
<totfact> 0.40983392E+03</totfact>
</mgrwt>
</event>
<event>
 5    0  0.1723834E+000  0.4965016E+03  0.7546771E-02  0.1014696E+00
         21   -1    0    0  503  501  0.00000000000E+00  0.00000000000E+00  0.17468607718E+03  0.17468607718E+03  0.00000000000E+00 0. -1.
         21   -1    0    0  504  502 -0.00000000000E+00 -0.00000000000E+00 -0.13531710532E+04  0.13531710532E+04  0.00000000000E+00 0. -1.
         25    1    1    2    0    0 -0.16898307485E+03 -0.17980558033E+03 -0.13475297900E+03  0.30768277763E+03  0.12500000000E+03 0.  0.
         21    1    1    2  503  502  0.13183343397E+03  0.17064399413E+03 -0.44463578777E+02  0.22017365165E+03  0.00000000000E+00 0. -1.
         21    1    1    2  504  501  0.37149640876E+02  0.91615862051E+01 -0.99926841827E+03  0.10000007011E+04  0.00000000000E+00 0. -1.
<mgrwt>
<rscale>  4 0.49650160E+03</rscale>
<asrwt>0</asrwt>
<pdfrwt beam="1">  1       21 0.26874781E-01 0.49650160E+03</pdfrwt>
<pdfrwt beam="2">  1       21 0.20818016E+00 0.49650160E+03</pdfrwt>
<totfact> 0.12884504E+03</totfact>
</mgrwt>
</event>
<event>
 5    0  0.1723834E+000  0.1227225E+04  0.7546771E-02  0.9089355E-01
         21   -1    0    0  503  501  0.00000000000E+00  0.00000000000E+00  0.23598938230E+03  0.23598938230E+03  0.00000000000E+00 0. -1.
         21   -1    0    0  504  502 -0.00000000000E+00 -0.00000000000E+00 -0.22994577735E+04  0.22994577735E+04  0.00000000000E+00 0. -1.
         25    1    1    2    0    0  0.43613696162E+03  0.41722990566E+03 -0.67253688260E+03  0.91226482006E+03  0.12500000000E+03 0.  0.
         21    1    1    2  503  502  0.52363292602E+02 -0.50874525216E+02 -0.68888398765E+03  0.69274185680E+03  0.00000000000E+00 0. -1.
         21    1    1    2  504  501 -0.48850025422E+03 -0.36635538044E+03 -0.70204752096E+03  0.93044047894E+03  0.00000000000E+00 0. -1.
<mgrwt>
<rscale>  4 0.12272247E+04</rscale>
<asrwt>0</asrwt>
<pdfrwt beam="1">  1       21 0.36306058E-01 0.12272247E+04</pdfrwt>
<pdfrwt beam="2">  1       21 0.35376274E+00 0.12272247E+04</pdfrwt>
<totfact> 0.68877988E+01</totfact>
</mgrwt>
</event>
<event>
 5    0  0.1723834E+000  0.9263422E+03  0.7546771E-02  0.9393239E-01
         21   -1    0    0  503  501  0.00000000000E+00  0.00000000000E+00  0.27512342166E+03  0.27512342166E+03  0.00000000000E+00 0. -1.
         21   -1    0    0  504  502 -0.00000000000E+00 -0.00000000000E+00 -0.10291359701E+04  0.10291359701E+04  0.00000000000E+00 0. -1.
         25    1    1    2    0    0 -0.16062791592E+03  0.29958987465E+03 -0.60420415780E+03  0.70444523184E+03  0.12500000000E+03 0.  0.
         21    1    1    2  503  502  0.17964419318E+03 -0.28591216367E+03  0.97452092985E+02  0.35144659894E+03  0.00000000000E+00 0. -1.
         21    1    1    2  504  501 -0.19016277266E+02 -0.13677710979E+02 -0.24726048360E+03  0.24836756094E+03  0.00000000000E+00 0. -1.
<mgrwt>
<rscale>  4 0.92634222E+03</rscale>
<asrwt>0</asrwt>
<pdfrwt beam="1">  1       21 0.42326680E-01 0.92634222E+03</pdfrwt>
<pdfrwt beam="2">  1       21 0.15832861E+00 0.92634222E+03</pdfrwt>
<totfact> 0.10277606E+03</totfact>
</mgrwt>
</event>
<event>
 5    0  0.1723834E+000  0.6787637E+03  0.7546771E-02  0.9754255E-01
         21   -1    0    0  503  501  0.00000000000E+00  0.00000000000E+00  0.21269186480E+03  0.21269186480E+03  0.00000000000E+00 0.  1.
         21   -1    0    0  504  502 -0.00000000000E+00 -0.00000000000E+00 -0.17255372568E+04  0.17255372568E+04  0.00000000000E+00 0.  1.
         25    1    1    2    0    0  0.11557430363E+03  0.31585490716E+03 -0.32725815714E+03  0.48563838754E+03  0.12500000000E+03 0.  0.
         21    1    1    2  503  502 -0.26818454847E+02 -0.27042299527E+03 -0.91165878513E+01  0.27190244219E+03  0.00000000000E+00 0.  1.
         21    1    1    2  504  501 -0.88755848785E+02 -0.45431911886E+02 -0.11764706470E+04  0.11806882918E+04  0.00000000000E+00 0.  1.
<mgrwt>
<rscale>  4 0.67876368E+03</rscale>
<asrwt>0</asrwt>
<pdfrwt beam="1">  1       21 0.32721825E-01 0.67876368E+03</pdfrwt>
<pdfrwt beam="2">  1       21 0.26546727E+00 0.67876368E+03</pdfrwt>
<totfact> 0.35234472E+02</totfact>
</mgrwt>
</event>
<event>
 5    0  0.1733515E+000  0.4785868E+03  0.7546771E-02  0.1019524E+00
         21   -1    0    0  503  501  0.00000000000E+00  0.00000000000E+00  0.24744138533E+03  0.24744138533E+03  0.00000000000E+00 0.  1.
         21   -1    0    0  504  502 -0.00000000000E+00 -0.00000000000E+00 -0.93917124602E+03  0.93917124602E+03  0.00000000000E+00 0.  1.
         25    1    1    2    0    0 -0.31357547154E+03 -0.11130449974E+03  0.23904647039E+02  0.35625089496E+03  0.12500000000E+03 0.  0.
         21    1    1    2  503  502  0.97486050304E+02 -0.45300437900E+02 -0.61413771274E+02  0.12380351764E+03  0.00000000000E+00 0. -1.
         21    1    1    2  504  501  0.21608942123E+03  0.15660493764E+03 -0.65422073646E+03  0.70655821874E+03  0.00000000000E+00 0.  1.
<mgrwt>
<rscale>  4 0.47858678E+03</rscale>
<asrwt>0</asrwt>
<pdfrwt beam="1">  1       21 0.38067906E-01 0.47858678E+03</pdfrwt>
<pdfrwt beam="2">  1       21 0.14448788E+00 0.47858678E+03</pdfrwt>
<totfact> 0.18576134E+03</totfact>
</mgrwt>
</event>
<event>
 5    0  0.1723834E+000  0.6376567E+03  0.7546771E-02  0.9830220E-01
         21   -1    0    0  503  501  0.00000000000E+00  0.00000000000E+00  0.86924743706E+02  0.86924743706E+02  0.00000000000E+00 0. -1.
         21   -1    0    0  504  502 -0.00000000000E+00 -0.00000000000E+00 -0.26222944554E+04  0.26222944554E+04  0.00000000000E+00 0. -1.
         25    1    1    2    0    0 -0.25490579885E+03 -0.25844071654E+03 -0.89362133585E+03  0.97260097786E+03  0.12500000000E+03 0.  0.
         21    1    1    2  503  502  0.19141842071E+03  0.33189626050E+02 -0.13436934040E+04  0.13576651012E+04  0.00000000000E+00 0. -1.
         21    1    1    2  504  501  0.63487378135E+02  0.22525109049E+03 -0.29805497184E+03  0.37895312004E+03  0.00000000000E+00 0.  1.
<mgrwt>
<rscale>  4 0.63765669E+03</rscale>
<asrwt>0</asrwt>
<pdfrwt beam="1">  1       21 0.13373038E-01 0.63765669E+03</pdfrwt>
<pdfrwt beam="2">  1       21 0.40342991E+00 0.63765669E+03</pdfrwt>
<totfact> 0.27846861E+02</totfact>
</mgrwt>
</event>
<event>
 5    0  0.1723834E+000  0.8614144E+03  0.7546771E-02  0.9475144E-01
         21   -1    0    0  503  501  0.00000000000E+00  0.00000000000E+00  0.22962814453E+03  0.22962814453E+03  0.00000000000E+00 0. -1.
         21   -1    0    0  504  502 -0.00000000000E+00 -0.00000000000E+00 -0.88060924925E+03  0.88060924925E+03  0.00000000000E+00 0.  1.
         25    1    1    2    0    0  0.22164360164E+03 -0.25263243152E+03  0.16128285697E+02  0.35893474783E+03  0.12500000000E+03 0.  0.
         21    1    1    2  503  502 -0.25183138270E+02  0.32835508551E+00 -0.61439606585E+02  0.66401231370E+02  0.00000000000E+00 0.  1.
         21    1    1    2  504  501 -0.19646046337E+03  0.25230407643E+03 -0.60566978382E+03  0.68490141458E+03  0.00000000000E+00 0.  1.
<mgrwt>
<rscale>  4 0.86141439E+03</rscale>
<asrwt>0</asrwt>
<pdfrwt beam="1">  1       21 0.35327407E-01 0.86141439E+03</pdfrwt>
<pdfrwt beam="2">  1       21 0.13547834E+00 0.86141439E+03</pdfrwt>
<totfact> 0.23290317E+03</totfact>
</mgrwt>
</event>
<event>
 5    0  0.1723834E+000  0.4038842E+03  0.7546771E-02  0.1042443E+00
         21   -1    0    0  503  501  0.00000000000E+00  0.00000000000E+00  0.96440658951E+03  0.96440658951E+03  0.00000000000E+00 0.  1.
         21   -1    0    0  504  502 -0.00000000000E+00 -0.00000000000E+00 -0.88406374778E+03  0.88406374778E+03  0.00000000000E+00 0.  1.
         25    1    1    2    0    0  0.97662172241E+02 -0.18932889932E+03  0.76918456863E+03  0.80786956412E+03  0.12500000000E+03 0.  0.
         21    1    1    2  503  502  0.20044164545E+02  0.14588116845E+03 -0.83505185869E+03  0.84793554622E+03  0.00000000000E+00 0.  1.
         21    1    1    2  504  501 -0.11770633679E+03  0.43447730872E+02  0.14621013179E+03  0.19266522695E+03  0.00000000000E+00 0. -1.
<mgrwt>
<rscale>  4 0.40388415E+03</rscale>
<asrwt>0</asrwt>
<pdfrwt beam="1">  1       21 0.14837024E+00 0.40388415E+03</pdfrwt>
<pdfrwt beam="2">  1       21 0.13600981E+00 0.40388415E+03</pdfrwt>
<totfact> 0.97576818E+01</totfact>
</mgrwt>
</event>
<event>
 5    0  0.1723834E+000  0.1030668E+04  0.7546771E-02  0.9275533E-01
         21   -1    0    0  503  501  0.00000000000E+00  0.00000000000E+00  0.15401190928E+04  0.15401190928E+04  0.00000000000E+00 0. -1.
         21   -1    0    0  504  502 -0.00000000000E+00 -0.00000000000E+00 -0.45909600508E+03  0.45909600508E+03  0.00000000000E+00 0. -1.
         25    1    1    2    0    0 -0.32305133743E+03 -0.16111665684E+03  0.12056571363E+03  0.40060184102E+03  0.12500000000E+03 0.  0.
         21    1    1    2  503  502  0.38791947319E+03  0.13186753293E+03  0.12421989209E+04  0.13080247410E+04  0.00000000000E+00 0. -1.
         21    1    1    2  504  501 -0.64868135763E+02  0.29249123909E+02 -0.28174154688E+03  0.29058851581E+03  0.00000000000E+00 0. -1.
<mgrwt>
<rscale>  4 0.10306684E+04</rscale>
<asrwt>0</asrwt>
<pdfrwt beam="1">  1       21 0.23694140E+00 0.10306684E+04</pdfrwt>
<pdfrwt beam="2">  1       21 0.70630156E-01 0.10306684E+04</pdfrwt>
<totfact> 0.92227931E+01</totfact>
</mgrwt>
</event>
<event>
 5    0  0.1723834E+000  0.4894061E+03  0.7546771E-02  0.1016582E+00
         21   -1    0    0  503  501  0.00000000000E+00  0.00000000000E+00  0.14090823286E+04  0.14090823286E+04  0.00000000000E+00 0. -1.
         21   -1    0    0  504  502 -0.00000000000E+00 -0.00000000000E+00 -0.18239901204E+03  0.18239901204E+03  0.00000000000E+00 0.  1.
         25    1    1    2    0    0  0.12862110540E+03  0.16915272836E+03  0.10701247317E+04  0.10981566262E+04  0.12500000000E+03 0.  0.
         21    1    1    2  503  502 -0.10855104209E+03 -0.15863393600E+03  0.29551676321E+03  0.35253115000E+03  0.00000000000E+00 0.  1.
         21    1    1    2  504  501 -0.20070063316E+02 -0.10518792361E+02 -0.13895817839E+03  0.14079356439E+03  0.00000000000E+00 0.  1.
<mgrwt>
<rscale>  4 0.48940610E+03</rscale>
<asrwt>0</asrwt>
<pdfrwt beam="1">  1       21 0.21678189E+00 0.48940610E+03</pdfrwt>
<pdfrwt beam="2">  1       21 0.28061387E-01 0.48940610E+03</pdfrwt>
<totfact> 0.10431392E+03</totfact>
</mgrwt>
</event>
<event>
 5    0  0.1723834E+000  0.5460274E+03  0.7546771E-02  0.1002418E+00
         21   -1    0    0  503  501  0.00000000000E+00  0.00000000000E+00  0.59835965608E+03  0.59835965608E+03  0.00000000000E+00 0. -1.
         21   -1    0    0  504  502 -0.00000000000E+00 -0.00000000000E+00 -0.74462913880E+03  0.74462913880E+03  0.00000000000E+00 0. -1.
         25    1    1    2    0    0  0.32802128400E+02 -0.25676198801E+03  0.40256166252E+03  0.49465502145E+03  0.12500000000E+03 0.  0.
         21    1    1    2  503  502 -0.31226973831E+00  0.21639965454E+03  0.69921280599E+02  0.22741568433E+03  0.00000000000E+00 0. -1.
         21    1    1    2  504  501 -0.32489858662E+02  0.40362333472E+02 -0.61875242584E+03  0.62091808910E+03  0.00000000000E+00 0. -1.
<mgrwt>
<rscale>  4 0.54602745E+03</rscale>
<asrwt>0</asrwt>
<pdfrwt beam="1">  1       21 0.92055332E-01 0.54602745E+03</pdfrwt>
<pdfrwt beam="2">  1       21 0.11455833E+00 0.54602745E+03</pdfrwt>
<totfact> 0.47438518E+02</totfact>
</mgrwt>
</event>
<event>
 5    0  0.1723834E+000  0.5926257E+03  0.7546771E-02  0.9920825E-01
         21   -1    0    0  503  501  0.00000000000E+00  0.00000000000E+00  0.26637416041E+04  0.26637416041E+04  0.00000000000E+00 0. -1.
         21   -1    0    0  504  502 -0.00000000000E+00 -0.00000000000E+00 -0.55978468324E+02  0.55978468324E+02  0.00000000000E+00 0. -1.
         25    1    1    2    0    0  0.11415941865E+03  0.26874865960E+03  0.14651418185E+04  0.14991743605E+04  0.12500000000E+03 0.  0.
         21    1    1    2  503  502  0.69756959638E+01 -0.22463198962E+02 -0.16913209582E+02  0.28970887114E+02  0.00000000000E+00 0. -1.
         21    1    1    2  504  501 -0.12113511461E+03 -0.24628546064E+03  0.11595345269E+04  0.11915748248E+04  0.00000000000E+00 0. -1.
<mgrwt>
<rscale>  4 0.59262573E+03</rscale>
<asrwt>0</asrwt>
<pdfrwt beam="1">  1       21 0.40980630E+00 0.59262573E+03</pdfrwt>
<pdfrwt beam="2">  1       21 0.86120741E-02 0.59262573E+03</pdfrwt>
<totfact> 0.57490028E+02</totfact>
</mgrwt>
</event>
<event>
 5    0  0.1723834E+000  0.6319085E+03  0.7546771E-02  0.9841332E-01
         21   -1    0    0  503  501  0.00000000000E+00  0.00000000000E+00  0.16952666840E+04  0.16952666840E+04  0.00000000000E+00 0.  1.
         21   -1    0    0  504  502 -0.00000000000E+00 -0.00000000000E+00 -0.79289983090E+02  0.79289983090E+02  0.00000000000E+00 0.  1.
         25    1    1    2    0    0 -0.21511492385E+03 -0.89582206516E+02  0.32747737830E+03  0.42091072152E+03  0.12500000000E+03 0.  0.
         21    1    1    2  503  502  0.24434147638E+03  0.78934359423E+02  0.12963736869E+04  0.13215589757E+04  0.00000000000E+00 0.  1.
         21    1    1    2  504  501 -0.29226552526E+02  0.10647847093E+02 -0.78743643193E+01  0.32086969843E+02  0.00000000000E+00 0.  1.
<mgrwt>
<rscale>  4 0.63190851E+03</rscale>
<asrwt>0</asrwt>
<pdfrwt beam="1">  1       21 0.26081023E+00 0.63190851E+03</pdfrwt>
<pdfrwt beam="2">  1       21 0.12198460E-01 0.63190851E+03</pdfrwt>
<totfact> 0.25471794E+03</totfact>
</mgrwt>
</event>
<event>
 5    0  0.1723834E+000  0.3890848E+03  0.7546771E-02  0.1047626E+00
         21   -1    0    0  503  501  0.00000000000E+00  0.00000000000E+00  0.21941247427E+04  0.21941247427E+04  0.00000000000E+00 0.  1.
         21   -1    0    0  504  502 -0.00000000000E+00 -0.00000000000E+00 -0.20885482224E+03  0.20885482224E+03  0.00000000000E+00 0. -1.
         25    1    1    2    0    0 -0.11809960915E+03  0.20570916746E+03  0.13530297630E+04  0.13793398127E+04  0.12500000000E+03 0.  0.
         21    1    1    2  503  502  0.39127485681E+02 -0.11903831687E+03 -0.17093938149E+03  0.21194658092E+03  0.00000000000E+00 0. -1.
         21    1    1    2  504  501  0.78972123473E+02 -0.86670850589E+02  0.80317953894E+03  0.81169317134E+03  0.00000000000E+00 0.  1.
<mgrwt>
<rscale>  4 0.38908480E+03</rscale>
<asrwt>0</asrwt>
<pdfrwt beam="1">  1       21 0.33755764E+00 0.38908480E+03</pdfrwt>
<pdfrwt beam="2">  1       21 0.32131513E-01 0.38908480E+03</pdfrwt>
<totfact> 0.15496127E+02</totfact>
</mgrwt>
</event>
<event>
 5    0  0.1723834E+000  0.8541582E+03  0.7546771E-02  0.9484773E-01
         21   -1    0    0  503  501  0.00000000000E+00  0.00000000000E+00  0.88689275184E+03  0.88689275184E+03  0.00000000000E+00 0. -1.
         21   -1    0    0  504  502 -0.00000000000E+00 -0.00000000000E+00 -0.31529153624E+03  0.31529153624E+03  0.00000000000E+00 0. -1.
         25    1    1    2    0    0 -0.80666292829E+02 -0.30083297704E+03 -0.11239632583E+02  0.33579586093E+03  0.12500000000E+03 0.  0.
         21    1    1    2  503  502  0.10519652800E+03  0.28816418332E+03  0.69032447267E+03  0.75541563633E+03  0.00000000000E+00 0. -1.
         21    1    1    2  504  501 -0.24530235167E+02  0.12668793722E+02 -0.10748362448E+03  0.11097279082E+03  0.00000000000E+00 0. -1.
<mgrwt>
<rscale>  4 0.85415825E+03</rscale>
<asrwt>0</asrwt>
<pdfrwt beam="1">  1       21 0.13644504E+00 0.85415825E+03</pdfrwt>
<pdfrwt beam="2">  1       21 0.48506390E-01 0.85415825E+03</pdfrwt>
<totfact> 0.11767494E+03</totfact>
</mgrwt>
</event>
<event>
 5    0  0.1723834E+000  0.5108975E+03  0.7546771E-02  0.1010973E+00
         21   -1    0    0  503  501  0.00000000000E+00  0.00000000000E+00  0.11447915581E+03  0.11447915581E+03  0.00000000000E+00 0. -1.
         21   -1    0    0  504  502 -0.00000000000E+00 -0.00000000000E+00 -0.13313288228E+04  0.13313288228E+04  0.00000000000E+00 0.  1.
         25    1    1    2    0    0  0.50853559511E+02  0.21662396406E+03 -0.54403294248E+03  0.60092334688E+03  0.12500000000E+03 0.  0.
         21    1    1    2  503  502 -0.10523828984E+03 -0.11468356773E+03 -0.70736662516E+03  0.72428927974E+03  0.00000000000E+00 0.  1.
         21    1    1    2  504  501  0.54384730332E+02 -0.10194039633E+03  0.34549900623E+02  0.12059535202E+03  0.00000000000E+00 0.  1.
<mgrwt>
<rscale>  4 0.51089751E+03</rscale>
<asrwt>0</asrwt>
<pdfrwt beam="1">  1       21 0.17612176E-01 0.51089751E+03</pdfrwt>
<pdfrwt beam="2">  1       21 0.20481983E+00 0.51089751E+03</pdfrwt>
<totfact> 0.30406858E+03</totfact>
</mgrwt>
</event>
<event>
 5    0  0.1723834E+000  0.5868818E+03  0.7546771E-02  0.9933002E-01
         21   -1    0    0  503  501  0.00000000000E+00  0.00000000000E+00  0.24399294465E+03  0.24399294465E+03  0.00000000000E+00 0. -1.
         21   -1    0    0  504  502 -0.00000000000E+00 -0.00000000000E+00 -0.49428317661E+03  0.49428317661E+03  0.00000000000E+00 0.  1.
         25    1    1    2    0    0 -0.97749190561E+02  0.25223630907E+03 -0.18396794282E+03  0.35021031374E+03  0.12500000000E+03 0.  0.
         21    1    1    2  503  502  0.38633029384E+02 -0.20370608604E+02 -0.13273631265E+03  0.13973690046E+03  0.00000000000E+00 0.  1.
         21    1    1    2  504  501  0.59116161176E+02 -0.23186570046E+03  0.66414023500E+02  0.24832890706E+03  0.00000000000E+00 0. -1.
<mgrwt>
<rscale>  4 0.58688182E+03</rscale>
<asrwt>0</asrwt>
<pdfrwt beam="1">  1       21 0.37537376E-01 0.58688182E+03</pdfrwt>
<pdfrwt beam="2">  1       21 0.76043566E-01 0.58688182E+03</pdfrwt>
<totfact> 0.90714189E+03</totfact>
</mgrwt>
</event>
<event>
 5    0  0.1723834E+000  0.3473429E+03  0.7546771E-02  0.1063711E+00
         21   -1    0    0  503  501  0.00000000000E+00  0.00000000000E+00  0.95657415545E+02  0.95657415545E+02  0.00000000000E+00 0. -1.
         21   -1    0    0  504  502 -0.00000000000E+00 -0.00000000000E+00 -0.72084982089E+03  0.72084982089E+03  0.00000000000E+00 0. -1.
         25    1    1    2    0    0 -0.15960963961E+03  0.16886880187E+03 -0.33664995496E+03  0.42772666678E+03  0.12500000000E+03 0.  0.
         21    1    1    2  503  502  0.29892942557E+02 -0.58089484691E+02 -0.16006930490E+02  0.67262159273E+02  0.00000000000E+00 0.  1.
         21    1    1    2  504  501  0.12971669705E+03 -0.11077931718E+03 -0.27253551989E+03  0.32151841037E+03  0.00000000000E+00 0. -1.
<mgrwt>
<rscale>  4 0.34734286E+03</rscale>
<asrwt>0</asrwt>
<pdfrwt beam="1">  1       21 0.14716525E-01 0.34734286E+03</pdfrwt>
<pdfrwt beam="2">  1       21 0.11089997E+00 0.34734286E+03</pdfrwt>
<totfact> 0.24221888E+04</totfact>
</mgrwt>
</event>
<event>
 5    0  0.1723834E+000  0.4809738E+03  0.7546771E-02  0.1018868E+00
         21   -1    0    0  503  501  0.00000000000E+00  0.00000000000E+00  0.27393664036E+03  0.27393664036E+03  0.00000000000E+00 0.  1.
         21   -1    0    0  504  502 -0.00000000000E+00 -0.00000000000E+00 -0.41021429086E+03  0.41021429086E+03  0.00000000000E+00 0.  1.
         25    1    1    2    0    0 -0.21133206876E+03  0.67681510015E+01  0.32419752064E+02  0.24775611290E+03  0.12500000000E+03 0.  0.
         21    1    1    2  503  502  0.23307189081E+03 -0.32572370887E+02  0.27843804897E+02  0.23697835999E+03  0.00000000000E+00 0.  1.
         21    1    1    2  504  501 -0.21739822051E+02  0.25804219886E+02 -0.19654120746E+03  0.19941645834E+03  0.00000000000E+00 0.  1.
<mgrwt>
<rscale>  4 0.48097382E+03</rscale>
<asrwt>0</asrwt>
<pdfrwt beam="1">  1       21 0.42144099E-01 0.48097382E+03</pdfrwt>
<pdfrwt beam="2">  1       21 0.63109891E-01 0.48097382E+03</pdfrwt>
<totfact> 0.11165057E+04</totfact>
</mgrwt>
</event>
<event>
 5    0  0.1723834E+000  0.6149932E+03  0.7546771E-02  0.9874779E-01
         21   -1    0    0  503  501  0.00000000000E+00  0.00000000000E+00  0.30650997909E+03  0.30650997909E+03  0.00000000000E+00 0. -1.
         21   -1    0    0  504  502 -0.00000000000E+00 -0.00000000000E+00 -0.21853713533E+04  0.21853713533E+04  0.00000000000E+00 0. -1.
         25    1    1    2    0    0  0.26879219806E+03 -0.10526428457E+03  0.97928611808E+02  0.32946142165E+03  0.12500000000E+03 0.  0.
         21    1    1    2  503  502 -0.92489273381E+01  0.41299248240E+02 -0.18764060484E+04  0.18768832753E+04  0.00000000000E+00 0. -1.
         21    1    1    2  504  501 -0.25954327073E+03  0.63965036335E+02 -0.10038393761E+03  0.28553663545E+03  0.00000000000E+00 0. -1.
<mgrwt>
<rscale>  4 0.61499316E+03</rscale>
<asrwt>0</asrwt>
<pdfrwt beam="1">  1       21 0.47155384E-01 0.61499316E+03</pdfrwt>
<pdfrwt beam="2">  1       21 0.33621096E+00 0.61499316E+03</pdfrwt>
<totfact> 0.62538122E+01</totfact>
</mgrwt>
</event>
<event>
 5    0  0.1723834E+000  0.4020750E+03  0.7546771E-02  0.1043064E+00
         21   -1    0    0  503  501  0.00000000000E+00  0.00000000000E+00  0.11221628913E+04  0.11221628913E+04  0.00000000000E+00 0.  1.
         21   -1    0    0  504  502 -0.00000000000E+00 -0.00000000000E+00 -0.71678533557E+02  0.71678533557E+02  0.00000000000E+00 0.  1.
         25    1    1    2    0    0  0.52349423564E+02  0.20917319176E+03  0.87943141930E+03  0.91406701480E+03  0.12500000000E+03 0.  0.
         21    1    1    2  503  502 -0.28748489803E+02 -0.10653844782E+03  0.11903336306E+03  0.16231407225E+03  0.00000000000E+00 0. -1.
         21    1    1    2  504  501 -0.23600933761E+02 -0.10263474394E+03  0.52019575409E+02  0.11746033783E+03  0.00000000000E+00 0.  1.
<mgrwt>
<rscale>  4 0.40207502E+03</rscale>
<asrwt>0</asrwt>
<pdfrwt beam="1">  1       21 0.17264043E+00 0.40207502E+03</pdfrwt>
<pdfrwt beam="2">  1       21 0.11027468E-01 0.40207502E+03</pdfrwt>
<totfact> 0.12497923E+04</totfact>
</mgrwt>
</event>
<event>
 5    0  0.1723834E+000  0.6899692E+03  0.7546771E-02  0.9734542E-01
         21   -1    0    0  503  501  0.00000000000E+00  0.00000000000E+00  0.26821105647E+03  0.26821105647E+03  0.00000000000E+00 0. -1.
         21   -1    0    0  504  502 -0.00000000000E+00 -0.00000000000E+00 -0.10556098623E+04  0.10556098623E+04  0.00000000000E+00 0. -1.
         25    1    1    2    0    0 -0.75976033908E+02  0.26750535293E+03 -0.30891147576E+03  0.43403084157E+03  0.12500000000E+03 0.  0.
         21    1    1    2  503  502  0.45802383015E+02 -0.24094447984E+03  0.13163013606E+03  0.27834976805E+03  0.00000000000E+00 0. -1.
         21    1    1    2  504  501  0.30173650892E+02 -0.26560873097E+02 -0.61011746608E+03  0.61144030911E+03  0.00000000000E+00 0. -1.
<mgrwt>
<rscale>  4 0.68996917E+03</rscale>
<asrwt>0</asrwt>
<pdfrwt beam="1">  1       21 0.41263238E-01 0.68996917E+03</pdfrwt>
<pdfrwt beam="2">  1       21 0.16240152E+00 0.68996917E+03</pdfrwt>
<totfact> 0.10649714E+03</totfact>
</mgrwt>
</event>
<event>
 5    0  0.1723834E+000  0.4397451E+03  0.7546771E-02  0.1030825E+00
         21   -1    0    0  503  501  0.00000000000E+00  0.00000000000E+00  0.22990212963E+03  0.22990212963E+03  0.00000000000E+00 0. -1.
         21   -1    0    0  504  502 -0.00000000000E+00 -0.00000000000E+00 -0.40615840970E+03  0.40615840970E+03  0.00000000000E+00 0.  1.
         25    1    1    2    0    0  0.18433183714E+03  0.12117568568E+03 -0.10026029657E+03  0.27265160930E+03  0.12500000000E+03 0.  0.
         21    1    1    2  503  502 -0.11159864247E+03 -0.73810685057E+02  0.10008976370E+03  0.16709349188E+03  0.00000000000E+00 0.  1.
         21    1    1    2  504  501 -0.72733194668E+02 -0.47365000622E+02 -0.17608574721E+03  0.19631543816E+03  0.00000000000E+00 0.  1.
<mgrwt>
<rscale>  4 0.43974507E+03</rscale>
<asrwt>0</asrwt>
<pdfrwt beam="1">  1       21 0.35369559E-01 0.43974507E+03</pdfrwt>
<pdfrwt beam="2">  1       21 0.62485909E-01 0.43974507E+03</pdfrwt>
<totfact> 0.16534726E+04</totfact>
</mgrwt>
</event>
<event>
 5    0  0.1723834E+000  0.5070306E+03  0.7546771E-02  0.1011960E+00
         21   -1    0    0  503  501  0.00000000000E+00  0.00000000000E+00  0.12380334177E+03  0.12380334177E+03  0.00000000000E+00 0. -1.
         21   -1    0    0  504  502 -0.00000000000E+00 -0.00000000000E+00 -0.59971527680E+03  0.59971527680E+03  0.00000000000E+00 0. -1.
         25    1    1    2    0    0  0.22104656341E+03 -0.82842034095E+01 -0.12009472976E+03  0.28103016802E+03  0.12500000000E+03 0.  0.
         21    1    1    2  503  502 -0.93915063979E+01 -0.31779784884E+02 -0.92075562462E+01  0.34393810660E+02  0.00000000000E+00 0. -1.
         21    1    1    2  504  501 -0.21165505701E+03  0.40063988293E+02 -0.34660964902E+03  0.40809463989E+03  0.00000000000E+00 0. -1.
<mgrwt>
<rscale>  4 0.50703059E+03</rscale>
<asrwt>0</asrwt>
<pdfrwt beam="1">  1       21 0.19046668E-01 0.50703059E+03</pdfrwt>
<pdfrwt beam="2">  1       21 0.92263890E-01 0.50703059E+03</pdfrwt>
<totfact> 0.22363591E+04</totfact>
</mgrwt>
</event>
<event>
 5    0  0.1723834E+000  0.5853123E+03  0.7546771E-02  0.9936356E-01
         21   -1    0    0  503  501  0.00000000000E+00  0.00000000000E+00  0.58424687942E+03  0.58424687942E+03  0.00000000000E+00 0. -1.
         21   -1    0    0  504  502 -0.00000000000E+00 -0.00000000000E+00 -0.29045696045E+03  0.29045696045E+03  0.00000000000E+00 0. -1.
         25    1    1    2    0    0 -0.10239545659E+02  0.20431567050E+03  0.10586721110E+03  0.26207366883E+03  0.12500000000E+03 0.  0.
         21    1    1    2  503  502  0.16167114978E+03  0.10272802035E+03 -0.47241429782E+02  0.19728750473E+03  0.00000000000E+00 0. -1.
         21    1    1    2  504  501 -0.15143160412E+03 -0.30704369085E+03  0.23516413764E+03  0.41534266630E+03  0.00000000000E+00 0. -1.
<mgrwt>
<rscale>  4 0.58531232E+03</rscale>
<asrwt>0</asrwt>
<pdfrwt beam="1">  1       21 0.89884135E-01 0.58531232E+03</pdfrwt>
<pdfrwt beam="2">  1       21 0.44685686E-01 0.58531232E+03</pdfrwt>
<totfact> 0.42701285E+03</totfact>
</mgrwt>
</event>
<event>
 5    0  0.1723834E+000  0.4156823E+03  0.7546771E-02  0.1038481E+00
         21   -1    0    0  503  501  0.00000000000E+00  0.00000000000E+00  0.20576145445E+03  0.20576145445E+03  0.00000000000E+00 0. -1.
         21   -1    0    0  504  502 -0.00000000000E+00 -0.00000000000E+00 -0.50580865873E+03  0.50580865873E+03  0.00000000000E+00 0.  1.
         25    1    1    2    0    0  0.95285048318E+02  0.25044702869E+03 -0.25060606482E+02  0.29674229326E+03  0.12500000000E+03 0.  0.
         21    1    1    2  503  502  0.54242543391E+01 -0.11795385164E+03 -0.35699412499E+02  0.12335713074E+03  0.00000000000E+00 0.  1.
         21    1    1    2  504  501 -0.10070930266E+03 -0.13249317705E+03 -0.23928718530E+03  0.29147068919E+03  0.00000000000E+00 0.  1.
<mgrwt>
<rscale>  4 0.41568227E+03</rscale>
<asrwt>0</asrwt>
<pdfrwt beam="1">  1       21 0.31655609E-01 0.41568227E+03</pdfrwt>
<pdfrwt beam="2">  1       21 0.77816715E-01 0.41568227E+03</pdfrwt>
<totfact> 0.12707457E+04</totfact>
</mgrwt>
</event>
<event>
 5    0  0.1723834E+000  0.7700843E+03  0.7546771E-02  0.9604358E-01
         21   -1    0    0  503  501  0.00000000000E+00  0.00000000000E+00  0.11022305886E+04  0.11022305886E+04  0.00000000000E+00 0.  1.
         21   -1    0    0  504  502 -0.00000000000E+00 -0.00000000000E+00 -0.38701735492E+03  0.38701735492E+03  0.00000000000E+00 0.  1.
         25    1    1    2    0    0 -0.11276411978E+03 -0.34674838852E+03  0.33669806549E+03  0.51180150348E+03  0.12500000000E+03 0.  0.
         21    1    1    2  503  502  0.86127631379E+02 -0.10587895535E+02 -0.24410882879E+03  0.25907372061E+03  0.00000000000E+00 0.  1.
         21    1    1    2  504  501  0.26636488401E+02  0.35733628406E+03  0.62262399694E+03  0.71837271941E+03  0.00000000000E+00 0.  1.
<mgrwt>
<rscale>  4 0.77008428E+03</rscale>
<asrwt>0</asrwt>
<pdfrwt beam="1">  1       21 0.16957394E+00 0.77008428E+03</pdfrwt>
<pdfrwt beam="2">  1       21 0.59541132E-01 0.77008428E+03</pdfrwt>
<totfact> 0.41886806E+02</totfact>
</mgrwt>
</event>
<event>
 5    0  0.1723834E+000  0.4479201E+03  0.7546771E-02  0.1028344E+00
         21   -1    0    0  503  501  0.00000000000E+00  0.00000000000E+00  0.27818621782E+04  0.27818621782E+04  0.00000000000E+00 0.  1.
         21   -1    0    0  504  502 -0.00000000000E+00 -0.00000000000E+00 -0.56741107659E+02  0.56741107659E+02  0.00000000000E+00 0.  1.
         25    1    1    2    0    0 -0.22977509224E+03 -0.19904724343E+02  0.14046156180E+04  0.14289026648E+04  0.12500000000E+03 0.  0.
         21    1    1    2  503  502  0.17748887149E+03 -0.32343174127E+02  0.13234839671E+04  0.13357238455E+04  0.00000000000E+00 0.  1.
         21    1    1    2  504  501  0.52286220748E+02  0.52247898470E+02 -0.29785145219E+01  0.73976775568E+02  0.00000000000E+00 0.  1.
<mgrwt>
<rscale>  4 0.44792008E+03</rscale>
<asrwt>0</asrwt>
<pdfrwt beam="1">  1       21 0.42797869E+00 0.44792008E+03</pdfrwt>
<pdfrwt beam="2">  1       21 0.87294034E-02 0.44792008E+03</pdfrwt>
<totfact> 0.46141197E+02</totfact>
</mgrwt>
</event>
<event>
 5    0  0.1723834E+000  0.4163996E+03  0.7546771E-02  0.1038245E+00
         21   -1    0    0  503  501  0.00000000000E+00  0.00000000000E+00  0.33975011146E+03  0.33975011146E+03  0.00000000000E+00 0. -1.
         21   -1    0    0  504  502 -0.00000000000E+00 -0.00000000000E+00 -0.36269008773E+03  0.36269008773E+03  0.00000000000E+00 0. -1.
         25    1    1    2    0    0 -0.22849814509E+02  0.23120004374E+03  0.17051097292E+03  0.31412508040E+03  0.12500000000E+03 0.  0.
         21    1    1    2  503  502  0.12515078165E+03 -0.17914915281E+03 -0.15234685826E+03  0.26639576258E+03  0.00000000000E+00 0. -1.
         21    1    1    2  504  501 -0.10230096714E+03 -0.52050890929E+02 -0.41104090946E+02  0.12191935621E+03  0.00000000000E+00 0.  1.
<mgrwt>
<rscale>  4 0.41639958E+03</rscale>
<asrwt>0</asrwt>
<pdfrwt beam="1">  1       21 0.52269248E-01 0.41639958E+03</pdfrwt>
<pdfrwt beam="2">  1       21 0.55798475E-01 0.41639958E+03</pdfrwt>
<totfact> 0.94617995E+03</totfact>
</mgrwt>
</event>
<event>
 5    0  0.1723834E+000  0.5536920E+03  0.7546771E-02  0.1000643E+00
         21   -1    0    0  503  501  0.00000000000E+00  0.00000000000E+00  0.18074521517E+04  0.18074521517E+04  0.00000000000E+00 0. -1.
         21   -1    0    0  504  502 -0.00000000000E+00 -0.00000000000E+00 -0.23239006311E+03  0.23239006311E+03  0.00000000000E+00 0.  1.
         25    1    1    2    0    0 -0.22208242263E+03  0.20420722393E+03  0.13569673340E+04  0.13957100480E+04  0.12500000000E+03 0.  0.
         21    1    1    2  503  502  0.79876259726E+02 -0.67319029571E+02 -0.17526078398E+03  0.20403041688E+03  0.00000000000E+00 0.  1.
         21    1    1    2  504  501  0.14220616290E+03 -0.13688819436E+03  0.39335553864E+03  0.44010174994E+03  0.00000000000E+00 0.  1.
<mgrwt>
<rscale>  4 0.55369197E+03</rscale>
<asrwt>0</asrwt>
<pdfrwt beam="1">  1       21 0.27806955E+00 0.55369197E+03</pdfrwt>
<pdfrwt beam="2">  1       21 0.35752319E-01 0.55369197E+03</pdfrwt>
<totfact> 0.25911942E+02</totfact>
</mgrwt>
</event>
<event>
 5    0  0.1723834E+000  0.3558508E+03  0.7546771E-02  0.1060239E+00
         21   -1    0    0  503  501  0.00000000000E+00  0.00000000000E+00  0.73837631030E+02  0.73837631030E+02  0.00000000000E+00 0. -1.
         21   -1    0    0  504  502 -0.00000000000E+00 -0.00000000000E+00 -0.10063257573E+04  0.10063257573E+04  0.00000000000E+00 0.  1.
         25    1    1    2    0    0 -0.19455791491E+03  0.12041411212E+03 -0.26951266306E+03  0.37498588800E+03  0.12500000000E+03 0.  0.
         21    1    1    2  503  502  0.15768210569E+03 -0.58797019154E+02 -0.45154708790E+03  0.48188744381E+03  0.00000000000E+00 0.  1.
         21    1    1    2  504  501  0.36875809222E+02 -0.61617092965E+02 -0.21142837533E+03  0.22329005653E+03  0.00000000000E+00 0.  1.
<mgrwt>
<rscale>  4 0.35585084E+03</rscale>
<asrwt>0</asrwt>
<pdfrwt beam="1">  1       21 0.11359636E-01 0.35585084E+03</pdfrwt>
<pdfrwt beam="2">  1       21 0.15481934E+00 0.35585084E+03</pdfrwt>
<totfact> 0.16336962E+04</totfact>
</mgrwt>
</event>
<event>
 5    0  0.1723834E+000  0.4914899E+03  0.7546771E-02  0.1016024E+00
         21   -1    0    0  503  501  0.00000000000E+00  0.00000000000E+00  0.14767382927E+04  0.14767382927E+04  0.00000000000E+00 0. -1.
         21   -1    0    0  504  502 -0.00000000000E+00 -0.00000000000E+00 -0.27991277816E+03  0.27991277816E+03  0.00000000000E+00 0. -1.
         25    1    1    2    0    0  0.22411638843E+03 -0.21115514594E+02  0.50487020998E+03  0.56673887236E+03  0.12500000000E+03 0.  0.
         21    1    1    2  503  502 -0.24958378454E+03  0.23109450038E+03 -0.11238309031E+03  0.35822715223E+03  0.00000000000E+00 0. -1.
         21    1    1    2  504  501  0.25467396115E+02 -0.20997898578E+03  0.80433839481E+03  0.83168504622E+03  0.00000000000E+00 0. -1.
<mgrwt>
<rscale>  4 0.49148986E+03</rscale>
<asrwt>0</asrwt>
<pdfrwt beam="1">  1       21 0.22719050E+00 0.49148986E+03</pdfrwt>
<pdfrwt beam="2">  1       21 0.43063505E-01 0.49148986E+03</pdfrwt>
<totfact> 0.37517737E+02</totfact>
</mgrwt>
</event>
<event>
 5    0  0.1723834E+000  0.4293787E+03  0.7546771E-02  0.1034056E+00
         21   -1    0    0  503  501  0.00000000000E+00  0.00000000000E+00  0.93333240589E+02  0.93333240589E+02  0.00000000000E+00 0.  1.
         21   -1    0    0  504  502 -0.00000000000E+00 -0.00000000000E+00 -0.15225120889E+04  0.15225120889E+04  0.00000000000E+00 0.  1.
         25    1    1    2    0    0 -0.73262617991E+02  0.18914790064E+03 -0.26515173349E+03  0.35647549885E+03  0.12500000000E+03 0.  0.
         21    1    1    2  503  502  0.19671139406E+02 -0.10092453639E+02 -0.10279251793E+04  0.10281629178E+04  0.00000000000E+00 0.  1.
         21    1    1    2  504  501  0.53591478586E+02 -0.17905544700E+03 -0.13610193552E+03  0.23120691281E+03  0.00000000000E+00 0.  1.
<mgrwt>
<rscale>  4 0.42937875E+03</rscale>
<asrwt>0</asrwt>
<pdfrwt beam="1">  1       21 0.14358960E-01 0.42937875E+03</pdfrwt>
<pdfrwt beam="2">  1       21 0.23423263E+00 0.42937875E+03</pdfrwt>
<totfact> 0.29783647E+03</totfact>
</mgrwt>
</event>
<event>
 5    0  0.1723834E+000  0.6101991E+03  0.7546771E-02  0.9884469E-01
         21   -1    0    0  503  501  0.00000000000E+00  0.00000000000E+00  0.38977359289E+03  0.38977359289E+03  0.00000000000E+00 0. -1.
         21   -1    0    0  504  502 -0.00000000000E+00 -0.00000000000E+00 -0.43704706677E+03  0.43704706677E+03  0.00000000000E+00 0. -1.
         25    1    1    2    0    0 -0.13845642600E+02 -0.23470653865E+03 -0.14836002232E+03  0.30481889266E+03  0.12500000000E+03 0.  0.
         21    1    1    2  503  502 -0.13509687519E+03  0.15919466777E+03  0.23029999378E+03  0.31085719401E+03  0.00000000000E+00 0. -1.
         21    1    1    2  504  501  0.14894251779E+03  0.75511870876E+02 -0.12921344533E+03  0.21114457299E+03  0.00000000000E+00 0. -1.
<mgrwt>
<rscale>  4 0.61019905E+03</rscale>
<asrwt>0</asrwt>
<pdfrwt beam="1">  1       21 0.59965168E-01 0.61019905E+03</pdfrwt>
<pdfrwt beam="2">  1       21 0.67238011E-01 0.61019905E+03</pdfrwt>
<totfact> 0.44109954E+03</totfact>
</mgrwt>
</event>
<event>
 5    0  0.1723834E+000  0.4687685E+03  0.7546771E-02  0.1022268E+00
         21   -1    0    0  503  501  0.00000000000E+00  0.00000000000E+00  0.54612271290E+02  0.54612271290E+02  0.00000000000E+00 0. -1.
         21   -1    0    0  504  502 -0.00000000000E+00 -0.00000000000E+00 -0.16459612000E+04  0.16459612000E+04  0.00000000000E+00 0.  1.
         25    1    1    2    0    0 -0.17170517733E+03 -0.17809512412E+03 -0.49272576482E+03  0.56533549373E+03  0.12500000000E+03 0.  0.
         21    1    1    2  503  502  0.15331193686E+03  0.57168260531E+02 -0.63936452872E+03  0.65996951489E+03  0.00000000000E+00 0.  1.
         21    1    1    2  504  501  0.18393240467E+02  0.12092686359E+03 -0.45925863520E+03  0.47526846270E+03  0.00000000000E+00 0.  1.
<mgrwt>
<rscale>  4 0.46876853E+03</rscale>
<asrwt>0</asrwt>
<pdfrwt beam="1">  1       21 0.84018890E-02 0.46876853E+03</pdfrwt>
<pdfrwt beam="2">  1       21 0.25322477E+00 0.46876853E+03</pdfrwt>
<totfact> 0.58996360E+03</totfact>
</mgrwt>
</event>
<event>
 5    0  0.1723834E+000  0.5386548E+03  0.7546771E-02  0.1004155E+00
         21   -1    0    0  503  501  0.00000000000E+00  0.00000000000E+00  0.65679008117E+03  0.65679008117E+03  0.00000000000E+00 0. -1.
         21   -1    0    0  504  502 -0.00000000000E+00 -0.00000000000E+00 -0.13132681542E+03  0.13132681542E+03  0.00000000000E+00 0. -1.
         25    1    1    2    0    0 -0.22848370724E+03  0.14699488540E+02  0.98423860897E+02  0.27880662803E+03  0.12500000000E+03 0.  0.
         21    1    1    2  503  502  0.20629614824E+03  0.16535711614E+02  0.42283549639E+03  0.47076680803E+03  0.00000000000E+00 0. -1.
         21    1    1    2  504  501  0.22187559003E+02 -0.31235200153E+02  0.42039084571E+01  0.38543460527E+02  0.00000000000E+00 0. -1.
<mgrwt>
<rscale>  4 0.53865482E+03</rscale>
<asrwt>0</asrwt>
<pdfrwt beam="1">  1       21 0.10104463E+00 0.53865482E+03</pdfrwt>
<pdfrwt beam="2">  1       21 0.20204126E-01 0.53865482E+03</pdfrwt>
<totfact> 0.15927050E+04</totfact>
</mgrwt>
</event>
<event>
 5    0  0.1723834E+000  0.3915782E+03  0.7546771E-02  0.1046735E+00
         21   -1    0    0  503  501  0.00000000000E+00  0.00000000000E+00  0.31502629625E+03  0.31502629625E+03  0.00000000000E+00 0. -1.
         21   -1    0    0  504  502 -0.00000000000E+00 -0.00000000000E+00 -0.41433853000E+03  0.41433853000E+03  0.00000000000E+00 0. -1.
         25    1    1    2    0    0  0.20217782350E+03 -0.28161112893E+02  0.84337385610E+02  0.25378478128E+03  0.12500000000E+03 0.  0.
         21    1    1    2  503  502 -0.56211717204E+02  0.62565256224E+01 -0.28884408288E+03  0.29432941660E+03  0.00000000000E+00 0. -1.
         21    1    1    2  504  501 -0.14596610630E+03  0.21904587270E+02  0.10519446352E+03  0.18125062837E+03  0.00000000000E+00 0. -1.
<mgrwt>
<rscale>  4 0.39157820E+03</rscale>
<asrwt>0</asrwt>
<pdfrwt beam="1">  1       21 0.48465584E-01 0.39157820E+03</pdfrwt>
<pdfrwt beam="2">  1       21 0.63744389E-01 0.39157820E+03</pdfrwt>
<totfact> 0.83758350E+03</totfact>
</mgrwt>
</event>
<event>
 5    0  0.1723834E+000  0.7019913E+03  0.7546771E-02  0.9713833E-01
         21   -1    0    0  503  501  0.00000000000E+00  0.00000000000E+00  0.72145801032E+03  0.72145801032E+03  0.00000000000E+00 0. -1.
         21   -1    0    0  504  502 -0.00000000000E+00 -0.00000000000E+00 -0.39730919343E+03  0.39730919343E+03  0.00000000000E+00 0.  1.
         25    1    1    2    0    0 -0.10538403352E+03 -0.23990893126E+03  0.54470040939E+03  0.61724033067E+03  0.12500000000E+03 0.  0.
         21    1    1    2  503  502  0.94352417176E+02  0.25783234284E+03  0.53902760387E+01  0.27460690217E+03  0.00000000000E+00 0.  1.
         21    1    1    2  504  501  0.11031616339E+02 -0.17923411580E+02 -0.22594186854E+03  0.22691997092E+03  0.00000000000E+00 0.  1.
<mgrwt>
<rscale>  4 0.70199126E+03</rscale>
<asrwt>0</asrwt>
<pdfrwt beam="1">  1       21 0.11099354E+00 0.70199126E+03</pdfrwt>
<pdfrwt beam="2">  1       21 0.61124491E-01 0.70199126E+03</pdfrwt>
<totfact> 0.12569695E+03</totfact>
</mgrwt>
</event>
<event>
 5    0  0.1723834E+000  0.5642007E+03  0.7546771E-02  0.9982594E-01
         21   -1    0    0  503  501  0.00000000000E+00  0.00000000000E+00  0.12267403076E+03  0.12267403076E+03  0.00000000000E+00 0. -1.
         21   -1    0    0  504  502 -0.00000000000E+00 -0.00000000000E+00 -0.24343359635E+04  0.24343359635E+04  0.00000000000E+00 0.  1.
         25    1    1    2    0    0 -0.13808864113E+03 -0.22250371997E+03 -0.10374084482E+03  0.30816155032E+03  0.12500000000E+03 0.  0.
         21    1    1    2  503  502  0.40419016773E+02  0.62328628736E+02 -0.17807242012E+04  0.17822730530E+04  0.00000000000E+00 0.  1.
         21    1    1    2  504  501  0.97669624360E+02  0.16017509123E+03 -0.42719688672E+03  0.46657539091E+03  0.00000000000E+00 0.  1.
<mgrwt>
<rscale>  4 0.56420072E+03</rscale>
<asrwt>0</asrwt>
<pdfrwt beam="1">  1       21 0.18872929E-01 0.56420072E+03</pdfrwt>
<pdfrwt beam="2">  1       21 0.37451320E+00 0.56420072E+03</pdfrwt>
<totfact> 0.23151702E+02</totfact>
</mgrwt>
</event>
<event>
 5    0  0.1723834E+000  0.4907191E+03  0.7546771E-02  0.1016230E+00
         21   -1    0    0  503  501  0.00000000000E+00  0.00000000000E+00  0.60820595597E+02  0.60820595597E+02  0.00000000000E+00 0.  1.
         21   -1    0    0  504  502 -0.00000000000E+00 -0.00000000000E+00 -0.11573041010E+04  0.11573041010E+04  0.00000000000E+00 0.  1.
         25    1    1    2    0    0 -0.62686794084E+02  0.23719454404E+03 -0.58690798358E+03  0.64828764223E+03  0.12500000000E+03 0.  0.
         21    1    1    2  503  502  0.76778934278E+02 -0.20119656662E+03 -0.44908939141E+03  0.49805255209E+03  0.00000000000E+00 0.  1.
         21    1    1    2  504  501 -0.14092140194E+02 -0.35997977425E+02 -0.60486130368E+02  0.71784502233E+02  0.00000000000E+00 0.  1.
<mgrwt>
<rscale>  4 0.49071915E+03</rscale>
<asrwt>0</asrwt>
<pdfrwt beam="1">  1       21 0.93570152E-02 0.49071915E+03</pdfrwt>
<pdfrwt beam="2">  1       21 0.17804678E+00 0.49071915E+03</pdfrwt>
<totfact> 0.14927024E+04</totfact>
</mgrwt>
</event>
<event>
 5    0  0.1723834E+000  0.4542020E+03  0.7546771E-02  0.1026476E+00
         21   -1    0    0  503  501  0.00000000000E+00  0.00000000000E+00  0.57804644661E+03  0.57804644661E+03  0.00000000000E+00 0.  1.
         21   -1    0    0  504  502 -0.00000000000E+00 -0.00000000000E+00 -0.10712173952E+04  0.10712173952E+04  0.00000000000E+00 0.  1.
         25    1    1    2    0    0  0.14310589549E+03  0.16415129704E+03  0.25230711882E+03  0.35596183483E+03  0.12500000000E+03 0.  0.
         21    1    1    2  503  502 -0.18595974121E+03  0.34056330815E+02 -0.97145336525E+03  0.98967797787E+03  0.00000000000E+00 0.  1.
         21    1    1    2  504  501  0.42853845722E+02 -0.19820762785E+03  0.22597529782E+03  0.30362402912E+03  0.00000000000E+00 0. -1.
<mgrwt>
<rscale>  4 0.45420198E+03</rscale>
<asrwt>0</asrwt>
<pdfrwt beam="1">  1       21 0.88930224E-01 0.45420198E+03</pdfrwt>
<pdfrwt beam="2">  1       21 0.16480267E+00 0.45420198E+03</pdfrwt>
<totfact> 0.20400692E+02</totfact>
</mgrwt>
</event>
<event>
 5    0  0.1723834E+000  0.4021378E+03  0.7546771E-02  0.1043042E+00
         21   -1    0    0  503  501  0.00000000000E+00  0.00000000000E+00  0.55661517841E+03  0.55661517841E+03  0.00000000000E+00 0. -1.
         21   -1    0    0  504  502 -0.00000000000E+00 -0.00000000000E+00 -0.24526887322E+03  0.24526887322E+03  0.00000000000E+00 0.  1.
         25    1    1    2    0    0 -0.92385646688E+02  0.21026089667E+03  0.38623790048E+03  0.46642198506E+03  0.12500000000E+03 0.  0.
         21    1    1    2  503  502  0.36076537392E+01 -0.12379062496E+03  0.72018337780E+02  0.14326121237E+03  0.00000000000E+00 0.  1.
         21    1    1    2  504  501  0.88777992949E+02 -0.86470271716E+02 -0.14690993306E+03  0.19220085420E+03  0.00000000000E+00 0.  1.
<mgrwt>
<rscale>  4 0.40213781E+03</rscale>
<asrwt>0</asrwt>
<pdfrwt beam="1">  1       21 0.85633104E-01 0.40213781E+03</pdfrwt>
<pdfrwt beam="2">  1       21 0.37733673E-01 0.40213781E+03</pdfrwt>
<totfact> 0.71772209E+03</totfact>
</mgrwt>
</event>
<event>
 5    0  0.1723834E+000  0.5303704E+03  0.7546771E-02  0.1006142E+00
         21   -1    0    0  503  501  0.00000000000E+00  0.00000000000E+00  0.18903747687E+03  0.18903747687E+03  0.00000000000E+00 0. -1.
         21   -1    0    0  504  502 -0.00000000000E+00 -0.00000000000E+00 -0.12498482778E+04  0.12498482778E+04  0.00000000000E+00 0.  1.
         25    1    1    2    0    0  0.28500868100E+03  0.16111328553E+03 -0.12608030311E+03  0.37243614466E+03  0.12500000000E+03 0.  0.
         21    1    1    2  503  502 -0.16722936859E+03  0.54938063748E+02 -0.11421480428E+03  0.20983058424E+03  0.00000000000E+00 0.  1.
         21    1    1    2  504  501 -0.11777931241E+03 -0.21605134928E+03 -0.82051569353E+03  0.85661902576E+03  0.00000000000E+00 0.  1.
<mgrwt>
<rscale>  4 0.53037044E+03</rscale>
<asrwt>0</asrwt>
<pdfrwt beam="1">  1       21 0.29082689E-01 0.53037044E+03</pdfrwt>
<pdfrwt beam="2">  1       21 0.19228435E+00 0.53037044E+03</pdfrwt>
<totfact> 0.13908305E+03</totfact>
</mgrwt>
</event>
<event>
 5    0  0.1723834E+000  0.9028102E+03  0.7546771E-02  0.9422075E-01
         21   -1    0    0  503  501  0.00000000000E+00  0.00000000000E+00  0.22619056603E+03  0.22619056603E+03  0.00000000000E+00 0.  1.
         21   -1    0    0  504  502 -0.00000000000E+00 -0.00000000000E+00 -0.97033508703E+03  0.97033508703E+03  0.00000000000E+00 0. -1.
         25    1    1    2    0    0 -0.98894252560E+02 -0.23389906469E+03 -0.82103114487E+03  0.86845033623E+03  0.12500000000E+03 0.  0.
         21    1    1    2  503  502  0.11224168108E+03  0.20907262194E+03  0.12806490588E+03  0.26964824556E+03  0.00000000000E+00 0.  1.
         21    1    1    2  504  501 -0.13347428519E+02  0.24826442747E+02 -0.51178282003E+02  0.58427071262E+02  0.00000000000E+00 0. -1.
<mgrwt>
<rscale>  4 0.90281015E+03</rscale>
<asrwt>0</asrwt>
<pdfrwt beam="1">  1       21 0.34798549E-01 0.90281015E+03</pdfrwt>
<pdfrwt beam="2">  1       21 0.14928232E+00 0.90281015E+03</pdfrwt>
<totfact> 0.18291708E+03</totfact>
</mgrwt>
</event>
<event>
 5    0  0.1723834E+000  0.5400487E+03  0.7546771E-02  0.1003824E+00
         21   -1    0    0  503  501  0.00000000000E+00  0.00000000000E+00  0.66123479523E+03  0.66123479523E+03  0.00000000000E+00 0.  1.
         21   -1    0    0  504  502 -0.00000000000E+00 -0.00000000000E+00 -0.60978356856E+03  0.60978356856E+03  0.00000000000E+00 0.  1.
         25    1    1    2    0    0 -0.84347500314E+02 -0.19914325800E+03  0.12783015539E+03  0.28060307668E+03  0.12500000000E+03 0.  0.
         21    1    1    2  503  502  0.66379121183E+02  0.24021284538E+03  0.42196232381E+03  0.49006183440E+03  0.00000000000E+00 0.  1.
         21    1    1    2  504  501  0.17968379131E+02 -0.41069587380E+02 -0.49834125253E+03  0.50035345270E+03  0.00000000000E+00 0.  1.
<mgrwt>
<rscale>  4 0.54004873E+03</rscale>
<asrwt>0</asrwt>
<pdfrwt beam="1">  1       21 0.10172843E+00 0.54004873E+03</pdfrwt>
<pdfrwt beam="2">  1       21 0.93812857E-01 0.54004873E+03</pdfrwt>
<totfact> 0.61040345E+02</totfact>
</mgrwt>
</event>
<event>
 5    0  0.1723834E+000  0.5000632E+03  0.7546771E-02  0.1013762E+00
         21   -1    0    0  503  501  0.00000000000E+00  0.00000000000E+00  0.30093134570E+03  0.30093134570E+03  0.00000000000E+00 0. -1.
         21   -1    0    0  504  502 -0.00000000000E+00 -0.00000000000E+00 -0.11195781608E+04  0.11195781608E+04  0.00000000000E+00 0.  1.
         25    1    1    2    0    0 -0.11373269191E+03 -0.18816576674E+03  0.20828878565E+03  0.32764416553E+03  0.12500000000E+03 0.  0.
         21    1    1    2  503  502 -0.67050803471E+02  0.94577307081E+02 -0.13479255308E+03  0.17779119671E+03  0.00000000000E+00 0.  1.
         21    1    1    2  504  501  0.18078349539E+03  0.93588459655E+02 -0.89214304766E+03  0.91507414425E+03  0.00000000000E+00 0.  1.
<mgrwt>
<rscale>  4 0.50006321E+03</rscale>
<asrwt>0</asrwt>
<pdfrwt beam="1">  1       21 0.46297129E-01 0.50006321E+03</pdfrwt>
<pdfrwt beam="2">  1       21 0.17224280E+00 0.50006321E+03</pdfrwt>
<totfact> 0.75280114E+02</totfact>
</mgrwt>
</event>
<event>
 5    0  0.1723834E+000  0.4995411E+03  0.7546771E-02  0.1013899E+00
         21   -1    0    0  503  501  0.00000000000E+00  0.00000000000E+00  0.71275153397E+03  0.71275153397E+03  0.00000000000E+00 0.  1.
         21   -1    0    0  504  502 -0.00000000000E+00 -0.00000000000E+00 -0.58339198904E+03  0.58339198904E+03  0.00000000000E+00 0.  1.
         25    1    1    2    0    0  0.11990016079E+03  0.19231630264E+03  0.36646403691E+03  0.44864518182E+03  0.12500000000E+03 0.  0.
         21    1    1    2  503  502 -0.14546867015E+03 -0.18845773803E+03  0.25838149461E+03  0.35133808473E+03  0.00000000000E+00 0.  1.
         21    1    1    2  504  501  0.25568509364E+02 -0.38585646093E+01 -0.49548598659E+03  0.49616025647E+03  0.00000000000E+00 0.  1.
<mgrwt>
<rscale>  4 0.49954108E+03</rscale>
<asrwt>0</asrwt>
<pdfrwt beam="1">  1       21 0.10965408E+00 0.49954108E+03</pdfrwt>
<pdfrwt beam="2">  1       21 0.89752614E-01 0.49954108E+03</pdfrwt>
<totfact> 0.57215663E+02</totfact>
</mgrwt>
</event>
<event>
 5    0  0.1723834E+000  0.4340159E+03  0.7546771E-02  0.1032599E+00
         21   -1    0    0  503  501  0.00000000000E+00  0.00000000000E+00  0.35639727475E+03  0.35639727475E+03  0.00000000000E+00 0. -1.
         21   -1    0    0  504  502 -0.00000000000E+00 -0.00000000000E+00 -0.15457417228E+03  0.15457417228E+03  0.00000000000E+00 0.  1.
         25    1    1    2    0    0 -0.11868858517E+03 -0.16807127544E+03  0.17425446627E+03  0.29719446983E+03  0.12500000000E+03 0.  0.
         21    1    1    2  503  502  0.10652954479E+03  0.14838392601E+03  0.40738437598E+02  0.18715222069E+03  0.00000000000E+00 0.  1.
         21    1    1    2  504  501  0.12159040388E+02  0.19687349435E+02 -0.13169801391E+02  0.26624756518E+02  0.00000000000E+00 0.  1.
<mgrwt>
<rscale>  4 0.43401586E+03</rscale>
<asrwt>0</asrwt>
<pdfrwt beam="1">  1       21 0.54830350E-01 0.43401586E+03</pdfrwt>
<pdfrwt beam="2">  1       21 0.23780642E-01 0.43401586E+03</pdfrwt>
<totfact> 0.48293445E+04</totfact>
</mgrwt>
</event>
<event>
 5    0  0.1723834E+000  0.3274940E+03  0.7546771E-02  0.1072251E+00
         21   -1    0    0  503  501  0.00000000000E+00  0.00000000000E+00  0.18125861731E+03  0.18125861731E+03  0.00000000000E+00 0. -1.
         21   -1    0    0  504  502 -0.00000000000E+00 -0.00000000000E+00 -0.68672461399E+03  0.68672461399E+03  0.00000000000E+00 0.  1.
         25    1    1    2    0    0 -0.19594603167E+03  0.52355981514E+02 -0.60786690697E+02  0.24587805493E+03  0.12500000000E+03 0.  0.
         21    1    1    2  503  502  0.30834056391E+02  0.45049938635E+02  0.60670729906E+02  0.81616012349E+02  0.00000000000E+00 0. -1.
         21    1    1    2  504  501  0.16511197528E+03 -0.97405920149E+02 -0.50535003588E+03  0.54048916402E+03  0.00000000000E+00 0.  1.
<mgrwt>
<rscale>  4 0.32749405E+03</rscale>
<asrwt>0</asrwt>
<pdfrwt beam="1">  1       21 0.27885941E-01 0.32749405E+03</pdfrwt>
<pdfrwt beam="2">  1       21 0.10564994E+00 0.32749405E+03</pdfrwt>
<totfact> 0.81867821E+03</totfact>
</mgrwt>
</event>
<event>
 5    0  0.1723834E+000  0.3714744E+03  0.7546771E-02  0.1054131E+00
         21   -1    0    0  503  501  0.00000000000E+00  0.00000000000E+00  0.15847988552E+03  0.15847988552E+03  0.00000000000E+00 0. -1.
         21   -1    0    0  504  502 -0.00000000000E+00 -0.00000000000E+00 -0.19213759989E+04  0.19213759989E+04  0.00000000000E+00 0.  1.
         25    1    1    2    0    0  0.10906082228E+03  0.16792212190E+03 -0.18286600644E+02  0.23675198361E+03  0.12500000000E+03 0.  0.
         21    1    1    2  503  502 -0.42615383157E+02 -0.12593742606E+03 -0.43076533800E+02  0.13975655237E+03  0.00000000000E+00 0. -1.
         21    1    1    2  504  501 -0.66445439125E+02 -0.41984695840E+02 -0.17015329790E+04  0.17033473485E+04  0.00000000000E+00 0.  1.
<mgrwt>
<rscale>  4 0.37147442E+03</rscale>
<asrwt>0</asrwt>
<pdfrwt beam="1">  1       21 0.24381522E-01 0.37147442E+03</pdfrwt>
<pdfrwt beam="2">  1       21 0.29559629E+00 0.37147442E+03</pdfrwt>
<totfact> 0.48159805E+02</totfact>
</mgrwt>
</event>
<event>
 5    0  0.1723834E+000  0.4471470E+03  0.7546771E-02  0.1028576E+00
         21   -1    0    0  503  501  0.00000000000E+00  0.00000000000E+00  0.61013120426E+03  0.61013120426E+03  0.00000000000E+00 0.  1.
         21   -1    0    0  504  502 -0.00000000000E+00 -0.00000000000E+00 -0.19621740050E+03  0.19621740050E+03  0.00000000000E+00 0.  1.
         25    1    1    2    0    0 -0.19477691324E+03 -0.63656453312E+02  0.11506548262E+03  0.26618650467E+03  0.12500000000E+03 0.  0.
         21    1    1    2  503  502  0.70653320155E+02  0.79163382431E+02 -0.85311491765E+02  0.13614985639E+03  0.00000000000E+00 0.  1.
         21    1    1    2  504  501  0.12412359308E+03 -0.15506929119E+02  0.38415981290E+03  0.40401224370E+03  0.00000000000E+00 0.  1.
<mgrwt>
<rscale>  4 0.44714703E+03</rscale>
<asrwt>0</asrwt>
<pdfrwt beam="1">  1       21 0.93866338E-01 0.44714703E+03</pdfrwt>
<pdfrwt beam="2">  1       21 0.30187293E-01 0.44714703E+03</pdfrwt>
<totfact> 0.89199347E+03</totfact>
</mgrwt>
</event>
<event>
 5    0  0.1723834E+000  0.5767706E+03  0.7546771E-02  0.9954807E-01
         21   -1    0    0  503  501  0.00000000000E+00  0.00000000000E+00  0.47047469355E+03  0.47047469355E+03  0.00000000000E+00 0.  1.
         21   -1    0    0  504  502 -0.00000000000E+00 -0.00000000000E+00 -0.27636474104E+03  0.27636474104E+03  0.00000000000E+00 0.  1.
         25    1    1    2    0    0  0.22709728723E+03 -0.18197452941E+03  0.17810017625E+03  0.36336287648E+03  0.12500000000E+03 0.  0.
         21    1    1    2  503  502  0.11230235724E+02  0.85449954190E+02 -0.71373629372E+02  0.11190177762E+03  0.00000000000E+00 0.  1.
         21    1    1    2  504  501 -0.23832752296E+03  0.96524575217E+02  0.87383405632E+02  0.27157478049E+03  0.00000000000E+00 0.  1.
<mgrwt>
<rscale>  4 0.57677057E+03</rscale>
<asrwt>0</asrwt>
<pdfrwt beam="1">  1       21 0.72380722E-01 0.57677057E+03</pdfrwt>
<pdfrwt beam="2">  1       21 0.42517653E-01 0.57677057E+03</pdfrwt>
<totfact> 0.78657835E+03</totfact>
</mgrwt>
</event>
<event>
 5    0  0.1723834E+000  0.5823826E+03  0.7546771E-02  0.9942646E-01
         21   -1    0    0  503  501  0.00000000000E+00  0.00000000000E+00  0.57078291995E+03  0.57078291995E+03  0.00000000000E+00 0. -1.
         21   -1    0    0  504  502 -0.00000000000E+00 -0.00000000000E+00 -0.24991206154E+03  0.24991206154E+03  0.00000000000E+00 0. -1.
         25    1    1    2    0    0  0.23114112839E+03 -0.15900068318E+03  0.23637746284E+03  0.38756514733E+03  0.12500000000E+03 0.  0.
         21    1    1    2  503  502 -0.22146300474E+02 -0.19332654801E+02 -0.98654168827E+02  0.10294102774E+03  0.00000000000E+00 0. -1.
         21    1    1    2  504  501 -0.20899482792E+03  0.17833333798E+03  0.18314756440E+03  0.33018880641E+03  0.00000000000E+00 0. -1.
<mgrwt>
<rscale>  4 0.58238260E+03</rscale>
<asrwt>0</asrwt>
<pdfrwt beam="1">  1       21 0.87812757E-01 0.58238260E+03</pdfrwt>
<pdfrwt beam="2">  1       21 0.38448010E-01 0.58238260E+03</pdfrwt>
<totfact> 0.61770582E+03</totfact>
</mgrwt>
</event>
<event>
 5    0  0.1723834E+000  0.5890361E+03  0.7546771E-02  0.9928417E-01
         21   -1    0    0  503  501  0.00000000000E+00  0.00000000000E+00  0.73974337424E+03  0.73974337424E+03  0.00000000000E+00 0. -1.
         21   -1    0    0  504  502 -0.00000000000E+00 -0.00000000000E+00 -0.29110644563E+03  0.29110644563E+03  0.00000000000E+00 0.  1.
         25    1    1    2    0    0 -0.19666835871E+03 -0.12999288734E+03  0.40978449332E+03  0.48900401331E+03  0.12500000000E+03 0.  0.
         21    1    1    2  503  502  0.24387474772E+03  0.17304748295E+03  0.20585542114E+03  0.36303826017E+03  0.00000000000E+00 0. -1.
         21    1    1    2  504  501 -0.47206389016E+02 -0.43054595611E+02 -0.16700298584E+03  0.17880754639E+03  0.00000000000E+00 0.  1.
<mgrwt>
<rscale>  4 0.58903610E+03</rscale>
<asrwt>0</asrwt>
<pdfrwt beam="1">  1       21 0.11380667E+00 0.58903610E+03</pdfrwt>
<pdfrwt beam="2">  1       21 0.44785607E-01 0.58903610E+03</pdfrwt>
<totfact> 0.23803092E+03</totfact>
</mgrwt>
</event>
<event>
 5    0  0.1723834E+000  0.4691945E+03  0.7546771E-02  0.1022148E+00
         21   -1    0    0  503  501  0.00000000000E+00  0.00000000000E+00  0.69952378456E+03  0.69952378456E+03  0.00000000000E+00 0. -1.
         21   -1    0    0  504  502 -0.00000000000E+00 -0.00000000000E+00 -0.51204347976E+03  0.51204347976E+03  0.00000000000E+00 0. -1.
         25    1    1    2    0    0  0.32474322942E+02  0.22105618451E+03  0.19552226730E+03  0.32214030386E+03  0.12500000000E+03 0.  0.
         21    1    1    2  503  502 -0.28854219968E+02 -0.41931580456E+03 -0.31412799828E+03  0.52472345981E+03  0.00000000000E+00 0. -1.
         21    1    1    2  504  501 -0.36201029737E+01  0.19825962005E+03  0.30608603578E+03  0.36470350065E+03  0.00000000000E+00 0. -1.
<mgrwt>
<rscale>  4 0.46919455E+03</rscale>
<asrwt>0</asrwt>
<pdfrwt beam="1">  1       21 0.10761904E+00 0.46919455E+03</pdfrwt>
<pdfrwt beam="2">  1       21 0.78775920E-01 0.46919455E+03</pdfrwt>
<totfact> 0.82325237E+02</totfact>
</mgrwt>
</event>
<event>
 5    0  0.1723834E+000  0.8606442E+03  0.7546771E-02  0.9476161E-01
         21   -1    0    0  503  501  0.00000000000E+00  0.00000000000E+00  0.15476814266E+03  0.15476814266E+03  0.00000000000E+00 0.  1.
         21   -1    0    0  504  502 -0.00000000000E+00 -0.00000000000E+00 -0.12739715051E+04  0.12739715051E+04  0.00000000000E+00 0. -1.
         25    1    1    2    0    0 -0.31541617852E+02  0.37417669043E+03 -0.26235551614E+03  0.47482468993E+03  0.12500000000E+03 0.  0.
         21    1    1    2  503  502 -0.23168591277E+00  0.21307218796E+02 -0.61724958701E+02  0.65299477623E+02  0.00000000000E+00 0. -1.
         21    1    1    2  504  501  0.31773303765E+02 -0.39548390922E+03 -0.79512288763E+03  0.88861548023E+03  0.00000000000E+00 0. -1.
<mgrwt>
<rscale>  4 0.86064425E+03</rscale>
<asrwt>0</asrwt>
<pdfrwt beam="1">  1       21 0.23810484E-01 0.86064425E+03</pdfrwt>
<pdfrwt beam="2">  1       21 0.19599561E+00 0.86064425E+03</pdfrwt>
<totfact> 0.17759847E+03</totfact>
</mgrwt>
</event>
<event>
 5    0  0.1723834E+000  0.6450348E+03  0.7546771E-02  0.9816141E-01
         21   -1    0    0  503  501  0.00000000000E+00  0.00000000000E+00  0.12423113993E+03  0.12423113993E+03  0.00000000000E+00 0. -1.
         21   -1    0    0  504  502 -0.00000000000E+00 -0.00000000000E+00 -0.21759373336E+04  0.21759373336E+04  0.00000000000E+00 0.  1.
         25    1    1    2    0    0  0.79754777868E+02  0.21499249071E+03 -0.55478324758E+03  0.61318190405E+03  0.12500000000E+03 0.  0.
         21    1    1    2  503  502  0.36334161179E+02  0.76354578230E+02 -0.13281419147E+04  0.13308309955E+04  0.00000000000E+00 0.  1.
         21    1    1    2  504  501 -0.11608893905E+03 -0.29134706894E+03 -0.16878103137E+03  0.35615557401E+03  0.00000000000E+00 0. -1.
<mgrwt>
<rscale>  4 0.64503479E+03</rscale>
<asrwt>0</asrwt>
<pdfrwt beam="1">  1       21 0.19112482E-01 0.64503479E+03</pdfrwt>
<pdfrwt beam="2">  1       21 0.33475961E+00 0.64503479E+03</pdfrwt>
<totfact> 0.38541911E+02</totfact>
</mgrwt>
</event>
<event>
 5    0  0.1723834E+000  0.5069456E+03  0.7546771E-02  0.1011982E+00
         21   -1    0    0  503  501  0.00000000000E+00  0.00000000000E+00  0.41478247429E+03  0.41478247429E+03  0.00000000000E+00 0.  1.
         21   -1    0    0  504  502 -0.00000000000E+00 -0.00000000000E+00 -0.91265449534E+03  0.91265449534E+03  0.00000000000E+00 0.  1.
         25    1    1    2    0    0 -0.88220631681E+02 -0.23282996543E+03  0.23030102990E+03  0.36146401899E+03  0.12500000000E+03 0.  0.
         21    1    1    2  503  502  0.88867177581E+02  0.18560197785E+03  0.28572943176E+02  0.20775438026E+03  0.00000000000E+00 0.  1.
         21    1    1    2  504  501 -0.64654590044E+00  0.47227987574E+02 -0.75674599413E+03  0.75821857038E+03  0.00000000000E+00 0.  1.
<mgrwt>
<rscale>  4 0.50694561E+03</rscale>
<asrwt>0</asrwt>
<pdfrwt beam="1">  1       21 0.63812690E-01 0.50694561E+03</pdfrwt>
<pdfrwt beam="2">  1       21 0.14040838E+00 0.50694561E+03</pdfrwt>
<totfact> 0.66044428E+02</totfact>
</mgrwt>
</event>
<event>
 5    0  0.1723834E+000  0.4287691E+03  0.7546771E-02  0.1034250E+00
         21   -1    0    0  503  501  0.00000000000E+00  0.00000000000E+00  0.27647385603E+03  0.27647385603E+03  0.00000000000E+00 0. -1.
         21   -1    0    0  504  502 -0.00000000000E+00 -0.00000000000E+00 -0.36451494443E+03  0.36451494443E+03  0.00000000000E+00 0. -1.
         25    1    1    2    0    0  0.18389174150E+03  0.11962460415E+03  0.98266262870E+02  0.27093814226E+03  0.12500000000E+03 0.  0.
         21    1    1    2  503  502 -0.72366286152E+02  0.75604229368E+01 -0.18725202239E+03  0.20089141160E+03  0.00000000000E+00 0. -1.
         21    1    1    2  504  501 -0.11152545535E+03 -0.12718502709E+03  0.94467111690E+00  0.16915924660E+03  0.00000000000E+00 0. -1.
<mgrwt>
<rscale>  4 0.42876905E+03</rscale>
<asrwt>0</asrwt>
<pdfrwt beam="1">  1       21 0.42534439E-01 0.42876905E+03</pdfrwt>
<pdfrwt beam="2">  1       21 0.56079222E-01 0.42876905E+03</pdfrwt>
<totfact> 0.14393374E+04</totfact>
</mgrwt>
</event>
<event>
 5    0  0.1723834E+000  0.4876572E+03  0.7546771E-02  0.1017052E+00
         21   -1    0    0  503  501  0.00000000000E+00  0.00000000000E+00  0.39148323336E+03  0.39148323336E+03  0.00000000000E+00 0.  1.
         21   -1    0    0  504  502 -0.00000000000E+00 -0.00000000000E+00 -0.35573677839E+03  0.35573677839E+03  0.00000000000E+00 0.  1.
         25    1    1    2    0    0  0.39106776612E+02  0.21300185048E+03  0.30173176080E+03  0.39187521453E+03  0.12500000000E+03 0.  0.
         21    1    1    2  503  502  0.20008882029E+02 -0.12824425217E+03 -0.17340662549E+03  0.21660286549E+03  0.00000000000E+00 0.  1.
         21    1    1    2  504  501 -0.59115658641E+02 -0.84757598313E+02 -0.92578680338E+02  0.13874193173E+03  0.00000000000E+00 0. -1.
<mgrwt>
<rscale>  4 0.48765720E+03</rscale>
<asrwt>0</asrwt>
<pdfrwt beam="1">  1       21 0.60228190E-01 0.48765720E+03</pdfrwt>
<pdfrwt beam="2">  1       21 0.54728735E-01 0.48765720E+03</pdfrwt>
<totfact> 0.71024978E+03</totfact>
</mgrwt>
</event>
<event>
 5    0  0.1723834E+000  0.4865753E+03  0.7546771E-02  0.1017344E+00
         21   -1    0    0  503  501  0.00000000000E+00  0.00000000000E+00  0.36681516995E+03  0.36681516995E+03  0.00000000000E+00 0.  1.
         21   -1    0    0  504  502 -0.00000000000E+00 -0.00000000000E+00 -0.60990375643E+03  0.60990375643E+03  0.00000000000E+00 0.  1.
         25    1    1    2    0    0  0.19164627685E+03 -0.14146643402E+03  0.84041656704E+02  0.28183159413E+03  0.12500000000E+03 0.  0.
         21    1    1    2  503  502 -0.63345079230E+02 -0.30810792551E+02 -0.44454255230E+03  0.45008886323E+03  0.00000000000E+00 0.  1.
         21    1    1    2  504  501 -0.12830119762E+03  0.17227722657E+03  0.11741230912E+03  0.24479846903E+03  0.00000000000E+00 0.  1.
<mgrwt>
<rscale>  4 0.48657530E+03</rscale>
<asrwt>0</asrwt>
<pdfrwt beam="1">  1       21 0.56433104E-01 0.48657530E+03</pdfrwt>
<pdfrwt beam="2">  1       21 0.93831345E-01 0.48657530E+03</pdfrwt>
<totfact> 0.24087855E+03</totfact>
</mgrwt>
</event>
<event>
 5    0  0.1723834E+000  0.6243994E+03  0.7546771E-02  0.9856039E-01
         21   -1    0    0  503  501  0.00000000000E+00  0.00000000000E+00  0.36807091863E+03  0.36807091863E+03  0.00000000000E+00 0. -1.
         21   -1    0    0  504  502 -0.00000000000E+00 -0.00000000000E+00 -0.79678540869E+03  0.79678540869E+03  0.00000000000E+00 0.  1.
         25    1    1    2    0    0  0.67854956752E+02 -0.20180152127E+03  0.29145642526E+03  0.38196858112E+03  0.12500000000E+03 0.  0.
         21    1    1    2  503  502 -0.79156568518E+02  0.46090166913E+02 -0.52512842374E+03  0.53305715195E+03  0.00000000000E+00 0.  1.
         21    1    1    2  504  501  0.11301611766E+02  0.15571135436E+03 -0.19504249157E+03  0.24983059425E+03  0.00000000000E+00 0.  1.
<mgrwt>
<rscale>  4 0.62439935E+03</rscale>
<asrwt>0</asrwt>
<pdfrwt beam="1">  1       21 0.56626296E-01 0.62439935E+03</pdfrwt>
<pdfrwt beam="2">  1       21 0.12258237E+00 0.62439935E+03</pdfrwt>
<totfact> 0.11795816E+03</totfact>
</mgrwt>
</event>
<event>
 5    0  0.1723834E+000  0.4325598E+03  0.7546771E-02  0.1033054E+00
         21   -1    0    0  503  501  0.00000000000E+00  0.00000000000E+00  0.56710192891E+03  0.56710192891E+03  0.00000000000E+00 0.  1.
         21   -1    0    0  504  502 -0.00000000000E+00 -0.00000000000E+00 -0.42408591551E+03  0.42408591551E+03  0.00000000000E+00 0.  1.
         25    1    1    2    0    0  0.19946041748E+03 -0.18065573482E+03  0.31650857851E+03  0.43384747658E+03  0.12500000000E+03 0.  0.
         21    1    1    2  503  502 -0.88170381643E+02 -0.97958515518E+02  0.88728457452E+02  0.15887928161E+03  0.00000000000E+00 0. -1.
         21    1    1    2  504  501 -0.11129003583E+03  0.27861425034E+03 -0.26222102256E+03  0.39846108623E+03  0.00000000000E+00 0.  1.
<mgrwt>
<rscale>  4 0.43255977E+03</rscale>
<asrwt>0</asrwt>
<pdfrwt beam="1">  1       21 0.87246450E-01 0.43255977E+03</pdfrwt>
<pdfrwt beam="2">  1       21 0.65243987E-01 0.43255977E+03</pdfrwt>
<totfact> 0.21225654E+03</totfact>
</mgrwt>
</event>
<event>
 5    0  0.1723834E+000  0.5061782E+03  0.7546771E-02  0.1012179E+00
         21   -1    0    0  503  501  0.00000000000E+00  0.00000000000E+00  0.10635490033E+03  0.10635490033E+03  0.00000000000E+00 0. -1.
         21   -1    0    0  504  502 -0.00000000000E+00 -0.00000000000E+00 -0.78989518452E+03  0.78989518452E+03  0.00000000000E+00 0. -1.
         25    1    1    2    0    0  0.16458381774E+03 -0.12127078125E+03 -0.36494037009E+03  0.43657864030E+03  0.12500000000E+03 0.  0.
         21    1    1    2  503  502  0.23490243514E+02 -0.30866609870E+02 -0.17307483404E+03  0.17736808428E+03  0.00000000000E+00 0.  1.
         21    1    1    2  504  501 -0.18807406125E+03  0.15213739112E+03 -0.14552508006E+03  0.28230336027E+03  0.00000000000E+00 0. -1.
<mgrwt>
<rscale>  4 0.50617818E+03</rscale>
<asrwt>0</asrwt>
<pdfrwt beam="1">  1       21 0.16362293E-01 0.50617818E+03</pdfrwt>
<pdfrwt beam="2">  1       21 0.12152233E+00 0.50617818E+03</pdfrwt>
<totfact> 0.15086534E+04</totfact>
</mgrwt>
</event>
<event>
 5    0  0.1723834E+000  0.6031004E+03  0.7546771E-02  0.9898994E-01
         21   -1    0    0  503  501  0.00000000000E+00  0.00000000000E+00  0.19643945574E+03  0.19643945574E+03  0.00000000000E+00 0. -1.
         21   -1    0    0  504  502 -0.00000000000E+00 -0.00000000000E+00 -0.89981979337E+03  0.89981979337E+03  0.00000000000E+00 0.  1.
         25    1    1    2    0    0  0.11515530188E+03 -0.18939795000E+03 -0.25169678316E+03  0.35792261408E+03  0.12500000000E+03 0.  0.
         21    1    1    2  503  502  0.10000066714E+03 -0.31804690036E+02 -0.41443630078E+03  0.42751505136E+03  0.00000000000E+00 0.  1.
         21    1    1    2  504  501 -0.21515596902E+03  0.22120264003E+03 -0.37247253694E+02  0.31082158366E+03  0.00000000000E+00 0. -1.
<mgrwt>
<rscale>  4 0.60310044E+03</rscale>
<asrwt>0</asrwt>
<pdfrwt beam="1">  1       21 0.30221454E-01 0.60310044E+03</pdfrwt>
<pdfrwt beam="2">  1       21 0.13843382E+00 0.60310044E+03</pdfrwt>
<totfact> 0.31963740E+03</totfact>
</mgrwt>
</event>
<event>
 5    0  0.1723834E+000  0.4398869E+03  0.7546771E-02  0.1030782E+00
         21   -1    0    0  503  501  0.00000000000E+00  0.00000000000E+00  0.35085308489E+03  0.35085308489E+03  0.00000000000E+00 0. -1.
         21   -1    0    0  504  502 -0.00000000000E+00 -0.00000000000E+00 -0.44078841121E+03  0.44078841121E+03  0.00000000000E+00 0.  1.
         25    1    1    2    0    0 -0.20215216773E+03  0.61290130811E+02  0.11778904026E+03  0.27225215712E+03  0.12500000000E+03 0.  0.
         21    1    1    2  503  502  0.17969949308E+03 -0.74244397253E+02  0.94412078109E+02  0.21614295924E+03  0.00000000000E+00 0. -1.
         21    1    1    2  504  501  0.22452674646E+02  0.12954266442E+02 -0.30213644468E+03  0.30324637974E+03  0.00000000000E+00 0.  1.
<mgrwt>
<rscale>  4 0.43988689E+03</rscale>
<asrwt>0</asrwt>
<pdfrwt beam="1">  1       21 0.53977398E-01 0.43988689E+03</pdfrwt>
<pdfrwt beam="2">  1       21 0.67813602E-01 0.43988689E+03</pdfrwt>
<totfact> 0.57081752E+03</totfact>
</mgrwt>
</event>
<event>
 5    0  0.1723834E+000  0.5283037E+03  0.7546771E-02  0.1006644E+00
         21   -1    0    0  503  501  0.00000000000E+00  0.00000000000E+00  0.19537903362E+03  0.19537903362E+03  0.00000000000E+00 0. -1.
         21   -1    0    0  504  502 -0.00000000000E+00 -0.00000000000E+00 -0.23794641983E+04  0.23794641983E+04  0.00000000000E+00 0. -1.
         25    1    1    2    0    0 -0.12777448328E+03  0.21979383676E+03 -0.20980897531E+02  0.28407894557E+03  0.12500000000E+03 0.  0.
         21    1    1    2  503  502 -0.32679906811E+01 -0.32657320578E+02 -0.20219549431E+04  0.20222212966E+04  0.00000000000E+00 0. -1.
         21    1    1    2  504  501  0.13104247396E+03 -0.18713651618E+03 -0.14114932398E+03  0.26854298973E+03  0.00000000000E+00 0. -1.
<mgrwt>
<rscale>  4 0.52830370E+03</rscale>
<asrwt>0</asrwt>
<pdfrwt beam="1">  1       21 0.30058313E-01 0.52830370E+03</pdfrwt>
<pdfrwt beam="2">  1       21 0.36607141E+00 0.52830370E+03</pdfrwt>
<totfact> 0.10784390E+02</totfact>
</mgrwt>
</event>
<event>
 5    0  0.1723834E+000  0.4558173E+03  0.7546771E-02  0.1026001E+00
         21   -1    0    0  503  501  0.00000000000E+00  0.00000000000E+00  0.28537545345E+03  0.28537545345E+03  0.00000000000E+00 0.  1.
         21   -1    0    0  504  502 -0.00000000000E+00 -0.00000000000E+00 -0.35381661808E+03  0.35381661808E+03  0.00000000000E+00 0.  1.
         25    1    1    2    0    0 -0.19472694842E+03  0.91876182463E+02 -0.16680863727E+02  0.24952568717E+03  0.12500000000E+03 0.  0.
         21    1    1    2  503  502  0.18794818307E+03 -0.89784084382E+01  0.10260465266E+03  0.21431949535E+03  0.00000000000E+00 0.  1.
         21    1    1    2  504  501  0.67787653404E+01 -0.82897774025E+02 -0.15436495357E+03  0.17534688901E+03  0.00000000000E+00 0.  1.
<mgrwt>
<rscale>  4 0.45581735E+03</rscale>
<asrwt>0</asrwt>
<pdfrwt beam="1">  1       21 0.43903916E-01 0.45581735E+03</pdfrwt>
<pdfrwt beam="2">  1       21 0.54433326E-01 0.45581735E+03</pdfrwt>
<totfact> 0.14260943E+04</totfact>
</mgrwt>
</event>
<event>
 5    0  0.1723834E+000  0.5518945E+03  0.7546771E-02  0.1001056E+00
         21   -1    0    0  503  501  0.00000000000E+00  0.00000000000E+00  0.74690202602E+02  0.74690202602E+02  0.00000000000E+00 0.  1.
         21   -1    0    0  504  502 -0.00000000000E+00 -0.00000000000E+00 -0.14799929844E+04  0.14799929844E+04  0.00000000000E+00 0.  1.
         25    1    1    2    0    0  0.74417464443E+02  0.26545835039E+03 -0.71034681736E+03  0.77215522775E+03  0.12500000000E+03 0.  0.
         21    1    1    2  503  502 -0.74717562199E+02 -0.21246133332E+03 -0.25842454160E+03  0.34279115502E+03  0.00000000000E+00 0.  1.
         21    1    1    2  504  501  0.30009775534E+00 -0.52997017073E+02 -0.43653142282E+03  0.43973680422E+03  0.00000000000E+00 0.  1.
<mgrwt>
<rscale>  4 0.55189446E+03</rscale>
<asrwt>0</asrwt>
<pdfrwt beam="1">  1       21 0.11490801E-01 0.55189446E+03</pdfrwt>
<pdfrwt beam="2">  1       21 0.22769122E+00 0.55189446E+03</pdfrwt>
<totfact> 0.47015191E+03</totfact>
</mgrwt>
</event>
<event>
 5    0  0.1723834E+000  0.7376444E+03  0.7546771E-02  0.9654936E-01
         21   -1    0    0  503  501  0.00000000000E+00  0.00000000000E+00  0.54928483743E+03  0.54928483743E+03  0.00000000000E+00 0. -1.
         21   -1    0    0  504  502 -0.00000000000E+00 -0.00000000000E+00 -0.29842907950E+03  0.29842907950E+03  0.00000000000E+00 0. -1.
         25    1    1    2    0    0  0.27267812301E+03 -0.17389182675E+03 -0.83345924068E+02  0.35659959231E+03  0.12500000000E+03 0.  0.
         21    1    1    2  503  502 -0.20460878806E+03  0.16094075606E+03  0.33186673543E+03  0.42178455780E+03  0.00000000000E+00 0. -1.
         21    1    1    2  504  501 -0.68069334947E+02  0.12951070687E+02  0.23349465768E+01  0.69329766822E+02  0.00000000000E+00 0.  1.
<mgrwt>
<rscale>  4 0.73764442E+03</rscale>
<asrwt>0</asrwt>
<pdfrwt beam="1">  1       21 0.84505359E-01 0.73764442E+03</pdfrwt>
<pdfrwt beam="2">  1       21 0.45912166E-01 0.73764442E+03</pdfrwt>
<totfact> 0.45126225E+03</totfact>
</mgrwt>
</event>
<event>
 5    0  0.1723834E+000  0.4245187E+03  0.7546771E-02  0.1035606E+00
         21   -1    0    0  503  501  0.00000000000E+00  0.00000000000E+00  0.13678883637E+04  0.13678883637E+04  0.00000000000E+00 0.  1.
         21   -1    0    0  504  502 -0.00000000000E+00 -0.00000000000E+00 -0.64637782724E+02  0.64637782724E+02  0.00000000000E+00 0. -1.
         25    1    1    2    0    0  0.89862848253E+02  0.23041417962E+03  0.87813254078E+03  0.92081908366E+03  0.12500000000E+03 0.  0.
         21    1    1    2  503  502 -0.66734240596E+02 -0.12871249047E+03  0.36161581216E+03  0.38959768951E+03  0.00000000000E+00 0. -1.
         21    1    1    2  504  501 -0.23128607657E+02 -0.10170168916E+03  0.63502228044E+02  0.12210937325E+03  0.00000000000E+00 0. -1.
<mgrwt>
<rscale>  4 0.42451872E+03</rscale>
<asrwt>0</asrwt>
<pdfrwt beam="1">  1       21 0.21044434E+00 0.42451872E+03</pdfrwt>
<pdfrwt beam="2">  1       21 0.99442753E-02 0.42451872E+03</pdfrwt>
<totfact> 0.82535631E+03</totfact>
</mgrwt>
</event>
<event>
 5    0  0.1723834E+000  0.4717852E+03  0.7546771E-02  0.1021418E+00
         21   -1    0    0  503  501  0.00000000000E+00  0.00000000000E+00  0.10599960568E+03  0.10599960568E+03  0.00000000000E+00 0. -1.
         21   -1    0    0  504  502 -0.00000000000E+00 -0.00000000000E+00 -0.64468420056E+03  0.64468420056E+03  0.00000000000E+00 0. -1.
         25    1    1    2    0    0 -0.14885082699E+03  0.15766800417E+03 -0.14640935882E+03  0.28995942576E+03  0.12500000000E+03 0.  0.
         21    1    1    2  503  502 -0.77046954334E+01 -0.30579700924E+02 -0.10578139887E+03  0.11038199485E+03  0.00000000000E+00 0. -1.
         21    1    1    2  504  501  0.15655552243E+03 -0.12708830325E+03 -0.28649383719E+03  0.35034238563E+03  0.00000000000E+00 0. -1.
<mgrwt>
<rscale>  4 0.47178516E+03</rscale>
<asrwt>0</asrwt>
<pdfrwt beam="1">  1       21 0.16307632E-01 0.47178516E+03</pdfrwt>
<pdfrwt beam="2">  1       21 0.99182185E-01 0.47178516E+03</pdfrwt>
<totfact> 0.25390112E+04</totfact>
</mgrwt>
</event>
<event>
 5    0  0.1723834E+000  0.4609276E+03  0.7546771E-02  0.1024513E+00
         21   -1    0    0  503  501  0.00000000000E+00  0.00000000000E+00  0.23649344761E+03  0.23649344761E+03  0.00000000000E+00 0. -1.
         21   -1    0    0  504  502 -0.00000000000E+00 -0.00000000000E+00 -0.36107305165E+03  0.36107305165E+03  0.00000000000E+00 0. -1.
         25    1    1    2    0    0  0.78575182204E+02  0.19889371236E+03  0.54268762632E+02  0.25358009912E+03  0.12500000000E+03 0.  0.
         21    1    1    2  503  502 -0.21152234933E+02 -0.44647576092E+01 -0.13480311207E+03  0.13652556584E+03  0.00000000000E+00 0. -1.
         21    1    1    2  504  501 -0.57422947270E+02 -0.19442895475E+03 -0.44045254600E+02  0.20746083430E+03  0.00000000000E+00 0. -1.
<mgrwt>
<rscale>  4 0.46092757E+03</rscale>
<asrwt>0</asrwt>
<pdfrwt beam="1">  1       21 0.36383607E-01 0.46092757E+03</pdfrwt>
<pdfrwt beam="2">  1       21 0.55549700E-01 0.46092757E+03</pdfrwt>
<totfact> 0.20076410E+04</totfact>
</mgrwt>
</event>
<event>
 5    0  0.1723834E+000  0.5239815E+03  0.7546771E-02  0.1007702E+00
         21   -1    0    0  503  501  0.00000000000E+00  0.00000000000E+00  0.55914821466E+03  0.55914821466E+03  0.00000000000E+00 0.  1.
         21   -1    0    0  504  502 -0.00000000000E+00 -0.00000000000E+00 -0.35107325990E+03  0.35107325990E+03  0.00000000000E+00 0.  1.
         25    1    1    2    0    0 -0.50017357349E+02 -0.37925313245E+03  0.47747983648E+02  0.40526478313E+03  0.12500000000E+03 0.  0.
         21    1    1    2  503  502  0.11655674813E+03  0.26077236480E+02  0.40358151817E+02  0.12607251173E+03  0.00000000000E+00 0. -1.
         21    1    1    2  504  501 -0.66539390778E+02  0.35317589597E+03  0.11996881929E+03  0.37888417969E+03  0.00000000000E+00 0.  1.
<mgrwt>
<rscale>  4 0.52398152E+03</rscale>
<asrwt>0</asrwt>
<pdfrwt beam="1">  1       21 0.86022802E-01 0.52398152E+03</pdfrwt>
<pdfrwt beam="2">  1       21 0.54011271E-01 0.52398152E+03</pdfrwt>
<totfact> 0.32175539E+03</totfact>
</mgrwt>
</event>
<event>
 5    0  0.1723834E+000  0.4334212E+03  0.7546771E-02  0.1032785E+00
         21   -1    0    0  503  501  0.00000000000E+00  0.00000000000E+00  0.39511886788E+02  0.39511886788E+02  0.00000000000E+00 0.  1.
         21   -1    0    0  504  502 -0.00000000000E+00 -0.00000000000E+00 -0.13246346754E+04  0.13246346754E+04  0.00000000000E+00 0.  1.
         25    1    1    2    0    0 -0.20234836628E+03  0.27515434543E+02 -0.73573721771E+03  0.77371584836E+03  0.12500000000E+03 0.  0.
         21    1    1    2  503  502  0.16203673089E+02  0.14014805417E+02 -0.99636872823E+02  0.10191408253E+03  0.00000000000E+00 0.  1.
         21    1    1    2  504  501  0.18614469319E+03 -0.41530239960E+02 -0.44974869807E+03  0.48851663129E+03  0.00000000000E+00 0.  1.
<mgrwt>
<rscale>  4 0.43342125E+03</rscale>
<asrwt>0</asrwt>
<pdfrwt beam="1">  1       21 0.60787508E-02 0.43342125E+03</pdfrwt>
<pdfrwt beam="2">  1       21 0.20378998E+00 0.43342125E+03</pdfrwt>
<totfact> 0.21716104E+04</totfact>
</mgrwt>
</event>
<event>
 5    0  0.1723834E+000  0.3819974E+03  0.7546771E-02  0.1050198E+00
         21   -1    0    0  503  501  0.00000000000E+00  0.00000000000E+00  0.13258140583E+03  0.13258140583E+03  0.00000000000E+00 0. -1.
         21   -1    0    0  504  502 -0.00000000000E+00 -0.00000000000E+00 -0.46144270395E+03  0.46144270395E+03  0.00000000000E+00 0. -1.
         25    1    1    2    0    0 -0.18866647321E+03  0.91420227623E+02 -0.15333524609E+03  0.28825230931E+03  0.12500000000E+03 0.  0.
         21    1    1    2  503  502  0.11040330093E+03  0.21145567908E+02 -0.66506800543E+02  0.13061078981E+03  0.00000000000E+00 0. -1.
         21    1    1    2  504  501  0.78263172280E+02 -0.11256579553E+03 -0.10901925149E+03  0.17516101066E+03  0.00000000000E+00 0.  1.
<mgrwt>
<rscale>  4 0.38199741E+03</rscale>
<asrwt>0</asrwt>
<pdfrwt beam="1">  1       21 0.20397140E-01 0.38199741E+03</pdfrwt>
<pdfrwt beam="2">  1       21 0.70991184E-01 0.38199741E+03</pdfrwt>
<totfact> 0.37182455E+04</totfact>
</mgrwt>
</event>
<event>
 5    0  0.1723834E+000  0.5595070E+03  0.7546771E-02  0.9993171E-01
         21   -1    0    0  503  501  0.00000000000E+00  0.00000000000E+00  0.32576424105E+03  0.32576424105E+03  0.00000000000E+00 0.  1.
         21   -1    0    0  504  502 -0.00000000000E+00 -0.00000000000E+00 -0.85459844614E+03  0.85459844614E+03  0.00000000000E+00 0.  1.
         25    1    1    2    0    0  0.88235208273E+02 -0.38651084755E+03 -0.31248760007E+02  0.41686637218E+03  0.12500000000E+03 0.  0.
         21    1    1    2  503  502 -0.37816727607E+02  0.26682708107E+03 -0.55844712620E+03  0.62007256740E+03  0.00000000000E+00 0.  1.
         21    1    1    2  504  501 -0.50418480665E+02  0.11968376648E+03  0.60861681111E+02  0.14342374761E+03  0.00000000000E+00 0. -1.
<mgrwt>
<rscale>  4 0.55950701E+03</rscale>
<asrwt>0</asrwt>
<pdfrwt beam="1">  1       21 0.50117577E-01 0.55950701E+03</pdfrwt>
<pdfrwt beam="2">  1       21 0.13147668E+00 0.55950701E+03</pdfrwt>
<totfact> 0.13053820E+03</totfact>
</mgrwt>
</event>
<event>
 5    0  0.1723834E+000  0.4924921E+03  0.7546771E-02  0.1015757E+00
         21   -1    0    0  503  501  0.00000000000E+00  0.00000000000E+00  0.75504935072E+03  0.75504935072E+03  0.00000000000E+00 0.  1.
         21   -1    0    0  504  502 -0.00000000000E+00 -0.00000000000E+00 -0.11885872123E+03  0.11885872123E+03  0.00000000000E+00 0. -1.
         25    1    1    2    0    0  0.14111790274E+03 -0.15191539194E+03  0.30349089448E+03  0.38823223953E+03  0.12500000000E+03 0.  0.
         21    1    1    2  503  502  0.12750306655E+02 -0.44820673490E+02 -0.22267215388E+02  0.51645832098E+02  0.00000000000E+00 0. -1.
         21    1    1    2  504  501 -0.15386820939E+03  0.19673606543E+03  0.35496695040E+03  0.43403000032E+03  0.00000000000E+00 0.  1.
<mgrwt>
<rscale>  4 0.49249209E+03</rscale>
<asrwt>0</asrwt>
<pdfrwt beam="1">  1       21 0.11616144E+00 0.49249209E+03</pdfrwt>
<pdfrwt beam="2">  1       21 0.18285958E-01 0.49249209E+03</pdfrwt>
<totfact> 0.13774212E+04</totfact>
</mgrwt>
</event>
<event>
 5    0  0.1723834E+000  0.3742385E+03  0.7546771E-02  0.1053084E+00
         21   -1    0    0  503  501  0.00000000000E+00  0.00000000000E+00  0.13339407789E+03  0.13339407789E+03  0.00000000000E+00 0. -1.
         21   -1    0    0  504  502 -0.00000000000E+00 -0.00000000000E+00 -0.81374701788E+03  0.81374701788E+03  0.00000000000E+00 0. -1.
         25    1    1    2    0    0 -0.80221565544E+02 -0.21861393590E+03 -0.58728222461E+02  0.27074260223E+03  0.12500000000E+03 0.  0.
         21    1    1    2  503  502  0.37999623509E+02  0.83809536826E+02 -0.99619806581E+02  0.13561753468E+03  0.00000000000E+00 0.  1.
         21    1    1    2  504  501  0.42221942035E+02  0.13480439908E+03 -0.52200491095E+03  0.54078095885E+03  0.00000000000E+00 0. -1.
<mgrwt>
<rscale>  4 0.37423851E+03</rscale>
<asrwt>0</asrwt>
<pdfrwt beam="1">  1       21 0.20522166E-01 0.37423851E+03</pdfrwt>
<pdfrwt beam="2">  1       21 0.12519185E+00 0.37423851E+03</pdfrwt>
<totfact> 0.95008612E+03</totfact>
</mgrwt>
</event>
<event>
 5    0  0.1723834E+000  0.5246524E+03  0.7546771E-02  0.1007537E+00
         21   -1    0    0  503  501  0.00000000000E+00  0.00000000000E+00  0.44245390884E+03  0.44245390884E+03  0.00000000000E+00 0. -1.
         21   -1    0    0  504  502 -0.00000000000E+00 -0.00000000000E+00 -0.19468136855E+03  0.19468136855E+03  0.00000000000E+00 0. -1.
         25    1    1    2    0    0  0.22541569287E+03 -0.18120154865E+02  0.27413144160E+03  0.37671424432E+03  0.12500000000E+03 0.  0.
         21    1    1    2  503  502 -0.21692078741E+03 -0.11061871964E+02  0.43068059037E+01  0.21724534885E+03  0.00000000000E+00 0. -1.
         21    1    1    2  504  501 -0.84949054627E+01  0.29182026829E+02 -0.30665707204E+02  0.43175684210E+02  0.00000000000E+00 0. -1.
<mgrwt>
<rscale>  4 0.52465240E+03</rscale>
<asrwt>0</asrwt>
<pdfrwt beam="1">  1       21 0.68069832E-01 0.52465240E+03</pdfrwt>
<pdfrwt beam="2">  1       21 0.29950980E-01 0.52465240E+03</pdfrwt>
<totfact> 0.18685547E+04</totfact>
</mgrwt>
</event>
<event>
 5    0  0.1723834E+000  0.1176005E+04  0.7546771E-02  0.9134122E-01
         21   -1    0    0  503  501  0.00000000000E+00  0.00000000000E+00  0.12154957123E+04  0.12154957123E+04  0.00000000000E+00 0. -1.
         21   -1    0    0  504  502 -0.00000000000E+00 -0.00000000000E+00 -0.58332872402E+03  0.58332872402E+03  0.00000000000E+00 0. -1.
         25    1    1    2    0    0  0.31691004989E+03 -0.12649840376E+02 -0.14220967263E+03  0.36937865284E+03  0.12500000000E+03 0.  0.
         21    1    1    2  503  502 -0.35586005687E+03  0.34710363513E+02  0.10711842796E+04  0.11292816081E+04  0.00000000000E+00 0. -1.
         21    1    1    2  504  501  0.38950006981E+02 -0.22060523137E+02 -0.29680761867E+03  0.30016417545E+03  0.00000000000E+00 0. -1.
<mgrwt>
<rscale>  4 0.11760054E+04</rscale>
<asrwt>0</asrwt>
<pdfrwt beam="1">  1       21 0.18699934E+00 0.11760054E+04</pdfrwt>
<pdfrwt beam="2">  1       21 0.89742880E-01 0.11760054E+04</pdfrwt>
<totfact> 0.11052026E+02</totfact>
</mgrwt>
</event>
<event>
 5    0  0.1723834E+000  0.1188692E+04  0.7546771E-02  0.9122812E-01
         21   -1    0    0  503  501  0.00000000000E+00  0.00000000000E+00  0.10607451188E+04  0.10607451188E+04  0.00000000000E+00 0. -1.
         21   -1    0    0  504  502 -0.00000000000E+00 -0.00000000000E+00 -0.13752467748E+04  0.13752467748E+04  0.00000000000E+00 0.  1.
         25    1    1    2    0    0 -0.22004485981E+03  0.44074985484E+03  0.78539609261E+03  0.93549569596E+03  0.12500000000E+03 0.  0.
         21    1    1    2  503  502  0.21431571375E+03 -0.40055396973E+03 -0.58188857915E+02  0.45799634389E+03  0.00000000000E+00 0.  1.
         21    1    1    2  504  501  0.57291460588E+01 -0.40195885111E+02 -0.10417088907E+04  0.10424998538E+04  0.00000000000E+00 0.  1.
<mgrwt>
<rscale>  4 0.11886924E+04</rscale>
<asrwt>0</asrwt>
<pdfrwt beam="1">  1       21 0.16319156E+00 0.11886924E+04</pdfrwt>
<pdfrwt beam="2">  1       21 0.21157643E+00 0.11886924E+04</pdfrwt>
<totfact> 0.15459890E+01</totfact>
</mgrwt>
</event>
<event>
 5    0  0.1723834E+000  0.8592873E+03  0.7546771E-02  0.9477956E-01
         21   -1    0    0  503  501  0.00000000000E+00  0.00000000000E+00  0.68526172109E+03  0.68526172109E+03  0.00000000000E+00 0.  1.
         21   -1    0    0  504  502 -0.00000000000E+00 -0.00000000000E+00 -0.30532378950E+03  0.30532378950E+03  0.00000000000E+00 0. -1.
         25    1    1    2    0    0 -0.36565133971E+03  0.15549811387E+03  0.38206705595E+02  0.41828855830E+03  0.12500000000E+03 0.  0.
         21    1    1    2  503  502  0.34106992787E+03 -0.18003010497E+03  0.36458925211E+03  0.53072107283E+03  0.00000000000E+00 0.  1.
         21    1    1    2  504  501  0.24581411834E+02  0.24531991097E+02 -0.22858026120E+02  0.41575879462E+02  0.00000000000E+00 0.  1.
<mgrwt>
<rscale>  4 0.85928732E+03</rscale>
<asrwt>0</asrwt>
<pdfrwt beam="1">  1       21 0.10542488E+00 0.85928732E+03</pdfrwt>
<pdfrwt beam="2">  1       21 0.46972891E-01 0.85928732E+03</pdfrwt>
<totfact> 0.24531957E+03</totfact>
</mgrwt>
</event>
<event>
 5    0  0.1723834E+000  0.4269803E+03  0.7546771E-02  0.1034818E+00
         21   -1    0    0  503  501  0.00000000000E+00  0.00000000000E+00  0.39116720540E+03  0.39116720540E+03  0.00000000000E+00 0. -1.
         21   -1    0    0  504  502 -0.00000000000E+00 -0.00000000000E+00 -0.22442918881E+03  0.22442918881E+03  0.00000000000E+00 0.  1.
         25    1    1    2    0    0  0.25497731383E+02  0.20027529196E+03  0.27177828607E+03  0.36089993579E+03  0.12500000000E+03 0.  0.
         21    1    1    2  503  502 -0.37944219007E+02 -0.13330696631E+03 -0.11630481588E+02  0.13908910499E+03  0.00000000000E+00 0.  1.
         21    1    1    2  504  501  0.12446487624E+02 -0.66968325641E+02 -0.93409787895E+02  0.11560735343E+03  0.00000000000E+00 0.  1.
<mgrwt>
<rscale>  4 0.42698028E+03</rscale>
<asrwt>0</asrwt>
<pdfrwt beam="1">  1       21 0.60179570E-01 0.42698028E+03</pdfrwt>
<pdfrwt beam="2">  1       21 0.34527567E-01 0.42698028E+03</pdfrwt>
<totfact> 0.18922773E+04</totfact>
</mgrwt>
</event>
<event>
 5    0  0.1723834E+000  0.4722064E+03  0.7546771E-02  0.1021299E+00
         21   -1    0    0  503  501  0.00000000000E+00  0.00000000000E+00  0.14458410881E+03  0.14458410881E+03  0.00000000000E+00 0.  1.
         21   -1    0    0  504  502 -0.00000000000E+00 -0.00000000000E+00 -0.70653500022E+03  0.70653500022E+03  0.00000000000E+00 0.  1.
         25    1    1    2    0    0  0.15707462595E+03  0.13515113764E+03 -0.35093474148E+02  0.24452979379E+03  0.12500000000E+03 0.  0.
         21    1    1    2  503  502 -0.16064472174E+03 -0.11486668248E+03 -0.20709136648E+03  0.28616064621E+03  0.00000000000E+00 0.  1.
         21    1    1    2  504  501  0.35700957910E+01 -0.20284455163E+02 -0.31976605078E+03  0.32042866903E+03  0.00000000000E+00 0.  1.
<mgrwt>
<rscale>  4 0.47220636E+03</rscale>
<asrwt>0</asrwt>
<pdfrwt beam="1">  1       21 0.22243709E-01 0.47220636E+03</pdfrwt>
<pdfrwt beam="2">  1       21 0.10869769E+00 0.47220636E+03</pdfrwt>
<totfact> 0.11249997E+04</totfact>
</mgrwt>
</event>
<event>
 5    0  0.1723834E+000  0.7018128E+03  0.7546771E-02  0.9714137E-01
         21   -1    0    0  503  501  0.00000000000E+00  0.00000000000E+00  0.33934364923E+03  0.33934364923E+03  0.00000000000E+00 0. -1.
         21   -1    0    0  504  502 -0.00000000000E+00 -0.00000000000E+00 -0.51294285598E+03  0.51294285598E+03  0.00000000000E+00 0.  1.
         25    1    1    2    0    0  0.25715432429E+02  0.30002912431E+03  0.16210614462E+03  0.36411833382E+03  0.12500000000E+03 0.  0.
         21    1    1    2  503  502  0.10592058875E+02 -0.21001166892E+02 -0.14815723175E+03  0.15001268627E+03  0.00000000000E+00 0.  1.
         21    1    1    2  504  501 -0.36307491304E+02 -0.27902795742E+03 -0.18754811961E+03  0.33815548512E+03  0.00000000000E+00 0.  1.
<mgrwt>
<rscale>  4 0.70181281E+03</rscale>
<asrwt>0</asrwt>
<pdfrwt beam="1">  1       21 0.52206716E-01 0.70181281E+03</pdfrwt>
<pdfrwt beam="2">  1       21 0.78914285E-01 0.70181281E+03</pdfrwt>
<totfact> 0.40534480E+03</totfact>
</mgrwt>
</event>
<event>
 5    0  0.1723834E+000  0.4811233E+03  0.7546771E-02  0.1018827E+00
         21   -1    0    0  503  501  0.00000000000E+00  0.00000000000E+00  0.71513182758E+02  0.71513182758E+02  0.00000000000E+00 0.  1.
         21   -1    0    0  504  502 -0.00000000000E+00 -0.00000000000E+00 -0.16129364521E+04  0.16129364521E+04  0.00000000000E+00 0.  1.
         25    1    1    2    0    0 -0.16192084494E+03 -0.12733161236E+03 -0.35606595827E+03  0.42992983866E+03  0.12500000000E+03 0.  0.
         21    1    1    2  503  502  0.22000873677E+03  0.94776269059E+02 -0.39929740999E+03  0.46564450717E+03  0.00000000000E+00 0.  1.
         21    1    1    2  504  501 -0.58087891831E+02  0.32555343301E+02 -0.78605990104E+03  0.78887528899E+03  0.00000000000E+00 0.  1.
<mgrwt>
<rscale>  4 0.48112326E+03</rscale>
<asrwt>0</asrwt>
<pdfrwt beam="1">  1       21 0.11002028E-01 0.48112326E+03</pdfrwt>
<pdfrwt beam="2">  1       21 0.24814407E+00 0.48112326E+03</pdfrwt>
<totfact> 0.38866434E+03</totfact>
</mgrwt>
</event>
<event>
 5    0  0.1723834E+000  0.4957166E+03  0.7546771E-02  0.1014903E+00
         21   -1    0    0  503  501  0.00000000000E+00  0.00000000000E+00  0.11469140517E+03  0.11469140517E+03  0.00000000000E+00 0. -1.
         21   -1    0    0  504  502 -0.00000000000E+00 -0.00000000000E+00 -0.26027300012E+04  0.26027300012E+04  0.00000000000E+00 0.  1.
         25    1    1    2    0    0  0.23710493775E+03  0.44376945062E+02 -0.86700664115E+02  0.28518427361E+03  0.12500000000E+03 0.  0.
         21    1    1    2  503  502 -0.13464841992E+03 -0.45173065332E+02 -0.34153878509E+03  0.36989126042E+03  0.00000000000E+00 0.  1.
         21    1    1    2  504  501 -0.10245651783E+03  0.79612027022E+00 -0.20597991468E+04  0.20623458723E+04  0.00000000000E+00 0.  1.
<mgrwt>
<rscale>  4 0.49571658E+03</rscale>
<asrwt>0</asrwt>
<pdfrwt beam="1">  1       21 0.17644832E-01 0.49571658E+03</pdfrwt>
<pdfrwt beam="2">  1       21 0.40041999E+00 0.49571658E+03</pdfrwt>
<totfact> 0.18668587E+02</totfact>
</mgrwt>
</event>
<event>
 5    0  0.1723834E+000  0.3851458E+03  0.7546771E-02  0.1049048E+00
         21   -1    0    0  503  501  0.00000000000E+00  0.00000000000E+00  0.20633966106E+04  0.20633966106E+04  0.00000000000E+00 0.  1.
         21   -1    0    0  504  502 -0.00000000000E+00 -0.00000000000E+00 -0.19335710463E+03  0.19335710463E+03  0.00000000000E+00 0.  1.
         25    1    1    2    0    0  0.88321571678E+02 -0.18834417399E+03  0.10365335782E+04  0.10645661495E+04  0.12500000000E+03 0.  0.
         21    1    1    2  503  502 -0.12939716504E+03  0.12369414591E+02  0.96181743449E+03  0.97056138705E+03  0.00000000000E+00 0. -1.
         21    1    1    2  504  501  0.41075593357E+02  0.17597475940E+03 -0.12831150673E+03  0.22162617868E+03  0.00000000000E+00 0.  1.
<mgrwt>
<rscale>  4 0.38514584E+03</rscale>
<asrwt>0</asrwt>
<pdfrwt beam="1">  1       21 0.31744562E+00 0.38514584E+03</pdfrwt>
<pdfrwt beam="2">  1       21 0.29747248E-01 0.38514584E+03</pdfrwt>
<totfact> 0.23936797E+02</totfact>
</mgrwt>
</event>
<event>
 5    0  0.1723834E+000  0.4511931E+03  0.7546771E-02  0.1027367E+00
         21   -1    0    0  503  501  0.00000000000E+00  0.00000000000E+00  0.48260461140E+03  0.48260461140E+03  0.00000000000E+00 0.  1.
         21   -1    0    0  504  502 -0.00000000000E+00 -0.00000000000E+00 -0.28341526597E+03  0.28341526597E+03  0.00000000000E+00 0. -1.
         25    1    1    2    0    0  0.17699115088E+03 -0.10592428621E+03  0.25391241586E+03  0.35020327929E+03  0.12500000000E+03 0.  0.
         21    1    1    2  503  502  0.10042658075E+02  0.26382385941E+02 -0.17659218190E+03  0.17883423604E+03  0.00000000000E+00 0. -1.
         21    1    1    2  504  501 -0.18703380895E+03  0.79541900267E+02  0.12186911147E+03  0.23698236204E+03  0.00000000000E+00 0.  1.
<mgrwt>
<rscale>  4 0.45119311E+03</rscale>
<asrwt>0</asrwt>
<pdfrwt beam="1">  1       21 0.74246863E-01 0.45119311E+03</pdfrwt>
<pdfrwt beam="2">  1       21 0.43602349E-01 0.45119311E+03</pdfrwt>
<totfact> 0.72844631E+03</totfact>
</mgrwt>
</event>
<event>
 5    0  0.1723834E+000  0.3226440E+03  0.7546771E-02  0.1074439E+00
         21   -1    0    0  503  501  0.00000000000E+00  0.00000000000E+00  0.11723813844E+04  0.11723813844E+04  0.00000000000E+00 0.  1.
         21   -1    0    0  504  502 -0.00000000000E+00 -0.00000000000E+00 -0.10101169464E+03  0.10101169464E+03  0.00000000000E+00 0.  1.
         25    1    1    2    0    0  0.18001121521E+03  0.11629738603E+03  0.67993925037E+03  0.72378968202E+03  0.12500000000E+03 0.  0.
         21    1    1    2  503  502 -0.41315883074E+02  0.54851679761E+02  0.30553653726E+03  0.31315856138E+03  0.00000000000E+00 0. -1.
         21    1    1    2  504  501 -0.13869533214E+03 -0.17114906579E+03  0.85893902148E+02  0.23644483565E+03  0.00000000000E+00 0.  1.
<mgrwt>
<rscale>  4 0.32264397E+03</rscale>
<asrwt>0</asrwt>
<pdfrwt beam="1">  1       21 0.18036636E+00 0.32264397E+03</pdfrwt>
<pdfrwt beam="2">  1       21 0.15540262E-01 0.32264397E+03</pdfrwt>
<totfact> 0.60973660E+03</totfact>
</mgrwt>
</event>
<event>
 5    0  0.1723834E+000  0.8606327E+03  0.7546771E-02  0.9476176E-01
         21   -1    0    0  503  501  0.00000000000E+00  0.00000000000E+00  0.20629955514E+04  0.20629955514E+04  0.00000000000E+00 0.  1.
         21   -1    0    0  504  502 -0.00000000000E+00 -0.00000000000E+00 -0.46713696963E+03  0.46713696963E+03  0.00000000000E+00 0.  1.
         25    1    1    2    0    0  0.25722034679E+03 -0.53418269954E+03  0.13946083361E+04  0.15205495304E+04  0.12500000000E+03 0.  0.
         21    1    1    2  503  502 -0.38712041942E+03  0.32521896008E+03 -0.19603834307E+03  0.54227356848E+03  0.00000000000E+00 0.  1.
         21    1    1    2  504  501  0.12990007262E+03  0.20896373946E+03  0.39728858868E+03  0.46730942209E+03  0.00000000000E+00 0.  1.
<mgrwt>
<rscale>  4 0.86063269E+03</rscale>
<asrwt>0</asrwt>
<pdfrwt beam="1">  1       21 0.31738393E+00 0.86063269E+03</pdfrwt>
<pdfrwt beam="2">  1       21 0.71867227E-01 0.86063269E+03</pdfrwt>
<totfact> 0.29194490E+01</totfact>
</mgrwt>
</event>
<event>
 5    0  0.1723834E+000  0.6543169E+03  0.7546771E-02  0.9798712E-01
         21   -1    0    0  503  501  0.00000000000E+00  0.00000000000E+00  0.17106193197E+04  0.17106193197E+04  0.00000000000E+00 0.  1.
         21   -1    0    0  504  502 -0.00000000000E+00 -0.00000000000E+00 -0.16538706447E+03  0.16538706447E+03  0.00000000000E+00 0.  1.
         25    1    1    2    0    0  0.56389564912E+02 -0.29927391114E+03  0.10196257475E+04  0.10714505691E+04  0.12500000000E+03 0.  0.
         21    1    1    2  503  502 -0.87773708920E+02  0.29949436523E+03  0.62593914024E+03  0.69942898572E+03  0.00000000000E+00 0.  1.
         21    1    1    2  504  501  0.31384144008E+02 -0.22045408425E+00 -0.10033263256E+03  0.10512682936E+03  0.00000000000E+00 0.  1.
<mgrwt>
<rscale>  4 0.65431689E+03</rscale>
<asrwt>0</asrwt>
<pdfrwt beam="1">  1       21 0.26317219E+00 0.65431689E+03</pdfrwt>
<pdfrwt beam="2">  1       21 0.25444165E-01 0.65431689E+03</pdfrwt>
<totfact> 0.60635631E+02</totfact>
</mgrwt>
</event>
<event>
 5    0  0.1723834E+000  0.6923796E+03  0.7546771E-02  0.9730353E-01
         21   -1    0    0  503  501  0.00000000000E+00  0.00000000000E+00  0.25375016131E+03  0.25375016131E+03  0.00000000000E+00 0.  1.
         21   -1    0    0  504  502 -0.00000000000E+00 -0.00000000000E+00 -0.87934356100E+03  0.87934356100E+03  0.00000000000E+00 0.  1.
         25    1    1    2    0    0  0.25893049380E+03 -0.70467878393E+02  0.10479614421E+03  0.31403495720E+03  0.12500000000E+03 0.  0.
         21    1    1    2  503  502 -0.23142280781E+03  0.10201687160E+03 -0.32645361068E+03  0.41295994720E+03  0.00000000000E+00 0.  1.
         21    1    1    2  504  501 -0.27507685986E+02 -0.31548993206E+02 -0.40393593322E+03  0.40609881791E+03  0.00000000000E+00 0.  1.
<mgrwt>
<rscale>  4 0.69237963E+03</rscale>
<asrwt>0</asrwt>
<pdfrwt beam="1">  1       21 0.39038486E-01 0.69237963E+03</pdfrwt>
<pdfrwt beam="2">  1       21 0.13528362E+00 0.69237963E+03</pdfrwt>
<totfact> 0.19733386E+03</totfact>
</mgrwt>
</event>
<event>
 5    0  0.1723834E+000  0.7088073E+03  0.7546771E-02  0.9702288E-01
         21   -1    0    0  503  501  0.00000000000E+00  0.00000000000E+00  0.35927190886E+03  0.35927190886E+03  0.00000000000E+00 0. -1.
         21   -1    0    0  504  502 -0.00000000000E+00 -0.00000000000E+00 -0.18689815712E+04  0.18689815712E+04  0.00000000000E+00 0. -1.
         25    1    1    2    0    0 -0.24337437294E+03  0.19901277486E+03 -0.71222589338E+02  0.34573809046E+03  0.12500000000E+03 0.  0.
         21    1    1    2  503  502  0.25839898658E+03 -0.24219059938E+03  0.80214166267E+02  0.36312619730E+03  0.00000000000E+00 0. -1.
         21    1    1    2  504  501 -0.15024613649E+02  0.43177824520E+02 -0.15187012393E+04  0.15193891923E+04  0.00000000000E+00 0. -1.
<mgrwt>
<rscale>  4 0.70880726E+03</rscale>
<asrwt>0</asrwt>
<pdfrwt beam="1">  1       21 0.55272603E-01 0.70880726E+03</pdfrwt>
<pdfrwt beam="2">  1       21 0.28753562E+00 0.70880726E+03</pdfrwt>
<totfact> 0.84809725E+01</totfact>
</mgrwt>
</event>
<event>
 5    0  0.1723834E+000  0.5149037E+03  0.7546771E-02  0.1009960E+00
         21   -1    0    0  503  501  0.00000000000E+00  0.00000000000E+00  0.90928512574E+02  0.90928512574E+02  0.00000000000E+00 0. -1.
         21   -1    0    0  504  502 -0.00000000000E+00 -0.00000000000E+00 -0.86229903815E+03  0.86229903815E+03  0.00000000000E+00 0.  1.
         25    1    1    2    0    0  0.14276226488E+03  0.14524758907E+03 -0.11767565976E+03  0.26636532677E+03  0.12500000000E+03 0.  0.
         21    1    1    2  503  502 -0.13527317725E+03 -0.12650378195E+03 -0.52763241257E+03  0.55919406482E+03  0.00000000000E+00 0.  1.
         21    1    1    2  504  501 -0.74890876336E+01 -0.18743807127E+02 -0.12606245325E+03  0.12766815914E+03  0.00000000000E+00 0.  1.
<mgrwt>
<rscale>  4 0.51490368E+03</rscale>
<asrwt>0</asrwt>
<pdfrwt beam="1">  1       21 0.13989001E-01 0.51490368E+03</pdfrwt>
<pdfrwt beam="2">  1       21 0.13266139E+00 0.51490368E+03</pdfrwt>
<totfact> 0.16055624E+04</totfact>
</mgrwt>
</event>
<event>
 5    0  0.1723834E+000  0.5448514E+03  0.7546771E-02  0.1002693E+00
         21   -1    0    0  503  501  0.00000000000E+00  0.00000000000E+00  0.19019871046E+03  0.19019871046E+03  0.00000000000E+00 0.  1.
         21   -1    0    0  504  502 -0.00000000000E+00 -0.00000000000E+00 -0.10441900859E+04  0.10441900859E+04  0.00000000000E+00 0.  1.
         25    1    1    2    0    0  0.55259165762E+02 -0.28044927224E+03 -0.13071342301E+03  0.33825488712E+03  0.12500000000E+03 0.  0.
         21    1    1    2  503  502  0.54818667553E+02  0.22622092623E+03 -0.87577446457E+02  0.24869821653E+03  0.00000000000E+00 0.  1.
         21    1    1    2  504  501 -0.11007783331E+03  0.54228346013E+02 -0.63570050601E+03  0.64743569275E+03  0.00000000000E+00 0.  1.
<mgrwt>
<rscale>  4 0.54485139E+03</rscale>
<asrwt>0</asrwt>
<pdfrwt beam="1">  1       21 0.29261340E-01 0.54485139E+03</pdfrwt>
<pdfrwt beam="2">  1       21 0.16064463E+00 0.54485139E+03</pdfrwt>
<totfact> 0.23078934E+03</totfact>
</mgrwt>
</event>
<event>
 5    0  0.1723834E+000  0.7264882E+03  0.7546771E-02  0.9672976E-01
         21   -1    0    0  503  501  0.00000000000E+00  0.00000000000E+00  0.75862209735E+03  0.75862209735E+03  0.00000000000E+00 0. -1.
         21   -1    0    0  504  502 -0.00000000000E+00 -0.00000000000E+00 -0.24913333286E+03  0.24913333286E+03  0.00000000000E+00 0. -1.
         25    1    1    2    0    0 -0.19687649361E+03  0.26051182193E+03  0.48114632008E+03  0.59477184233E+03  0.12500000000E+03 0.  0.
         21    1    1    2  503  502  0.20952167143E+03 -0.24301796125E+03  0.10163307615E+03  0.33658036552E+03  0.00000000000E+00 0. -1.
         21    1    1    2  504  501 -0.12645177815E+02 -0.17493860684E+02 -0.73290631753E+02  0.76403222356E+02  0.00000000000E+00 0. -1.
<mgrwt>
<rscale>  4 0.72648820E+03</rscale>
<asrwt>0</asrwt>
<pdfrwt beam="1">  1       21 0.11671109E+00 0.72648820E+03</pdfrwt>
<pdfrwt beam="2">  1       21 0.38328205E-01 0.72648820E+03</pdfrwt>
<totfact> 0.29883947E+03</totfact>
</mgrwt>
</event>
<event>
 5    0  0.1723834E+000  0.8555158E+03  0.7546771E-02  0.9482964E-01
         21   -1    0    0  503  501  0.00000000000E+00  0.00000000000E+00  0.96665874608E+03  0.96665874608E+03  0.00000000000E+00 0.  1.
         21   -1    0    0  504  502 -0.00000000000E+00 -0.00000000000E+00 -0.21313474238E+03  0.21313474238E+03  0.00000000000E+00 0. -1.
         25    1    1    2    0    0 -0.24431057762E+03  0.92356121812E+02 -0.44830660762E+02  0.29300528957E+03  0.12500000000E+03 0.  0.
         21    1    1    2  503  502  0.24203631804E+03 -0.11248982151E+03  0.81685374329E+03  0.85935183547E+03  0.00000000000E+00 0.  1.
         21    1    1    2  504  501  0.22742595764E+01  0.20133699695E+02 -0.18499078830E+02  0.27436363417E+02  0.00000000000E+00 0. -1.
<mgrwt>
<rscale>  4 0.85551581E+03</rscale>
<asrwt>0</asrwt>
<pdfrwt beam="1">  1       21 0.14871673E+00 0.85551581E+03</pdfrwt>
<pdfrwt beam="2">  1       21 0.32789961E-01 0.85551581E+03</pdfrwt>
<totfact> 0.21060603E+03</totfact>
</mgrwt>
</event>
<event>
 5    0  0.1723834E+000  0.4487006E+03  0.7546771E-02  0.1028110E+00
         21   -1    0    0  503  501  0.00000000000E+00  0.00000000000E+00  0.26114755031E+03  0.26114755031E+03  0.00000000000E+00 0.  1.
         21   -1    0    0  504  502 -0.00000000000E+00 -0.00000000000E+00 -0.14855379272E+04  0.14855379272E+04  0.00000000000E+00 0.  1.
         25    1    1    2    0    0 -0.23952273582E+03 -0.47636449621E+02 -0.26402877278E+02  0.27561292465E+03  0.12500000000E+03 0.  0.
         21    1    1    2  503  502  0.13826777791E+03  0.64416972487E+02  0.91255846509E+02  0.17775025815E+03  0.00000000000E+00 0.  1.
         21    1    1    2  504  501  0.10125495791E+03 -0.16780522865E+02 -0.12892433461E+04  0.12933222947E+04  0.00000000000E+00 0.  1.
<mgrwt>
<rscale>  4 0.44870064E+03</rscale>
<asrwt>0</asrwt>
<pdfrwt beam="1">  1       21 0.40176545E-01 0.44870064E+03</pdfrwt>
<pdfrwt beam="2">  1       21 0.22854430E+00 0.44870064E+03</pdfrwt>
<totfact> 0.43405609E+02</totfact>
</mgrwt>
</event>
<event>
 5    0  0.1723834E+000  0.7288716E+03  0.7546771E-02  0.9669093E-01
         21   -1    0    0  503  501  0.00000000000E+00  0.00000000000E+00  0.85734883958E+03  0.85734883958E+03  0.00000000000E+00 0.  1.
         21   -1    0    0  504  502 -0.00000000000E+00 -0.00000000000E+00 -0.23196421814E+03  0.23196421814E+03  0.00000000000E+00 0.  1.
         25    1    1    2    0    0 -0.13338392686E+02  0.28344026446E+03  0.50547681831E+02  0.31415977524E+03  0.12500000000E+03 0.  0.
         21    1    1    2  503  502  0.14412935196E+02 -0.30711975022E+02 -0.72600866413E+02  0.80136408171E+02  0.00000000000E+00 0.  1.
         21    1    1    2  504  501 -0.10745425100E+01 -0.25272828944E+03  0.64743780601E+03  0.69501687431E+03  0.00000000000E+00 0.  1.
<mgrwt>
<rscale>  4 0.72887157E+03</rscale>
<asrwt>0</asrwt>
<pdfrwt beam="1">  1       21 0.13189982E+00 0.72887157E+03</pdfrwt>
<pdfrwt beam="2">  1       21 0.35686803E-01 0.72887157E+03</pdfrwt>
<totfact> 0.25169595E+03</totfact>
</mgrwt>
</event>
<event>
 5    0  0.1723834E+000  0.4928115E+03  0.7546771E-02  0.1015672E+00
         21   -1    0    0  503  501  0.00000000000E+00  0.00000000000E+00  0.15381146766E+03  0.15381146766E+03  0.00000000000E+00 0. -1.
         21   -1    0    0  504  502 -0.00000000000E+00 -0.00000000000E+00 -0.47914766425E+03  0.47914766425E+03  0.00000000000E+00 0.  1.
         25    1    1    2    0    0 -0.20973948659E+03 -0.91930209467E+02 -0.27844113299E+03  0.38157080626E+03  0.12500000000E+03 0.  0.
         21    1    1    2  503  502  0.19663250091E+02  0.45506850131E+02 -0.21681123748E+02  0.54107189356E+02  0.00000000000E+00 0. -1.
         21    1    1    2  504  501  0.19007623650E+03  0.46423359336E+02 -0.25213939847E+02  0.19728113629E+03  0.00000000000E+00 0. -1.
<mgrwt>
<rscale>  4 0.49281149E+03</rscale>
<asrwt>0</asrwt>
<pdfrwt beam="1">  1       21 0.23663303E-01 0.49281149E+03</pdfrwt>
<pdfrwt beam="2">  1       21 0.73715025E-01 0.49281149E+03</pdfrwt>
<totfact> 0.24968558E+04</totfact>
</mgrwt>
</event>
<event>
 5    0  0.1723834E+000  0.5308113E+03  0.7546771E-02  0.1006036E+00
         21   -1    0    0  503  501  0.00000000000E+00  0.00000000000E+00  0.12538364493E+03  0.12538364493E+03  0.00000000000E+00 0.  1.
         21   -1    0    0  504  502 -0.00000000000E+00 -0.00000000000E+00 -0.64367598664E+03  0.64367598664E+03  0.00000000000E+00 0.  1.
         25    1    1    2    0    0  0.22697028485E+03  0.11085065035E+03 -0.24106816335E+03  0.37086687136E+03  0.12500000000E+03 0.  0.
         21    1    1    2  503  502 -0.21243856753E+03 -0.12979655303E+03 -0.20618563577E+03  0.32324883071E+03  0.00000000000E+00 0.  1.
         21    1    1    2  504  501 -0.14531717317E+02  0.18945902679E+02 -0.71038542587E+02  0.74943929504E+02  0.00000000000E+00 0. -1.
<mgrwt>
<rscale>  4 0.53081131E+03</rscale>
<asrwt>0</asrwt>
<pdfrwt beam="1">  1       21 0.19289791E-01 0.53081131E+03</pdfrwt>
<pdfrwt beam="2">  1       21 0.99027075E-01 0.53081131E+03</pdfrwt>
<totfact> 0.18309899E+04</totfact>
</mgrwt>
</event>
<event>
 5    0  0.1723834E+000  0.4407896E+03  0.7546771E-02  0.1030505E+00
         21   -1    0    0  503  501  0.00000000000E+00  0.00000000000E+00  0.12958500390E+04  0.12958500390E+04  0.00000000000E+00 0. -1.
         21   -1    0    0  504  502 -0.00000000000E+00 -0.00000000000E+00 -0.28708670165E+03  0.28708670165E+03  0.00000000000E+00 0. -1.
         25    1    1    2    0    0 -0.16838701602E+03 -0.13237670888E+03  0.61948393284E+03  0.66728039328E+03  0.12500000000E+03 0.  0.
         21    1    1    2  503  502  0.10815080094E+03  0.15442535930E+03  0.63463921480E+03  0.66205039106E+03  0.00000000000E+00 0. -1.
         21    1    1    2  504  501  0.60236215075E+02 -0.22048650420E+02 -0.24535981027E+03  0.25360595633E+03  0.00000000000E+00 0. -1.
<mgrwt>
<rscale>  4 0.44078959E+03</rscale>
<asrwt>0</asrwt>
<pdfrwt beam="1">  1       21 0.19936154E+00 0.44078959E+03</pdfrwt>
<pdfrwt beam="2">  1       21 0.44167186E-01 0.44078959E+03</pdfrwt>
<totfact> 0.55312437E+02</totfact>
</mgrwt>
</event>
<event>
 5    0  0.1723834E+000  0.9155735E+03  0.7546771E-02  0.9406321E-01
         21   -1    0    0  503  501  0.00000000000E+00  0.00000000000E+00  0.25396798930E+03  0.25396798930E+03  0.00000000000E+00 0.  1.
         21   -1    0    0  504  502 -0.00000000000E+00 -0.00000000000E+00 -0.91492258999E+03  0.91492258999E+03  0.00000000000E+00 0. -1.
         25    1    1    2    0    0  0.39578748122E+03  0.22194300762E+03 -0.23255980392E+03  0.52499094403E+03  0.12500000000E+03 0.  0.
         21    1    1    2  503  502 -0.35486558059E+03 -0.24729135461E+03 -0.38812023071E+03  0.58113673765E+03  0.00000000000E+00 0. -1.
         21    1    1    2  504  501 -0.40921900621E+02  0.25348346994E+02 -0.40274566052E+02  0.62762897611E+02  0.00000000000E+00 0. -1.
<mgrwt>
<rscale>  4 0.91557345E+03</rscale>
<asrwt>0</asrwt>
<pdfrwt beam="1">  1       21 0.39071999E-01 0.91557345E+03</pdfrwt>
<pdfrwt beam="2">  1       21 0.14075732E+00 0.91557345E+03</pdfrwt>
<totfact> 0.16884832E+03</totfact>
</mgrwt>
</event>
<event>
 5    0  0.1723834E+000  0.5343660E+03  0.7546771E-02  0.1005179E+00
         21   -1    0    0  503  501  0.00000000000E+00  0.00000000000E+00  0.50189707536E+03  0.50189707536E+03  0.00000000000E+00 0. -1.
         21   -1    0    0  504  502 -0.00000000000E+00 -0.00000000000E+00 -0.31423391037E+03  0.31423391037E+03  0.00000000000E+00 0. -1.
         25    1    1    2    0    0  0.23897821559E+03  0.28963494093E+03  0.12454113136E+03  0.41489092535E+03  0.12500000000E+03 0.  0.
         21    1    1    2  503  502 -0.15956040214E+03 -0.18102853986E+03 -0.21546239262E+02  0.24227070521E+03  0.00000000000E+00 0. -1.
         21    1    1    2  504  501 -0.79417813447E+02 -0.10860640108E+03  0.84668272903E+02  0.15896935517E+03  0.00000000000E+00 0.  1.
<mgrwt>
<rscale>  4 0.53436602E+03</rscale>
<asrwt>0</asrwt>
<pdfrwt beam="1">  1       21 0.77214934E-01 0.53436602E+03</pdfrwt>
<pdfrwt beam="2">  1       21 0.48343679E-01 0.53436602E+03</pdfrwt>
<totfact> 0.52311252E+03</totfact>
</mgrwt>
</event>
<event>
 5    0  0.1723834E+000  0.4901803E+03  0.7546771E-02  0.1016374E+00
         21   -1    0    0  503  501  0.00000000000E+00  0.00000000000E+00  0.90688624168E+02  0.90688624168E+02  0.00000000000E+00 0. -1.
         21   -1    0    0  504  502 -0.00000000000E+00 -0.00000000000E+00 -0.76555534734E+03  0.76555534734E+03  0.00000000000E+00 0.  1.
         25    1    1    2    0    0  0.17809624912E+03  0.16801310903E+03 -0.40306281374E+03  0.48788452587E+03  0.12500000000E+03 0.  0.
         21    1    1    2  503  502 -0.16189231669E+03 -0.13895136713E+03 -0.24961335222E+03  0.32836478227E+03  0.00000000000E+00 0. -1.
         21    1    1    2  504  501 -0.16203932427E+02 -0.29061741904E+02 -0.22190557212E+02  0.39994663369E+02  0.00000000000E+00 0. -1.
<mgrwt>
<rscale>  4 0.49018033E+03</rscale>
<asrwt>0</asrwt>
<pdfrwt beam="1">  1       21 0.13952096E-01 0.49018033E+03</pdfrwt>
<pdfrwt beam="2">  1       21 0.11777774E+00 0.49018033E+03</pdfrwt>
<totfact> 0.22065539E+04</totfact>
</mgrwt>
</event>
<event>
 5    0  0.1723834E+000  0.5214741E+03  0.7546771E-02  0.1008321E+00
         21   -1    0    0  503  501  0.00000000000E+00  0.00000000000E+00  0.11709845409E+03  0.11709845409E+03  0.00000000000E+00 0.  1.
         21   -1    0    0  504  502 -0.00000000000E+00 -0.00000000000E+00 -0.84674689110E+03  0.84674689110E+03  0.00000000000E+00 0.  1.
         25    1    1    2    0    0  0.17718090456E+03 -0.12031749286E+03 -0.20135269764E+03  0.31943274860E+03  0.12500000000E+03 0.  0.
         21    1    1    2  503  502  0.62590079350E+02 -0.68624124986E+01 -0.24140224744E+03  0.24947876825E+03  0.00000000000E+00 0.  1.
         21    1    1    2  504  501 -0.23977098391E+03  0.12717990536E+03 -0.28689349192E+03  0.39493382833E+03  0.00000000000E+00 0.  1.
<mgrwt>
<rscale>  4 0.52147413E+03</rscale>
<asrwt>0</asrwt>
<pdfrwt beam="1">  1       21 0.18015146E-01 0.52147413E+03</pdfrwt>
<pdfrwt beam="2">  1       21 0.13026876E+00 0.52147413E+03</pdfrwt>
<totfact> 0.10476125E+04</totfact>
</mgrwt>
</event>
<event>
 5    0  0.1723834E+000  0.4376819E+03  0.7546771E-02  0.1031460E+00
         21   -1    0    0  503  501  0.00000000000E+00  0.00000000000E+00  0.70467665021E+03  0.70467665021E+03  0.00000000000E+00 0.  1.
         21   -1    0    0  504  502 -0.00000000000E+00 -0.00000000000E+00 -0.83939906874E+02  0.83939906874E+02  0.00000000000E+00 0.  1.
         25    1    1    2    0    0  0.10127854567E+00 -0.21534076673E+03  0.34364924079E+03  0.42437183786E+03  0.12500000000E+03 0.  0.
         21    1    1    2  503  502  0.35991221282E+02  0.18482725318E+03  0.23336964984E+03  0.29986309375E+03  0.00000000000E+00 0.  1.
         21    1    1    2  504  501 -0.36092499828E+02  0.30513513548E+02  0.43717852700E+02  0.64381625465E+02  0.00000000000E+00 0.  1.
<mgrwt>
<rscale>  4 0.43768189E+03</rscale>
<asrwt>0</asrwt>
<pdfrwt beam="1">  1       21 0.10841179E+00 0.43768189E+03</pdfrwt>
<pdfrwt beam="2">  1       21 0.12913832E-01 0.43768189E+03</pdfrwt>
<totfact> 0.31703540E+04</totfact>
</mgrwt>
</event>
<event>
 5    0  0.1723834E+000  0.4348977E+03  0.7546771E-02  0.1032324E+00
         21   -1    0    0  503  501  0.00000000000E+00  0.00000000000E+00  0.10627902565E+04  0.10627902565E+04  0.00000000000E+00 0.  1.
         21   -1    0    0  504  502 -0.00000000000E+00 -0.00000000000E+00 -0.10395258827E+03  0.10395258827E+03  0.00000000000E+00 0.  1.
         25    1    1    2    0    0  0.20530462013E+03  0.29522763331E+02  0.42203847390E+03  0.48658303922E+03  0.12500000000E+03 0.  0.
         21    1    1    2  503  502 -0.15108916164E+03 -0.91623042162E+02  0.56581644097E+03  0.59276551982E+03  0.00000000000E+00 0.  1.
         21    1    1    2  504  501 -0.54215458492E+02  0.62100278831E+02 -0.29017246669E+02  0.87394285709E+02  0.00000000000E+00 0.  1.
<mgrwt>
<rscale>  4 0.43489767E+03</rscale>
<asrwt>0</asrwt>
<pdfrwt beam="1">  1       21 0.16350619E+00 0.43489767E+03</pdfrwt>
<pdfrwt beam="2">  1       21 0.15992707E-01 0.43489767E+03</pdfrwt>
<totfact> 0.72821378E+03</totfact>
</mgrwt>
</event>
<event>
 5    0  0.1723834E+000  0.5240579E+03  0.7546771E-02  0.1007683E+00
         21   -1    0    0  503  501  0.00000000000E+00  0.00000000000E+00  0.24115413055E+03  0.24115413055E+03  0.00000000000E+00 0. -1.
         21   -1    0    0  504  502 -0.00000000000E+00 -0.00000000000E+00 -0.97718167343E+03  0.97718167343E+03  0.00000000000E+00 0.  1.
         25    1    1    2    0    0  0.29409955515E+03  0.73714664527E+02  0.38083826666E+02  0.33015720189E+03  0.12500000000E+03 0.  0.
         21    1    1    2  503  502 -0.19362026162E+03  0.54313385430E+02 -0.65856601666E+03  0.68858401655E+03  0.00000000000E+00 0.  1.
         21    1    1    2  504  501 -0.10047929352E+03 -0.12802804996E+03 -0.11554535289E+03  0.19959458554E+03  0.00000000000E+00 0.  1.
<mgrwt>
<rscale>  4 0.52405789E+03</rscale>
<asrwt>0</asrwt>
<pdfrwt beam="1">  1       21 0.37100636E-01 0.52405789E+03</pdfrwt>
<pdfrwt beam="2">  1       21 0.15033564E+00 0.52405789E+03</pdfrwt>
<totfact> 0.17302096E+03</totfact>
</mgrwt>
</event>
<event>
 5    0  0.1723834E+000  0.3322017E+03  0.7546771E-02  0.1070167E+00
         21   -1    0    0  503  501  0.00000000000E+00  0.00000000000E+00  0.59610479930E+03  0.59610479930E+03  0.00000000000E+00 0. -1.
         21   -1    0    0  504  502 -0.00000000000E+00 -0.00000000000E+00 -0.29402998333E+03  0.29402998333E+03  0.00000000000E+00 0.  1.
         25    1    1    2    0    0  0.20987285968E+03 -0.82158241535E+02  0.48866771092E+03  0.55246513517E+03  0.12500000000E+03 0.  0.
         21    1    1    2  503  502 -0.54814991045E+02  0.69254445687E+01  0.28402007737E+02  0.62123418041E+02  0.00000000000E+00 0.  1.
         21    1    1    2  504  501 -0.15505786863E+03  0.75232796967E+02 -0.21499490269E+03  0.27554622942E+03  0.00000000000E+00 0.  1.
<mgrwt>
<rscale>  4 0.33220174E+03</rscale>
<asrwt>0</asrwt>
<pdfrwt beam="1">  1       21 0.91708431E-01 0.33220174E+03</pdfrwt>
<pdfrwt beam="2">  1       21 0.45235382E-01 0.33220174E+03</pdfrwt>
<totfact> 0.43266925E+03</totfact>
</mgrwt>
</event>
<event>
 5    0  0.1723834E+000  0.5335140E+03  0.7546771E-02  0.1005383E+00
         21   -1    0    0  503  501  0.00000000000E+00  0.00000000000E+00  0.85172301658E+03  0.85172301658E+03  0.00000000000E+00 0.  1.
         21   -1    0    0  504  502 -0.00000000000E+00 -0.00000000000E+00 -0.14763186838E+04  0.14763186838E+04  0.00000000000E+00 0.  1.
         25    1    1    2    0    0 -0.25042481449E+02 -0.21346998795E+03  0.54580215715E+03  0.59976791877E+03  0.12500000000E+03 0.  0.
         21    1    1    2  503  502  0.12492050821E+03  0.21747766993E+03  0.22040335235E+03  0.33388517190E+03  0.00000000000E+00 0. -1.
         21    1    1    2  504  501 -0.99878026761E+02 -0.40076819735E+01 -0.13908011767E+04  0.13943886097E+04  0.00000000000E+00 0.  1.
<mgrwt>
<rscale>  4 0.53351402E+03</rscale>
<asrwt>0</asrwt>
<pdfrwt beam="1">  1       21 0.13103431E+00 0.53351402E+03</pdfrwt>
<pdfrwt beam="2">  1       21 0.22712595E+00 0.53351402E+03</pdfrwt>
<totfact> 0.28141772E+01</totfact>
</mgrwt>
</event>
<event>
 5    0  0.1723834E+000  0.6994269E+03  0.7546771E-02  0.9718213E-01
         21   -1    0    0  503  501  0.00000000000E+00  0.00000000000E+00  0.22395355286E+03  0.22395355286E+03  0.00000000000E+00 0. -1.
         21   -1    0    0  504  502 -0.00000000000E+00 -0.00000000000E+00 -0.98516246292E+03  0.98516246292E+03  0.00000000000E+00 0. -1.
         25    1    1    2    0    0  0.20421562814E+03  0.27367326291E+03 -0.22105163820E+03  0.42554659481E+03  0.12500000000E+03 0.  0.
         21    1    1    2  503  502 -0.43450524659E+02  0.14362953665E+02 -0.43492587908E+03  0.43732683753E+03  0.00000000000E+00 0. -1.
         21    1    1    2  504  501 -0.16076510348E+03 -0.28803621657E+03 -0.10523139278E+03  0.34624258343E+03  0.00000000000E+00 0. -1.
<mgrwt>
<rscale>  4 0.69942685E+03</rscale>
<asrwt>0</asrwt>
<pdfrwt beam="1">  1       21 0.34454392E-01 0.69942685E+03</pdfrwt>
<pdfrwt beam="2">  1       21 0.15156346E+00 0.69942685E+03</pdfrwt>
<totfact> 0.18701335E+03</totfact>
</mgrwt>
</event>
<event>
 5    0  0.1723834E+000  0.5725048E+03  0.7546771E-02  0.9964151E-01
         21   -1    0    0  503  501  0.00000000000E+00  0.00000000000E+00  0.34275302718E+03  0.34275302718E+03  0.00000000000E+00 0. -1.
         21   -1    0    0  504  502 -0.00000000000E+00 -0.00000000000E+00 -0.28700518582E+03  0.28700518582E+03  0.00000000000E+00 0.  1.
         25    1    1    2    0    0  0.16295353256E+03 -0.19124115567E+03 -0.73363776071E+01  0.28072380703E+03  0.12500000000E+03 0.  0.
         21    1    1    2  503  502  0.23910920160E+02 -0.19551172424E+02 -0.38700759033E+02  0.49514939117E+02  0.00000000000E+00 0.  1.
         21    1    1    2  504  501 -0.18686445272E+03  0.21079232809E+03  0.10178497800E+03  0.29951946685E+03  0.00000000000E+00 0. -1.
<mgrwt>
<rscale>  4 0.57250478E+03</rscale>
<asrwt>0</asrwt>
<pdfrwt beam="1">  1       21 0.52731235E-01 0.57250478E+03</pdfrwt>
<pdfrwt beam="2">  1       21 0.44154644E-01 0.57250478E+03</pdfrwt>
<totfact> 0.14673293E+04</totfact>
</mgrwt>
</event>
<event>
 5    0  0.1723834E+000  0.5543612E+03  0.7546771E-02  0.1000490E+00
         21   -1    0    0  503  501  0.00000000000E+00  0.00000000000E+00  0.12716966736E+04  0.12716966736E+04  0.00000000000E+00 0.  1.
         21   -1    0    0  504  502 -0.00000000000E+00 -0.00000000000E+00 -0.15074084108E+03  0.15074084108E+03  0.00000000000E+00 0.  1.
         25    1    1    2    0    0 -0.32484564573E+02  0.27808458541E+03  0.84038041346E+03  0.89456722660E+03  0.12500000000E+03 0.  0.
         21    1    1    2  503  502 -0.33398194609E+02 -0.57113669165E+02 -0.77546756734E+02  0.10193581357E+03  0.00000000000E+00 0.  1.
         21    1    1    2  504  501  0.65882759182E+02 -0.22097091625E+03  0.35812217582E+03  0.42593447454E+03  0.00000000000E+00 0.  1.
<mgrwt>
<rscale>  4 0.55436115E+03</rscale>
<asrwt>0</asrwt>
<pdfrwt beam="1">  1       21 0.19564564E+00 0.55436115E+03</pdfrwt>
<pdfrwt beam="2">  1       21 0.23190899E-01 0.55436115E+03</pdfrwt>
<totfact> 0.20395960E+03</totfact>
</mgrwt>
</event>
<event>
 5    0  0.1723834E+000  0.5366634E+03  0.7546771E-02  0.1004629E+00
         21   -1    0    0  503  501  0.00000000000E+00  0.00000000000E+00  0.75872780632E+02  0.75872780632E+02  0.00000000000E+00 0.  1.
         21   -1    0    0  504  502 -0.00000000000E+00 -0.00000000000E+00 -0.13132280394E+04  0.13132280394E+04  0.00000000000E+00 0.  1.
         25    1    1    2    0    0  0.23412172057E+03 -0.42311221688E+02 -0.64571476174E+03  0.69941101868E+03  0.12500000000E+03 0.  0.
         21    1    1    2  503  502 -0.85683682783E+01 -0.18727105485E+02 -0.36025950293E+03  0.36084765603E+03  0.00000000000E+00 0.  1.
         21    1    1    2  504  501 -0.22555335229E+03  0.61038327173E+02 -0.23138099415E+03  0.32884214536E+03  0.00000000000E+00 0.  1.
<mgrwt>
<rscale>  4 0.53666340E+03</rscale>
<asrwt>0</asrwt>
<pdfrwt beam="1">  1       21 0.11672736E-01 0.53666340E+03</pdfrwt>
<pdfrwt beam="2">  1       21 0.20203507E+00 0.53666340E+03</pdfrwt>
<totfact> 0.67459154E+03</totfact>
</mgrwt>
</event>
<event>
 5    0  0.1723834E+000  0.6831586E+03  0.7546771E-02  0.9746475E-01
         21   -1    0    0  503  501  0.00000000000E+00  0.00000000000E+00  0.45716504692E+03  0.45716504692E+03  0.00000000000E+00 0. -1.
         21   -1    0    0  504  502 -0.00000000000E+00 -0.00000000000E+00 -0.32087134589E+03  0.32087134589E+03  0.00000000000E+00 0. -1.
         25    1    1    2    0    0  0.25803914492E+03 -0.38548400406E+02  0.29204301134E+03  0.41107700004E+03  0.12500000000E+03 0.  0.
         21    1    1    2  503  502  0.24686248103E+02  0.22873189115E+02 -0.58639692759E+02  0.67610703240E+02  0.00000000000E+00 0. -1.
         21    1    1    2  504  501 -0.28272539302E+03  0.15675211291E+02 -0.97109617552E+02  0.29934868954E+03  0.00000000000E+00 0. -1.
<mgrwt>
<rscale>  4 0.68315857E+03</rscale>
<asrwt>0</asrwt>
<pdfrwt beam="1">  1       21 0.70333084E-01 0.68315857E+03</pdfrwt>
<pdfrwt beam="2">  1       21 0.49364822E-01 0.68315857E+03</pdfrwt>
<totfact> 0.59821654E+03</totfact>
</mgrwt>
</event>
<event>
 5    0  0.1723834E+000  0.8807961E+03  0.7546771E-02  0.9449911E-01
         21   -1    0    0  503  501  0.00000000000E+00  0.00000000000E+00  0.16264654726E+04  0.16264654726E+04  0.00000000000E+00 0.  1.
         21   -1    0    0  504  502 -0.00000000000E+00 -0.00000000000E+00 -0.75443759345E+03  0.75443759345E+03  0.00000000000E+00 0. -1.
         25    1    1    2    0    0 -0.26044429229E+03  0.19780383955E+03  0.14434330537E+04  0.14852883790E+04  0.12500000000E+03 0.  0.
         21    1    1    2  503  502  0.17614548192E+02 -0.17035851886E+03 -0.62277719548E+03  0.64589761763E+03  0.00000000000E+00 0. -1.
         21    1    1    2  504  501  0.24282974410E+03 -0.27445320692E+02  0.51372021006E+02  0.24971706948E+03  0.00000000000E+00 0. -1.
<mgrwt>
<rscale>  4 0.88079606E+03</rscale>
<asrwt>0</asrwt>
<pdfrwt beam="1">  1       21 0.25022546E+00 0.88079606E+03</pdfrwt>
<pdfrwt beam="2">  1       21 0.11606732E+00 0.88079606E+03</pdfrwt>
<totfact> 0.23773734E+01</totfact>
</mgrwt>
</event>
<event>
 5    0  0.1723834E+000  0.5636115E+03  0.7546771E-02  0.9983916E-01
         21   -1    0    0  503  501  0.00000000000E+00  0.00000000000E+00  0.89887467230E+02  0.89887467230E+02  0.00000000000E+00 0. -1.
         21   -1    0    0  504  502 -0.00000000000E+00 -0.00000000000E+00 -0.19881900379E+04  0.19881900379E+04  0.00000000000E+00 0. -1.
         25    1    1    2    0    0  0.87679997453E+01  0.26102635472E+03 -0.56964643191E+03  0.63900993190E+03  0.12500000000E+03 0.  0.
         21    1    1    2  503  502 -0.87832365295E+02 -0.21602723944E+02 -0.10839078386E+04  0.10876752294E+04  0.00000000000E+00 0. -1.
         21    1    1    2  504  501  0.79064365549E+02 -0.23942363078E+03 -0.24474830018E+03  0.35139234385E+03  0.00000000000E+00 0. -1.
<mgrwt>
<rscale>  4 0.56361147E+03</rscale>
<asrwt>0</asrwt>
<pdfrwt beam="1">  1       21 0.13828841E-01 0.56361147E+03</pdfrwt>
<pdfrwt beam="2">  1       21 0.30587539E+00 0.56361147E+03</pdfrwt>
<totfact> 0.10994834E+03</totfact>
</mgrwt>
</event>
<event>
 5    0  0.1723834E+000  0.4229921E+03  0.7546771E-02  0.1036097E+00
         21   -1    0    0  503  501  0.00000000000E+00  0.00000000000E+00  0.93975034527E+03  0.93975034527E+03  0.00000000000E+00 0.  1.
         21   -1    0    0  504  502 -0.00000000000E+00 -0.00000000000E+00 -0.30123103184E+03  0.30123103184E+03  0.00000000000E+00 0. -1.
         25    1    1    2    0    0  0.15519077937E+03  0.13681085354E+03  0.79839891644E+03  0.83418656032E+03  0.12500000000E+03 0.  0.
         21    1    1    2  503  502 -0.76829897092E+02 -0.89310068687E+02  0.85039089157E+02  0.14529545120E+03  0.00000000000E+00 0.  1.
         21    1    1    2  504  501 -0.78360882281E+02 -0.47500784849E+02 -0.24491869216E+03  0.26149936559E+03  0.00000000000E+00 0. -1.
<mgrwt>
<rscale>  4 0.42299208E+03</rscale>
<asrwt>0</asrwt>
<pdfrwt beam="1">  1       21 0.14457697E+00 0.42299208E+03</pdfrwt>
<pdfrwt beam="2">  1       21 0.46343236E-01 0.42299208E+03</pdfrwt>
<totfact> 0.12613209E+03</totfact>
</mgrwt>
</event>
<event>
 5    0  0.1723834E+000  0.9019520E+03  0.7546771E-02  0.9423145E-01
         21   -1    0    0  503  501  0.00000000000E+00  0.00000000000E+00  0.13066594417E+04  0.13066594417E+04  0.00000000000E+00 0. -1.
         21   -1    0    0  504  502 -0.00000000000E+00 -0.00000000000E+00 -0.59064088915E+03  0.59064088915E+03  0.00000000000E+00 0.  1.
         25    1    1    2    0    0  0.22918409569E+03  0.10050665012E+02  0.12104551083E+04  0.12383266672E+04  0.12500000000E+03 0.  0.
         21    1    1    2  503  502 -0.21081925509E+03 -0.42125471631E+02 -0.60322849563E+02  0.22328940829E+03  0.00000000000E+00 0.  1.
         21    1    1    2  504  501 -0.18364840596E+02  0.32074806619E+02 -0.43411370609E+03  0.43568425540E+03  0.00000000000E+00 0.  1.
<mgrwt>
<rscale>  4 0.90195196E+03</rscale>
<asrwt>0</asrwt>
<pdfrwt beam="1">  1       21 0.20102453E+00 0.90195196E+03</pdfrwt>
<pdfrwt beam="2">  1       21 0.90867829E-01 0.90195196E+03</pdfrwt>
<totfact> 0.91077734E+01</totfact>
</mgrwt>
</event>
<event>
 5    0  0.1723834E+000  0.1014083E+04  0.7546771E-02  0.9293233E-01
         21   -1    0    0  503  501  0.00000000000E+00  0.00000000000E+00  0.39396917263E+03  0.39396917263E+03  0.00000000000E+00 0.  1.
         21   -1    0    0  504  502 -0.00000000000E+00 -0.00000000000E+00 -0.77120942054E+03  0.77120942054E+03  0.00000000000E+00 0.  1.
         25    1    1    2    0    0  0.31317155437E+02 -0.34075829256E+03 -0.48062487303E+03  0.60309389547E+03  0.12500000000E+03 0.  0.
         21    1    1    2  503  502 -0.39154944508E+02  0.40453660235E+03  0.19451593373E+03  0.45057676460E+03  0.00000000000E+00 0.  1.
         21    1    1    2  504  501  0.78377890708E+01 -0.63778309794E+02 -0.91131308599E+02  0.11150793310E+03  0.00000000000E+00 0.  1.
<mgrwt>
<rscale>  4 0.10140826E+04</rscale>
<asrwt>0</asrwt>
<pdfrwt beam="1">  1       21 0.60610642E-01 0.10140826E+04</pdfrwt>
<pdfrwt beam="2">  1       21 0.11864760E+00 0.10140826E+04</pdfrwt>
<totfact> 0.10138765E+03</totfact>
</mgrwt>
</event>
<event>
 5    0  0.1723834E+000  0.5064116E+03  0.7546771E-02  0.1012119E+00
         21   -1    0    0  503  501  0.00000000000E+00  0.00000000000E+00  0.53441680837E+03  0.53441680837E+03  0.00000000000E+00 0.  1.
         21   -1    0    0  504  502 -0.00000000000E+00 -0.00000000000E+00 -0.18774254719E+03  0.18774254719E+03  0.00000000000E+00 0.  1.
         25    1    1    2    0    0 -0.17423684808E+03  0.10457399854E+03  0.61355496700E+02  0.24634061252E+03  0.12500000000E+03 0.  0.
         21    1    1    2  503  502  0.18868786991E+03 -0.82574952438E+02  0.34993376533E+03  0.40604848866E+03  0.00000000000E+00 0.  1.
         21    1    1    2  504  501 -0.14451021831E+02 -0.21999046106E+02 -0.64615000851E+02  0.69770254382E+02  0.00000000000E+00 0.  1.
<mgrwt>
<rscale>  4 0.50641157E+03</rscale>
<asrwt>0</asrwt>
<pdfrwt beam="1">  1       21 0.82217970E-01 0.50641157E+03</pdfrwt>
<pdfrwt beam="2">  1       21 0.28883469E-01 0.50641157E+03</pdfrwt>
<totfact> 0.13094185E+04</totfact>
</mgrwt>
</event>
<event>
 5    0  0.1723834E+000  0.4559190E+03  0.7546771E-02  0.1025971E+00
         21   -1    0    0  503  501  0.00000000000E+00  0.00000000000E+00  0.22009549230E+03  0.22009549230E+03  0.00000000000E+00 0. -1.
         21   -1    0    0  504  502 -0.00000000000E+00 -0.00000000000E+00 -0.90168115866E+03  0.90168115866E+03  0.00000000000E+00 0.  1.
         25    1    1    2    0    0  0.20555552937E+03  0.56674243749E+01 -0.89563491350E+02  0.25677191111E+03  0.12500000000E+03 0.  0.
         21    1    1    2  503  502 -0.18521964056E+03 -0.10475645156E+02  0.73214266587E+02  0.19944017454E+03  0.00000000000E+00 0. -1.
         21    1    1    2  504  501 -0.20335888815E+02  0.48082207812E+01 -0.66523644159E+03  0.66556456530E+03  0.00000000000E+00 0.  1.
<mgrwt>
<rscale>  4 0.45591904E+03</rscale>
<asrwt>0</asrwt>
<pdfrwt beam="1">  1       21 0.33860845E-01 0.45591904E+03</pdfrwt>
<pdfrwt beam="2">  1       21 0.13872018E+00 0.45591904E+03</pdfrwt>
<totfact> 0.26502857E+03</totfact>
</mgrwt>
</event>
