<event>
 5    0  0.1141006E+000  0.2797081E+03  0.7546771E-02  0.1095848E+00
         21   -1    0    0  503  502  0.00000000000E+00  0.00000000000E+00  0.36224536421E+03  0.36224536421E+03  0.00000000000E+00 0.  1.
         -4   -1    0    0    0  501 -0.00000000000E+00 -0.00000000000E+00 -0.54331856794E+03  0.54331856794E+03  0.00000000000E+00 0. -1.
         25    1    1    2    0    0 -0.61623054373E+02 -0.24505912623E+03  0.25808906493E+03  0.38221242996E+03  0.12500000000E+03 0.  0.
         21    1    1    2  503  501 -0.28441465807E+02  0.24855066252E+02 -0.11644426996E+03  0.12241715281E+03  0.00000000000E+00 0. -1.
         -4    1    1    2    0  502  0.90064520180E+02  0.22020405998E+03 -0.32271799871E+03  0.40093434939E+03  0.00000000000E+00 0. -1.
<mgrwt>
<rscale>  4 0.27970808E+03</rscale>
<asrwt>0</asrwt>
<pdfrwt beam="1">  1       21 0.55730056E-01 0.27970808E+03</pdfrwt>
<pdfrwt beam="2">  1       -4 0.83587472E-01 0.27970808E+03</pdfrwt>
<totfact> 0.16180354E+02</totfact>
</mgrwt>
</event>
<event>
 5    0  0.1141006E+000  0.4005151E+03  0.7546771E-02  0.1043601E+00
          2   -1    0    0  503    0 -0.00000000000E+00  0.00000000000E+00  0.19395842782E+04  0.19395842782E+04  0.00000000000E+00 0.  1.
         21   -1    0    0  501  502  0.00000000000E+00 -0.00000000000E+00 -0.19076617422E+03  0.19076617422E+03  0.00000000000E+00 0.  1.
         25    1    1    2    0    0 -0.34481657625E+03 -0.15511008456E+03  0.88597310975E+02  0.40796089653E+03  0.12500000000E+03 0.  0.
         21    1    1    2  503  502 -0.19719785769E+01 -0.31170058701E+02  0.42077502290E+03  0.42193255522E+03  0.00000000000E+00 0.  1.
          2    1    1    2  501    0  0.34678855483E+03  0.18628014326E+03  0.12394457701E+04  0.13004570006E+04  0.00000000000E+00 0.  1.
<mgrwt>
<rscale>  4 0.40051514E+03</rscale>
<asrwt>0</asrwt>
<pdfrwt beam="1">  1       21 0.29348644E-01 0.40051514E+03</pdfrwt>
<pdfrwt beam="2">  1        2 0.29839757E+00 0.40051514E+03</pdfrwt>
<totfact> 0.10445491E+03</totfact>
</mgrwt>
</event>
<event>
 5    0  0.1141006E+000  0.3251760E+03  0.7546771E-02  0.1073291E+00
         21   -1    0    0  501  502  0.00000000000E+00  0.00000000000E+00  0.33728055237E+03  0.33728055237E+03  0.00000000000E+00 0. -1.
          2   -1    0    0  503    0 -0.00000000000E+00 -0.00000000000E+00 -0.12733651141E+04  0.12733651141E+04  0.00000000000E+00 0. -1.
         25    1    1    2    0    0  0.11784942552E+03  0.27608369395E+03  0.23149469568E+03  0.39915596863E+03  0.12500000000E+03 0.  0.
         21    1    1    2  503  502  0.18686546596E+02 -0.79284011731E+01 -0.46697115861E+02  0.50918240332E+02  0.00000000000E+00 0. -1.
          2    1    1    2  501    0 -0.13653597212E+03 -0.26815529278E+03 -0.11208821416E+04  0.11605714575E+04  0.00000000000E+00 0. -1.
<mgrwt>
<rscale>  4 0.32517602E+03</rscale>
<asrwt>0</asrwt>
<pdfrwt beam="1">  1       21 0.51889315E-01 0.32517602E+03</pdfrwt>
<pdfrwt beam="2">  1        2 0.19590233E+00 0.32517602E+03</pdfrwt>
<totfact> 0.76622276E+02</totfact>
</mgrwt>
</event>
<event>
 5    0  0.1141006E+000  0.3482351E+03  0.7546771E-02  0.1063342E+00
         -2   -1    0    0    0  501 -0.00000000000E+00  0.00000000000E+00  0.59582923876E+03  0.59582923876E+03  0.00000000000E+00 0. -1.
         21   -1    0    0  503  502  0.00000000000E+00 -0.00000000000E+00 -0.14765678575E+04  0.14765678575E+04  0.00000000000E+00 0.  1.
         25    1    1    2    0    0  0.26443900389E+03  0.19122722697E+03 -0.14029462998E+04  0.14458143585E+04  0.12500000000E+03 0.  0.
         21    1    1    2  503  501 -0.52912213459E+01 -0.43604659896E+02  0.10424549358E+03  0.11312155551E+03  0.00000000000E+00 0.  1.
         -2    1    1    2    0  502 -0.25914778254E+03 -0.14762256707E+03  0.41796218748E+03  0.51346118224E+03  0.00000000000E+00 0. -1.
<mgrwt>
<rscale>  4 0.34823509E+03</rscale>
<asrwt>0</asrwt>
<pdfrwt beam="1">  1       21 0.22716428E+00 0.34823509E+03</pdfrwt>
<pdfrwt beam="2">  1       -2 0.91666037E-01 0.34823509E+03</pdfrwt>
<totfact> 0.68753223E+00</totfact>
</mgrwt>
</event>
<event>
 5    0  0.1141006E+000  0.3175447E+03  0.7546771E-02  0.1076785E+00
          2   -1    0    0  503    0 -0.00000000000E+00  0.00000000000E+00  0.97664290788E+03  0.97664290788E+03  0.00000000000E+00 0.  1.
         21   -1    0    0  501  502  0.00000000000E+00 -0.00000000000E+00 -0.25500529011E+03  0.25500529011E+03  0.00000000000E+00 0.  1.
         25    1    1    2    0    0 -0.60611549272E+02  0.28273440981E+03 -0.10508944466E+03  0.33208628062E+03  0.12500000000E+03 0.  0.
         21    1    1    2  503  502  0.24116598461E+02  0.27813810766E+02  0.48669263697E+02  0.61023893840E+02  0.00000000000E+00 0.  1.
          2    1    1    2  501    0  0.36494950811E+02 -0.31054822058E+03  0.77805779873E+03  0.83853802353E+03  0.00000000000E+00 0.  1.
<mgrwt>
<rscale>  4 0.31754467E+03</rscale>
<asrwt>0</asrwt>
<pdfrwt beam="1">  1       21 0.39231584E-01 0.31754467E+03</pdfrwt>
<pdfrwt beam="2">  1        2 0.15025275E+00 0.31754467E+03</pdfrwt>
<totfact> 0.20571229E+03</totfact>
</mgrwt>
</event>
<event>
 5    0  0.1141006E+000  0.3004682E+03  0.7546771E-02  0.1085007E+00
         21   -1    0    0  501  502  0.00000000000E+00  0.00000000000E+00  0.60557029795E+03  0.60557029795E+03  0.00000000000E+00 0. -1.
          1   -1    0    0  503    0 -0.00000000000E+00 -0.00000000000E+00 -0.37835052086E+04  0.37835052086E+04  0.00000000000E+00 0. -1.
         25    1    1    2    0    0 -0.11160492118E+03 -0.25076666825E+03  0.56088629101E+03  0.63683436762E+03  0.12500000000E+03 0.  0.
         21    1    1    2  503  502  0.90151939910E+02  0.66013369832E+02 -0.83113062854E+03  0.83860792922E+03  0.00000000000E+00 0. -1.
          1    1    1    2  501    0  0.21452981267E+02  0.18475329842E+03 -0.29076905731E+04  0.29136332097E+04  0.00000000000E+00 0. -1.
<mgrwt>
<rscale>  4 0.30046817E+03</rscale>
<asrwt>0</asrwt>
<pdfrwt beam="1">  1       21 0.93164659E-01 0.30046817E+03</pdfrwt>
<pdfrwt beam="2">  1        1 0.58207774E+00 0.30046817E+03</pdfrwt>
<totfact> 0.18943952E+00</totfact>
</mgrwt>
</event>
<event>
 5    0  0.1141006E+000  0.2720444E+03  0.7546771E-02  0.1100115E+00
          1   -1    0    0  503    0 -0.00000000000E+00  0.00000000000E+00  0.51869595390E+03  0.51869595390E+03  0.00000000000E+00 0.  1.
         21   -1    0    0  501  502  0.00000000000E+00 -0.00000000000E+00 -0.25672073709E+03  0.25672073709E+03  0.00000000000E+00 0.  1.
         25    1    1    2    0    0  0.33607173063E+02 -0.23872497234E+03 -0.83808323736E+02  0.28419692051E+03  0.12500000000E+03 0.  0.
         21    1    1    2  503  502 -0.35914977080E+02 -0.58751264423E+01  0.20660482110E+03  0.20978549709E+03  0.00000000000E+00 0. -1.
          1    1    1    2  501    0  0.23078040175E+01  0.24460009879E+03  0.13917871945E+03  0.28143427338E+03  0.00000000000E+00 0.  1.
<mgrwt>
<rscale>  4 0.27204440E+03</rscale>
<asrwt>0</asrwt>
<pdfrwt beam="1">  1       21 0.39495498E-01 0.27204440E+03</pdfrwt>
<pdfrwt beam="2">  1        1 0.79799378E-01 0.27204440E+03</pdfrwt>
<totfact> 0.28595590E+03</totfact>
</mgrwt>
</event>
<event>
 5    0  0.1141006E+000  0.3030042E+03  0.7546771E-02  0.1083748E+00
         21   -1    0    0  501  502  0.00000000000E+00  0.00000000000E+00  0.61965458382E+02  0.61965458382E+02  0.00000000000E+00 0. -1.
          1   -1    0    0  503    0 -0.00000000000E+00 -0.00000000000E+00 -0.25809010471E+04  0.25809010471E+04  0.00000000000E+00 0. -1.
         25    1    1    2    0    0  0.28466812762E+03  0.27457346691E+02 -0.10840470470E+04  0.11280837065E+04  0.12500000000E+03 0.  0.
         21    1    1    2  503  502 -0.12351577346E+02 -0.33235991762E+02 -0.10065675621E+04  0.10071918634E+04  0.00000000000E+00 0. -1.
          1    1    1    2  501    0 -0.27231655028E+03  0.57786450710E+01 -0.42832097954E+03  0.50759093550E+03  0.00000000000E+00 0. -1.
<mgrwt>
<rscale>  4 0.30300425E+03</rscale>
<asrwt>0</asrwt>
<pdfrwt beam="1">  1       21 0.95331465E-02 0.30300425E+03</pdfrwt>
<pdfrwt beam="2">  1        1 0.39706174E+00 0.30300425E+03</pdfrwt>
<totfact> 0.13477911E+03</totfact>
</mgrwt>
</event>
<event>
 5    0  0.1141006E+000  0.2634466E+03  0.7546771E-02  0.1105090E+00
         21   -1    0    0  501  502  0.00000000000E+00  0.00000000000E+00  0.71095444924E+03  0.71095444924E+03  0.00000000000E+00 0. -1.
          2   -1    0    0  503    0 -0.00000000000E+00 -0.00000000000E+00 -0.49883285810E+03  0.49883285810E+03  0.00000000000E+00 0.  1.
         25    1    1    2    0    0  0.23174295522E+03  0.26774722868E+02  0.63892025688E+03  0.69156762339E+03  0.12500000000E+03 0.  0.
         21    1    1    2  503  502 -0.17744398504E+02  0.18908830179E+02 -0.20505110922E+03  0.20668421548E+03  0.00000000000E+00 0. -1.
          2    1    1    2  501    0 -0.21399855672E+03 -0.45683553047E+02 -0.22174755651E+03  0.31153546847E+03  0.00000000000E+00 0.  1.
<mgrwt>
<rscale>  4 0.26344662E+03</rscale>
<asrwt>0</asrwt>
<pdfrwt beam="1">  1       21 0.10937761E+00 0.26344662E+03</pdfrwt>
<pdfrwt beam="2">  1        2 0.76743517E-01 0.26344662E+03</pdfrwt>
<totfact> 0.49728817E+02</totfact>
</mgrwt>
</event>
<event>
 5    0  0.1141006E+000  0.3257586E+03  0.7546771E-02  0.1073029E+00
          2   -1    0    0  503    0 -0.00000000000E+00  0.00000000000E+00  0.23617511228E+04  0.23617511228E+04  0.00000000000E+00 0.  1.
         21   -1    0    0  501  502  0.00000000000E+00 -0.00000000000E+00 -0.18384896842E+03  0.18384896842E+03  0.00000000000E+00 0.  1.
         25    1    1    2    0    0  0.10410838317E+03 -0.28387754841E+03  0.86720809069E-01  0.32718500189E+03  0.12500000000E+03 0.  0.
         21    1    1    2  503  502 -0.64417948680E+02 -0.96515522742E+01  0.10607018617E+04  0.10626999878E+04  0.00000000000E+00 0.  1.
          2    1    1    2  501    0 -0.39690434491E+02  0.29352910069E+03  0.11171135718E+04  0.11557151015E+04  0.00000000000E+00 0.  1.
<mgrwt>
<rscale>  4 0.32575865E+03</rscale>
<asrwt>0</asrwt>
<pdfrwt beam="1">  1       21 0.28284458E-01 0.32575865E+03</pdfrwt>
<pdfrwt beam="2">  1        2 0.36334630E+00 0.32575865E+03</pdfrwt>
<totfact> 0.68629531E+02</totfact>
</mgrwt>
</event>
<event>
 5    0  0.1141006E+000  0.2681627E+03  0.7546771E-02  0.1102336E+00
          1   -1    0    0  503    0 -0.00000000000E+00  0.00000000000E+00  0.73476264493E+03  0.73476264493E+03  0.00000000000E+00 0. -1.
         21   -1    0    0  501  502  0.00000000000E+00 -0.00000000000E+00 -0.13070897415E+04  0.13070897415E+04  0.00000000000E+00 0.  1.
         25    1    1    2    0    0  0.22559349435E+03  0.81141765725E+02 -0.11594838311E+04  0.11905898393E+04  0.12500000000E+03 0.  0.
         21    1    1    2  503  502 -0.65801581335E+02 -0.21978630299E+03  0.59691011781E+03  0.63948225607E+03  0.00000000000E+00 0. -1.
          1    1    1    2  501    0 -0.15979191301E+03  0.13864453726E+03 -0.97533832252E+01  0.21178029101E+03  0.00000000000E+00 0. -1.
<mgrwt>
<rscale>  4 0.26816266E+03</rscale>
<asrwt>0</asrwt>
<pdfrwt beam="1">  1       21 0.20109073E+00 0.26816266E+03</pdfrwt>
<pdfrwt beam="2">  1        1 0.11304041E+00 0.26816266E+03</pdfrwt>
<totfact> 0.35982334E+01</totfact>
</mgrwt>
</event>
<event>
 5    0  0.1141006E+000  0.2658900E+03  0.7546771E-02  0.1103655E+00
          2   -1    0    0  503    0 -0.00000000000E+00  0.00000000000E+00  0.10889145536E+04  0.10889145536E+04  0.00000000000E+00 0. -1.
         21   -1    0    0  501  502  0.00000000000E+00 -0.00000000000E+00 -0.13787477405E+03  0.13787477405E+03  0.00000000000E+00 0.  1.
         25    1    1    2    0    0  0.47941547661E+02 -0.22753309801E+03  0.27993586263E+02  0.26547757637E+03  0.12500000000E+03 0.  0.
         21    1    1    2  503  502 -0.11339346720E+02 -0.17396956375E+02  0.79074004874E+02  0.81755324732E+02  0.00000000000E+00 0. -1.
          2    1    1    2  501    0 -0.36602200941E+02  0.24493005439E+03  0.84397218838E+03  0.87955642651E+03  0.00000000000E+00 0. -1.
<mgrwt>
<rscale>  4 0.26589005E+03</rscale>
<asrwt>0</asrwt>
<pdfrwt beam="1">  1       21 0.21211504E-01 0.26589005E+03</pdfrwt>
<pdfrwt beam="2">  1        2 0.16752531E+00 0.26589005E+03</pdfrwt>
<totfact> 0.59627949E+03</totfact>
</mgrwt>
</event>
<event>
 5    0  0.1141006E+000  0.3834005E+03  0.7546771E-02  0.1049684E+00
          1   -1    0    0  503    0 -0.00000000000E+00  0.00000000000E+00  0.28743782091E+03  0.28743782091E+03  0.00000000000E+00 0.  1.
         21   -1    0    0  501  502  0.00000000000E+00 -0.00000000000E+00 -0.49798861050E+03  0.49798861050E+03  0.00000000000E+00 0.  1.
         25    1    1    2    0    0  0.28666380085E+03  0.22179902671E+03 -0.14204337447E+03  0.40886704832E+03  0.12500000000E+03 0.  0.
         21    1    1    2  503  502 -0.52514076971E+02 -0.78496606638E+01 -0.93944746061E+01  0.53922181018E+02  0.00000000000E+00 0. -1.
          1    1    1    2  501    0 -0.23414972388E+03 -0.21394936605E+03 -0.59112940512E+02  0.32263720207E+03  0.00000000000E+00 0.  1.
<mgrwt>
<rscale>  4 0.38340050E+03</rscale>
<asrwt>0</asrwt>
<pdfrwt beam="1">  1       21 0.76613633E-01 0.38340050E+03</pdfrwt>
<pdfrwt beam="2">  1        1 0.44221203E-01 0.38340050E+03</pdfrwt>
<totfact> 0.14399124E+03</totfact>
</mgrwt>
</event>
<event>
 5    0  0.1141006E+000  0.5414815E+03  0.7546771E-02  0.1003485E+00
         21   -1    0    0  501  502  0.00000000000E+00  0.00000000000E+00  0.54479377761E+03  0.54479377761E+03  0.00000000000E+00 0.  1.
          2   -1    0    0  503    0 -0.00000000000E+00 -0.00000000000E+00 -0.75617382378E+03  0.75617382378E+03  0.00000000000E+00 0.  1.
         25    1    1    2    0    0  0.15082365402E+03  0.49842991372E+03  0.17116795572E+03  0.56223093349E+03  0.12500000000E+03 0.  0.
         21    1    1    2  503  502  0.18173091272E+02  0.14237474120E+02 -0.14865913199E+03  0.15044103309E+03  0.00000000000E+00 0. -1.
          2    1    1    2  501    0 -0.16899674529E+03 -0.51266738784E+03 -0.23388886990E+03  0.58829563481E+03  0.00000000000E+00 0.  1.
<mgrwt>
<rscale>  4 0.54148149E+03</rscale>
<asrwt>0</asrwt>
<pdfrwt beam="1">  1       21 0.83814427E-01 0.54148149E+03</pdfrwt>
<pdfrwt beam="2">  1        2 0.11633443E+00 0.54148149E+03</pdfrwt>
<totfact> 0.52367848E+02</totfact>
</mgrwt>
</event>
<event>
 5    0  0.1141006E+000  0.3675936E+03  0.7546771E-02  0.1055617E+00
         21   -1    0    0  503  502  0.00000000000E+00  0.00000000000E+00  0.65084243399E+03  0.65084243399E+03  0.00000000000E+00 0.  1.
         -2   -1    0    0    0  501 -0.00000000000E+00 -0.00000000000E+00 -0.26993006358E+03  0.26993006358E+03  0.00000000000E+00 0.  1.
         25    1    1    2    0    0 -0.16760563599E+03  0.28495743185E+03  0.24279970947E+02  0.35426953605E+03  0.12500000000E+03 0.  0.
         21    1    1    2  503  501 -0.53559523783E+02 -0.95237436431E+01 -0.12254663856E+02  0.55762900454E+02  0.00000000000E+00 0.  1.
         -2    1    1    2    0  502  0.22116515978E+03 -0.27543368820E+03  0.36888706332E+03  0.51074006107E+03  0.00000000000E+00 0.  1.
<mgrwt>
<rscale>  4 0.36759363E+03</rscale>
<asrwt>0</asrwt>
<pdfrwt beam="1">  1       21 0.10012960E+00 0.36759363E+03</pdfrwt>
<pdfrwt beam="2">  1       -2 0.41527702E-01 0.36759363E+03</pdfrwt>
<totfact> 0.34281201E+02</totfact>
</mgrwt>
</event>
<event>
 5    0  0.1141006E+000  0.3642286E+03  0.7546771E-02  0.1056922E+00
         21   -1    0    0  501  502  0.00000000000E+00  0.00000000000E+00  0.35821850774E+03  0.35821850774E+03  0.00000000000E+00 0.  1.
          2   -1    0    0  503    0 -0.00000000000E+00 -0.00000000000E+00 -0.44777352300E+03  0.44777352300E+03  0.00000000000E+00 0.  1.
         25    1    1    2    0    0 -0.29380234490E+03  0.16079960126E+03  0.11146163706E+03  0.37446632181E+03  0.12500000000E+03 0.  0.
         21    1    1    2  503  502 -0.19835448570E+02  0.11951232122E+02 -0.18414001318E+02  0.29586355195E+02  0.00000000000E+00 0.  1.
          2    1    1    2  501    0  0.31363779347E+03 -0.17275083338E+03 -0.18260265100E+03  0.40193935373E+03  0.00000000000E+00 0.  1.
<mgrwt>
<rscale>  4 0.36422861E+03</rscale>
<asrwt>0</asrwt>
<pdfrwt beam="1">  1       21 0.55110540E-01 0.36422861E+03</pdfrwt>
<pdfrwt beam="2">  1        2 0.68888234E-01 0.36422861E+03</pdfrwt>
<totfact> 0.25970373E+03</totfact>
</mgrwt>
</event>
<event>
 5    0  0.1141006E+000  0.2803351E+03  0.7546771E-02  0.1095506E+00
         21   -1    0    0  501  502  0.00000000000E+00  0.00000000000E+00  0.20600181393E+03  0.20600181393E+03  0.00000000000E+00 0.  1.
          2   -1    0    0  503    0 -0.00000000000E+00 -0.00000000000E+00 -0.19775262582E+04  0.19775262582E+04  0.00000000000E+00 0. -1.
         25    1    1    2    0    0 -0.23005466482E+03  0.97148490732E+02  0.90907672217E+02  0.29368721955E+03  0.12500000000E+03 0.  0.
         21    1    1    2  503  502 -0.26799296682E+02 -0.50744269550E+01 -0.49740181116E+02  0.56727750960E+02  0.00000000000E+00 0.  1.
          2    1    1    2  501    0  0.25685396150E+03 -0.92074063777E+02 -0.18126919354E+04  0.18331131016E+04  0.00000000000E+00 0. -1.
<mgrwt>
<rscale>  4 0.28033513E+03</rscale>
<asrwt>0</asrwt>
<pdfrwt beam="1">  1       21 0.31692587E-01 0.28033513E+03</pdfrwt>
<pdfrwt beam="2">  1        2 0.30423481E+00 0.28033513E+03</pdfrwt>
<totfact> 0.89893010E+02</totfact>
</mgrwt>
</event>
<event>
 5    0  0.1141006E+000  0.2811861E+03  0.7546771E-02  0.1095043E+00
          2   -1    0    0  503    0 -0.00000000000E+00  0.00000000000E+00  0.34557501628E+03  0.34557501628E+03  0.00000000000E+00 0.  1.
         21   -1    0    0  501  502  0.00000000000E+00 -0.00000000000E+00 -0.26688333104E+03  0.26688333104E+03  0.00000000000E+00 0.  1.
         25    1    1    2    0    0 -0.20233060484E+03 -0.12180171495E+03  0.14411417598E+03  0.30359055838E+03  0.12500000000E+03 0.  0.
         21    1    1    2  503  502 -0.15784683911E+02 -0.16552863044E+02  0.26222806582E+02  0.34796395017E+02  0.00000000000E+00 0.  1.
          2    1    1    2  501    0  0.21811528875E+03  0.13835457800E+03 -0.91645297324E+02  0.27407139392E+03  0.00000000000E+00 0.  1.
<mgrwt>
<rscale>  4 0.28118610E+03</rscale>
<asrwt>0</asrwt>
<pdfrwt beam="1">  1       21 0.41058974E-01 0.28118610E+03</pdfrwt>
<pdfrwt beam="2">  1        2 0.53165387E-01 0.28118610E+03</pdfrwt>
<totfact> 0.65156718E+03</totfact>
</mgrwt>
</event>
<event>
 5    0  0.1141006E+000  0.2592582E+03  0.7546771E-02  0.1107590E+00
          1   -1    0    0  503    0 -0.00000000000E+00  0.00000000000E+00  0.39398052591E+03  0.39398052591E+03  0.00000000000E+00 0. -1.
         21   -1    0    0  501  502  0.00000000000E+00 -0.00000000000E+00 -0.53027737478E+03  0.53027737478E+03  0.00000000000E+00 0. -1.
         25    1    1    2    0    0 -0.20292274591E+03  0.98068338712E+02 -0.44187918194E+03  0.51154398765E+03  0.12500000000E+03 0.  0.
         21    1    1    2  503  502 -0.27769163167E+02 -0.17662484078E+02  0.41375414171E+02  0.52867898243E+02  0.00000000000E+00 0.  1.
          1    1    1    2  501    0  0.23069190908E+03 -0.80405854634E+02  0.26420691889E+03  0.35984601480E+03  0.00000000000E+00 0. -1.
<mgrwt>
<rscale>  4 0.25925824E+03</rscale>
<asrwt>0</asrwt>
<pdfrwt beam="1">  1       21 0.81581134E-01 0.25925824E+03</pdfrwt>
<pdfrwt beam="2">  1        1 0.60612389E-01 0.25925824E+03</pdfrwt>
<totfact> 0.86618618E+02</totfact>
</mgrwt>
</event>
<event>
 5    0  0.1141006E+000  0.3043674E+03  0.7546771E-02  0.1083078E+00
         21   -1    0    0  501  502  0.00000000000E+00  0.00000000000E+00  0.25369257364E+03  0.25369257364E+03  0.00000000000E+00 0. -1.
          1   -1    0    0  503    0 -0.00000000000E+00 -0.00000000000E+00 -0.95329943470E+03  0.95329943470E+03  0.00000000000E+00 0.  1.
         25    1    1    2    0    0  0.19404171884E+03 -0.19849811245E+03  0.11738752802E+03  0.32627982014E+03  0.12500000000E+03 0.  0.
         21    1    1    2  503  502  0.23485750642E+02  0.24151291948E+02 -0.27635622500E+02  0.43572847244E+02  0.00000000000E+00 0.  1.
          1    1    1    2  501    0 -0.21752746949E+03  0.17434682050E+03 -0.78935876658E+03  0.83713934096E+03  0.00000000000E+00 0.  1.
<mgrwt>
<rscale>  4 0.30436737E+03</rscale>
<asrwt>0</asrwt>
<pdfrwt beam="1">  1       21 0.39029627E-01 0.30436737E+03</pdfrwt>
<pdfrwt beam="2">  1        1 0.14666145E+00 0.30436737E+03</pdfrwt>
<totfact> 0.11734454E+03</totfact>
</mgrwt>
</event>
<event>
 5    0  0.1141006E+000  0.4071769E+03  0.7546771E-02  0.1041323E+00
          2   -1    0    0  503    0 -0.00000000000E+00  0.00000000000E+00  0.11640186847E+04  0.11640186847E+04  0.00000000000E+00 0.  1.
         21   -1    0    0  501  502  0.00000000000E+00 -0.00000000000E+00 -0.29275104041E+03  0.29275104041E+03  0.00000000000E+00 0.  1.
         25    1    1    2    0    0  0.35484151316E+03  0.17074828205E+03 -0.60069039038E+02  0.41749343077E+03  0.12500000000E+03 0.  0.
         21    1    1    2  503  502 -0.28420403678E+01 -0.64542954199E+02  0.31538580102E+03  0.32193489033E+03  0.00000000000E+00 0.  1.
          2    1    1    2  501    0 -0.35199947279E+03 -0.10620532785E+03  0.61595088233E+03  0.71734140404E+03  0.00000000000E+00 0.  1.
<mgrwt>
<rscale>  4 0.40717689E+03</rscale>
<asrwt>0</asrwt>
<pdfrwt beam="1">  1       21 0.45038622E-01 0.40717689E+03</pdfrwt>
<pdfrwt beam="2">  1        2 0.17907980E+00 0.40717689E+03</pdfrwt>
<totfact> 0.11610979E+03</totfact>
</mgrwt>
</event>
<event>
 5    0  0.1141006E+000  0.2693567E+03  0.7546771E-02  0.1101648E+00
          2   -1    0    0  503    0 -0.00000000000E+00  0.00000000000E+00  0.37001358862E+04  0.37001358862E+04  0.00000000000E+00 0.  1.
         21   -1    0    0  501  502  0.00000000000E+00 -0.00000000000E+00 -0.99603140589E+02  0.99603140589E+02  0.00000000000E+00 0. -1.
         25    1    1    2    0    0  0.22399361439E+03 -0.73961281394E+02  0.10171238068E+03  0.28568132388E+03  0.12500000000E+03 0.  0.
         21    1    1    2  503  502  0.46301945418E+02 -0.71175021196E+00  0.53582381489E+03  0.53782110161E+03  0.00000000000E+00 0.  1.
          2    1    1    2  501    0 -0.27029555981E+03  0.74673031606E+02  0.29629965501E+04  0.29762366013E+04  0.00000000000E+00 0.  1.
<mgrwt>
<rscale>  4 0.26935668E+03</rscale>
<asrwt>0</asrwt>
<pdfrwt beam="1">  1       21 0.15323563E-01 0.26935668E+03</pdfrwt>
<pdfrwt beam="2">  1        2 0.56925157E+00 0.26935668E+03</pdfrwt>
<totfact> 0.35018128E+02</totfact>
</mgrwt>
</event>
<event>
 5    0  0.1141006E+000  0.2915604E+03  0.7546771E-02  0.1089537E+00
          2   -1    0    0  503    0 -0.00000000000E+00  0.00000000000E+00  0.69907179282E+03  0.69907179282E+03  0.00000000000E+00 0. -1.
         21   -1    0    0  501  502  0.00000000000E+00 -0.00000000000E+00 -0.32163456349E+03  0.32163456349E+03  0.00000000000E+00 0.  1.
         25    1    1    2    0    0  0.25608844841E+03  0.61653584288E+02 -0.21906990111E+03  0.36469038846E+03  0.12500000000E+03 0.  0.
         21    1    1    2  503  502 -0.19220905052E+03 -0.26165375531E+02  0.48855097951E+03  0.52565293260E+03  0.00000000000E+00 0. -1.
          2    1    1    2  501    0 -0.63879397884E+02 -0.35488208757E+02  0.10795615094E+03  0.13036303525E+03  0.00000000000E+00 0. -1.
<mgrwt>
<rscale>  4 0.29156038E+03</rscale>
<asrwt>0</asrwt>
<pdfrwt beam="1">  1       21 0.49482241E-01 0.29156038E+03</pdfrwt>
<pdfrwt beam="2">  1        2 0.10754951E+00 0.29156038E+03</pdfrwt>
<totfact> 0.19845595E+03</totfact>
</mgrwt>
</event>
<event>
 5    0  0.1141006E+000  0.2976028E+03  0.7546771E-02  0.1086445E+00
          1   -1    0    0  503    0 -0.00000000000E+00  0.00000000000E+00  0.10552866998E+04  0.10552866998E+04  0.00000000000E+00 0. -1.
         21   -1    0    0  501  502  0.00000000000E+00 -0.00000000000E+00 -0.17203523343E+03  0.17203523343E+03  0.00000000000E+00 0.  1.
         25    1    1    2    0    0  0.12449244404E+03  0.24635121504E+03  0.89088758660E+01  0.30313636839E+03  0.12500000000E+03 0.  0.
         21    1    1    2  503  502  0.18403360490E+02 -0.49888273503E+02  0.11024646902E+03  0.12240019380E+03  0.00000000000E+00 0. -1.
          1    1    1    2  501    0 -0.14289580453E+03 -0.19646294153E+03  0.76409612145E+03  0.80178537101E+03  0.00000000000E+00 0. -1.
<mgrwt>
<rscale>  4 0.29760277E+03</rscale>
<asrwt>0</asrwt>
<pdfrwt beam="1">  1       21 0.26466960E-01 0.29760277E+03</pdfrwt>
<pdfrwt beam="2">  1        1 0.16235180E+00 0.29760277E+03</pdfrwt>
<totfact> 0.21319432E+03</totfact>
</mgrwt>
</event>
<event>
 5    0  0.1141006E+000  0.5797803E+03  0.7546771E-02  0.9948267E-01
          1   -1    0    0  503    0 -0.00000000000E+00  0.00000000000E+00  0.15864478524E+04  0.15864478524E+04  0.00000000000E+00 0.  1.
         21   -1    0    0  501  502  0.00000000000E+00 -0.00000000000E+00 -0.94086379320E+03  0.94086379320E+03  0.00000000000E+00 0.  1.
         25    1    1    2    0    0  0.51263649496E+03 -0.43124512659E+03 -0.13421180338E+03  0.69455478066E+03  0.12500000000E+03 0.  0.
         21    1    1    2  503  502  0.13258628071E+02  0.31843200930E+03  0.11411261992E+04  0.11847969186E+04  0.00000000000E+00 0.  1.
          1    1    1    2  501    0 -0.52589512303E+03  0.11281311729E+03 -0.36133033666E+03  0.64795994633E+03  0.00000000000E+00 0.  1.
<mgrwt>
<rscale>  4 0.57978029E+03</rscale>
<asrwt>0</asrwt>
<pdfrwt beam="1">  1       21 0.14474828E+00 0.57978029E+03</pdfrwt>
<pdfrwt beam="2">  1        1 0.24406890E+00 0.57978029E+03</pdfrwt>
<totfact> 0.18379820E+01</totfact>
</mgrwt>
</event>
<event>
 5    0  0.1141006E+000  0.2788794E+03  0.7546771E-02  0.1096303E+00
          1   -1    0    0  503    0 -0.00000000000E+00  0.00000000000E+00  0.11197553345E+04  0.11197553345E+04  0.00000000000E+00 0.  1.
         21   -1    0    0  501  502  0.00000000000E+00 -0.00000000000E+00 -0.26516380240E+03  0.26516380240E+03  0.00000000000E+00 0. -1.
         25    1    1    2    0    0  0.19975594407E+03 -0.15008451158E+03 -0.16162303282E+03  0.32276121598E+03  0.12500000000E+03 0.  0.
         21    1    1    2  503  502  0.18155789241E+02  0.36874549042E+02  0.47551490384E+02  0.62853076995E+02  0.00000000000E+00 0.  1.
          1    1    1    2  501    0 -0.21791173331E+03  0.11320996253E+03  0.96866307456E+03  0.99930484396E+03  0.00000000000E+00 0.  1.
<mgrwt>
<rscale>  4 0.27887942E+03</rscale>
<asrwt>0</asrwt>
<pdfrwt beam="1">  1       21 0.40794432E-01 0.27887942E+03</pdfrwt>
<pdfrwt beam="2">  1        1 0.17227005E+00 0.27887942E+03</pdfrwt>
<totfact> 0.81476589E+02</totfact>
</mgrwt>
</event>
<event>
 5    0  0.1141006E+000  0.2915535E+03  0.7546771E-02  0.1089541E+00
         -1   -1    0    0    0  501 -0.00000000000E+00  0.00000000000E+00  0.10347753547E+03  0.10347753547E+03  0.00000000000E+00 0. -1.
         21   -1    0    0  503  502  0.00000000000E+00 -0.00000000000E+00 -0.15242678353E+04  0.15242678353E+04  0.00000000000E+00 0. -1.
         25    1    1    2    0    0  0.21570740843E+03 -0.20172423763E+03 -0.74637580099E+03  0.81235718154E+03  0.12500000000E+03 0.  0.
         21    1    1    2  503  501 -0.14818588501E+03 -0.45291351333E+02 -0.94613605972E+02  0.18155466796E+03  0.00000000000E+00 0. -1.
         -1    1    1    2    0  502 -0.67521523418E+02  0.24701558896E+03 -0.57980089283E+03  0.63383352124E+03  0.00000000000E+00 0. -1.
<mgrwt>
<rscale>  4 0.29155349E+03</rscale>
<asrwt>0</asrwt>
<pdfrwt beam="1">  1       21 0.23450271E+00 0.29155349E+03</pdfrwt>
<pdfrwt beam="2">  1       -1 0.15919623E-01 0.29155349E+03</pdfrwt>
<totfact> 0.20227035E+02</totfact>
</mgrwt>
</event>
<event>
 5    0  0.1141006E+000  0.3371058E+03  0.7546771E-02  0.1068035E+00
          2   -1    0    0  503    0 -0.00000000000E+00  0.00000000000E+00  0.46100794143E+04  0.46100794143E+04  0.00000000000E+00 0.  1.
         21   -1    0    0  501  502  0.00000000000E+00 -0.00000000000E+00 -0.88114484035E+02  0.88114484035E+02  0.00000000000E+00 0.  1.
         25    1    1    2    0    0  0.30641552889E+03 -0.76855149621E+02  0.27890201202E+03  0.43955491429E+03  0.12500000000E+03 0.  0.
         21    1    1    2  503  502 -0.19400896539E+02  0.25094242271E+02  0.14584939404E+04  0.14588388156E+04  0.00000000000E+00 0.  1.
          2    1    1    2  501    0 -0.28701463235E+03  0.51760907350E+02  0.27845689778E+04  0.27998001684E+04  0.00000000000E+00 0.  1.
<mgrwt>
<rscale>  4 0.33710577E+03</rscale>
<asrwt>0</asrwt>
<pdfrwt beam="1">  1       21 0.13556078E-01 0.33710577E+03</pdfrwt>
<pdfrwt beam="2">  1        2 0.70924279E+00 0.33710577E+03</pdfrwt>
<totfact> 0.74956121E+01</totfact>
</mgrwt>
</event>
<event>
 5    0  0.1141006E+000  0.3860154E+03  0.7546771E-02  0.1048733E+00
          1   -1    0    0  503    0 -0.00000000000E+00  0.00000000000E+00  0.96425618615E+03  0.96425618615E+03  0.00000000000E+00 0.  1.
         21   -1    0    0  501  502  0.00000000000E+00 -0.00000000000E+00 -0.97186524354E+03  0.97186524354E+03  0.00000000000E+00 0. -1.
         25    1    1    2    0    0 -0.57905096402E+02  0.36185797717E+03 -0.88963851005E+03  0.97024526507E+03  0.12500000000E+03 0.  0.
         21    1    1    2  503  502 -0.63526671837E+01 -0.30464949535E+02  0.13256002934E+02  0.33825894583E+02  0.00000000000E+00 0.  1.
          1    1    1    2  501    0  0.64257763586E+02 -0.33139302764E+03  0.86877344972E+03  0.93205027004E+03  0.00000000000E+00 0.  1.
<mgrwt>
<rscale>  4 0.38601539E+03</rscale>
<asrwt>0</asrwt>
<pdfrwt beam="1">  1       21 0.14951773E+00 0.38601539E+03</pdfrwt>
<pdfrwt beam="2">  1        1 0.14834711E+00 0.38601539E+03</pdfrwt>
<totfact> 0.50374301E+01</totfact>
</mgrwt>
</event>
<event>
 5    0  0.1141006E+000  0.2306312E+03  0.7546771E-02  0.1126196E+00
         21   -1    0    0  501  502  0.00000000000E+00  0.00000000000E+00  0.71392315218E+02  0.71392315218E+02  0.00000000000E+00 0. -1.
          1   -1    0    0  503    0 -0.00000000000E+00 -0.00000000000E+00 -0.11552273638E+04  0.11552273638E+04  0.00000000000E+00 0. -1.
         25    1    1    2    0    0 -0.23354439641E+03  0.41258033295E+02 -0.68257804083E+03  0.73333688863E+03  0.12500000000E+03 0.  0.
         21    1    1    2  503  502  0.51185775865E+02 -0.41916902588E+02 -0.24294460014E+03  0.25179175743E+03  0.00000000000E+00 0. -1.
          1    1    1    2  501    0  0.18235862055E+03  0.65886929378E+00 -0.15831240764E+03  0.24149103298E+03  0.00000000000E+00 0. -1.
<mgrwt>
<rscale>  4 0.23063117E+03</rscale>
<asrwt>0</asrwt>
<pdfrwt beam="1">  1       21 0.10983434E-01 0.23063117E+03</pdfrwt>
<pdfrwt beam="2">  1        1 0.17772727E+00 0.23063117E+03</pdfrwt>
<totfact> 0.94381921E+03</totfact>
</mgrwt>
</event>
<event>
 5    0  0.1141006E+000  0.2599957E+03  0.7546771E-02  0.1107146E+00
          1   -1    0    0  503    0 -0.00000000000E+00  0.00000000000E+00  0.14035354845E+04  0.14035354845E+04  0.00000000000E+00 0. -1.
         21   -1    0    0  501  502  0.00000000000E+00 -0.00000000000E+00 -0.63684284090E+02  0.63684284090E+02  0.00000000000E+00 0. -1.
         25    1    1    2    0    0 -0.16719209603E+03 -0.14554168193E+03  0.31514984822E+03  0.40506790170E+03  0.12500000000E+03 0.  0.
         21    1    1    2  503  502 -0.12023399793E+02 -0.17167056710E+02  0.24125682512E+03  0.24216549227E+03  0.00000000000E+00 0. -1.
          1    1    1    2  501    0  0.17921549582E+03  0.16270873864E+03  0.78344452710E+03  0.81998637465E+03  0.00000000000E+00 0. -1.
<mgrwt>
<rscale>  4 0.25999569E+03</rscale>
<asrwt>0</asrwt>
<pdfrwt beam="1">  1       21 0.97975832E-02 0.25999569E+03</pdfrwt>
<pdfrwt beam="2">  1        1 0.21592851E+00 0.25999569E+03</pdfrwt>
<totfact> 0.77461571E+03</totfact>
</mgrwt>
</event>
<event>
 5    0  0.1141006E+000  0.3034293E+03  0.7546771E-02  0.1083539E+00
          2   -1    0    0  503    0 -0.00000000000E+00  0.00000000000E+00  0.11825797608E+04  0.11825797608E+04  0.00000000000E+00 0.  1.
         21   -1    0    0  501  502  0.00000000000E+00 -0.00000000000E+00 -0.10713639016E+03  0.10713639016E+03  0.00000000000E+00 0.  1.
         25    1    1    2    0    0 -0.95968429691E+02 -0.22700679249E+03  0.42928379518E+03  0.51054049804E+03  0.12500000000E+03 0.  0.
         21    1    1    2  503  502  0.97836195698E+01 -0.59891233457E+02  0.35938781499E+03  0.36447534981E+03  0.00000000000E+00 0.  1.
          2    1    1    2  501    0  0.86184810121E+02  0.28689802595E+03  0.28677176047E+03  0.41470030310E+03  0.00000000000E+00 0.  1.
<mgrwt>
<rscale>  4 0.30342932E+03</rscale>
<asrwt>0</asrwt>
<pdfrwt beam="1">  1       21 0.16482522E-01 0.30342932E+03</pdfrwt>
<pdfrwt beam="2">  1        2 0.18193534E+00 0.30342932E+03</pdfrwt>
<totfact> 0.83505395E+03</totfact>
</mgrwt>
</event>
<event>
 5    0  0.1141006E+000  0.2551032E+03  0.7546771E-02  0.1110122E+00
         21   -1    0    0  501  502  0.00000000000E+00  0.00000000000E+00  0.20147332977E+03  0.20147332977E+03  0.00000000000E+00 0.  1.
          2   -1    0    0  503    0 -0.00000000000E+00 -0.00000000000E+00 -0.51824513312E+03  0.51824513312E+03  0.00000000000E+00 0. -1.
         25    1    1    2    0    0  0.22059481639E+03 -0.28117269412E+02  0.75801167142E+02  0.26612679459E+03  0.12500000000E+03 0.  0.
         21    1    1    2  503  502 -0.39147283863E+02 -0.80783519115E+01 -0.96625233633E+02  0.10456675083E+03  0.00000000000E+00 0.  1.
          2    1    1    2  501    0 -0.18144753253E+03  0.36195621324E+02 -0.29594773686E+03  0.34902491747E+03  0.00000000000E+00 0. -1.
<mgrwt>
<rscale>  4 0.25510322E+03</rscale>
<asrwt>0</asrwt>
<pdfrwt beam="1">  1       21 0.30995898E-01 0.25510322E+03</pdfrwt>
<pdfrwt beam="2">  1        2 0.79730017E-01 0.25510322E+03</pdfrwt>
<totfact> 0.73674943E+03</totfact>
</mgrwt>
</event>
<event>
 5    0  0.1141006E+000  0.3145756E+03  0.7546771E-02  0.1078173E+00
          1   -1    0    0  503    0 -0.00000000000E+00  0.00000000000E+00  0.56588803921E+03  0.56588803921E+03  0.00000000000E+00 0. -1.
         21   -1    0    0  501  502  0.00000000000E+00 -0.00000000000E+00 -0.87975548578E+03  0.87975548578E+03  0.00000000000E+00 0. -1.
         25    1    1    2    0    0 -0.17395675858E+03 -0.23200459166E+03 -0.79310499983E+03  0.85365544874E+03  0.12500000000E+03 0.  0.
         21    1    1    2  503  502  0.44485138997E+02 -0.40059921363E+01  0.27889441112E+01  0.44752137086E+02  0.00000000000E+00 0. -1.
          1    1    1    2  501    0  0.12947161959E+03  0.23601058379E+03  0.47644860916E+03  0.54723593916E+03  0.00000000000E+00 0. -1.
<mgrwt>
<rscale>  4 0.31457556E+03</rscale>
<asrwt>0</asrwt>
<pdfrwt beam="1">  1       21 0.13534700E+00 0.31457556E+03</pdfrwt>
<pdfrwt beam="2">  1        1 0.87059699E-01 0.31457556E+03</pdfrwt>
<totfact> 0.15275296E+02</totfact>
</mgrwt>
</event>
<event>
 5    0  0.1141006E+000  0.2436241E+03  0.7546771E-02  0.1117402E+00
         -3   -1    0    0    0  501 -0.00000000000E+00  0.00000000000E+00  0.50946131465E+03  0.50946131465E+03  0.00000000000E+00 0.  1.
         21   -1    0    0  503  502  0.00000000000E+00 -0.00000000000E+00 -0.14319056381E+03  0.14319056381E+03  0.00000000000E+00 0.  1.
         25    1    1    2    0    0 -0.72584694927E+02  0.19283266553E+03  0.54745466447E+02  0.24713364994E+03  0.12500000000E+03 0.  0.
         21    1    1    2  503  501  0.24573093081E+02  0.17387209055E+02  0.96139427989E+02  0.10074195529E+03  0.00000000000E+00 0. -1.
         -3    1    1    2    0  502  0.48011601846E+02 -0.21021987459E+03  0.21538585641E+03  0.30477627323E+03  0.00000000000E+00 0.  1.
<mgrwt>
<rscale>  4 0.24362407E+03</rscale>
<asrwt>0</asrwt>
<pdfrwt beam="1">  1       21 0.22029318E-01 0.24362407E+03</pdfrwt>
<pdfrwt beam="2">  1       -3 0.78378663E-01 0.24362407E+03</pdfrwt>
<totfact> 0.14793932E+03</totfact>
</mgrwt>
</event>
<event>
 5    0  0.1141006E+000  0.2434928E+03  0.7546771E-02  0.1117488E+00
         -2   -1    0    0    0  501 -0.00000000000E+00  0.00000000000E+00  0.22544226513E+03  0.22544226513E+03  0.00000000000E+00 0.  1.
         21   -1    0    0  503  502  0.00000000000E+00 -0.00000000000E+00 -0.98473665695E+03  0.98473665695E+03  0.00000000000E+00 0. -1.
         25    1    1    2    0    0 -0.18832848829E+03  0.96577656261E+02 -0.88781449618E+03  0.92121357069E+03  0.12500000000E+03 0.  0.
         21    1    1    2  503  501  0.40857985454E+02  0.36147132034E+01 -0.29664319359E+02  0.50620282200E+02  0.00000000000E+00 0.  1.
         -2    1    1    2    0  502  0.14747050284E+03 -0.10019236946E+03  0.15818442372E+03  0.23834506920E+03  0.00000000000E+00 0.  1.
<mgrwt>
<rscale>  4 0.24349276E+03</rscale>
<asrwt>0</asrwt>
<pdfrwt beam="1">  1       21 0.15149795E+00 0.24349276E+03</pdfrwt>
<pdfrwt beam="2">  1       -2 0.34683425E-01 0.24349276E+03</pdfrwt>
<totfact> 0.17757628E+02</totfact>
</mgrwt>
</event>
<event>
 5    0  0.1141006E+000  0.2838526E+03  0.7546771E-02  0.1093603E+00
         21   -1    0    0  501  502  0.00000000000E+00  0.00000000000E+00  0.33887589975E+03  0.33887589975E+03  0.00000000000E+00 0. -1.
          2   -1    0    0  503    0 -0.00000000000E+00 -0.00000000000E+00 -0.22021640763E+03  0.22021640763E+03  0.00000000000E+00 0.  1.
         25    1    1    2    0    0 -0.23168751715E+03 -0.10615182230E+03  0.50349546100E+02  0.28828352671E+03  0.12500000000E+03 0.  0.
         21    1    1    2  503  502  0.22561288424E+02 -0.30139821124E+01 -0.58877564909E+01  0.23510880460E+02  0.00000000000E+00 0.  1.
          2    1    1    2  501    0  0.20912622872E+03  0.10916580441E+03  0.74197702513E+02  0.24729790021E+03  0.00000000000E+00 0.  1.
<mgrwt>
<rscale>  4 0.28385263E+03</rscale>
<asrwt>0</asrwt>
<pdfrwt beam="1">  1       21 0.52134754E-01 0.28385263E+03</pdfrwt>
<pdfrwt beam="2">  1        2 0.33879447E-01 0.28385263E+03</pdfrwt>
<totfact> 0.64651274E+03</totfact>
</mgrwt>
</event>
<event>
 5    0  0.1141006E+000  0.2494953E+03  0.7546771E-02  0.1113624E+00
         21   -1    0    0  501  502  0.00000000000E+00  0.00000000000E+00  0.15286770918E+03  0.15286770918E+03  0.00000000000E+00 0.  1.
          1   -1    0    0  503    0 -0.00000000000E+00 -0.00000000000E+00 -0.11752149023E+04  0.11752149023E+04  0.00000000000E+00 0. -1.
         25    1    1    2    0    0 -0.19523504009E+03  0.81362549768E+02  0.12464959862E+02  0.24600195245E+03  0.12500000000E+03 0.  0.
         21    1    1    2  503  502 -0.31887865563E+02 -0.38898917422E+01 -0.43297285657E+03  0.43416294379E+03  0.00000000000E+00 0.  1.
          1    1    1    2  501    0  0.22712290566E+03 -0.77472658026E+02 -0.60183929639E+03  0.64791771522E+03  0.00000000000E+00 0. -1.
<mgrwt>
<rscale>  4 0.24949528E+03</rscale>
<asrwt>0</asrwt>
<pdfrwt beam="1">  1       21 0.23518108E-01 0.24949528E+03</pdfrwt>
<pdfrwt beam="2">  1        1 0.18080230E+00 0.24949528E+03</pdfrwt>
<totfact> 0.22318537E+03</totfact>
</mgrwt>
</event>
<event>
 5    0  0.1141006E+000  0.2555562E+03  0.7546771E-02  0.1109843E+00
         21   -1    0    0  501  502  0.00000000000E+00  0.00000000000E+00  0.53681608363E+03  0.53681608363E+03  0.00000000000E+00 0.  1.
          2   -1    0    0  503    0 -0.00000000000E+00 -0.00000000000E+00 -0.81982066298E+03  0.81982066298E+03  0.00000000000E+00 0.  1.
         25    1    1    2    0    0  0.10918749167E+03  0.19441046287E+03  0.47733017407E+03  0.54146692557E+03  0.12500000000E+03 0.  0.
         21    1    1    2  503  502  0.45245384877E+02 -0.27311056950E+02 -0.26299488171E+03  0.26825239326E+03  0.00000000000E+00 0.  1.
          2    1    1    2  501    0 -0.15443287655E+03 -0.16709940592E+03 -0.49733987171E+03  0.54691742778E+03  0.00000000000E+00 0.  1.
<mgrwt>
<rscale>  4 0.25555615E+03</rscale>
<asrwt>0</asrwt>
<pdfrwt beam="1">  1       21 0.82587090E-01 0.25555615E+03</pdfrwt>
<pdfrwt beam="2">  1        2 0.12612626E+00 0.25555615E+03</pdfrwt>
<totfact> 0.53658615E+02</totfact>
</mgrwt>
</event>
<event>
 5    0  0.1141006E+000  0.3060390E+03  0.7546771E-02  0.1082260E+00
         21   -1    0    0  501  502  0.00000000000E+00  0.00000000000E+00  0.89728993767E+03  0.89728993767E+03  0.00000000000E+00 0.  1.
          3   -1    0    0  503    0 -0.00000000000E+00 -0.00000000000E+00 -0.16041639861E+03  0.16041639861E+03  0.00000000000E+00 0. -1.
         25    1    1    2    0    0  0.24276658890E+03  0.12368562066E+03  0.55863027642E+03  0.63397676234E+03  0.12500000000E+03 0.  0.
         21    1    1    2  503  502  0.11072358342E+02  0.22106617721E+02 -0.47846029689E+02  0.53856682253E+02  0.00000000000E+00 0. -1.
          3    1    1    2  501    0 -0.25383894724E+03 -0.14579223838E+03  0.22608929232E+03  0.36987289170E+03  0.00000000000E+00 0. -1.
<mgrwt>
<rscale>  4 0.30603897E+03</rscale>
<asrwt>0</asrwt>
<pdfrwt beam="1">  1       21 0.13804460E+00 0.30603897E+03</pdfrwt>
<pdfrwt beam="2">  1        3 0.24679446E-01 0.30603897E+03</pdfrwt>
<totfact> 0.27208811E+02</totfact>
</mgrwt>
</event>
<event>
 5    0  0.1141006E+000  0.2577399E+03  0.7546771E-02  0.1108509E+00
          2   -1    0    0  503    0 -0.00000000000E+00  0.00000000000E+00  0.20318708053E+04  0.20318708053E+04  0.00000000000E+00 0.  1.
         21   -1    0    0  501  502  0.00000000000E+00 -0.00000000000E+00 -0.11666915195E+03  0.11666915195E+03  0.00000000000E+00 0.  1.
         25    1    1    2    0    0 -0.48585514335E+02 -0.21795300298E+03  0.54312855524E+02  0.26160839051E+03  0.12500000000E+03 0.  0.
         21    1    1    2  503  502 -0.60057132926E+02 -0.89185049181E+01  0.33872328210E+03  0.34412186908E+03  0.00000000000E+00 0. -1.
          2    1    1    2  501    0  0.10864264726E+03  0.22687150790E+03  0.15221655157E+04  0.15428096977E+04  0.00000000000E+00 0.  1.
<mgrwt>
<rscale>  4 0.25773987E+03</rscale>
<asrwt>0</asrwt>
<pdfrwt beam="1">  1       21 0.17949102E-01 0.25773987E+03</pdfrwt>
<pdfrwt beam="2">  1        2 0.31259548E+00 0.25773987E+03</pdfrwt>
<totfact> 0.25299958E+03</totfact>
</mgrwt>
</event>
<event>
 5    0  0.1141006E+000  0.2432444E+03  0.7546771E-02  0.1117650E+00
          1   -1    0    0  503    0 -0.00000000000E+00  0.00000000000E+00  0.59223225494E+03  0.59223225494E+03  0.00000000000E+00 0. -1.
         21   -1    0    0  501  502  0.00000000000E+00 -0.00000000000E+00 -0.29572940448E+03  0.29572940448E+03  0.00000000000E+00 0. -1.
         25    1    1    2    0    0 -0.19951095182E+03 -0.19894698325E+03  0.44911848956E+02  0.31149092478E+03  0.12500000000E+03 0.  0.
         21    1    1    2  503  502  0.11072993448E+03  0.33559366269E+02  0.34708771705E+03  0.36586504722E+03  0.00000000000E+00 0. -1.
          1    1    1    2  501    0  0.88781017337E+02  0.16538761698E+03 -0.95496715547E+02  0.21060568741E+03  0.00000000000E+00 0. -1.
<mgrwt>
<rscale>  4 0.24324443E+03</rscale>
<asrwt>0</asrwt>
<pdfrwt beam="1">  1       21 0.45496832E-01 0.24324443E+03</pdfrwt>
<pdfrwt beam="2">  1        1 0.91112654E-01 0.24324443E+03</pdfrwt>
<totfact> 0.18024503E+03</totfact>
</mgrwt>
</event>
<event>
 5    0  0.1141006E+000  0.2550738E+03  0.7546771E-02  0.1110140E+00
         21   -1    0    0  501  502  0.00000000000E+00  0.00000000000E+00  0.49931754766E+03  0.49931754766E+03  0.00000000000E+00 0.  1.
          1   -1    0    0  503    0 -0.00000000000E+00 -0.00000000000E+00 -0.97659709738E+03  0.97659709738E+03  0.00000000000E+00 0.  1.
         25    1    1    2    0    0 -0.22310036249E+03  0.25321790432E+02  0.44733427892E+03  0.51589526254E+03  0.12500000000E+03 0.  0.
         21    1    1    2  503  502  0.49872147174E+02 -0.42270935582E+02 -0.11858955160E+03  0.13541619108E+03  0.00000000000E+00 0. -1.
          1    1    1    2  501    0  0.17322821532E+03  0.16949145150E+02 -0.80602427705E+03  0.82460319141E+03  0.00000000000E+00 0.  1.
<mgrwt>
<rscale>  4 0.25507382E+03</rscale>
<asrwt>0</asrwt>
<pdfrwt beam="1">  1       21 0.76818086E-01 0.25507382E+03</pdfrwt>
<pdfrwt beam="2">  1        1 0.15024570E+00 0.25507382E+03</pdfrwt>
<totfact> 0.27061334E+02</totfact>
</mgrwt>
</event>
<event>
 5    0  0.1141006E+000  0.3489928E+03  0.7546771E-02  0.1063029E+00
         21   -1    0    0  501  502  0.00000000000E+00  0.00000000000E+00  0.74253679389E+03  0.74253679389E+03  0.00000000000E+00 0.  1.
          3   -1    0    0  503    0 -0.00000000000E+00 -0.00000000000E+00 -0.20516021339E+03  0.20516021339E+03  0.00000000000E+00 0.  1.
         25    1    1    2    0    0  0.24903382855E+03  0.25162219740E+03  0.37941210964E+03  0.53376973212E+03  0.12500000000E+03 0.  0.
         21    1    1    2  503  502 -0.34784906799E+02 -0.47421250601E+02 -0.27208577330E+02  0.64800242514E+02  0.00000000000E+00 0.  1.
          3    1    1    2  501    0 -0.21424892176E+03 -0.20420094679E+03  0.18517304819E+03  0.34912703264E+03  0.00000000000E+00 0.  1.
<mgrwt>
<rscale>  4 0.34899276E+03</rscale>
<asrwt>0</asrwt>
<pdfrwt beam="1">  1       21 0.11423643E+00 0.34899276E+03</pdfrwt>
<pdfrwt beam="2">  1        3 0.31563110E-01 0.34899276E+03</pdfrwt>
<totfact> 0.27585154E+02</totfact>
</mgrwt>
</event>
<event>
 5    0  0.1141006E+000  0.3846235E+03  0.7546771E-02  0.1049238E+00
          1   -1    0    0  503    0 -0.00000000000E+00  0.00000000000E+00  0.18684723936E+04  0.18684723936E+04  0.00000000000E+00 0. -1.
         21   -1    0    0  501  502  0.00000000000E+00 -0.00000000000E+00 -0.54093072708E+03  0.54093072708E+03  0.00000000000E+00 0. -1.
         25    1    1    2    0    0  0.20622549629E+03  0.30031283039E+03 -0.44831564727E+03  0.59104032943E+03  0.12500000000E+03 0.  0.
         21    1    1    2  503  502 -0.23567776333E+02 -0.12275963072E+01  0.32701077091E+02  0.40327503232E+02  0.00000000000E+00 0. -1.
          1    1    1    2  501    0 -0.18265771996E+03 -0.29908523408E+03  0.17431562367E+04  0.17780352880E+04  0.00000000000E+00 0. -1.
<mgrwt>
<rscale>  4 0.38462348E+03</rscale>
<asrwt>0</asrwt>
<pdfrwt beam="1">  1       21 0.83220113E-01 0.38462348E+03</pdfrwt>
<pdfrwt beam="2">  1        1 0.28745729E+00 0.38462348E+03</pdfrwt>
<totfact> 0.51544346E+01</totfact>
</mgrwt>
</event>
<event>
 5    0  0.1141006E+000  0.2708019E+03  0.7546771E-02  0.1100822E+00
         21   -1    0    0  503  502  0.00000000000E+00  0.00000000000E+00  0.17244579202E+04  0.17244579202E+04  0.00000000000E+00 0.  1.
         -1   -1    0    0    0  501 -0.00000000000E+00 -0.00000000000E+00 -0.46456087680E+02  0.46456087680E+02  0.00000000000E+00 0. -1.
         25    1    1    2    0    0  0.15913511779E+03  0.16580153096E+03  0.10176478308E+04  0.10507360472E+04  0.12500000000E+03 0.  0.
         21    1    1    2  503  501  0.92127489712E+01  0.28004169555E+02  0.50154850383E+02  0.58177463618E+02  0.00000000000E+00 0. -1.
         -1    1    1    2    0  502 -0.16834786676E+03 -0.19380570052E+03  0.61019915137E+03  0.66200049708E+03  0.00000000000E+00 0. -1.
<mgrwt>
<rscale>  4 0.27080189E+03</rscale>
<asrwt>0</asrwt>
<pdfrwt beam="1">  1       21 0.26530117E+00 0.27080189E+03</pdfrwt>
<pdfrwt beam="2">  1       -1 0.71470917E-02 0.27080189E+03</pdfrwt>
<totfact> 0.46646113E+02</totfact>
</mgrwt>
</event>
<event>
 5    0  0.1141006E+000  0.3308790E+03  0.7546771E-02  0.1070749E+00
         21   -1    0    0  501  502  0.00000000000E+00  0.00000000000E+00  0.23516901792E+03  0.23516901792E+03  0.00000000000E+00 0. -1.
          2   -1    0    0  503    0 -0.00000000000E+00 -0.00000000000E+00 -0.12171247124E+04  0.12171247124E+04  0.00000000000E+00 0.  1.
         25    1    1    2    0    0 -0.22877179810E+03 -0.21003820925E+03  0.76453987753E+02  0.34339888933E+03  0.12500000000E+03 0.  0.
         21    1    1    2  503  502  0.45252429484E+02  0.38053877467E+01 -0.76971261314E+02  0.89369113336E+02  0.00000000000E+00 0.  1.
          2    1    1    2  501    0  0.18351936861E+03  0.20623282150E+03 -0.98143842096E+03  0.10195257277E+04  0.00000000000E+00 0.  1.
<mgrwt>
<rscale>  4 0.33087900E+03</rscale>
<asrwt>0</asrwt>
<pdfrwt beam="1">  1       21 0.36179849E-01 0.33087900E+03</pdfrwt>
<pdfrwt beam="2">  1        2 0.18724996E+00 0.33087900E+03</pdfrwt>
<totfact> 0.17357092E+03</totfact>
</mgrwt>
</event>
<event>
 5    0  0.1141006E+000  0.2372275E+03  0.7546771E-02  0.1121654E+00
          2   -1    0    0  503    0 -0.00000000000E+00  0.00000000000E+00  0.15723867984E+04  0.15723867984E+04  0.00000000000E+00 0. -1.
         21   -1    0    0  501  502  0.00000000000E+00 -0.00000000000E+00 -0.47731104834E+02  0.47731104834E+02  0.00000000000E+00 0.  1.
         25    1    1    2    0    0  0.14549216972E+03  0.13958478630E+03  0.32453302155E+03  0.40199324135E+03  0.12500000000E+03 0.  0.
         21    1    1    2  503  502 -0.30460028064E+02 -0.21748717281E+02  0.12564000943E+03  0.13109626991E+03  0.00000000000E+00 0.  1.
          2    1    1    2  501    0 -0.11503214165E+03 -0.11783606902E+03  0.10744826626E+04  0.10870283920E+04  0.00000000000E+00 0. -1.
<mgrwt>
<rscale>  4 0.23722749E+03</rscale>
<asrwt>0</asrwt>
<pdfrwt beam="1">  1       21 0.73432481E-02 0.23722749E+03</pdfrwt>
<pdfrwt beam="2">  1        2 0.24190562E+00 0.23722749E+03</pdfrwt>
<totfact> 0.22115262E+04</totfact>
</mgrwt>
</event>
<event>
 5    0  0.1141006E+000  0.3821702E+03  0.7546771E-02  0.1050135E+00
         21   -1    0    0  501  502  0.00000000000E+00  0.00000000000E+00  0.31685694406E+03  0.31685694406E+03  0.00000000000E+00 0.  1.
          2   -1    0    0  503    0 -0.00000000000E+00 -0.00000000000E+00 -0.13543424005E+04  0.13543424005E+04  0.00000000000E+00 0.  1.
         25    1    1    2    0    0  0.14163162482E+03 -0.32989419370E+03  0.15437853932E+03  0.41030163245E+03  0.12500000000E+03 0.  0.
         21    1    1    2  503  502 -0.48131108121E+01 -0.25820221981E+02 -0.42175610558E+02  0.49685330077E+02  0.00000000000E+00 0.  1.
          2    1    1    2  501    0 -0.13681851401E+03  0.35571441568E+03 -0.11496883852E+04  0.12112123820E+04  0.00000000000E+00 0.  1.
<mgrwt>
<rscale>  4 0.38217019E+03</rscale>
<asrwt>0</asrwt>
<pdfrwt beam="1">  1       21 0.48747222E-01 0.38217019E+03</pdfrwt>
<pdfrwt beam="2">  1        2 0.20836037E+00 0.38217019E+03</pdfrwt>
<totfact> 0.77192870E+02</totfact>
</mgrwt>
</event>
<event>
 5    0  0.1141006E+000  0.2451031E+03  0.7546771E-02  0.1116439E+00
         21   -1    0    0  501  502  0.00000000000E+00  0.00000000000E+00  0.10609695866E+03  0.10609695866E+03  0.00000000000E+00 0.  1.
          2   -1    0    0  503    0 -0.00000000000E+00 -0.00000000000E+00 -0.10463783667E+04  0.10463783667E+04  0.00000000000E+00 0.  1.
         25    1    1    2    0    0 -0.19746762044E+03 -0.73871841685E+02 -0.69065263241E+02  0.25464783664E+03  0.12500000000E+03 0.  0.
         21    1    1    2  503  502  0.75783681713E+02  0.26288573787E+02 -0.23437215760E+03  0.24771871908E+03  0.00000000000E+00 0.  1.
          2    1    1    2  501    0  0.12168393873E+03  0.47583267898E+02 -0.63684398724E+03  0.65010876968E+03  0.00000000000E+00 0.  1.
<mgrwt>
<rscale>  4 0.24510306E+03</rscale>
<asrwt>0</asrwt>
<pdfrwt beam="1">  1       21 0.16322609E-01 0.24510306E+03</pdfrwt>
<pdfrwt beam="2">  1        2 0.16098129E+00 0.24510306E+03</pdfrwt>
<totfact> 0.10369472E+04</totfact>
</mgrwt>
</event>
<event>
 5    0  0.1141006E+000  0.2534560E+03  0.7546771E-02  0.1111140E+00
         21   -1    0    0  503  502  0.00000000000E+00  0.00000000000E+00  0.12036789643E+04  0.12036789643E+04  0.00000000000E+00 0.  1.
         -3   -1    0    0    0  501 -0.00000000000E+00 -0.00000000000E+00 -0.29803340560E+03  0.29803340560E+03  0.00000000000E+00 0.  1.
         25    1    1    2    0    0  0.21954797413E+03  0.80008743851E+01  0.11184155487E+04  0.11466227220E+04  0.12500000000E+03 0.  0.
         21    1    1    2  503  501  0.15874192976E+02 -0.42946602278E+02 -0.26854331062E+02  0.53080653224E+02  0.00000000000E+00 0. -1.
         -3    1    1    2    0  502 -0.23542216711E+03  0.34945727892E+02 -0.18591565893E+03  0.30200899473E+03  0.00000000000E+00 0.  1.
<mgrwt>
<rscale>  4 0.25345604E+03</rscale>
<asrwt>0</asrwt>
<pdfrwt beam="1">  1       21 0.18518138E+00 0.25345604E+03</pdfrwt>
<pdfrwt beam="2">  1       -3 0.45851294E-01 0.25345604E+03</pdfrwt>
<totfact> 0.38015160E+01</totfact>
</mgrwt>
</event>
<event>
 5    0  0.1141006E+000  0.3352763E+03  0.7546771E-02  0.1068826E+00
          4   -1    0    0  503    0 -0.00000000000E+00  0.00000000000E+00  0.17261741687E+03  0.17261741687E+03  0.00000000000E+00 0. -1.
         21   -1    0    0  501  502  0.00000000000E+00 -0.00000000000E+00 -0.74264265234E+03  0.74264265234E+03  0.00000000000E+00 0. -1.
         25    1    1    2    0    0 -0.10145898712E+01 -0.30253116128E+03 -0.40957959981E+03  0.52431534550E+03  0.12500000000E+03 0.  0.
         21    1    1    2  503  502  0.16519449879E+02 -0.24032317261E+02 -0.81399431005E+01  0.30277106383E+02  0.00000000000E+00 0.  1.
          4    1    1    2  501    0 -0.15504860008E+02  0.32656347854E+03 -0.15230569256E+03  0.36066761733E+03  0.00000000000E+00 0. -1.
<mgrwt>
<rscale>  4 0.33527626E+03</rscale>
<asrwt>0</asrwt>
<pdfrwt beam="1">  1       21 0.11425271E+00 0.33527626E+03</pdfrwt>
<pdfrwt beam="2">  1        4 0.26556526E-01 0.33527626E+03</pdfrwt>
<totfact> 0.32751229E+02</totfact>
</mgrwt>
</event>
