<LesHouchesEvents version="3.0">
  <!--
  <scalesfunctionalform>
    muR  H_T/2 := sum_i mT(i)/2, i=final state
    muF1 H_T/2 := sum_i mT(i)/2, i=final state
    muF2 H_T/2 := sum_i mT(i)/2, i=final state
    QES  H_T/2 := sum_i mT(i)/2, i=final state
  </scalesfunctionalform>
HERWIG6   
  -->
  <header>
       27
  </header>
  <init>
   2212   2212 0.65000000D+04 0.65000000D+04 -1 -1   244800   244800 -4   1
 0.20384769D-04 0.80283095D-06 0.15790991D-05     66
  </init>
  <event>
  6     66 -.15790991E-05 0.45629028E+02 0.75467711E-02 0.90778253E-01
       -4 -1    0    0    0  501 0.00000000E+00 0.00000000E+00 0.96355397E+03 0.96355522E+03 0.15500000E+01 0.0000E+00 0.9000E+01
        2 -1    0    0  502    0 -.00000000E+00 -.00000000E+00 -.29176674E+04 0.29176674E+04 0.32000000E+00 0.0000E+00 0.9000E+01
       25  1    1    2    0    0 0.49503101E+03 0.43806888E+03 0.66720379E+03 0.94749456E+03 0.12500000E+03 0.0000E+00 0.9000E+01
       -4  1    1    2    0  501 0.13471376E+02 0.46778242E+02 0.10632477E+03 0.11694889E+03 0.15500000E+01 0.0000E+00 0.9000E+01
        2  1    1    2  503    0 -.48154582E+03 -.46144059E+03 -.26074060E+04 0.26913528E+04 0.32000000E+00 0.0000E+00 0.9000E+01
       21  1    1    2  502  503 -.26956560E+02 -.23406531E+02 -.12023596E+03 0.12542636E+03 0.75000000E+00 0.0000E+00 0.9000E+01
#aMCatNLO 2  0  0  5  2 0.48637310D+01 0.00000000D+00  -5  6  0 0.00000000D+00 0.00000000D+00 0.00000000D+00 0.00000000D+00 0.00000000D+00
  <mgrwgt>
 -.4872299347D-04    5    2    0
 0.167670285398576D+04 0.000000000000000D+00 0.000000000000000D+00 0.167670285398576D+04
 0.167670285398576D+04 -.000000000000000D+00 -.000000000000000D+00 -.167670285398576D+04
 0.148683445957342D+04 0.495376334461559D+03 0.438618632438827D+03 0.132561973910616D+04
 0.195960061324246D+03 0.133816617215390D+02 0.464591837231639D+02 0.189902135352791D+03
 0.167061118707385D+04 -.508757996183098D+03 -.485077816161990D+03 -.151552187445896D+04
 0.000000000000000D+00 -.000000000000000D+00 0.000000000000000D+00 0.000000000000000D+00
 0.167670285398576D+04 0.000000000000000D+00 0.000000000000000D+00 0.167670285398576D+04
 0.167670285398576D+04 -.000000000000000D+00 -.000000000000000D+00 -.167670285398576D+04
 0.148676021397388D+04 0.495353631595142D+03 0.438596986279071D+03 0.132555211031030D+04
 0.195950542910977D+03 0.133786695537850D+02 0.464563308260879D+02 0.189893222086135D+03
 0.159702693896482D+04 -.482198030633934D+03 -.462052924792809D+03 -.145068507875504D+04
 0.736680121218342D+02 -.265342705149927D+02 -.230003923123498D+02 -.647602536413956D+02
-.848696669296D-02 0.000000000000D+00 0.000000000000D+00 0.178388071558D-05 0.000000000000D+00  6 -4 2 25 -4 2 21 2 0.14823917D+00 0.44887200D+00 0.50738811D+06 0.50738811D+06 0.50738811D+06 0.10680605D+01  1  2 13  4  6  5        2 -.253257248534D-03 0.100000000000D+01
-.110460037806D-01 0.000000000000D+00 0.000000000000D+00 0.178388071558D-05 0.000000000000D+00  6 -4 2 25 -4 2 21 2 0.14823917D+00 0.44887200D+00 0.50740832D+06 0.50740832D+06 0.50740832D+06 0.10680592D+01  1  2  8  4  6  5        2 -.329619017928D-03 0.100000000000D+01
-.139780583015D-01 0.000000000000D+00 0.000000000000D+00 0.178388071558D-05 0.000000000000D+00  6 -4 2 25 -4 2 21 2 0.14823917D+00 0.44887200D+00 0.50740832D+06 0.50740832D+06 0.50740832D+06 0.10680592D+01  1  2  9  4  6  5        2 -.417113187846D-03 0.100000000000D+01
0.146080172953D-01 0.000000000000D+00 0.000000000000D+00 0.178388071558D-05 0.000000000000D+00  6 -4 2 25 -4 2 21 2 0.14823917D+00 0.44887200D+00 0.50740832D+06 0.50740832D+06 0.50740832D+06 0.10680592D+01  1  2 10  4  6  5        2 0.435911521524D-03 0.100000000000D+01
0.172701876464D-01 0.000000000000D+00 0.000000000000D+00 0.178388071558D-05 0.322020819357D-06  6 -4 2 25 -4 2 21 2 0.14823917D+00 0.44887200D+00 0.50738811D+06 0.50738811D+06 0.50738811D+06 0.10680605D+01  1  2  1  4  6  5        2 0.515354939312D-03 0.100000000000D+01
  </mgrwgt>
  </event>
  <event>
  5     66 -.15790991E-05 0.28128125E+02 0.75467711E-02 0.92539869E-01
       -4 -1    0    0    0  501 0.00000000E+00 0.00000000E+00 0.99814887E+03 0.99815008E+03 0.15500000E+01 0.0000E+00 0.9000E+01
        2 -1    0    0  502    0 0.00000000E+00 0.00000000E+00 -.70831085E+03 0.70831092E+03 0.32000000E+00 0.0000E+00 0.9000E+01
       25  1    1    2    0    0 -.10306795E+03 0.57452252E+03 -.14853282E+03 0.61513098E+03 0.12500000E+03 0.0000E+00 0.9000E+01
       -4  1    1    2    0  501 0.13023645E+03 -.56732562E+03 0.65305365E+03 0.87481505E+03 0.15500000E+01 0.0000E+00 0.9000E+01
        2  1    1    2  502    0 -.27168503E+02 -.71969030E+01 -.21468281E+03 0.21651497E+03 0.32000000E+00 0.0000E+00 0.9000E+01
#aMCatNLO 1  0  0  1  4 0.38834943D+02 0.00000000D+00  -5  6  0 0.00000000D+00 0.00000000D+00 0.00000000D+00 0.00000000D+00 0.00000000D+00
  <mgrwgt>
 -.1719859362D-03    1    2    0
 0.840833376558996D+03 0.000000000000000D+00 0.000000000000000D+00 0.840833376558996D+03
 0.840833376558996D+03 0.000000000000000D+00 0.000000000000000D+00 -.840833376558996D+03
 0.649607018424900D+03 -.103031515993471D+03 0.574464245369363D+03 -.256397378869566D+03
 0.775066438363656D+03 0.130221276632356D+03 -.567259503280272D+03 0.511846714288743D+03
 0.256993296329436D+03 -.271897606388857D+02 -.720474208909116D+01 -.255449335419177D+03
 0.000000000000000D+00 -.000000000000000D+00 -.000000000000000D+00 -.000000000000000D+00
 0.841284305272772D+03 0.000000000000000D+00 0.000000000000000D+00 0.841284305272772D+03
 0.855060330025114D+03 0.000000000000000D+00 0.000000000000000D+00 -.855060330025114D+03
 0.651161117923984D+03 -.102446958074604D+03 0.576325260930049D+03 -.256397378869566D+03
 0.773563800372123D+03 0.130917222392521D+03 -.565043870154351D+03 0.511846714288743D+03
 0.256949398546489D+03 -.269587976688236D+02 -.646944167256200D+01 -.255449335419177D+03
 0.146703184552905D+02 -.151146664909294D+01 -.481194910313626D+01 -.137760247523421D+02
-.313914908709D-03 0.000000000000D+00 0.000000000000D+00 0.224509168943D-05 0.000000000000D+00  6 -4 2 25 -4 2 21 2 0.15356146D+00 0.10897100D+00 0.36421780D+06 0.36421780D+06 0.36421780D+06 0.10783739D+01  1  2 14  1  6  1       -4 -.171985936190D-03 0.100000000000D+01
  </mgrwgt>
  </event>
  <event>
  5     66 0.15790991E-05 0.46992040E+02 0.75467711E-02 0.83957665E-01
       -4 -1    0    0    0  501 0.00000000E+00 0.00000000E+00 0.13417132E+04 0.13417140E+04 0.15500000E+01 0.0000E+00 0.9000E+01
        2 -1    0    0  502    0 0.00000000E+00 0.00000000E+00 -.28146007E+04 0.28146007E+04 0.32000000E+00 0.0000E+00 0.9000E+01
       25  1    1    2    0    0 -.31608981E+03 -.63660974E+03 0.58827990E+03 0.93106550E+03 0.12500000E+03 0.0000E+00 0.9000E+01
       -4  1    1    2    0  501 -.45377558E+02 0.12427687E+02 0.53177436E+03 0.53385386E+03 0.15500000E+01 0.0000E+00 0.9000E+01
        2  1    1    2  502    0 0.36146737E+03 0.62418205E+03 -.25929418E+04 0.26913954E+04 0.32000000E+00 0.0000E+00 0.9000E+01
#aMCatNLO 1  0  0  2  1 0.13510236D+02 0.00000000D+00  -5  6  0 0.00000000D+00 0.00000000D+00 0.00000000D+00 0.00000000D+00 0.00000000D+00
  <mgrwgt>
 0.5127548609D-03    4    2    0
 0.194329324473634D+04 0.000000000000000D+00 0.000000000000000D+00 0.194329324473634D+04
 0.194329324473634D+04 0.000000000000000D+00 0.000000000000000D+00 -.194329324473634D+04
 0.121949373963273D+04 -.316283916994289D+03 -.636844634537368D+03 0.982819096433900D+03
 0.771498028628736D+03 -.453230130618318D+02 0.124127487020278D+02 0.770065553271073D+03
 0.189559472121121D+04 0.361606930056121D+03 0.624431885835340D+03 -.175288464970497D+04
 0.000000000000000D+00 -.000000000000000D+00 0.000000000000000D+00 0.000000000000000D+00
 0.274276498613510D+04 0.000000000000000D+00 0.000000000000000D+00 0.274276498613510D+04
 0.236676647906890D+04 0.000000000000000D+00 0.000000000000000D+00 -.236676647906890D+04
 0.121545301129409D+04 -.828008520586576D+01 -.704059007852121D+03 0.982819096433900D+03
 0.785444867211257D+03 0.151619436546953D+03 -.305651689838143D+02 0.770065553271073D+03
 0.201820756554984D+04 0.856675703418764D+03 0.516395121629979D+03 -.175288464970497D+04
 0.109042602114882D+04 -.100001505475985D+04 0.218229055205956D+03 0.375998507066193D+03
0.816526085256D-01 0.000000000000D+00 0.000000000000D+00 0.405925824671D-04 0.000000000000D+00  6 -4 2 25 -4 2 21 0 0.20641748D+00 0.43301556D+00 0.55542269D+06 0.55542269D+06 0.55542269D+06 0.10652987D+01  1  2  2  2  6  2        2 0.755702688162D-03 0.100000000000D+01
0.332293791101D-01 0.000000000000D+00 -.313567516364D-03 0.405925824671D-04 0.000000000000D+00  6 -4 2 25 -4 2 21 2 0.20641748D+00 0.43301556D+00 0.55542269D+06 0.55542269D+06 0.55542269D+06 0.10652987D+01  1  2  3  2  6  2        2 0.349016489381D-03 0.100000000000D+01
-.562112249951D-01 0.000000000000D+00 0.000000000000D+00 0.405925824671D-04 0.000000000000D+00  6 -4 2 25 -4 2 21 2 0.20641748D+00 0.43301556D+00 0.55542269D+06 0.55542269D+06 0.55542269D+06 0.10652987D+01  1  2 15  2  6  2        2 -.590400571332D-03 0.100000000000D+01
-.148882036288D-03 0.000000000000D+00 0.000000000000D+00 0.405925824671D-04 0.000000000000D+00  6 -4 2 25 -4 2 21 2 0.20641748D+00 0.43301556D+00 0.55542269D+06 0.55542269D+06 0.55542269D+06 0.10652987D+01  1  2  4  2  6  2        2 -.156374530698D-05 0.100000000000D+01
  </mgrwgt>
  </event>
  <event>
  5     66 0.15790991E-05 0.74408741E+02 0.75467711E-02 0.88046263E-01
       -4 -1    0    0    0  501 0.00000000E+00 0.00000000E+00 0.24977314E+04 0.24977319E+04 0.15500000E+01 0.0000E+00 0.9000E+01
        2 -1    0    0  502    0 0.00000000E+00 0.00000000E+00 -.17133446E+04 0.17133446E+04 0.32000000E+00 0.0000E+00 0.9000E+01
       25  1    1    2    0    0 0.25307691E+03 0.89335330E+03 -.95808112E+03 0.13400270E+04 0.12500000E+03 0.0000E+00 0.9000E+01
       -4  1    1    2    0  501 -.31051859E+02 -.67635296E+02 0.19817538E+04 0.19831513E+04 0.15500000E+01 0.0000E+00 0.9000E+01
        2  1    1    2  502    0 -.22202505E+03 -.82571801E+03 -.23928582E+03 0.88789817E+03 0.32000000E+00 0.0000E+00 0.9000E+01
#aMCatNLO 1  0  0  2  1 0.14856734D+03 0.00000000D+00  -5  6  0 0.00000000D+00 0.00000000D+00 0.00000000D+00 0.00000000D+00 0.00000000D+00
  <mgrwgt>
 0.6409452221D-04    5    2    0
 0.206868936435138D+04 0.000000000000000D+00 0.000000000000000D+00 0.206868936435138D+04
 0.206868936435138D+04 0.000000000000000D+00 0.000000000000000D+00 -.206868936435138D+04
 0.154560522810012D+04 0.253163497843402D+03 0.893667696871603D+03 -.122903897906385D+04
 0.164245407943113D+04 -.310459987773393D+02 -.676225310040023D+02 0.164076772954019D+04
 0.949319421171507D+03 -.222117499066063D+03 -.826045165867601D+03 -.411728750476344D+03
 0.000000000000000D+00 0.000000000000000D+00 0.000000000000000D+00 -.000000000000000D+00
 0.297259704246915D+04 0.000000000000000D+00 0.000000000000000D+00 0.297259704246915D+04
 0.734486116238368D+04 0.000000000000000D+00 0.000000000000000D+00 -.734486116238368D+04
 0.125056487154501D+04 0.194076328805963D+03 0.922304078192121D+01 -.122903897906385D+04
 0.205847279575977D+04 -.109252003446855D+03 -.123824694965318D+04 0.164076772954019D+04
 0.175282693856231D+04 -.279217808786762D+03 -.168074957320751D+04 -.411728750476344D+03
 0.525559359898575D+04 0.194393483427653D+03 0.290977348207877D+04 -.437226411991454D+04
0.566304651609D-01 0.000000000000D+00 0.000000000000D+00 0.190021160251D-05 0.000000000000D+00  6 -4 2 25 -4 2 21 0 0.38426641D+00 0.26359152D+00 0.87142561D+06 0.87142561D+06 0.87142561D+06 0.10518659D+01  1  2  2  2  6  2        2 0.781424652829D-04 0.100000000000D+01
0.301996320578D-01 0.000000000000D+00 -.217475897362D-03 0.190021160251D-05 0.000000000000D+00  6 -4 2 25 -4 2 21 2 0.38426641D+00 0.26359152D+00 0.87142561D+06 0.87142561D+06 0.87142561D+06 0.10518659D+01  1  2  3  2  6  2        2 0.461062098514D-04 0.100000000000D+01
-.394012124016D-01 0.000000000000D+00 0.000000000000D+00 0.190021160251D-05 0.000000000000D+00  6 -4 2 25 -4 2 21 2 0.38426641D+00 0.26359152D+00 0.87142561D+06 0.87142561D+06 0.87142561D+06 0.10518659D+01  1  2 15  2  6  2        2 -.601543940637D-04 0.100000000000D+01
0.210473393144D-01 0.000000000000D+00 -.309108697380D-01 0.190021160251D-05 0.000000000000D+00  6 -4 2 25 -4 2 21 2 0.38426641D+00 0.94362523D+00 0.87142561D+06 0.87142561D+06 0.87142561D+06 0.10518659D+01  1  2  5  2  6  2        2 0.241035668754D-09 0.100000000000D+01
0.404171456721D-02 0.000000000000D+00 -.462908116022D-02 0.190021160251D-05 0.000000000000D+00  6 -4 21 25 -4 2 -2 2 0.38426641D+00 0.94362523D+00 0.87142561D+06 0.87142561D+06 0.87142561D+06 0.10518659D+01  1  2  5  6  6  2        2 0.107071449126D-12 0.100000000000D+01
  </mgrwgt>
  </event>
  <event>
  6     66 0.15790991E-05 0.67113797E+02 0.75467711E-02 0.93859657E-01
       -4 -1    0    0    0  501 0.00000000E+00 0.00000000E+00 0.10515080E+04 0.10515091E+04 0.15500000E+01 0.0000E+00 0.9000E+01
        2 -1    0    0  502    0 -.00000000E+00 -.00000000E+00 -.20050362E+04 0.20050363E+04 0.32000000E+00 0.0000E+00 0.9000E+01
       25  1    1    2    0    0 -.44471823E+03 -.27856081E+03 -.23193696E+03 0.58718837E+03 0.12500000E+03 0.0000E+00 0.9000E+01
       -4  1    1    2    0  503 0.33358032E+03 0.18330750E+03 0.61926049E+03 0.72688612E+03 0.15500000E+01 0.0000E+00 0.9000E+01
        2  1    1    2  502    0 0.51899015E+02 0.67325221E+02 -.15351133E+04 0.15374652E+04 0.32000000E+00 0.0000E+00 0.9000E+01
       21  1    1    2  503  501 0.59238898E+02 0.27928088E+02 0.19426152E+03 0.20500567E+03 0.75000000E+00 0.0000E+00 0.9000E+01
#aMCatNLO 2  0  0  4  1 0.36494514D+02 0.00000000D+00  -5  6  0 0.00000000D+00 0.00000000D+00 0.00000000D+00 0.00000000D+00 0.00000000D+00
  <mgrwgt>
 0.1228604087D-02    2    2    0
 0.145200321250051D+04 0.000000000000000D+00 0.000000000000000D+00 0.145200321250051D+04
 0.145200321250051D+04 -.000000000000000D+00 -.000000000000000D+00 -.145200321250051D+04
 0.542013554900293D+03 -.444844619632394D+03 -.278659319789409D+03 -.511462762502559D+02
 0.124632874841175D+04 0.393276018042905D+03 0.211481230747706D+03 0.116359142820466D+04
 0.111566412168898D+04 0.515686015894885D+02 0.671780890417032D+02 -.111244515195440D+04
 0.000000000000000D+00 0.000000000000000D+00 0.000000000000000D+00 0.000000000000000D+00
 0.145200321250051D+04 0.000000000000000D+00 0.000000000000000D+00 0.145200321250051D+04
 0.145200321250051D+04 -.000000000000000D+00 -.000000000000000D+00 -.145200321250051D+04
 0.541764189129147D+03 -.444663265366220D+03 -.278561797892186D+03 -.506097007666086D+02
 0.967832191148644D+03 0.333414082678567D+03 0.183219945314061D+03 0.889923958175252D+03
 0.111459255990449D+04 0.519418022444180D+02 0.673787748964194D+02 -.111134095779266D+04
 0.279817484818743D+03 0.593073804432348D+02 0.279630776817063D+02 0.272026700384017D+03
-.135134571918D-01 0.000000000000D+00 0.000000000000D+00 0.682771740871D-04 0.000000000000D+00  6 -4 2 25 -4 2 21 2 0.16177054D+00 0.30846720D+00 0.28648164D+06 0.28648164D+06 0.28648164D+06 0.10860365D+01  1  2 13  3  6  4       -4 -.110030041699D-02 0.100000000000D+01
0.286026896195D-01 0.000000000000D+00 0.000000000000D+00 0.682771740871D-04 0.469982353927D-06  6 -4 2 25 -4 2 21 2 0.16177054D+00 0.30846720D+00 0.28648164D+06 0.28648164D+06 0.28648164D+06 0.10860365D+01  1  2  1  3  6  4       -4 0.232890450377D-02 0.100000000000D+01
  </mgrwgt>
  </event>
  <event>
  5     66 0.15790991E-05 0.38420196E+03 0.75467711E-02 0.91213659E-01
       -4 -1    0    0    0  501 0.00000000E+00 0.00000000E+00 0.66686554E+03 0.66686734E+03 0.15500000E+01 0.0000E+00 0.9000E+01
        2 -1    0    0  502    0 -.00000000E+00 -.00000000E+00 -.10950294E+04 0.10950294E+04 0.32000000E+00 0.0000E+00 0.9000E+01
       25  1    1    2    0    0 -.11346971E+03 -.56416277E+03 -.35758604E+03 0.68894686E+03 0.12500000E+03 0.0000E+00 0.9000E+01
       -4  1    1    2    0  501 -.19767905E+03 0.33939646E+03 0.33376593E+03 0.51543094E+03 0.15500000E+01 0.0000E+00 0.9000E+01
        2  1    1    2  502    0 0.31114875E+03 0.22476631E+03 -.40434373E+03 0.55751897E+03 0.32000000E+00 0.0000E+00 0.9000E+01
#aMCatNLO 1  0  0  5  2 0.10559072D+02 0.00000000D+00  -5  6  0 0.00000000D+00 0.00000000D+00 0.00000000D+00 0.00000000D+00 0.00000000D+00
  <mgrwgt>
 0.5888546646D-05    7    2    0
 0.854540222430678D+03 0.000000000000000D+00 0.000000000000000D+00 0.854540222430678D+03
 0.854540222430678D+03 -.000000000000000D+00 -.000000000000000D+00 -.854540222430678D+03
 0.620694782006516D+03 -.113784251229150D+03 -.564300796260656D+03 -.195588261206873D+03
 0.614562661548016D+03 -.197546966215876D+03 0.339169688246369D+03 0.472891513650590D+03
 0.473823001306824D+03 0.311331217445026D+03 0.225131108014288D+03 -.277303252443717D+03
 0.000000000000000D+00 0.000000000000000D+00 0.000000000000000D+00 0.000000000000000D+00
 0.854540222430678D+03 0.000000000000000D+00 0.000000000000000D+00 0.854540222430678D+03
 0.854540222430678D+03 -.000000000000000D+00 -.000000000000000D+00 -.854540222430678D+03
 0.620363232871441D+03 -.113191260567274D+03 -.563871990418935D+03 -.196116439012352D+03
 0.614206395922591D+03 -.196959847347984D+03 0.339594248052318D+03 0.472368565862143D+03
 0.449708007827041D+03 0.300486430045489D+03 0.204512881669377D+03 -.264801206367288D+03
 0.248028082402839D+02 0.966467786976839D+01 0.197648606972396D+02 -.114509204825034D+02
0.115923999259D-05 0.000000000000D+00 0.000000000000D+00 0.936093605646D-08 0.000000000000D+00  6 -4 2 25 -4 2 21 0 0.10259484D+00 0.16846620D+00 0.46633948D+06 0.46633948D+06 0.46633948D+06 0.10706562D+01  1  2  2  4  6  5        2 0.102433099257D-05 0.100000000000D+01
0.291854684469D-07 0.000000000000D+00 -.445178680644D-08 0.936093605646D-08 0.000000000000D+00  6 -4 2 25 -4 2 21 2 0.10259484D+00 0.16846620D+00 0.46633948D+06 0.46633948D+06 0.46633948D+06 0.10706562D+01  1  2  3  4  6  5        2 0.295619899566D-07 0.100000000000D+01
-.739102784715D-06 0.000000000000D+00 0.000000000000D+00 0.936093605646D-08 0.000000000000D+00  6 -4 2 25 -4 2 21 2 0.10259484D+00 0.16846620D+00 0.46633948D+06 0.46633948D+06 0.46633948D+06 0.10706562D+01  1  2 15  4  6  5        2 -.748637944200D-06 0.100000000000D+01
0.913833713180D-05 0.000000000000D+00 0.000000000000D+00 0.936093605646D-08 0.000000000000D+00  6 -4 2 25 -4 2 21 2 0.10259484D+00 0.16846620D+00 0.46690380D+06 0.46690380D+06 0.46690380D+06 0.10706188D+01  1  2 12  4  6  5        2 0.925524945936D-05 0.100000000000D+01
-.710750784342D-05 0.000000000000D+00 0.000000000000D+00 0.936093605646D-08 0.000000000000D+00  6 -4 2 25 -4 2 21 2 0.10259484D+00 0.16846620D+00 0.46633948D+06 0.46633948D+06 0.46633948D+06 0.10706562D+01  1  2  4  4  6  5        2 -.719920174884D-05 0.100000000000D+01
-.648304676894D-04 0.000000000000D+00 0.000000000000D+00 0.936093605646D-08 0.000000000000D+00  6 -4 2 25 -4 2 21 2 0.10259484D+00 0.16846620D+00 0.46633948D+06 0.46633948D+06 0.46633948D+06 0.10706562D+01  1  2  5  4  6  5        2 -.656668450671D-04 0.100000000000D+01
0.683127862210D-04 0.000000000000D+00 -.000000000000D+00 0.936093605646D-08 0.000000000000D+00  6 -4 2 25 -4 2 21 2 0.10259484D+00 0.16846620D+00 0.46633948D+06 0.46633948D+06 0.46633948D+06 0.10706562D+01  1  2  6  4  6  5        2 0.691940889640D-04 0.100000000000D+01
  </mgrwgt>
  </event>
  <event>
  6     66 0.15790991E-05 0.12742680E+03 0.75467711E-02 0.94360959E-01
       -4 -1    0    0    0  501 0.00000000E+00 0.00000000E+00 0.60564971E+03 0.60565169E+03 0.15500000E+01 0.0000E+00 0.9000E+01
        2 -1    0    0  502    0 -.00000000E+00 -.00000000E+00 -.16114473E+04 0.16114474E+04 0.32000000E+00 0.0000E+00 0.9000E+01
       25  1    1    2    0    0 -.43878794E+03 0.16994416E+03 -.16500047E+03 0.51406811E+03 0.12500000E+03 0.0000E+00 0.9000E+01
       -4  1    1    2    0  503 0.24617102E+03 -.10352041E+03 0.23209430E+03 0.35381748E+03 0.15500000E+01 0.0000E+00 0.9000E+01
        2  1    1    2  502    0 -.33346139E+02 -.22119988E+02 -.11144997E+04 0.11152179E+04 0.32000000E+00 0.0000E+00 0.9000E+01
       21  1    1    2  503  501 0.22596305E+03 -.44303764E+02 0.41608234E+02 0.23399558E+03 0.75000000E+00 0.0000E+00 0.9000E+01
#aMCatNLO 2  0  0  4  2 0.76800796D+02 0.00000000D+00  -5  6  0 0.00000000D+00 0.00000000D+00 0.00000000D+00 0.00000000D+00 0.00000000D+00
  <mgrwgt>
 0.1331395643D-02    1    2    0
 0.987914390553550D+03 0.000000000000000D+00 0.000000000000000D+00 0.987914390553550D+03
 0.987914390553550D+03 -.000000000000000D+00 -.000000000000000D+00 -.987914390553550D+03
 0.494687035939416D+03 -.440962244450621D+03 0.170662388018303D+03 0.742759167663792D+02
 0.791946566160207D+03 0.477787627618446D+03 -.149594286014353D+03 0.613612170788306D+03
 0.689195179007476D+03 -.368253831678244D+02 -.210681020039499D+02 -.687888087554685D+03
 0.000000000000000D+00 0.000000000000000D+00 0.000000000000000D+00 0.000000000000000D+00
 0.987914390553550D+03 0.000000000000000D+00 0.000000000000000D+00 0.987914390553550D+03
 0.987914390553550D+03 -.000000000000000D+00 -.000000000000000D+00 -.987914390553550D+03
 0.492704631974046D+03 -.438488312438880D+03 0.169887805187874D+03 0.774531333880698D+02
 0.514377066601760D+03 0.245673835541263D+03 -.103370415264720D+03 0.439934870661869D+03
 0.684640439462800D+03 -.333832071541391D+02 -.221458399639504D+02 -.683467376397887D+03
 0.284106643068494D+03 0.226197684051756D+03 -.443715499592032D+02 0.166079372347948D+03
0.187102491416D-02 0.000000000000D+00 0.000000000000D+00 0.143155207869D-04 0.374913344824D-08  6 -4 2 25 -4 2 21 2 0.93177033D-01 0.24791513D+00 0.26198203D+06 0.26198203D+06 0.26198203D+06 0.10889329D+01  1  2  1  3  6  4       -4 0.133139564296D-02 0.100000000000D+01
  </mgrwgt>
  </event>
  <event>
  5     66 0.15790991E-05 0.47821944E+02 0.75467711E-02 0.84386582E-01
       -4 -1    0    0    0  501 0.00000000E+00 0.00000000E+00 0.49015341E+03 0.49015586E+03 0.15500000E+01 0.0000E+00 0.9000E+01
        2 -1    0    0  502    0 0.00000000E+00 0.00000000E+00 -.39153551E+04 0.39153551E+04 0.32000000E+00 0.0000E+00 0.9000E+01
       25  1    1    2    0    0 -.21047572E+03 0.62059499E+03 -.32759147E+03 0.74322227E+03 0.12500000E+03 0.0000E+00 0.9000E+01
       -4  1    1    2    0  501 0.33423190E+02 -.34270958E+02 0.25232171E+03 0.25682729E+03 0.15500000E+01 0.0000E+00 0.9000E+01
        2  1    1    2  502    0 0.17705253E+03 -.58632403E+03 -.33499319E+04 0.34054614E+04 0.32000000E+00 0.0000E+00 0.9000E+01
#aMCatNLO 1  0  0  1  4 0.73370989D+03 0.00000000D+00  -5  6  0 0.00000000D+00 0.00000000D+00 0.00000000D+00 0.00000000D+00 0.00000000D+00
  <mgrwgt>
 0.5295182213D-04    5    2    0
 0.138532671409721D+04 0.000000000000000D+00 0.000000000000000D+00 0.138532671409721D+04
 0.138532671409721D+04 0.000000000000000D+00 0.000000000000000D+00 -.138532671409721D+04
 0.777395803915845D+03 -.210546563356396D+03 0.620893335219601D+03 0.398598603716388D+03
 0.719566393418004D+03 0.333891174276716D+02 -.342360218053104D+02 0.717975526174076D+03
 0.127369123086057D+04 0.177157445928724D+03 -.586657313414291D+03 -.111657412989046D+04
 0.000000000000000D+00 0.000000000000000D+00 -.000000000000000D+00 0.000000000000000D+00
 0.282836142292717D+04 0.000000000000000D+00 0.000000000000000D+00 0.282836142292717D+04
 0.173833080015380D+04 0.000000000000000D+00 0.000000000000000D+00 -.173833080015380D+04
 0.104436933748030D+04 -.518146336004916D+03 0.804814165300949D+03 0.398598603716388D+03
 0.758585391071522D+03 -.216192534189908D+03 0.114994467357080D+03 0.717975526174076D+03
 0.119079109284740D+04 -.238963263180851D+03 -.337849371930788D+03 -.111657412989046D+04
 0.157294640168175D+04 0.973302133375675D+03 -.581959260727241D+03 0.109003062277338D+04
0.251614440032D-02 0.000000000000D+00 0.000000000000D+00 0.240501419468D-04 0.000000000000D+00  6 -4 2 25 -4 2 21 0 0.75408407D-01 0.60236252D+00 0.44094580D+06 0.44094580D+06 0.44094580D+06 0.10723897D+01  1  2  2  1  6  1       -4 0.915071416522D-04 0.100000000000D+01
0.114856190821D-02 0.000000000000D+00 -.966265701327D-05 0.240501419468D-04 0.000000000000D+00  6 -4 2 25 -4 2 21 2 0.75408407D-01 0.60236252D+00 0.44094580D+06 0.44094580D+06 0.44094580D+06 0.10723897D+01  1  2  3  1  6  1       -4 0.480373543002D-04 0.100000000000D+01
-.222822855062D-02 0.000000000000D+00 0.000000000000D+00 0.240501419468D-04 0.000000000000D+00  6 -4 2 25 -4 2 21 2 0.75408407D-01 0.60236252D+00 0.44094580D+06 0.44094580D+06 0.44094580D+06 0.10723897D+01  1  2 15  1  6  1       -4 -.931932389387D-04 0.100000000000D+01
0.802559527246D-03 0.000000000000D+00 -.119806017621D-02 0.240501419468D-04 0.000000000000D+00  6 -4 2 25 -4 2 21 2 0.22741019D+00 0.60236252D+00 0.44094580D+06 0.44094580D+06 0.44094580D+06 0.10723897D+01  1  2  5  1  6  1       -4 0.100758077117D-05 0.100000000000D+01
0.160200258333D-03 0.000000000000D+00 -.150618832743D-03 0.240501419468D-04 0.000000000000D+00  6 21 2 25 -4 2 4 2 0.22741019D+00 0.60236252D+00 0.44094580D+06 0.44094580D+06 0.44094580D+06 0.10723897D+01  1  2  5  5  6  1       -4 0.559298434796D-05 0.100000000000D+01
  </mgrwgt>
  </event>
  <event>
  5     66 0.15790991E-05 0.42466359E+02 0.75467711E-02 0.88482090E-01
       -4 -1    0    0    0  501 0.00000000E+00 0.00000000E+00 0.48846005E+03 0.48846251E+03 0.15500000E+01 0.0000E+00 0.9000E+01
        2 -1    0    0  502    0 0.00000000E+00 0.00000000E+00 -.24115626E+04 0.24115626E+04 0.32000000E+00 0.0000E+00 0.9000E+01
       25  1    1    2    0    0 0.55112784E+02 0.67993988E+03 -.96118749E+03 0.11852688E+04 0.12500000E+03 0.0000E+00 0.9000E+01
       -4  1    1    2    0  501 -.15983248E+02 -.39383926E+02 0.29789129E+03 0.30091225E+03 0.15500000E+01 0.0000E+00 0.9000E+01
        2  1    1    2  502    0 -.39129536E+02 -.64055596E+03 -.12598063E+04 0.14138441E+04 0.32000000E+00 0.0000E+00 0.9000E+01
#aMCatNLO 1  0  0  2  5 0.13796181D+02 0.00000000D+00  -5  6  0 0.00000000D+00 0.00000000D+00 0.00000000D+00 0.00000000D+00 0.00000000D+00
  <mgrwgt>
 0.1064613535D-03    7    2    0
 0.108533661894664D+04 0.000000000000000D+00 0.000000000000000D+00 0.108533661894664D+04
 0.108533661894664D+04 0.000000000000000D+00 0.000000000000000D+00 -.108533661894664D+04
 0.732247791375691D+03 0.551367792586277D+02 0.680385012124946D+03 -.233662146748891D+03
 0.665349961189233D+03 -.159692356192239D+02 -.393493982010810D+02 0.663993357820290D+03
 0.773075485328352D+03 -.391675436394038D+02 -.641035613923865D+03 -.430331211071399D+03
 0.000000000000000D+00 0.000000000000000D+00 0.000000000000000D+00 -.000000000000000D+00
 0.118679268321596D+04 0.000000000000000D+00 0.000000000000000D+00 0.118679268321596D+04
 0.136961866636558D+04 0.000000000000000D+00 0.000000000000000D+00 -.136961866636558D+04
 0.729149337235985D+03 -.499080672763992D+02 0.677454752724572D+03 -.233662146748891D+03
 0.674732678671558D+03 -.112294028170418D+03 -.420364089224313D+02 0.663993357820290D+03
 0.789355773405263D+03 -.151474697240506D+03 -.644168457689400D+03 -.430331211071399D+03
 0.363173560268740D+03 0.313676792687324D+03 0.875011388725978D+01 -.182825983149623D+03
0.126909640471D-03 0.000000000000D+00 0.000000000000D+00 0.303778289075D-05 0.000000000000D+00  6 -4 2 25 -4 2 21 0 0.75147891D-01 0.37100982D+00 0.47517823D+06 0.47517823D+06 0.47517823D+06 0.10700768D+01  1  2  2  2  6  2        2 0.469787347799D-04 0.100000000000D+01
0.706814306888D-04 0.000000000000D+00 -.487366435484D-06 0.303778289075D-05 0.000000000000D+00  6 -4 2 25 -4 2 21 2 0.75147891D-01 0.37100982D+00 0.47517823D+06 0.47517823D+06 0.47517823D+06 0.10700768D+01  1  2  3  2  6  2        2 0.299600069648D-04 0.100000000000D+01
-.950651431256D-04 0.000000000000D+00 0.000000000000D+00 0.303778289075D-05 0.000000000000D+00  6 -4 2 25 -4 2 21 2 0.75147891D-01 0.37100982D+00 0.47517823D+06 0.47517823D+06 0.47517823D+06 0.10700768D+01  1  2 15  2  6  2        2 -.402956239340D-04 0.100000000000D+01
-.361135803429D-04 0.000000000000D+00 0.000000000000D+00 0.303778289075D-05 0.000000000000D+00  6 -4 2 25 -4 2 21 2 0.75147891D-01 0.37100982D+00 0.47517823D+06 0.47517823D+06 0.47517823D+06 0.10700768D+01  1  2  4  2  6  2        2 -.153076007100D-04 0.100000000000D+01
-.287527749984D-03 0.000000000000D+00 -.100069324766D-03 0.303778289075D-05 0.000000000000D+00  6 -4 2 25 -4 2 21 2 0.75147891D-01 0.48075522D+00 0.47517823D+06 0.47517823D+06 0.47517823D+06 0.10700768D+01  1  2  5  2  6  2        2 -.446702523974D-04 0.100000000000D+01
0.306382708270D-03 0.000000000000D+00 0.968010879772D-04 0.303778289075D-05 0.000000000000D+00  6 -4 2 25 -4 2 21 2 0.75147891D-01 0.37100982D+00 0.47517823D+06 0.47517823D+06 0.47517823D+06 0.10700768D+01  1  2  6  2  6  2        2 0.129867604323D-03 0.100000000000D+01
-.821302399476D-05 0.000000000000D+00 -.347723468722D-05 0.303778289075D-05 0.000000000000D+00  6 -4 21 25 -4 2 -2 2 0.75147891D-01 0.48075522D+00 0.47517823D+06 0.47517823D+06 0.47517823D+06 0.10700768D+01  1  2  5  6  6  2        2 -.715155643289D-07 0.100000000000D+01
  </mgrwgt>
  </event>
  <event>
  5     66 -.15790991E-05 0.30756212E+02 0.75467711E-02 0.94921725E-01
       -4 -1    0    0    0  501 0.00000000E+00 0.00000000E+00 0.93969395E+03 0.93969523E+03 0.15500000E+01 0.0000E+00 0.9000E+01
        2 -1    0    0  502    0 -.00000000E+00 -.00000000E+00 -.16252367E+04 0.16252367E+04 0.32000000E+00 0.0000E+00 0.9000E+01
       25  1    1    2    0    0 -.35708168E+03 0.28719642E+03 -.26831935E+03 0.54553587E+03 0.12500000E+03 0.0000E+00 0.9000E+01
       -4  1    1    2    0  501 0.34619696E+03 -.31594311E+03 0.73230801E+03 0.86945374E+03 0.15500000E+01 0.0000E+00 0.9000E+01
        2  1    1    2  502    0 0.10884722E+02 0.28746691E+02 -.11495314E+04 0.11499423E+04 0.32000000E+00 0.0000E+00 0.9000E+01
#aMCatNLO 1  0  0  4  5 0.90208397D+02 0.00000000D+00  -5  6  0 0.00000000D+00 0.00000000D+00 0.00000000D+00 0.00000000D+00 0.00000000D+00
  <mgrwgt>
 -.1793691624D-02    1    2    0
 0.123581015589260D+04 0.000000000000000D+00 0.000000000000000D+00 0.123581015589260D+04
 0.123581015589260D+04 -.000000000000000D+00 -.000000000000000D+00 -.123581015589260D+04
 0.491529174356103D+03 -.357043053266200D+03 0.287138493450866D+03 -.126679410072466D+03
 0.110524943750374D+04 0.346151542866763D+03 -.315901657051738D+03 0.100098030527342D+04
 0.874841699925362D+03 0.108915103994371D+02 0.287631636008714D+02 -.874300895200951D+03
 0.000000000000000D+00 0.000000000000000D+00 0.000000000000000D+00 -.000000000000000D+00
 0.123581015589260D+04 0.000000000000000D+00 0.000000000000000D+00 0.123581015589260D+04
 0.123581015589260D+04 -.000000000000000D+00 -.000000000000000D+00 -.123581015589260D+04
 0.385305572592083D+03 -.274758624609782D+03 0.212044830291539D+03 0.111265773801678D+03
 0.723825506745402D+03 0.780051462229241D+01 0.691513906261985D+03 0.213707823050901D+03
 0.522939228163782D+03 0.142062869033392D+03 -.909452427434093D+02 -.494987414402503D+03
 0.839550004283940D+03 0.124895240954097D+03 -.812613493810115D+03 0.170013817549924D+03
-.924886741111D-02 0.000000000000D+00 0.000000000000D+00 0.995914482839D-04 0.000000000000D+00  6 -4 2 25 -4 2 21 2 0.14456840D+00 0.25003651D+00 0.23732068D+06 0.23732068D+06 0.23732068D+06 0.10921637D+01  1  2 14  3  6  4       -4 -.179369162362D-02 0.100000000000D+01
  </mgrwgt>
  </event>
  <event>
  5     66 0.15790991E-05 0.11150605E+03 0.75467711E-02 0.94340478E-01
       -4 -1    0    0    0  501 0.00000000E+00 0.00000000E+00 0.94426732E+03 0.94426859E+03 0.15500000E+01 0.0000E+00 0.9000E+01
        2 -1    0    0  502    0 -.00000000E+00 -.00000000E+00 -.12974280E+04 0.12974280E+04 0.32000000E+00 0.0000E+00 0.9000E+01
       25  1    1    2    0    0 0.42491580E+03 -.29399924E+03 -.73254555E+03 0.90511710E+03 0.12500000E+03 0.0000E+00 0.9000E+01
       -4  1    1    2    0  501 -.60629649E+02 0.93621602E+02 0.76286123E+03 0.77097381E+03 0.15500000E+01 0.0000E+00 0.9000E+01
        2  1    1    2  502    0 -.36428615E+03 0.20037764E+03 -.38347636E+03 0.56560571E+03 0.32000000E+00 0.0000E+00 0.9000E+01
#aMCatNLO 1  0  0  5  2 0.75430462D+02 0.00000000D+00  -5  6  0 0.00000000D+00 0.00000000D+00 0.00000000D+00 0.00000000D+00 0.00000000D+00
  <mgrwgt>
 0.1283570947D-03    7    2    0
 0.110685153796167D+04 0.000000000000000D+00 0.000000000000000D+00 0.110685153796167D+04
 0.110685153796167D+04 -.000000000000000D+00 -.000000000000000D+00 -.110685153796167D+04
 0.799712344498749D+03 0.425174336670541D+03 -.294153036572534D+03 -.597173013837371D+03
 0.902157188821486D+03 -.606117154523771D+02 0.935939095084996D+02 0.895239629035221D+03
 0.511833542603110D+03 -.364562621218164D+03 0.200559127064034D+03 -.298066615197850D+03
 0.000000000000000D+00 0.000000000000000D+00 0.000000000000000D+00 0.000000000000000D+00
 0.110685153796167D+04 0.000000000000000D+00 0.000000000000000D+00 0.110685153796167D+04
 0.110685153796167D+04 -.000000000000000D+00 -.000000000000000D+00 -.110685153796167D+04
 0.798191386579227D+03 0.410809224292510D+03 -.286250266976771D+03 -.608917938232388D+03
 0.891298073351189D+03 -.767348309348728D+02 0.102463820405884D+03 0.882057360259960D+03
 0.441441826525818D+03 -.273533859943817D+03 0.145382902867841D+03 -.314505842909805D+03
 0.827717894671105D+02 -.605405334138204D+02 0.384035437030460D+02 0.413664208822324D+02
0.176707699130D-03 0.000000000000D+00 0.000000000000D+00 0.158452117283D-05 0.000000000000D+00  6 -4 2 25 -4 2 21 0 0.14527200D+00 0.19960441D+00 0.28063562D+06 0.28063562D+06 0.28063562D+06 0.10867024D+01  1  2  2  4  6  5        2 0.425946708784D-04 0.100000000000D+01
0.385230825392D-04 0.000000000000D+00 -.678604092864D-06 0.158452117283D-05 0.000000000000D+00  6 -4 2 25 -4 2 21 2 0.14527200D+00 0.19960441D+00 0.28063562D+06 0.28063562D+06 0.28063562D+06 0.10867024D+01  1  2  3  4  6  5        2 0.109658434133D-04 0.100000000000D+01
-.129362286763D-03 0.000000000000D+00 0.000000000000D+00 0.158452117283D-05 0.000000000000D+00  6 -4 2 25 -4 2 21 2 0.14527200D+00 0.19960441D+00 0.28063562D+06 0.28063562D+06 0.28063562D+06 0.10867024D+01  1  2 15  4  6  5        2 -.368238076167D-04 0.100000000000D+01
0.347617276604D-03 0.000000000000D+00 0.000000000000D+00 0.158452117283D-05 0.000000000000D+00  6 -4 2 25 -4 2 21 2 0.14527200D+00 0.19960441D+00 0.26293568D+06 0.26293568D+06 0.26293568D+06 0.10888147D+01  1  2 12  4  6  5        2 0.996078696842D-04 0.100000000000D+01
-.341830568517D-04 0.000000000000D+00 0.000000000000D+00 0.158452117283D-05 0.000000000000D+00  6 -4 2 25 -4 2 21 2 0.14527200D+00 0.19960441D+00 0.28063562D+06 0.28063562D+06 0.28063562D+06 0.10867024D+01  1  2  4  4  6  5        2 -.973042716511D-05 0.100000000000D+01
-.403221934371D-03 0.000000000000D+00 0.000000000000D+00 0.158452117283D-05 0.000000000000D+00  6 -4 2 25 -4 2 21 2 0.14527200D+00 0.19960441D+00 0.28063562D+06 0.28063562D+06 0.28063562D+06 0.10867024D+01  1  2  5  4  6  5        2 -.114779719110D-03 0.100000000000D+01
0.479605049880D-03 0.000000000000D+00 -.000000000000D+00 0.158452117283D-05 0.000000000000D+00  6 -4 2 25 -4 2 21 2 0.14527200D+00 0.19960441D+00 0.28063562D+06 0.28063562D+06 0.28063562D+06 0.10867024D+01  1  2  6  4  6  5        2 0.136522664609D-03 0.100000000000D+01
  </mgrwgt>
  </event>
  <event>
  5     66 0.15790991E-05 0.20634219E+03 0.75467711E-02 0.91224153E-01
       -4 -1    0    0    0  501 0.00000000E+00 0.00000000E+00 0.48288169E+03 0.48288417E+03 0.15500000E+01 0.0000E+00 0.9000E+01
        2 -1    0    0  502    0 -.00000000E+00 -.00000000E+00 -.13539774E+04 0.13539775E+04 0.32000000E+00 0.0000E+00 0.9000E+01
       25  1    1    2    0    0 0.26247869E+03 -.50229063E+03 -.35304016E+03 0.67930353E+03 0.12500000E+03 0.0000E+00 0.9000E+01
       -4  1    1    2    0  501 -.10738196E+03 0.17649002E+03 0.24080151E+03 0.31728124E+03 0.15500000E+01 0.0000E+00 0.9000E+01
        2  1    1    2  502    0 -.15509673E+03 0.32580060E+03 -.75885710E+03 0.84027688E+03 0.32000000E+00 0.0000E+00 0.9000E+01
#aMCatNLO 1  0  0  4  5 0.19080124D+03 0.00000000D+00  -5  6  0 0.00000000D+00 0.00000000D+00 0.00000000D+00 0.00000000D+00 0.00000000D+00
  <mgrwgt>
 0.2561592242D-04    4    2    0
 0.808587178294481D+03 0.000000000000000D+00 0.000000000000000D+00 0.808587178294481D+03
 0.808587178294481D+03 -.000000000000000D+00 -.000000000000000D+00 -.808587178294481D+03
 0.581552615311811D+03 0.262543498275396D+03 -.502464871521339D+03 -.343279591057910D+02
 0.489499793310712D+03 -.107252920535796D+03 0.176277931887183D+03 0.443883936876915D+03
 0.546121947966438D+03 -.155290577739600D+03 0.326186939634156D+03 -.409555977771124D+03
 0.000000000000000D+00 0.000000000000000D+00 0.000000000000000D+00 0.000000000000000D+00
 0.808587178294481D+03 0.000000000000000D+00 0.000000000000000D+00 0.808587178294481D+03
 0.808587178294481D+03 -.000000000000000D+00 -.000000000000000D+00 -.808587178294481D+03
 0.553773964075489D+03 0.247917194997171D+03 -.478425484247220D+03 0.262054142388303D+02
 0.326162069992069D+03 -.221630107972982D+03 0.166197975716070D+03 0.172162783461688D+03
 0.523962465034639D+03 -.169076372454546D+03 0.348844890295378D+03 -.352501188022952D+03
 0.213275857486764D+03 0.142789285430357D+03 -.366173817642275D+02 0.154132990322433D+03
0.685724694862D-04 0.000000000000D+00 0.000000000000D+00 0.184464770577D-06 0.000000000000D+00  6 -4 2 25 -4 2 21 0 0.74289684D-01 0.20830442D+00 0.32956021D+06 0.32956021D+06 0.32956021D+06 0.10815452D+01  1  2  2  3  6  4       -4 0.102476514158D-03 0.100000000000D+01
0.584550252860D-05 0.000000000000D+00 -.263336338373D-06 0.184464770577D-06 0.000000000000D+00  6 -4 2 25 -4 2 21 2 0.74289684D-01 0.20830442D+00 0.32956021D+06 0.32956021D+06 0.32956021D+06 0.10815452D+01  1  2  3  3  6  4       -4 0.102184663896D-04 0.100000000000D+01
-.458697688486D-04 0.000000000000D+00 0.000000000000D+00 0.184464770577D-06 0.000000000000D+00  6 -4 2 25 -4 2 21 2 0.74289684D-01 0.20830442D+00 0.32956021D+06 0.32956021D+06 0.32956021D+06 0.10815452D+01  1  2 15  3  6  4       -4 -.801844989351D-04 0.100000000000D+01
-.394405203640D-05 0.000000000000D+00 0.000000000000D+00 0.184464770577D-06 0.000000000000D+00  6 -4 2 25 -4 2 21 2 0.74289684D-01 0.20830442D+00 0.32956021D+06 0.32956021D+06 0.32956021D+06 0.10815452D+01  1  2  4  3  6  4       -4 -.689455918900D-05 0.100000000000D+01
  </mgrwgt>
  </event>
  <event>
  5     66 0.15790991E-05 0.15813770E+02 0.75467711E-02 0.94414898E-01
       -4 -1    0    0    0  501 0.00000000E+00 0.00000000E+00 0.44723303E+03 0.44723571E+03 0.15500000E+01 0.0000E+00 0.9000E+01
        2 -1    0    0  502    0 -.00000000E+00 -.00000000E+00 -.43996855E+04 0.43996855E+04 0.32000000E+00 0.0000E+00 0.9000E+01
       25  1    1    2    0    0 -.41904777E+03 0.18681963E+03 -.63999066E+02 0.47981610E+03 0.12500000E+03 0.0000E+00 0.9000E+01
       -4  1    1    2    0  501 0.89332201E+01 -.13069112E+02 0.22703165E+03 0.22758818E+03 0.15500000E+01 0.0000E+00 0.9000E+01
        2  1    1    2  502    0 0.41011455E+03 -.17375052E+03 -.41154850E+04 0.41395169E+04 0.32000000E+00 0.0000E+00 0.9000E+01
#aMCatNLO 1  0  0  4  1 0.33202882D+02 0.00000000D+00  -5  6  0 0.00000000D+00 0.00000000D+00 0.00000000D+00 0.00000000D+00 0.00000000D+00
  <mgrwgt>
 0.2311916624D-03    6    2    0
 0.140274416222985D+04 0.000000000000000D+00 0.000000000000000D+00 0.140274416222985D+04
 0.140274416222985D+04 -.000000000000000D+00 -.000000000000000D+00 -.140274416222985D+04
 0.739493016327370D+03 -.419265033793106D+03 0.186902691219382D+03 0.566135263563726D+03
 0.712288655837389D+03 0.892379074864978D+01 -.130553166906759D+02 0.712113090667076D+03
 0.135370665229493D+04 0.410341243044457D+03 -.173847374528707D+03 -.127824835423080D+04
 0.000000000000000D+00 0.000000000000000D+00 0.000000000000000D+00 0.000000000000000D+00
 0.140274416222985D+04 0.000000000000000D+00 0.000000000000000D+00 0.140274416222985D+04
 0.140274416222985D+04 -.000000000000000D+00 -.000000000000000D+00 -.140274416222985D+04
 0.741853654018858D+03 -.419225838890752D+03 0.186845349908127D+03 0.569262993005155D+03
 0.605327052051902D+03 0.520726643294291D+02 0.465803890379485D+00 0.603082963283010D+03
 0.134835606600854D+04 0.410412736832183D+03 -.173951968424560D+03 -.127254319332161D+04
 0.109951552380392D+03 -.432595622708593D+02 -.133591853739476D+02 0.100197237033445D+03
0.341944818772D-02 0.000000000000D+00 0.000000000000D+00 0.228870726735D-03 0.000000000000D+00  6 -4 2 25 -4 2 21 0 0.68805289D-01 0.67687489D+00 0.21959319D+06 0.21959319D+06 0.21959319D+06 0.10947216D+01  1  2  2  3  6  4       -4 0.629089122276D-04 0.100000000000D+01
0.255378324283D-02 0.000000000000D+00 -.131315814022D-04 0.228870726735D-03 0.000000000000D+00  6 -4 2 25 -4 2 21 2 0.68805289D-01 0.67687489D+00 0.21959319D+06 0.21959319D+06 0.21959319D+06 0.10947216D+01  1  2  3  3  6  4       -4 0.563050761465D-04 0.100000000000D+01
-.247402021274D-02 0.000000000000D+00 0.000000000000D+00 0.228870726735D-03 0.000000000000D+00  6 -4 2 25 -4 2 21 2 0.68805289D-01 0.67687489D+00 0.21959319D+06 0.21959319D+06 0.21959319D+06 0.10947216D+01  1  2 15  3  6  4       -4 -.545464838715D-04 0.100000000000D+01
-.141939939307D-03 0.000000000000D+00 0.000000000000D+00 0.228870726735D-03 0.000000000000D+00  6 -4 2 25 -4 2 21 2 0.68805289D-01 0.67687489D+00 0.21959319D+06 0.21959319D+06 0.21959319D+06 0.10947216D+01  1  2  4  3  6  4       -4 -.312945083079D-05 0.100000000000D+01
-.463231144040D-01 0.000000000000D+00 0.000000000000D+00 0.228870726735D-03 0.000000000000D+00  6 -4 2 25 -4 2 21 2 0.68805289D-01 0.67687489D+00 0.21959319D+06 0.21959319D+06 0.21959319D+06 0.10947216D+01  1  2  5  3  6  4       -4 -.102131866171D-02 0.100000000000D+01
0.540179542436D-01 0.000000000000D+00 -.000000000000D+00 0.228870726735D-03 0.000000000000D+00  6 -4 2 25 -4 2 21 2 0.68805289D-01 0.67687489D+00 0.21959319D+06 0.21959319D+06 0.21959319D+06 0.10947216D+01  1  2  6  3  6  4       -4 0.119097227046D-02 0.100000000000D+01
  </mgrwgt>
  </event>
  <event>
  5     66 0.15790991E-05 0.71652554E+02 0.75467711E-02 0.92486741E-01
       -4 -1    0    0    0  501 0.00000000E+00 0.00000000E+00 0.79077741E+03 0.79077893E+03 0.15500000E+01 0.0000E+00 0.9000E+01
        2 -1    0    0  502    0 0.00000000E+00 0.00000000E+00 -.13893246E+04 0.13893246E+04 0.32000000E+00 0.0000E+00 0.9000E+01
       25  1    1    2    0    0 -.20525345E+03 -.55264809E+03 0.30953422E+03 0.67748455E+03 0.12500000E+03 0.0000E+00 0.9000E+01
       -4  1    1    2    0  501 0.63414495E+02 0.33873049E+02 0.23154924E+03 0.24245873E+03 0.15500000E+01 0.0000E+00 0.9000E+01
        2  1    1    2  502    0 0.14183896E+03 0.51877504E+03 -.11396306E+04 0.12601603E+04 0.32000000E+00 0.0000E+00 0.9000E+01
#aMCatNLO 1  0  0  1  1 0.17386801D+00 0.00000000D+00  -5  6  0 0.00000000D+00 0.00000000D+00 0.00000000D+00 0.00000000D+00 0.00000000D+00
  <mgrwgt>
 0.4497497159D-04    9    2    0
 0.104816419879643D+04 0.000000000000000D+00 0.000000000000000D+00 0.104816419879643D+04
 0.104816419879643D+04 0.000000000000000D+00 0.000000000000000D+00 -.104816419879643D+04
 0.793788395469853D+03 -.205173845373267D+03 -.552934448771297D+03 0.516374094353437D+03
 0.317186728509788D+03 0.632013161289238D+02 0.337591788615168D+02 0.308987592347831D+03
 0.985353273613222D+03 0.141972529244343D+03 0.519175269909780D+03 -.825361686701269D+03
 0.000000000000000D+00 0.000000000000000D+00 -.000000000000000D+00 0.000000000000000D+00
 0.104939416364022D+04 0.000000000000000D+00 0.000000000000000D+00 0.104939416364022D+04
 0.104817034692109D+04 0.000000000000000D+00 0.000000000000000D+00 -.104817034692109D+04
 0.793767793543821D+03 -.205220177852526D+03 -.552887676974510D+03 0.516374094353437D+03
 0.317185029760158D+03 0.631828021282629D+02 0.337778684091188D+02 0.308987592347831D+03
 0.985375581499129D+03 0.141915013954846D+03 0.519233330550514D+03 -.825361686701269D+03
 0.123610575819755D+01 0.122361769417826D+00 -.123521985122770D+00 0.122381671913134D+01
0.481219687797D-05 0.000000000000D+00 0.000000000000D+00 0.186929462338D-05 0.000000000000D+00  6 -4 2 25 -4 2 21 0 0.12165818D+00 0.21374236D+00 0.36769929D+06 0.36769929D+06 0.36769929D+06 0.10780737D+01  1  2  2  1  6  1       -4 0.176606923520D-05 0.100000000000D+01
0.936064571141D-06 0.000000000000D+00 -.184801030920D-07 0.186929462338D-05 0.000000000000D+00  6 -4 2 25 -4 2 21 2 0.12165818D+00 0.21374236D+00 0.36769929D+06 0.36769929D+06 0.36769929D+06 0.10780737D+01  1  2  3  1  6  1       -4 0.399270324360D-06 0.100000000000D+01
-.283367892265D-05 0.000000000000D+00 0.000000000000D+00 0.186929462338D-05 0.000000000000D+00  6 -4 2 25 -4 2 21 2 0.12165818D+00 0.21374236D+00 0.36769929D+06 0.36769929D+06 0.36769929D+06 0.10780737D+01  1  2 15  1  6  1       -4 -.120868147077D-05 0.100000000000D+01
-.304486458724D-01 0.000000000000D+00 0.000000000000D+00 0.186929462338D-05 0.000000000000D+00  6 -4 2 25 -4 2 21 2 0.12165818D+00 0.21374236D+00 0.36769929D+06 0.36769929D+06 0.36769929D+06 0.10780737D+01  1  2  4  1  6  1       -4 -.129876090695D-01 0.100000000000D+01
-.830137225841D-01 0.000000000000D+00 -.740044489989D-03 0.186929462338D-05 0.000000000000D+00  6 -4 2 25 -4 2 21 2 0.12180126D+00 0.21374236D+00 0.36769929D+06 0.36769929D+06 0.36769929D+06 0.10780737D+01  1  2  5  1  6  1       -4 -.352838909362D-01 0.100000000000D+01
0.830145355722D-01 0.000000000000D+00 0.740043978815D-03 0.186929462338D-05 0.000000000000D+00  6 -4 2 25 -4 2 21 2 0.12165818D+00 0.21374236D+00 0.36769929D+06 0.36769929D+06 0.36769929D+06 0.10780737D+01  1  2  6  1  6  1       -4 0.354091390342D-01 0.100000000000D+01
0.304095430826D-01 0.000000000000D+00 0.000000000000D+00 0.186929462338D-05 0.372386755544D-03  6 -4 2 25 -4 2 21 2 0.12180094D+00 0.21374362D+00 0.36780848D+06 0.36780848D+06 0.36780848D+06 0.10780643D+01  1  2 11  1  6  1       -4 0.129247630229D-01 0.100000000000D+01
-.182619528946D-04 0.000000000000D+00 -.162803696755D-06 0.186929462338D-05 0.000000000000D+00  6 21 2 25 -4 2 4 2 0.12180126D+00 0.21374236D+00 0.36769929D+06 0.36769929D+06 0.36769929D+06 0.10780737D+01  1  2  5  5  6  1       -4 -.177876268993D-03 0.100000000000D+01
0.163753380266D-04 0.000000000000D+00 0.000000000000D+00 0.186929462338D-05 0.840009627718D-07  6 21 2 25 -4 2 4 2 0.12180094D+00 0.21374362D+00 0.36780848D+06 0.36780848D+06 0.36780848D+06 0.10780643D+01  1  2 11  5  6  1       -4 0.159492531072D-03 0.100000000000D+01
  </mgrwgt>
  </event>
  <event>
  5     66 0.15790991E-05 0.62310433E+02 0.75467711E-02 0.93712616E-01
       -4 -1    0    0    0  501 0.00000000E+00 0.00000000E+00 0.50392457E+03 0.50392695E+03 0.15500000E+01 0.0000E+00 0.9000E+01
        2 -1    0    0  502    0 0.00000000E+00 0.00000000E+00 -.23186646E+04 0.23186646E+04 0.32000000E+00 0.0000E+00 0.9000E+01
       25  1    1    2    0    0 0.42810975E+03 -.22196259E+03 -.94798657E+03 0.10709103E+04 0.12500000E+03 0.0000E+00 0.9000E+01
       -4  1    1    2    0  501 0.30897877E+02 0.54136175E+02 0.39431869E+03 0.39921803E+03 0.15500000E+01 0.0000E+00 0.9000E+01
        2  1    1    2  502    0 -.45900763E+03 0.16782642E+03 -.12610721E+04 0.13524632E+04 0.32000000E+00 0.0000E+00 0.9000E+01
#aMCatNLO 1  0  0  2  5 0.44317602D+02 0.00000000D+00  -5  6  0 0.00000000D+00 0.00000000D+00 0.00000000D+00 0.00000000D+00 0.00000000D+00
  <mgrwgt>
 0.7993554293D-03    9    2    0
 0.108094192993964D+04 0.000000000000000D+00 0.000000000000000D+00 0.108094192993964D+04
 0.108094192993964D+04 0.000000000000000D+00 0.000000000000000D+00 -.108094192993964D+04
 0.602603399320649D+03 0.428427778299389D+03 -.222084162500295D+03 -.338576609382268D+03
 0.851916706965267D+03 0.308866855982193D+02 0.541165662790481D+02 0.849634913073531D+03
 0.707363753593356D+03 -.459314463897608D+03 0.167967596221247D+03 -.511058303691263D+03
 0.000000000000000D+00 0.000000000000000D+00 0.000000000000000D+00 -.000000000000000D+00
 0.108464432808976D+04 0.000000000000000D+00 0.000000000000000D+00 0.108464432808976D+04
 0.122245540270771D+04 0.000000000000000D+00 0.000000000000000D+00 -.122245540270771D+04
 0.596418597186776D+03 0.417112555307338D+03 -.226876924464414D+03 -.338576609382268D+03
 0.851079991961022D+03 0.148154313099684D+02 0.473093035037117D+02 0.849634913073531D+03
 0.714839468018917D+03 -.472735857866552D+03 0.162282728449308D+03 -.511058303691263D+03
 0.144761673630757D+03 0.408078712492454D+02 0.172848925113947D+02 -.137811074617943D+03
0.147311271122D-03 0.000000000000D+00 0.000000000000D+00 0.860949011663D-05 0.000000000000D+00  6 -4 2 25 -4 2 21 0 0.77527042D-01 0.35671781D+00 0.27555580D+06 0.27555580D+06 0.27555580D+06 0.10872934D+01  1  2  2  2  6  2        2 0.585290705556D-04 0.100000000000D+01
0.576723914120D-04 0.000000000000D+00 -.565714069056D-06 0.860949011663D-05 0.000000000000D+00  6 -4 2 25 -4 2 21 2 0.77527042D-01 0.35671781D+00 0.27555580D+06 0.27555580D+06 0.27555580D+06 0.10872934D+01  1  2  3  2  6  2        2 0.270892564885D-04 0.100000000000D+01
-.109828690530D-03 0.000000000000D+00 0.000000000000D+00 0.860949011663D-05 0.000000000000D+00  6 -4 2 25 -4 2 21 2 0.77527042D-01 0.35671781D+00 0.27555580D+06 0.27555580D+06 0.27555580D+06 0.10872934D+01  1  2 15  2  6  2        2 -.515875533289D-04 0.100000000000D+01
0.369741904723D-02 0.000000000000D+00 0.000000000000D+00 0.860949011663D-05 0.000000000000D+00  6 -4 2 25 -4 2 21 2 0.77527042D-01 0.41035319D+00 0.29414750D+06 0.29414750D+06 0.29414750D+06 0.10851855D+01  1  2 12  2  6  2        2 0.108337565485D-02 0.100000000000D+01
-.222602228512D-02 0.000000000000D+00 0.000000000000D+00 0.860949011663D-05 0.000000000000D+00  6 -4 2 25 -4 2 21 2 0.77527042D-01 0.35671781D+00 0.27555580D+06 0.27555580D+06 0.27555580D+06 0.10872934D+01  1  2  4  2  6  2        2 -.104558328785D-02 0.100000000000D+01
-.466110605211D-02 0.000000000000D+00 -.226665009088D-03 0.860949011663D-05 0.000000000000D+00  6 -4 2 25 -4 2 21 2 0.77527042D-01 0.40381195D+00 0.27555580D+06 0.27555580D+06 0.27555580D+06 0.10872934D+01  1  2  5  2  6  2        2 -.145841373083D-02 0.100000000000D+01
0.465510828163D-02 0.000000000000D+00 0.224933384926D-03 0.860949011663D-05 0.000000000000D+00  6 -4 2 25 -4 2 21 2 0.77527042D-01 0.35671781D+00 0.27555580D+06 0.27555580D+06 0.27555580D+06 0.10872934D+01  1  2  6  2  6  2        2 0.218654748200D-02 0.100000000000D+01
0.797669044195D-04 0.000000000000D+00 0.000000000000D+00 0.860949011663D-05 0.000000000000D+00  6 -4 21 25 -4 2 -2 2 0.77527042D-01 0.41035319D+00 0.29414750D+06 0.29414750D+06 0.29414750D+06 0.10851855D+01  1  2 12  6  6  2        2 0.228238748212D-05 0.100000000000D+01
-.897935119042D-04 0.000000000000D+00 -.442071792548D-05 0.860949011663D-05 0.000000000000D+00  6 -4 21 25 -4 2 -2 2 0.77527042D-01 0.40381195D+00 0.27555580D+06 0.27555580D+06 0.27555580D+06 0.10872934D+01  1  2  5  6  6  2        2 -.288385007088D-05 0.100000000000D+01
  </mgrwgt>
  </event>
  <event>
  5     66 0.15790991E-05 0.79917114E+02 0.75467711E-02 0.93228346E-01
       -4 -1    0    0    0  501 0.00000000E+00 0.00000000E+00 0.63531635E+03 0.63531824E+03 0.15500000E+01 0.0000E+00 0.9000E+01
        2 -1    0    0  502    0 -.00000000E+00 -.00000000E+00 -.30102470E+04 0.30102470E+04 0.32000000E+00 0.0000E+00 0.9000E+01
       25  1    1    2    0    0 -.16854731E+03 -.43429377E+03 -.41291935E+01 0.48234979E+03 0.12500000E+03 0.0000E+00 0.9000E+01
       -4  1    1    2    0  501 0.64934220E+01 0.79710919E+02 0.37827136E+03 0.38663629E+03 0.15500000E+01 0.0000E+00 0.9000E+01
        2  1    1    2  502    0 0.16205388E+03 0.35458285E+03 -.27490728E+04 0.27765791E+04 0.32000000E+00 0.0000E+00 0.9000E+01
#aMCatNLO 1  0  0  4  1 0.39826223D+02 0.00000000D+00  -5  6  0 0.00000000D+00 0.00000000D+00 0.00000000D+00 0.00000000D+00 0.00000000D+00
  <mgrwgt>
 0.5213337935D-03    6    2    0
 0.138291814064806D+04 0.000000000000000D+00 0.000000000000000D+00 0.138291814064806D+04
 0.138291814064806D+04 -.000000000000000D+00 -.000000000000000D+00 -.138291814064806D+04
 0.632747291611891D+03 -.168633280077200D+03 -.434439043313444D+03 0.409352744631678D+03
 0.833817463074989D+03 0.648872481461254D+01 0.796532582079754D+02 0.829978804931755D+03
 0.129927152660924D+04 0.162144555262587D+03 0.354785785105468D+03 -.123933154956343D+04
 0.000000000000000D+00 0.000000000000000D+00 0.000000000000000D+00 0.000000000000000D+00
 0.138291814064806D+04 0.000000000000000D+00 0.000000000000000D+00 0.138291814064806D+04
 0.138291814064806D+04 -.000000000000000D+00 -.000000000000000D+00 -.138291814064806D+04
 0.638530269077900D+03 -.168555889782503D+03 -.433489027816972D+03 0.419251808953307D+03
 0.597882488641778D+03 -.110404413734307D+03 0.898631244445412D+02 0.580688345429400D+03
 0.128067878479565D+04 0.162301612321623D+03 0.356713761223155D+03 -.121924223557810D+04
 0.248744738780795D+03 0.116658691195187D+03 -.130878578507242D+02 0.219302081195394D+03
0.367847193152D-02 0.000000000000D+00 0.000000000000D+00 0.864302419215D-04 0.000000000000D+00  6 -4 2 25 -4 2 21 0 0.97741124D-01 0.46311506D+00 0.22681020D+06 0.22681020D+06 0.22681020D+06 0.10936539D+01  1  2  2  3  6  4       -4 0.310274967350D-03 0.100000000000D+01
0.885490510872D-03 0.000000000000D+00 -.141263007809D-04 0.864302419215D-04 0.000000000000D+00  6 -4 2 25 -4 2 21 2 0.97741124D-01 0.46311506D+00 0.22681020D+06 0.22681020D+06 0.22681020D+06 0.10936539D+01  1  2  3  3  6  4       -4 0.893352905218D-04 0.100000000000D+01
-.258658844453D-02 0.000000000000D+00 0.000000000000D+00 0.864302419215D-04 0.000000000000D+00  6 -4 2 25 -4 2 21 2 0.97741124D-01 0.46311506D+00 0.22681020D+06 0.22681020D+06 0.22681020D+06 0.10936539D+01  1  2 15  3  6  4       -4 -.260955512583D-03 0.100000000000D+01
-.244510160173D-03 0.000000000000D+00 0.000000000000D+00 0.864302419215D-04 0.000000000000D+00  6 -4 2 25 -4 2 21 2 0.97741124D-01 0.46311506D+00 0.22681020D+06 0.22681020D+06 0.22681020D+06 0.10936539D+01  1  2  4  3  6  4       -4 -.246681200152D-04 0.100000000000D+01
-.118696191138D-01 0.000000000000D+00 0.000000000000D+00 0.864302419215D-04 0.000000000000D+00  6 -4 2 25 -4 2 21 2 0.97741124D-01 0.46311506D+00 0.22681020D+06 0.22681020D+06 0.22681020D+06 0.10936539D+01  1  2  5  3  6  4       -4 -.119750111254D-02 0.100000000000D+01
0.159072401927D-01 0.000000000000D+00 -.000000000000D+00 0.864302419215D-04 0.000000000000D+00  6 -4 2 25 -4 2 21 2 0.97741124D-01 0.46311506D+00 0.22681020D+06 0.22681020D+06 0.22681020D+06 0.10936539D+01  1  2  6  3  6  4       -4 0.160484828077D-02 0.100000000000D+01
  </mgrwgt>
  </event>
  <event>
  5     66 0.15790991E-05 0.89159657E+02 0.75467711E-02 0.94597641E-01
       -4 -1    0    0    0  501 0.00000000E+00 0.00000000E+00 0.18116465E+04 0.18116471E+04 0.15500000E+01 0.0000E+00 0.9000E+01
        2 -1    0    0  502    0 0.00000000E+00 0.00000000E+00 -.67932825E+03 0.67932833E+03 0.32000000E+00 0.0000E+00 0.9000E+01
       25  1    1    2    0    0 0.25438235E+03 0.41216621E+03 0.41839360E+03 0.65212696E+03 0.12500000E+03 0.0000E+00 0.9000E+01
       -4  1    1    2    0  501 -.68550553E+02 -.57105186E+02 0.12031405E+04 0.12064451E+04 0.15500000E+01 0.0000E+00 0.9000E+01
        2  1    1    2  502    0 -.18583180E+03 -.35506103E+03 -.48921591E+03 0.63240343E+03 0.32000000E+00 0.0000E+00 0.9000E+01
#aMCatNLO 1  0  0  5  4 0.10004643D+02 0.00000000D+00  -5  6  0 0.00000000D+00 0.00000000D+00 0.00000000D+00 0.00000000D+00 0.00000000D+00
  <mgrwgt>
 0.3214793772D-03    5    2    0
 0.110937078744992D+04 0.000000000000000D+00 0.000000000000000D+00 0.110937078744992D+04
 0.110937078744992D+04 -.000000000000000D+00 -.000000000000000D+00 -.110937078744992D+04
 0.518972818674465D+03 0.254475532177644D+03 0.412382285980929D+03 0.137443953140786D+03
 0.739957844961452D+03 -.685043087378126D+02 -.570666630634884D+02 0.734566653184821D+03
 0.959810911263917D+03 -.185971223439832D+03 -.355315622917441D+03 -.872010606325607D+03
 0.000000000000000D+00 0.000000000000000D+00 0.000000000000000D+00 -.000000000000000D+00
 0.110937078744992D+04 0.000000000000000D+00 0.000000000000000D+00 0.110937078744992D+04
 0.110937078744992D+04 -.000000000000000D+00 -.000000000000000D+00 -.110937078744992D+04
 0.517543802393608D+03 0.254034953903488D+03 0.411540519491306D+03 0.135378101656482D+03
 0.737187791750684D+03 -.691321793016534D+02 -.582662691981160D+02 0.731622596674670D+03
 0.953999223823362D+03 -.178806869746038D+03 -.360905710802932D+03 -.864806157642873D+03
 0.100107569321795D+02 -.609590485579646D+01 0.763146050974160D+01 -.219454068827890D+01
0.753230016110D-02 0.000000000000D+00 0.000000000000D+00 0.227193701529D-04 0.000000000000D+00  6 -4 2 25 -4 2 21 0 0.27871490D+00 0.10451210D+00 0.24534347D+06 0.24534347D+06 0.24534347D+06 0.10910739D+01  1  2  2  4  6  5        2 0.352444798494D-03 0.100000000000D+01
0.186141039701D-02 0.000000000000D+00 -.289260159188D-04 0.227193701529D-04 0.000000000000D+00  6 -4 2 25 -4 2 21 2 0.27871490D+00 0.10451210D+00 0.24534347D+06 0.24534347D+06 0.24534347D+06 0.10910739D+01  1  2  3  4  6  5        2 0.103684533629D-03 0.100000000000D+01
-.491437503033D-02 0.000000000000D+00 0.000000000000D+00 0.227193701529D-04 0.000000000000D+00  6 -4 2 25 -4 2 21 2 0.27871490D+00 0.10451210D+00 0.24534347D+06 0.24534347D+06 0.24534347D+06 0.10910739D+01  1  2 15  4  6  5        2 -.273741182447D-03 0.100000000000D+01
-.238170430835D+00 0.000000000000D+00 0.000000000000D+00 0.227193701529D-04 0.000000000000D+00  6 -4 2 25 -4 2 21 2 0.27871490D+00 0.10451210D+00 0.24534347D+06 0.24534347D+06 0.24534347D+06 0.10910739D+01  1  2  5  4  6  5        2 -.132666015431D-01 0.100000000000D+01
0.240667484620D+00 0.000000000000D+00 -.000000000000D+00 0.227193701529D-04 0.000000000000D+00  6 -4 2 25 -4 2 21 2 0.27871490D+00 0.10451210D+00 0.24534347D+06 0.24534347D+06 0.24534347D+06 0.10910739D+01  1  2  6  4  6  5        2 0.134056927707D-01 0.100000000000D+01
  </mgrwgt>
  </event>
  <event>
  5     66 -.15790991E-05 0.11114769E+03 0.75467711E-02 0.92864099E-01
       -4 -1    0    0    0  501 0.00000000E+00 0.00000000E+00 0.23619230E+03 0.23619739E+03 0.15500000E+01 0.0000E+00 0.9000E+01
        2 -1    0    0  502    0 0.00000000E+00 0.00000000E+00 -.17461078E+04 0.17461079E+04 0.32000000E+00 0.0000E+00 0.9000E+01
       25  1    1    2    0    0 -.12564152E+03 -.49234338E+03 -.52227732E+03 0.73931481E+03 0.12500000E+03 0.0000E+00 0.9000E+01
       -4  1    1    2    0  501 0.19662564E+02 0.52545086E+03 -.44421917E+03 0.68834460E+03 0.15500000E+01 0.0000E+00 0.9000E+01
        2  1    1    2  502    0 0.10597895E+03 -.33107483E+02 -.54341906E+03 0.55464585E+03 0.32000000E+00 0.0000E+00 0.9000E+01
#aMCatNLO 1  0  0  1  4 0.12282855D+02 0.00000000D+00  -5  6  0 0.00000000D+00 0.00000000D+00 0.00000000D+00 0.00000000D+00 0.00000000D+00
  <mgrwgt>
 -.5840435294D-04    9    2    0
 0.642201137043047D+03 0.000000000000000D+00 0.000000000000000D+00 0.642201137043047D+03
 0.642201137043047D+03 0.000000000000000D+00 0.000000000000000D+00 -.642201137043047D+03
 0.526938282625917D+03 -.125756882988007D+03 -.492140980382468D+03 0.634146316402923D+02
 0.539945861328206D+03 0.196550493767471D+02 0.525250035436392D+03 0.123562180595541D+03
 0.217518130131971D+03 0.106101833611260D+03 -.331090550539235D+02 -.186976812235833D+03
 0.000000000000000D+00 0.000000000000000D+00 0.000000000000000D+00 0.000000000000000D+00
 0.725027930665766D+03 0.000000000000000D+00 0.000000000000000D+00 0.725027930665766D+03
 0.642686036955521D+03 0.000000000000000D+00 0.000000000000000D+00 -.642686036955521D+03
 0.530710151051413D+03 -.129839982610266D+03 -.495124658887744D+03 0.634146316402923D+02
 0.536855208258594D+03 0.154980101371657D+02 0.522212326398604D+03 0.123562180595541D+03
 0.216895644460698D+03 0.104424759583195D+03 -.343345577827853D+02 -.186976812235833D+03
 0.832529638505822D+02 0.991721288990545D+01 0.724689027192613D+01 0.823418937102451D+02
0.574969274438D-06 0.000000000000D+00 0.000000000000D+00 0.201695459948D-07 0.000000000000D+00  6 -4 2 25 -4 2 21 0 0.36337671D-01 0.26863237D+00 0.33632685D+06 0.33632685D+06 0.33632685D+06 0.10808983D+01  1  2  2  1  6  1       -4 0.268399355995D-05 0.100000000000D+01
0.571768164736D-07 0.000000000000D+00 -.220803340673D-08 0.201695459948D-07 0.000000000000D+00  6 -4 2 25 -4 2 21 2 0.36337671D-01 0.26863237D+00 0.33632685D+06 0.33632685D+06 0.33632685D+06 0.10808983D+01  1  2  3  1  6  1       -4 0.311836131926D-06 0.100000000000D+01
-.333333815126D-06 0.000000000000D+00 0.000000000000D+00 0.201695459948D-07 0.000000000000D+00  6 -4 2 25 -4 2 21 2 0.36337671D-01 0.26863237D+00 0.33632685D+06 0.33632685D+06 0.33632685D+06 0.10808983D+01  1  2 15  1  6  1       -4 -.181796633600D-05 0.100000000000D+01
0.808793031293D-04 0.000000000000D+00 0.000000000000D+00 0.201695459948D-07 0.000000000000D+00  6 -4 2 25 -4 2 21 2 0.41067216D-01 0.26863237D+00 0.34313669D+06 0.34313669D+06 0.34313669D+06 0.10802614D+01  1  2 12  1  6  1       -4 0.339738028458D-03 0.100000000000D+01
-.909546117038D-04 0.000000000000D+00 0.000000000000D+00 0.201695459948D-07 0.000000000000D+00  6 -4 2 25 -4 2 21 2 0.36337671D-01 0.26863237D+00 0.33632685D+06 0.33632685D+06 0.33632685D+06 0.10808983D+01  1  2  4  1  6  1       -4 -.496056549556D-03 0.100000000000D+01
-.845457686911D-04 0.000000000000D+00 -.100213843789D-05 0.201695459948D-07 0.000000000000D+00  6 -4 2 25 -4 2 21 2 0.41038880D-01 0.26863237D+00 0.33632685D+06 0.33632685D+06 0.33632685D+06 0.10808983D+01  1  2  5  1  6  1       -4 -.356284654985D-03 0.100000000000D+01
0.840522120882D-04 0.000000000000D+00 0.994766903096D-06 0.201695459948D-07 0.000000000000D+00  6 -4 2 25 -4 2 21 2 0.36337671D-01 0.26863237D+00 0.33632685D+06 0.33632685D+06 0.33632685D+06 0.10808983D+01  1  2  6  1  6  1       -4 0.458411613551D-03 0.100000000000D+01
0.155983044289D-05 0.000000000000D+00 0.000000000000D+00 0.201695459948D-07 0.000000000000D+00  6 21 2 25 -4 2 4 2 0.41067216D-01 0.26863237D+00 0.34313669D+06 0.34313669D+06 0.34313669D+06 0.10802614D+01  1  2 12  5  6  1       -4 0.129811528749D-03 0.100000000000D+01
-.161807049557D-05 0.000000000000D+00 -.192356714277D-07 0.201695459948D-07 0.000000000000D+00  6 21 2 25 -4 2 4 2 0.41038880D-01 0.26863237D+00 0.33632685D+06 0.33632685D+06 0.33632685D+06 0.10808983D+01  1  2  5  5  6  1       -4 -.135202182510D-03 0.100000000000D+01
  </mgrwgt>
  </event>
  <event>
  6     66 -.15790991E-05 0.12103750E+02 0.75467711E-02 0.95462951E-01
       -4 -1    0    0    0  501 0.00000000E+00 0.00000000E+00 0.11644893E+03 0.11645924E+03 0.15500000E+01 0.0000E+00 0.9000E+01
        2 -1    0    0  502    0 -.00000000E+00 -.00000000E+00 -.24465217E+04 0.24465217E+04 0.32000000E+00 0.0000E+00 0.9000E+01
       25  1    1    2    0    0 0.21372610E+03 0.40144213E+03 -.14642274E+04 0.15383178E+04 0.12500000E+03 0.0000E+00 0.9000E+01
       -4  1    1    2    0  501 -.21200718E+03 -.38995096E+03 -.54325967E+03 0.70152852E+03 0.15500000E+01 0.0000E+00 0.9000E+01
        2  1    1    2  503    0 0.63312445E+00 0.89699245E+00 -.17654830E+03 0.17655200E+03 0.32000000E+00 0.0000E+00 0.9000E+01
       21  1    1    2  502  503 -.23520467E+01 -.12388171E+02 -.14603741E+03 0.14658270E+03 0.75000000E+00 0.0000E+00 0.9000E+01
#aMCatNLO 2  0  0  5  2 0.73547462D+01 0.00000000D+00  -5  6  0 0.00000000D+00 0.00000000D+00 0.00000000D+00 0.00000000D+00 0.00000000D+00
  <mgrwgt>
 -.8117517988D-03    5    2    0
 0.533767810567438D+03 0.000000000000000D+00 0.000000000000000D+00 0.533767810567438D+03
 0.533767810567438D+03 -.000000000000000D+00 -.000000000000000D+00 -.533767810567438D+03
 0.497280283252440D+03 0.213762601031866D+03 0.401587720137895D+03 -.157148126129987D+03
 0.498763376118763D+03 -.212006139695168D+03 -.389863604341294D+03 0.227650328572032D+03
 0.714919617636733D+02 -.175646133669746D+01 -.117241157966011D+02 -.705022024420450D+02
 0.000000000000000D+00 -.000000000000000D+00 0.000000000000000D+00 0.000000000000000D+00
 0.533767810567438D+03 0.000000000000000D+00 0.000000000000000D+00 0.533767810567438D+03
 0.533767810567438D+03 -.000000000000000D+00 -.000000000000000D+00 -.533767810567438D+03
 0.497401334143003D+03 0.213745038635028D+03 0.401470493774931D+03 -.157853059185631D+03
 0.498540598403060D+03 -.212023748393129D+03 -.389981139757308D+03 0.226943537046111D+03
 0.379556195189512D+02 0.644865049441205D+00 0.977260090552667D+00 -.379375561264931D+02
 0.336380690698619D+02 -.236615529134027D+01 -.124666141081755D+02 -.311529217339867D+02
-.100757865177D-03 0.000000000000D+00 0.000000000000D+00 0.429623265187D-06 0.000000000000D+00  6 -4 2 25 -4 2 21 2 0.17916015D-01 0.37638875D+00 0.21596476D+06 0.21596476D+06 0.21596476D+06 0.10952729D+01  1  2 13  4  6  5        2 -.926543458426D-03 0.100000000000D+01
-.768828605735D-05 0.000000000000D+00 0.000000000000D+00 0.429623265187D-06 0.000000000000D+00  6 -4 2 25 -4 2 21 2 0.17916015D-01 0.37638875D+00 0.21503214D+06 0.21503214D+06 0.21503214D+06 0.10954163D+01  1  2  8  4  6  5        2 -.707265379807D-04 0.100000000000D+01
-.134580687479D-05 0.000000000000D+00 0.000000000000D+00 0.429623265187D-06 0.000000000000D+00  6 -4 2 25 -4 2 21 2 0.17916015D-01 0.37638875D+00 0.21503214D+06 0.21503214D+06 0.21503214D+06 0.10954163D+01  1  2  9  4  6  5        2 -.123804265781D-04 0.100000000000D+01
0.210224193847D-05 0.000000000000D+00 0.000000000000D+00 0.429623265187D-06 0.000000000000D+00  6 -4 2 25 -4 2 21 2 0.17916015D-01 0.37638875D+00 0.21503214D+06 0.21503214D+06 0.21503214D+06 0.10954163D+01  1  2 10  4  6  5        2 0.193390689676D-04 0.100000000000D+01
0.194176316551D-04 0.000000000000D+00 0.000000000000D+00 0.429623265187D-06 0.194578126419D-08  6 -4 2 25 -4 2 21 2 0.17916015D-01 0.37638875D+00 0.21596476D+06 0.21596476D+06 0.21596476D+06 0.10952729D+01  1  2  1  4  6  5        2 0.178559555193D-03 0.100000000000D+01
  </mgrwgt>
  </event>
  <event>
  5     66 -.15790991E-05 0.89417786E+02 0.75467711E-02 0.93138938E-01
       -4 -1    0    0    0  501 0.00000000E+00 0.00000000E+00 0.95165278E+03 0.95165404E+03 0.15500000E+01 0.0000E+00 0.9000E+01
        2 -1    0    0  502    0 0.00000000E+00 0.00000000E+00 -.83714626E+03 0.83714633E+03 0.32000000E+00 0.0000E+00 0.9000E+01
       25  1    1    2    0    0 -.36040872E+03 -.42851800E+03 0.10722106E+03 0.58364671E+03 0.12500000E+03 0.0000E+00 0.9000E+01
       -4  1    1    2    0  501 0.79496733E+02 0.41217516E+02 0.50610632E+03 0.51396948E+03 0.15500000E+01 0.0000E+00 0.9000E+01
        2  1    1    2  502    0 0.28091199E+03 0.38730049E+03 -.49882087E+03 0.69118418E+03 0.32000000E+00 0.0000E+00 0.9000E+01
#aMCatNLO 1  0  0  4  1 0.36195338D+01 0.00000000D+00  -5  6  0 0.00000000D+00 0.00000000D+00 0.00000000D+00 0.00000000D+00 0.00000000D+00
  <mgrwgt>
 -.2493589628D-03    8    2    0
 0.892565824642678D+03 0.000000000000000D+00 0.000000000000000D+00 0.892565824642678D+03
 0.892565824642678D+03 -.000000000000000D+00 -.000000000000000D+00 -.892565824642678D+03
 0.578375594606371D+03 -.360577601480896D+03 -.428815205348880D+03 0.706727769947861D+02
 0.481864506108902D+03 0.793822737479727D+02 0.411581704359716D+02 0.473495366258785D+03
 0.724891548570084D+03 0.281195327732923D+03 0.387657034912909D+03 -.544168143253572D+03
 0.000000000000000D+00 0.000000000000000D+00 0.000000000000000D+00 0.000000000000000D+00
 0.892565824642678D+03 0.000000000000000D+00 0.000000000000000D+00 0.892565824642678D+03
 0.892565824642678D+03 -.000000000000000D+00 -.000000000000000D+00 -.892565824642678D+03
 0.578374600603783D+03 -.360574037251283D+03 -.428813357364904D+03 0.706940367310779D+02
 0.344744968096073D+03 0.581608239782077D+02 0.327542946473125D+02 0.338221181719737D+03
 0.724874518187504D+03 0.281199794815936D+03 0.387659351008875D+03 -.544141498223044D+03
 0.137137562397996D+03 0.212134184571388D+02 0.839971170871669D+01 0.135226279772229D+03
0.173569501403D-05 0.000000000000D+00 0.000000000000D+00 0.187250045301D-05 0.000000000000D+00  6 -4 2 25 -4 2 21 0 0.14640822D+00 0.12879183D+00 0.32624834D+06 0.32624834D+06 0.32624834D+06 0.10818671D+01  1  2  2  3  6  4       -4 0.775284343325D-06 0.100000000000D+01
0.399053180901D-06 0.000000000000D+00 -.666552587289D-08 0.187250045301D-05 0.000000000000D+00  6 -4 2 25 -4 2 21 2 0.14640822D+00 0.12879183D+00 0.32624834D+06 0.32624834D+06 0.32624834D+06 0.10818671D+01  1  2  3  3  6  4       -4 0.208624920783D-06 0.100000000000D+01
-.107864848428D-05 0.000000000000D+00 0.000000000000D+00 0.187250045301D-05 0.000000000000D+00  6 -4 2 25 -4 2 21 2 0.14640822D+00 0.12879183D+00 0.32624834D+06 0.32624834D+06 0.32624834D+06 0.10818671D+01  1  2 15  3  6  4       -4 -.563917205413D-06 0.100000000000D+01
0.111614709269D-03 0.000000000000D+00 0.000000000000D+00 0.187250045301D-05 0.000000000000D+00  6 -4 2 25 -4 2 21 2 0.14640822D+00 0.12879183D+00 0.32633328D+06 0.32633328D+06 0.32633328D+06 0.10818588D+01  1  2 12  3  6  4       -4 0.583507848615D-04 0.100000000000D+01
-.372969332764D-02 0.000000000000D+00 0.000000000000D+00 0.187250045301D-05 0.000000000000D+00  6 -4 2 25 -4 2 21 2 0.14640822D+00 0.12879183D+00 0.32624834D+06 0.32624834D+06 0.32624834D+06 0.10818671D+01  1  2  4  3  6  4       -4 -.194988290349D-02 0.100000000000D+01
-.208179618996D-02 0.000000000000D+00 0.000000000000D+00 0.187250045301D-05 0.000000000000D+00  6 -4 2 25 -4 2 21 2 0.14640822D+00 0.12879183D+00 0.32624834D+06 0.32624834D+06 0.32624834D+06 0.10818671D+01  1  2  5  3  6  4       -4 -.108836261933D-02 0.100000000000D+01
0.275406231113D-02 0.000000000000D+00 -.000000000000D+00 0.187250045301D-05 0.000000000000D+00  6 -4 2 25 -4 2 21 2 0.14640822D+00 0.12879183D+00 0.32624834D+06 0.32624834D+06 0.32624834D+06 0.10818671D+01  1  2  6  3  6  4       -4 0.143982320901D-02 0.100000000000D+01
0.246810100110D-02 0.000000000000D+00 0.000000000000D+00 0.187250045301D-05 0.606169950198D-06  6 -4 2 25 -4 2 21 2 0.14640822D+00 0.12879183D+00 0.32633328D+06 0.32633328D+06 0.32633328D+06 0.10818588D+01  1  2 11  3  6  4       -4 0.129029257412D-02 0.100000000000D+01
  </mgrwgt>
  </event>
  <event>
  6     66 0.15790991E-05 0.17888798E+03 0.75467711E-02 0.95097992E-01
       21 -1    0    0  503  501 0.00000000E+00 0.00000000E+00 0.70081167E+02 0.70085180E+02 0.75000000E+00 0.0000E+00 0.9000E+01
        2 -1    0    0  502    0 0.00000000E+00 0.00000000E+00 -.45731775E+04 0.45731775E+04 0.32000000E+00 0.0000E+00 0.9000E+01
       25  1    1    2    0    0 -.33699470E+03 0.31183843E+03 -.29001431E+04 0.29389221E+04 0.12500000E+03 0.0000E+00 0.9000E+01
       -4  1    1    2    0  501 0.15054445E+03 -.11831873E+03 -.22336173E+03 0.29420370E+03 0.15500000E+01 0.0000E+00 0.9000E+01
        2  1    1    2  502    0 0.16709727E+03 -.20842644E+03 -.12802824E+04 0.13078556E+04 0.32000000E+00 0.0000E+00 0.9000E+01
        4  1    1    2  503    0 0.19352983E+02 0.14906736E+02 -.99309114E+02 0.10228124E+03 0.15500000E+01 0.0000E+00 0.9000E+01
#aMCatNLO 2  0  0  1  4 0.24428441D+02 0.00000000D+00  -5  6  0 0.00000000D+00 0.00000000D+00 0.00000000D+00 0.00000000D+00 0.00000000D+00
  <mgrwgt>
 0.1007348948D-04    1    2    0
 0.553753994060558D+03 0.000000000000000D+00 0.000000000000000D+00 0.553753994060558D+03
 0.553753994060558D+03 0.000000000000000D+00 0.000000000000000D+00 -.553753994060558D+03
 0.516540719804470D+03 -.328107709420511D+03 0.319024359869872D+03 -.204347997407766D+03
 0.318545773198025D+03 0.155806798924481D+03 -.113808331740207D+03 0.253462649433294D+03
 0.272421495118621D+03 0.172300910496030D+03 -.205216028129665D+03 -.491146520255276D+02
 0.000000000000000D+00 0.000000000000000D+00 0.000000000000000D+00 -.000000000000000D+00
 0.565863364553299D+03 0.000000000000000D+00 0.000000000000000D+00 0.565863364553299D+03
 0.566347233896483D+03 0.000000000000000D+00 0.000000000000000D+00 -.566347233896483D+03
 0.518105851268069D+03 -.337146498631325D+03 0.312062185364206D+03 -.204347997407766D+03
 0.317432457166672D+03 0.150250821330148D+03 -.118087852443603D+03 0.253462649433294D+03
 0.272239057498393D+03 0.167542694440235D+03 -.208881068849551D+03 -.491146520255276D+02
 0.244332325166486D+02 0.193529828609427D+02 0.149067359289484D+02 -.483869343183884D+00
0.828872696881D-06 0.000000000000D+00 0.000000000000D+00 0.137185442483D-07 0.490064008394D-12  6 21 2 25 -4 2 4 2 0.10781560D-01 0.70353556D+00 0.23011556D+06 0.23011556D+06 0.23011556D+06 0.10931773D+01  1  2  1  5  6  1       -4 0.100734894811D-04 0.100000000000D+01
  </mgrwgt>
  </event>
  <event>
  5     66 0.15790991E-05 0.15529351E+03 0.75467711E-02 0.89126432E-01
       -4 -1    0    0    0  501 0.00000000E+00 0.00000000E+00 0.59091905E+03 0.59092108E+03 0.15500000E+01 0.0000E+00 0.9000E+01
        2 -1    0    0  502    0 0.00000000E+00 0.00000000E+00 -.49986829E+04 0.49986829E+04 0.32000000E+00 0.0000E+00 0.9000E+01
       25  1    1    2    0    0 -.70293800E+03 0.63495553E+02 -.12771729E+03 0.72807295E+03 0.12500000E+03 0.0000E+00 0.9000E+01
       -4  1    1    2    0  501 0.77108888E+03 0.75969805E+02 -.22962107E+03 0.80813224E+03 0.15500000E+01 0.0000E+00 0.9000E+01
        2  1    1    2  502    0 -.68150877E+02 -.13946536E+03 -.40504255E+04 0.40533988E+04 0.32000000E+00 0.0000E+00 0.9000E+01
#aMCatNLO 1  0  0  2  5 0.20890410D+02 0.00000000D+00  -5  6  0 0.00000000D+00 0.00000000D+00 0.00000000D+00 0.00000000D+00 0.00000000D+00
  <mgrwgt>
 0.3967342920D-04    7    2    0
 0.171866886619198D+04 0.000000000000000D+00 0.000000000000000D+00 0.171866886619198D+04
 0.171866886619198D+04 0.000000000000000D+00 0.000000000000000D+00 -.171866886619198D+04
 0.102040587551618D+04 -.702441247892727D+03 0.636039989083207D+02 0.726728267903287D+03
 0.101906838425253D+04 0.770618646662041D+03 0.759234767306712D+02 0.662482376279522D+03
 0.139786347261525D+04 -.681773987693147D+02 -.139527475638992D+03 -.138921064418281D+04
 0.000000000000000D+00 0.000000000000000D+00 0.000000000000000D+00 -.000000000000000D+00
 0.172146295749823D+04 0.000000000000000D+00 0.000000000000000D+00 0.172146295749823D+04
 0.175819678038423D+04 0.000000000000000D+00 0.000000000000000D+00 -.175819678038423D+04
 0.102244923571798D+04 -.705854578178077D+03 0.584189927645528D+02 0.726728267903287D+03
 0.101612657566923D+04 0.767218115437340D+03 0.707579129503868D+02 0.662482376279522D+03
 0.139882540111245D+04 -.728502817255750D+02 -.146625800386911D+03 -.138921064418281D+04
 0.422585253827900D+02 0.114867444663113D+02 0.174488946719709D+02 -.367338228860003D+02
0.154943896509D-02 0.000000000000D+00 0.000000000000D+00 0.737444625208D-06 0.000000000000D+00  6 -4 2 25 -4 2 21 0 0.90910780D-01 0.76902830D+00 0.67728714D+06 0.67728714D+06 0.67728714D+06 0.10593181D+01  1  2  2  2  6  2        2 0.267491005419D-05 0.100000000000D+01
0.382416277047D-03 0.000000000000D+00 -.595025360260D-05 0.737444625208D-06 0.000000000000D+00  6 -4 2 25 -4 2 21 2 0.90910780D-01 0.76902830D+00 0.67728714D+06 0.67728714D+06 0.67728714D+06 0.10593181D+01  1  2  3  2  6  2        2 0.740839058179D-06 0.100000000000D+01
-.878735370546D-03 0.000000000000D+00 0.000000000000D+00 0.737444625208D-06 0.000000000000D+00  6 -4 2 25 -4 2 21 2 0.90910780D-01 0.76902830D+00 0.67728714D+06 0.67728714D+06 0.67728714D+06 0.10593181D+01  1  2 15  2  6  2        2 -.170233727845D-05 0.100000000000D+01
-.143784620819D-03 0.000000000000D+00 0.000000000000D+00 0.737444625208D-06 0.000000000000D+00  6 -4 2 25 -4 2 21 2 0.90910780D-01 0.76902830D+00 0.67728714D+06 0.67728714D+06 0.67728714D+06 0.10593181D+01  1  2  4  2  6  2        2 -.278547931826D-06 0.100000000000D+01
-.563727013088D-01 0.000000000000D+00 -.437483905337D-02 0.737444625208D-06 0.000000000000D+00  6 -4 2 25 -4 2 21 2 0.90910780D-01 0.78685135D+00 0.67728714D+06 0.67728714D+06 0.67728714D+06 0.10593181D+01  1  2  5  2  6  2        2 -.759439395997D-04 0.100000000000D+01
0.589411964961D-01 0.000000000000D+00 0.470495322071D-02 0.737444625208D-06 0.000000000000D+00  6 -4 2 25 -4 2 21 2 0.90910780D-01 0.76902830D+00 0.67728714D+06 0.67728714D+06 0.67728714D+06 0.10593181D+01  1  2  6  2  6  2        2 0.114184314636D-03 0.100000000000D+01
-.233223803822D-03 0.000000000000D+00 -.181644162317D-04 0.737444625208D-06 0.000000000000D+00  6 -4 21 25 -4 2 -2 2 0.90910780D-01 0.78685135D+00 0.67728714D+06 0.67728714D+06 0.67728714D+06 0.10593181D+01  1  2  5  6  6  2        2 -.180974204894D-08 0.100000000000D+01
  </mgrwgt>
  </event>
  <event>
  6     66 0.15790991E-05 0.36444466E+02 0.75467711E-02 0.94154678E-01
       -2 -1    0    0    0  501 0.00000000E+00 0.00000000E+00 0.76962154E+03 0.76962161E+03 0.32000000E+00 0.0000E+00 0.9000E+01
        4 -1    0    0  502    0 -.00000000E+00 -.00000000E+00 -.11290444E+04 0.11290455E+04 0.15500000E+01 0.0000E+00 0.9000E+01
       25  1    1    2    0    0 0.43394035E+03 0.21416604E+03 -.12406493E+03 0.51496449E+03 0.12500000E+03 0.0000E+00 0.9000E+01
       -2  1    1    2    0  503 -.40661763E+03 -.24450279E+03 0.43331769E+03 0.64256038E+03 0.32000000E+00 0.0000E+00 0.9000E+01
        4  1    1    2  502    0 0.16659194E+02 0.13145773E+02 -.68928486E+03 0.68961320E+03 0.15500000E+01 0.0000E+00 0.9000E+01
       21  1    1    2  503  501 -.43981919E+02 0.17190979E+02 0.20609211E+02 0.51529031E+02 0.75000000E+00 0.0000E+00 0.9000E+01
#aMCatNLO 2  0  0  4  1 0.35417490D+02 0.00000000D+00  -5  6  0 0.00000000D+00 0.00000000D+00 0.00000000D+00 0.00000000D+00 0.00000000D+00
  <mgrwgt>
 0.5862375294D-04    2    2    0
 0.932168433558249D+03 0.000000000000000D+00 0.000000000000000D+00 0.932168433558249D+03
 0.932168433558249D+03 -.000000000000000D+00 -.000000000000000D+00 -.932168433558249D+03
 0.502874164938189D+03 0.435973212862583D+03 0.215190266436072D+03 -.296299284462627D+02
 0.788678735448866D+03 -.454999010999791D+03 -.229531188234576D+03 0.601918168330263D+03
 0.572783966729443D+03 0.190257981372077D+02 0.143409217985041D+02 -.572288239884001D+03
 0.000000000000000D+00 -.000000000000000D+00 0.000000000000000D+00 0.000000000000000D+00
 0.932168433558249D+03 0.000000000000000D+00 0.000000000000000D+00 0.932168433558249D+03
 0.932168433558249D+03 -.000000000000000D+00 -.000000000000000D+00 -.932168433558249D+03
 0.500469298959644D+03 0.433895288637903D+03 0.214142025879891D+03 -.268810425959396D+02
 0.737840959498563D+03 -.406552391979105D+03 -.244496192811901D+03 0.565107110015715D+03
 0.569554091916114D+03 0.166600161191420D+02 0.131474669896301D+02 -.569158546973562D+03
 0.564725167421775D+02 -.440029127779404D+02 0.172066999423804D+02 0.309324795537858D+02
-.613255618387D-03 0.000000000000D+00 0.000000000000D+00 0.149283485576D-04 0.000000000000D+00  6 -2 4 25 -2 4 21 2 0.11840340D+00 0.17369923D+00 0.26803501D+06 0.26803501D+06 0.26803501D+06 0.10881906D+01  1  2  8  3  6  4       -2 -.238284590874D-04 0.100000000000D+01
0.212500043296D-02 0.000000000000D+00 0.000000000000D+00 0.149283485576D-04 0.312055781705D-07  6 -2 4 25 -2 4 21 2 0.11840340D+00 0.17369923D+00 0.27176703D+06 0.27176703D+06 0.27176703D+06 0.10877420D+01  1  2  1  3  6  4       -2 0.824522120282D-04 0.100000000000D+01
  </mgrwgt>
  </event>
  <event>
  5     66 0.15790991E-05 0.36404315E+02 0.75467711E-02 0.93580787E-01
       -4 -1    0    0    0  501 0.00000000E+00 0.00000000E+00 0.38189946E+03 0.38190260E+03 0.15500000E+01 0.0000E+00 0.9000E+01
        2 -1    0    0  502    0 -.00000000E+00 -.00000000E+00 -.23029090E+04 0.23029090E+04 0.32000000E+00 0.0000E+00 0.9000E+01
       25  1    1    2    0    0 -.35722635E+03 -.38891595E+03 -.46204759E+03 0.71272664E+03 0.12500000E+03 0.0000E+00 0.9000E+01
       -4  1    1    2    0  501 0.30172598E+02 0.20444696E+02 0.21965278E+03 0.22266144E+03 0.15500000E+01 0.0000E+00 0.9000E+01
        2  1    1    2  502    0 0.32705376E+03 0.36847125E+03 -.16786148E+04 0.17494236E+04 0.32000000E+00 0.0000E+00 0.9000E+01
#aMCatNLO 1  0  0  5  4 0.80645801D+02 0.00000000D+00  -5  6  0 0.00000000D+00 0.00000000D+00 0.00000000D+00 0.00000000D+00 0.00000000D+00
  <mgrwgt>
 0.7962297221D-04    6    2    0
 0.937808058720582D+03 0.000000000000000D+00 0.000000000000000D+00 0.937808058720582D+03
 0.937808058720582D+03 -.000000000000000D+00 -.000000000000000D+00 -.937808058720582D+03
 0.547423577418322D+03 -.357473605853065D+03 -.389204426024085D+03 0.691383323138698D+02
 0.543056486222128D+03 0.301374034449813D+02 0.204208486665537D+02 0.541834913125074D+03
 0.785136053800715D+03 0.327336202408083D+03 0.368783577357532D+03 -.610973245438943D+03
 0.000000000000000D+00 0.000000000000000D+00 0.000000000000000D+00 0.000000000000000D+00
 0.937808058720582D+03 0.000000000000000D+00 0.000000000000000D+00 0.937808058720582D+03
 0.937808058720582D+03 -.000000000000000D+00 -.000000000000000D+00 -.937808058720582D+03
 0.515873442394416D+03 -.338182876434732D+03 -.367471100616162D+03 0.331321726746450D+02
 0.510283373511236D+03 0.492474863672857D+02 0.419506540832504D+02 0.506165930294107D+03
 0.770135301650900D+03 0.303132133199471D+03 0.366019568380403D+03 -.606010699768152D+03
 0.793239998846118D+02 -.141967431320240D+02 -.404991218474914D+02 0.667125967993996D+02
0.127128137828D-03 0.000000000000D+00 0.000000000000D+00 0.122350725155D-04 0.000000000000D+00  6 -4 2 25 -4 2 21 0 0.58754006D-01 0.35429394D+00 0.28758931D+06 0.28758931D+06 0.28758931D+06 0.10859120D+01  1  2  2  4  6  5        2 0.101523105471D-03 0.100000000000D+01
0.650462262480D-04 0.000000000000D+00 -.488205522867D-06 0.122350725155D-04 0.000000000000D+00  6 -4 2 25 -4 2 21 2 0.58754006D-01 0.35429394D+00 0.28758931D+06 0.28758931D+06 0.28758931D+06 0.10859120D+01  1  2  3  4  6  5        2 0.612540158360D-04 0.100000000000D+01
-.871485366009D-04 0.000000000000D+00 0.000000000000D+00 0.122350725155D-04 0.000000000000D+00  6 -4 2 25 -4 2 21 2 0.58754006D-01 0.35429394D+00 0.28758931D+06 0.28758931D+06 0.28758931D+06 0.10859120D+01  1  2 15  4  6  5        2 -.820677562551D-04 0.100000000000D+01
-.579501648332D-06 0.000000000000D+00 0.000000000000D+00 0.122350725155D-04 0.000000000000D+00  6 -4 2 25 -4 2 21 2 0.58754006D-01 0.35429394D+00 0.28758931D+06 0.28758931D+06 0.28758931D+06 0.10859120D+01  1  2  4  4  6  5        2 -.545716564840D-06 0.100000000000D+01
0.541103539564D-05 0.000000000000D+00 0.000000000000D+00 0.122350725155D-04 0.000000000000D+00  6 -4 2 25 -4 2 21 2 0.58754006D-01 0.35429394D+00 0.28758931D+06 0.28758931D+06 0.28758931D+06 0.10859120D+01  1  2  5  4  6  5        2 0.509557074918D-05 0.100000000000D+01
-.598518471489D-05 0.000000000000D+00 0.000000000000D+00 0.122350725155D-04 0.000000000000D+00  6 -4 2 25 -4 2 21 2 0.58754006D-01 0.35429394D+00 0.28758931D+06 0.28758931D+06 0.28758931D+06 0.10859120D+01  1  2  6  4  6  5        2 -.563624702699D-05 0.100000000000D+01
  </mgrwgt>
  </event>
  <event>
  5     66 -.15790991E-05 0.16756958E+02 0.75467711E-02 0.95124008E-01
       -4 -1    0    0    0  501 0.00000000E+00 0.00000000E+00 0.25768146E+03 0.25768612E+03 0.15500000E+01 0.0000E+00 0.9000E+01
        2 -1    0    0  502    0 -.00000000E+00 -.00000000E+00 -.28729844E+04 0.28729844E+04 0.32000000E+00 0.0000E+00 0.9000E+01
       25  1    1    2    0    0 0.26325223E+03 0.38944219E+03 -.17658443E+04 0.18316108E+04 0.12500000E+03 0.0000E+00 0.9000E+01
       -4  1    1    2    0  501 -.25840066E+03 -.37341570E+03 -.46955228E+01 0.45413064E+03 0.15500000E+01 0.0000E+00 0.9000E+01
        2  1    1    2  502    0 -.48515686E+01 -.16026488E+02 -.84476310E+03 0.84492910E+03 0.32000000E+00 0.0000E+00 0.9000E+01
#aMCatNLO 1  0  0  5  2 0.46281483D+01 0.00000000D+00  -5  6  0 0.00000000D+00 0.00000000D+00 0.00000000D+00 0.00000000D+00 0.00000000D+00
  <mgrwgt>
 -.2817792023D-03    7    2    0
 0.860419741056268D+03 0.000000000000000D+00 0.000000000000000D+00 0.860419741056268D+03
 0.860419741056268D+03 -.000000000000000D+00 -.000000000000000D+00 -.860419741056268D+03
 0.648307183584555D+03 0.263242283267564D+03 0.389433870408283D+03 -.428628003245522D+03
 0.819004599659098D+03 -.258386866579759D+03 -.373395773198285D+03 0.681601318953762D+03
 0.253527698868883D+03 -.485541668780472D+01 -.160380972099975D+02 -.252973315708241D+03
 0.000000000000000D+00 0.000000000000000D+00 0.000000000000000D+00 -.000000000000000D+00
 0.860419741056268D+03 0.000000000000000D+00 0.000000000000000D+00 0.860419741056268D+03
 0.860419741056268D+03 -.000000000000000D+00 -.000000000000000D+00 -.860419741056268D+03
 0.648357114411810D+03 0.263240725778753D+03 0.389428725812350D+03 -.428709150371267D+03
 0.818922878575554D+03 -.258388833976967D+03 -.373402271777027D+03 0.681498815084994D+03
 0.677837424523521D+02 -.412389593113850D+01 -.792984142180074D+01 -.671918658635182D+02
 0.185775746672819D+03 -.727995870648103D+00 -.809661261352241D+01 -.185597798850209D+03
0.962565232083D-05 0.000000000000D+00 0.000000000000D+00 0.126852964290D-04 0.000000000000D+00  6 -4 2 25 -4 2 21 0 0.39643661D-01 0.44199796D+00 0.22907308D+06 0.22907308D+06 0.22907308D+06 0.10933268D+01  1  2  2  4  6  5        2 0.866584376281D-05 0.100000000000D+01
0.528388040171D-05 0.000000000000D+00 -.369650394044D-07 0.126852964290D-04 0.000000000000D+00  6 -4 2 25 -4 2 21 2 0.39643661D-01 0.44199796D+00 0.22907308D+06 0.22907308D+06 0.22907308D+06 0.10933268D+01  1  2  3  4  6  5        2 0.568635102245D-05 0.100000000000D+01
-.652128997468D-05 0.000000000000D+00 0.000000000000D+00 0.126852964290D-04 0.000000000000D+00  6 -4 2 25 -4 2 21 2 0.39643661D-01 0.44199796D+00 0.22907308D+06 0.22907308D+06 0.22907308D+06 0.10933268D+01  1  2 15  4  6  5        2 -.701801348554D-05 0.100000000000D+01
0.126347979581D-03 0.000000000000D+00 0.000000000000D+00 0.126852964290D-04 0.000000000000D+00  6 -4 2 25 -4 2 21 2 0.39643661D-01 0.44199796D+00 0.22922237D+06 0.22922237D+06 0.22922237D+06 0.10933054D+01  1  2 12  4  6  5        2 0.135962073919D-03 0.100000000000D+01
-.123230405707D-02 0.000000000000D+00 0.000000000000D+00 0.126852964290D-04 0.000000000000D+00  6 -4 2 25 -4 2 21 2 0.39643661D-01 0.44199796D+00 0.22907308D+06 0.22907308D+06 0.22907308D+06 0.10933268D+01  1  2  4  4  6  5        2 -.132616806251D-02 0.100000000000D+01
-.526611777827D-03 0.000000000000D+00 0.000000000000D+00 0.126852964290D-04 0.000000000000D+00  6 -4 2 25 -4 2 21 2 0.39643661D-01 0.44199796D+00 0.22907308D+06 0.22907308D+06 0.22907308D+06 0.10933268D+01  1  2  5  4  6  5        2 -.566723542855D-03 0.100000000000D+01
0.136392652268D-02 0.000000000000D+00 -.000000000000D+00 0.126852964290D-04 0.000000000000D+00  6 -4 2 25 -4 2 21 2 0.39643661D-01 0.44199796D+00 0.22907308D+06 0.22907308D+06 0.22907308D+06 0.10933268D+01  1  2  6  4  6  5        2 0.146781614782D-02 0.100000000000D+01
  </mgrwgt>
  </event>
  <event>
  5     66 -.15790991E-05 0.16335082E+03 0.75467711E-02 0.91891319E-01
       -4 -1    0    0    0  501 0.00000000E+00 0.00000000E+00 0.10351013E+04 0.10351024E+04 0.15500000E+01 0.0000E+00 0.9000E+01
        2 -1    0    0  502    0 -.00000000E+00 -.00000000E+00 -.19665773E+04 0.19665773E+04 0.32000000E+00 0.0000E+00 0.9000E+01
       25  1    1    2    0    0 -.44360759E+03 0.18031474E+03 -.38487198E+03 0.62693903E+03 0.12500000E+03 0.0000E+00 0.9000E+01
       -4  1    1    2    0  501 0.28034671E+03 -.18015900E+03 0.87887984E+03 0.93993814E+03 0.15500000E+01 0.0000E+00 0.9000E+01
        2  1    1    2  502    0 0.16326089E+03 -.15574083E+00 -.14254838E+04 0.14348026E+04 0.32000000E+00 0.0000E+00 0.9000E+01
#aMCatNLO 1  0  0  4  2 0.10362036D+03 0.00000000D+00  -5  6  0 0.00000000D+00 0.00000000D+00 0.00000000D+00 0.00000000D+00 0.00000000D+00
  <mgrwgt>
 -.2610457564D-03    4    2    0
 0.142674750032591D+04 0.000000000000000D+00 0.000000000000000D+00 0.142674750032591D+04
 0.142674750032591D+04 -.000000000000000D+00 -.000000000000000D+00 -.142674750032591D+04
 0.533759641958397D+03 -.443664807351948D+03 0.180297933434401D+03 -.199821293410387D+03
 0.127549627501472D+04 0.280314067819006D+03 -.180138020823506D+03 0.123120472075646D+04
 0.104423908367870D+04 0.163350739532941D+03 -.159912610894281D+00 -.103138342734607D+04
 0.000000000000000D+00 0.000000000000000D+00 0.000000000000000D+00 0.000000000000000D+00
 0.142674750032591D+04 0.000000000000000D+00 0.000000000000000D+00 0.142674750032591D+04
 0.142674750032591D+04 -.000000000000000D+00 -.000000000000000D+00 -.142674750032591D+04
 0.520478082822537D+03 -.438609437878595D+03 0.177049205111392D+03 -.177616932390666D+03
 0.409839760284159D+03 -.945676908408110D+02 -.235392562909056D+03 0.321894271906040D+03
 0.100333553662447D+04 0.173169441697146D+03 -.646969787667431D+01 -.988257398922568D+03
 0.919841620920653D+03 0.360007687022260D+03 0.648130556743380D+02 0.843980059407194D+03
0.102666398288D-01 0.000000000000D+00 0.000000000000D+00 0.334828095034D-04 0.000000000000D+00  6 -4 2 25 -4 2 21 0 0.15924644D+00 0.30255044D+00 0.24576868D+06 0.24576868D+06 0.24576868D+06 0.10910173D+01  1  2  2  3  6  4       -4 0.791755775049D-03 0.100000000000D+01
0.151838864848D-02 0.000000000000D+00 -.394266002110D-04 0.334828095034D-04 0.000000000000D+00  6 -4 2 25 -4 2 21 2 0.15924644D+00 0.30255044D+00 0.24576868D+06 0.24576868D+06 0.24576868D+06 0.10910173D+01  1  2  3  3  6  4       -4 0.139382773890D-03 0.100000000000D+01
-.723867035758D-02 0.000000000000D+00 0.000000000000D+00 0.334828095034D-04 0.000000000000D+00  6 -4 2 25 -4 2 21 2 0.15924644D+00 0.30255044D+00 0.24576868D+06 0.24576868D+06 0.24576868D+06 0.10910173D+01  1  2 15  3  6  4       -4 -.664484652677D-03 0.100000000000D+01
-.574858097669D-02 0.000000000000D+00 0.000000000000D+00 0.334828095034D-04 0.000000000000D+00  6 -4 2 25 -4 2 21 2 0.15924644D+00 0.30255044D+00 0.24576868D+06 0.24576868D+06 0.24576868D+06 0.10910173D+01  1  2  5  3  6  4       -4 -.527699652696D-03 0.100000000000D+01
  </mgrwgt>
  </event>
  <event>
  6     66 0.15790991E-05 0.12358889E+03 0.75467711E-02 0.93719389E-01
       -4 -1    0    0    0  501 0.00000000E+00 0.00000000E+00 0.54182144E+03 0.54182365E+03 0.15500000E+01 0.0000E+00 0.9000E+01
        2 -1    0    0  503    0 0.00000000E+00 0.00000000E+00 -.17644890E+04 0.17644890E+04 0.32000000E+00 0.0000E+00 0.9000E+01
       25  1    1    2    0    0 0.12234305E+03 -.43407313E+03 -.38048631E+02 0.46953168E+03 0.12500000E+03 0.0000E+00 0.9000E+01
       -4  1    1    2    0  501 -.14879183E+03 0.96316958E+02 0.26662248E+03 0.32016545E+03 0.15500000E+01 0.0000E+00 0.9000E+01
        2  1    1    2  502    0 -.79226057E+02 0.32217246E+03 -.10343221E+04 0.10862294E+04 0.32000000E+00 0.0000E+00 0.9000E+01
       21  1    1    2  503  502 0.10567484E+03 0.15583710E+02 -.41691925E+03 0.43038616E+03 0.75000000E+00 0.0000E+00 0.9000E+01
#aMCatNLO 2  0  0  2  5 0.10681771D+03 0.00000000D+00  -5  6  0 0.00000000D+00 0.00000000D+00 0.00000000D+00 0.00000000D+00 0.00000000D+00
  <mgrwgt>
 0.9824812982D-04    1    2    0
 0.845349020758459D+03 0.000000000000000D+00 0.000000000000000D+00 0.845349020758459D+03
 0.845349020758459D+03 0.000000000000000D+00 0.000000000000000D+00 -.845349020758459D+03
 0.506880625693921D+03 0.153718258829371D+03 -.429615548751314D+03 0.181945447531491D+03
 0.473231297550947D+03 -.118802210989152D+03 0.100574264815471D+03 0.446898996309758D+03
 0.710586118272049D+03 -.349160478402185D+02 0.329041283935843D+03 -.628844443841249D+03
 0.000000000000000D+00 0.000000000000000D+00 0.000000000000000D+00 -.000000000000000D+00
 0.857692931003513D+03 0.000000000000000D+00 0.000000000000000D+00 0.857692931003513D+03
 0.111466398529743D+04 0.000000000000000D+00 0.000000000000000D+00 -.111466398529743D+04
 0.502243217415882D+03 0.122212694632081D+03 -.434261627171442D+03 0.181945447531491D+03
 0.480673396967770D+03 -.148583794088646D+03 0.961824193087747D+02 0.446898996309758D+03
 0.711152419190984D+03 -.793037362985203D+02 0.322495497922489D+03 -.628844443841249D+03
 0.278287882726309D+03 0.105674835755085D+03 0.155837099401784D+02 -.256971054293919D+03
0.125722343008D-03 0.000000000000D+00 0.000000000000D+00 0.168899142399D-05 0.300286476798D-09  6 -4 2 25 -4 2 21 2 0.83357268D-01 0.27145985D+00 0.29378936D+06 0.29378936D+06 0.29378936D+06 0.10852247D+01  1  2  1  2  6  2        2 0.982481298214D-04 0.100000000000D+01
  </mgrwgt>
  </event>
</LesHouchesEvents>
