<event>
 5    0  0.1911311E+001  0.4690986E+03  0.7546771E-02  0.1022175E+00
         21   -1    0    0  504  501  0.00000000000E+00  0.00000000000E+00  0.21708366583E+03  0.21708366583E+03  0.00000000000E+00 0. -1.
         21   -1    0    0  501  502 -0.00000000000E+00 -0.00000000000E+00 -0.20244787959E+04  0.20244787959E+04  0.00000000000E+00 0. -1.
         25    1    1    2    0    0 -0.37932083395E+03 -0.19538299339E+02 -0.15253622597E+04  0.15769023633E+04  0.12500000000E+03 0.  0.
         21    1    1    2  503  502  0.46637084771E+03 -0.41338729640E+01 -0.12383657704E+03  0.48254984645E+03  0.00000000000E+00 0. -1.
         21    1    1    2  504  503 -0.87050013757E+02  0.23672172303E+02 -0.15819629335E+03  0.18211025195E+03  0.00000000000E+00 0.  1.
<mgrwt>
<rscale>  4 0.46909863E+03</rscale>
<asrwt>0</asrwt>
<pdfrwt beam="1">  1       21 0.33397488E-01 0.46909863E+03</pdfrwt>
<pdfrwt beam="2">  1       21 0.31145827E+00 0.46909863E+03</pdfrwt>
<totfact> 0.19526805E+02</totfact>
</mgrwt>
</event>
<event>
 5    0  0.1911311E+001  0.2656431E+03  0.7546771E-02  0.1103799E+00
         21   -1    0    0  502  501  0.00000000000E+00  0.00000000000E+00  0.52196343667E+03  0.52196343667E+03  0.00000000000E+00 0. -1.
         21   -1    0    0  504  502 -0.00000000000E+00 -0.00000000000E+00 -0.29287681229E+03  0.29287681229E+03  0.00000000000E+00 0. -1.
         25    1    1    2    0    0  0.19250307477E+03 -0.21263837177E+03  0.34848801076E+03  0.46833898469E+03  0.12500000000E+03 0.  0.
         21    1    1    2  503  501 -0.56254811980E+02  0.31311120627E+02  0.33880621279E+02  0.72752227760E+02  0.00000000000E+00 0.  1.
         21    1    1    2  504  503 -0.13624826279E+03  0.18132725114E+03 -0.15328200765E+03  0.27374903650E+03  0.00000000000E+00 0. -1.
<mgrwt>
<rscale>  4 0.26564314E+03</rscale>
<asrwt>0</asrwt>
<pdfrwt beam="1">  1       21 0.80302067E-01 0.26564314E+03</pdfrwt>
<pdfrwt beam="2">  1       21 0.45057971E-01 0.26564314E+03</pdfrwt>
<totfact> 0.61423412E+03</totfact>
</mgrwt>
</event>
<event>
 5    0  0.1911311E+001  0.2613723E+03  0.7546771E-02  0.1106322E+00
         21   -1    0    0  502  501  0.00000000000E+00  0.00000000000E+00  0.29756128327E+03  0.29756128327E+03  0.00000000000E+00 0. -1.
         21   -1    0    0  504  502 -0.00000000000E+00 -0.00000000000E+00 -0.87429574792E+03  0.87429574792E+03  0.00000000000E+00 0. -1.
         25    1    1    2    0    0 -0.15074819773E+02  0.23100782084E+03 -0.73934205870E+03  0.78475699630E+03  0.12500000000E+03 0.  0.
         21    1    1    2  503  501 -0.28273894974E+02 -0.22791997422E+03  0.21802607651E+03  0.31667380350E+03  0.00000000000E+00 0. -1.
         21    1    1    2  504  503  0.43348714748E+02 -0.30878466226E+01 -0.55418482467E+02  0.70426231377E+02  0.00000000000E+00 0.  1.
<mgrwt>
<rscale>  4 0.26137226E+03</rscale>
<asrwt>0</asrwt>
<pdfrwt beam="1">  1       21 0.45778659E-01 0.26137226E+03</pdfrwt>
<pdfrwt beam="2">  1       21 0.13450704E+00 0.26137226E+03</pdfrwt>
<totfact> 0.17125409E+03</totfact>
</mgrwt>
</event>
<event>
 5    0  0.1911311E+001  0.2769740E+03  0.7546771E-02  0.1097353E+00
         21   -1    0    0  504  501  0.00000000000E+00  0.00000000000E+00  0.90076626352E+03  0.90076626352E+03  0.00000000000E+00 0. -1.
         21   -1    0    0  503  502 -0.00000000000E+00 -0.00000000000E+00 -0.19972743723E+03  0.19972743723E+03  0.00000000000E+00 0. -1.
         25    1    1    2    0    0  0.57528114977E+02  0.25968865274E+03  0.60236161571E+03  0.67023294194E+03  0.12500000000E+03 0.  0.
         21    1    1    2  503  501 -0.32764147704E+02 -0.24238406900E+03 -0.73546974255E+02  0.25540689830E+03  0.00000000000E+00 0. -1.
         21    1    1    2  504  502 -0.24763967273E+02 -0.17304583745E+02  0.17222418484E+03  0.17485386051E+03  0.00000000000E+00 0. -1.
<mgrwt>
<rscale>  4 0.27697399E+03</rscale>
<asrwt>0</asrwt>
<pdfrwt beam="1">  1       21 0.13857942E+00 0.27697399E+03</pdfrwt>
<pdfrwt beam="2">  1       21 0.30727299E-01 0.27697399E+03</pdfrwt>
<totfact> 0.35102074E+03</totfact>
</mgrwt>
</event>
