<event>
 4    0  0.1564305E-001  0.2590275E+03  0.7546771E-02  0.1107729E+00
          2   -1    0    0  502    0 -0.00000000000E+00  0.00000000000E+00  0.13435164011E+04  0.13435164011E+04  0.00000000000E+00 0.  1.
         21   -1    0    0  501  502  0.00000000000E+00 -0.00000000000E+00 -0.49173826818E+02  0.49173826818E+02  0.00000000000E+00 0.  1.
         25    1    1    2    0    0  0.21922337650E+03  0.58406609130E+02  0.45854309254E+03  0.52664692965E+03  0.12500000000E+03 0.  0.
          2    1    1    2  501    0 -0.21922337650E+03 -0.58406609130E+02  0.83579948174E+03  0.86604329826E+03  0.00000000000E+00 0.  1.
<mgrwt>
<rscale>  3 0.25902745E+03</rscale>
<asrwt>0</asrwt>
<pdfrwt beam="1">  1       21 0.75652051E-02 0.25902745E+03</pdfrwt>
<pdfrwt beam="2">  1        2 0.20669480E+00 0.25902745E+03</pdfrwt>
<totfact> 0.27747798E+04</totfact>
</mgrwt>
</event>
<event>
 4    0  0.1390446E-001  0.2470179E+03  0.7546771E-02  0.1115204E+00
         21   -1    0    0  501  502  0.00000000000E+00  0.00000000000E+00  0.64712751029E+03  0.64712751029E+03  0.00000000000E+00 0.  1.
          1   -1    0    0  502    0 -0.00000000000E+00 -0.00000000000E+00 -0.10974972768E+04  0.10974972768E+04  0.00000000000E+00 0.  1.
         25    1    1    2    0    0 -0.79090354664E+02  0.19783214027E+03  0.61259258556E+03  0.66052063996E+03  0.12500000000E+03 0.  0.
          1    1    1    2  501    0  0.79090354664E+02 -0.19783214027E+03 -0.10629623521E+04  0.10841041472E+04  0.00000000000E+00 0.  1.
<mgrwt>
<rscale>  3 0.24701789E+03</rscale>
<asrwt>0</asrwt>
<pdfrwt beam="1">  1       21 0.99558079E-01 0.24701789E+03</pdfrwt>
<pdfrwt beam="2">  1        1 0.16884573E+00 0.24701789E+03</pdfrwt>
<totfact> 0.12138813E+02</totfact>
</mgrwt>
</event>
<event>
 4    0  0.1002184E-001  0.4445952E+03  0.7546771E-02  0.1029346E+00
          2   -1    0    0  502    0 -0.00000000000E+00  0.00000000000E+00  0.14703934611E+04  0.14703934611E+04  0.00000000000E+00 0.  1.
         21   -1    0    0  501  502  0.00000000000E+00 -0.00000000000E+00 -0.15996778587E+03  0.15996778587E+03  0.00000000000E+00 0. -1.
         25    1    1    2    0    0 -0.42505661762E+03  0.36969499702E+02  0.30784664995E+03  0.54077207026E+03  0.12500000000E+03 0.  0.
          2    1    1    2  501    0  0.42505661762E+03 -0.36969499702E+02  0.10025790253E+04  0.10895891767E+04  0.00000000000E+00 0.  1.
<mgrwt>
<rscale>  3 0.44459518E+03</rscale>
<asrwt>0</asrwt>
<pdfrwt beam="1">  1       21 0.24610430E-01 0.44459518E+03</pdfrwt>
<pdfrwt beam="2">  1        2 0.22621437E+00 0.44459518E+03</pdfrwt>
<totfact> 0.26050980E+03</totfact>
</mgrwt>
</event>
<event>
 4    0  0.1019480E-001  0.2378910E+03  0.7546771E-02  0.1121206E+00
         21   -1    0    0  501  502  0.00000000000E+00  0.00000000000E+00  0.23270366722E+03  0.23270366722E+03  0.00000000000E+00 0. -1.
          4   -1    0    0  502    0 -0.00000000000E+00 -0.00000000000E+00 -0.42415708567E+03  0.42415708567E+03  0.00000000000E+00 0.  1.
         25    1    1    2    0    0  0.19908473077E+03 -0.36501914018E+02  0.13442312134E+03  0.27324292361E+03  0.12500000000E+03 0.  0.
          4    1    1    2  501    0 -0.19908473077E+03  0.36501914018E+02 -0.32587653979E+03  0.38361782927E+03  0.00000000000E+00 0.  1.
<mgrwt>
<rscale>  3 0.23789098E+03</rscale>
<asrwt>0</asrwt>
<pdfrwt beam="1">  1       21 0.35800565E-01 0.23789098E+03</pdfrwt>
<pdfrwt beam="2">  1        4 0.65254935E-01 0.23789098E+03</pdfrwt>
<totfact> 0.70095386E+02</totfact>
</mgrwt>
</event>
<event>
 4    0  0.1564639E-001  0.2792240E+03  0.7546771E-02  0.1096114E+00
          1   -1    0    0  502    0 -0.00000000000E+00  0.00000000000E+00  0.17882766617E+04  0.17882766617E+04  0.00000000000E+00 0. -1.
         21   -1    0    0  501  502  0.00000000000E+00 -0.00000000000E+00 -0.40680107956E+02  0.40680107956E+02  0.00000000000E+00 0. -1.
         25    1    1    2    0    0  0.17865832487E+03  0.17441976171E+03  0.11002385297E+04  0.11351171184E+04  0.12500000000E+03 0.  0.
          1    1    1    2  501    0 -0.17865832487E+03 -0.17441976171E+03  0.64735802411E+03  0.69383965129E+03  0.00000000000E+00 0. -1.
<mgrwt>
<rscale>  3 0.27922401E+03</rscale>
<asrwt>0</asrwt>
<pdfrwt beam="1">  1       21 0.62584795E-02 0.27922401E+03</pdfrwt>
<pdfrwt beam="2">  1        1 0.27511943E+00 0.27922401E+03</pdfrwt>
<totfact> 0.94242628E+03</totfact>
</mgrwt>
</event>
<event>
 4    0  0.1449008E-001  0.3196966E+03  0.7546771E-02  0.1075789E+00
          2   -1    0    0  502    0 -0.00000000000E+00  0.00000000000E+00  0.23334809499E+04  0.23334809499E+04  0.00000000000E+00 0.  1.
         21   -1    0    0  501  502  0.00000000000E+00 -0.00000000000E+00 -0.43927430736E+03  0.43927430736E+03  0.00000000000E+00 0. -1.
         25    1    1    2    0    0  0.73536065897E+02 -0.28490940862E+03 -0.37030003280E+03  0.48921164990E+03  0.12500000000E+03 0.  0.
          2    1    1    2  501    0 -0.73536065897E+02  0.28490940862E+03  0.22645066754E+04  0.22835436074E+04  0.00000000000E+00 0.  1.
<mgrwt>
<rscale>  3 0.31969661E+03</rscale>
<asrwt>0</asrwt>
<pdfrwt beam="1">  1       21 0.67580664E-01 0.31969661E+03</pdfrwt>
<pdfrwt beam="2">  1        2 0.35899706E+00 0.31969661E+03</pdfrwt>
<totfact> 0.11686471E+02</totfact>
</mgrwt>
</event>
<event>
 4    0  0.1092741E-001  0.2472832E+03  0.7546771E-02  0.1115034E+00
         21   -1    0    0  501  502  0.00000000000E+00  0.00000000000E+00  0.50686319088E+02  0.50686319088E+02  0.00000000000E+00 0. -1.
          2   -1    0    0  502    0 -0.00000000000E+00 -0.00000000000E+00 -0.18814397108E+04  0.18814397108E+04  0.00000000000E+00 0.  1.
         25    1    1    2    0    0  0.16992791509E+03  0.12902891837E+03 -0.31032763838E+03  0.39680247132E+03  0.12500000000E+03 0.  0.
          2    1    1    2  501    0 -0.16992791509E+03 -0.12902891837E+03 -0.15204257533E+04  0.15353235585E+04  0.00000000000E+00 0.  1.
<mgrwt>
<rscale>  3 0.24728315E+03</rscale>
<asrwt>0</asrwt>
<pdfrwt beam="1">  1       21 0.77978951E-02 0.24728315E+03</pdfrwt>
<pdfrwt beam="2">  1        2 0.28945227E+00 0.24728315E+03</pdfrwt>
<totfact> 0.13667745E+04</totfact>
</mgrwt>
</event>
<event>
 4    0  0.1829373E-001  0.2397589E+03  0.7546771E-02  0.1119954E+00
         -4   -1    0    0    0  501 -0.00000000000E+00  0.00000000000E+00  0.83578247452E+03  0.83578247452E+03  0.00000000000E+00 0.  1.
         21   -1    0    0  501  502  0.00000000000E+00 -0.00000000000E+00 -0.71741212249E+02  0.71741212249E+02  0.00000000000E+00 0.  1.
         25    1    1    2    0    0 -0.52651140510E+02 -0.19770485789E+03  0.21663740833E+03  0.32313483272E+03  0.12500000000E+03 0.  0.
         -4    1    1    2    0  502  0.52651140510E+02  0.19770485789E+03  0.54740385394E+03  0.58438885405E+03  0.00000000000E+00 0.  1.
<mgrwt>
<rscale>  3 0.23975895E+03</rscale>
<asrwt>0</asrwt>
<pdfrwt beam="1">  1       21 0.11037110E-01 0.23975895E+03</pdfrwt>
<pdfrwt beam="2">  1       -4 0.12858191E+00 0.23975895E+03</pdfrwt>
<totfact> 0.13443266E+03</totfact>
</mgrwt>
</event>
<event>
 4    0  0.1292656E-001  0.2648607E+03  0.7546771E-02  0.1104258E+00
         21   -1    0    0  501  502  0.00000000000E+00  0.00000000000E+00  0.48155503843E+03  0.48155503843E+03  0.00000000000E+00 0. -1.
          2   -1    0    0  502    0 -0.00000000000E+00 -0.00000000000E+00 -0.14584942811E+03  0.14584942811E+03  0.00000000000E+00 0. -1.
         25    1    1    2    0    0  0.27265331914E+02 -0.23191115233E+03  0.70569040487E+02  0.27410065738E+03  0.12500000000E+03 0.  0.
          2    1    1    2  501    0 -0.27265331914E+02  0.23191115233E+03  0.26513656984E+03  0.35330380916E+03  0.00000000000E+00 0. -1.
<mgrwt>
<rscale>  3 0.26486068E+03</rscale>
<asrwt>0</asrwt>
<pdfrwt beam="1">  1       21 0.74085390E-01 0.26486068E+03</pdfrwt>
<pdfrwt beam="2">  1        2 0.22438374E-01 0.26486068E+03</pdfrwt>
<totfact> 0.47764512E+03</totfact>
</mgrwt>
</event>
<event>
 4    0  0.1220354E-001  0.3201530E+03  0.7546771E-02  0.1075579E+00
         21   -1    0    0  501  502  0.00000000000E+00  0.00000000000E+00  0.36188770218E+03  0.36188770218E+03  0.00000000000E+00 0. -1.
          2   -1    0    0  502    0 -0.00000000000E+00 -0.00000000000E+00 -0.25225353900E+04  0.25225353900E+04  0.00000000000E+00 0. -1.
         25    1    1    2    0    0 -0.10521655656E+03 -0.27532236234E+03  0.28043705130E+03  0.42560881889E+03  0.12500000000E+03 0.  0.
          2    1    1    2  501    0  0.10521655656E+03  0.27532236234E+03 -0.24410847391E+04  0.24588142733E+04  0.00000000000E+00 0. -1.
<mgrwt>
<rscale>  3 0.32015297E+03</rscale>
<asrwt>0</asrwt>
<pdfrwt beam="1">  1       21 0.55675033E-01 0.32015297E+03</pdfrwt>
<pdfrwt beam="2">  1        2 0.38808235E+00 0.32015297E+03</pdfrwt>
<totfact> 0.14056316E+02</totfact>
</mgrwt>
</event>
<event>
 4    0  0.1002184E-001  0.2887635E+03  0.7546771E-02  0.1090997E+00
          3   -1    0    0  502    0 -0.00000000000E+00  0.00000000000E+00  0.12385391930E+03  0.12385391930E+03  0.00000000000E+00 0.  1.
         21   -1    0    0  501  502  0.00000000000E+00 -0.00000000000E+00 -0.13620583002E+04  0.13620583002E+04  0.00000000000E+00 0. -1.
         25    1    1    2    0    0  0.16975251999E+03 -0.19734093438E+03 -0.11857097674E+04  0.12203655252E+04  0.12500000000E+03 0.  0.
          3    1    1    2  501    0 -0.16975251999E+03  0.19734093438E+03 -0.52494613457E+02  0.26554669432E+03  0.00000000000E+00 0.  1.
<mgrwt>
<rscale>  3 0.28876351E+03</rscale>
<asrwt>0</asrwt>
<pdfrwt beam="1">  1       21 0.20954741E+00 0.28876351E+03</pdfrwt>
<pdfrwt beam="2">  1        3 0.19054451E-01 0.28876351E+03</pdfrwt>
<totfact> 0.13449078E+02</totfact>
</mgrwt>
</event>
<event>
 4    0  0.1002184E-001  0.2674189E+03  0.7546771E-02  0.1102766E+00
          1   -1    0    0  502    0 -0.00000000000E+00  0.00000000000E+00  0.11158272168E+03  0.11158272168E+03  0.00000000000E+00 0. -1.
         21   -1    0    0  501  502  0.00000000000E+00 -0.00000000000E+00 -0.85524596241E+03  0.85524596241E+03  0.00000000000E+00 0.  1.
         25    1    1    2    0    0 -0.11504254200E+03  0.20652626157E+03 -0.66650170638E+03  0.71814859729E+03  0.12500000000E+03 0.  0.
          1    1    1    2  501    0  0.11504254200E+03 -0.20652626157E+03 -0.77161534356E+02  0.24868008680E+03  0.00000000000E+00 0. -1.
<mgrwt>
<rscale>  3 0.26741893E+03</rscale>
<asrwt>0</asrwt>
<pdfrwt beam="1">  1       21 0.13157630E+00 0.26741893E+03</pdfrwt>
<pdfrwt beam="2">  1        1 0.17166573E-01 0.26741893E+03</pdfrwt>
<totfact> 0.13593517E+03</totfact>
</mgrwt>
</event>
<event>
 4    0  0.1662985E-001  0.3038567E+03  0.7546771E-02  0.1083328E+00
         21   -1    0    0  501  502  0.00000000000E+00  0.00000000000E+00  0.11640588381E+03  0.11640588381E+03  0.00000000000E+00 0. -1.
          3   -1    0    0  502    0 -0.00000000000E+00 -0.00000000000E+00 -0.11476719103E+04  0.11476719103E+04  0.00000000000E+00 0. -1.
         25    1    1    2    0    0  0.19867564628E+03  0.19295569249E+03 -0.14717775876E+03  0.33762435393E+03  0.12500000000E+03 0.  0.
          3    1    1    2  501    0 -0.19867564628E+03 -0.19295569249E+03 -0.88408826771E+03  0.92645344017E+03  0.00000000000E+00 0. -1.
<mgrwt>
<rscale>  3 0.30385673E+03</rscale>
<asrwt>0</asrwt>
<pdfrwt beam="1">  1       21 0.17908598E-01 0.30385673E+03</pdfrwt>
<pdfrwt beam="2">  1        3 0.17656490E+00 0.30385673E+03</pdfrwt>
<totfact> 0.30990037E+02</totfact>
</mgrwt>
</event>
<event>
 4    0  0.1002184E-001  0.3680321E+03  0.7546771E-02  0.1055448E+00
          1   -1    0    0  502    0 -0.00000000000E+00  0.00000000000E+00  0.23196460852E+04  0.23196460852E+04  0.00000000000E+00 0. -1.
         21   -1    0    0  501  502  0.00000000000E+00 -0.00000000000E+00 -0.71373809598E+02  0.71373809598E+02  0.00000000000E+00 0.  1.
         25    1    1    2    0    0 -0.98918509596E+02 -0.33171937824E+03  0.57776606203E+03  0.68502645195E+03  0.12500000000E+03 0.  0.
          1    1    1    2  501    0  0.98918509596E+02  0.33171937824E+03  0.16705062135E+04  0.17059934428E+04  0.00000000000E+00 0. -1.
<mgrwt>
<rscale>  3 0.36803209E+03</rscale>
<asrwt>0</asrwt>
<pdfrwt beam="1">  1       21 0.10980588E-01 0.36803209E+03</pdfrwt>
<pdfrwt beam="2">  1        1 0.35686857E+00 0.36803209E+03</pdfrwt>
<totfact> 0.15257721E+03</totfact>
</mgrwt>
</event>
<event>
 4    0  0.1693393E-001  0.2569068E+03  0.7546771E-02  0.1109016E+00
          2   -1    0    0  502    0 -0.00000000000E+00  0.00000000000E+00  0.67397499305E+03  0.67397499305E+03  0.00000000000E+00 0.  1.
         21   -1    0    0  501  502  0.00000000000E+00 -0.00000000000E+00 -0.87694640226E+02  0.87694640226E+02  0.00000000000E+00 0.  1.
         25    1    1    2    0    0  0.92877040389E+02  0.20432803286E+03  0.25885010425E+03  0.36469777366E+03  0.12500000000E+03 0.  0.
          2    1    1    2  501    0 -0.92877040389E+02 -0.20432803286E+03  0.32743024858E+03  0.39697185962E+03  0.00000000000E+00 0.  1.
<mgrwt>
<rscale>  3 0.25690677E+03</rscale>
<asrwt>0</asrwt>
<pdfrwt beam="1">  1       21 0.13491484E-01 0.25690677E+03</pdfrwt>
<pdfrwt beam="2">  1        2 0.10368846E+00 0.25690677E+03</pdfrwt>
<totfact> 0.26070318E+04</totfact>
</mgrwt>
</event>
<event>
 4    0  0.1467001E-001  0.3379270E+03  0.7546771E-02  0.1067682E+00
          1   -1    0    0  502    0 -0.00000000000E+00  0.00000000000E+00  0.66863911829E+03  0.66863911829E+03  0.00000000000E+00 0.  1.
         21   -1    0    0  501  502  0.00000000000E+00 -0.00000000000E+00 -0.90607782389E+03  0.90607782389E+03  0.00000000000E+00 0. -1.
         25    1    1    2    0    0 -0.15341337398E+03 -0.27392333212E+03 -0.83439886437E+03  0.90023114813E+03  0.12500000000E+03 0.  0.
          1    1    1    2  501    0  0.15341337398E+03  0.27392333212E+03  0.59696015878E+03  0.67448579404E+03  0.00000000000E+00 0.  1.
<mgrwt>
<rscale>  3 0.33792700E+03</rscale>
<asrwt>0</asrwt>
<pdfrwt beam="1">  1       21 0.13939659E+00 0.33792700E+03</pdfrwt>
<pdfrwt beam="2">  1        1 0.10286756E+00 0.33792700E+03</pdfrwt>
<totfact> 0.11041237E+02</totfact>
</mgrwt>
</event>
<event>
 4    0  0.1241521E-001  0.2765031E+03  0.7546771E-02  0.1097614E+00
         21   -1    0    0  501  502  0.00000000000E+00  0.00000000000E+00  0.18243924701E+03  0.18243924701E+03  0.00000000000E+00 0. -1.
          3   -1    0    0  502    0 -0.00000000000E+00 -0.00000000000E+00 -0.70984343985E+03  0.70984343985E+03  0.00000000000E+00 0.  1.
         25    1    1    2    0    0  0.76505484560E+01  0.24651664732E+03  0.34486872382E+02  0.27864553229E+03  0.12500000000E+03 0.  0.
          3    1    1    2  501    0 -0.76505484560E+01 -0.24651664732E+03 -0.56189106522E+03  0.61363715458E+03  0.00000000000E+00 0.  1.
<mgrwt>
<rscale>  3 0.27650314E+03</rscale>
<asrwt>0</asrwt>
<pdfrwt beam="1">  1       21 0.28067576E-01 0.27650314E+03</pdfrwt>
<pdfrwt beam="2">  1        3 0.10920668E+00 0.27650314E+03</pdfrwt>
<totfact> 0.43739479E+02</totfact>
</mgrwt>
</event>
<event>
 4    0  0.1569265E-001  0.2492338E+03  0.7546771E-02  0.1113790E+00
         21   -1    0    0  501  502  0.00000000000E+00  0.00000000000E+00  0.43880772904E+02  0.43880772904E+02  0.00000000000E+00 0. -1.
          2   -1    0    0  502    0 -0.00000000000E+00 -0.00000000000E+00 -0.14261882268E+04  0.14261882268E+04  0.00000000000E+00 0. -1.
         25    1    1    2    0    0  0.57839760116E+02  0.20771864858E+03 -0.46306910568E+03  0.52588066275E+03  0.12500000000E+03 0.  0.
          2    1    1    2  501    0 -0.57839760116E+02 -0.20771864858E+03 -0.91923834825E+03  0.94418833699E+03  0.00000000000E+00 0. -1.
<mgrwt>
<rscale>  3 0.24923378E+03</rscale>
<asrwt>0</asrwt>
<pdfrwt beam="1">  1       21 0.67508890E-02 0.24923378E+03</pdfrwt>
<pdfrwt beam="2">  1        2 0.21941355E+00 0.24923378E+03</pdfrwt>
<totfact> 0.30555636E+04</totfact>
</mgrwt>
</event>
<event>
 4    0  0.1384183E-001  0.2635138E+03  0.7546771E-02  0.1105050E+00
         21   -1    0    0  501  502  0.00000000000E+00  0.00000000000E+00  0.82662098320E+03  0.82662098320E+03  0.00000000000E+00 0.  1.
          2   -1    0    0  502    0 -0.00000000000E+00 -0.00000000000E+00 -0.52915366115E+03  0.52915366115E+03  0.00000000000E+00 0.  1.
         25    1    1    2    0    0 -0.13451772305E+03  0.18899603942E+03  0.77841221766E+03  0.82180599982E+03  0.12500000000E+03 0.  0.
          2    1    1    2  501    0  0.13451772305E+03 -0.18899603942E+03 -0.48094489561E+03  0.53396864453E+03  0.00000000000E+00 0.  1.
<mgrwt>
<rscale>  3 0.26351380E+03</rscale>
<asrwt>0</asrwt>
<pdfrwt beam="1">  1       21 0.12717246E+00 0.26351380E+03</pdfrwt>
<pdfrwt beam="2">  1        2 0.81408256E-01 0.26351380E+03</pdfrwt>
<totfact> 0.31977942E+02</totfact>
</mgrwt>
</event>
<event>
 4    0  0.1002184E-001  0.2575136E+03  0.7546771E-02  0.1108646E+00
         21   -1    0    0  501  502  0.00000000000E+00  0.00000000000E+00  0.16893695172E+04  0.16893695172E+04  0.00000000000E+00 0.  1.
          1   -1    0    0  502    0 -0.00000000000E+00 -0.00000000000E+00 -0.12436386513E+03  0.12436386513E+03  0.00000000000E+00 0.  1.
         25    1    1    2    0    0 -0.22134762155E+03  0.41151996055E+02  0.15675674474E+04  0.15885782822E+04  0.12500000000E+03 0.  0.
          1    1    1    2  501    0  0.22134762155E+03 -0.41151996055E+02 -0.25617953299E+01  0.22515510019E+03  0.00000000000E+00 0.  1.
<mgrwt>
<rscale>  3 0.25751360E+03</rscale>
<asrwt>0</asrwt>
<pdfrwt beam="1">  1       21 0.25990299E+00 0.25751360E+03</pdfrwt>
<pdfrwt beam="2">  1        1 0.19132904E-01 0.25751360E+03</pdfrwt>
<totfact> 0.16011759E+02</totfact>
</mgrwt>
</event>
<event>
 4    0  0.1103197E-001  0.5170375E+03  0.7546771E-02  0.1009425E+00
          2   -1    0    0  502    0 -0.00000000000E+00  0.00000000000E+00  0.20933648562E+04  0.20933648562E+04  0.00000000000E+00 0.  1.
         21   -1    0    0  501  502  0.00000000000E+00 -0.00000000000E+00 -0.29321482168E+03  0.29321482168E+03  0.00000000000E+00 0.  1.
         25    1    1    2    0    0  0.32973366972E+03 -0.37812494744E+03 -0.81714981834E+00  0.51703813840E+03  0.12500000000E+03 0.  0.
          2    1    1    2  501    0 -0.32973366972E+03  0.37812494744E+03  0.18009671844E+04  0.18695415395E+04  0.00000000000E+00 0.  1.
<mgrwt>
<rscale>  3 0.51703749E+03</rscale>
<asrwt>0</asrwt>
<pdfrwt beam="1">  1       21 0.45109974E-01 0.51703749E+03</pdfrwt>
<pdfrwt beam="2">  1        2 0.32205612E+00 0.51703749E+03</pdfrwt>
<totfact> 0.34703339E+02</totfact>
</mgrwt>
</event>
<event>
 4    0  0.1373117E-001  0.2476929E+03  0.7546771E-02  0.1114772E+00
          2   -1    0    0  502    0 -0.00000000000E+00  0.00000000000E+00  0.21100075948E+04  0.21100075948E+04  0.00000000000E+00 0.  1.
         21   -1    0    0  501  502  0.00000000000E+00 -0.00000000000E+00 -0.75729071906E+02  0.75729071906E+02  0.00000000000E+00 0.  1.
         25    1    1    2    0    0 -0.20147207949E+03  0.71664481468E+02  0.15043900397E+03  0.28979939723E+03  0.12500000000E+03 0.  0.
          2    1    1    2  501    0  0.20147207949E+03 -0.71664481468E+02  0.18838395189E+04  0.18959372694E+04  0.00000000000E+00 0.  1.
<mgrwt>
<rscale>  3 0.24769295E+03</rscale>
<asrwt>0</asrwt>
<pdfrwt beam="1">  1       21 0.11650628E-01 0.24769295E+03</pdfrwt>
<pdfrwt beam="2">  1        2 0.32461651E+00 0.24769295E+03</pdfrwt>
<totfact> 0.50914135E+03</totfact>
</mgrwt>
</event>
<event>
 4    0  0.1468343E-001  0.2646270E+03  0.7546771E-02  0.1104395E+00
         21   -1    0    0  501  502  0.00000000000E+00  0.00000000000E+00  0.10626776073E+03  0.10626776073E+03  0.00000000000E+00 0.  1.
          2   -1    0    0  502    0 -0.00000000000E+00 -0.00000000000E+00 -0.18349396106E+04  0.18349396106E+04  0.00000000000E+00 0. -1.
         25    1    1    2    0    0 -0.12459725284E+03 -0.19717494344E+03 -0.80481063533E+02  0.27659471311E+03  0.12500000000E+03 0.  0.
          2    1    1    2  501    0  0.12459725284E+03  0.19717494344E+03 -0.16481907864E+04  0.16646126583E+04  0.00000000000E+00 0. -1.
<mgrwt>
<rscale>  3 0.26462697E+03</rscale>
<asrwt>0</asrwt>
<pdfrwt beam="1">  1       21 0.16348887E-01 0.26462697E+03</pdfrwt>
<pdfrwt beam="2">  1        2 0.28229840E+00 0.26462697E+03</pdfrwt>
<totfact> 0.38058419E+03</totfact>
</mgrwt>
</event>
<event>
 4    0  0.1558135E-001  0.2783866E+03  0.7546771E-02  0.1096573E+00
          2   -1    0    0  502    0 -0.00000000000E+00  0.00000000000E+00  0.18486945514E+04  0.18486945514E+04  0.00000000000E+00 0.  1.
         21   -1    0    0  501  502  0.00000000000E+00 -0.00000000000E+00 -0.45112345480E+02  0.45112345480E+02  0.00000000000E+00 0.  1.
         25    1    1    2    0    0 -0.22172000228E+03  0.11275790676E+03  0.55752045950E+03  0.62315982517E+03  0.12500000000E+03 0.  0.
          2    1    1    2  501    0  0.22172000228E+03 -0.11275790676E+03  0.12460617464E+04  0.12706470717E+04  0.00000000000E+00 0.  1.
<mgrwt>
<rscale>  3 0.27838661E+03</rscale>
<asrwt>0</asrwt>
<pdfrwt beam="1">  1       21 0.69403623E-02 0.27838661E+03</pdfrwt>
<pdfrwt beam="2">  1        2 0.28441449E+00 0.27838661E+03</pdfrwt>
<totfact> 0.17271172E+04</totfact>
</mgrwt>
</event>
<event>
 4    0  0.1584894E-001  0.2626146E+03  0.7546771E-02  0.1105582E+00
         21   -1    0    0  501  502  0.00000000000E+00  0.00000000000E+00  0.11853379342E+03  0.11853379342E+03  0.00000000000E+00 0. -1.
          1   -1    0    0  502    0 -0.00000000000E+00 -0.00000000000E+00 -0.11143933327E+04  0.11143933327E+04  0.00000000000E+00 0. -1.
         25    1    1    2    0    0  0.19909439690E+03 -0.11705907831E+03 -0.60523783201E+02  0.26949867352E+03  0.12500000000E+03 0.  0.
          1    1    1    2  501    0 -0.19909439690E+03  0.11705907831E+03 -0.93533575606E+03  0.96342845259E+03  0.00000000000E+00 0. -1.
<mgrwt>
<rscale>  3 0.26261456E+03</rscale>
<asrwt>0</asrwt>
<pdfrwt beam="1">  1       21 0.18235969E-01 0.26261456E+03</pdfrwt>
<pdfrwt beam="2">  1        1 0.17144512E+00 0.26261456E+03</pdfrwt>
<totfact> 0.39656297E+03</totfact>
</mgrwt>
</event>
<event>
 4    0  0.1623297E-001  0.3329511E+03  0.7546771E-02  0.1069839E+00
          1   -1    0    0  502    0 -0.00000000000E+00  0.00000000000E+00  0.19903882516E+04  0.19903882516E+04  0.00000000000E+00 0. -1.
         21   -1    0    0  501  502  0.00000000000E+00 -0.00000000000E+00 -0.21621418833E+03  0.21621418833E+03  0.00000000000E+00 0.  1.
         25    1    1    2    0    0  0.28146248251E+03 -0.12653172392E+03 -0.67101810861E+02  0.33964549054E+03  0.12500000000E+03 0.  0.
          1    1    1    2  501    0 -0.28146248251E+03  0.12653172392E+03  0.18412758741E+04  0.18669569494E+04  0.00000000000E+00 0. -1.
<mgrwt>
<rscale>  3 0.33295106E+03</rscale>
<asrwt>0</asrwt>
<pdfrwt beam="1">  1       21 0.33263723E-01 0.33295106E+03</pdfrwt>
<pdfrwt beam="2">  1        1 0.30621356E+00 0.33295106E+03</pdfrwt>
<totfact> 0.31332155E+02</totfact>
</mgrwt>
</event>
<event>
 4    0  0.1601153E-001  0.2690733E+03  0.7546771E-02  0.1101811E+00
         21   -1    0    0  501  502  0.00000000000E+00  0.00000000000E+00  0.16390170604E+03  0.16390170604E+03  0.00000000000E+00 0.  1.
          2   -1    0    0  502    0 -0.00000000000E+00 -0.00000000000E+00 -0.12032140663E+04  0.12032140663E+04  0.00000000000E+00 0.  1.
         25    1    1    2    0    0  0.13272110792E+03  0.19789028920E+03  0.30768913506E+02  0.27082685444E+03  0.12500000000E+03 0.  0.
          2    1    1    2  501    0 -0.13272110792E+03 -0.19789028920E+03 -0.10700812738E+04  0.10962889179E+04  0.00000000000E+00 0.  1.
<mgrwt>
<rscale>  3 0.26907333E+03</rscale>
<asrwt>0</asrwt>
<pdfrwt beam="1">  1       21 0.25215647E-01 0.26907333E+03</pdfrwt>
<pdfrwt beam="2">  1        2 0.18510986E+00 0.26907333E+03</pdfrwt>
<totfact> 0.36761132E+03</totfact>
</mgrwt>
</event>
<event>
 4    0  0.1046367E-001  0.2361485E+03  0.7546771E-02  0.1122385E+00
          2   -1    0    0  502    0 -0.00000000000E+00  0.00000000000E+00  0.21388469919E+04  0.21388469919E+04  0.00000000000E+00 0. -1.
         21   -1    0    0  501  502  0.00000000000E+00 -0.00000000000E+00 -0.33095934623E+02  0.33095934623E+02  0.00000000000E+00 0.  1.
         25    1    1    2    0    0  0.76716736486E+02  0.18508284268E+03  0.49129558997E+03  0.54510317650E+03  0.12500000000E+03 0.  0.
          2    1    1    2  501    0 -0.76716736486E+02 -0.18508284268E+03  0.16144554673E+04  0.16268397500E+04  0.00000000000E+00 0. -1.
<mgrwt>
<rscale>  3 0.23614850E+03</rscale>
<asrwt>0</asrwt>
<pdfrwt beam="1">  1       21 0.50916839E-02 0.23614850E+03</pdfrwt>
<pdfrwt beam="2">  1        2 0.32905327E+00 0.23614850E+03</pdfrwt>
<totfact> 0.20967595E+04</totfact>
</mgrwt>
</event>
<event>
 4    0  0.1002184E-001  0.3134153E+03  0.7546771E-02  0.1078720E+00
          3   -1    0    0  502    0 -0.00000000000E+00  0.00000000000E+00  0.26552616771E+03  0.26552616771E+03  0.00000000000E+00 0.  1.
         21   -1    0    0  501  502  0.00000000000E+00 -0.00000000000E+00 -0.35309525039E+03  0.35309525039E+03  0.00000000000E+00 0. -1.
         25    1    1    2    0    0 -0.33905721084E+02 -0.28540242784E+03 -0.10538958912E+03  0.33066011135E+03  0.12500000000E+03 0.  0.
          3    1    1    2  501    0  0.33905721084E+02  0.28540242784E+03  0.17820506440E+02  0.28796130676E+03  0.00000000000E+00 0.  1.
<mgrwt>
<rscale>  3 0.31341529E+03</rscale>
<asrwt>0</asrwt>
<pdfrwt beam="1">  1       21 0.54322346E-01 0.31341529E+03</pdfrwt>
<pdfrwt beam="2">  1        3 0.40850180E-01 0.31341529E+03</pdfrwt>
<totfact> 0.92871230E+02</totfact>
</mgrwt>
</event>
<event>
 4    0  0.1229142E-001  0.2419595E+03  0.7546771E-02  0.1118494E+00
         21   -1    0    0  501  502  0.00000000000E+00  0.00000000000E+00  0.20239772724E+03  0.20239772724E+03  0.00000000000E+00 0.  1.
         -2   -1    0    0    0  501 -0.00000000000E+00 -0.00000000000E+00 -0.11173521934E+04  0.11173521934E+04  0.00000000000E+00 0. -1.
         25    1    1    2    0    0  0.12099240344E+03  0.16816729938E+03  0.11589888641E+03  0.26828521044E+03  0.12500000000E+03 0.  0.
         -2    1    1    2    0  502 -0.12099240344E+03 -0.16816729938E+03 -0.10308533526E+04  0.10514647102E+04  0.00000000000E+00 0. -1.
<mgrwt>
<rscale>  3 0.24195951E+03</rscale>
<asrwt>0</asrwt>
<pdfrwt beam="1">  1       21 0.31138112E-01 0.24195951E+03</pdfrwt>
<pdfrwt beam="2">  1       -2 0.17190034E+00 0.24195951E+03</pdfrwt>
<totfact> 0.17743727E+02</totfact>
</mgrwt>
</event>
<event>
 4    0  0.1663638E-001  0.2566202E+03  0.7546771E-02  0.1109191E+00
         21   -1    0    0  501  502  0.00000000000E+00  0.00000000000E+00  0.39755562060E+02  0.39755562060E+02  0.00000000000E+00 0. -1.
          2   -1    0    0  502    0 -0.00000000000E+00 -0.00000000000E+00 -0.15176803117E+04  0.15176803117E+04  0.00000000000E+00 0. -1.
         25    1    1    2    0    0 -0.17904928920E+03  0.13479726076E+03 -0.62678775688E+03  0.67728638082E+03  0.12500000000E+03 0.  0.
          2    1    1    2  501    0  0.17904928920E+03 -0.13479726076E+03 -0.85113699273E+03  0.88014949291E+03  0.00000000000E+00 0. -1.
<mgrwt>
<rscale>  3 0.25662024E+03</rscale>
<asrwt>0</asrwt>
<pdfrwt beam="1">  1       21 0.61162397E-02 0.25662024E+03</pdfrwt>
<pdfrwt beam="2">  1        2 0.23348930E+00 0.25662024E+03</pdfrwt>
<totfact> 0.32320714E+04</totfact>
</mgrwt>
</event>
<event>
 4    0  0.1309701E-001  0.3199633E+03  0.7546771E-02  0.1075666E+00
          4   -1    0    0  502    0 -0.00000000000E+00  0.00000000000E+00  0.39086750793E+03  0.39086750793E+03  0.00000000000E+00 0.  1.
         21   -1    0    0  501  502  0.00000000000E+00 -0.00000000000E+00 -0.13167998242E+04  0.13167998242E+04  0.00000000000E+00 0. -1.
         25    1    1    2    0    0 -0.28917852924E+03 -0.55922369678E+02 -0.12379264734E+04  0.12786080270E+04  0.12500000000E+03 0.  0.
          4    1    1    2  501    0  0.28917852924E+03  0.55922369678E+02  0.31199415715E+03  0.42905930510E+03  0.00000000000E+00 0.  1.
<mgrwt>
<rscale>  3 0.31996333E+03</rscale>
<asrwt>0</asrwt>
<pdfrwt beam="1">  1       21 0.20258458E+00 0.31996333E+03</pdfrwt>
<pdfrwt beam="2">  1        4 0.60133464E-01 0.31996333E+03</pdfrwt>
<totfact> 0.13421508E+01</totfact>
</mgrwt>
</event>
<event>
 4    0  0.1380105E-001  0.3381790E+03  0.7546771E-02  0.1067574E+00
          1   -1    0    0  502    0 -0.00000000000E+00  0.00000000000E+00  0.37958775424E+03  0.37958775424E+03  0.00000000000E+00 0. -1.
         21   -1    0    0  501  502  0.00000000000E+00 -0.00000000000E+00 -0.46512406508E+03  0.46512406508E+03  0.00000000000E+00 0. -1.
         25    1    1    2    0    0  0.25406155607E+03 -0.18491275974E+03 -0.30982611080E+03  0.45864716495E+03  0.12500000000E+03 0.  0.
          1    1    1    2  501    0 -0.25406155607E+03  0.18491275974E+03  0.22428979996E+03  0.38606465437E+03  0.00000000000E+00 0. -1.
<mgrwt>
<rscale>  3 0.33817895E+03</rscale>
<asrwt>0</asrwt>
<pdfrwt beam="1">  1       21 0.71557548E-01 0.33817895E+03</pdfrwt>
<pdfrwt beam="2">  1        1 0.58398116E-01 0.33817895E+03</pdfrwt>
<totfact> 0.11907171E+03</totfact>
</mgrwt>
</event>
<event>
 4    0  0.1511955E-001  0.2654300E+03  0.7546771E-02  0.1103924E+00
          2   -1    0    0  502    0 -0.00000000000E+00  0.00000000000E+00  0.61229407140E+03  0.61229407140E+03  0.00000000000E+00 0. -1.
         21   -1    0    0  501  502  0.00000000000E+00 -0.00000000000E+00 -0.10531882557E+03  0.10531882557E+03  0.00000000000E+00 0. -1.
         25    1    1    2    0    0  0.21977365376E+03  0.80793572963E+02  0.20436880751E+03  0.33499204439E+03  0.12500000000E+03 0.  0.
          2    1    1    2  501    0 -0.21977365376E+03 -0.80793572963E+02  0.30260643831E+03  0.38262085258E+03  0.00000000000E+00 0. -1.
<mgrwt>
<rscale>  3 0.26542995E+03</rscale>
<asrwt>0</asrwt>
<pdfrwt beam="1">  1       21 0.16202897E-01 0.26542995E+03</pdfrwt>
<pdfrwt beam="2">  1        2 0.94199086E-01 0.26542995E+03</pdfrwt>
<totfact> 0.20867635E+04</totfact>
</mgrwt>
</event>
<event>
 4    0  0.1083766E-001  0.4200473E+03  0.7546771E-02  0.1037051E+00
          4   -1    0    0  502    0 -0.00000000000E+00  0.00000000000E+00  0.24266974098E+03  0.24266974098E+03  0.00000000000E+00 0.  1.
         21   -1    0    0  501  502  0.00000000000E+00 -0.00000000000E+00 -0.72512597701E+03  0.72512597701E+03  0.00000000000E+00 0.  1.
         25    1    1    2    0    0  0.36642742947E+03  0.16292836609E+03 -0.34598758195E+03  0.54419400990E+03  0.12500000000E+03 0.  0.
          4    1    1    2  501    0 -0.36642742947E+03 -0.16292836609E+03 -0.13646865408E+03  0.42360170808E+03  0.00000000000E+00 0.  1.
<mgrwt>
<rscale>  3 0.42004728E+03</rscale>
<asrwt>0</asrwt>
<pdfrwt beam="1">  1       21 0.11155784E+00 0.42004728E+03</pdfrwt>
<pdfrwt beam="2">  1        4 0.37333806E-01 0.42004728E+03</pdfrwt>
<totfact> 0.17729550E+02</totfact>
</mgrwt>
</event>
<event>
 4    0  0.1114449E-001  0.2705240E+03  0.7546771E-02  0.1100980E+00
         21   -1    0    0  501  502  0.00000000000E+00  0.00000000000E+00  0.31560502748E+02  0.31560502748E+02  0.00000000000E+00 0. -1.
          2   -1    0    0  502    0 -0.00000000000E+00 -0.00000000000E+00 -0.35907974881E+04  0.35907974881E+04  0.00000000000E+00 0. -1.
         25    1    1    2    0    0  0.23204921503E+03 -0.60921183267E+02 -0.66110866449E+03  0.71431638301E+03  0.12500000000E+03 0.  0.
          2    1    1    2  501    0 -0.23204921503E+03  0.60921183267E+02 -0.28981283209E+04  0.29080416079E+04  0.00000000000E+00 0. -1.
<mgrwt>
<rscale>  3 0.27052399E+03</rscale>
<asrwt>0</asrwt>
<pdfrwt beam="1">  1       21 0.48554641E-02 0.27052399E+03</pdfrwt>
<pdfrwt beam="2">  1        2 0.55243014E+00 0.27052399E+03</pdfrwt>
<totfact> 0.31657223E+03</totfact>
</mgrwt>
</event>
<event>
 4    0  0.1002184E-001  0.2361576E+03  0.7546771E-02  0.1122379E+00
          2   -1    0    0  502    0 -0.00000000000E+00  0.00000000000E+00  0.30200406236E+03  0.30200406236E+03  0.00000000000E+00 0.  1.
         21   -1    0    0  501  502  0.00000000000E+00 -0.00000000000E+00 -0.32482789946E+03  0.32482789946E+03  0.00000000000E+00 0. -1.
         25    1    1    2    0    0 -0.14011217005E+03 -0.14322711217E+03 -0.23628499443E+03  0.33406739507E+03  0.12500000000E+03 0.  0.
          2    1    1    2  501    0  0.14011217005E+03  0.14322711217E+03  0.21346115732E+03  0.29276456675E+03  0.00000000000E+00 0.  1.
<mgrwt>
<rscale>  3 0.23615763E+03</rscale>
<asrwt>0</asrwt>
<pdfrwt beam="1">  1       21 0.49973523E-01 0.23615763E+03</pdfrwt>
<pdfrwt beam="2">  1        2 0.46462164E-01 0.23615763E+03</pdfrwt>
<totfact> 0.50718300E+03</totfact>
</mgrwt>
</event>
<event>
 4    0  0.1002184E-001  0.2365895E+03  0.7546771E-02  0.1122086E+00
         -4   -1    0    0    0  501 -0.00000000000E+00  0.00000000000E+00  0.68384660236E+03  0.68384660236E+03  0.00000000000E+00 0. -1.
         21   -1    0    0  501  502  0.00000000000E+00 -0.00000000000E+00 -0.11912254630E+03  0.11912254630E+03  0.00000000000E+00 0.  1.
         25    1    1    2    0    0 -0.20069482333E+03  0.84369613095E+01  0.38489662680E+02  0.23969991356E+03  0.12500000000E+03 0.  0.
         -4    1    1    2    0  502  0.20069482333E+03 -0.84369613095E+01  0.52623439338E+03  0.56326923509E+03  0.00000000000E+00 0. -1.
<mgrwt>
<rscale>  3 0.23658951E+03</rscale>
<asrwt>0</asrwt>
<pdfrwt beam="1">  1       21 0.18326546E-01 0.23658951E+03</pdfrwt>
<pdfrwt beam="2">  1       -4 0.10520717E+00 0.23658951E+03</pdfrwt>
<totfact> 0.86704594E+02</totfact>
</mgrwt>
</event>
<event>
 4    0  0.1208859E-001  0.3241441E+03  0.7546771E-02  0.1073758E+00
         21   -1    0    0  501  502  0.00000000000E+00  0.00000000000E+00  0.32042708597E+03  0.32042708597E+03  0.00000000000E+00 0.  1.
          2   -1    0    0  502    0 -0.00000000000E+00 -0.00000000000E+00 -0.30315932294E+03  0.30315932294E+03  0.00000000000E+00 0.  1.
         25    1    1    2    0    0 -0.26652699129E+03 -0.13567519563E+03  0.15358646824E+02  0.32450775619E+03  0.12500000000E+03 0.  0.
          2    1    1    2  501    0  0.26652699129E+03  0.13567519563E+03  0.19091162066E+01  0.29907865273E+03  0.00000000000E+00 0.  1.
<mgrwt>
<rscale>  3 0.32414410E+03</rscale>
<asrwt>0</asrwt>
<pdfrwt beam="1">  1       21 0.49296475E-01 0.32414410E+03</pdfrwt>
<pdfrwt beam="2">  1        2 0.46639895E-01 0.32414410E+03</pdfrwt>
<totfact> 0.50955711E+03</totfact>
</mgrwt>
</event>
<event>
 4    0  0.1376362E-001  0.2440573E+03  0.7546771E-02  0.1117119E+00
         21   -1    0    0  501  502  0.00000000000E+00  0.00000000000E+00  0.17340215541E+03  0.17340215541E+03  0.00000000000E+00 0. -1.
          2   -1    0    0  502    0 -0.00000000000E+00 -0.00000000000E+00 -0.96309907316E+03  0.96309907316E+03  0.00000000000E+00 0. -1.
         25    1    1    2    0    0 -0.47469173369E+02 -0.20417061432E+03  0.68167596243E+02  0.25339846754E+03  0.12500000000E+03 0.  0.
          2    1    1    2  501    0  0.47469173369E+02  0.20417061432E+03 -0.85786451400E+03  0.88310276103E+03  0.00000000000E+00 0. -1.
<mgrwt>
<rscale>  3 0.24405729E+03</rscale>
<asrwt>0</asrwt>
<pdfrwt beam="1">  1       21 0.26677255E-01 0.24405729E+03</pdfrwt>
<pdfrwt beam="2">  1        2 0.14816909E+00 0.24405729E+03</pdfrwt>
<totfact> 0.46162618E+03</totfact>
</mgrwt>
</event>
<event>
 4    0  0.1050617E-001  0.2563901E+03  0.7546771E-02  0.1109332E+00
          3   -1    0    0  502    0 -0.00000000000E+00  0.00000000000E+00  0.14739622388E+03  0.14739622388E+03  0.00000000000E+00 0. -1.
         21   -1    0    0  501  502  0.00000000000E+00 -0.00000000000E+00 -0.65939974040E+03  0.65939974040E+03  0.00000000000E+00 0. -1.
         25    1    1    2    0    0 -0.64838133041E+01  0.22376070033E+03 -0.52321838389E+03  0.58266059425E+03  0.12500000000E+03 0.  0.
          3    1    1    2  501    0  0.64838133041E+01 -0.22376070033E+03  0.11214867373E+02  0.22413537003E+03  0.00000000000E+00 0. -1.
<mgrwt>
<rscale>  3 0.25639011E+03</rscale>
<asrwt>0</asrwt>
<pdfrwt beam="1">  1       21 0.10144611E+00 0.25639011E+03</pdfrwt>
<pdfrwt beam="2">  1        3 0.22676342E-01 0.25639011E+03</pdfrwt>
<totfact> 0.69239441E+02</totfact>
</mgrwt>
</event>
<event>
 4    0  0.1493447E-001  0.2428675E+03  0.7546771E-02  0.1117897E+00
          2   -1    0    0  502    0 -0.00000000000E+00  0.00000000000E+00  0.81244226634E+03  0.81244226634E+03  0.00000000000E+00 0.  1.
         21   -1    0    0  501  502  0.00000000000E+00 -0.00000000000E+00 -0.12636318234E+03  0.12636318234E+03  0.00000000000E+00 0.  1.
         25    1    1    2    0    0  0.77519902646E+02  0.19326218848E+03  0.23180083243E+02  0.24397115621E+03  0.12500000000E+03 0.  0.
          2    1    1    2  501    0 -0.77519902646E+02 -0.19326218848E+03  0.66289900076E+03  0.69483429248E+03  0.00000000000E+00 0.  1.
<mgrwt>
<rscale>  3 0.24286747E+03</rscale>
<asrwt>0</asrwt>
<pdfrwt beam="1">  1       21 0.19440490E-01 0.24286747E+03</pdfrwt>
<pdfrwt beam="2">  1        2 0.12499111E+00 0.24286747E+03</pdfrwt>
<totfact> 0.10570541E+04</totfact>
</mgrwt>
</event>
<event>
 4    0  0.1604139E-001  0.2936700E+03  0.7546771E-02  0.1088448E+00
         21   -1    0    0  501  502  0.00000000000E+00  0.00000000000E+00  0.58568021495E+02  0.58568021495E+02  0.00000000000E+00 0. -1.
          2   -1    0    0  502    0 -0.00000000000E+00 -0.00000000000E+00 -0.13375924664E+04  0.13375924664E+04  0.00000000000E+00 0. -1.
         25    1    1    2    0    0 -0.18965366327E+03  0.18614115110E+03 -0.64579689879E+03  0.70943334755E+03  0.12500000000E+03 0.  0.
          2    1    1    2  501    0  0.18965366327E+03 -0.18614115110E+03 -0.63322754612E+03  0.68672714035E+03  0.00000000000E+00 0. -1.
<mgrwt>
<rscale>  3 0.29366995E+03</rscale>
<asrwt>0</asrwt>
<pdfrwt beam="1">  1       21 0.90104651E-02 0.29366995E+03</pdfrwt>
<pdfrwt beam="2">  1        2 0.20578345E+00 0.29366995E+03</pdfrwt>
<totfact> 0.20423508E+04</totfact>
</mgrwt>
</event>
<event>
 4    0  0.1070533E-001  0.2965665E+03  0.7546771E-02  0.1086970E+00
         21   -1    0    0  501  502  0.00000000000E+00  0.00000000000E+00  0.29883730824E+02  0.29883730824E+02  0.00000000000E+00 0. -1.
          1   -1    0    0  502    0 -0.00000000000E+00 -0.00000000000E+00 -0.40295139255E+04  0.40295139255E+04  0.00000000000E+00 0. -1.
         25    1    1    2    0    0  0.21376352387E+03  0.16319270509E+03 -0.88897216675E+03  0.93713564461E+03  0.12500000000E+03 0.  0.
          1    1    1    2  501    0 -0.21376352387E+03 -0.16319270509E+03 -0.31106580280E+04  0.31222620117E+04  0.00000000000E+00 0. -1.
<mgrwt>
<rscale>  3 0.29656652E+03</rscale>
<asrwt>0</asrwt>
<pdfrwt beam="1">  1       21 0.45974975E-02 0.29656652E+03</pdfrwt>
<pdfrwt beam="2">  1        1 0.61992516E+00 0.29656652E+03</pdfrwt>
<totfact> 0.40400860E+02</totfact>
</mgrwt>
</event>
<event>
 4    0  0.1598634E-001  0.3613862E+03  0.7546771E-02  0.1058036E+00
          2   -1    0    0  502    0 -0.00000000000E+00  0.00000000000E+00  0.12381400396E+04  0.12381400396E+04  0.00000000000E+00 0. -1.
         21   -1    0    0  501  502  0.00000000000E+00 -0.00000000000E+00 -0.54657806452E+03  0.54657806452E+03  0.00000000000E+00 0. -1.
         25    1    1    2    0    0 -0.32983492761E+03  0.78637705665E+02 -0.45959539605E+03  0.58466049661E+03  0.12500000000E+03 0.  0.
          2    1    1    2  501    0  0.32983492761E+03 -0.78637705665E+02  0.11511573711E+04  0.12000576075E+04  0.00000000000E+00 0. -1.
<mgrwt>
<rscale>  3 0.36138618E+03</rscale>
<asrwt>0</asrwt>
<pdfrwt beam="1">  1       21 0.84088933E-01 0.36138618E+03</pdfrwt>
<pdfrwt beam="2">  1        2 0.19048308E+00 0.36138618E+03</pdfrwt>
<totfact> 0.27112676E+02</totfact>
</mgrwt>
</event>
<event>
 4    0  0.1002184E-001  0.2370833E+03  0.7546771E-02  0.1121751E+00
         21   -1    0    0  501  502  0.00000000000E+00  0.00000000000E+00  0.19051201470E+03  0.19051201470E+03  0.00000000000E+00 0. -1.
          2   -1    0    0  502    0 -0.00000000000E+00 -0.00000000000E+00 -0.23395227561E+04  0.23395227561E+04  0.00000000000E+00 0. -1.
         25    1    1    2    0    0 -0.17908675144E+03 -0.92257502949E+02  0.11049394184E+03  0.26156724293E+03  0.12500000000E+03 0.  0.
          2    1    1    2  501    0  0.17908675144E+03  0.92257502949E+02 -0.22595046833E+04  0.22684675279E+04  0.00000000000E+00 0. -1.
<mgrwt>
<rscale>  3 0.23708334E+03</rscale>
<asrwt>0</asrwt>
<pdfrwt beam="1">  1       21 0.29309542E-01 0.23708334E+03</pdfrwt>
<pdfrwt beam="2">  1        2 0.35992657E+00 0.23708334E+03</pdfrwt>
<totfact> 0.69051971E+02</totfact>
</mgrwt>
</event>
<event>
 4    0  0.1002184E-001  0.4964880E+03  0.7546771E-02  0.1014700E+00
         21   -1    0    0  501  502  0.00000000000E+00  0.00000000000E+00  0.41426920269E+03  0.41426920269E+03  0.00000000000E+00 0. -1.
          2   -1    0    0  502    0 -0.00000000000E+00 -0.00000000000E+00 -0.62035878118E+03  0.62035878118E+03  0.00000000000E+00 0.  1.
         25    1    1    2    0    0 -0.41700988195E+03 -0.23870078603E+03  0.33685651847E+02  0.49762941034E+03  0.12500000000E+03 0.  0.
          2    1    1    2  501    0  0.41700988195E+03  0.23870078603E+03 -0.23977523034E+03  0.53699857354E+03  0.00000000000E+00 0.  1.
<mgrwt>
<rscale>  3 0.49648797E+03</rscale>
<asrwt>0</asrwt>
<pdfrwt beam="1">  1       21 0.63733723E-01 0.49648797E+03</pdfrwt>
<pdfrwt beam="2">  1        2 0.95439813E-01 0.49648797E+03</pdfrwt>
<totfact> 0.12615008E+03</totfact>
</mgrwt>
</event>
<event>
 4    0  0.1092282E-001  0.3657240E+03  0.7546771E-02  0.1056340E+00
          2   -1    0    0  502    0 -0.00000000000E+00  0.00000000000E+00  0.32493792381E+04  0.32493792381E+04  0.00000000000E+00 0.  1.
         21   -1    0    0  501  502  0.00000000000E+00 -0.00000000000E+00 -0.49312177108E+02  0.49312177108E+02  0.00000000000E+00 0.  1.
         25    1    1    2    0    0  0.29299751825E+03  0.17967053474E+03  0.87496544712E+03  0.94832409039E+03  0.12500000000E+03 0.  0.
          2    1    1    2  501    0 -0.29299751825E+03 -0.17967053474E+03  0.23251016138E+04  0.23503673248E+04  0.00000000000E+00 0.  1.
<mgrwt>
<rscale>  3 0.36572400E+03</rscale>
<asrwt>0</asrwt>
<pdfrwt beam="1">  1       21 0.75864913E-02 0.36572400E+03</pdfrwt>
<pdfrwt beam="2">  1        2 0.49990433E+00 0.36572400E+03</pdfrwt>
<totfact> 0.23430307E+03</totfact>
</mgrwt>
</event>
<event>
 4    0  0.1675726E-001  0.2394809E+03  0.7546771E-02  0.1120139E+00
         21   -1    0    0  501  502  0.00000000000E+00  0.00000000000E+00  0.44293366353E+02  0.44293366353E+02  0.00000000000E+00 0.  1.
          2   -1    0    0  502    0 -0.00000000000E+00 -0.00000000000E+00 -0.11175215534E+04  0.11175215534E+04  0.00000000000E+00 0.  1.
         25    1    1    2    0    0  0.20268353469E+03  0.25405970459E+02 -0.53617920828E+03  0.58723012692E+03  0.12500000000E+03 0.  0.
          2    1    1    2  501    0 -0.20268353469E+03 -0.25405970459E+02 -0.53704897881E+03  0.57458479288E+03  0.00000000000E+00 0.  1.
<mgrwt>
<rscale>  3 0.23948085E+03</rscale>
<asrwt>0</asrwt>
<pdfrwt beam="1">  1       21 0.68143635E-02 0.23948085E+03</pdfrwt>
<pdfrwt beam="2">  1        2 0.17192641E+00 0.23948085E+03</pdfrwt>
<totfact> 0.44778504E+04</totfact>
</mgrwt>
</event>
<event>
 4    0  0.1077089E-001  0.2864836E+03  0.7546771E-02  0.1092200E+00
          1   -1    0    0  502    0 -0.00000000000E+00  0.00000000000E+00  0.26299257577E+03  0.26299257577E+03  0.00000000000E+00 0.  1.
         21   -1    0    0  501  502  0.00000000000E+00 -0.00000000000E+00 -0.13865962921E+04  0.13865962921E+04  0.00000000000E+00 0.  1.
         25    1    1    2    0    0  0.71077522483E+01 -0.25767677756E+03 -0.13039111217E+04  0.13350120056E+04  0.12500000000E+03 0.  0.
          1    1    1    2  501    0 -0.71077522483E+01  0.25767677756E+03  0.18030740537E+03  0.31457686226E+03  0.00000000000E+00 0.  1.
<mgrwt>
<rscale>  3 0.28648358E+03</rscale>
<asrwt>0</asrwt>
<pdfrwt beam="1">  1       21 0.21332250E+00 0.28648358E+03</pdfrwt>
<pdfrwt beam="2">  1        1 0.40460397E-01 0.28648358E+03</pdfrwt>
<totfact> 0.11621749E+02</totfact>
</mgrwt>
</event>
<event>
 4    0  0.1513732E-001  0.2616797E+03  0.7546771E-02  0.1106138E+00
          1   -1    0    0  502    0 -0.00000000000E+00  0.00000000000E+00  0.14751624083E+04  0.14751624083E+04  0.00000000000E+00 0.  1.
         21   -1    0    0  501  502  0.00000000000E+00 -0.00000000000E+00 -0.53172396783E+02  0.53172396783E+02  0.00000000000E+00 0.  1.
         25    1    1    2    0    0 -0.89789043659E+02 -0.21163453722E+03  0.38065333810E+03  0.46192338489E+03  0.12500000000E+03 0.  0.
          1    1    1    2  501    0  0.89789043659E+02  0.21163453722E+03  0.10413366734E+04  0.10664114202E+04  0.00000000000E+00 0.  1.
<mgrwt>
<rscale>  3 0.26167967E+03</rscale>
<asrwt>0</asrwt>
<pdfrwt beam="1">  1       21 0.81803699E-02 0.26167967E+03</pdfrwt>
<pdfrwt beam="2">  1        1 0.22694803E+00 0.26167967E+03</pdfrwt>
<totfact> 0.95352455E+03</totfact>
</mgrwt>
</event>
<event>
 4    0  0.1509829E-001  0.2509811E+03  0.7546771E-02  0.1112686E+00
          2   -1    0    0  502    0 -0.00000000000E+00  0.00000000000E+00  0.14190173764E+04  0.14190173764E+04  0.00000000000E+00 0. -1.
         21   -1    0    0  501  502  0.00000000000E+00 -0.00000000000E+00 -0.64231072617E+02  0.64231072617E+02  0.00000000000E+00 0. -1.
         25    1    1    2    0    0  0.70686774436E+01 -0.21752369619E+03  0.23947296668E+03  0.34689887053E+03  0.12500000000E+03 0.  0.
          2    1    1    2  501    0 -0.70686774436E+01  0.21752369619E+03  0.11153133371E+04  0.11363495785E+04  0.00000000000E+00 0. -1.
<mgrwt>
<rscale>  3 0.25098112E+03</rscale>
<asrwt>0</asrwt>
<pdfrwt beam="1">  1       21 0.98817046E-02 0.25098112E+03</pdfrwt>
<pdfrwt beam="2">  1        2 0.21831034E+00 0.25098112E+03</pdfrwt>
<totfact> 0.15797920E+04</totfact>
</mgrwt>
</event>
<event>
 4    0  0.1050997E-001  0.4220074E+03  0.7546771E-02  0.1036415E+00
          1   -1    0    0  502    0 -0.00000000000E+00  0.00000000000E+00  0.43613931424E+03  0.43613931424E+03  0.00000000000E+00 0.  1.
         21   -1    0    0  501  502  0.00000000000E+00 -0.00000000000E+00 -0.92104297113E+03  0.92104297113E+03  0.00000000000E+00 0. -1.
         25    1    1    2    0    0  0.23800119751E+03  0.32530088686E+03 -0.75991558143E+03  0.86923065288E+03  0.12500000000E+03 0.  0.
          1    1    1    2  501    0 -0.23800119751E+03 -0.32530088686E+03  0.27501192455E+03  0.48795163249E+03  0.00000000000E+00 0.  1.
<mgrwt>
<rscale>  3 0.42200739E+03</rscale>
<asrwt>0</asrwt>
<pdfrwt beam="1">  1       21 0.14169892E+00 0.42200739E+03</pdfrwt>
<pdfrwt beam="2">  1        1 0.67098356E-01 0.42200739E+03</pdfrwt>
<totfact> 0.18394352E+02</totfact>
</mgrwt>
</event>
<event>
 4    0  0.1336245E-001  0.4476004E+03  0.7546771E-02  0.1028440E+00
          2   -1    0    0  502    0 -0.00000000000E+00  0.00000000000E+00  0.99802095190E+03  0.99802095190E+03  0.00000000000E+00 0.  1.
         21   -1    0    0  501  502  0.00000000000E+00 -0.00000000000E+00 -0.66816268352E+03  0.66816268352E+03  0.00000000000E+00 0. -1.
         25    1    1    2    0    0  0.71159834131E+02 -0.42386007891E+03 -0.53672726043E+03  0.69887212033E+03  0.12500000000E+03 0.  0.
          2    1    1    2  501    0 -0.71159834131E+02  0.42386007891E+03  0.86658552881E+03  0.96731151509E+03  0.00000000000E+00 0.  1.
<mgrwt>
<rscale>  3 0.44760037E+03</rscale>
<asrwt>0</asrwt>
<pdfrwt beam="1">  1       21 0.10279426E+00 0.44760037E+03</pdfrwt>
<pdfrwt beam="2">  1        2 0.15354168E+00 0.44760037E+03</pdfrwt>
<totfact> 0.22630884E+02</totfact>
</mgrwt>
</event>
<event>
 4    0  0.1516725E-001  0.2526717E+03  0.7546771E-02  0.1111628E+00
         21   -1    0    0  501  502  0.00000000000E+00  0.00000000000E+00  0.12425326319E+03  0.12425326319E+03  0.00000000000E+00 0. -1.
          1   -1    0    0  502    0 -0.00000000000E+00 -0.00000000000E+00 -0.48543233977E+03  0.48543233977E+03  0.00000000000E+00 0. -1.
         25    1    1    2    0    0 -0.96030146182E+02 -0.19747461097E+03 -0.10865946607E+03  0.27504525177E+03  0.12500000000E+03 0.  0.
          1    1    1    2  501    0  0.96030146182E+02  0.19747461097E+03 -0.25251961050E+03  0.33464035119E+03  0.00000000000E+00 0. -1.
<mgrwt>
<rscale>  3 0.25267175E+03</rscale>
<asrwt>0</asrwt>
<pdfrwt beam="1">  1       21 0.19115887E-01 0.25267175E+03</pdfrwt>
<pdfrwt beam="2">  1        1 0.74681899E-01 0.25267175E+03</pdfrwt>
<totfact> 0.12883594E+04</totfact>
</mgrwt>
</event>
<event>
 4    0  0.1364721E-001  0.2589252E+03  0.7546771E-02  0.1107791E+00
          2   -1    0    0  502    0 -0.00000000000E+00  0.00000000000E+00  0.20072610731E+04  0.20072610731E+04  0.00000000000E+00 0.  1.
         21   -1    0    0  501  502  0.00000000000E+00 -0.00000000000E+00 -0.12813508062E+04  0.12813508062E+04  0.00000000000E+00 0. -1.
         25    1    1    2    0    0 -0.21732291687E+03 -0.64714647487E+02 -0.12617581634E+04  0.12880512018E+04  0.12500000000E+03 0.  0.
          2    1    1    2  501    0  0.21732291687E+03  0.64714647487E+02  0.19876684302E+04  0.20005606775E+04  0.00000000000E+00 0.  1.
<mgrwt>
<rscale>  3 0.25892515E+03</rscale>
<asrwt>0</asrwt>
<pdfrwt beam="1">  1       21 0.19713089E+00 0.25892515E+03</pdfrwt>
<pdfrwt beam="2">  1        2 0.30880940E+00 0.25892515E+03</pdfrwt>
<totfact> 0.12352705E+01</totfact>
</mgrwt>
</event>
<event>
 4    0  0.1002184E-001  0.3411346E+03  0.7546771E-02  0.1066314E+00
          1   -1    0    0  502    0 -0.00000000000E+00  0.00000000000E+00  0.12527790687E+03  0.12527790687E+03  0.00000000000E+00 0. -1.
         21   -1    0    0  501  502  0.00000000000E+00 -0.00000000000E+00 -0.20881457633E+04  0.20881457633E+04  0.00000000000E+00 0. -1.
         25    1    1    2    0    0  0.30787051153E+03  0.77224301144E+02 -0.18427304354E+04  0.18740406351E+04  0.12500000000E+03 0.  0.
          1    1    1    2  501    0 -0.30787051153E+03 -0.77224301144E+02 -0.12013742108E+03  0.33938303508E+03  0.00000000000E+00 0. -1.
<mgrwt>
<rscale>  3 0.34113464E+03</rscale>
<asrwt>0</asrwt>
<pdfrwt beam="1">  1       21 0.32125320E+00 0.34113464E+03</pdfrwt>
<pdfrwt beam="2">  1        1 0.19273524E-01 0.34113464E+03</pdfrwt>
<totfact> 0.64886049E+01</totfact>
</mgrwt>
</event>
<event>
 4    0  0.2003650E-001  0.3094722E+03  0.7546771E-02  0.1080599E+00
         -2   -1    0    0    0  501 -0.00000000000E+00  0.00000000000E+00  0.18773197686E+04  0.18773197686E+04  0.00000000000E+00 0.  1.
         21   -1    0    0  501  502  0.00000000000E+00 -0.00000000000E+00 -0.10073656689E+03  0.10073656689E+03  0.00000000000E+00 0.  1.
         25    1    1    2    0    0  0.28233642572E+03  0.20837207893E+02  0.18301882783E+03  0.35953989746E+03  0.12500000000E+03 0.  0.
         -2    1    1    2    0  502 -0.28233642572E+03 -0.20837207893E+02  0.15935643738E+04  0.16185164380E+04  0.00000000000E+00 0.  1.
<mgrwt>
<rscale>  3 0.30947221E+03</rscale>
<asrwt>0</asrwt>
<pdfrwt beam="1">  1       21 0.15497935E-01 0.30947221E+03</pdfrwt>
<pdfrwt beam="2">  1       -2 0.28881840E+00 0.30947221E+03</pdfrwt>
<totfact> 0.12532928E+02</totfact>
</mgrwt>
</event>
<event>
 4    0  0.1002184E-001  0.2687104E+03  0.7546771E-02  0.1102020E+00
          1   -1    0    0  502    0 -0.00000000000E+00  0.00000000000E+00  0.46204466882E+03  0.46204466882E+03  0.00000000000E+00 0.  1.
         21   -1    0    0  501  502  0.00000000000E+00 -0.00000000000E+00 -0.19184352961E+03  0.19184352961E+03  0.00000000000E+00 0. -1.
         25    1    1    2    0    0 -0.23767141714E+03  0.96210038647E+01 -0.30549866110E+02  0.27044141798E+03  0.12500000000E+03 0.  0.
          1    1    1    2  501    0  0.23767141714E+03 -0.96210038647E+01  0.30075100532E+03  0.38344678045E+03  0.00000000000E+00 0.  1.
<mgrwt>
<rscale>  3 0.26871038E+03</rscale>
<asrwt>0</asrwt>
<pdfrwt beam="1">  1       21 0.29514389E-01 0.26871038E+03</pdfrwt>
<pdfrwt beam="2">  1        1 0.71083795E-01 0.26871038E+03</pdfrwt>
<totfact> 0.59691146E+03</totfact>
</mgrwt>
</event>
<event>
 4    0  0.1903770E-001  0.2720127E+03  0.7546771E-02  0.1100133E+00
         -4   -1    0    0    0  501 -0.00000000000E+00  0.00000000000E+00  0.55028884855E+03  0.55028884855E+03  0.00000000000E+00 0.  1.
         21   -1    0    0  501  502  0.00000000000E+00 -0.00000000000E+00 -0.12489175540E+03  0.12489175540E+03  0.00000000000E+00 0.  1.
         25    1    1    2    0    0  0.18102378110E+03 -0.15998845687E+03  0.15701132521E+03  0.31407558310E+03  0.12500000000E+03 0.  0.
         -4    1    1    2    0  502 -0.18102378110E+03  0.15998845687E+03  0.26838576793E+03  0.36110502085E+03  0.00000000000E+00 0.  1.
<mgrwt>
<rscale>  3 0.27201271E+03</rscale>
<asrwt>0</asrwt>
<pdfrwt beam="1">  1       21 0.19214116E-01 0.27201271E+03</pdfrwt>
<pdfrwt beam="2">  1       -4 0.84659822E-01 0.27201271E+03</pdfrwt>
<totfact> 0.13134230E+03</totfact>
</mgrwt>
</event>
<event>
 4    0  0.1412240E-001  0.2876941E+03  0.7546771E-02  0.1091559E+00
         21   -1    0    0  501  502  0.00000000000E+00  0.00000000000E+00  0.21197452371E+03  0.21197452371E+03  0.00000000000E+00 0.  1.
          2   -1    0    0  502    0 -0.00000000000E+00 -0.00000000000E+00 -0.35283000629E+03  0.35283000629E+03  0.00000000000E+00 0.  1.
         25    1    1    2    0    0 -0.20035997822E+03 -0.16431297443E+03 -0.80605689228E+02  0.29877274236E+03  0.12500000000E+03 0.  0.
          2    1    1    2  501    0  0.20035997822E+03  0.16431297443E+03 -0.60249793350E+02  0.26603178765E+03  0.00000000000E+00 0.  1.
<mgrwt>
<rscale>  3 0.28769406E+03</rscale>
<asrwt>0</asrwt>
<pdfrwt beam="1">  1       21 0.32611466E-01 0.28769406E+03</pdfrwt>
<pdfrwt beam="2">  1        2 0.54281539E-01 0.28769406E+03</pdfrwt>
<totfact> 0.10120939E+04</totfact>
</mgrwt>
</event>
<event>
 4    0  0.1147215E-001  0.2867634E+03  0.7546771E-02  0.1092051E+00
         21   -1    0    0  501  502  0.00000000000E+00  0.00000000000E+00  0.77885334478E+03  0.77885334478E+03  0.00000000000E+00 0.  1.
          2   -1    0    0  502    0 -0.00000000000E+00 -0.00000000000E+00 -0.95563533488E+02  0.95563533488E+02  0.00000000000E+00 0.  1.
         25    1    1    2    0    0  0.47985879924E+02 -0.25358551510E+03  0.38303113044E+03  0.47848312931E+03  0.12500000000E+03 0.  0.
          2    1    1    2  501    0 -0.47985879924E+02  0.25358551510E+03  0.30025868085E+03  0.39593374897E+03  0.00000000000E+00 0.  1.
<mgrwt>
<rscale>  3 0.28676342E+03</rscale>
<asrwt>0</asrwt>
<pdfrwt beam="1">  1       21 0.11982359E+00 0.28676342E+03</pdfrwt>
<pdfrwt beam="2">  1        2 0.14702083E-01 0.28676342E+03</pdfrwt>
<totfact> 0.24930174E+03</totfact>
</mgrwt>
</event>
<event>
 4    0  0.1002184E-001  0.2651610E+03  0.7546771E-02  0.1104081E+00
         21   -1    0    0  501  502  0.00000000000E+00  0.00000000000E+00  0.43287444675E+03  0.43287444675E+03  0.00000000000E+00 0.  1.
         -2   -1    0    0    0  501 -0.00000000000E+00 -0.00000000000E+00 -0.19961025373E+03  0.19961025373E+03  0.00000000000E+00 0. -1.
         25    1    1    2    0    0  0.16644271300E+03  0.16426249877E+03  0.28886782095E+03  0.39211600731E+03  0.12500000000E+03 0.  0.
         -2    1    1    2    0  502 -0.16644271300E+03 -0.16426249877E+03 -0.55603627932E+02  0.24036869316E+03  0.00000000000E+00 0. -1.
<mgrwt>
<rscale>  3 0.26516098E+03</rscale>
<asrwt>0</asrwt>
<pdfrwt beam="1">  1       21 0.66596069E-01 0.26516098E+03</pdfrwt>
<pdfrwt beam="2">  1       -2 0.30709270E-01 0.26516098E+03</pdfrwt>
<totfact> 0.15914702E+03</totfact>
</mgrwt>
</event>
<event>
 4    0  0.1721610E-001  0.3055152E+03  0.7546771E-02  0.1082516E+00
          2   -1    0    0  502    0 -0.00000000000E+00  0.00000000000E+00  0.14253642556E+04  0.14253642556E+04  0.00000000000E+00 0.  1.
         21   -1    0    0  501  502  0.00000000000E+00 -0.00000000000E+00 -0.11041286764E+03  0.11041286764E+03  0.00000000000E+00 0.  1.
         25    1    1    2    0    0 -0.78420877416E+02  0.26751584006E+03  0.15459296580E+03  0.34240114453E+03  0.12500000000E+03 0.  0.
          2    1    1    2  501    0  0.78420877416E+02 -0.26751584006E+03  0.11603584221E+04  0.11933759787E+04  0.00000000000E+00 0.  1.
<mgrwt>
<rscale>  3 0.30551523E+03</rscale>
<asrwt>0</asrwt>
<pdfrwt beam="1">  1       21 0.16986596E-01 0.30551523E+03</pdfrwt>
<pdfrwt beam="2">  1        2 0.21928679E+00 0.30551523E+03</pdfrwt>
<totfact> 0.57762404E+03</totfact>
</mgrwt>
</event>
<event>
 4    0  0.1341018E-001  0.3809827E+03  0.7546771E-02  0.1050571E+00
         21   -1    0    0  501  502  0.00000000000E+00  0.00000000000E+00  0.10212186151E+03  0.10212186151E+03  0.00000000000E+00 0. -1.
          1   -1    0    0  502    0 -0.00000000000E+00 -0.00000000000E+00 -0.16216369221E+04  0.16216369221E+04  0.00000000000E+00 0. -1.
         25    1    1    2    0    0 -0.30894262841E+03  0.18460038023E+03 -0.42100249858E+03  0.56779481491E+03  0.12500000000E+03 0.  0.
          1    1    1    2  501    0  0.30894262841E+03 -0.18460038023E+03 -0.10985125620E+04  0.11559639687E+04  0.00000000000E+00 0. -1.
<mgrwt>
<rscale>  3 0.38098274E+03</rscale>
<asrwt>0</asrwt>
<pdfrwt beam="1">  1       21 0.15711057E-01 0.38098274E+03</pdfrwt>
<pdfrwt beam="2">  1        1 0.24948258E+00 0.38098274E+03</pdfrwt>
<totfact> 0.22738644E+03</totfact>
</mgrwt>
</event>
<event>
 4    0  0.1002184E-001  0.2739328E+03  0.7546771E-02  0.1099050E+00
         -3   -1    0    0    0  501 -0.00000000000E+00  0.00000000000E+00  0.81767427872E+03  0.81767427872E+03  0.00000000000E+00 0.  1.
         21   -1    0    0  501  502  0.00000000000E+00 -0.00000000000E+00 -0.86338518499E+02  0.86338518499E+02  0.00000000000E+00 0. -1.
         25    1    1    2    0    0 -0.12483640225E+02  0.24343036680E+03  0.28402496248E+03  0.39460025858E+03  0.12500000000E+03 0.  0.
         -3    1    1    2    0  502  0.12483640225E+02 -0.24343036680E+03  0.44731079774E+03  0.50941253864E+03  0.00000000000E+00 0.  1.
<mgrwt>
<rscale>  3 0.27393281E+03</rscale>
<asrwt>0</asrwt>
<pdfrwt beam="1">  1       21 0.13282850E-01 0.27393281E+03</pdfrwt>
<pdfrwt beam="2">  1       -3 0.12579604E+00 0.27393281E+03</pdfrwt>
<totfact> 0.12709163E+03</totfact>
</mgrwt>
</event>
<event>
 4    0  0.1858341E-001  0.2702151E+03  0.7546771E-02  0.1101157E+00
         -4   -1    0    0    0  501 -0.00000000000E+00  0.00000000000E+00  0.47940713347E+03  0.47940713347E+03  0.00000000000E+00 0.  1.
         21   -1    0    0  501  502  0.00000000000E+00 -0.00000000000E+00 -0.17218150884E+03  0.17218150884E+03  0.00000000000E+00 0.  1.
         25    1    1    2    0    0 -0.75937647519E+02 -0.22721060048E+03  0.10760962721E+02  0.27042925433E+03  0.12500000000E+03 0.  0.
         -4    1    1    2    0  502  0.75937647519E+02  0.22721060048E+03  0.29646466191E+03  0.38115938798E+03  0.00000000000E+00 0.  1.
<mgrwt>
<rscale>  3 0.27021507E+03</rscale>
<asrwt>0</asrwt>
<pdfrwt beam="1">  1       21 0.26489463E-01 0.27021507E+03</pdfrwt>
<pdfrwt beam="2">  1       -4 0.73754943E-01 0.27021507E+03</pdfrwt>
<totfact> 0.97000057E+02</totfact>
</mgrwt>
</event>
<event>
 4    0  0.1002184E-001  0.3033865E+03  0.7546771E-02  0.1083560E+00
          2   -1    0    0  502    0 -0.00000000000E+00  0.00000000000E+00  0.24284930613E+04  0.24284930613E+04  0.00000000000E+00 0.  1.
         21   -1    0    0  501  502  0.00000000000E+00 -0.00000000000E+00 -0.41753045311E+02  0.41753045311E+02  0.00000000000E+00 0. -1.
         25    1    1    2    0    0 -0.27624621445E+03  0.10315646117E+02  0.72892244990E+03  0.78953867640E+03  0.12500000000E+03 0.  0.
          2    1    1    2  501    0  0.27624621445E+03 -0.10315646117E+02  0.16578175660E+04  0.16807074302E+04  0.00000000000E+00 0.  1.
<mgrwt>
<rscale>  3 0.30338653E+03</rscale>
<asrwt>0</asrwt>
<pdfrwt beam="1">  1       21 0.64235473E-02 0.30338653E+03</pdfrwt>
<pdfrwt beam="2">  1        2 0.37361421E+00 0.30338653E+03</pdfrwt>
<totfact> 0.96313838E+03</totfact>
</mgrwt>
</event>
<event>
 4    0  0.1002184E-001  0.3531216E+03  0.7546771E-02  0.1061341E+00
          2   -1    0    0  502    0 -0.00000000000E+00  0.00000000000E+00  0.64806763895E+02  0.64806763895E+02  0.00000000000E+00 0. -1.
         21   -1    0    0  501  502  0.00000000000E+00 -0.00000000000E+00 -0.18312203214E+04  0.18312203214E+04  0.00000000000E+00 0. -1.
         25    1    1    2    0    0  0.30393824869E+03  0.12919532028E+03 -0.79164349858E+03  0.86683004023E+03  0.12500000000E+03 0.  0.
          2    1    1    2  501    0 -0.30393824869E+03 -0.12919532028E+03 -0.97477005895E+03  0.10291970451E+04  0.00000000000E+00 0. -1.
<mgrwt>
<rscale>  3 0.35312164E+03</rscale>
<asrwt>0</asrwt>
<pdfrwt beam="1">  1       21 0.28172618E+00 0.35312164E+03</pdfrwt>
<pdfrwt beam="2">  1        2 0.99702723E-02 0.35312164E+03</pdfrwt>
<totfact> 0.30301220E+02</totfact>
</mgrwt>
</event>
<event>
 4    0  0.1002184E-001  0.3493749E+03  0.7546771E-02  0.1062872E+00
          2   -1    0    0  502    0 -0.00000000000E+00  0.00000000000E+00  0.93141959191E+03  0.93141959191E+03  0.00000000000E+00 0.  1.
         21   -1    0    0  501  502  0.00000000000E+00 -0.00000000000E+00 -0.14186901804E+03  0.14186901804E+03  0.00000000000E+00 0. -1.
         25    1    1    2    0    0  0.28993387228E+03 -0.14958667692E+03  0.20835506354E+03  0.40678576267E+03  0.12500000000E+03 0.  0.
          2    1    1    2  501    0 -0.28993387228E+03  0.14958667692E+03  0.58119551033E+03  0.66650284728E+03  0.00000000000E+00 0.  1.
<mgrwt>
<rscale>  3 0.34937490E+03</rscale>
<asrwt>0</asrwt>
<pdfrwt beam="1">  1       21 0.21826003E-01 0.34937490E+03</pdfrwt>
<pdfrwt beam="2">  1        2 0.14329532E+00 0.34937490E+03</pdfrwt>
<totfact> 0.69196657E+03</totfact>
</mgrwt>
</event>
<event>
 4    0  0.1550456E-001  0.3401243E+03  0.7546771E-02  0.1066743E+00
          2   -1    0    0  502    0 -0.00000000000E+00  0.00000000000E+00  0.10569969305E+04  0.10569969305E+04  0.00000000000E+00 0.  1.
         21   -1    0    0  501  502  0.00000000000E+00 -0.00000000000E+00 -0.11909965286E+03  0.11909965286E+03  0.00000000000E+00 0.  1.
         25    1    1    2    0    0  0.25373747414E+03  0.18888306732E+03  0.26029410356E+03  0.42829608830E+03  0.12500000000E+03 0.  0.
          2    1    1    2  501    0 -0.25373747414E+03 -0.18888306732E+03  0.67760317411E+03  0.74780049510E+03  0.00000000000E+00 0.  1.
<mgrwt>
<rscale>  3 0.34012427E+03</rscale>
<asrwt>0</asrwt>
<pdfrwt beam="1">  1       21 0.18323024E-01 0.34012427E+03</pdfrwt>
<pdfrwt beam="2">  1        2 0.16261491E+00 0.34012427E+03</pdfrwt>
<totfact> 0.80627591E+03</totfact>
</mgrwt>
</event>
<event>
 4    0  0.1717824E-001  0.3328422E+03  0.7546771E-02  0.1069886E+00
         -1   -1    0    0    0  501 -0.00000000000E+00  0.00000000000E+00  0.60979441561E+03  0.60979441561E+03  0.00000000000E+00 0. -1.
         21   -1    0    0  501  502  0.00000000000E+00 -0.00000000000E+00 -0.45909347540E+03  0.45909347540E+03  0.00000000000E+00 0. -1.
         25    1    1    2    0    0  0.22618037267E+03  0.20976507668E+03 -0.34859948509E+03  0.48198085997E+03  0.12500000000E+03 0.  0.
         -1    1    1    2    0  502 -0.22618037267E+03 -0.20976507668E+03  0.49930042530E+03  0.58690703104E+03  0.00000000000E+00 0. -1.
<mgrwt>
<rscale>  3 0.33284223E+03</rscale>
<asrwt>0</asrwt>
<pdfrwt beam="1">  1       21 0.70629765E-01 0.33284223E+03</pdfrwt>
<pdfrwt beam="2">  1       -1 0.93814526E-01 0.33284223E+03</pdfrwt>
<totfact> 0.18500475E+02</totfact>
</mgrwt>
</event>
<event>
 4    0  0.1002184E-001  0.3038546E+03  0.7546771E-02  0.1083329E+00
         -2   -1    0    0    0  501 -0.00000000000E+00  0.00000000000E+00  0.47731988728E+02  0.47731988728E+02  0.00000000000E+00 0. -1.
         21   -1    0    0  501  502  0.00000000000E+00 -0.00000000000E+00 -0.23158479284E+04  0.23158479284E+04  0.00000000000E+00 0. -1.
         25    1    1    2    0    0 -0.27658996650E+03 -0.14163511350E+02 -0.17490749629E+04  0.17752720468E+04  0.12500000000E+03 0.  0.
         -2    1    1    2    0  502  0.27658996650E+03  0.14163511350E+02 -0.51904097683E+03  0.58830787029E+03  0.00000000000E+00 0. -1.
<mgrwt>
<rscale>  3 0.30385459E+03</rscale>
<asrwt>0</asrwt>
<pdfrwt beam="1">  1       21 0.35628422E+00 0.30385459E+03</pdfrwt>
<pdfrwt beam="2">  1       -2 0.73433845E-02 0.30385459E+03</pdfrwt>
<totfact> 0.12253496E+02</totfact>
</mgrwt>
</event>
<event>
 4    0  0.1202170E-001  0.2392868E+03  0.7546771E-02  0.1120269E+00
         21   -1    0    0  501  502  0.00000000000E+00  0.00000000000E+00  0.17929154853E+02  0.17929154853E+02  0.00000000000E+00 0. -1.
          2   -1    0    0  502    0 -0.00000000000E+00 -0.00000000000E+00 -0.45612933261E+04  0.45612933261E+04  0.00000000000E+00 0. -1.
         25    1    1    2    0    0  0.20182595102E+03  0.29991148230E+02 -0.38240327196E+04  0.38315120284E+04  0.12500000000E+03 0.  0.
          2    1    1    2  501    0 -0.20182595102E+03 -0.29991148230E+02 -0.71933145169E+03  0.74771045256E+03  0.00000000000E+00 0. -1.
<mgrwt>
<rscale>  3 0.23928682E+03</rscale>
<asrwt>0</asrwt>
<pdfrwt beam="1">  1       21 0.27583320E-02 0.23928682E+03</pdfrwt>
<pdfrwt beam="2">  1        2 0.70173730E+00 0.23928682E+03</pdfrwt>
<totfact> 0.14129334E+03</totfact>
</mgrwt>
</event>
<event>
 4    0  0.1419359E-001  0.2513952E+03  0.7546771E-02  0.1112426E+00
          2   -1    0    0  502    0 -0.00000000000E+00  0.00000000000E+00  0.29856281352E+03  0.29856281352E+03  0.00000000000E+00 0. -1.
         21   -1    0    0  501  502  0.00000000000E+00 -0.00000000000E+00 -0.18614374035E+03  0.18614374035E+03  0.00000000000E+00 0. -1.
         25    1    1    2    0    0  0.86039424849E+02 -0.20042897401E+03  0.82283395437E+02  0.26451864474E+03  0.12500000000E+03 0.  0.
          2    1    1    2  501    0 -0.86039424849E+02  0.20042897401E+03  0.30135677727E+02  0.22018790912E+03  0.00000000000E+00 0. -1.
<mgrwt>
<rscale>  3 0.25139522E+03</rscale>
<asrwt>0</asrwt>
<pdfrwt beam="1">  1       21 0.28637498E-01 0.25139522E+03</pdfrwt>
<pdfrwt beam="2">  1        2 0.45932741E-01 0.25139522E+03</pdfrwt>
<totfact> 0.15753286E+04</totfact>
</mgrwt>
</event>
<event>
 4    0  0.1306283E-001  0.3490743E+03  0.7546771E-02  0.1062996E+00
          2   -1    0    0  502    0 -0.00000000000E+00  0.00000000000E+00  0.13898300967E+04  0.13898300967E+04  0.00000000000E+00 0.  1.
         21   -1    0    0  501  502  0.00000000000E+00 -0.00000000000E+00 -0.15203989445E+03  0.15203989445E+03  0.00000000000E+00 0. -1.
         25    1    1    2    0    0 -0.29068339404E+03 -0.14741437416E+03  0.10708846685E+03  0.36513117233E+03  0.12500000000E+03 0.  0.
          2    1    1    2  501    0  0.29068339404E+03  0.14741437416E+03  0.11307017354E+04  0.11767388188E+04  0.00000000000E+00 0.  1.
<mgrwt>
<rscale>  3 0.34907425E+03</rscale>
<asrwt>0</asrwt>
<pdfrwt beam="1">  1       21 0.23390754E-01 0.34907425E+03</pdfrwt>
<pdfrwt beam="2">  1        2 0.21382001E+00 0.34907425E+03</pdfrwt>
<totfact> 0.32600094E+03</totfact>
</mgrwt>
</event>
<event>
 4    0  0.1396310E-001  0.4476924E+03  0.7546771E-02  0.1028412E+00
          2   -1    0    0  502    0 -0.00000000000E+00  0.00000000000E+00  0.12065060541E+04  0.12065060541E+04  0.00000000000E+00 0. -1.
         21   -1    0    0  501  502  0.00000000000E+00 -0.00000000000E+00 -0.53969875932E+03  0.53969875932E+03  0.00000000000E+00 0. -1.
         25    1    1    2    0    0 -0.42667512405E+03  0.52457865851E+02 -0.39728836809E+03  0.59855370402E+03  0.12500000000E+03 0.  0.
          2    1    1    2  501    0  0.42667512405E+03 -0.52457865851E+02  0.10640956629E+04  0.11476511094E+04  0.00000000000E+00 0. -1.
<mgrwt>
<rscale>  3 0.44769240E+03</rscale>
<asrwt>0</asrwt>
<pdfrwt beam="1">  1       21 0.83030579E-01 0.44769240E+03</pdfrwt>
<pdfrwt beam="2">  1        2 0.18561632E+00 0.44769240E+03</pdfrwt>
<totfact> 0.28208371E+02</totfact>
</mgrwt>
</event>
<event>
 4    0  0.1436728E-001  0.2903145E+03  0.7546771E-02  0.1090185E+00
          1   -1    0    0  502    0 -0.00000000000E+00  0.00000000000E+00  0.24581856439E+04  0.24581856439E+04  0.00000000000E+00 0.  1.
         21   -1    0    0  501  502  0.00000000000E+00 -0.00000000000E+00 -0.34564719248E+02  0.34564719248E+02  0.00000000000E+00 0.  1.
         25    1    1    2    0    0  0.17167114437E+03  0.19795581313E+03  0.86924349382E+03  0.91644243535E+03  0.12500000000E+03 0.  0.
          1    1    1    2  501    0 -0.17167114437E+03 -0.19795581313E+03  0.15543774308E+04  0.15763079278E+04  0.00000000000E+00 0.  1.
<mgrwt>
<rscale>  3 0.29031446E+03</rscale>
<asrwt>0</asrwt>
<pdfrwt beam="1">  1       21 0.53176511E-02 0.29031446E+03</pdfrwt>
<pdfrwt beam="2">  1        1 0.37818227E+00 0.29031446E+03</pdfrwt>
<totfact> 0.45319020E+03</totfact>
</mgrwt>
</event>
<event>
 4    0  0.1207294E-001  0.2387296E+03  0.7546771E-02  0.1120642E+00
          2   -1    0    0  502    0 -0.00000000000E+00  0.00000000000E+00  0.26181989340E+04  0.26181989340E+04  0.00000000000E+00 0.  1.
         21   -1    0    0  501  502  0.00000000000E+00 -0.00000000000E+00 -0.47097039347E+02  0.47097039347E+02  0.00000000000E+00 0.  1.
         25    1    1    2    0    0 -0.19830074962E+02 -0.20241929875E+03  0.29214115535E+03  0.37727742979E+03  0.12500000000E+03 0.  0.
          2    1    1    2  501    0  0.19830074962E+02  0.20241929875E+03  0.22789607393E+04  0.22880185436E+04  0.00000000000E+00 0.  1.
<mgrwt>
<rscale>  3 0.23872956E+03</rscale>
<asrwt>0</asrwt>
<pdfrwt beam="1">  1       21 0.72457004E-02 0.23872956E+03</pdfrwt>
<pdfrwt beam="2">  1        2 0.40279972E+00 0.23872956E+03</pdfrwt>
<totfact> 0.62958055E+03</totfact>
</mgrwt>
</event>
<event>
 4    0  0.1386247E-001  0.2660625E+03  0.7546771E-02  0.1103555E+00
         21   -1    0    0  501  502  0.00000000000E+00  0.00000000000E+00  0.37613643283E+03  0.37613643283E+03  0.00000000000E+00 0.  1.
          1   -1    0    0  502    0 -0.00000000000E+00 -0.00000000000E+00 -0.31170612574E+03  0.31170612574E+03  0.00000000000E+00 0.  1.
         25    1    1    2    0    0 -0.23483435759E+03 -0.41338914628E+01 -0.20097403684E+03  0.33343639280E+03  0.12500000000E+03 0.  0.
          1    1    1    2  501    0  0.23483435759E+03  0.41338914628E+01  0.26540434393E+03  0.35440616577E+03  0.00000000000E+00 0.  1.
<mgrwt>
<rscale>  3 0.26606252E+03</rscale>
<asrwt>0</asrwt>
<pdfrwt beam="1">  1       21 0.57867143E-01 0.26606252E+03</pdfrwt>
<pdfrwt beam="2">  1        1 0.47954789E-01 0.26606252E+03</pdfrwt>
<totfact> 0.24935231E+03</totfact>
</mgrwt>
</event>
<event>
 4    0  0.1435720E-001  0.2374206E+03  0.7546771E-02  0.1121523E+00
         21   -1    0    0  501  502  0.00000000000E+00  0.00000000000E+00  0.44653332365E+03  0.44653332365E+03  0.00000000000E+00 0. -1.
         -3   -1    0    0    0  501 -0.00000000000E+00 -0.00000000000E+00 -0.13502054746E+03  0.13502054746E+03  0.00000000000E+00 0. -1.
         25    1    1    2    0    0  0.67472481385E+02  0.19023934041E+03  0.29550910557E+03  0.37907014372E+03  0.12500000000E+03 0.  0.
         -3    1    1    2    0  502 -0.67472481385E+02 -0.19023934041E+03  0.16003670619E+02  0.20248372739E+03  0.00000000000E+00 0. -1.
<mgrwt>
<rscale>  3 0.23742060E+03</rscale>
<asrwt>0</asrwt>
<pdfrwt beam="1">  1       21 0.68697434E-01 0.23742060E+03</pdfrwt>
<pdfrwt beam="2">  1       -3 0.20772392E-01 0.23742060E+03</pdfrwt>
<totfact> 0.19904626E+03</totfact>
</mgrwt>
</event>
<event>
 4    0  0.1069975E-001  0.2363922E+03  0.7546771E-02  0.1122220E+00
          2   -1    0    0  502    0 -0.00000000000E+00  0.00000000000E+00  0.28379056621E+03  0.28379056621E+03  0.00000000000E+00 0.  1.
         21   -1    0    0  501  502  0.00000000000E+00 -0.00000000000E+00 -0.16840919997E+03  0.16840919997E+03  0.00000000000E+00 0.  1.
         25    1    1    2    0    0 -0.16410279460E+03  0.11544068343E+03  0.55589977301E+02  0.24284053237E+03  0.12500000000E+03 0.  0.
          2    1    1    2  501    0  0.16410279460E+03 -0.11544068343E+03  0.59791388936E+02  0.20935923380E+03  0.00000000000E+00 0.  1.
<mgrwt>
<rscale>  3 0.23639221E+03</rscale>
<asrwt>0</asrwt>
<pdfrwt beam="1">  1       21 0.25909108E-01 0.23639221E+03</pdfrwt>
<pdfrwt beam="2">  1        2 0.43660087E-01 0.23639221E+03</pdfrwt>
<totfact> 0.20244468E+04</totfact>
</mgrwt>
</event>
<event>
 4    0  0.1518047E-001  0.2655738E+03  0.7546771E-02  0.1103840E+00
          1   -1    0    0  502    0 -0.00000000000E+00  0.00000000000E+00  0.55250626712E+03  0.55250626712E+03  0.00000000000E+00 0. -1.
         21   -1    0    0  501  502  0.00000000000E+00 -0.00000000000E+00 -0.12094684503E+03  0.12094684503E+03  0.00000000000E+00 0. -1.
         25    1    1    2    0    0 -0.22804823801E+03  0.53837350263E+02  0.31416021752E+03  0.41137100215E+03  0.12500000000E+03 0.  0.
          1    1    1    2  501    0  0.22804823801E+03 -0.53837350263E+02  0.11739920457E+03  0.26208210999E+03  0.00000000000E+00 0. -1.
<mgrwt>
<rscale>  3 0.26557383E+03</rscale>
<asrwt>0</asrwt>
<pdfrwt beam="1">  1       21 0.18607207E-01 0.26557383E+03</pdfrwt>
<pdfrwt beam="2">  1        1 0.85000962E-01 0.26557383E+03</pdfrwt>
<totfact> 0.11362600E+04</totfact>
</mgrwt>
</event>
<event>
 4    0  0.1176521E-001  0.2772655E+03  0.7546771E-02  0.1097192E+00
          1   -1    0    0  502    0 -0.00000000000E+00  0.00000000000E+00  0.12306158559E+04  0.12306158559E+04  0.00000000000E+00 0.  1.
         21   -1    0    0  501  502  0.00000000000E+00 -0.00000000000E+00 -0.95998171874E+02  0.95998171874E+02  0.00000000000E+00 0. -1.
         25    1    1    2    0    0 -0.13019800186E+03  0.21047481906E+03  0.15799711778E+03  0.31912263845E+03  0.12500000000E+03 0.  0.
          1    1    1    2  501    0  0.13019800186E+03 -0.21047481906E+03  0.97662056624E+03  0.10074913893E+04  0.00000000000E+00 0.  1.
<mgrwt>
<rscale>  3 0.27726552E+03</rscale>
<asrwt>0</asrwt>
<pdfrwt beam="1">  1       21 0.14768950E-01 0.27726552E+03</pdfrwt>
<pdfrwt beam="2">  1        1 0.18932551E+00 0.27726552E+03</pdfrwt>
<totfact> 0.48253216E+03</totfact>
</mgrwt>
</event>
<event>
 4    0  0.1615405E-001  0.2444354E+03  0.7546771E-02  0.1116873E+00
          2   -1    0    0  502    0 -0.00000000000E+00  0.00000000000E+00  0.10790809415E+04  0.10790809415E+04  0.00000000000E+00 0. -1.
         21   -1    0    0  501  502  0.00000000000E+00 -0.00000000000E+00 -0.53192884434E+02  0.53192884434E+02  0.00000000000E+00 0. -1.
         25    1    1    2    0    0 -0.20704188990E+03 -0.35458475644E+02  0.36899254769E+03  0.44261060529E+03  0.12500000000E+03 0.  0.
          2    1    1    2  501    0  0.20704188990E+03  0.35458475644E+02  0.65689550942E+03  0.68966322068E+03  0.00000000000E+00 0. -1.
<mgrwt>
<rscale>  3 0.24443537E+03</rscale>
<asrwt>0</asrwt>
<pdfrwt beam="1">  1       21 0.81835215E-02 0.24443537E+03</pdfrwt>
<pdfrwt beam="2">  1        2 0.16601244E+00 0.24443537E+03</pdfrwt>
<totfact> 0.34258128E+04</totfact>
</mgrwt>
</event>
<event>
 4    0  0.1264570E-001  0.2417565E+03  0.7546771E-02  0.1118628E+00
          2   -1    0    0  502    0 -0.00000000000E+00  0.00000000000E+00  0.10328811236E+04  0.10328811236E+04  0.00000000000E+00 0.  1.
         21   -1    0    0  501  502  0.00000000000E+00 -0.00000000000E+00 -0.12494860401E+03  0.12494860401E+03  0.00000000000E+00 0. -1.
         25    1    1    2    0    0 -0.11591651719E+03  0.17141926639E+03  0.16086232951E+02  0.24229108679E+03  0.12500000000E+03 0.  0.
          2    1    1    2  501    0  0.11591651719E+03 -0.17141926639E+03  0.89184628667E+03  0.91553864086E+03  0.00000000000E+00 0.  1.
<mgrwt>
<rscale>  3 0.24175650E+03</rscale>
<asrwt>0</asrwt>
<pdfrwt beam="1">  1       21 0.19222863E-01 0.24175650E+03</pdfrwt>
<pdfrwt beam="2">  1        2 0.15890478E+00 0.24175650E+03</pdfrwt>
<totfact> 0.78053231E+03</totfact>
</mgrwt>
</event>
<event>
 4    0  0.1129807E-001  0.3526791E+03  0.7546771E-02  0.1061521E+00
          2   -1    0    0  502    0 -0.00000000000E+00  0.00000000000E+00  0.60299979092E+03  0.60299979092E+03  0.00000000000E+00 0.  1.
         21   -1    0    0  501  502  0.00000000000E+00 -0.00000000000E+00 -0.32981882742E+03  0.32981882742E+03  0.00000000000E+00 0. -1.
         25    1    1    2    0    0  0.32909733394E+03  0.21271355810E+02 -0.16092020245E+03  0.38765685514E+03  0.12500000000E+03 0.  0.
          2    1    1    2  501    0 -0.32909733394E+03 -0.21271355810E+02  0.43410116595E+03  0.54516176321E+03  0.00000000000E+00 0.  1.
<mgrwt>
<rscale>  3 0.35267907E+03</rscale>
<asrwt>0</asrwt>
<pdfrwt beam="1">  1       21 0.50741358E-01 0.35267907E+03</pdfrwt>
<pdfrwt beam="2">  1        2 0.92769198E-01 0.35267907E+03</pdfrwt>
<totfact> 0.22089843E+03</totfact>
</mgrwt>
</event>
<event>
 4    0  0.1140081E-001  0.3669941E+03  0.7546771E-02  0.1055848E+00
         21   -1    0    0  501  502  0.00000000000E+00  0.00000000000E+00  0.59121622269E+02  0.59121622269E+02  0.00000000000E+00 0. -1.
          2   -1    0    0  502    0 -0.00000000000E+00 -0.00000000000E+00 -0.30070431792E+04  0.30070431792E+04  0.00000000000E+00 0. -1.
         25    1    1    2    0    0 -0.32427309731E+03 -0.11792636199E+03 -0.68526597836E+03  0.77735071209E+03  0.12500000000E+03 0.  0.
          2    1    1    2  501    0  0.32427309731E+03  0.11792636199E+03 -0.22626555786E+04  0.22888140894E+04  0.00000000000E+00 0. -1.
<mgrwt>
<rscale>  3 0.36699410E+03</rscale>
<asrwt>0</asrwt>
<pdfrwt beam="1">  1       21 0.90956278E-02 0.36699410E+03</pdfrwt>
<pdfrwt beam="2">  1        2 0.46262235E+00 0.36699410E+03</pdfrwt>
<totfact> 0.23932947E+03</totfact>
</mgrwt>
</event>
<event>
 4    0  0.1536058E-001  0.3302223E+03  0.7546771E-02  0.1071039E+00
          2   -1    0    0  502    0 -0.00000000000E+00  0.00000000000E+00  0.72190005040E+03  0.72190005040E+03  0.00000000000E+00 0. -1.
         21   -1    0    0  501  502  0.00000000000E+00 -0.00000000000E+00 -0.22470817595E+03  0.22470817595E+03  0.00000000000E+00 0. -1.
         25    1    1    2    0    0 -0.64960128114E+02  0.29866696878E+03 -0.35839989038E+02  0.33216152893E+03  0.12500000000E+03 0.  0.
          2    1    1    2  501    0  0.64960128114E+02 -0.29866696878E+03  0.53303186349E+03  0.61444669743E+03  0.00000000000E+00 0. -1.
<mgrwt>
<rscale>  3 0.33022231E+03</rscale>
<asrwt>0</asrwt>
<pdfrwt beam="1">  1       21 0.34570489E-01 0.33022231E+03</pdfrwt>
<pdfrwt beam="2">  1        2 0.11106155E+00 0.33022231E+03</pdfrwt>
<totfact> 0.39415645E+03</totfact>
</mgrwt>
</event>
<event>
 4    0  0.1002184E-001  0.6594496E+03  0.7546771E-02  0.9789208E-01
         21   -1    0    0  501  502  0.00000000000E+00  0.00000000000E+00  0.75519417622E+03  0.75519417622E+03  0.00000000000E+00 0. -1.
          4   -1    0    0  502    0 -0.00000000000E+00 -0.00000000000E+00 -0.61057750882E+03  0.61057750882E+03  0.00000000000E+00 0. -1.
         25    1    1    2    0    0  0.10609200778E+03 -0.63874345575E+03 -0.11272082901E+03  0.66901397719E+03  0.12500000000E+03 0.  0.
          4    1    1    2  501    0 -0.10609200778E+03  0.63874345575E+03  0.25733749641E+03  0.69675770784E+03  0.00000000000E+00 0. -1.
<mgrwt>
<rscale>  3 0.65944956E+03</rscale>
<asrwt>0</asrwt>
<pdfrwt beam="1">  1       21 0.11618372E+00 0.65944956E+03</pdfrwt>
<pdfrwt beam="2">  1        4 0.93935001E-01 0.65944956E+03</pdfrwt>
<totfact> 0.21096226E+01</totfact>
</mgrwt>
</event>
<event>
 4    0  0.1335943E-001  0.2486251E+03  0.7546771E-02  0.1114177E+00
          2   -1    0    0  502    0 -0.00000000000E+00  0.00000000000E+00  0.29777172271E+04  0.29777172271E+04  0.00000000000E+00 0.  1.
         21   -1    0    0  501  502  0.00000000000E+00 -0.00000000000E+00 -0.22634419155E+02  0.22634419155E+02  0.00000000000E+00 0.  1.
         25    1    1    2    0    0  0.11855995483E+03  0.17925672260E+03  0.88871293994E+03  0.92283537270E+03  0.12500000000E+03 0.  0.
          2    1    1    2  501    0 -0.11855995483E+03 -0.17925672260E+03  0.20663698680E+04  0.20775162736E+04  0.00000000000E+00 0.  1.
<mgrwt>
<rscale>  3 0.24862509E+03</rscale>
<asrwt>0</asrwt>
<pdfrwt beam="1">  1       21 0.34822207E-02 0.24862509E+03</pdfrwt>
<pdfrwt beam="2">  1        2 0.45811003E+00 0.24862509E+03</pdfrwt>
<totfact> 0.13641281E+04</totfact>
</mgrwt>
</event>
<event>
 4    0  0.1002184E-001  0.2405206E+03  0.7546771E-02  0.1119447E+00
          2   -1    0    0  502    0 -0.00000000000E+00  0.00000000000E+00  0.36312285273E+04  0.36312285273E+04  0.00000000000E+00 0. -1.
         21   -1    0    0  501  502  0.00000000000E+00 -0.00000000000E+00 -0.21956639557E+02  0.21956639557E+02  0.00000000000E+00 0.  1.
         25    1    1    2    0    0 -0.93248513658E+02 -0.18311159196E+03  0.77478259901E+03  0.81125718249E+03  0.12500000000E+03 0.  0.
          2    1    1    2  501    0  0.93248513658E+02  0.18311159196E+03  0.28344892887E+04  0.28419279844E+04  0.00000000000E+00 0. -1.
<mgrwt>
<rscale>  3 0.24052056E+03</rscale>
<asrwt>0</asrwt>
<pdfrwt beam="1">  1       21 0.33779474E-02 0.24052056E+03</pdfrwt>
<pdfrwt beam="2">  1        2 0.55865007E+00 0.24052056E+03</pdfrwt>
<totfact> 0.55684220E+03</totfact>
</mgrwt>
</event>
<event>
 4    0  0.1334027E-001  0.2738002E+03  0.7546771E-02  0.1099124E+00
         21   -1    0    0  501  502  0.00000000000E+00  0.00000000000E+00  0.30824972511E+03  0.30824972511E+03  0.00000000000E+00 0.  1.
          1   -1    0    0  502    0 -0.00000000000E+00 -0.00000000000E+00 -0.37804381163E+03  0.37804381163E+03  0.00000000000E+00 0.  1.
         25    1    1    2    0    0 -0.78831807911E+02 -0.23049310992E+03  0.18759855403E+03  0.33190321652E+03  0.12500000000E+03 0.  0.
          1    1    1    2  501    0  0.78831807911E+02  0.23049310992E+03 -0.25739264055E+03  0.35439032022E+03  0.00000000000E+00 0.  1.
<mgrwt>
<rscale>  3 0.27380016E+03</rscale>
<asrwt>0</asrwt>
<pdfrwt beam="1">  1       21 0.47423035E-01 0.27380016E+03</pdfrwt>
<pdfrwt beam="2">  1        1 0.58160586E-01 0.27380016E+03</pdfrwt>
<totfact> 0.29666168E+03</totfact>
</mgrwt>
</event>
<event>
 4    0  0.1676574E-001  0.2696395E+03  0.7546771E-02  0.1101486E+00
         21   -1    0    0  501  502  0.00000000000E+00  0.00000000000E+00  0.40510684756E+03  0.40510684756E+03  0.00000000000E+00 0.  1.
          2   -1    0    0  502    0 -0.00000000000E+00 -0.00000000000E+00 -0.12195291061E+04  0.12195291061E+04  0.00000000000E+00 0.  1.
         25    1    1    2    0    0  0.72356082532E+02 -0.22769505368E+03  0.34668733978E+03  0.43920103792E+03  0.12500000000E+03 0.  0.
          2    1    1    2  501    0 -0.72356082532E+02  0.22769505368E+03 -0.11611095983E+04  0.11854349158E+04  0.00000000000E+00 0.  1.
<mgrwt>
<rscale>  3 0.26963946E+03</rscale>
<asrwt>0</asrwt>
<pdfrwt beam="1">  1       21 0.62324132E-01 0.26963946E+03</pdfrwt>
<pdfrwt beam="2">  1        2 0.18761986E+00 0.26963946E+03</pdfrwt>
<totfact> 0.56790088E+02</totfact>
</mgrwt>
</event>
<event>
 4    0  0.1002184E-001  0.2378057E+03  0.7546771E-02  0.1121263E+00
          2   -1    0    0  502    0 -0.00000000000E+00  0.00000000000E+00  0.23770214152E+04  0.23770214152E+04  0.00000000000E+00 0. -1.
         21   -1    0    0  501  502  0.00000000000E+00 -0.00000000000E+00 -0.34623764373E+03  0.34623764373E+03  0.00000000000E+00 0.  1.
         25    1    1    2    0    0  0.30667960754E+02 -0.19996507042E+03 -0.30050089111E+03  0.38321317665E+03  0.12500000000E+03 0.  0.
          2    1    1    2  501    0 -0.30667960754E+02  0.19996507042E+03  0.23312846626E+04  0.23400458823E+04  0.00000000000E+00 0. -1.
<mgrwt>
<rscale>  3 0.23780570E+03</rscale>
<asrwt>0</asrwt>
<pdfrwt beam="1">  1       21 0.53267331E-01 0.23780570E+03</pdfrwt>
<pdfrwt beam="2">  1        2 0.36569559E+00 0.23780570E+03</pdfrwt>
<totfact> 0.19598464E+02</totfact>
</mgrwt>
</event>
<event>
 4    0  0.1029384E-001  0.3336902E+03  0.7546771E-02  0.1069516E+00
          2   -1    0    0  502    0 -0.00000000000E+00  0.00000000000E+00  0.12804725162E+04  0.12804725162E+04  0.00000000000E+00 0. -1.
         21   -1    0    0  501  502  0.00000000000E+00 -0.00000000000E+00 -0.10945560143E+03  0.10945560143E+03  0.00000000000E+00 0.  1.
         25    1    1    2    0    0  0.24235457808E+03 -0.19232374974E+03  0.24607173384E+03  0.41460880891E+03  0.12500000000E+03 0.  0.
          2    1    1    2  501    0 -0.24235457808E+03  0.19232374974E+03  0.92494518096E+03  0.97531930875E+03  0.00000000000E+00 0. -1.
<mgrwt>
<rscale>  3 0.33369022E+03</rscale>
<asrwt>0</asrwt>
<pdfrwt beam="1">  1       21 0.16839324E-01 0.33369022E+03</pdfrwt>
<pdfrwt beam="2">  1        2 0.19699576E+00 0.33369022E+03</pdfrwt>
<totfact> 0.70091463E+03</totfact>
</mgrwt>
</event>
<event>
 4    0  0.1547433E-001  0.2393862E+03  0.7546771E-02  0.1120202E+00
          2   -1    0    0  502    0 -0.00000000000E+00  0.00000000000E+00  0.74022752787E+03  0.74022752787E+03  0.00000000000E+00 0. -1.
         21   -1    0    0  501  502  0.00000000000E+00 -0.00000000000E+00 -0.70331693582E+02  0.70331693582E+02  0.00000000000E+00 0. -1.
         25    1    1    2    0    0 -0.37603599328E+02  0.20066575589E+03  0.26506807982E+03  0.35716503637E+03  0.12500000000E+03 0.  0.
          2    1    1    2  501    0  0.37603599328E+02 -0.20066575589E+03  0.40482775447E+03  0.45339418508E+03  0.00000000000E+00 0. -1.
<mgrwt>
<rscale>  3 0.23938625E+03</rscale>
<asrwt>0</asrwt>
<pdfrwt beam="1">  1       21 0.10820261E-01 0.23938625E+03</pdfrwt>
<pdfrwt beam="2">  1        2 0.11388115E+00 0.23938625E+03</pdfrwt>
<totfact> 0.34672914E+04</totfact>
</mgrwt>
</event>
<event>
 4    0  0.2094251E-001  0.3036207E+03  0.7546771E-02  0.1083445E+00
         21   -1    0    0  501  502  0.00000000000E+00  0.00000000000E+00  0.50850873281E+03  0.50850873281E+03  0.00000000000E+00 0.  1.
         -4   -1    0    0    0  501 -0.00000000000E+00 -0.00000000000E+00 -0.10025319472E+04  0.10025319472E+04  0.00000000000E+00 0.  1.
         25    1    1    2    0    0  0.22981346302E+03  0.15409837582E+03  0.44129372067E+03  0.53565444563E+03  0.12500000000E+03 0.  0.
         -4    1    1    2    0  502 -0.22981346302E+03 -0.15409837582E+03 -0.93531693511E+03  0.97538623443E+03  0.00000000000E+00 0.  1.
<mgrwt>
<rscale>  3 0.30362071E+03</rscale>
<asrwt>0</asrwt>
<pdfrwt beam="1">  1       21 0.78232113E-01 0.30362071E+03</pdfrwt>
<pdfrwt beam="2">  1       -4 0.15423568E+00 0.30362071E+03</pdfrwt>
<totfact> 0.17204688E+01</totfact>
</mgrwt>
</event>
<event>
 4    0  0.1339492E-001  0.2815334E+03  0.7546771E-02  0.1094854E+00
          2   -1    0    0  502    0 -0.00000000000E+00  0.00000000000E+00  0.40945902495E+03  0.40945902495E+03  0.00000000000E+00 0.  1.
         21   -1    0    0  501  502  0.00000000000E+00 -0.00000000000E+00 -0.67937892422E+03  0.67937892422E+03  0.00000000000E+00 0.  1.
         25    1    1    2    0    0 -0.11190224483E+03 -0.22608386762E+03 -0.60624162734E+03  0.66842347229E+03  0.12500000000E+03 0.  0.
          2    1    1    2  501    0  0.11190224483E+03  0.22608386762E+03  0.33632172807E+03  0.42041447687E+03  0.00000000000E+00 0.  1.
<mgrwt>
<rscale>  3 0.28153335E+03</rscale>
<asrwt>0</asrwt>
<pdfrwt beam="1">  1       21 0.10451983E+00 0.28153335E+03</pdfrwt>
<pdfrwt beam="2">  1        2 0.62993697E-01 0.28153335E+03</pdfrwt>
<totfact> 0.68585939E+02</totfact>
</mgrwt>
</event>
<event>
 4    0  0.1400201E-001  0.3467321E+03  0.7546771E-02  0.1063964E+00
         21   -1    0    0  501  502  0.00000000000E+00  0.00000000000E+00  0.47517960568E+02  0.47517960568E+02  0.00000000000E+00 0.  1.
          2   -1    0    0  502    0 -0.00000000000E+00 -0.00000000000E+00 -0.25271830995E+04  0.25271830995E+04  0.00000000000E+00 0.  1.
         25    1    1    2    0    0 -0.32055269492E+03  0.42943587884E+02 -0.95200722241E+03  0.10131835636E+04  0.12500000000E+03 0.  0.
          2    1    1    2  501    0  0.32055269492E+03 -0.42943587884E+02 -0.15276579165E+04  0.15615174964E+04  0.00000000000E+00 0.  1.
<mgrwt>
<rscale>  3 0.34673215E+03</rscale>
<asrwt>0</asrwt>
<pdfrwt beam="1">  1       21 0.73104531E-02 0.34673215E+03</pdfrwt>
<pdfrwt beam="2">  1        2 0.38879752E+00 0.34673215E+03</pdfrwt>
<totfact> 0.66928198E+03</totfact>
</mgrwt>
</event>
<event>
 4    0  0.1185467E-001  0.3031062E+03  0.7546771E-02  0.1083698E+00
         21   -1    0    0  501  502  0.00000000000E+00  0.00000000000E+00  0.42473355482E+03  0.42473355482E+03  0.00000000000E+00 0.  1.
          1   -1    0    0  502    0 -0.00000000000E+00 -0.00000000000E+00 -0.21650691754E+03  0.21650691754E+03  0.00000000000E+00 0.  1.
         25    1    1    2    0    0  0.26444831192E+03 -0.79469967851E+02  0.20347383798E+03  0.36506847057E+03  0.12500000000E+03 0.  0.
          1    1    1    2  501    0 -0.26444831192E+03  0.79469967851E+02  0.47527992977E+01  0.27617200178E+03  0.00000000000E+00 0.  1.
<mgrwt>
<rscale>  3 0.30310623E+03</rscale>
<asrwt>0</asrwt>
<pdfrwt beam="1">  1       21 0.65343624E-01 0.30310623E+03</pdfrwt>
<pdfrwt beam="2">  1        1 0.33308757E-01 0.30310623E+03</pdfrwt>
<totfact> 0.30045461E+03</totfact>
</mgrwt>
</event>
<event>
 4    0  0.1160874E-001  0.2423436E+03  0.7546771E-02  0.1118241E+00
         21   -1    0    0  501  502  0.00000000000E+00  0.00000000000E+00  0.81310306281E+02  0.81310306281E+02  0.00000000000E+00 0.  1.
          2   -1    0    0  502    0 -0.00000000000E+00 -0.00000000000E+00 -0.11008522313E+04  0.11008522313E+04  0.00000000000E+00 0. -1.
         25    1    1    2    0    0 -0.50155682969E+01 -0.20755780165E+03 -0.14304416626E+03  0.28141078596E+03  0.12500000000E+03 0.  0.
          2    1    1    2  501    0  0.50155682969E+01  0.20755780165E+03 -0.87649775872E+03  0.90075175159E+03  0.00000000000E+00 0. -1.
<mgrwt>
<rscale>  3 0.24234355E+03</rscale>
<asrwt>0</asrwt>
<pdfrwt beam="1">  1       21 0.12509279E-01 0.24234355E+03</pdfrwt>
<pdfrwt beam="2">  1        2 0.16936186E+00 0.24234355E+03</pdfrwt>
<totfact> 0.15649746E+04</totfact>
</mgrwt>
</event>
<event>
 4    0  0.1002184E-001  0.2957163E+03  0.7546771E-02  0.1087402E+00
         21   -1    0    0  501  502  0.00000000000E+00  0.00000000000E+00  0.12095148081E+04  0.12095148081E+04  0.00000000000E+00 0.  1.
          4   -1    0    0  502    0 -0.00000000000E+00 -0.00000000000E+00 -0.66168991332E+02  0.66168991332E+02  0.00000000000E+00 0.  1.
         25    1    1    2    0    0 -0.26618256890E+03 -0.31144468689E+02  0.54493099311E+03  0.61999832675E+03  0.12500000000E+03 0.  0.
          4    1    1    2  501    0  0.26618256890E+03  0.31144468689E+02  0.59841482364E+03  0.65568547267E+03  0.00000000000E+00 0.  1.
<mgrwt>
<rscale>  3 0.29571631E+03</rscale>
<asrwt>0</asrwt>
<pdfrwt beam="1">  1       21 0.18607918E+00 0.29571631E+03</pdfrwt>
<pdfrwt beam="2">  1        4 0.10179846E-01 0.29571631E+03</pdfrwt>
<totfact> 0.50047046E+02</totfact>
</mgrwt>
</event>
<event>
 4    0  0.1002184E-001  0.2367712E+03  0.7546771E-02  0.1121963E+00
         21   -1    0    0  501  502  0.00000000000E+00  0.00000000000E+00  0.30535763030E+03  0.30535763030E+03  0.00000000000E+00 0. -1.
          2   -1    0    0  502    0 -0.00000000000E+00 -0.00000000000E+00 -0.15724591266E+03  0.15724591266E+03  0.00000000000E+00 0. -1.
         25    1    1    2    0    0  0.20107735554E+03  0.18672442216E+01  0.89865631675E+02  0.25325169549E+03  0.12500000000E+03 0.  0.
          2    1    1    2  501    0 -0.20107735554E+03 -0.18672442216E+01  0.58246085970E+02  0.20935184747E+03  0.00000000000E+00 0. -1.
<mgrwt>
<rscale>  3 0.23677118E+03</rscale>
<asrwt>0</asrwt>
<pdfrwt beam="1">  1       21 0.46978097E-01 0.23677118E+03</pdfrwt>
<pdfrwt beam="2">  1        2 0.24191679E-01 0.23677118E+03</pdfrwt>
<totfact> 0.11786633E+04</totfact>
</mgrwt>
</event>
<event>
 4    0  0.1288747E-001  0.2365954E+03  0.7546771E-02  0.1122082E+00
         21   -1    0    0  501  502  0.00000000000E+00  0.00000000000E+00  0.23304511709E+03  0.23304511709E+03  0.00000000000E+00 0. -1.
          3   -1    0    0  502    0 -0.00000000000E+00 -0.00000000000E+00 -0.24148354222E+03  0.24148354222E+03  0.00000000000E+00 0. -1.
         25    1    1    2    0    0 -0.19641517430E+03  0.42112757183E+02  0.87060007881E+02  0.25210483927E+03  0.12500000000E+03 0.  0.
          3    1    1    2  501    0  0.19641517430E+03 -0.42112757183E+02 -0.95498433007E+02  0.22242382003E+03  0.00000000000E+00 0. -1.
<mgrwt>
<rscale>  3 0.23659545E+03</rscale>
<asrwt>0</asrwt>
<pdfrwt beam="1">  1       21 0.35853095E-01 0.23659545E+03</pdfrwt>
<pdfrwt beam="2">  1        3 0.37151314E-01 0.23659545E+03</pdfrwt>
<totfact> 0.26502321E+03</totfact>
</mgrwt>
</event>
<event>
 4    0  0.1002184E-001  0.4122583E+03  0.7546771E-02  0.1039616E+00
          1   -1    0    0  502    0 -0.00000000000E+00  0.00000000000E+00  0.33829128135E+04  0.33829128135E+04  0.00000000000E+00 0. -1.
         21   -1    0    0  501  502  0.00000000000E+00 -0.00000000000E+00 -0.52777776146E+02  0.52777776146E+02  0.00000000000E+00 0.  1.
         25    1    1    2    0    0  0.13327743539E+03 -0.36955252552E+03  0.11795339042E+04  0.12495027712E+04  0.12500000000E+03 0.  0.
          1    1    1    2  501    0 -0.13327743539E+03  0.36955252552E+03  0.21506011331E+04  0.21861878185E+04  0.00000000000E+00 0. -1.
<mgrwt>
<rscale>  3 0.41225835E+03</rscale>
<asrwt>0</asrwt>
<pdfrwt beam="1">  1       21 0.81196605E-02 0.41225835E+03</pdfrwt>
<pdfrwt beam="2">  1        1 0.52044795E+00 0.41225835E+03</pdfrwt>
<totfact> 0.46663840E+02</totfact>
</mgrwt>
</event>
<event>
 4    0  0.1477456E-001  0.2466193E+03  0.7546771E-02  0.1115460E+00
          2   -1    0    0  502    0 -0.00000000000E+00  0.00000000000E+00  0.23342113434E+04  0.23342113434E+04  0.00000000000E+00 0. -1.
         21   -1    0    0  501  502  0.00000000000E+00 -0.00000000000E+00 -0.30045860529E+02  0.30045860529E+02  0.00000000000E+00 0. -1.
         25    1    1    2    0    0  0.18621244501E+03  0.10257190142E+03  0.62841402495E+03  0.67507425991E+03  0.12500000000E+03 0.  0.
          2    1    1    2  501    0 -0.18621244501E+03 -0.10257190142E+03  0.16757514579E+04  0.16891829440E+04  0.00000000000E+00 0. -1.
<mgrwt>
<rscale>  3 0.24661928E+03</rscale>
<asrwt>0</asrwt>
<pdfrwt beam="1">  1       21 0.46224419E-02 0.24661928E+03</pdfrwt>
<pdfrwt beam="2">  1        2 0.35910930E+00 0.24661928E+03</pdfrwt>
<totfact> 0.19396941E+04</totfact>
</mgrwt>
</event>
<event>
 4    0  0.1002184E-001  0.2384022E+03  0.7546771E-02  0.1120862E+00
         21   -1    0    0  501  502  0.00000000000E+00  0.00000000000E+00  0.13096798110E+04  0.13096798110E+04  0.00000000000E+00 0.  1.
          2   -1    0    0  502    0 -0.00000000000E+00 -0.00000000000E+00 -0.28780771635E+03  0.28780771635E+03  0.00000000000E+00 0. -1.
         25    1    1    2    0    0  0.14706174779E+03  0.13994082119E+03  0.12612712029E+04  0.12836045490E+04  0.12500000000E+03 0.  0.
          2    1    1    2  501    0 -0.14706174779E+03 -0.13994082119E+03 -0.23939910818E+03  0.31388297835E+03  0.00000000000E+00 0. -1.
<mgrwt>
<rscale>  3 0.23840216E+03</rscale>
<asrwt>0</asrwt>
<pdfrwt beam="1">  1       21 0.20148920E+00 0.23840216E+03</pdfrwt>
<pdfrwt beam="2">  1        2 0.44278111E-01 0.23840216E+03</pdfrwt>
<totfact> 0.17953232E+02</totfact>
</mgrwt>
</event>
<event>
 4    0  0.1002184E-001  0.2467722E+03  0.7546771E-02  0.1115362E+00
          2   -1    0    0  502    0 -0.00000000000E+00  0.00000000000E+00  0.34389092615E+04  0.34389092615E+04  0.00000000000E+00 0.  1.
         21   -1    0    0  501  502  0.00000000000E+00 -0.00000000000E+00 -0.63023638164E+02  0.63023638164E+02  0.00000000000E+00 0.  1.
         25    1    1    2    0    0 -0.19080807906E+01  0.21276250137E+03  0.19653847525E+03  0.31547407978E+03  0.12500000000E+03 0.  0.
          2    1    1    2  501    0  0.19080807906E+01 -0.21276250137E+03  0.31793471481E+04  0.31864588199E+04  0.00000000000E+00 0.  1.
<mgrwt>
<rscale>  3 0.24677221E+03</rscale>
<asrwt>0</asrwt>
<pdfrwt beam="1">  1       21 0.96959470E-02 0.24677221E+03</pdfrwt>
<pdfrwt beam="2">  1        2 0.52906282E+00 0.24677221E+03</pdfrwt>
<totfact> 0.12174684E+03</totfact>
</mgrwt>
</event>
<event>
 4    0  0.1034229E-001  0.2522008E+03  0.7546771E-02  0.1111922E+00
         21   -1    0    0  501  502  0.00000000000E+00  0.00000000000E+00  0.98303752476E+03  0.98303752476E+03  0.00000000000E+00 0.  1.
          1   -1    0    0  502    0 -0.00000000000E+00 -0.00000000000E+00 -0.90504096501E+02  0.90504096501E+02  0.00000000000E+00 0.  1.
         25    1    1    2    0    0  0.13404907593E+03  0.17323713250E+03  0.79448682522E+03  0.83355538166E+03  0.12500000000E+03 0.  0.
          1    1    1    2  501    0 -0.13404907593E+03 -0.17323713250E+03  0.98046603032E+02  0.23998623960E+03  0.00000000000E+00 0.  1.
<mgrwt>
<rscale>  3 0.25220083E+03</rscale>
<asrwt>0</asrwt>
<pdfrwt beam="1">  1       21 0.15123654E+00 0.25220083E+03</pdfrwt>
<pdfrwt beam="2">  1        1 0.13923708E-01 0.25220083E+03</pdfrwt>
<totfact> 0.12512231E+03</totfact>
</mgrwt>
</event>
<event>
 4    0  0.1197741E-001  0.3385448E+03  0.7546771E-02  0.1067417E+00
          2   -1    0    0  502    0 -0.00000000000E+00  0.00000000000E+00  0.33020710829E+03  0.33020710829E+03  0.00000000000E+00 0. -1.
         21   -1    0    0  501  502  0.00000000000E+00 -0.00000000000E+00 -0.32311856408E+03  0.32311856408E+03  0.00000000000E+00 0. -1.
         25    1    1    2    0    0 -0.42300795592E+02 -0.31176629494E+03 -0.25696100911E+01  0.33855454931E+03  0.12500000000E+03 0.  0.
          2    1    1    2  501    0  0.42300795592E+02  0.31176629494E+03  0.96581542927E+01  0.31477112306E+03  0.00000000000E+00 0. -1.
<mgrwt>
<rscale>  3 0.33854480E+03</rscale>
<asrwt>0</asrwt>
<pdfrwt beam="1">  1       21 0.49710548E-01 0.33854480E+03</pdfrwt>
<pdfrwt beam="2">  1        2 0.50801094E-01 0.33854480E+03</pdfrwt>
<totfact> 0.45486102E+03</totfact>
</mgrwt>
</event>
<event>
 4    0  0.1115064E-001  0.3559366E+03  0.7546771E-02  0.1060204E+00
         21   -1    0    0  501  502  0.00000000000E+00  0.00000000000E+00  0.43872424563E+02  0.43872424563E+02  0.00000000000E+00 0.  1.
          2   -1    0    0  502    0 -0.00000000000E+00 -0.00000000000E+00 -0.30816760535E+04  0.30816760535E+04  0.00000000000E+00 0.  1.
         25    1    1    2    0    0  0.62007472753E+02 -0.32744613169E+03 -0.10179166288E+04  0.10783529844E+04  0.12500000000E+03 0.  0.
          2    1    1    2  501    0 -0.62007472753E+02  0.32744613169E+03 -0.20198870002E+04  0.20471954937E+04  0.00000000000E+00 0.  1.
<mgrwt>
<rscale>  3 0.35593665E+03</rscale>
<asrwt>0</asrwt>
<pdfrwt beam="1">  1       21 0.67496036E-02 0.35593665E+03</pdfrwt>
<pdfrwt beam="2">  1        2 0.47410402E+00 0.35593665E+03</pdfrwt>
<totfact> 0.36645328E+03</totfact>
</mgrwt>
</event>
<event>
 4    0  0.1002184E-001  0.5569328E+03  0.7546771E-02  0.9999019E-01
         21   -1    0    0  501  502  0.00000000000E+00  0.00000000000E+00  0.10433397589E+04  0.10433397589E+04  0.00000000000E+00 0. -1.
          1   -1    0    0  502    0 -0.00000000000E+00 -0.00000000000E+00 -0.31417265160E+03  0.31417265160E+03  0.00000000000E+00 0. -1.
         25    1    1    2    0    0  0.42523155435E+03 -0.33723468812E+03  0.17970992802E+03  0.58520916596E+03  0.12500000000E+03 0.  0.
          1    1    1    2  501    0 -0.42523155435E+03  0.33723468812E+03  0.54945717933E+03  0.77230324459E+03  0.00000000000E+00 0. -1.
<mgrwt>
<rscale>  3 0.55693277E+03</rscale>
<asrwt>0</asrwt>
<pdfrwt beam="1">  1       21 0.16051381E+00 0.55693277E+03</pdfrwt>
<pdfrwt beam="2">  1        1 0.48334255E-01 0.55693277E+03</pdfrwt>
<totfact> 0.19272353E+02</totfact>
</mgrwt>
</event>
<event>
 4    0  0.1346685E-001  0.2432876E+03  0.7546771E-02  0.1117622E+00
         21   -1    0    0  501  502  0.00000000000E+00  0.00000000000E+00  0.15314840932E+03  0.15314840932E+03  0.00000000000E+00 0. -1.
          3   -1    0    0  502    0 -0.00000000000E+00 -0.00000000000E+00 -0.34815357912E+03  0.34815357912E+03  0.00000000000E+00 0. -1.
         25    1    1    2    0    0 -0.16915446165E+03 -0.12227280002E+03 -0.53397372685E+02  0.24907859990E+03  0.12500000000E+03 0.  0.
          3    1    1    2  501    0  0.16915446165E+03  0.12227280002E+03 -0.14160779711E+03  0.25222338853E+03  0.00000000000E+00 0. -1.
<mgrwt>
<rscale>  3 0.24328763E+03</rscale>
<asrwt>0</asrwt>
<pdfrwt beam="1">  1       21 0.23561294E-01 0.24328763E+03</pdfrwt>
<pdfrwt beam="2">  1        3 0.53562089E-01 0.24328763E+03</pdfrwt>
<totfact> 0.29127726E+03</totfact>
</mgrwt>
</event>
<event>
 4    0  0.1316066E-001  0.2489956E+03  0.7546771E-02  0.1113941E+00
          1   -1    0    0  502    0 -0.00000000000E+00  0.00000000000E+00  0.25037348862E+04  0.25037348862E+04  0.00000000000E+00 0.  1.
         21   -1    0    0  501  502  0.00000000000E+00 -0.00000000000E+00 -0.92697930211E+02  0.92697930211E+02  0.00000000000E+00 0. -1.
         25    1    1    2    0    0 -0.17919557261E+03  0.11942688305E+03  0.88987774689E+02  0.26441947296E+03  0.12500000000E+03 0.  0.
          1    1    1    2  501    0  0.17919557261E+03 -0.11942688305E+03  0.23220491813E+04  0.23320133435E+04  0.00000000000E+00 0.  1.
<mgrwt>
<rscale>  3 0.24899565E+03</rscale>
<asrwt>0</asrwt>
<pdfrwt beam="1">  1       21 0.14261222E-01 0.24899565E+03</pdfrwt>
<pdfrwt beam="2">  1        1 0.38518993E+00 0.24899565E+03</pdfrwt>
<totfact> 0.75433254E+02</totfact>
</mgrwt>
</event>
<event>
 4    0  0.1584073E-001  0.3483872E+03  0.7546771E-02  0.1063279E+00
          2   -1    0    0  502    0 -0.00000000000E+00  0.00000000000E+00  0.15073416063E+04  0.15073416063E+04  0.00000000000E+00 0. -1.
         21   -1    0    0  501  502  0.00000000000E+00 -0.00000000000E+00 -0.99006973540E+02  0.99006973540E+02  0.00000000000E+00 0. -1.
         25    1    1    2    0    0 -0.10631232804E+03 -0.30732119991E+03  0.32933689549E+03  0.47941257987E+03  0.12500000000E+03 0.  0.
          2    1    1    2  501    0  0.10631232804E+03  0.30732119991E+03  0.10789977373E+04  0.11269360000E+04  0.00000000000E+00 0. -1.
<mgrwt>
<rscale>  3 0.34838719E+03</rscale>
<asrwt>0</asrwt>
<pdfrwt beam="1">  1       21 0.15231843E-01 0.34838719E+03</pdfrwt>
<pdfrwt beam="2">  1        2 0.23189869E+00 0.34838719E+03</pdfrwt>
<totfact> 0.63100786E+03</totfact>
</mgrwt>
</event>
<event>
 4    0  0.1002184E-001  0.3816652E+03  0.7546771E-02  0.1050320E+00
         -3   -1    0    0    0  501 -0.00000000000E+00  0.00000000000E+00  0.46965016412E+03  0.46965016412E+03  0.00000000000E+00 0.  1.
         21   -1    0    0  501  502  0.00000000000E+00 -0.00000000000E+00 -0.57452524581E+03  0.57452524581E+03  0.00000000000E+00 0. -1.
         25    1    1    2    0    0  0.40590232622E+02  0.35832350861E+03 -0.41839806800E+03  0.56632609609E+03  0.12500000000E+03 0.  0.
         -3    1    1    2    0  502 -0.40590232622E+02 -0.35832350861E+03  0.31352298631E+03  0.47784931385E+03  0.00000000000E+00 0.  1.
<mgrwt>
<rscale>  3 0.38166517E+03</rscale>
<asrwt>0</asrwt>
<pdfrwt beam="1">  1       21 0.88388499E-01 0.38166517E+03</pdfrwt>
<pdfrwt beam="2">  1       -3 0.72253872E-01 0.38166517E+03</pdfrwt>
<totfact> 0.95185777E+01</totfact>
</mgrwt>
</event>
<event>
 4    0  0.1878968E-001  0.2959683E+03  0.7546771E-02  0.1087274E+00
         21   -1    0    0  501  502  0.00000000000E+00  0.00000000000E+00  0.21846998057E+03  0.21846998057E+03  0.00000000000E+00 0. -1.
         -4   -1    0    0    0  501 -0.00000000000E+00 -0.00000000000E+00 -0.41115991426E+03  0.41115991426E+03  0.00000000000E+00 0. -1.
         25    1    1    2    0    0 -0.25922822913E+03  0.69086814544E+02 -0.20667800429E+03  0.36098900285E+03  0.12500000000E+03 0.  0.
         -4    1    1    2    0  502  0.25922822913E+03 -0.69086814544E+02  0.13988070601E+02  0.26864089198E+03  0.00000000000E+00 0. -1.
<mgrwt>
<rscale>  3 0.29596835E+03</rscale>
<asrwt>0</asrwt>
<pdfrwt beam="1">  1       21 0.33610767E-01 0.29596835E+03</pdfrwt>
<pdfrwt beam="2">  1       -4 0.63255370E-01 0.29596835E+03</pdfrwt>
<totfact> 0.84862059E+02</totfact>
</mgrwt>
</event>
<event>
 4    0  0.1002184E-001  0.2607058E+03  0.7546771E-02  0.1106720E+00
          2   -1    0    0  502    0 -0.00000000000E+00  0.00000000000E+00  0.76946154573E+02  0.76946154573E+02  0.00000000000E+00 0.  1.
         21   -1    0    0  501  502  0.00000000000E+00 -0.00000000000E+00 -0.18908695957E+04  0.18908695957E+04  0.00000000000E+00 0.  1.
         25    1    1    2    0    0  0.17175757034E+03 -0.15113514283E+03 -0.16853156796E+04  0.17053610862E+04  0.12500000000E+03 0.  0.
          2    1    1    2  501    0 -0.17175757034E+03  0.15113514283E+03 -0.12860776149E+03  0.26245466405E+03  0.00000000000E+00 0.  1.
<mgrwt>
<rscale>  3 0.26070576E+03</rscale>
<asrwt>0</asrwt>
<pdfrwt beam="1">  1       21 0.29090300E+00 0.26070576E+03</pdfrwt>
<pdfrwt beam="2">  1        2 0.11837870E-01 0.26070576E+03</pdfrwt>
<totfact> 0.22868675E+02</totfact>
</mgrwt>
</event>
<event>
 4    0  0.1213198E-001  0.3728827E+03  0.7546771E-02  0.1053596E+00
         -1   -1    0    0    0  501 -0.00000000000E+00  0.00000000000E+00  0.14043740185E+04  0.14043740185E+04  0.00000000000E+00 0.  1.
         21   -1    0    0  501  502  0.00000000000E+00 -0.00000000000E+00 -0.21345853400E+03  0.21345853400E+03  0.00000000000E+00 0. -1.
         25    1    1    2    0    0  0.76498924549E+02 -0.34287673005E+03 -0.34229856045E+01  0.37289845038E+03  0.12500000000E+03 0.  0.
         -1    1    1    2    0  502 -0.76498924549E+02  0.34287673005E+03  0.11943384701E+04  0.12449341021E+04  0.00000000000E+00 0.  1.
<mgrwt>
<rscale>  3 0.37288274E+03</rscale>
<asrwt>0</asrwt>
<pdfrwt beam="1">  1       21 0.32839775E-01 0.37288274E+03</pdfrwt>
<pdfrwt beam="2">  1       -1 0.21605754E+00 0.37288274E+03</pdfrwt>
<totfact> 0.10229041E+02</totfact>
</mgrwt>
</event>
<event>
 4    0  0.1602915E-001  0.3397548E+03  0.7546771E-02  0.1066900E+00
          1   -1    0    0  502    0 -0.00000000000E+00  0.00000000000E+00  0.72166394514E+03  0.72166394514E+03  0.00000000000E+00 0. -1.
         21   -1    0    0  501  502  0.00000000000E+00 -0.00000000000E+00 -0.51196972002E+03  0.51196972002E+03  0.00000000000E+00 0. -1.
         25    1    1    2    0    0 -0.43230705133E+02 -0.31295279136E+03 -0.41335414178E+03  0.53506540723E+03  0.12500000000E+03 0.  0.
          1    1    1    2  501    0  0.43230705133E+02  0.31295279136E+03  0.62304836690E+03  0.69856825793E+03  0.00000000000E+00 0. -1.
<mgrwt>
<rscale>  3 0.33975483E+03</rscale>
<asrwt>0</asrwt>
<pdfrwt beam="1">  1       21 0.78764573E-01 0.33975483E+03</pdfrwt>
<pdfrwt beam="2">  1        1 0.11102522E+00 0.33975483E+03</pdfrwt>
<totfact> 0.39741746E+02</totfact>
</mgrwt>
</event>
<event>
 4    0  0.1002184E-001  0.2446166E+03  0.7546771E-02  0.1116755E+00
         -1   -1    0    0    0  501 -0.00000000000E+00  0.00000000000E+00  0.70098143828E+03  0.70098143828E+03  0.00000000000E+00 0. -1.
         21   -1    0    0  501  502  0.00000000000E+00 -0.00000000000E+00 -0.80099213616E+02  0.80099213616E+02  0.00000000000E+00 0.  1.
         25    1    1    2    0    0  0.20782536269E+03 -0.31951322703E+02  0.22277378645E+03  0.33085560042E+03  0.12500000000E+03 0.  0.
         -1    1    1    2    0  502 -0.20782536269E+03  0.31951322703E+02  0.39810843822E+03  0.45022505148E+03  0.00000000000E+00 0. -1.
<mgrwt>
<rscale>  3 0.24461657E+03</rscale>
<asrwt>0</asrwt>
<pdfrwt beam="1">  1       21 0.12322956E-01 0.24461657E+03</pdfrwt>
<pdfrwt beam="2">  1       -1 0.10784329E+00 0.24461657E+03</pdfrwt>
<totfact> 0.44189382E+03</totfact>
</mgrwt>
</event>
<event>
 4    0  0.1387402E-001  0.2385934E+03  0.7546771E-02  0.1120733E+00
         -1   -1    0    0    0  501 -0.00000000000E+00  0.00000000000E+00  0.24391010809E+03  0.24391010809E+03  0.00000000000E+00 0.  1.
         21   -1    0    0  501  502  0.00000000000E+00 -0.00000000000E+00 -0.49680439782E+03  0.49680439782E+03  0.00000000000E+00 0.  1.
         25    1    1    2    0    0 -0.19314979155E+03 -0.63205898848E+02 -0.41637673219E+03  0.47989208238E+03  0.12500000000E+03 0.  0.
         -1    1    1    2    0  502  0.19314979155E+03  0.63205898848E+02  0.16348244246E+03  0.26082242353E+03  0.00000000000E+00 0.  1.
<mgrwt>
<rscale>  3 0.23859344E+03</rscale>
<asrwt>0</asrwt>
<pdfrwt beam="1">  1       21 0.76431444E-01 0.23859344E+03</pdfrwt>
<pdfrwt beam="2">  1       -1 0.37524633E-01 0.23859344E+03</pdfrwt>
<totfact> 0.95118322E+02</totfact>
</mgrwt>
</event>
<event>
 4    0  0.1002184E-001  0.2628514E+03  0.7546771E-02  0.1105442E+00
         21   -1    0    0  501  502  0.00000000000E+00  0.00000000000E+00  0.20605535990E+02  0.20605535990E+02  0.00000000000E+00 0. -1.
          2   -1    0    0  502    0 -0.00000000000E+00 -0.00000000000E+00 -0.31421278540E+04  0.31421278540E+04  0.00000000000E+00 0.  1.
         25    1    1    2    0    0 -0.22285390538E+03 -0.61660511171E+02 -0.12767643427E+04  0.13035405896E+04  0.12500000000E+03 0.  0.
          2    1    1    2  501    0  0.22285390538E+03  0.61660511171E+02 -0.18447579753E+04  0.18591928004E+04  0.00000000000E+00 0.  1.
<mgrwt>
<rscale>  3 0.26285144E+03</rscale>
<asrwt>0</asrwt>
<pdfrwt beam="1">  1       21 0.31700850E-02 0.26285144E+03</pdfrwt>
<pdfrwt beam="2">  1        2 0.48340389E+00 0.26285144E+03</pdfrwt>
<totfact> 0.12654279E+04</totfact>
</mgrwt>
</event>
<event>
 4    0  0.1002184E-001  0.3683329E+03  0.7546771E-02  0.1055332E+00
         -4   -1    0    0    0  501 -0.00000000000E+00  0.00000000000E+00  0.17846035801E+03  0.17846035801E+03  0.00000000000E+00 0.  1.
         21   -1    0    0  501  502  0.00000000000E+00 -0.00000000000E+00 -0.72653470572E+03  0.72653470572E+03  0.00000000000E+00 0. -1.
         25    1    1    2    0    0  0.31434811639E+03  0.14570310527E+03 -0.33733850196E+03  0.49946611304E+03  0.12500000000E+03 0.  0.
         -4    1    1    2    0  502 -0.31434811639E+03 -0.14570310527E+03 -0.21073584575E+03  0.40552895069E+03  0.00000000000E+00 0.  1.
<mgrwt>
<rscale>  3 0.36833291E+03</rscale>
<asrwt>0</asrwt>
<pdfrwt beam="1">  1       21 0.11177457E+00 0.36833291E+03</pdfrwt>
<pdfrwt beam="2">  1       -4 0.27455440E-01 0.36833291E+03</pdfrwt>
<totfact> 0.32316400E+02</totfact>
</mgrwt>
</event>
<event>
 4    0  0.1598016E-001  0.2539517E+03  0.7546771E-02  0.1110833E+00
          2   -1    0    0  502    0 -0.00000000000E+00  0.00000000000E+00  0.16187564339E+04  0.16187564339E+04  0.00000000000E+00 0. -1.
         21   -1    0    0  501  502  0.00000000000E+00 -0.00000000000E+00 -0.39421551955E+02  0.39421551955E+02  0.00000000000E+00 0. -1.
         25    1    1    2    0    0  0.80533322100E+02 -0.20586605193E+03  0.11198416952E+04  0.11482756070E+04  0.12500000000E+03 0.  0.
          2    1    1    2  501    0 -0.80533322100E+02  0.20586605193E+03  0.45949318674E+03  0.50990237886E+03  0.00000000000E+00 0. -1.
<mgrwt>
<rscale>  3 0.25395166E+03</rscale>
<asrwt>0</asrwt>
<pdfrwt beam="1">  1       21 0.60648554E-02 0.25395166E+03</pdfrwt>
<pdfrwt beam="2">  1        2 0.24903940E+00 0.25395166E+03</pdfrwt>
<totfact> 0.28996226E+04</totfact>
</mgrwt>
</event>
<event>
 4    0  0.1194899E-001  0.3165345E+03  0.7546771E-02  0.1077255E+00
          1   -1    0    0  502    0 -0.00000000000E+00  0.00000000000E+00  0.22288480695E+04  0.22288480695E+04  0.00000000000E+00 0.  1.
         21   -1    0    0  501  502  0.00000000000E+00 -0.00000000000E+00 -0.52911248551E+03  0.52911248551E+03  0.00000000000E+00 0.  1.
         25    1    1    2    0    0  0.28331783543E+03  0.65575315797E+02 -0.47119264729E+03  0.56764128530E+03  0.12500000000E+03 0.  0.
          1    1    1    2  501    0 -0.28331783543E+03 -0.65575315797E+02  0.21709282313E+04  0.21903192698E+04  0.00000000000E+00 0.  1.
<mgrwt>
<rscale>  3 0.31653454E+03</rscale>
<asrwt>0</asrwt>
<pdfrwt beam="1">  1       21 0.81401922E-01 0.31653454E+03</pdfrwt>
<pdfrwt beam="2">  1        1 0.34289970E+00 0.31653454E+03</pdfrwt>
<totfact> 0.32724747E+01</totfact>
</mgrwt>
</event>
<event>
 4    0  0.1697002E-001  0.2505779E+03  0.7546771E-02  0.1112940E+00
         21   -1    0    0  501  502  0.00000000000E+00  0.00000000000E+00  0.15119239463E+03  0.15119239463E+03  0.00000000000E+00 0.  1.
          2   -1    0    0  502    0 -0.00000000000E+00 -0.00000000000E+00 -0.12684551456E+04  0.12684551456E+04  0.00000000000E+00 0. -1.
         25    1    1    2    0    0 -0.36919436596E+02 -0.21401229819E+03  0.29675820593E+02  0.25232907661E+03  0.12500000000E+03 0.  0.
          2    1    1    2  501    0  0.36919436596E+02  0.21401229819E+03 -0.11469385716E+04  0.11673184636E+04  0.00000000000E+00 0. -1.
<mgrwt>
<rscale>  3 0.25057795E+03</rscale>
<asrwt>0</asrwt>
<pdfrwt beam="1">  1       21 0.23260368E-01 0.25057795E+03</pdfrwt>
<pdfrwt beam="2">  1        2 0.19514695E+00 0.25057795E+03</pdfrwt>
<totfact> 0.39684812E+03</totfact>
</mgrwt>
</event>
<event>
 4    0  0.1605291E-001  0.2574026E+03  0.7546771E-02  0.1108714E+00
         21   -1    0    0  501  502  0.00000000000E+00  0.00000000000E+00  0.27613613864E+03  0.27613613864E+03  0.00000000000E+00 0.  1.
          2   -1    0    0  502    0 -0.00000000000E+00 -0.00000000000E+00 -0.16185113143E+04  0.16185113143E+04  0.00000000000E+00 0.  1.
         25    1    1    2    0    0 -0.84681015104E+02  0.20847118236E+03  0.20620009663E+03  0.32980992714E+03  0.12500000000E+03 0.  0.
          2    1    1    2  501    0  0.84681015104E+02 -0.20847118236E+03 -0.15485752722E+04  0.15648375257E+04  0.00000000000E+00 0.  1.
<mgrwt>
<rscale>  3 0.25740262E+03</rscale>
<asrwt>0</asrwt>
<pdfrwt beam="1">  1       21 0.42482483E-01 0.25740262E+03</pdfrwt>
<pdfrwt beam="2">  1        2 0.24900174E+00 0.25740262E+03</pdfrwt>
<totfact> 0.77905645E+02</totfact>
</mgrwt>
</event>
<event>
 4    0  0.1796559E-001  0.3086150E+03  0.7546771E-02  0.1081012E+00
          2   -1    0    0  502    0 -0.00000000000E+00  0.00000000000E+00  0.17004808090E+04  0.17004808090E+04  0.00000000000E+00 0.  1.
         21   -1    0    0  501  502  0.00000000000E+00 -0.00000000000E+00 -0.29983505846E+03  0.29983505846E+03  0.00000000000E+00 0. -1.
         25    1    1    2    0    0 -0.13884221286E+03 -0.24564420100E+03 -0.20471920117E+03  0.37034198370E+03  0.12500000000E+03 0.  0.
          2    1    1    2  501    0  0.13884221286E+03  0.24564420100E+03  0.16053649517E+04  0.16299738837E+04  0.00000000000E+00 0.  1.
<mgrwt>
<rscale>  3 0.30861502E+03</rscale>
<asrwt>0</asrwt>
<pdfrwt beam="1">  1       21 0.46128471E-01 0.30861502E+03</pdfrwt>
<pdfrwt beam="2">  1        2 0.26161243E+00 0.30861502E+03</pdfrwt>
<totfact> 0.57972722E+02</totfact>
</mgrwt>
</event>
<event>
 4    0  0.1002184E-001  0.4014656E+03  0.7546771E-02  0.1043273E+00
          2   -1    0    0  502    0 -0.00000000000E+00  0.00000000000E+00  0.36559911917E+04  0.36559911917E+04  0.00000000000E+00 0.  1.
         21   -1    0    0  501  502  0.00000000000E+00 -0.00000000000E+00 -0.68533277586E+02  0.68533277586E+02  0.00000000000E+00 0. -1.
         25    1    1    2    0    0 -0.28403348576E+03 -0.25470489072E+03  0.66146017435E+03  0.77375975900E+03  0.12500000000E+03 0.  0.
          2    1    1    2  501    0  0.28403348576E+03  0.25470489072E+03  0.29259977398E+04  0.29507647103E+04  0.00000000000E+00 0.  1.
<mgrwt>
<rscale>  3 0.40146557E+03</rscale>
<asrwt>0</asrwt>
<pdfrwt beam="1">  1       21 0.10543584E-01 0.40146557E+03</pdfrwt>
<pdfrwt beam="2">  1        2 0.56246003E+00 0.40146557E+03</pdfrwt>
<totfact> 0.69155235E+02</totfact>
</mgrwt>
</event>
<event>
 4    0  0.1198961E-001  0.2567819E+03  0.7546771E-02  0.1109092E+00
         21   -1    0    0  501  502  0.00000000000E+00  0.00000000000E+00  0.34481615748E+02  0.34481615748E+02  0.00000000000E+00 0. -1.
          2   -1    0    0  502    0 -0.00000000000E+00 -0.00000000000E+00 -0.31744842131E+04  0.31744842131E+04  0.00000000000E+00 0. -1.
         25    1    1    2    0    0  0.22334550491E+03 -0.20705715900E+02 -0.52573546980E+03  0.58509377492E+03  0.12500000000E+03 0.  0.
          2    1    1    2  501    0 -0.22334550491E+03  0.20705715900E+02 -0.26142671276E+04  0.26238720540E+04  0.00000000000E+00 0. -1.
<mgrwt>
<rscale>  3 0.25678189E+03</rscale>
<asrwt>0</asrwt>
<pdfrwt beam="1">  1       21 0.53048636E-02 0.25678189E+03</pdfrwt>
<pdfrwt beam="2">  1        2 0.48838222E+00 0.25678189E+03</pdfrwt>
<totfact> 0.50785535E+03</totfact>
</mgrwt>
</event>
<event>
 4    0  0.1381394E-001  0.2438252E+03  0.7546771E-02  0.1117271E+00
         21   -1    0    0  501  502  0.00000000000E+00  0.00000000000E+00  0.13023115729E+03  0.13023115729E+03  0.00000000000E+00 0. -1.
          1   -1    0    0  502    0 -0.00000000000E+00 -0.00000000000E+00 -0.69710689852E+03  0.69710689852E+03  0.00000000000E+00 0. -1.
         25    1    1    2    0    0  0.18609001585E+03 -0.95897023394E+02 -0.23410776228E+02  0.24494651975E+03  0.12500000000E+03 0.  0.
          1    1    1    2  501    0 -0.18609001585E+03  0.95897023394E+02 -0.54346496500E+03  0.58239153606E+03  0.00000000000E+00 0. -1.
<mgrwt>
<rscale>  3 0.24382521E+03</rscale>
<asrwt>0</asrwt>
<pdfrwt beam="1">  1       21 0.20035562E-01 0.24382521E+03</pdfrwt>
<pdfrwt beam="2">  1        1 0.10724722E+00 0.24382521E+03</pdfrwt>
<totfact> 0.71648868E+03</totfact>
</mgrwt>
</event>
<event>
 4    0  0.1836972E-001  0.2908778E+03  0.7546771E-02  0.1089892E+00
          2   -1    0    0  502    0 -0.00000000000E+00  0.00000000000E+00  0.18636395981E+04  0.18636395981E+04  0.00000000000E+00 0. -1.
         21   -1    0    0  501  502  0.00000000000E+00 -0.00000000000E+00 -0.45429884670E+03  0.45429884670E+03  0.00000000000E+00 0.  1.
         25    1    1    2    0    0 -0.25578205443E+03  0.59669426240E+02 -0.39724770994E+03  0.49235723093E+03  0.12500000000E+03 0.  0.
          2    1    1    2  501    0  0.25578205443E+03 -0.59669426240E+02  0.18065884613E+04  0.18255812139E+04  0.00000000000E+00 0. -1.
<mgrwt>
<rscale>  3 0.29087781E+03</rscale>
<asrwt>0</asrwt>
<pdfrwt beam="1">  1       21 0.69892131E-01 0.29087781E+03</pdfrwt>
<pdfrwt beam="2">  1        2 0.28671378E+00 0.29087781E+03</pdfrwt>
<totfact> 0.19618061E+02</totfact>
</mgrwt>
</event>
<event>
 4    0  0.1002184E-001  0.4814486E+03  0.7546771E-02  0.1018738E+00
         21   -1    0    0  501  502  0.00000000000E+00  0.00000000000E+00  0.12378674708E+03  0.12378674708E+03  0.00000000000E+00 0.  1.
         -2   -1    0    0    0  501 -0.00000000000E+00 -0.00000000000E+00 -0.20802916474E+04  0.20802916474E+04  0.00000000000E+00 0. -1.
         25    1    1    2    0    0 -0.45285363195E+03  0.10531549517E+03 -0.59506455631E+03  0.76543751650E+03  0.12500000000E+03 0.  0.
         -2    1    1    2    0  502  0.45285363195E+03 -0.10531549517E+03 -0.13614403440E+04  0.14386408780E+04  0.00000000000E+00 0. -1.
<mgrwt>
<rscale>  3 0.48144861E+03</rscale>
<asrwt>0</asrwt>
<pdfrwt beam="1">  1       21 0.19044116E-01 0.48144861E+03</pdfrwt>
<pdfrwt beam="2">  1       -2 0.32004485E+00 0.48144861E+03</pdfrwt>
<totfact> 0.52693470E+01</totfact>
</mgrwt>
</event>
<event>
 4    0  0.1539935E-001  0.2987599E+03  0.7546771E-02  0.1085862E+00
          1   -1    0    0  502    0 -0.00000000000E+00  0.00000000000E+00  0.14342862125E+04  0.14342862125E+04  0.00000000000E+00 0. -1.
         21   -1    0    0  501  502  0.00000000000E+00 -0.00000000000E+00 -0.56657894813E+02  0.56657894813E+02  0.00000000000E+00 0. -1.
         25    1    1    2    0    0  0.27127264662E+03  0.66070412200E+01  0.72854266804E+03  0.78742105696E+03  0.12500000000E+03 0.  0.
          1    1    1    2  501    0 -0.27127264662E+03 -0.66070412200E+01  0.64908564967E+03  0.70352305037E+03  0.00000000000E+00 0. -1.
<mgrwt>
<rscale>  3 0.29875994E+03</rscale>
<asrwt>0</asrwt>
<pdfrwt beam="1">  1       21 0.87166003E-02 0.29875994E+03</pdfrwt>
<pdfrwt beam="2">  1        1 0.22065939E+00 0.29875994E+03</pdfrwt>
<totfact> 0.89946908E+03</totfact>
</mgrwt>
</event>
<event>
 4    0  0.1552569E-001  0.2483648E+03  0.7546771E-02  0.1114343E+00
         -4   -1    0    0    0  501 -0.00000000000E+00  0.00000000000E+00  0.14677047677E+03  0.14677047677E+03  0.00000000000E+00 0. -1.
         21   -1    0    0  501  502  0.00000000000E+00 -0.00000000000E+00 -0.42017144075E+03  0.42017144075E+03  0.00000000000E+00 0. -1.
         25    1    1    2    0    0  0.60864686815E+02  0.20580472756E+03 -0.24773612674E+03  0.35079664263E+03  0.12500000000E+03 0.  0.
         -4    1    1    2    0  502 -0.60864686815E+02 -0.20580472756E+03 -0.25664837239E+02  0.21614527490E+03  0.00000000000E+00 0. -1.
<mgrwt>
<rscale>  3 0.24836484E+03</rscale>
<asrwt>0</asrwt>
<pdfrwt beam="1">  1       21 0.64641760E-01 0.24836484E+03</pdfrwt>
<pdfrwt beam="2">  1       -4 0.22580073E-01 0.24836484E+03</pdfrwt>
<totfact> 0.16788064E+03</totfact>
</mgrwt>
</event>
<event>
 4    0  0.1203765E-001  0.2572722E+03  0.7546771E-02  0.1108793E+00
         21   -1    0    0  501  502  0.00000000000E+00  0.00000000000E+00  0.78288613052E+02  0.78288613052E+02  0.00000000000E+00 0.  1.
          2   -1    0    0  502    0 -0.00000000000E+00 -0.00000000000E+00 -0.30682615491E+04  0.30682615491E+04  0.00000000000E+00 0.  1.
         25    1    1    2    0    0 -0.13577238363E+03  0.17924800223E+03 -0.15023944489E+03  0.29792763762E+03  0.12500000000E+03 0.  0.
          2    1    1    2  501    0  0.13577238363E+03 -0.17924800223E+03 -0.28397334912E+04  0.28486225246E+04  0.00000000000E+00 0.  1.
<mgrwt>
<rscale>  3 0.25727220E+03</rscale>
<asrwt>0</asrwt>
<pdfrwt beam="1">  1       21 0.12044402E-01 0.25727220E+03</pdfrwt>
<pdfrwt beam="2">  1        2 0.47204025E+00 0.25727220E+03</pdfrwt>
<totfact> 0.13981349E+03</totfact>
</mgrwt>
</event>
<event>
 4    0  0.1141470E-001  0.2385188E+03  0.7546771E-02  0.1120784E+00
          3   -1    0    0  502    0 -0.00000000000E+00  0.00000000000E+00  0.26482157456E+03  0.26482157456E+03  0.00000000000E+00 0. -1.
         21   -1    0    0  501  502  0.00000000000E+00 -0.00000000000E+00 -0.45857540025E+03  0.45857540025E+03  0.00000000000E+00 0. -1.
         25    1    1    2    0    0  0.63946624064E+02  0.19281344648E+03 -0.37943816735E+03  0.44817911454E+03  0.12500000000E+03 0.  0.
          3    1    1    2  501    0 -0.63946624064E+02 -0.19281344648E+03  0.18568434166E+03  0.27521786027E+03  0.00000000000E+00 0. -1.
<mgrwt>
<rscale>  3 0.23851875E+03</rscale>
<asrwt>0</asrwt>
<pdfrwt beam="1">  1       21 0.70550061E-01 0.23851875E+03</pdfrwt>
<pdfrwt beam="2">  1        3 0.40741781E-01 0.23851875E+03</pdfrwt>
<totfact> 0.53386459E+02</totfact>
</mgrwt>
</event>
<event>
 4    0  0.1303810E-001  0.2543087E+03  0.7546771E-02  0.1110612E+00
          4   -1    0    0  502    0 -0.00000000000E+00  0.00000000000E+00  0.14241503739E+03  0.14241503739E+03  0.00000000000E+00 0.  1.
         21   -1    0    0  501  502  0.00000000000E+00 -0.00000000000E+00 -0.39736570869E+03  0.39736570869E+03  0.00000000000E+00 0.  1.
         25    1    1    2    0    0  0.22029456237E+03  0.22764923783E+02 -0.13602132336E+03  0.28840030578E+03  0.12500000000E+03 0.  0.
          4    1    1    2  501    0 -0.22029456237E+03 -0.22764923783E+02 -0.11892934793E+03  0.25138044030E+03  0.00000000000E+00 0.  1.
<mgrwt>
<rscale>  3 0.25430874E+03</rscale>
<asrwt>0</asrwt>
<pdfrwt beam="1">  1       21 0.61133185E-01 0.25430874E+03</pdfrwt>
<pdfrwt beam="2">  1        4 0.21910006E-01 0.25430874E+03</pdfrwt>
<totfact> 0.20041913E+03</totfact>
</mgrwt>
</event>
<event>
 4    0  0.1468204E-001  0.2467410E+03  0.7546771E-02  0.1115382E+00
         21   -1    0    0  501  502  0.00000000000E+00  0.00000000000E+00  0.15081481346E+03  0.15081481346E+03  0.00000000000E+00 0. -1.
          1   -1    0    0  502    0 -0.00000000000E+00 -0.00000000000E+00 -0.35147932746E+03  0.35147932746E+03  0.00000000000E+00 0. -1.
         25    1    1    2    0    0  0.20622206138E+03  0.52235917640E+02 -0.12417952605E+03  0.27622759525E+03  0.12500000000E+03 0.  0.
          1    1    1    2  501    0 -0.20622206138E+03 -0.52235917640E+02 -0.76484987953E+02  0.22606654567E+03  0.00000000000E+00 0. -1.
<mgrwt>
<rscale>  3 0.24674102E+03</rscale>
<asrwt>0</asrwt>
<pdfrwt beam="1">  1       21 0.23202279E-01 0.24674102E+03</pdfrwt>
<pdfrwt beam="2">  1        1 0.54073742E-01 0.24674102E+03</pdfrwt>
<totfact> 0.13579796E+04</totfact>
</mgrwt>
</event>
<event>
 4    0  0.1002184E-001  0.2826376E+03  0.7546771E-02  0.1094257E+00
          1   -1    0    0  502    0 -0.00000000000E+00  0.00000000000E+00  0.41764378065E+03  0.41764378065E+03  0.00000000000E+00 0.  1.
         21   -1    0    0  501  502  0.00000000000E+00 -0.00000000000E+00 -0.19095373909E+03  0.19095373909E+03  0.00000000000E+00 0. -1.
         25    1    1    2    0    0  0.11752819269E+03 -0.22460220998E+03  0.21449120605E+03  0.35481052166E+03  0.12500000000E+03 0.  0.
          1    1    1    2  501    0 -0.11752819269E+03  0.22460220998E+03  0.12198835503E+02  0.25378699808E+03  0.00000000000E+00 0.  1.
<mgrwt>
<rscale>  3 0.28263763E+03</rscale>
<asrwt>0</asrwt>
<pdfrwt beam="1">  1       21 0.29377498E-01 0.28263763E+03</pdfrwt>
<pdfrwt beam="2">  1        1 0.64252889E-01 0.28263763E+03</pdfrwt>
<totfact> 0.68533482E+03</totfact>
</mgrwt>
</event>
<event>
 4    0  0.1002184E-001  0.3562641E+03  0.7546771E-02  0.1060073E+00
         21   -1    0    0  501  502  0.00000000000E+00  0.00000000000E+00  0.15729797604E+03  0.15729797604E+03  0.00000000000E+00 0. -1.
         -4   -1    0    0    0  501 -0.00000000000E+00 -0.00000000000E+00 -0.10185630783E+04  0.10185630783E+04  0.00000000000E+00 0.  1.
         25    1    1    2    0    0  0.31312785089E+03  0.11510883039E+03 -0.14298691381E+03  0.38388715966E+03  0.12500000000E+03 0.  0.
         -4    1    1    2    0  502 -0.31312785089E+03 -0.11510883039E+03 -0.71827818849E+03  0.79197389471E+03  0.00000000000E+00 0.  1.
<mgrwt>
<rscale>  3 0.35626408E+03</rscale>
<asrwt>0</asrwt>
<pdfrwt beam="1">  1       21 0.24199688E-01 0.35626408E+03</pdfrwt>
<pdfrwt beam="2">  1       -4 0.15670201E+00 0.35626408E+03</pdfrwt>
<totfact> 0.18749404E+02</totfact>
</mgrwt>
</event>
<event>
 4    0  0.1002184E-001  0.3204535E+03  0.7546771E-02  0.1075441E+00
          2   -1    0    0  502    0 -0.00000000000E+00  0.00000000000E+00  0.24433230111E+04  0.24433230111E+04  0.00000000000E+00 0.  1.
         21   -1    0    0  501  502  0.00000000000E+00 -0.00000000000E+00 -0.43433209385E+02  0.43433209385E+02  0.00000000000E+00 0. -1.
         25    1    1    2    0    0  0.26720801921E+03  0.12516120892E+03  0.83681800057E+03  0.89607746307E+03  0.12500000000E+03 0.  0.
          2    1    1    2  501    0 -0.26720801921E+03 -0.12516120892E+03  0.15630718011E+04  0.15906787574E+04  0.00000000000E+00 0.  1.
<mgrwt>
<rscale>  3 0.32045351E+03</rscale>
<asrwt>0</asrwt>
<pdfrwt beam="1">  1       21 0.66820341E-02 0.32045351E+03</pdfrwt>
<pdfrwt beam="2">  1        2 0.37589574E+00 0.32045351E+03</pdfrwt>
<totfact> 0.87802307E+03</totfact>
</mgrwt>
</event>
<event>
 4    0  0.1407495E-001  0.4558595E+03  0.7546771E-02  0.1025989E+00
         21   -1    0    0  501  502  0.00000000000E+00  0.00000000000E+00  0.18541428522E+03  0.18541428522E+03  0.00000000000E+00 0.  1.
          2   -1    0    0  502    0 -0.00000000000E+00 -0.00000000000E+00 -0.13672772566E+04  0.13672772566E+04  0.00000000000E+00 0.  1.
         25    1    1    2    0    0  0.42301891611E+03 -0.11505599320E+03 -0.24313673900E+03  0.51664626081E+03  0.12500000000E+03 0.  0.
          2    1    1    2  501    0 -0.42301891611E+03  0.11505599320E+03 -0.93872623239E+03  0.10360452810E+04  0.00000000000E+00 0.  1.
<mgrwt>
<rscale>  3 0.45585950E+03</rscale>
<asrwt>0</asrwt>
<pdfrwt beam="1">  1       21 0.28525274E-01 0.45585950E+03</pdfrwt>
<pdfrwt beam="2">  1        2 0.21035035E+00 0.45585950E+03</pdfrwt>
<totfact> 0.22193163E+03</totfact>
</mgrwt>
</event>
<event>
 4    0  0.1227752E-001  0.2454776E+03  0.7546771E-02  0.1116197E+00
         21   -1    0    0  501  502  0.00000000000E+00  0.00000000000E+00  0.17888844243E+03  0.17888844243E+03  0.00000000000E+00 0. -1.
          1   -1    0    0  502    0 -0.00000000000E+00 -0.00000000000E+00 -0.63180785506E+03  0.63180785506E+03  0.00000000000E+00 0.  1.
         25    1    1    2    0    0 -0.80128069032E+02  0.19548330847E+03  0.62797774005E+02  0.25338269822E+03  0.12500000000E+03 0.  0.
          1    1    1    2  501    0  0.80128069032E+02 -0.19548330847E+03 -0.51571718664E+03  0.55731359927E+03  0.00000000000E+00 0.  1.
<mgrwt>
<rscale>  3 0.24547756E+03</rscale>
<asrwt>0</asrwt>
<pdfrwt beam="1">  1       21 0.27521299E-01 0.24547756E+03</pdfrwt>
<pdfrwt beam="2">  1        1 0.97201209E-01 0.24547756E+03</pdfrwt>
<totfact> 0.44996147E+03</totfact>
</mgrwt>
</event>
<event>
 4    0  0.1588109E-001  0.2698300E+03  0.7546771E-02  0.1101377E+00
         21   -1    0    0  501  502  0.00000000000E+00  0.00000000000E+00  0.91970883432E+02  0.91970883432E+02  0.00000000000E+00 0. -1.
          1   -1    0    0  502    0 -0.00000000000E+00 -0.00000000000E+00 -0.13750175321E+04  0.13750175321E+04  0.00000000000E+00 0. -1.
         25    1    1    2    0    0  0.21670604759E+03 -0.10110251606E+03 -0.14946863823E+03  0.30846248334E+03  0.12500000000E+03 0.  0.
          1    1    1    2  501    0 -0.21670604759E+03  0.10110251606E+03 -0.11335780104E+04  0.11585259322E+04  0.00000000000E+00 0. -1.
<mgrwt>
<rscale>  3 0.26983000E+03</rscale>
<asrwt>0</asrwt>
<pdfrwt beam="1">  1       21 0.14149367E-01 0.26983000E+03</pdfrwt>
<pdfrwt beam="2">  1        1 0.21154115E+00 0.26983000E+03</pdfrwt>
<totfact> 0.41651862E+03</totfact>
</mgrwt>
</event>
<event>
 4    0  0.1713264E-001  0.2701074E+03  0.7546771E-02  0.1101218E+00
          2   -1    0    0  502    0 -0.00000000000E+00  0.00000000000E+00  0.96428219165E+03  0.96428219165E+03  0.00000000000E+00 0. -1.
         21   -1    0    0  501  502  0.00000000000E+00 -0.00000000000E+00 -0.25316690596E+03  0.25316690596E+03  0.00000000000E+00 0.  1.
         25    1    1    2    0    0 -0.16193978719E+03 -0.17637598822E+03 -0.16005813818E+03  0.31396909322E+03  0.12500000000E+03 0.  0.
          2    1    1    2  501    0  0.16193978719E+03  0.17637598822E+03  0.87117342387E+03  0.90348000440E+03  0.00000000000E+00 0. -1.
<mgrwt>
<rscale>  3 0.27010736E+03</rscale>
<asrwt>0</asrwt>
<pdfrwt beam="1">  1       21 0.38948755E-01 0.27010736E+03</pdfrwt>
<pdfrwt beam="2">  1        2 0.14835110E+00 0.27010736E+03</pdfrwt>
<totfact> 0.21590975E+03</totfact>
</mgrwt>
</event>
<event>
 4    0  0.1544641E-001  0.3578380E+03  0.7546771E-02  0.1059443E+00
         21   -1    0    0  501  502  0.00000000000E+00  0.00000000000E+00  0.25605740084E+03  0.25605740084E+03  0.00000000000E+00 0.  1.
          1   -1    0    0  502    0 -0.00000000000E+00 -0.00000000000E+00 -0.10029999100E+04  0.10029999100E+04  0.00000000000E+00 0.  1.
         25    1    1    2    0    0 -0.26598983677E+03 -0.20413835679E+03  0.80046628360E+02  0.36668177578E+03  0.12500000000E+03 0.  0.
          1    1    1    2  501    0  0.26598983677E+03  0.20413835679E+03 -0.82698913749E+03  0.89237553502E+03  0.00000000000E+00 0.  1.
<mgrwt>
<rscale>  3 0.35783804E+03</rscale>
<asrwt>0</asrwt>
<pdfrwt beam="1">  1       21 0.39393448E-01 0.35783804E+03</pdfrwt>
<pdfrwt beam="2">  1        1 0.15430767E+00 0.35783804E+03</pdfrwt>
<totfact> 0.10366855E+03</totfact>
</mgrwt>
</event>
<event>
 4    0  0.1516380E-001  0.2454081E+03  0.7546771E-02  0.1116242E+00
         21   -1    0    0  501  502  0.00000000000E+00  0.00000000000E+00  0.12883983312E+03  0.12883983312E+03  0.00000000000E+00 0.  1.
          2   -1    0    0  502    0 -0.00000000000E+00 -0.00000000000E+00 -0.10351662678E+04  0.10351662678E+04  0.00000000000E+00 0.  1.
         25    1    1    2    0    0  0.15931679030E+03 -0.13863007297E+03 -0.12670031690E+02  0.24573495174E+03  0.12500000000E+03 0.  0.
          2    1    1    2  501    0 -0.15931679030E+03  0.13863007297E+03 -0.89365640295E+03  0.91827114914E+03  0.00000000000E+00 0.  1.
<mgrwt>
<rscale>  3 0.24540810E+03</rscale>
<asrwt>0</asrwt>
<pdfrwt beam="1">  1       21 0.19821512E-01 0.24540810E+03</pdfrwt>
<pdfrwt beam="2">  1        2 0.15925635E+00 0.24540810E+03</pdfrwt>
<totfact> 0.73382912E+03</totfact>
</mgrwt>
</event>
<event>
 4    0  0.1002184E-001  0.2534184E+03  0.7546771E-02  0.1111163E+00
         21   -1    0    0  501  502  0.00000000000E+00  0.00000000000E+00  0.27669389524E+02  0.27669389524E+02  0.00000000000E+00 0. -1.
          2   -1    0    0  502    0 -0.00000000000E+00 -0.00000000000E+00 -0.20749575490E+04  0.20749575490E+04  0.00000000000E+00 0.  1.
         25    1    1    2    0    0 -0.14163629098E+03  0.16892313818E+03 -0.93691595652E+03  0.97058352300E+03  0.12500000000E+03 0.  0.
          2    1    1    2  501    0  0.14163629098E+03 -0.16892313818E+03 -0.11103722029E+04  0.11320434155E+04  0.00000000000E+00 0.  1.
<mgrwt>
<rscale>  3 0.25341836E+03</rscale>
<asrwt>0</asrwt>
<pdfrwt beam="1">  1       21 0.42568297E-02 0.25341836E+03</pdfrwt>
<pdfrwt beam="2">  1        2 0.31922420E+00 0.25341836E+03</pdfrwt>
<totfact> 0.30565111E+04</totfact>
</mgrwt>
</event>
<event>
 4    0  0.1002184E-001  0.2608793E+03  0.7546771E-02  0.1106616E+00
         21   -1    0    0  501  502  0.00000000000E+00  0.00000000000E+00  0.26038477984E+03  0.26038477984E+03  0.00000000000E+00 0.  1.
         -1   -1    0    0    0  501 -0.00000000000E+00 -0.00000000000E+00 -0.37366132135E+03  0.37366132135E+03  0.00000000000E+00 0. -1.
         25    1    1    2    0    0  0.19128982956E+02  0.22818214461E+03  0.13713314896E+03  0.29472616044E+03  0.12500000000E+03 0.  0.
         -1    1    1    2    0  502 -0.19128982956E+02 -0.22818214461E+03 -0.25040969047E+03  0.33931994075E+03  0.00000000000E+00 0. -1.
<mgrwt>
<rscale>  3 0.26087930E+03</rscale>
<asrwt>0</asrwt>
<pdfrwt beam="1">  1       21 0.40059197E-01 0.26087930E+03</pdfrwt>
<pdfrwt beam="2">  1       -1 0.57486357E-01 0.26087930E+03</pdfrwt>
<totfact> 0.17217476E+03</totfact>
</mgrwt>
</event>
<event>
 4    0  0.1002184E-001  0.3195045E+03  0.7546771E-02  0.1075878E+00
         21   -1    0    0  501  502  0.00000000000E+00  0.00000000000E+00  0.21363147196E+04  0.21363147196E+04  0.00000000000E+00 0.  1.
         -1   -1    0    0    0  501 -0.00000000000E+00 -0.00000000000E+00 -0.62373239607E+02  0.62373239607E+02  0.00000000000E+00 0.  1.
         25    1    1    2    0    0 -0.75265228302E+02 -0.28424155183E+03  0.16628265147E+04  0.16932439672E+04  0.12500000000E+03 0.  0.
         -1    1    1    2    0  502  0.75265228302E+02  0.28424155183E+03  0.41111496521E+03  0.50544399195E+03  0.00000000000E+00 0.  1.
<mgrwt>
<rscale>  3 0.31950448E+03</rscale>
<asrwt>0</asrwt>
<pdfrwt beam="1">  1       21 0.32866375E+00 0.31950448E+03</pdfrwt>
<pdfrwt beam="2">  1       -1 0.95958847E-02 0.31950448E+03</pdfrwt>
<totfact> 0.12146817E+02</totfact>
</mgrwt>
</event>
<event>
 4    0  0.1750588E-001  0.2928021E+03  0.7546771E-02  0.1088895E+00
         21   -1    0    0  501  502  0.00000000000E+00  0.00000000000E+00  0.33387428716E+03  0.33387428716E+03  0.00000000000E+00 0. -1.
          2   -1    0    0  502    0 -0.00000000000E+00 -0.00000000000E+00 -0.16791091714E+04  0.16791091714E+04  0.00000000000E+00 0.  1.
         25    1    1    2    0    0 -0.12026759771E+03  0.23588929077E+03  0.25665102117E+03  0.38936204133E+03  0.12500000000E+03 0.  0.
          2    1    1    2  501    0  0.12026759771E+03 -0.23588929077E+03 -0.16018859054E+04  0.16236214172E+04  0.00000000000E+00 0.  1.
<mgrwt>
<rscale>  3 0.29280207E+03</rscale>
<asrwt>0</asrwt>
<pdfrwt beam="1">  1       21 0.51365276E-01 0.29280207E+03</pdfrwt>
<pdfrwt beam="2">  1        2 0.25832448E+00 0.29280207E+03</pdfrwt>
<totfact> 0.47840615E+02</totfact>
</mgrwt>
</event>
<event>
 4    0  0.1176248E-001  0.5826853E+03  0.7546771E-02  0.9941994E-01
         21   -1    0    0  501  502  0.00000000000E+00  0.00000000000E+00  0.43919684660E+03  0.43919684660E+03  0.00000000000E+00 0. -1.
          1   -1    0    0  502    0 -0.00000000000E+00 -0.00000000000E+00 -0.99326351905E+03  0.99326351905E+03  0.00000000000E+00 0. -1.
         25    1    1    2    0    0  0.56699023975E+03 -0.49186168788E+02  0.71141588598E+02  0.58701221180E+03  0.12500000000E+03 0.  0.
          1    1    1    2  501    0 -0.56699023975E+03  0.49186168788E+02 -0.62520826105E+03  0.84544815385E+03  0.00000000000E+00 0. -1.
<mgrwt>
<rscale>  3 0.58268534E+03</rscale>
<asrwt>0</asrwt>
<pdfrwt beam="1">  1       21 0.67568746E-01 0.58268534E+03</pdfrwt>
<pdfrwt beam="2">  1        1 0.15280977E+00 0.58268534E+03</pdfrwt>
<totfact> 0.31297776E+02</totfact>
</mgrwt>
</event>
<event>
 4    0  0.1002184E-001  0.3029809E+03  0.7546771E-02  0.1083760E+00
          4   -1    0    0  502    0 -0.00000000000E+00  0.00000000000E+00  0.41948226429E+03  0.41948226429E+03  0.00000000000E+00 0.  1.
         21   -1    0    0  501  502  0.00000000000E+00 -0.00000000000E+00 -0.26728299831E+03  0.26728299831E+03  0.00000000000E+00 0. -1.
         25    1    1    2    0    0 -0.54433888311E+02  0.27057236188E+03 -0.93678425728E+02  0.31713261998E+03  0.12500000000E+03 0.  0.
          4    1    1    2  501    0  0.54433888311E+02 -0.27057236188E+03  0.24587769171E+03  0.36963264262E+03  0.00000000000E+00 0.  1.
<mgrwt>
<rscale>  3 0.30298094E+03</rscale>
<asrwt>0</asrwt>
<pdfrwt beam="1">  1       21 0.41120461E-01 0.30298094E+03</pdfrwt>
<pdfrwt beam="2">  1        4 0.64535733E-01 0.30298094E+03</pdfrwt>
<totfact> 0.54042002E+02</totfact>
</mgrwt>
</event>
<event>
 4    0  0.1607937E-001  0.2873525E+03  0.7546771E-02  0.1091740E+00
         21   -1    0    0  501  502  0.00000000000E+00  0.00000000000E+00  0.43695236316E+02  0.43695236316E+02  0.00000000000E+00 0. -1.
          2   -1    0    0  502    0 -0.00000000000E+00 -0.00000000000E+00 -0.20073478611E+04  0.20073478611E+04  0.00000000000E+00 0. -1.
         25    1    1    2    0    0  0.14408484017E+03  0.21490937780E+03 -0.62882557466E+03  0.69137043991E+03  0.12500000000E+03 0.  0.
          2    1    1    2  501    0 -0.14408484017E+03 -0.21490937780E+03 -0.13348270501E+04  0.13596726575E+04  0.00000000000E+00 0. -1.
<mgrwt>
<rscale>  3 0.28735254E+03</rscale>
<asrwt>0</asrwt>
<pdfrwt beam="1">  1       21 0.67223432E-02 0.28735254E+03</pdfrwt>
<pdfrwt beam="2">  1        2 0.30882278E+00 0.28735254E+03</pdfrwt>
<totfact> 0.15026692E+04</totfact>
</mgrwt>
</event>
<event>
 4    0  0.1430507E-001  0.3051380E+03  0.7546771E-02  0.1082700E+00
          2   -1    0    0  502    0 -0.00000000000E+00  0.00000000000E+00  0.48217838222E+03  0.48217838222E+03  0.00000000000E+00 0. -1.
         21   -1    0    0  501  502  0.00000000000E+00 -0.00000000000E+00 -0.18011686552E+03  0.18011686552E+03  0.00000000000E+00 0. -1.
         25    1    1    2    0    0 -0.20810337976E+03 -0.18487072742E+03  0.20452663873E+03  0.36734227701E+03  0.12500000000E+03 0.  0.
          2    1    1    2  501    0  0.20810337976E+03  0.18487072742E+03  0.97534877976E+02  0.29495297074E+03  0.00000000000E+00 0. -1.
<mgrwt>
<rscale>  3 0.30513801E+03</rscale>
<asrwt>0</asrwt>
<pdfrwt beam="1">  1       21 0.27710287E-01 0.30513801E+03</pdfrwt>
<pdfrwt beam="2">  1        2 0.74181289E-01 0.30513801E+03</pdfrwt>
<totfact> 0.98574126E+03</totfact>
</mgrwt>
</event>
<event>
 4    0  0.1564304E-001  0.2583641E+03  0.7546771E-02  0.1108130E+00
         -4   -1    0    0    0  501 -0.00000000000E+00  0.00000000000E+00  0.28575437354E+04  0.28575437354E+04  0.00000000000E+00 0.  1.
         21   -1    0    0  501  502  0.00000000000E+00 -0.00000000000E+00 -0.24867991131E+02  0.24867991131E+02  0.00000000000E+00 0.  1.
         25    1    1    2    0    0 -0.35675363074E+02 -0.22328075302E+03  0.89370310735E+03  0.93029955944E+03  0.12500000000E+03 0.  0.
         -4    1    1    2    0  502  0.35675363074E+02  0.22328075302E+03  0.19389726369E+04  0.19521121671E+04  0.00000000000E+00 0.  1.
<mgrwt>
<rscale>  3 0.25836413E+03</rscale>
<asrwt>0</asrwt>
<pdfrwt beam="1">  1       21 0.38258470E-02 0.25836413E+03</pdfrwt>
<pdfrwt beam="2">  1       -4 0.43962185E+00 0.25836413E+03</pdfrwt>
<totfact> 0.82093835E+01</totfact>
</mgrwt>
</event>
<event>
 4    0  0.1361286E-001  0.2795831E+03  0.7546771E-02  0.1095917E+00
          2   -1    0    0  502    0 -0.00000000000E+00  0.00000000000E+00  0.28474273900E+03  0.28474273900E+03  0.00000000000E+00 0.  1.
         21   -1    0    0  501  502  0.00000000000E+00 -0.00000000000E+00 -0.39958642669E+03  0.39958642669E+03  0.00000000000E+00 0.  1.
         25    1    1    2    0    0  0.19351659812E+03  0.15840773786E+03 -0.27110432212E+03  0.38944093087E+03  0.12500000000E+03 0.  0.
          2    1    1    2  501    0 -0.19351659812E+03 -0.15840773786E+03  0.15626063444E+03  0.29488823482E+03  0.00000000000E+00 0.  1.
<mgrwt>
<rscale>  3 0.27958306E+03</rscale>
<asrwt>0</asrwt>
<pdfrwt beam="1">  1       21 0.61474834E-01 0.27958306E+03</pdfrwt>
<pdfrwt beam="2">  1        2 0.43806576E-01 0.27958306E+03</pdfrwt>
<totfact> 0.34342236E+03</totfact>
</mgrwt>
</event>
<event>
 4    0  0.1002184E-001  0.3092069E+03  0.7546771E-02  0.1080727E+00
          1   -1    0    0  502    0 -0.00000000000E+00  0.00000000000E+00  0.15990494250E+03  0.15990494250E+03  0.00000000000E+00 0.  1.
         21   -1    0    0  501  502  0.00000000000E+00 -0.00000000000E+00 -0.96387456424E+03  0.96387456424E+03  0.00000000000E+00 0. -1.
         25    1    1    2    0    0 -0.82409436695E+02  0.27054124467E+03 -0.78106122823E+03  0.84003900062E+03  0.12500000000E+03 0.  0.
          1    1    1    2  501    0  0.82409436695E+02 -0.27054124467E+03 -0.22908393513E+02  0.28374050613E+03  0.00000000000E+00 0.  1.
<mgrwt>
<rscale>  3 0.30920686E+03</rscale>
<asrwt>0</asrwt>
<pdfrwt beam="1">  1       21 0.14828839E+00 0.30920686E+03</pdfrwt>
<pdfrwt beam="2">  1        1 0.24600760E-01 0.30920686E+03</pdfrwt>
<totfact> 0.61416844E+02</totfact>
</mgrwt>
</event>
<event>
 4    0  0.1002184E-001  0.2483803E+03  0.7546771E-02  0.1114333E+00
         21   -1    0    0  501  502  0.00000000000E+00  0.00000000000E+00  0.20898945071E+03  0.20898945071E+03  0.00000000000E+00 0. -1.
          1   -1    0    0  502    0 -0.00000000000E+00 -0.00000000000E+00 -0.25663109412E+03  0.25663109412E+03  0.00000000000E+00 0.  1.
         25    1    1    2    0    0 -0.20365195224E+03 -0.67776476208E+02 -0.19405821420E+02  0.24913721979E+03  0.12500000000E+03 0.  0.
          1    1    1    2  501    0  0.20365195224E+03  0.67776476208E+02 -0.28235821994E+02  0.21648332504E+03  0.00000000000E+00 0.  1.
<mgrwt>
<rscale>  3 0.24838029E+03</rscale>
<asrwt>0</asrwt>
<pdfrwt beam="1">  1       21 0.32152223E-01 0.24838029E+03</pdfrwt>
<pdfrwt beam="2">  1        1 0.39481707E-01 0.24838029E+03</pdfrwt>
<totfact> 0.10722231E+04</totfact>
</mgrwt>
</event>
<event>
 4    0  0.1476641E-001  0.2434205E+03  0.7546771E-02  0.1117535E+00
         -2   -1    0    0    0  501 -0.00000000000E+00  0.00000000000E+00  0.29699942319E+03  0.29699942319E+03  0.00000000000E+00 0.  1.
         21   -1    0    0  501  502  0.00000000000E+00 -0.00000000000E+00 -0.44021155713E+03  0.44021155713E+03  0.00000000000E+00 0.  1.
         25    1    1    2    0    0  0.11890267799E+03 -0.17172851210E+03 -0.36103080534E+03  0.43542711343E+03  0.12500000000E+03 0.  0.
         -2    1    1    2    0  502 -0.11890267799E+03  0.17172851210E+03  0.21781867141E+03  0.30178386689E+03  0.00000000000E+00 0.  1.
<mgrwt>
<rscale>  3 0.24342048E+03</rscale>
<asrwt>0</asrwt>
<pdfrwt beam="1">  1       21 0.67724854E-01 0.24342048E+03</pdfrwt>
<pdfrwt beam="2">  1       -2 0.45692219E-01 0.24342048E+03</pdfrwt>
<totfact> 0.72730845E+02</totfact>
</mgrwt>
</event>
<event>
 4    0  0.1122606E-001  0.5616715E+03  0.7546771E-02  0.9988280E-01
         21   -1    0    0  501  502  0.00000000000E+00  0.00000000000E+00  0.79417528685E+03  0.79417528685E+03  0.00000000000E+00 0. -1.
          2   -1    0    0  502    0 -0.00000000000E+00 -0.00000000000E+00 -0.12794828826E+04  0.12794828826E+04  0.00000000000E+00 0.  1.
         25    1    1    2    0    0  0.63611272158E+02  0.54387819268E+03  0.62217331521E+03  0.83819718239E+03  0.12500000000E+03 0.  0.
          2    1    1    2  501    0 -0.63611272158E+02 -0.54387819268E+03 -0.11074809110E+04  0.12354609871E+04  0.00000000000E+00 0.  1.
<mgrwt>
<rscale>  3 0.56167151E+03</rscale>
<asrwt>0</asrwt>
<pdfrwt beam="1">  1       21 0.12218082E+00 0.56167151E+03</pdfrwt>
<pdfrwt beam="2">  1        2 0.19684352E+00 0.56167151E+03</pdfrwt>
<totfact> 0.96194117E+01</totfact>
</mgrwt>
</event>
<event>
 4    0  0.1185414E-001  0.2365969E+03  0.7546771E-02  0.1122081E+00
         21   -1    0    0  501  502  0.00000000000E+00  0.00000000000E+00  0.52361072053E+03  0.52361072053E+03  0.00000000000E+00 0. -1.
          2   -1    0    0  502    0 -0.00000000000E+00 -0.00000000000E+00 -0.15318281950E+03  0.15318281950E+03  0.00000000000E+00 0. -1.
         25    1    1    2    0    0 -0.19609635534E+03 -0.43580863125E+02  0.40875332557E+03  0.47228948048E+03  0.12500000000E+03 0.  0.
          2    1    1    2  501    0  0.19609635534E+03  0.43580863125E+02 -0.38325424542E+02  0.20450405955E+03  0.00000000000E+00 0. -1.
<mgrwt>
<rscale>  3 0.23659686E+03</rscale>
<asrwt>0</asrwt>
<pdfrwt beam="1">  1       21 0.80555494E-01 0.23659686E+03</pdfrwt>
<pdfrwt beam="2">  1        2 0.23566588E-01 0.23659686E+03</pdfrwt>
<totfact> 0.37667289E+03</totfact>
</mgrwt>
</event>
<event>
 4    0  0.1299340E-001  0.2440679E+03  0.7546771E-02  0.1117112E+00
         21   -1    0    0  501  502  0.00000000000E+00  0.00000000000E+00  0.93739873106E+02  0.93739873106E+02  0.00000000000E+00 0.  1.
          2   -1    0    0  502    0 -0.00000000000E+00 -0.00000000000E+00 -0.24342514163E+04  0.24342514163E+04  0.00000000000E+00 0. -1.
         25    1    1    2    0    0 -0.14497780990E+03 -0.15141201367E+03 -0.78636925705E+02  0.25642334006E+03  0.12500000000E+03 0.  0.
          2    1    1    2  501    0  0.14497780990E+03  0.15141201367E+03 -0.22618746175E+04  0.22715679494E+04  0.00000000000E+00 0. -1.
<mgrwt>
<rscale>  3 0.24406795E+03</rscale>
<asrwt>0</asrwt>
<pdfrwt beam="1">  1       21 0.14421520E-01 0.24406795E+03</pdfrwt>
<pdfrwt beam="2">  1        2 0.37450020E+00 0.24406795E+03</pdfrwt>
<totfact> 0.23269372E+03</totfact>
</mgrwt>
</event>
<event>
 4    0  0.1084299E-001  0.7055803E+03  0.7546771E-02  0.9707736E-01
          1   -1    0    0  502    0 -0.00000000000E+00  0.00000000000E+00  0.81705971925E+03  0.81705971925E+03  0.00000000000E+00 0. -1.
         21   -1    0    0  501  502  0.00000000000E+00 -0.00000000000E+00 -0.91137484143E+03  0.91137484143E+03  0.00000000000E+00 0. -1.
         25    1    1    2    0    0  0.69357204525E+03 -0.34297965952E+02 -0.55277370121E+03  0.89632711504E+03  0.12500000000E+03 0.  0.
          1    1    1    2  501    0 -0.69357204525E+03  0.34297965952E+02  0.45845857903E+03  0.83210744565E+03  0.00000000000E+00 0. -1.
<mgrwt>
<rscale>  3 0.70558028E+03</rscale>
<asrwt>0</asrwt>
<pdfrwt beam="1">  1       21 0.14021151E+00 0.70558028E+03</pdfrwt>
<pdfrwt beam="2">  1        1 0.12570150E+00 0.70558028E+03</pdfrwt>
<totfact> 0.70891945E+01</totfact>
</mgrwt>
</event>
<event>
 4    0  0.1105778E-001  0.2716590E+03  0.7546771E-02  0.1100334E+00
         21   -1    0    0  501  502  0.00000000000E+00  0.00000000000E+00  0.18558347167E+03  0.18558347167E+03  0.00000000000E+00 0.  1.
          1   -1    0    0  502    0 -0.00000000000E+00 -0.00000000000E+00 -0.54551845085E+03  0.54551845085E+03  0.00000000000E+00 0. -1.
         25    1    1    2    0    0  0.17041712829E+03 -0.17067993249E+03  0.29260084984E+02  0.27323028665E+03  0.12500000000E+03 0.  0.
          1    1    1    2  501    0 -0.17041712829E+03  0.17067993249E+03 -0.38919506417E+03  0.45787163588E+03  0.00000000000E+00 0. -1.
<mgrwt>
<rscale>  3 0.27165905E+03</rscale>
<asrwt>0</asrwt>
<pdfrwt beam="1">  1       21 0.28551304E-01 0.27165905E+03</pdfrwt>
<pdfrwt beam="2">  1        1 0.83925914E-01 0.27165905E+03</pdfrwt>
<totfact> 0.50982506E+03</totfact>
</mgrwt>
</event>
<event>
 4    0  0.1002184E-001  0.2595483E+03  0.7546771E-02  0.1107415E+00
         21   -1    0    0  501  502  0.00000000000E+00  0.00000000000E+00  0.36822189748E+03  0.36822189748E+03  0.00000000000E+00 0.  1.
         -1   -1    0    0    0  501 -0.00000000000E+00 -0.00000000000E+00 -0.29827666898E+03  0.29827666898E+03  0.00000000000E+00 0. -1.
         25    1    1    2    0    0 -0.75995298288E+02 -0.21439463653E+03  0.26200292505E+03  0.36879652692E+03  0.12500000000E+03 0.  0.
         -1    1    1    2    0  502  0.75995298288E+02  0.21439463653E+03 -0.19205769656E+03  0.29770203953E+03  0.00000000000E+00 0. -1.
<mgrwt>
<rscale>  3 0.25954835E+03</rscale>
<asrwt>0</asrwt>
<pdfrwt beam="1">  1       21 0.56649523E-01 0.25954835E+03</pdfrwt>
<pdfrwt beam="2">  1       -1 0.45888718E-01 0.25954835E+03</pdfrwt>
<totfact> 0.12721714E+03</totfact>
</mgrwt>
</event>
<event>
 4    0  0.1534386E-001  0.3409483E+03  0.7546771E-02  0.1066393E+00
         21   -1    0    0  501  502  0.00000000000E+00  0.00000000000E+00  0.10726061644E+03  0.10726061644E+03  0.00000000000E+00 0. -1.
          2   -1    0    0  502    0 -0.00000000000E+00 -0.00000000000E+00 -0.10708959001E+04  0.10708959001E+04  0.00000000000E+00 0. -1.
         25    1    1    2    0    0  0.19330174124E+03  0.25150580801E+03 -0.63902871801E+03  0.72429513119E+03  0.12500000000E+03 0.  0.
          2    1    1    2  501    0 -0.19330174124E+03 -0.25150580801E+03 -0.32460656562E+03  0.45386138531E+03  0.00000000000E+00 0. -1.
<mgrwt>
<rscale>  3 0.34094829E+03</rscale>
<asrwt>0</asrwt>
<pdfrwt beam="1">  1       21 0.16501633E-01 0.34094829E+03</pdfrwt>
<pdfrwt beam="2">  1        2 0.16475322E+00 0.34094829E+03</pdfrwt>
<totfact> 0.96147094E+03</totfact>
</mgrwt>
</event>
<event>
 4    0  0.1426871E-001  0.3220486E+03  0.7546771E-02  0.1074710E+00
          2   -1    0    0  502    0 -0.00000000000E+00  0.00000000000E+00  0.11870539308E+04  0.11870539308E+04  0.00000000000E+00 0.  1.
         21   -1    0    0  501  502  0.00000000000E+00 -0.00000000000E+00 -0.81625169864E+02  0.81625169864E+02  0.00000000000E+00 0.  1.
         25    1    1    2    0    0 -0.24573552286E+03  0.16644624265E+03  0.50594508929E+03  0.59974638996E+03  0.12500000000E+03 0.  0.
          2    1    1    2  501    0  0.24573552286E+03 -0.16644624265E+03  0.59948367167E+03  0.66893271074E+03  0.00000000000E+00 0.  1.
<mgrwt>
<rscale>  3 0.32204860E+03</rscale>
<asrwt>0</asrwt>
<pdfrwt beam="1">  1       21 0.12557719E-01 0.32204860E+03</pdfrwt>
<pdfrwt beam="2">  1        2 0.18262367E+00 0.32204860E+03</pdfrwt>
<totfact> 0.13618955E+04</totfact>
</mgrwt>
</event>
<event>
 4    0  0.1531749E-001  0.2504168E+03  0.7546771E-02  0.1113042E+00
          2   -1    0    0  502    0 -0.00000000000E+00  0.00000000000E+00  0.87668012101E+03  0.87668012101E+03  0.00000000000E+00 0. -1.
         21   -1    0    0  501  502  0.00000000000E+00 -0.00000000000E+00 -0.27465629322E+03  0.27465629322E+03  0.00000000000E+00 0. -1.
         25    1    1    2    0    0  0.22142572814E+02  0.21585477376E+03 -0.19999758109E+03  0.32048027916E+03  0.12500000000E+03 0.  0.
          2    1    1    2  501    0 -0.22142572814E+02 -0.21585477376E+03  0.80202140888E+03  0.83085613507E+03  0.00000000000E+00 0. -1.
<mgrwt>
<rscale>  3 0.25041681E+03</rscale>
<asrwt>0</asrwt>
<pdfrwt beam="1">  1       21 0.42254815E-01 0.25041681E+03</pdfrwt>
<pdfrwt beam="2">  1        2 0.13487386E+00 0.25041681E+03</pdfrwt>
<totfact> 0.20961268E+03</totfact>
</mgrwt>
</event>
<event>
 4    0  0.1475558E-001  0.2614729E+03  0.7546771E-02  0.1106262E+00
         -3   -1    0    0    0  501 -0.00000000000E+00  0.00000000000E+00  0.11035192966E+04  0.11035192966E+04  0.00000000000E+00 0. -1.
         21   -1    0    0  501  502  0.00000000000E+00 -0.00000000000E+00 -0.60277305604E+03  0.60277305604E+03  0.00000000000E+00 0.  1.
         25    1    1    2    0    0  0.19770806647E+03 -0.11685288521E+03 -0.56155748828E+03  0.61944724470E+03  0.12500000000E+03 0.  0.
         -3    1    1    2    0  502 -0.19770806647E+03  0.11685288521E+03  0.10623037289E+04  0.10868451080E+04  0.00000000000E+00 0. -1.
<mgrwt>
<rscale>  3 0.26147290E+03</rscale>
<asrwt>0</asrwt>
<pdfrwt beam="1">  1       21 0.92734316E-01 0.26147290E+03</pdfrwt>
<pdfrwt beam="2">  1       -3 0.16977220E+00 0.26147290E+03</pdfrwt>
<totfact> 0.11622987E+01</totfact>
</mgrwt>
</event>
<event>
 4    0  0.1137053E-001  0.2366902E+03  0.7546771E-02  0.1122018E+00
          4   -1    0    0  502    0 -0.00000000000E+00  0.00000000000E+00  0.24282102009E+03  0.24282102009E+03  0.00000000000E+00 0.  1.
         21   -1    0    0  501  502  0.00000000000E+00 -0.00000000000E+00 -0.60272910922E+03  0.60272910922E+03  0.00000000000E+00 0.  1.
         25    1    1    2    0    0 -0.13454552500E+03  0.14931433661E+03 -0.53115152036E+03  0.58150168271E+03  0.12500000000E+03 0.  0.
          4    1    1    2  501    0  0.13454552500E+03 -0.14931433661E+03  0.17124343123E+03  0.26404844660E+03  0.00000000000E+00 0.  1.
<mgrwt>
<rscale>  3 0.23669024E+03</rscale>
<asrwt>0</asrwt>
<pdfrwt beam="1">  1       21 0.92727554E-01 0.23669024E+03</pdfrwt>
<pdfrwt beam="2">  1        4 0.37357081E-01 0.23669024E+03</pdfrwt>
<totfact> 0.28473663E+02</totfact>
</mgrwt>
</event>
<event>
 4    0  0.1445278E-001  0.2690600E+03  0.7546771E-02  0.1101819E+00
         21   -1    0    0  501  502  0.00000000000E+00  0.00000000000E+00  0.14089101177E+03  0.14089101177E+03  0.00000000000E+00 0. -1.
          1   -1    0    0  502    0 -0.00000000000E+00 -0.00000000000E+00 -0.18349070718E+04  0.18349070718E+04  0.00000000000E+00 0. -1.
         25    1    1    2    0    0  0.16617050532E+03 -0.17075025707E+03 -0.40207842358E+01  0.26909004781E+03  0.12500000000E+03 0.  0.
          1    1    1    2  501    0 -0.16617050532E+03  0.17075025707E+03 -0.16899952757E+04  0.17067080357E+04  0.00000000000E+00 0. -1.
<mgrwt>
<rscale>  3 0.26906001E+03</rscale>
<asrwt>0</asrwt>
<pdfrwt beam="1">  1       21 0.21675539E-01 0.26906001E+03</pdfrwt>
<pdfrwt beam="2">  1        1 0.28229341E+00 0.26906001E+03</pdfrwt>
<totfact> 0.93781373E+02</totfact>
</mgrwt>
</event>
<event>
 4    0  0.1002184E-001  0.2548947E+03  0.7546771E-02  0.1110250E+00
          2   -1    0    0  502    0 -0.00000000000E+00  0.00000000000E+00  0.26420145373E+03  0.26420145373E+03  0.00000000000E+00 0.  1.
         21   -1    0    0  501  502  0.00000000000E+00 -0.00000000000E+00 -0.21858579825E+03  0.21858579825E+03  0.00000000000E+00 0. -1.
         25    1    1    2    0    0  0.21374787607E+03  0.60482880248E+02 -0.50396187437E+01  0.25494456473E+03  0.12500000000E+03 0.  0.
          2    1    1    2  501    0 -0.21374787607E+03 -0.60482880248E+02  0.50655274224E+02  0.22784268726E+03  0.00000000000E+00 0.  1.
<mgrwt>
<rscale>  3 0.25489475E+03</rscale>
<asrwt>0</asrwt>
<pdfrwt beam="1">  1       21 0.33628584E-01 0.25489475E+03</pdfrwt>
<pdfrwt beam="2">  1        2 0.40646378E-01 0.25489475E+03</pdfrwt>
<totfact> 0.13095158E+04</totfact>
</mgrwt>
</event>
<event>
 4    0  0.1002184E-001  0.5783438E+03  0.7546771E-02  0.9951383E-01
         -3   -1    0    0    0  501 -0.00000000000E+00  0.00000000000E+00  0.74579225129E+03  0.74579225129E+03  0.00000000000E+00 0.  1.
         21   -1    0    0  501  502  0.00000000000E+00 -0.00000000000E+00 -0.62181116623E+03  0.62181116623E+03  0.00000000000E+00 0. -1.
         25    1    1    2    0    0 -0.36283976669E+03 -0.43267064941E+03 -0.30929624951E+03  0.65585498177E+03  0.12500000000E+03 0.  0.
         -3    1    1    2    0  502  0.36283976669E+03  0.43267064941E+03  0.43327733456E+03  0.71174843575E+03  0.00000000000E+00 0.  1.
<mgrwt>
<rscale>  3 0.57834383E+03</rscale>
<asrwt>0</asrwt>
<pdfrwt beam="1">  1       21 0.95663257E-01 0.57834383E+03</pdfrwt>
<pdfrwt beam="2">  1       -3 0.11473727E+00 0.57834383E+03</pdfrwt>
<totfact> 0.26309932E+01</totfact>
</mgrwt>
</event>
<event>
 4    0  0.1648488E-001  0.2585424E+03  0.7546771E-02  0.1108022E+00
          1   -1    0    0  502    0 -0.00000000000E+00  0.00000000000E+00  0.10353510756E+04  0.10353510756E+04  0.00000000000E+00 0.  1.
         21   -1    0    0  501  502  0.00000000000E+00 -0.00000000000E+00 -0.57524079160E+02  0.57524079160E+02  0.00000000000E+00 0.  1.
         25    1    1    2    0    0 -0.10026793361E+03  0.20289280727E+03  0.45835889139E+03  0.52624806230E+03  0.12500000000E+03 0.  0.
          1    1    1    2  501    0  0.10026793361E+03 -0.20289280727E+03  0.51946810509E+03  0.56662709250E+03  0.00000000000E+00 0.  1.
<mgrwt>
<rscale>  3 0.25854236E+03</rscale>
<asrwt>0</asrwt>
<pdfrwt beam="1">  1       21 0.88498591E-02 0.25854236E+03</pdfrwt>
<pdfrwt beam="2">  1        1 0.15928477E+00 0.25854236E+03</pdfrwt>
<totfact> 0.16787723E+04</totfact>
</mgrwt>
</event>
<event>
 4    0  0.1319666E-001  0.2849159E+03  0.7546771E-02  0.1093034E+00
          2   -1    0    0  502    0 -0.00000000000E+00  0.00000000000E+00  0.40874053168E+03  0.40874053168E+03  0.00000000000E+00 0.  1.
         21   -1    0    0  501  502  0.00000000000E+00 -0.00000000000E+00 -0.22798196132E+03  0.22798196132E+03  0.00000000000E+00 0.  1.
         25    1    1    2    0    0 -0.14949061626E+03  0.20785728252E+03  0.24160068141E+03  0.37356121788E+03  0.12500000000E+03 0.  0.
          2    1    1    2  501    0  0.14949061626E+03 -0.20785728252E+03 -0.60842111053E+02  0.26316127512E+03  0.00000000000E+00 0.  1.
<mgrwt>
<rscale>  3 0.28491594E+03</rscale>
<asrwt>0</asrwt>
<pdfrwt beam="1">  1       21 0.35074148E-01 0.28491594E+03</pdfrwt>
<pdfrwt beam="2">  1        2 0.62883159E-01 0.28491594E+03</pdfrwt>
<totfact> 0.74571138E+03</totfact>
</mgrwt>
</event>
<event>
 4    0  0.1480773E-001  0.4563091E+03  0.7546771E-02  0.1025857E+00
         -2   -1    0    0    0  501 -0.00000000000E+00  0.00000000000E+00  0.17933455548E+04  0.17933455548E+04  0.00000000000E+00 0.  1.
         21   -1    0    0  501  502  0.00000000000E+00 -0.00000000000E+00 -0.14486223294E+03  0.14486223294E+03  0.00000000000E+00 0.  1.
         25    1    1    2    0    0  0.40086375360E+03  0.17860915588E+03  0.37307632697E+03  0.58940981096E+03  0.12500000000E+03 0.  0.
         -2    1    1    2    0  502 -0.40086375360E+03 -0.17860915588E+03  0.12754069949E+04  0.13487979767E+04  0.00000000000E+00 0.  1.
<mgrwt>
<rscale>  3 0.45630908E+03</rscale>
<asrwt>0</asrwt>
<pdfrwt beam="1">  1       21 0.22286499E-01 0.45630908E+03</pdfrwt>
<pdfrwt beam="2">  1       -2 0.27589930E+00 0.45630908E+03</pdfrwt>
<totfact> 0.71936153E+01</totfact>
</mgrwt>
</event>
<event>
 4    0  0.1569913E-001  0.2441788E+03  0.7546771E-02  0.1117040E+00
          3   -1    0    0  502    0 -0.00000000000E+00  0.00000000000E+00  0.11365075957E+04  0.11365075957E+04  0.00000000000E+00 0.  1.
         21   -1    0    0  501  502  0.00000000000E+00 -0.00000000000E+00 -0.51433095771E+02  0.51433095771E+02  0.00000000000E+00 0.  1.
         25    1    1    2    0    0  0.18991572876E+03  0.89052117976E+02  0.37465682064E+03  0.44720352973E+03  0.12500000000E+03 0.  0.
          3    1    1    2  501    0 -0.18991572876E+03 -0.89052117976E+02  0.71041767927E+03  0.74073716173E+03  0.00000000000E+00 0.  1.
<mgrwt>
<rscale>  3 0.24417875E+03</rscale>
<asrwt>0</asrwt>
<pdfrwt beam="1">  1       21 0.79127848E-02 0.24417875E+03</pdfrwt>
<pdfrwt beam="2">  1        3 0.17484730E+00 0.24417875E+03</pdfrwt>
<totfact> 0.13991007E+03</totfact>
</mgrwt>
</event>
<event>
 4    0  0.1497152E-001  0.3499274E+03  0.7546771E-02  0.1062645E+00
         21   -1    0    0  501  502  0.00000000000E+00  0.00000000000E+00  0.10451245187E+03  0.10451245187E+03  0.00000000000E+00 0. -1.
          2   -1    0    0  502    0 -0.00000000000E+00 -0.00000000000E+00 -0.13730019681E+04  0.13730019681E+04  0.00000000000E+00 0. -1.
         25    1    1    2    0    0 -0.14341603015E+03  0.29369375014E+03 -0.31959865385E+03  0.47391188645E+03  0.12500000000E+03 0.  0.
          2    1    1    2  501    0  0.14341603015E+03 -0.29369375014E+03 -0.94889086239E+03  0.10036025335E+04  0.00000000000E+00 0. -1.
<mgrwt>
<rscale>  3 0.34992739E+03</rscale>
<asrwt>0</asrwt>
<pdfrwt beam="1">  1       21 0.16078840E-01 0.34992739E+03</pdfrwt>
<pdfrwt beam="2">  1        2 0.21123106E+00 0.34992739E+03</pdfrwt>
<totfact> 0.67571979E+03</totfact>
</mgrwt>
</event>
<event>
 4    0  0.1318244E-001  0.3054727E+03  0.7546771E-02  0.1082536E+00
         21   -1    0    0  501  502  0.00000000000E+00  0.00000000000E+00  0.20239709015E+03  0.20239709015E+03  0.00000000000E+00 0.  1.
          2   -1    0    0  502    0 -0.00000000000E+00 -0.00000000000E+00 -0.43926688573E+03  0.43926688573E+03  0.00000000000E+00 0.  1.
         25    1    1    2    0    0 -0.83843390051E+02  0.26581738646E+03 -0.59286410909E+02  0.31117274225E+03  0.12500000000E+03 0.  0.
          2    1    1    2  501    0  0.83843390051E+02 -0.26581738646E+03 -0.17758338467E+03  0.33049123364E+03  0.00000000000E+00 0.  1.
<mgrwt>
<rscale>  3 0.30547274E+03</rscale>
<asrwt>0</asrwt>
<pdfrwt beam="1">  1       21 0.31138014E-01 0.30547274E+03</pdfrwt>
<pdfrwt beam="2">  1        2 0.67579520E-01 0.30547274E+03</pdfrwt>
<totfact> 0.86965410E+03</totfact>
</mgrwt>
</event>
<event>
 4    0  0.1189097E-001  0.2420969E+03  0.7546771E-02  0.1118404E+00
         21   -1    0    0  501  502  0.00000000000E+00  0.00000000000E+00  0.27474663407E+03  0.27474663407E+03  0.00000000000E+00 0. -1.
          2   -1    0    0  502    0 -0.00000000000E+00 -0.00000000000E+00 -0.20757689538E+03  0.20757689538E+03  0.00000000000E+00 0. -1.
         25    1    1    2    0    0  0.13945105712E+03  0.15342519919E+03  0.11730250567E+03  0.26901815351E+03  0.12500000000E+03 0.  0.
          2    1    1    2  501    0 -0.13945105712E+03 -0.15342519919E+03 -0.50132766979E+02  0.21330537594E+03  0.00000000000E+00 0. -1.
<mgrwt>
<rscale>  3 0.24209686E+03</rscale>
<asrwt>0</asrwt>
<pdfrwt beam="1">  1       21 0.42268713E-01 0.24209686E+03</pdfrwt>
<pdfrwt beam="2">  1        2 0.31934907E-01 0.24209686E+03</pdfrwt>
<totfact> 0.10759993E+04</totfact>
</mgrwt>
</event>
<event>
 4    0  0.1174544E-001  0.2762628E+03  0.7546771E-02  0.1097748E+00
          2   -1    0    0  502    0 -0.00000000000E+00  0.00000000000E+00  0.28515025099E+04  0.28515025099E+04  0.00000000000E+00 0.  1.
         21   -1    0    0  501  502  0.00000000000E+00 -0.00000000000E+00 -0.33183355350E+03  0.33183355350E+03  0.00000000000E+00 0. -1.
         25    1    1    2    0    0  0.23785404543E+03  0.64199553369E+02 -0.26794415247E+03  0.38485737413E+03  0.12500000000E+03 0.  0.
          2    1    1    2  501    0 -0.23785404543E+03 -0.64199553369E+02  0.27876131088E+04  0.27984786892E+04  0.00000000000E+00 0.  1.
<mgrwt>
<rscale>  3 0.27626279E+03</rscale>
<asrwt>0</asrwt>
<pdfrwt beam="1">  1       21 0.51051318E-01 0.27626279E+03</pdfrwt>
<pdfrwt beam="2">  1        2 0.43869268E+00 0.27626279E+03</pdfrwt>
<totfact> 0.11344433E+02</totfact>
</mgrwt>
</event>
<event>
 4    0  0.1497737E-001  0.2936282E+03  0.7546771E-02  0.1088470E+00
          1   -1    0    0  502    0 -0.00000000000E+00  0.00000000000E+00  0.19437315594E+04  0.19437315594E+04  0.00000000000E+00 0. -1.
         21   -1    0    0  501  502  0.00000000000E+00 -0.00000000000E+00 -0.40561857199E+02  0.40561857199E+02  0.00000000000E+00 0. -1.
         25    1    1    2    0    0 -0.61132643482E+02 -0.25856397856E+03  0.10874114091E+04  0.11263574493E+04  0.12500000000E+03 0.  0.
          1    1    1    2  501    0  0.61132643482E+02  0.25856397856E+03  0.81575829315E+03  0.85793596728E+03  0.00000000000E+00 0. -1.
<mgrwt>
<rscale>  3 0.29362822E+03</rscale>
<asrwt>0</asrwt>
<pdfrwt beam="1">  1       21 0.62402873E-02 0.29362822E+03</pdfrwt>
<pdfrwt beam="2">  1        1 0.29903555E+00 0.29362822E+03</pdfrwt>
<totfact> 0.74727158E+03</totfact>
</mgrwt>
</event>
<event>
 4    0  0.1433720E-001  0.4424245E+03  0.7546771E-02  0.1030006E+00
         21   -1    0    0  501  502  0.00000000000E+00  0.00000000000E+00  0.26511388918E+03  0.26511388918E+03  0.00000000000E+00 0.  1.
         -3   -1    0    0    0  501 -0.00000000000E+00 -0.00000000000E+00 -0.79456606508E+03  0.79456606508E+03  0.00000000000E+00 0.  1.
         25    1    1    2    0    0 -0.36114873849E+03 -0.22290354253E+03 -0.44393339766E+03  0.62675055815E+03  0.12500000000E+03 0.  0.
         -3    1    1    2    0  502  0.36114873849E+03  0.22290354253E+03 -0.85518778235E+02  0.43292939611E+03  0.00000000000E+00 0.  1.
<mgrwt>
<rscale>  3 0.44242446E+03</rscale>
<asrwt>0</asrwt>
<pdfrwt beam="1">  1       21 0.40786753E-01 0.44242446E+03</pdfrwt>
<pdfrwt beam="2">  1       -3 0.12224093E+00 0.44242446E+03</pdfrwt>
<totfact> 0.15352828E+02</totfact>
</mgrwt>
</event>
<event>
 4    0  0.1353339E-001  0.2828170E+03  0.7546771E-02  0.1094160E+00
         -1   -1    0    0    0  501 -0.00000000000E+00  0.00000000000E+00  0.19395236796E+04  0.19395236796E+04  0.00000000000E+00 0.  1.
         21   -1    0    0  501  502  0.00000000000E+00 -0.00000000000E+00 -0.23029419565E+03  0.23029419565E+03  0.00000000000E+00 0. -1.
         25    1    1    2    0    0  0.37641933306E+02  0.25088556399E+03 -0.13135448142E+03  0.31183245686E+03  0.12500000000E+03 0.  0.
         -1    1    1    2    0  502 -0.37641933306E+02 -0.25088556399E+03  0.18405839654E+04  0.18579854184E+04  0.00000000000E+00 0.  1.
<mgrwt>
<rscale>  3 0.28281705E+03</rscale>
<asrwt>0</asrwt>
<pdfrwt beam="1">  1       21 0.35429878E-01 0.28281705E+03</pdfrwt>
<pdfrwt beam="2">  1       -1 0.29838825E+00 0.28281705E+03</pdfrwt>
<totfact> 0.27485866E+01</totfact>
</mgrwt>
</event>
<event>
 4    0  0.1162138E-001  0.2677747E+03  0.7546771E-02  0.1102560E+00
         21   -1    0    0  501  502  0.00000000000E+00  0.00000000000E+00  0.53628714493E+03  0.53628714493E+03  0.00000000000E+00 0.  1.
          2   -1    0    0  502    0 -0.00000000000E+00 -0.00000000000E+00 -0.12333653305E+03  0.12333653305E+03  0.00000000000E+00 0.  1.
         25    1    1    2    0    0 -0.21308436567E+03 -0.10331179020E+03  0.28257966131E+03  0.38930006148E+03  0.12500000000E+03 0.  0.
          2    1    1    2  501    0  0.21308436567E+03  0.10331179020E+03  0.13037095057E+03  0.27032361650E+03  0.00000000000E+00 0.  1.
<mgrwt>
<rscale>  3 0.26777467E+03</rscale>
<asrwt>0</asrwt>
<pdfrwt beam="1">  1       21 0.82505713E-01 0.26777467E+03</pdfrwt>
<pdfrwt beam="2">  1        2 0.18974852E-01 0.26777467E+03</pdfrwt>
<totfact> 0.45315025E+03</totfact>
</mgrwt>
</event>
<event>
 4    0  0.1109069E-001  0.5547724E+03  0.7546771E-02  0.1000395E+00
          2   -1    0    0  502    0 -0.00000000000E+00  0.00000000000E+00  0.19464245411E+04  0.19464245411E+04  0.00000000000E+00 0.  1.
         21   -1    0    0  501  502  0.00000000000E+00 -0.00000000000E+00 -0.23631920968E+03  0.23631920968E+03  0.00000000000E+00 0.  1.
         25    1    1    2    0    0  0.43430398763E+03 -0.32175686638E+03  0.21854017634E+03  0.59626524585E+03  0.12500000000E+03 0.  0.
          2    1    1    2  501    0 -0.43430398763E+03  0.32175686638E+03  0.14915651550E+04  0.15864785049E+04  0.00000000000E+00 0.  1.
<mgrwt>
<rscale>  3 0.55477242E+03</rscale>
<asrwt>0</asrwt>
<pdfrwt beam="1">  1       21 0.36356803E-01 0.55477242E+03</pdfrwt>
<pdfrwt beam="2">  1        2 0.29944992E+00 0.55477242E+03</pdfrwt>
<totfact> 0.64468616E+02</totfact>
</mgrwt>
</event>
<event>
 4    0  0.1002184E-001  0.5349808E+03  0.7546771E-02  0.1005031E+00
          2   -1    0    0  502    0 -0.00000000000E+00  0.00000000000E+00  0.24657027971E+04  0.24657027971E+04  0.00000000000E+00 0.  1.
         21   -1    0    0  501  502  0.00000000000E+00 -0.00000000000E+00 -0.11316260995E+03  0.11316260995E+03  0.00000000000E+00 0.  1.
         25    1    1    2    0    0 -0.99854010036E+02 -0.51049837720E+03  0.12567718079E+04  0.13658988958E+04  0.12500000000E+03 0.  0.
          2    1    1    2  501    0  0.99854010036E+02  0.51049837720E+03  0.10957683793E+04  0.12129665113E+04  0.00000000000E+00 0.  1.
<mgrwt>
<rscale>  3 0.53498076E+03</rscale>
<asrwt>0</asrwt>
<pdfrwt beam="1">  1       21 0.17409634E-01 0.53498076E+03</pdfrwt>
<pdfrwt beam="2">  1        2 0.37933885E+00 0.53498076E+03</pdfrwt>
<totfact> 0.14247225E+03</totfact>
</mgrwt>
</event>
<event>
 4    0  0.1185408E-001  0.2770608E+03  0.7546771E-02  0.1097305E+00
         21   -1    0    0  501  502  0.00000000000E+00  0.00000000000E+00  0.53569129012E+02  0.53569129012E+02  0.00000000000E+00 0.  1.
          2   -1    0    0  502    0 -0.00000000000E+00 -0.00000000000E+00 -0.19189341463E+04  0.19189341463E+04  0.00000000000E+00 0. -1.
         25    1    1    2    0    0  0.14799778494E+03 -0.19807656229E+03 -0.40097071126E+03  0.48738093948E+03  0.12500000000E+03 0.  0.
          2    1    1    2  501    0 -0.14799778494E+03  0.19807656229E+03 -0.14643943061E+04  0.14851223359E+04  0.00000000000E+00 0. -1.
<mgrwt>
<rscale>  3 0.27706077E+03</rscale>
<asrwt>0</asrwt>
<pdfrwt beam="1">  1       21 0.82414057E-02 0.27706077E+03</pdfrwt>
<pdfrwt beam="2">  1        2 0.29522059E+00 0.27706077E+03</pdfrwt>
<totfact> 0.11749629E+04</totfact>
</mgrwt>
</event>
<event>
 4    0  0.1166012E-001  0.2709835E+03  0.7546771E-02  0.1100718E+00
         21   -1    0    0  501  502  0.00000000000E+00  0.00000000000E+00  0.12502556791E+04  0.12502556791E+04  0.00000000000E+00 0.  1.
         -2   -1    0    0    0  501 -0.00000000000E+00 -0.00000000000E+00 -0.15020306187E+03  0.15020306187E+03  0.00000000000E+00 0.  1.
         25    1    1    2    0    0 -0.40771004949E+02  0.23694893167E+03  0.11264471283E+04  0.11585832745E+04  0.12500000000E+03 0.  0.
         -2    1    1    2    0  502  0.40771004949E+02 -0.23694893167E+03 -0.26394511080E+02  0.24187546647E+03  0.00000000000E+00 0.  1.
<mgrwt>
<rscale>  3 0.27098353E+03</rscale>
<asrwt>0</asrwt>
<pdfrwt beam="1">  1       21 0.19234702E+00 0.27098353E+03</pdfrwt>
<pdfrwt beam="2">  1       -2 0.23108164E-01 0.27098353E+03</pdfrwt>
<totfact> 0.18678491E+02</totfact>
</mgrwt>
</event>
<event>
 4    0  0.1399346E-001  0.3312964E+03  0.7546771E-02  0.1070565E+00
          2   -1    0    0  502    0 -0.00000000000E+00  0.00000000000E+00  0.55488764662E+03  0.55488764662E+03  0.00000000000E+00 0. -1.
         21   -1    0    0  501  502  0.00000000000E+00 -0.00000000000E+00 -0.23957733120E+03  0.23957733120E+03  0.00000000000E+00 0. -1.
         25    1    1    2    0    0  0.13778264214E+03  0.27413176082E+03  0.35444588359E+03  0.48516921085E+03  0.12500000000E+03 0.  0.
          2    1    1    2  501    0 -0.13778264214E+03 -0.27413176082E+03 -0.39135568174E+02  0.30929576697E+03  0.00000000000E+00 0. -1.
<mgrwt>
<rscale>  3 0.33129636E+03</rscale>
<asrwt>0</asrwt>
<pdfrwt beam="1">  1       21 0.36858051E-01 0.33129636E+03</pdfrwt>
<pdfrwt beam="2">  1        2 0.85367330E-01 0.33129636E+03</pdfrwt>
<totfact> 0.47421302E+03</totfact>
</mgrwt>
</event>
<event>
 4    0  0.1002184E-001  0.2384189E+03  0.7546771E-02  0.1120851E+00
         21   -1    0    0  501  502  0.00000000000E+00  0.00000000000E+00  0.18367969062E+04  0.18367969062E+04  0.00000000000E+00 0.  1.
          1   -1    0    0  502    0 -0.00000000000E+00 -0.00000000000E+00 -0.67431620870E+02  0.67431620870E+02  0.00000000000E+00 0. -1.
         25    1    1    2    0    0 -0.14990716205E+03 -0.13691753014E+03  0.16532345598E+04  0.16703377134E+04  0.12500000000E+03 0.  0.
          1    1    1    2  501    0  0.14990716205E+03  0.13691753014E+03  0.11613072560E+03  0.23389081367E+03  0.00000000000E+00 0. -1.
<mgrwt>
<rscale>  3 0.23841889E+03</rscale>
<asrwt>0</asrwt>
<pdfrwt beam="1">  1       21 0.28258410E+00 0.23841889E+03</pdfrwt>
<pdfrwt beam="2">  1        1 0.10374097E-01 0.23841889E+03</pdfrwt>
<totfact> 0.26826798E+02</totfact>
</mgrwt>
</event>
<event>
 4    0  0.1247714E-001  0.3890703E+03  0.7546771E-02  0.1047631E+00
          3   -1    0    0  502    0 -0.00000000000E+00  0.00000000000E+00  0.42739198390E+03  0.42739198390E+03  0.00000000000E+00 0. -1.
         21   -1    0    0  501  502  0.00000000000E+00 -0.00000000000E+00 -0.38117583807E+03  0.38117583807E+03  0.00000000000E+00 0. -1.
         25    1    1    2    0    0 -0.24643405949E+03  0.27389954692E+03 -0.11600058096E+03  0.40599487960E+03  0.12500000000E+03 0.  0.
          3    1    1    2  501    0  0.24643405949E+03 -0.27389954692E+03  0.16221672679E+03  0.40257294237E+03  0.00000000000E+00 0. -1.
<mgrwt>
<rscale>  3 0.38907031E+03</rscale>
<asrwt>0</asrwt>
<pdfrwt beam="1">  1       21 0.58642437E-01 0.38907031E+03</pdfrwt>
<pdfrwt beam="2">  1        3 0.65752613E-01 0.38907031E+03</pdfrwt>
<totfact> 0.29440469E+02</totfact>
</mgrwt>
</event>
<event>
 4    0  0.1569812E-001  0.2626659E+03  0.7546771E-02  0.1105552E+00
         -2   -1    0    0    0  501 -0.00000000000E+00  0.00000000000E+00  0.14464276487E+03  0.14464276487E+03  0.00000000000E+00 0.  1.
         21   -1    0    0  501  502  0.00000000000E+00 -0.00000000000E+00 -0.48645792290E+03  0.48645792290E+03  0.00000000000E+00 0.  1.
         25    1    1    2    0    0  0.83528444706E+02  0.21538655937E+03 -0.65069102113E+02  0.27060554149E+03  0.12500000000E+03 0.  0.
         -2    1    1    2    0  502 -0.83528444706E+02 -0.21538655937E+03 -0.27674605591E+03  0.36049514628E+03  0.00000000000E+00 0.  1.
<mgrwt>
<rscale>  3 0.26266589E+03</rscale>
<asrwt>0</asrwt>
<pdfrwt beam="1">  1       21 0.74839680E-01 0.26266589E+03</pdfrwt>
<pdfrwt beam="2">  1       -2 0.22252733E-01 0.26266589E+03</pdfrwt>
<totfact> 0.21813511E+03</totfact>
</mgrwt>
</event>
<event>
 4    0  0.1027577E-001  0.2414226E+03  0.7546771E-02  0.1118849E+00
         -2   -1    0    0    0  501 -0.00000000000E+00  0.00000000000E+00  0.15925267899E+04  0.15925267899E+04  0.00000000000E+00 0. -1.
         21   -1    0    0  501  502  0.00000000000E+00 -0.00000000000E+00 -0.61945056461E+02  0.61945056461E+02  0.00000000000E+00 0.  1.
         25    1    1    2    0    0 -0.14468448278E+03 -0.14739836346E+03  0.21656894310E+03  0.32432542950E+03  0.12500000000E+03 0.  0.
         -2    1    1    2    0  502  0.14468448278E+03  0.14739836346E+03  0.13140127904E+04  0.13301464169E+04  0.00000000000E+00 0. -1.
<mgrwt>
<rscale>  3 0.24142261E+03</rscale>
<asrwt>0</asrwt>
<pdfrwt beam="1">  1       21 0.95300099E-02 0.24142261E+03</pdfrwt>
<pdfrwt beam="2">  1       -2 0.24500409E+00 0.24142261E+03</pdfrwt>
<totfact> 0.55758830E+02</totfact>
</mgrwt>
</event>
<event>
 4    0  0.1002184E-001  0.5968014E+03  0.7546771E-02  0.9912064E-01
          3   -1    0    0  502    0 -0.00000000000E+00  0.00000000000E+00  0.34054581482E+03  0.34054581482E+03  0.00000000000E+00 0. -1.
         21   -1    0    0  501  502  0.00000000000E+00 -0.00000000000E+00 -0.10890276750E+04  0.10890276750E+04  0.00000000000E+00 0. -1.
         25    1    1    2    0    0  0.45394038311E+03 -0.36672204283E+03 -0.55442073184E+03  0.81458840895E+03  0.12500000000E+03 0.  0.
          3    1    1    2  501    0 -0.45394038311E+03  0.36672204283E+03 -0.19406112831E+03  0.61498508082E+03  0.00000000000E+00 0. -1.
<mgrwt>
<rscale>  3 0.59680141E+03</rscale>
<asrwt>0</asrwt>
<pdfrwt beam="1">  1       21 0.16754272E+00 0.59680141E+03</pdfrwt>
<pdfrwt beam="2">  1        3 0.52391664E-01 0.59680141E+03</pdfrwt>
<totfact> 0.34772321E+01</totfact>
</mgrwt>
</event>
<event>
 4    0  0.1292364E-001  0.2584147E+03  0.7546771E-02  0.1108099E+00
         21   -1    0    0  501  502  0.00000000000E+00  0.00000000000E+00  0.48234557720E+03  0.48234557720E+03  0.00000000000E+00 0.  1.
          3   -1    0    0  502    0 -0.00000000000E+00 -0.00000000000E+00 -0.46783250276E+03  0.46783250276E+03  0.00000000000E+00 0.  1.
         25    1    1    2    0    0  0.15662393485E+03 -0.16316282084E+03  0.41579102595E+03  0.48955116212E+03  0.12500000000E+03 0.  0.
          3    1    1    2  501    0 -0.15662393485E+03  0.16316282084E+03 -0.40127795150E+03  0.46062691784E+03  0.00000000000E+00 0.  1.
<mgrwt>
<rscale>  3 0.25841471E+03</rscale>
<asrwt>0</asrwt>
<pdfrwt beam="1">  1       21 0.74207012E-01 0.25841471E+03</pdfrwt>
<pdfrwt beam="2">  1        3 0.71974231E-01 0.25841471E+03</pdfrwt>
<totfact> 0.14792951E+02</totfact>
</mgrwt>
</event>
<event>
 4    0  0.1582254E-001  0.2497682E+03  0.7546771E-02  0.1113451E+00
         21   -1    0    0  501  502  0.00000000000E+00  0.00000000000E+00  0.57501447950E+02  0.57501447950E+02  0.00000000000E+00 0. -1.
          2   -1    0    0  502    0 -0.00000000000E+00 -0.00000000000E+00 -0.94418290754E+03  0.94418290754E+03  0.00000000000E+00 0. -1.
         25    1    1    2    0    0 -0.15477194795E+03 -0.15101251867E+03 -0.47278915714E+03  0.53470900851E+03  0.12500000000E+03 0.  0.
          2    1    1    2  501    0  0.15477194795E+03  0.15101251867E+03 -0.41389230244E+03  0.46697534698E+03  0.00000000000E+00 0. -1.
<mgrwt>
<rscale>  3 0.24976817E+03</rscale>
<asrwt>0</asrwt>
<pdfrwt beam="1">  1       21 0.88463772E-02 0.24976817E+03</pdfrwt>
<pdfrwt beam="2">  1        2 0.14525890E+00 0.24976817E+03</pdfrwt>
<totfact> 0.36080367E+04</totfact>
</mgrwt>
</event>
<event>
 4    0  0.1457466E-001  0.3702006E+03  0.7546771E-02  0.1054616E+00
          2   -1    0    0  502    0 -0.00000000000E+00  0.00000000000E+00  0.13397879042E+04  0.13397879042E+04  0.00000000000E+00 0.  1.
         21   -1    0    0  501  502  0.00000000000E+00 -0.00000000000E+00 -0.11033760965E+03  0.11033760965E+03  0.00000000000E+00 0.  1.
         25    1    1    2    0    0  0.17207864556E+03  0.30300560161E+03  0.37311514572E+03  0.52560761679E+03  0.12500000000E+03 0.  0.
          2    1    1    2  501    0 -0.17207864556E+03 -0.30300560161E+03  0.85633514884E+03  0.92451789707E+03  0.00000000000E+00 0.  1.
<mgrwt>
<rscale>  3 0.37020056E+03</rscale>
<asrwt>0</asrwt>
<pdfrwt beam="1">  1       21 0.16975018E-01 0.37020056E+03</pdfrwt>
<pdfrwt beam="2">  1        2 0.20612120E+00 0.37020056E+03</pdfrwt>
<totfact> 0.63441370E+03</totfact>
</mgrwt>
</event>
<event>
 4    0  0.1002184E-001  0.2376276E+03  0.7546771E-02  0.1121383E+00
         -1   -1    0    0    0  501 -0.00000000000E+00  0.00000000000E+00  0.10729200562E+03  0.10729200562E+03  0.00000000000E+00 0.  1.
         21   -1    0    0  501  502  0.00000000000E+00 -0.00000000000E+00 -0.60302609435E+03  0.60302609435E+03  0.00000000000E+00 0. -1.
         25    1    1    2    0    0 -0.13236640220E+02 -0.20165982622E+03 -0.44099438186E+03  0.50094205152E+03  0.12500000000E+03 0.  0.
         -1    1    1    2    0  502  0.13236640220E+02  0.20165982622E+03 -0.54739706878E+02  0.20937604845E+03  0.00000000000E+00 0.  1.
<mgrwt>
<rscale>  3 0.23762764E+03</rscale>
<asrwt>0</asrwt>
<pdfrwt beam="1">  1       21 0.92773244E-01 0.23762764E+03</pdfrwt>
<pdfrwt beam="2">  1       -1 0.16506463E-01 0.23762764E+03</pdfrwt>
<totfact> 0.24014176E+03</totfact>
</mgrwt>
</event>
<event>
 4    0  0.1158125E-001  0.2749069E+03  0.7546771E-02  0.1098504E+00
         -4   -1    0    0    0  501 -0.00000000000E+00  0.00000000000E+00  0.58782987571E+03  0.58782987571E+03  0.00000000000E+00 0.  1.
         21   -1    0    0  501  502  0.00000000000E+00 -0.00000000000E+00 -0.26244664752E+03  0.26244664752E+03  0.00000000000E+00 0. -1.
         25    1    1    2    0    0 -0.10955045382E+03  0.21896923403E+03 -0.15173472417E+03  0.31400199665E+03  0.12500000000E+03 0.  0.
         -4    1    1    2    0  502  0.10955045382E+03 -0.21896923403E+03  0.47711795236E+03  0.53627452657E+03  0.00000000000E+00 0.  1.
<mgrwt>
<rscale>  3 0.27490694E+03</rscale>
<asrwt>0</asrwt>
<pdfrwt beam="1">  1       21 0.40376407E-01 0.27490694E+03</pdfrwt>
<pdfrwt beam="2">  1       -4 0.90435366E-01 0.27490694E+03</pdfrwt>
<totfact> 0.26522032E+02</totfact>
</mgrwt>
</event>
<event>
 4    0  0.1240475E-001  0.5639542E+03  0.7546771E-02  0.9983147E-01
          1   -1    0    0  502    0 -0.00000000000E+00  0.00000000000E+00  0.14396543494E+04  0.14396543494E+04  0.00000000000E+00 0. -1.
         21   -1    0    0  501  502  0.00000000000E+00 -0.00000000000E+00 -0.25079982518E+03  0.25079982518E+03  0.00000000000E+00 0. -1.
         25    1    1    2    0    0  0.50676567296E+03 -0.21355994081E+03  0.28358371808E+03  0.63124006588E+03  0.12500000000E+03 0.  0.
          1    1    1    2  501    0 -0.50676567296E+03  0.21355994081E+03  0.90527080610E+03  0.10592141087E+04  0.00000000000E+00 0. -1.
<mgrwt>
<rscale>  3 0.56395416E+03</rscale>
<asrwt>0</asrwt>
<pdfrwt beam="1">  1       21 0.38584589E-01 0.56395416E+03</pdfrwt>
<pdfrwt beam="2">  1        1 0.22148528E+00 0.56395416E+03</pdfrwt>
<totfact> 0.50014052E+02</totfact>
</mgrwt>
</event>
<event>
 4    0  0.1812423E-001  0.4271843E+03  0.7546771E-02  0.1034753E+00
         -3   -1    0    0    0  501 -0.00000000000E+00  0.00000000000E+00  0.69180262320E+03  0.69180262320E+03  0.00000000000E+00 0. -1.
         21   -1    0    0  501  502  0.00000000000E+00 -0.00000000000E+00 -0.32197117020E+03  0.32197117020E+03  0.00000000000E+00 0. -1.
         25    1    1    2    0    0 -0.30301131516E+03 -0.27394447318E+03 -0.47477715983E+02  0.42981457050E+03  0.12500000000E+03 0.  0.
         -3    1    1    2    0  502  0.30301131516E+03  0.27394447318E+03  0.41730916898E+03  0.58395922290E+03  0.00000000000E+00 0. -1.
<mgrwt>
<rscale>  3 0.42718431E+03</rscale>
<asrwt>0</asrwt>
<pdfrwt beam="1">  1       21 0.49534026E-01 0.42718431E+03</pdfrwt>
<pdfrwt beam="2">  1       -3 0.10643117E+00 0.42718431E+03</pdfrwt>
<totfact> 0.14272529E+02</totfact>
</mgrwt>
</event>
<event>
 4    0  0.1412720E-001  0.2391011E+03  0.7546771E-02  0.1120393E+00
         21   -1    0    0  501  502  0.00000000000E+00  0.00000000000E+00  0.34466629295E+03  0.34466629295E+03  0.00000000000E+00 0.  1.
         -1   -1    0    0    0  501 -0.00000000000E+00 -0.00000000000E+00 -0.30894713298E+03  0.30894713298E+03  0.00000000000E+00 0.  1.
         25    1    1    2    0    0  0.15670775847E+03  0.13033429668E+03  0.25818463584E+03  0.35189296190E+03  0.12500000000E+03 0.  0.
         -1    1    1    2    0  502 -0.15670775847E+03 -0.13033429668E+03 -0.22246547587E+03  0.30172046403E+03  0.00000000000E+00 0.  1.
<mgrwt>
<rscale>  3 0.23910113E+03</rscale>
<asrwt>0</asrwt>
<pdfrwt beam="1">  1       21 0.53025583E-01 0.23910113E+03</pdfrwt>
<pdfrwt beam="2">  1       -1 0.47530328E-01 0.23910113E+03</pdfrwt>
<totfact> 0.13819109E+03</totfact>
</mgrwt>
</event>
<event>
 4    0  0.1330850E-001  0.2606206E+03  0.7546771E-02  0.1106771E+00
          2   -1    0    0  502    0 -0.00000000000E+00  0.00000000000E+00  0.61398149714E+03  0.61398149714E+03  0.00000000000E+00 0. -1.
         21   -1    0    0  501  502  0.00000000000E+00 -0.00000000000E+00 -0.44869844121E+03  0.44869844121E+03  0.00000000000E+00 0. -1.
         25    1    1    2    0    0 -0.21616643105E+03  0.74633604703E+02 -0.38605703479E+03  0.46579301731E+03  0.12500000000E+03 0.  0.
          2    1    1    2  501    0  0.21616643105E+03 -0.74633604703E+02  0.55134009072E+03  0.59688692103E+03  0.00000000000E+00 0. -1.
<mgrwt>
<rscale>  3 0.26062061E+03</rscale>
<asrwt>0</asrwt>
<pdfrwt beam="1">  1       21 0.69030529E-01 0.26062061E+03</pdfrwt>
<pdfrwt beam="2">  1        2 0.94458692E-01 0.26062061E+03</pdfrwt>
<totfact> 0.11428316E+03</totfact>
</mgrwt>
</event>
<event>
 4    0  0.1572171E-001  0.2814503E+03  0.7546771E-02  0.1094899E+00
          1   -1    0    0  502    0 -0.00000000000E+00  0.00000000000E+00  0.10326071240E+04  0.10326071240E+04  0.00000000000E+00 0.  1.
         21   -1    0    0  501  502  0.00000000000E+00 -0.00000000000E+00 -0.19776764649E+03  0.19776764649E+03  0.00000000000E+00 0.  1.
         25    1    1    2    0    0 -0.62044368960E+02 -0.24441716545E+03 -0.70853438888E+02  0.29023174239E+03  0.12500000000E+03 0.  0.
          1    1    1    2  501    0  0.62044368960E+02  0.24441716545E+03  0.90569291637E+03  0.94014302808E+03  0.00000000000E+00 0.  1.
<mgrwt>
<rscale>  3 0.28145027E+03</rscale>
<asrwt>0</asrwt>
<pdfrwt beam="1">  1       21 0.30425792E-01 0.28145027E+03</pdfrwt>
<pdfrwt beam="2">  1        1 0.15886263E+00 0.28145027E+03</pdfrwt>
<totfact> 0.16964911E+03</totfact>
</mgrwt>
</event>
<event>
 4    0  0.1463398E-001  0.2721927E+03  0.7546771E-02  0.1100031E+00
         21   -1    0    0  501  502  0.00000000000E+00  0.00000000000E+00  0.16947907366E+03  0.16947907366E+03  0.00000000000E+00 0.  1.
          2   -1    0    0  502    0 -0.00000000000E+00 -0.00000000000E+00 -0.52882714897E+03  0.52882714897E+03  0.00000000000E+00 0.  1.
         25    1    1    2    0    0  0.22376269123E+03 -0.91619520845E+02 -0.86461285218E+01  0.27233000959E+03  0.12500000000E+03 0.  0.
          2    1    1    2  501    0 -0.22376269123E+03  0.91619520845E+02 -0.35070194679E+03  0.42597621303E+03  0.00000000000E+00 0.  1.
<mgrwt>
<rscale>  3 0.27219272E+03</rscale>
<asrwt>0</asrwt>
<pdfrwt beam="1">  1       21 0.26073704E-01 0.27219272E+03</pdfrwt>
<pdfrwt beam="2">  1        2 0.81358023E-01 0.27219272E+03</pdfrwt>
<totfact> 0.10054773E+04</totfact>
</mgrwt>
</event>
<event>
 4    0  0.1081278E-001  0.2810519E+03  0.7546771E-02  0.1095116E+00
         -1   -1    0    0    0  501 -0.00000000000E+00  0.00000000000E+00  0.36116273417E+03  0.36116273417E+03  0.00000000000E+00 0. -1.
         21   -1    0    0  501  502  0.00000000000E+00 -0.00000000000E+00 -0.11074452238E+04  0.11074452238E+04  0.00000000000E+00 0.  1.
         25    1    1    2    0    0  0.17932141685E+03 -0.17666077091E+03 -0.10425918638E+04  0.10798092391E+04  0.12500000000E+03 0.  0.
         -1    1    1    2    0  502 -0.17932141685E+03  0.17666077091E+03  0.29630937417E+03  0.38879871880E+03  0.00000000000E+00 0. -1.
<mgrwt>
<rscale>  3 0.28105195E+03</rscale>
<asrwt>0</asrwt>
<pdfrwt beam="1">  1       21 0.17037619E+00 0.28105195E+03</pdfrwt>
<pdfrwt beam="2">  1       -1 0.55563497E-01 0.28105195E+03</pdfrwt>
<totfact> 0.62153371E+01</totfact>
</mgrwt>
</event>
<event>
 4    0  0.1485896E-001  0.2496734E+03  0.7546771E-02  0.1113511E+00
         21   -1    0    0  501  502  0.00000000000E+00  0.00000000000E+00  0.65960624019E+03  0.65960624019E+03  0.00000000000E+00 0.  1.
          2   -1    0    0  502    0 -0.00000000000E+00 -0.00000000000E+00 -0.13827312352E+04  0.13827312352E+04  0.00000000000E+00 0.  1.
         25    1    1    2    0    0 -0.91302187678E+02 -0.19589715547E+03  0.62707346590E+03  0.67495030679E+03  0.12500000000E+03 0.  0.
          2    1    1    2  501    0  0.91302187678E+02  0.19589715547E+03 -0.13501984609E+04  0.13673871686E+04  0.00000000000E+00 0.  1.
<mgrwt>
<rscale>  3 0.24967336E+03</rscale>
<asrwt>0</asrwt>
<pdfrwt beam="1">  1       21 0.10147788E+00 0.24967336E+03</pdfrwt>
<pdfrwt beam="2">  1        2 0.21272788E+00 0.24967336E+03</pdfrwt>
<totfact> 0.15354688E+02</totfact>
</mgrwt>
</event>
<event>
 4    0  0.1368756E-001  0.2486295E+03  0.7546771E-02  0.1114174E+00
          2   -1    0    0  502    0 -0.00000000000E+00  0.00000000000E+00  0.31032064464E+03  0.31032064464E+03  0.00000000000E+00 0. -1.
         21   -1    0    0  501  502  0.00000000000E+00 -0.00000000000E+00 -0.17332883614E+03  0.17332883614E+03  0.00000000000E+00 0. -1.
         25    1    1    2    0    0  0.16823865881E+03  0.13374380061E+03  0.82008528527E+02  0.26180536525E+03  0.12500000000E+03 0.  0.
          2    1    1    2  501    0 -0.16823865881E+03 -0.13374380061E+03  0.54983279966E+02  0.22184411553E+03  0.00000000000E+00 0. -1.
<mgrwt>
<rscale>  3 0.24862954E+03</rscale>
<asrwt>0</asrwt>
<pdfrwt beam="1">  1       21 0.26665975E-01 0.24862954E+03</pdfrwt>
<pdfrwt beam="2">  1        2 0.47741638E-01 0.24862954E+03</pdfrwt>
<totfact> 0.17362193E+04</totfact>
</mgrwt>
</event>
<event>
 4    0  0.1599234E-001  0.2841905E+03  0.7546771E-02  0.1093422E+00
         21   -1    0    0  501  502  0.00000000000E+00  0.00000000000E+00  0.70705012871E+02  0.70705012871E+02  0.00000000000E+00 0.  1.
          1   -1    0    0  502    0 -0.00000000000E+00 -0.00000000000E+00 -0.11452614053E+04  0.11452614053E+04  0.00000000000E+00 0.  1.
         25    1    1    2    0    0 -0.19534210382E+03  0.16425808819E+03 -0.36957679388E+03  0.46620946326E+03  0.12500000000E+03 0.  0.
          1    1    1    2  501    0  0.19534210382E+03 -0.16425808819E+03 -0.70497959855E+03  0.74975695491E+03  0.00000000000E+00 0.  1.
<mgrwt>
<rscale>  3 0.28419053E+03</rscale>
<asrwt>0</asrwt>
<pdfrwt beam="1">  1       21 0.10877696E-01 0.28419053E+03</pdfrwt>
<pdfrwt beam="2">  1        1 0.17619404E+00 0.28419053E+03</pdfrwt>
<totfact> 0.96293605E+03</totfact>
</mgrwt>
</event>
<event>
 4    0  0.1480435E-001  0.3379515E+03  0.7546771E-02  0.1067672E+00
         21   -1    0    0  501  502  0.00000000000E+00  0.00000000000E+00  0.22057872465E+03  0.22057872465E+03  0.00000000000E+00 0. -1.
          1   -1    0    0  502    0 -0.00000000000E+00 -0.00000000000E+00 -0.68285937090E+03  0.68285937090E+03  0.00000000000E+00 0. -1.
         25    1    1    2    0    0  0.31132740395E+03  0.40761317387E+02  0.79150703780E+01  0.33804420685E+03  0.12500000000E+03 0.  0.
          1    1    1    2  501    0 -0.31132740395E+03 -0.40761317387E+02 -0.47019571663E+03  0.56539388870E+03  0.00000000000E+00 0. -1.
<mgrwt>
<rscale>  3 0.33795153E+03</rscale>
<asrwt>0</asrwt>
<pdfrwt beam="1">  1       21 0.33935189E-01 0.33795153E+03</pdfrwt>
<pdfrwt beam="2">  1        1 0.10505529E+00 0.33795153E+03</pdfrwt>
<totfact> 0.25973855E+03</totfact>
</mgrwt>
</event>
<event>
 4    0  0.1070403E-001  0.2772713E+03  0.7546771E-02  0.1097189E+00
          1   -1    0    0  502    0 -0.00000000000E+00  0.00000000000E+00  0.41614792760E+03  0.41614792760E+03  0.00000000000E+00 0.  1.
         21   -1    0    0  501  502  0.00000000000E+00 -0.00000000000E+00 -0.28223863579E+03  0.28223863579E+03  0.00000000000E+00 0. -1.
         25    1    1    2    0    0  0.22026387448E+03 -0.11286370815E+03 -0.15524628915E+03  0.31777476507E+03  0.12500000000E+03 0.  0.
          1    1    1    2  501    0 -0.22026387448E+03  0.11286370815E+03  0.28915558096E+03  0.38061179832E+03  0.00000000000E+00 0.  1.
<mgrwt>
<rscale>  3 0.27727133E+03</rscale>
<asrwt>0</asrwt>
<pdfrwt beam="1">  1       21 0.43421329E-01 0.27727133E+03</pdfrwt>
<pdfrwt beam="2">  1        1 0.64022758E-01 0.27727133E+03</pdfrwt>
<totfact> 0.31442663E+03</totfact>
</mgrwt>
</event>
<event>
 4    0  0.1677268E-001  0.2898803E+03  0.7546771E-02  0.1090412E+00
         21   -1    0    0  501  502  0.00000000000E+00  0.00000000000E+00  0.47576143904E+03  0.47576143904E+03  0.00000000000E+00 0. -1.
          2   -1    0    0  502    0 -0.00000000000E+00 -0.00000000000E+00 -0.18591285339E+04  0.18591285339E+04  0.00000000000E+00 0.  1.
         25    1    1    2    0    0  0.12889512288E+03  0.22757772889E+03  0.42128595180E+03  0.51138285909E+03  0.12500000000E+03 0.  0.
          2    1    1    2  501    0 -0.12889512288E+03 -0.22757772889E+03 -0.18046530467E+04  0.18235071139E+04  0.00000000000E+00 0.  1.
<mgrwt>
<rscale>  3 0.28988028E+03</rscale>
<asrwt>0</asrwt>
<pdfrwt beam="1">  1       21 0.73194067E-01 0.28988028E+03</pdfrwt>
<pdfrwt beam="2">  1        2 0.28601978E+00 0.28988028E+03</pdfrwt>
<totfact> 0.17800819E+02</totfact>
</mgrwt>
</event>
<event>
 4    0  0.1189400E-001  0.3824063E+03  0.7546771E-02  0.1050048E+00
         21   -1    0    0  501  502  0.00000000000E+00  0.00000000000E+00  0.10704728414E+03  0.10704728414E+03  0.00000000000E+00 0. -1.
          1   -1    0    0  502    0 -0.00000000000E+00 -0.00000000000E+00 -0.29407611885E+04  0.29407611885E+04  0.00000000000E+00 0. -1.
         25    1    1    2    0    0  0.25817706247E+03  0.25289157639E+03 -0.29360437723E+03  0.48211832088E+03  0.12500000000E+03 0.  0.
          1    1    1    2  501    0 -0.25817706247E+03 -0.25289157639E+03 -0.25401095271E+04  0.25656901517E+04  0.00000000000E+00 0. -1.
<mgrwt>
<rscale>  3 0.38240626E+03</rscale>
<asrwt>0</asrwt>
<pdfrwt beam="1">  1       21 0.16468812E-01 0.38240626E+03</pdfrwt>
<pdfrwt beam="2">  1        1 0.45242482E+00 0.38240626E+03</pdfrwt>
<totfact> 0.27322163E+02</totfact>
</mgrwt>
</event>
<event>
 4    0  0.1002184E-001  0.4549341E+03  0.7546771E-02  0.1026261E+00
          2   -1    0    0  502    0 -0.00000000000E+00  0.00000000000E+00  0.24642747718E+04  0.24642747718E+04  0.00000000000E+00 0. -1.
         21   -1    0    0  501  502  0.00000000000E+00 -0.00000000000E+00 -0.61332149170E+03  0.61332149170E+03  0.00000000000E+00 0. -1.
         25    1    1    2    0    0  0.21081315023E+03 -0.38327252492E+03 -0.50597352988E+03  0.68042209371E+03  0.12500000000E+03 0.  0.
          2    1    1    2  501    0 -0.21081315023E+03  0.38327252492E+03  0.23569268100E+04  0.23971741698E+04  0.00000000000E+00 0. -1.
<mgrwt>
<rscale>  3 0.45493408E+03</rscale>
<asrwt>0</asrwt>
<pdfrwt beam="1">  1       21 0.94357154E-01 0.45493408E+03</pdfrwt>
<pdfrwt beam="2">  1        2 0.37911919E+00 0.45493408E+03</pdfrwt>
<totfact> 0.42809484E+01</totfact>
</mgrwt>
</event>
<event>
 4    0  0.1657559E-001  0.2652619E+03  0.7546771E-02  0.1104022E+00
          1   -1    0    0  502    0 -0.00000000000E+00  0.00000000000E+00  0.12739535659E+04  0.12739535659E+04  0.00000000000E+00 0. -1.
         21   -1    0    0  501  502  0.00000000000E+00 -0.00000000000E+00 -0.60210953515E+02  0.60210953515E+02  0.00000000000E+00 0. -1.
         25    1    1    2    0    0 -0.15882832965E+03  0.17179177016E+03  0.34921081637E+03  0.43853397231E+03  0.12500000000E+03 0.  0.
          1    1    1    2  501    0  0.15882832965E+03 -0.17179177016E+03  0.86453179600E+03  0.89563054709E+03  0.00000000000E+00 0. -1.
<mgrwt>
<rscale>  3 0.26526185E+03</rscale>
<asrwt>0</asrwt>
<pdfrwt beam="1">  1       21 0.92632245E-02 0.26526185E+03</pdfrwt>
<pdfrwt beam="2">  1        1 0.19599284E+00 0.26526185E+03</pdfrwt>
<totfact> 0.10464624E+04</totfact>
</mgrwt>
</event>
<event>
 4    0  0.1002184E-001  0.2727692E+03  0.7546771E-02  0.1099705E+00
         21   -1    0    0  501  502  0.00000000000E+00  0.00000000000E+00  0.22461993037E+03  0.22461993037E+03  0.00000000000E+00 0. -1.
          2   -1    0    0  502    0 -0.00000000000E+00 -0.00000000000E+00 -0.32939398433E+03  0.32939398433E+03  0.00000000000E+00 0.  1.
         25    1    1    2    0    0  0.23882776383E+03  0.41705432424E+02  0.33651441072E+02  0.27483715789E+03  0.12500000000E+03 0.  0.
          2    1    1    2  501    0 -0.23882776383E+03 -0.41705432424E+02 -0.13842549503E+03  0.27917675681E+03  0.00000000000E+00 0.  1.
<mgrwt>
<rscale>  3 0.27276921E+03</rscale>
<asrwt>0</asrwt>
<pdfrwt beam="1">  1       21 0.34556913E-01 0.27276921E+03</pdfrwt>
<pdfrwt beam="2">  1        2 0.50675997E-01 0.27276921E+03</pdfrwt>
<totfact> 0.97412146E+03</totfact>
</mgrwt>
</event>
<event>
 4    0  0.1508391E-001  0.2565543E+03  0.7546771E-02  0.1109231E+00
         21   -1    0    0  501  502  0.00000000000E+00  0.00000000000E+00  0.31068271080E+03  0.31068271080E+03  0.00000000000E+00 0. -1.
         -4   -1    0    0    0  501 -0.00000000000E+00 -0.00000000000E+00 -0.22896563300E+03  0.22896563300E+03  0.00000000000E+00 0. -1.
         25    1    1    2    0    0  0.13519463522E+03 -0.17865476451E+03  0.15995969600E+03  0.30233626745E+03  0.12500000000E+03 0.  0.
         -4    1    1    2    0  502 -0.13519463522E+03  0.17865476451E+03 -0.78242618198E+02  0.23731207634E+03  0.00000000000E+00 0. -1.
<mgrwt>
<rscale>  3 0.25655431E+03</rscale>
<asrwt>0</asrwt>
<pdfrwt beam="1">  1       21 0.47797340E-01 0.25655431E+03</pdfrwt>
<pdfrwt beam="2">  1       -4 0.35225482E-01 0.25655431E+03</pdfrwt>
<totfact> 0.13747568E+03</totfact>
</mgrwt>
</event>
<event>
 4    0  0.1353792E-001  0.3356859E+03  0.7546771E-02  0.1068648E+00
         21   -1    0    0  501  502  0.00000000000E+00  0.00000000000E+00  0.57285485090E+02  0.57285485090E+02  0.00000000000E+00 0.  1.
          2   -1    0    0  502    0 -0.00000000000E+00 -0.00000000000E+00 -0.23237389026E+04  0.23237389026E+04  0.00000000000E+00 0.  1.
         25    1    1    2    0    0 -0.10768292063E+01 -0.31154267069E+03 -0.61698976115E+03  0.70239686830E+03  0.12500000000E+03 0.  0.
          2    1    1    2  501    0  0.10768292063E+01  0.31154267069E+03 -0.16494636564E+04  0.16786275194E+04  0.00000000000E+00 0.  1.
<mgrwt>
<rscale>  3 0.33568586E+03</rscale>
<asrwt>0</asrwt>
<pdfrwt beam="1">  1       21 0.88131513E-02 0.33568586E+03</pdfrwt>
<pdfrwt beam="2">  1        2 0.35749830E+00 0.33568586E+03</pdfrwt>
<totfact> 0.62433437E+03</totfact>
</mgrwt>
</event>
<event>
 4    0  0.1685115E-001  0.2497119E+03  0.7546771E-02  0.1113487E+00
          2   -1    0    0  502    0 -0.00000000000E+00  0.00000000000E+00  0.17337007645E+04  0.17337007645E+04  0.00000000000E+00 0.  1.
         21   -1    0    0  501  502  0.00000000000E+00 -0.00000000000E+00 -0.32379969836E+02  0.32379969836E+02  0.00000000000E+00 0.  1.
         25    1    1    2    0    0  0.98750998649E+02 -0.19229999326E+03  0.10708232834E+04  0.10995537965E+04  0.12500000000E+03 0.  0.
          2    1    1    2  501    0 -0.98750998649E+02  0.19229999326E+03  0.63049751127E+03  0.66652693783E+03  0.00000000000E+00 0.  1.
<mgrwt>
<rscale>  3 0.24971193E+03</rscale>
<asrwt>0</asrwt>
<pdfrwt beam="1">  1       21 0.49815352E-02 0.24971193E+03</pdfrwt>
<pdfrwt beam="2">  1        2 0.26672312E+00 0.24971193E+03</pdfrwt>
<totfact> 0.35371327E+04</totfact>
</mgrwt>
</event>
<event>
 4    0  0.1152778E-001  0.2907421E+03  0.7546771E-02  0.1089962E+00
          2   -1    0    0  502    0 -0.00000000000E+00  0.00000000000E+00  0.13468160006E+03  0.13468160006E+03  0.00000000000E+00 0. -1.
         21   -1    0    0  501  502  0.00000000000E+00 -0.00000000000E+00 -0.76367588559E+03  0.76367588559E+03  0.00000000000E+00 0. -1.
         25    1    1    2    0    0  0.26061338225E+03 -0.31410263425E+02 -0.55350527800E+03  0.62521918751E+03  0.12500000000E+03 0.  0.
          2    1    1    2  501    0 -0.26061338225E+03  0.31410263425E+02 -0.75489007526E+02  0.27313829815E+03  0.00000000000E+00 0. -1.
<mgrwt>
<rscale>  3 0.29074205E+03</rscale>
<asrwt>0</asrwt>
<pdfrwt beam="1">  1       21 0.11748860E+00 0.29074205E+03</pdfrwt>
<pdfrwt beam="2">  1        2 0.20720246E-01 0.29074205E+03</pdfrwt>
<totfact> 0.17487840E+03</totfact>
</mgrwt>
</event>
<event>
 4    0  0.1286019E-001  0.2776354E+03  0.7546771E-02  0.1096988E+00
          2   -1    0    0  502    0 -0.00000000000E+00  0.00000000000E+00  0.24984984638E+04  0.24984984638E+04  0.00000000000E+00 0. -1.
         21   -1    0    0  501  502  0.00000000000E+00 -0.00000000000E+00 -0.95259657946E+03  0.95259657946E+03  0.00000000000E+00 0.  1.
         25    1    1    2    0    0 -0.24184783449E+03 -0.54461111782E+02 -0.92603491429E+03  0.96675852737E+03  0.12500000000E+03 0.  0.
          2    1    1    2  501    0  0.24184783449E+03  0.54461111782E+02  0.24719367987E+04  0.24843365159E+04  0.00000000000E+00 0. -1.
<mgrwt>
<rscale>  3 0.27763535E+03</rscale>
<asrwt>0</asrwt>
<pdfrwt beam="1">  1       21 0.14655332E+00 0.27763535E+03</pdfrwt>
<pdfrwt beam="2">  1        2 0.38438438E+00 0.27763535E+03</pdfrwt>
<totfact> 0.15184837E+01</totfact>
</mgrwt>
</event>
<event>
 4    0  0.1002184E-001  0.3164261E+03  0.7546771E-02  0.1077306E+00
         21   -1    0    0  501  502  0.00000000000E+00  0.00000000000E+00  0.82842371790E+02  0.82842371790E+02  0.00000000000E+00 0. -1.
          2   -1    0    0  502    0 -0.00000000000E+00 -0.00000000000E+00 -0.13733615488E+04  0.13733615488E+04  0.00000000000E+00 0.  1.
         25    1    1    2    0    0  0.11343688678E+03  0.26764259198E+03 -0.35021132044E+03  0.47198882751E+03  0.12500000000E+03 0.  0.
          2    1    1    2  501    0 -0.11343688678E+03 -0.26764259198E+03 -0.94030785654E+03  0.98421509305E+03  0.00000000000E+00 0.  1.
<mgrwt>
<rscale>  3 0.31642611E+03</rscale>
<asrwt>0</asrwt>
<pdfrwt beam="1">  1       21 0.12744980E-01 0.31642611E+03</pdfrwt>
<pdfrwt beam="2">  1        2 0.21128640E+00 0.31642611E+03</pdfrwt>
<totfact> 0.10429250E+04</totfact>
</mgrwt>
</event>
<event>
 4    0  0.1434599E-001  0.2407526E+03  0.7546771E-02  0.1119293E+00
          2   -1    0    0  502    0 -0.00000000000E+00  0.00000000000E+00  0.16928262256E+04  0.16928262256E+04  0.00000000000E+00 0.  1.
         21   -1    0    0  501  502  0.00000000000E+00 -0.00000000000E+00 -0.33923548584E+02  0.33923548584E+02  0.00000000000E+00 0.  1.
         25    1    1    2    0    0  0.16431730646E+03  0.12384109720E+03  0.57296353696E+03  0.62148934765E+03  0.12500000000E+03 0.  0.
          2    1    1    2  501    0 -0.16431730646E+03 -0.12384109720E+03  0.10859391401E+04  0.11052604266E+04  0.00000000000E+00 0.  1.
<mgrwt>
<rscale>  3 0.24075256E+03</rscale>
<asrwt>0</asrwt>
<pdfrwt beam="1">  1       21 0.52190088E-02 0.24075256E+03</pdfrwt>
<pdfrwt beam="2">  1        2 0.26043474E+00 0.24075256E+03</pdfrwt>
<totfact> 0.34390405E+04</totfact>
</mgrwt>
</event>
<event>
 4    0  0.1118341E-001  0.2594559E+03  0.7546771E-02  0.1107471E+00
          2   -1    0    0  502    0 -0.00000000000E+00  0.00000000000E+00  0.23237819627E+04  0.23237819627E+04  0.00000000000E+00 0. -1.
         21   -1    0    0  501  502  0.00000000000E+00 -0.00000000000E+00 -0.47842328086E+02  0.47842328086E+02  0.00000000000E+00 0.  1.
         25    1    1    2    0    0  0.21667783907E+03  0.68869940298E+02  0.36846906822E+03  0.45065153817E+03  0.12500000000E+03 0.  0.
          2    1    1    2  501    0 -0.21667783907E+03 -0.68869940298E+02  0.19074705664E+04  0.19209727526E+04  0.00000000000E+00 0. -1.
<mgrwt>
<rscale>  3 0.25945588E+03</rscale>
<asrwt>0</asrwt>
<pdfrwt beam="1">  1       21 0.73603600E-02 0.25945588E+03</pdfrwt>
<pdfrwt beam="2">  1        2 0.35750483E+00 0.25945588E+03</pdfrwt>
<totfact> 0.87892405E+03</totfact>
</mgrwt>
</event>
<event>
 4    0  0.1002184E-001  0.6592600E+03  0.7546771E-02  0.9789557E-01
          2   -1    0    0  502    0 -0.00000000000E+00  0.00000000000E+00  0.61728171741E+03  0.61728171741E+03  0.00000000000E+00 0.  1.
         21   -1    0    0  501  502  0.00000000000E+00 -0.00000000000E+00 -0.15154997255E+04  0.15154997255E+04  0.00000000000E+00 0. -1.
         25    1    1    2    0    0 -0.61047649619E+03  0.21521417371E+03 -0.12373519293E+04  0.14020212159E+04  0.12500000000E+03 0.  0.
          2    1    1    2  501    0  0.61047649619E+03 -0.21521417371E+03  0.33913392115E+03  0.73076022705E+03  0.00000000000E+00 0.  1.
<mgrwt>
<rscale>  3 0.65925996E+03</rscale>
<asrwt>0</asrwt>
<pdfrwt beam="1">  1       21 0.23315380E+00 0.65925996E+03</pdfrwt>
<pdfrwt beam="2">  1        2 0.94966419E-01 0.65925996E+03</pdfrwt>
<totfact> 0.39526163E+01</totfact>
</mgrwt>
</event>
<event>
 4    0  0.1452184E-001  0.3037514E+03  0.7546771E-02  0.1083380E+00
         21   -1    0    0  501  502  0.00000000000E+00  0.00000000000E+00  0.74974506841E+03  0.74974506841E+03  0.00000000000E+00 0.  1.
          2   -1    0    0  502    0 -0.00000000000E+00 -0.00000000000E+00 -0.44578462360E+03  0.44578462360E+03  0.00000000000E+00 0.  1.
         25    1    1    2    0    0  0.18118689252E+03  0.20931124612E+03  0.67055703319E+03  0.73614646813E+03  0.12500000000E+03 0.  0.
          2    1    1    2  501    0 -0.18118689252E+03 -0.20931124612E+03 -0.36659658838E+03  0.45938322388E+03  0.00000000000E+00 0.  1.
<mgrwt>
<rscale>  3 0.30375136E+03</rscale>
<asrwt>0</asrwt>
<pdfrwt beam="1">  1       21 0.11534540E+00 0.30375136E+03</pdfrwt>
<pdfrwt beam="2">  1        2 0.68582249E-01 0.30375136E+03</pdfrwt>
<totfact> 0.48602820E+02</totfact>
</mgrwt>
</event>
<event>
 4    0  0.1280199E-001  0.2926426E+03  0.7546771E-02  0.1088977E+00
         -2   -1    0    0    0  501 -0.00000000000E+00  0.00000000000E+00  0.75522596270E+02  0.75522596270E+02  0.00000000000E+00 0. -1.
         21   -1    0    0  501  502  0.00000000000E+00 -0.00000000000E+00 -0.10640232556E+04  0.10640232556E+04  0.00000000000E+00 0. -1.
         25    1    1    2    0    0 -0.25332458200E+03  0.76428791999E+02 -0.62311222535E+03  0.68841016079E+03  0.12500000000E+03 0.  0.
         -2    1    1    2    0  502  0.25332458200E+03 -0.76428791999E+02 -0.36538843402E+03  0.45113569113E+03  0.00000000000E+00 0. -1.
<mgrwt>
<rscale>  3 0.29264262E+03</rscale>
<asrwt>0</asrwt>
<pdfrwt beam="1">  1       21 0.16369590E+00 0.29264262E+03</pdfrwt>
<pdfrwt beam="2">  1       -2 0.11618860E-01 0.29264262E+03</pdfrwt>
<totfact> 0.93003825E+02</totfact>
</mgrwt>
</event>
<event>
 4    0  0.1570489E-001  0.3282044E+03  0.7546771E-02  0.1071934E+00
         21   -1    0    0  501  502  0.00000000000E+00  0.00000000000E+00  0.32346770287E+03  0.32346770287E+03  0.00000000000E+00 0.  1.
          3   -1    0    0  502    0 -0.00000000000E+00 -0.00000000000E+00 -0.63877027606E+03  0.63877027606E+03  0.00000000000E+00 0.  1.
         25    1    1    2    0    0  0.47209682144E+02  0.29977386804E+03  0.18525150900E+03  0.37687696618E+03  0.12500000000E+03 0.  0.
          3    1    1    2  501    0 -0.47209682144E+02 -0.29977386804E+03 -0.50055408219E+03  0.58536101275E+03  0.00000000000E+00 0.  1.
<mgrwt>
<rscale>  3 0.32820440E+03</rscale>
<asrwt>0</asrwt>
<pdfrwt beam="1">  1       21 0.49764263E-01 0.32820440E+03</pdfrwt>
<pdfrwt beam="2">  1        3 0.98272349E-01 0.32820440E+03</pdfrwt>
<totfact> 0.17364926E+02</totfact>
</mgrwt>
</event>
<event>
 4    0  0.1390933E-001  0.2593043E+03  0.7546771E-02  0.1107562E+00
          2   -1    0    0  502    0 -0.00000000000E+00  0.00000000000E+00  0.25896504120E+04  0.25896504120E+04  0.00000000000E+00 0.  1.
         21   -1    0    0  501  502  0.00000000000E+00 -0.00000000000E+00 -0.12593429443E+03  0.12593429443E+03  0.00000000000E+00 0. -1.
         25    1    1    2    0    0  0.20141569403E+03  0.10509724515E+03  0.18636470970E+02  0.25997313474E+03  0.12500000000E+03 0.  0.
          2    1    1    2  501    0 -0.20141569403E+03 -0.10509724515E+03  0.24450796466E+04  0.24556115717E+04  0.00000000000E+00 0.  1.
<mgrwt>
<rscale>  3 0.25930429E+03</rscale>
<asrwt>0</asrwt>
<pdfrwt beam="1">  1       21 0.19374509E-01 0.25930429E+03</pdfrwt>
<pdfrwt beam="2">  1        2 0.39840772E+00 0.25930429E+03</pdfrwt>
<totfact> 0.10990850E+03</totfact>
</mgrwt>
</event>
<event>
 4    0  0.1002184E-001  0.2457543E+03  0.7546771E-02  0.1116018E+00
         -3   -1    0    0    0  501 -0.00000000000E+00  0.00000000000E+00  0.41010381234E+02  0.41010381234E+02  0.00000000000E+00 0. -1.
         21   -1    0    0  501  502  0.00000000000E+00 -0.00000000000E+00 -0.18767166363E+04  0.18767166363E+04  0.00000000000E+00 0.  1.
         25    1    1    2    0    0  0.47829242515E+02 -0.20611288878E+03 -0.15063205867E+04  0.15262361774E+04  0.12500000000E+03 0.  0.
         -3    1    1    2    0  502 -0.47829242515E+02  0.20611288878E+03 -0.32938566835E+03  0.39149084009E+03  0.00000000000E+00 0. -1.
<mgrwt>
<rscale>  3 0.24575427E+03</rscale>
<asrwt>0</asrwt>
<pdfrwt beam="1">  1       21 0.28872572E+00 0.24575427E+03</pdfrwt>
<pdfrwt beam="2">  1       -3 0.63092875E-02 0.24575427E+03</pdfrwt>
<totfact> 0.29653408E+02</totfact>
</mgrwt>
</event>
<event>
 4    0  0.1424323E-001  0.2486363E+03  0.7546771E-02  0.1114170E+00
         21   -1    0    0  501  502  0.00000000000E+00  0.00000000000E+00  0.38073330839E+02  0.38073330839E+02  0.00000000000E+00 0. -1.
          1   -1    0    0  502    0 -0.00000000000E+00 -0.00000000000E+00 -0.24716949203E+04  0.24716949203E+04  0.00000000000E+00 0. -1.
         25    1    1    2    0    0  0.93889299162E+02 -0.19333852324E+03 -0.44652527530E+03  0.51108199591E+03  0.12500000000E+03 0.  0.
          1    1    1    2  501    0 -0.93889299162E+02  0.19333852324E+03 -0.19870963141E+04  0.19986862552E+04  0.00000000000E+00 0. -1.
<mgrwt>
<rscale>  3 0.24863625E+03</rscale>
<asrwt>0</asrwt>
<pdfrwt beam="1">  1       21 0.58574332E-02 0.24863625E+03</pdfrwt>
<pdfrwt beam="2">  1        1 0.38026090E+00 0.24863625E+03</pdfrwt>
<totfact> 0.38201722E+03</totfact>
</mgrwt>
</event>
<event>
 4    0  0.1064953E-001  0.2385449E+03  0.7546771E-02  0.1120766E+00
          2   -1    0    0  502    0 -0.00000000000E+00  0.00000000000E+00  0.67992768061E+03  0.67992768061E+03  0.00000000000E+00 0. -1.
         21   -1    0    0  501  502  0.00000000000E+00 -0.00000000000E+00 -0.55547177366E+03  0.55547177366E+03  0.00000000000E+00 0.  1.
         25    1    1    2    0    0  0.12559488819E+03 -0.15970156359E+03 -0.51332222342E+03  0.56604184511E+03  0.12500000000E+03 0.  0.
          2    1    1    2  501    0 -0.12559488819E+03  0.15970156359E+03  0.63777813038E+03  0.66935760916E+03  0.00000000000E+00 0. -1.
<mgrwt>
<rscale>  3 0.23854489E+03</rscale>
<asrwt>0</asrwt>
<pdfrwt beam="1">  1       21 0.85457196E-01 0.23854489E+03</pdfrwt>
<pdfrwt beam="2">  1        2 0.10460426E+00 0.23854489E+03</pdfrwt>
<totfact> 0.63143174E+02</totfact>
</mgrwt>
</event>
<event>
 4    0  0.1472842E-001  0.2871735E+03  0.7546771E-02  0.1091834E+00
         21   -1    0    0  501  502  0.00000000000E+00  0.00000000000E+00  0.75017205459E+02  0.75017205459E+02  0.00000000000E+00 0. -1.
          2   -1    0    0  502    0 -0.00000000000E+00 -0.00000000000E+00 -0.14522666428E+04  0.14522666428E+04  0.00000000000E+00 0. -1.
         25    1    1    2    0    0  0.24380704334E+03 -0.86033417460E+02 -0.28402842058E+03  0.40390687912E+03  0.12500000000E+03 0.  0.
          2    1    1    2  501    0 -0.24380704334E+03  0.86033417460E+02 -0.10932210168E+04  0.11233769691E+04  0.00000000000E+00 0. -1.
<mgrwt>
<rscale>  3 0.28717351E+03</rscale>
<asrwt>0</asrwt>
<pdfrwt beam="1">  1       21 0.11541109E-01 0.28717351E+03</pdfrwt>
<pdfrwt beam="2">  1        2 0.22342563E+00 0.28717351E+03</pdfrwt>
<totfact> 0.11380124E+04</totfact>
</mgrwt>
</event>
<event>
 4    0  0.1558480E-001  0.2834598E+03  0.7546771E-02  0.1093814E+00
         21   -1    0    0  501  502  0.00000000000E+00  0.00000000000E+00  0.11371576959E+03  0.11371576959E+03  0.00000000000E+00 0.  1.
          2   -1    0    0  502    0 -0.00000000000E+00 -0.00000000000E+00 -0.66428624640E+03  0.66428624640E+03  0.00000000000E+00 0.  1.
         25    1    1    2    0    0 -0.18351728843E+03 -0.17619828281E+03 -0.20939533716E+03  0.35241429773E+03  0.12500000000E+03 0.  0.
          2    1    1    2  501    0  0.18351728843E+03  0.17619828281E+03 -0.34117513965E+03  0.42558771826E+03  0.00000000000E+00 0.  1.
<mgrwt>
<rscale>  3 0.28345975E+03</rscale>
<asrwt>0</asrwt>
<pdfrwt beam="1">  1       21 0.17494734E-01 0.28345975E+03</pdfrwt>
<pdfrwt beam="2">  1        2 0.10219788E+00 0.28345975E+03</pdfrwt>
<totfact> 0.16388736E+04</totfact>
</mgrwt>
</event>
<event>
 4    0  0.1002184E-001  0.5250420E+03  0.7546771E-02  0.1007442E+00
         21   -1    0    0  501  502  0.00000000000E+00  0.00000000000E+00  0.11896049952E+04  0.11896049952E+04  0.00000000000E+00 0. -1.
         -1   -1    0    0    0  501 -0.00000000000E+00 -0.00000000000E+00 -0.26101543124E+03  0.26101543124E+03  0.00000000000E+00 0.  1.
         25    1    1    2    0    0  0.10042874717E+03 -0.49995816936E+03  0.73909844831E+03  0.90660665157E+03  0.12500000000E+03 0.  0.
         -1    1    1    2    0  502 -0.10042874717E+03  0.49995816936E+03  0.18949111568E+03  0.54401377491E+03  0.00000000000E+00 0.  1.
<mgrwt>
<rscale>  3 0.52504200E+03</rscale>
<asrwt>0</asrwt>
<pdfrwt beam="1">  1       21 0.18301615E+00 0.52504200E+03</pdfrwt>
<pdfrwt beam="2">  1       -1 0.40156221E-01 0.52504200E+03</pdfrwt>
<totfact> 0.83468839E+01</totfact>
</mgrwt>
</event>
<event>
 4    0  0.1002184E-001  0.3326236E+03  0.7546771E-02  0.1069982E+00
         21   -1    0    0  501  502  0.00000000000E+00  0.00000000000E+00  0.81593562886E+02  0.81593562886E+02  0.00000000000E+00 0. -1.
          2   -1    0    0  502    0 -0.00000000000E+00 -0.00000000000E+00 -0.16069427000E+04  0.16069427000E+04  0.00000000000E+00 0.  1.
         25    1    1    2    0    0 -0.30660758221E+03 -0.31705529682E+02 -0.39242409300E+03  0.51442698107E+03  0.12500000000E+03 0.  0.
          2    1    1    2  501    0  0.30660758221E+03  0.31705529682E+02 -0.11329250441E+04  0.11741092818E+04  0.00000000000E+00 0.  1.
<mgrwt>
<rscale>  3 0.33262359E+03</rscale>
<asrwt>0</asrwt>
<pdfrwt beam="1">  1       21 0.12552856E-01 0.33262359E+03</pdfrwt>
<pdfrwt beam="2">  1        2 0.24722195E+00 0.33262359E+03</pdfrwt>
<totfact> 0.79816268E+03</totfact>
</mgrwt>
</event>
<event>
 4    0  0.1002184E-001  0.2375175E+03  0.7546771E-02  0.1121458E+00
         21   -1    0    0  501  502  0.00000000000E+00  0.00000000000E+00  0.49258571495E+02  0.49258571495E+02  0.00000000000E+00 0.  1.
          1   -1    0    0  502    0 -0.00000000000E+00 -0.00000000000E+00 -0.11621223063E+04  0.11621223063E+04  0.00000000000E+00 0. -1.
         25    1    1    2    0    0  0.16721405555E+03 -0.11326518878E+03 -0.35545649188E+03  0.42750890164E+03  0.12500000000E+03 0.  0.
          1    1    1    2  501    0 -0.16721405555E+03  0.11326518878E+03 -0.75740724293E+03  0.78387197616E+03  0.00000000000E+00 0. -1.
<mgrwt>
<rscale>  3 0.23751746E+03</rscale>
<asrwt>0</asrwt>
<pdfrwt beam="1">  1       21 0.75782418E-02 0.23751746E+03</pdfrwt>
<pdfrwt beam="2">  1        1 0.17878805E+00 0.23751746E+03</pdfrwt>
<totfact> 0.17928371E+04</totfact>
</mgrwt>
</event>
<event>
 4    0  0.1388752E-001  0.2574726E+03  0.7546771E-02  0.1108671E+00
         21   -1    0    0  501  502  0.00000000000E+00  0.00000000000E+00  0.90642949914E+02  0.90642949914E+02  0.00000000000E+00 0.  1.
          1   -1    0    0  502    0 -0.00000000000E+00 -0.00000000000E+00 -0.25291283920E+04  0.25291283920E+04  0.00000000000E+00 0. -1.
         25    1    1    2    0    0  0.22332492693E+03 -0.28162239547E+02 -0.10926209852E+03  0.27969687324E+03  0.12500000000E+03 0.  0.
          1    1    1    2  501    0 -0.22332492693E+03  0.28162239547E+02 -0.23292233435E+04  0.23400744687E+04  0.00000000000E+00 0. -1.
<mgrwt>
<rscale>  3 0.25747259E+03</rscale>
<asrwt>0</asrwt>
<pdfrwt beam="1">  1       21 0.13945069E-01 0.25747259E+03</pdfrwt>
<pdfrwt beam="2">  1        1 0.38909667E+00 0.25747259E+03</pdfrwt>
<totfact> 0.75231159E+02</totfact>
</mgrwt>
</event>
<event>
 4    0  0.1156121E-001  0.2634224E+03  0.7546771E-02  0.1105104E+00
          1   -1    0    0  502    0 -0.00000000000E+00  0.00000000000E+00  0.10646012392E+03  0.10646012392E+03  0.00000000000E+00 0.  1.
         21   -1    0    0  501  502  0.00000000000E+00 -0.00000000000E+00 -0.93417870063E+03  0.93417870063E+03  0.00000000000E+00 0.  1.
         25    1    1    2    0    0  0.31533002897E+02  0.22972161175E+03 -0.75185801742E+03  0.79666920835E+03  0.12500000000E+03 0.  0.
          1    1    1    2  501    0 -0.31533002897E+02 -0.22972161175E+03 -0.75860559296E+02  0.24396961621E+03  0.00000000000E+00 0.  1.
<mgrwt>
<rscale>  3 0.26342238E+03</rscale>
<asrwt>0</asrwt>
<pdfrwt beam="1">  1       21 0.14371980E+00 0.26342238E+03</pdfrwt>
<pdfrwt beam="2">  1        1 0.16378481E-01 0.26342238E+03</pdfrwt>
<totfact> 0.11513277E+03</totfact>
</mgrwt>
</event>
<event>
 4    0  0.1424873E-001  0.2530395E+03  0.7546771E-02  0.1111399E+00
          2   -1    0    0  502    0 -0.00000000000E+00  0.00000000000E+00  0.21622173441E+03  0.21622173441E+03  0.00000000000E+00 0.  1.
         21   -1    0    0  501  502  0.00000000000E+00 -0.00000000000E+00 -0.25952094485E+03  0.25952094485E+03  0.00000000000E+00 0.  1.
         25    1    1    2    0    0  0.21973512038E+03  0.10975429566E+02 -0.10082825727E+02  0.25324029410E+03  0.12500000000E+03 0.  0.
          2    1    1    2  501    0 -0.21973512038E+03 -0.10975429566E+02 -0.33216384716E+02  0.22250238515E+03  0.00000000000E+00 0.  1.
<mgrwt>
<rscale>  3 0.25303949E+03</rscale>
<asrwt>0</asrwt>
<pdfrwt beam="1">  1       21 0.39926299E-01 0.25303949E+03</pdfrwt>
<pdfrwt beam="2">  1        2 0.33264882E-01 0.25303949E+03</pdfrwt>
<totfact> 0.11537671E+04</totfact>
</mgrwt>
</event>
<event>
 4    0  0.1219448E-001  0.2489775E+03  0.7546771E-02  0.1113953E+00
         21   -1    0    0  501  502  0.00000000000E+00  0.00000000000E+00  0.15074679526E+03  0.15074679526E+03  0.00000000000E+00 0. -1.
          1   -1    0    0  502    0 -0.00000000000E+00 -0.00000000000E+00 -0.74905830426E+03  0.74905830426E+03  0.00000000000E+00 0.  1.
         25    1    1    2    0    0 -0.15749698358E+03 -0.14683150661E+03  0.15362411464E+02  0.24945098688E+03  0.12500000000E+03 0.  0.
          1    1    1    2  501    0  0.15749698358E+03  0.14683150661E+03 -0.61367392047E+03  0.65035411264E+03  0.00000000000E+00 0.  1.
<mgrwt>
<rscale>  3 0.24897749E+03</rscale>
<asrwt>0</asrwt>
<pdfrwt beam="1">  1       21 0.23191815E-01 0.24897749E+03</pdfrwt>
<pdfrwt beam="2">  1        1 0.11523974E+00 0.24897749E+03</pdfrwt>
<totfact> 0.48782781E+03</totfact>
</mgrwt>
</event>
<event>
 4    0  0.1010362E-001  0.2711348E+03  0.7546771E-02  0.1100632E+00
         21   -1    0    0  501  502  0.00000000000E+00  0.00000000000E+00  0.43519583212E+02  0.43519583212E+02  0.00000000000E+00 0. -1.
          1   -1    0    0  502    0 -0.00000000000E+00 -0.00000000000E+00 -0.22136135433E+04  0.22136135433E+04  0.00000000000E+00 0.  1.
         25    1    1    2    0    0  0.22529650389E+03 -0.84442710507E+02 -0.49099302211E+03  0.56088165756E+03  0.12500000000E+03 0.  0.
          1    1    1    2  501    0 -0.22529650389E+03  0.84442710507E+02 -0.16791009380E+04  0.16962514690E+04  0.00000000000E+00 0.  1.
<mgrwt>
<rscale>  3 0.27113481E+03</rscale>
<asrwt>0</asrwt>
<pdfrwt beam="1">  1       21 0.66953203E-02 0.27113481E+03</pdfrwt>
<pdfrwt beam="2">  1        1 0.34055594E+00 0.27113481E+03</pdfrwt>
<totfact> 0.44432105E+03</totfact>
</mgrwt>
</event>
<event>
 4    0  0.1616340E-001  0.3404945E+03  0.7546771E-02  0.1066586E+00
         21   -1    0    0  501  502  0.00000000000E+00  0.00000000000E+00  0.28492358086E+03  0.28492358086E+03  0.00000000000E+00 0.  1.
         -2   -1    0    0    0  501 -0.00000000000E+00 -0.00000000000E+00 -0.49421657677E+03  0.49421657677E+03  0.00000000000E+00 0.  1.
         25    1    1    2    0    0  0.12319118942E+03 -0.29177973983E+03 -0.29556276671E+03  0.45088117591E+03  0.12500000000E+03 0.  0.
         -2    1    1    2    0  502 -0.12319118942E+03  0.29177973983E+03  0.86269770808E+02  0.32825898172E+03  0.00000000000E+00 0.  1.
<mgrwt>
<rscale>  3 0.34049447E+03</rscale>
<asrwt>0</asrwt>
<pdfrwt beam="1">  1       21 0.43834397E-01 0.34049447E+03</pdfrwt>
<pdfrwt beam="2">  1       -2 0.76033319E-01 0.34049447E+03</pdfrwt>
<totfact> 0.62309635E+02</totfact>
</mgrwt>
</event>
<event>
 4    0  0.1264043E-001  0.6219793E+03  0.7546771E-02  0.9860827E-01
         -4   -1    0    0    0  501 -0.00000000000E+00  0.00000000000E+00  0.16192271794E+04  0.16192271794E+04  0.00000000000E+00 0.  1.
         21   -1    0    0  501  502  0.00000000000E+00 -0.00000000000E+00 -0.35794604601E+03  0.35794604601E+03  0.00000000000E+00 0.  1.
         25    1    1    2    0    0  0.23199970359E+03  0.56339101493E+03  0.53334133174E+02  0.62426182643E+03  0.12500000000E+03 0.  0.
         -4    1    1    2    0  502 -0.23199970359E+03 -0.56339101493E+03  0.12079470002E+04  0.13529113990E+04  0.00000000000E+00 0.  1.
<mgrwt>
<rscale>  3 0.62197934E+03</rscale>
<asrwt>0</asrwt>
<pdfrwt beam="1">  1       21 0.55068624E-01 0.62197934E+03</pdfrwt>
<pdfrwt beam="2">  1       -4 0.24911187E+00 0.62197934E+03</pdfrwt>
<totfact> 0.82908548E+00</totfact>
</mgrwt>
</event>
<event>
 4    0  0.1002184E-001  0.3045251E+03  0.7546771E-02  0.1083000E+00
          2   -1    0    0  502    0 -0.00000000000E+00  0.00000000000E+00  0.25716737509E+04  0.25716737509E+04  0.00000000000E+00 0. -1.
         21   -1    0    0  501  502  0.00000000000E+00 -0.00000000000E+00 -0.15764762155E+04  0.15764762155E+04  0.00000000000E+00 0.  1.
         25    1    1    2    0    0 -0.27630319384E+03 -0.27696583731E+02 -0.15541599334E+04  0.15837135645E+04  0.12500000000E+03 0.  0.
          2    1    1    2  501    0  0.27630319384E+03  0.27696583731E+02  0.25493574688E+04  0.25644364019E+04  0.00000000000E+00 0. -1.
<mgrwt>
<rscale>  3 0.30452513E+03</rscale>
<asrwt>0</asrwt>
<pdfrwt beam="1">  1       21 0.24253480E+00 0.30452513E+03</pdfrwt>
<pdfrwt beam="2">  1        2 0.39564211E+00 0.30452513E+03</pdfrwt>
<totfact> 0.30360052E+00</totfact>
</mgrwt>
</event>
<event>
 4    0  0.1565277E-001  0.3073541E+03  0.7546771E-02  0.1081621E+00
          2   -1    0    0  502    0 -0.00000000000E+00  0.00000000000E+00  0.14013084292E+04  0.14013084292E+04  0.00000000000E+00 0. -1.
         21   -1    0    0  501  502  0.00000000000E+00 -0.00000000000E+00 -0.63283598973E+02  0.63283598973E+02  0.00000000000E+00 0. -1.
         25    1    1    2    0    0 -0.10649525949E+03  0.25980821434E+03  0.81376701145E+03  0.86987544939E+03  0.12500000000E+03 0.  0.
          2    1    1    2  501    0  0.10649525949E+03 -0.25980821434E+03  0.52425781882E+03  0.59471657882E+03  0.00000000000E+00 0. -1.
<mgrwt>
<rscale>  3 0.30735411E+03</rscale>
<asrwt>0</asrwt>
<pdfrwt beam="1">  1       21 0.97359394E-02 0.30735411E+03</pdfrwt>
<pdfrwt beam="2">  1        2 0.21558589E+00 0.30735411E+03</pdfrwt>
<totfact> 0.16375341E+04</totfact>
</mgrwt>
</event>
<event>
 4    0  0.1214413E-001  0.2460183E+03  0.7546771E-02  0.1115847E+00
         21   -1    0    0  501  502  0.00000000000E+00  0.00000000000E+00  0.20764333089E+03  0.20764333089E+03  0.00000000000E+00 0. -1.
          1   -1    0    0  502    0 -0.00000000000E+00 -0.00000000000E+00 -0.31878377557E+03  0.31878377557E+03  0.00000000000E+00 0. -1.
         25    1    1    2    0    0 -0.59750895241E+02 -0.20329745296E+03  0.60946001483E+02  0.25345500382E+03  0.12500000000E+03 0.  0.
          1    1    1    2  501    0  0.59750895241E+02  0.20329745296E+03 -0.17208644616E+03  0.27297210263E+03  0.00000000000E+00 0. -1.
<mgrwt>
<rscale>  3 0.24601834E+03</rscale>
<asrwt>0</asrwt>
<pdfrwt beam="1">  1       21 0.31945128E-01 0.24601834E+03</pdfrwt>
<pdfrwt beam="2">  1        1 0.49043658E-01 0.24601834E+03</pdfrwt>
<totfact> 0.82677474E+03</totfact>
</mgrwt>
</event>
<event>
 4    0  0.1002184E-001  0.3080235E+03  0.7546771E-02  0.1081297E+00
         21   -1    0    0  501  502  0.00000000000E+00  0.00000000000E+00  0.48167351992E+02  0.48167351992E+02  0.00000000000E+00 0.  1.
          2   -1    0    0  502    0 -0.00000000000E+00 -0.00000000000E+00 -0.27714032348E+04  0.27714032348E+04  0.00000000000E+00 0. -1.
         25    1    1    2    0    0  0.26930570497E+03 -0.82023837673E+02 -0.56905146593E+03  0.64706880898E+03  0.12500000000E+03 0.  0.
          2    1    1    2  501    0 -0.26930570497E+03  0.82023837673E+02 -0.21541844168E+04  0.21725017778E+04  0.00000000000E+00 0. -1.
<mgrwt>
<rscale>  3 0.30802349E+03</rscale>
<asrwt>0</asrwt>
<pdfrwt beam="1">  1       21 0.74103601E-02 0.30802349E+03</pdfrwt>
<pdfrwt beam="2">  1        2 0.42636983E+00 0.30802349E+03</pdfrwt>
<totfact> 0.48243381E+03</totfact>
</mgrwt>
</event>
<event>
 4    0  0.1173203E-001  0.2501857E+03  0.7546771E-02  0.1113187E+00
         21   -1    0    0  501  502  0.00000000000E+00  0.00000000000E+00  0.18890282770E+03  0.18890282770E+03  0.00000000000E+00 0. -1.
          2   -1    0    0  502    0 -0.00000000000E+00 -0.00000000000E+00 -0.57873162756E+03  0.57873162756E+03  0.00000000000E+00 0.  1.
         25    1    1    2    0    0 -0.55341034930E+02 -0.20953584505E+03  0.69573500400E+02  0.25967936473E+03  0.12500000000E+03 0.  0.
          2    1    1    2  501    0  0.55341034930E+02  0.20953584505E+03 -0.45940230026E+03  0.50795509053E+03  0.00000000000E+00 0.  1.
<mgrwt>
<rscale>  3 0.25018573E+03</rscale>
<asrwt>0</asrwt>
<pdfrwt beam="1">  1       21 0.29061973E-01 0.25018573E+03</pdfrwt>
<pdfrwt beam="2">  1        2 0.89035636E-01 0.25018573E+03</pdfrwt>
<totfact> 0.73785433E+03</totfact>
</mgrwt>
</event>
<event>
 4    0  0.1041205E-001  0.3739402E+03  0.7546771E-02  0.1053196E+00
         21   -1    0    0  501  502  0.00000000000E+00  0.00000000000E+00  0.28160712376E+03  0.28160712376E+03  0.00000000000E+00 0. -1.
          4   -1    0    0  502    0 -0.00000000000E+00 -0.00000000000E+00 -0.74190888669E+03  0.74190888669E+03  0.00000000000E+00 0.  1.
         25    1    1    2    0    0 -0.50149126785E+02  0.34884284864E+03  0.76187622465E+02  0.38162261697E+03  0.12500000000E+03 0.  0.
          4    1    1    2  501    0  0.50149126785E+02 -0.34884284864E+03 -0.53648938539E+03  0.64189339348E+03  0.00000000000E+00 0.  1.
<mgrwt>
<rscale>  3 0.37394019E+03</rscale>
<asrwt>0</asrwt>
<pdfrwt beam="1">  1       21 0.43324173E-01 0.37394019E+03</pdfrwt>
<pdfrwt beam="2">  1        4 0.11413983E+00 0.37394019E+03</pdfrwt>
<totfact> 0.13056529E+02</totfact>
</mgrwt>
</event>
<event>
 4    0  0.1232541E-001  0.2520481E+03  0.7546771E-02  0.1112017E+00
         21   -1    0    0  501  502  0.00000000000E+00  0.00000000000E+00  0.62854140976E+02  0.62854140976E+02  0.00000000000E+00 0. -1.
          2   -1    0    0  502    0 -0.00000000000E+00 -0.00000000000E+00 -0.21665673434E+04  0.21665673434E+04  0.00000000000E+00 0.  1.
         25    1    1    2    0    0 -0.11438096236E+03 -0.18660179002E+03 -0.22458313774E+03  0.33758823787E+03  0.12500000000E+03 0.  0.
          2    1    1    2  501    0  0.11438096236E+03  0.18660179002E+03 -0.18791300647E+04  0.18918332465E+04  0.00000000000E+00 0.  1.
<mgrwt>
<rscale>  3 0.25204808E+03</rscale>
<asrwt>0</asrwt>
<pdfrwt beam="1">  1       21 0.96698688E-02 0.25204808E+03</pdfrwt>
<pdfrwt beam="2">  1        2 0.33331802E+00 0.25204808E+03</pdfrwt>
<totfact> 0.66160492E+03</totfact>
</mgrwt>
</event>
<event>
 4    0  0.1425072E-001  0.2737363E+03  0.7546771E-02  0.1099160E+00
         21   -1    0    0  501  502  0.00000000000E+00  0.00000000000E+00  0.18731326451E+03  0.18731326451E+03  0.00000000000E+00 0.  1.
          2   -1    0    0  502    0 -0.00000000000E+00 -0.00000000000E+00 -0.52047650517E+03  0.52047650517E+03  0.00000000000E+00 0.  1.
         25    1    1    2    0    0  0.18526372452E+03  0.15806293666E+03  0.24782660693E+02  0.27485581645E+03  0.12500000000E+03 0.  0.
          2    1    1    2  501    0 -0.18526372452E+03 -0.15806293666E+03 -0.35794590135E+03  0.43293395323E+03  0.00000000000E+00 0.  1.
<mgrwt>
<rscale>  3 0.27373626E+03</rscale>
<asrwt>0</asrwt>
<pdfrwt beam="1">  1       21 0.28817426E-01 0.27373626E+03</pdfrwt>
<pdfrwt beam="2">  1        2 0.80073308E-01 0.27373626E+03</pdfrwt>
<totfact> 0.84252721E+03</totfact>
</mgrwt>
</event>
<event>
 4    0  0.1459216E-001  0.2857295E+03  0.7546771E-02  0.1092600E+00
         21   -1    0    0  501  502  0.00000000000E+00  0.00000000000E+00  0.12644335922E+03  0.12644335922E+03  0.00000000000E+00 0.  1.
          1   -1    0    0  502    0 -0.00000000000E+00 -0.00000000000E+00 -0.60215540393E+03  0.60215540393E+03  0.00000000000E+00 0.  1.
         25    1    1    2    0    0 -0.46832007543E+02  0.25263240920E+03 -0.18391354548E+03  0.33980224149E+03  0.12500000000E+03 0.  0.
          1    1    1    2  501    0  0.46832007543E+02 -0.25263240920E+03 -0.29179849923E+03  0.38879652167E+03  0.00000000000E+00 0.  1.
<mgrwt>
<rscale>  3 0.28572954E+03</rscale>
<asrwt>0</asrwt>
<pdfrwt beam="1">  1       21 0.19452824E-01 0.28572954E+03</pdfrwt>
<pdfrwt beam="2">  1        1 0.92639293E-01 0.28572954E+03</pdfrwt>
<totfact> 0.92488699E+03</totfact>
</mgrwt>
</event>
<event>
 4    0  0.1408847E-001  0.3008398E+03  0.7546771E-02  0.1084822E+00
          2   -1    0    0  502    0 -0.00000000000E+00  0.00000000000E+00  0.24406528665E+04  0.24406528665E+04  0.00000000000E+00 0. -1.
         21   -1    0    0  501  502  0.00000000000E+00 -0.00000000000E+00 -0.33829566945E+02  0.33829566945E+02  0.00000000000E+00 0. -1.
         25    1    1    2    0    0 -0.69764873567E+02 -0.26459864448E+03  0.12934067388E+04  0.13279328192E+04  0.12500000000E+03 0.  0.
          2    1    1    2  501    0  0.69764873567E+02  0.26459864448E+03  0.11134165608E+04  0.11465496143E+04  0.00000000000E+00 0. -1.
<mgrwt>
<rscale>  3 0.30083979E+03</rscale>
<asrwt>0</asrwt>
<pdfrwt beam="1">  1       21 0.52045507E-02 0.30083979E+03</pdfrwt>
<pdfrwt beam="2">  1        2 0.37548492E+00 0.30083979E+03</pdfrwt>
<totfact> 0.13647124E+04</totfact>
</mgrwt>
</event>
<event>
 4    0  0.1588779E-001  0.2833114E+03  0.7546771E-02  0.1093894E+00
          2   -1    0    0  502    0 -0.00000000000E+00  0.00000000000E+00  0.13311799531E+04  0.13311799531E+04  0.00000000000E+00 0. -1.
         21   -1    0    0  501  502  0.00000000000E+00 -0.00000000000E+00 -0.12046026795E+03  0.12046026795E+03  0.00000000000E+00 0. -1.
         25    1    1    2    0    0  0.12541322528E+03 -0.22116026966E+03  0.82429223441E+02  0.29505917852E+03  0.12500000000E+03 0.  0.
          2    1    1    2  501    0 -0.12541322528E+03  0.22116026966E+03  0.11282904617E+04  0.11565810425E+04  0.00000000000E+00 0. -1.
<mgrwt>
<rscale>  3 0.28331139E+03</rscale>
<asrwt>0</asrwt>
<pdfrwt beam="1">  1       21 0.18532350E-01 0.28331139E+03</pdfrwt>
<pdfrwt beam="2">  1        2 0.20479691E+00 0.28331139E+03</pdfrwt>
<totfact> 0.55659872E+03</totfact>
</mgrwt>
</event>
<event>
 4    0  0.1446882E-001  0.4324174E+03  0.7546771E-02  0.1033099E+00
          2   -1    0    0  502    0 -0.00000000000E+00  0.00000000000E+00  0.14192664524E+04  0.14192664524E+04  0.00000000000E+00 0. -1.
         21   -1    0    0  501  502  0.00000000000E+00 -0.00000000000E+00 -0.17425934676E+03  0.17425934676E+03  0.00000000000E+00 0. -1.
         25    1    1    2    0    0  0.19543534777E+03  0.36491760608E+03  0.21390585143E+03  0.48243190987E+03  0.12500000000E+03 0.  0.
          2    1    1    2  501    0 -0.19543534777E+03 -0.36491760608E+03  0.10311012543E+04  0.11110938893E+04  0.00000000000E+00 0. -1.
<mgrwt>
<rscale>  3 0.43241743E+03</rscale>
<asrwt>0</asrwt>
<pdfrwt beam="1">  1       21 0.26809131E-01 0.43241743E+03</pdfrwt>
<pdfrwt beam="2">  1        2 0.21834868E+00 0.43241743E+03</pdfrwt>
<totfact> 0.23590259E+03</totfact>
</mgrwt>
</event>
<event>
 4    0  0.1015743E-001  0.3085283E+03  0.7546771E-02  0.1081053E+00
         21   -1    0    0  501  502  0.00000000000E+00  0.00000000000E+00  0.40844581165E+03  0.40844581165E+03  0.00000000000E+00 0.  1.
         -3   -1    0    0    0  501 -0.00000000000E+00 -0.00000000000E+00 -0.40035590908E+03  0.40035590908E+03  0.00000000000E+00 0. -1.
         25    1    1    2    0    0  0.83206165437E+02 -0.26952076715E+03  0.28027093986E+03  0.41682311551E+03  0.12500000000E+03 0.  0.
         -3    1    1    2    0  502 -0.83206165437E+02  0.26952076715E+03 -0.27218103729E+03  0.39197860522E+03  0.00000000000E+00 0. -1.
<mgrwt>
<rscale>  3 0.30852830E+03</rscale>
<asrwt>0</asrwt>
<pdfrwt beam="1">  1       21 0.62837817E-01 0.30852830E+03</pdfrwt>
<pdfrwt beam="2">  1       -3 0.61593217E-01 0.30852830E+03</pdfrwt>
<totfact> 0.29440661E+02</totfact>
</mgrwt>
</event>
<event>
 4    0  0.1723684E-001  0.3074715E+03  0.7546771E-02  0.1081564E+00
          1   -1    0    0  502    0 -0.00000000000E+00  0.00000000000E+00  0.20033134959E+04  0.20033134959E+04  0.00000000000E+00 0.  1.
         21   -1    0    0  501  502  0.00000000000E+00 -0.00000000000E+00 -0.39179595232E+03  0.39179595232E+03  0.00000000000E+00 0. -1.
         25    1    1    2    0    0 -0.22563162850E+03  0.16734419455E+03 -0.31970366943E+03  0.44356414134E+03  0.12500000000E+03 0.  0.
          1    1    1    2  501    0  0.22563162850E+03 -0.16734419455E+03  0.19312212130E+04  0.19515453069E+04  0.00000000000E+00 0.  1.
<mgrwt>
<rscale>  3 0.30747148E+03</rscale>
<asrwt>0</asrwt>
<pdfrwt beam="1">  1       21 0.60276301E-01 0.30747148E+03</pdfrwt>
<pdfrwt beam="2">  1        1 0.30820207E+00 0.30747148E+03</pdfrwt>
<totfact> 0.90443671E+01</totfact>
</mgrwt>
</event>
<event>
 4    0  0.1582697E-001  0.4058842E+03  0.7546771E-02  0.1041761E+00
         -3   -1    0    0    0  501 -0.00000000000E+00  0.00000000000E+00  0.44620764073E+03  0.44620764073E+03  0.00000000000E+00 0.  1.
         21   -1    0    0  501  502  0.00000000000E+00 -0.00000000000E+00 -0.35368480851E+03  0.35368480851E+03  0.00000000000E+00 0.  1.
         25    1    1    2    0    0  0.30209038385E+03 -0.24053774457E+03  0.78987926754E+02  0.41349860840E+03  0.12500000000E+03 0.  0.
         -3    1    1    2    0  502 -0.30209038385E+03  0.24053774457E+03  0.13534905465E+02  0.38639384084E+03  0.00000000000E+00 0.  1.
<mgrwt>
<rscale>  3 0.40588423E+03</rscale>
<asrwt>0</asrwt>
<pdfrwt beam="1">  1       21 0.54413048E-01 0.40588423E+03</pdfrwt>
<pdfrwt beam="2">  1       -3 0.68647329E-01 0.40588423E+03</pdfrwt>
<totfact> 0.31453998E+02</totfact>
</mgrwt>
</event>
<event>
 4    0  0.1002184E-001  0.2832923E+03  0.7546771E-02  0.1093904E+00
          1   -1    0    0  502    0 -0.00000000000E+00  0.00000000000E+00  0.19351451615E+03  0.19351451615E+03  0.00000000000E+00 0. -1.
         21   -1    0    0  501  502  0.00000000000E+00 -0.00000000000E+00 -0.51809908663E+03  0.51809908663E+03  0.00000000000E+00 0.  1.
         25    1    1    2    0    0 -0.25418116678E+03  0.46326466119E+01 -0.35654544523E+03  0.45538904409E+03  0.12500000000E+03 0.  0.
          1    1    1    2  501    0  0.25418116678E+03 -0.46326466119E+01  0.31960874749E+02  0.25622455869E+03  0.00000000000E+00 0. -1.
<mgrwt>
<rscale>  3 0.28329230E+03</rscale>
<asrwt>0</asrwt>
<pdfrwt beam="1">  1       21 0.79707550E-01 0.28329230E+03</pdfrwt>
<pdfrwt beam="2">  1        1 0.29771465E-01 0.28329230E+03</pdfrwt>
<totfact> 0.22304543E+03</totfact>
</mgrwt>
</event>
<event>
 4    0  0.1084142E-001  0.3340548E+03  0.7546771E-02  0.1069357E+00
         21   -1    0    0  501  502  0.00000000000E+00  0.00000000000E+00  0.78705359347E+03  0.78705359347E+03  0.00000000000E+00 0.  1.
          2   -1    0    0  502    0 -0.00000000000E+00 -0.00000000000E+00 -0.20434363894E+03  0.20434363894E+03  0.00000000000E+00 0.  1.
         25    1    1    2    0    0 -0.11357590740E+02  0.30957813725E+03  0.59390655594E+03  0.68140855228E+03  0.12500000000E+03 0.  0.
          2    1    1    2  501    0  0.11357590740E+02 -0.30957813725E+03 -0.11196601408E+02  0.30998868013E+03  0.00000000000E+00 0.  1.
<mgrwt>
<rscale>  3 0.33405481E+03</rscale>
<asrwt>0</asrwt>
<pdfrwt beam="1">  1       21 0.12108517E+00 0.33405481E+03</pdfrwt>
<pdfrwt beam="2">  1        2 0.31437483E-01 0.33405481E+03</pdfrwt>
<totfact> 0.99999081E+02</totfact>
</mgrwt>
</event>
<event>
 4    0  0.1546073E-001  0.2965950E+03  0.7546771E-02  0.1086955E+00
         21   -1    0    0  501  502  0.00000000000E+00  0.00000000000E+00  0.63851327636E+02  0.63851327636E+02  0.00000000000E+00 0. -1.
          2   -1    0    0  502    0 -0.00000000000E+00 -0.00000000000E+00 -0.12770308376E+04  0.12770308376E+04  0.00000000000E+00 0. -1.
         25    1    1    2    0    0 -0.11068705542E+03  0.24513661598E+03 -0.54258416559E+03  0.61835763234E+03  0.12500000000E+03 0.  0.
          2    1    1    2  501    0  0.11068705542E+03 -0.24513661598E+03 -0.67059534433E+03  0.72252453284E+03  0.00000000000E+00 0. -1.
<mgrwt>
<rscale>  3 0.29659498E+03</rscale>
<asrwt>0</asrwt>
<pdfrwt beam="1">  1       21 0.98232823E-02 0.29659498E+03</pdfrwt>
<pdfrwt beam="2">  1        2 0.19646626E+00 0.29659498E+03</pdfrwt>
<totfact> 0.18921349E+04</totfact>
</mgrwt>
</event>
<event>
 4    0  0.1234160E-001  0.2951830E+03  0.7546771E-02  0.1087674E+00
          2   -1    0    0  502    0 -0.00000000000E+00  0.00000000000E+00  0.19004258804E+03  0.19004258804E+03  0.00000000000E+00 0.  1.
         21   -1    0    0  501  502  0.00000000000E+00 -0.00000000000E+00 -0.44670795577E+03  0.44670795577E+03  0.00000000000E+00 0.  1.
         25    1    1    2    0    0 -0.25154120137E+03 -0.90747028733E+02 -0.21711601341E+03  0.36643193431E+03  0.12500000000E+03 0.  0.
          2    1    1    2  501    0  0.25154120137E+03  0.90747028733E+02 -0.39549354325E+02  0.27031860949E+03  0.00000000000E+00 0.  1.
<mgrwt>
<rscale>  3 0.29518299E+03</rscale>
<asrwt>0</asrwt>
<pdfrwt beam="1">  1       21 0.68724301E-01 0.29518299E+03</pdfrwt>
<pdfrwt beam="2">  1        2 0.29237321E-01 0.29518299E+03</pdfrwt>
<totfact> 0.41678408E+03</totfact>
</mgrwt>
</event>
<event>
 4    0  0.1608830E-001  0.2755692E+03  0.7546771E-02  0.1098134E+00
         21   -1    0    0  501  502  0.00000000000E+00  0.00000000000E+00  0.40596131917E+02  0.40596131917E+02  0.00000000000E+00 0.  1.
          1   -1    0    0  502    0 -0.00000000000E+00 -0.00000000000E+00 -0.17443673480E+04  0.17443673480E+04  0.00000000000E+00 0.  1.
         25    1    1    2    0    0 -0.20460770584E+03 -0.13582737781E+03 -0.71813976470E+03  0.76919640632E+03  0.12500000000E+03 0.  0.
          1    1    1    2  501    0  0.20460770584E+03  0.13582737781E+03 -0.98563145141E+03  0.10157670736E+04  0.00000000000E+00 0.  1.
<mgrwt>
<rscale>  3 0.27556921E+03</rscale>
<asrwt>0</asrwt>
<pdfrwt beam="1">  1       21 0.62455591E-02 0.27556921E+03</pdfrwt>
<pdfrwt beam="2">  1        1 0.26836419E+00 0.27556921E+03</pdfrwt>
<totfact> 0.10112532E+04</totfact>
</mgrwt>
</event>
<event>
 4    0  0.1158724E-001  0.2653876E+03  0.7546771E-02  0.1103949E+00
          2   -1    0    0  502    0 -0.00000000000E+00  0.00000000000E+00  0.62872479449E+03  0.62872479449E+03  0.00000000000E+00 0.  1.
         21   -1    0    0  501  502  0.00000000000E+00 -0.00000000000E+00 -0.19710994466E+03  0.19710994466E+03  0.00000000000E+00 0. -1.
         25    1    1    2    0    0  0.19391804089E+03  0.13115409539E+03 -0.68113132283E+02  0.27398905472E+03  0.12500000000E+03 0.  0.
          2    1    1    2  501    0 -0.19391804089E+03 -0.13115409539E+03  0.49972798211E+03  0.55184568443E+03  0.00000000000E+00 0.  1.
<mgrwt>
<rscale>  3 0.26538765E+03</rscale>
<asrwt>0</asrwt>
<pdfrwt beam="1">  1       21 0.30324607E-01 0.26538765E+03</pdfrwt>
<pdfrwt beam="2">  1        2 0.96726891E-01 0.26538765E+03</pdfrwt>
<totfact> 0.61396535E+03</totfact>
</mgrwt>
</event>
<event>
 4    0  0.1687610E-001  0.2639755E+03  0.7546771E-02  0.1104778E+00
         21   -1    0    0  501  502  0.00000000000E+00  0.00000000000E+00  0.68704948709E+02  0.68704948709E+02  0.00000000000E+00 0.  1.
          2   -1    0    0  502    0 -0.00000000000E+00 -0.00000000000E+00 -0.90958110280E+03  0.90958110280E+03  0.00000000000E+00 0.  1.
         25    1    1    2    0    0 -0.79544851658E+02 -0.21847354998E+03 -0.50431015866E+03  0.56922035416E+03  0.12500000000E+03 0.  0.
          2    1    1    2  501    0  0.79544851658E+02  0.21847354998E+03 -0.33656599543E+03  0.40906569735E+03  0.00000000000E+00 0.  1.
<mgrwt>
<rscale>  3 0.26397552E+03</rscale>
<asrwt>0</asrwt>
<pdfrwt beam="1">  1       21 0.10569993E-01 0.26397552E+03</pdfrwt>
<pdfrwt beam="2">  1        2 0.13993555E+00 0.26397552E+03</pdfrwt>
<totfact> 0.27625055E+04</totfact>
</mgrwt>
</event>
<event>
 4    0  0.1458321E-001  0.2618789E+03  0.7546771E-02  0.1106020E+00
         21   -1    0    0  501  502  0.00000000000E+00  0.00000000000E+00  0.21641539997E+03  0.21641539997E+03  0.00000000000E+00 0.  1.
          2   -1    0    0  502    0 -0.00000000000E+00 -0.00000000000E+00 -0.66902335769E+03  0.66902335769E+03  0.00000000000E+00 0.  1.
         25    1    1    2    0    0 -0.21523137337E+03 -0.81430879576E+02  0.10505226707E+03  0.28216397901E+03  0.12500000000E+03 0.  0.
          2    1    1    2  501    0  0.21523137337E+03  0.81430879576E+02 -0.55766022480E+03  0.60327477865E+03  0.00000000000E+00 0.  1.
<mgrwt>
<rscale>  3 0.26187885E+03</rscale>
<asrwt>0</asrwt>
<pdfrwt beam="1">  1       21 0.33294678E-01 0.26187885E+03</pdfrwt>
<pdfrwt beam="2">  1        2 0.10292667E+00 0.26187885E+03</pdfrwt>
<totfact> 0.47444718E+03</totfact>
</mgrwt>
</event>
<event>
 4    0  0.1406682E-001  0.3260388E+03  0.7546771E-02  0.1072903E+00
          2   -1    0    0  502    0 -0.00000000000E+00  0.00000000000E+00  0.54584850850E+03  0.54584850850E+03  0.00000000000E+00 0.  1.
         21   -1    0    0  501  502  0.00000000000E+00 -0.00000000000E+00 -0.27189739681E+03  0.27189739681E+03  0.00000000000E+00 0.  1.
         25    1    1    2    0    0 -0.20904841104E+02 -0.30039856456E+03 -0.96807837402E+02  0.34010743502E+03  0.12500000000E+03 0.  0.
          2    1    1    2  501    0  0.20904841104E+02  0.30039856456E+03  0.37075894909E+03  0.47763847029E+03  0.00000000000E+00 0.  1.
<mgrwt>
<rscale>  3 0.32603882E+03</rscale>
<asrwt>0</asrwt>
<pdfrwt beam="1">  1       21 0.41830369E-01 0.32603882E+03</pdfrwt>
<pdfrwt beam="2">  1        2 0.83976693E-01 0.32603882E+03</pdfrwt>
<totfact> 0.37371905E+03</totfact>
</mgrwt>
</event>
<event>
 4    0  0.1335389E-001  0.2367647E+03  0.7546771E-02  0.1121967E+00
          2   -1    0    0  502    0 -0.00000000000E+00  0.00000000000E+00  0.12751075830E+04  0.12751075830E+04  0.00000000000E+00 0. -1.
         21   -1    0    0  501  502  0.00000000000E+00 -0.00000000000E+00 -0.10412201127E+03  0.10412201127E+03  0.00000000000E+00 0.  1.
         25    1    1    2    0    0  0.34090666375E+02 -0.19816742954E+03  0.52112734739E+02  0.24243193021E+03  0.12500000000E+03 0.  0.
          2    1    1    2  501    0 -0.34090666375E+02  0.19816742954E+03  0.11188728370E+04  0.11367976641E+04  0.00000000000E+00 0. -1.
<mgrwt>
<rscale>  3 0.23676466E+03</rscale>
<asrwt>0</asrwt>
<pdfrwt beam="1">  1       21 0.16018772E-01 0.23676466E+03</pdfrwt>
<pdfrwt beam="2">  1        2 0.19617039E+00 0.23676466E+03</pdfrwt>
<totfact> 0.79473747E+03</totfact>
</mgrwt>
</event>
<event>
 4    0  0.1400606E-001  0.2838208E+03  0.7546771E-02  0.1093620E+00
          1   -1    0    0  502    0 -0.00000000000E+00  0.00000000000E+00  0.25269505367E+03  0.25269505367E+03  0.00000000000E+00 0. -1.
         21   -1    0    0  501  502  0.00000000000E+00 -0.00000000000E+00 -0.33868913965E+03  0.33868913965E+03  0.00000000000E+00 0. -1.
         25    1    1    2    0    0  0.13730975170E+03 -0.21465152455E+03 -0.16029768615E+03  0.32595949609E+03  0.12500000000E+03 0.  0.
          1    1    1    2  501    0 -0.13730975170E+03  0.21465152455E+03  0.74303600178E+02  0.26542469724E+03  0.00000000000E+00 0. -1.
<mgrwt>
<rscale>  3 0.28382080E+03</rscale>
<asrwt>0</asrwt>
<pdfrwt beam="1">  1       21 0.52106022E-01 0.28382080E+03</pdfrwt>
<pdfrwt beam="2">  1        1 0.38876162E-01 0.28382080E+03</pdfrwt>
<totfact> 0.40468271E+03</totfact>
</mgrwt>
</event>
<event>
 4    0  0.1002184E-001  0.4396593E+03  0.7546771E-02  0.1030851E+00
          1   -1    0    0  502    0 -0.00000000000E+00  0.00000000000E+00  0.31939470683E+04  0.31939470683E+04  0.00000000000E+00 0.  1.
         21   -1    0    0  501  502  0.00000000000E+00 -0.00000000000E+00 -0.20186096453E+03  0.20186096453E+03  0.00000000000E+00 0.  1.
         25    1    1    2    0    0 -0.20331758562E+03  0.36923873617E+03  0.72072368142E+02  0.44552745276E+03  0.12500000000E+03 0.  0.
          1    1    1    2  501    0  0.20331758562E+03 -0.36923873617E+03  0.29200137356E+04  0.29502805800E+04  0.00000000000E+00 0.  1.
<mgrwt>
<rscale>  3 0.43965928E+03</rscale>
<asrwt>0</asrwt>
<pdfrwt beam="1">  1       21 0.31055535E-01 0.43965928E+03</pdfrwt>
<pdfrwt beam="2">  1        1 0.49137644E+00 0.43965928E+03</pdfrwt>
<totfact> 0.51873991E+01</totfact>
</mgrwt>
</event>
<event>
 4    0  0.1541734E-001  0.2433965E+03  0.7546771E-02  0.1117551E+00
         21   -1    0    0  501  502  0.00000000000E+00  0.00000000000E+00  0.24558200078E+03  0.24558200078E+03  0.00000000000E+00 0. -1.
         -1   -1    0    0    0  501 -0.00000000000E+00 -0.00000000000E+00 -0.21998849049E+03  0.21998849049E+03  0.00000000000E+00 0. -1.
         25    1    1    2    0    0  0.16761030080E+03 -0.12459399926E+03  0.67452813192E+02  0.25257030624E+03  0.12500000000E+03 0.  0.
         -1    1    1    2    0  502 -0.16761030080E+03  0.12459399926E+03 -0.41859302911E+02  0.21300018503E+03  0.00000000000E+00 0. -1.
<mgrwt>
<rscale>  3 0.24339654E+03</rscale>
<asrwt>0</asrwt>
<pdfrwt beam="1">  1       21 0.37781846E-01 0.24339654E+03</pdfrwt>
<pdfrwt beam="2">  1       -1 0.33844383E-01 0.24339654E+03</pdfrwt>
<totfact> 0.50846206E+03</totfact>
</mgrwt>
</event>
<event>
 4    0  0.1002184E-001  0.3272492E+03  0.7546771E-02  0.1072361E+00
         21   -1    0    0  501  502  0.00000000000E+00  0.00000000000E+00  0.81204984559E+03  0.81204984559E+03  0.00000000000E+00 0. -1.
          3   -1    0    0  502    0 -0.00000000000E+00 -0.00000000000E+00 -0.12617330315E+03  0.12617330315E+03  0.00000000000E+00 0.  1.
         25    1    1    2    0    0 -0.30009933707E+03 -0.37515494907E+02  0.44056396905E+03  0.54880655544E+03  0.12500000000E+03 0.  0.
          3    1    1    2  501    0  0.30009933707E+03  0.37515494907E+02  0.24531257340E+03  0.38941659330E+03  0.00000000000E+00 0.  1.
<mgrwt>
<rscale>  3 0.32724918E+03</rscale>
<asrwt>0</asrwt>
<pdfrwt beam="1">  1       21 0.12493074E+00 0.32724918E+03</pdfrwt>
<pdfrwt beam="2">  1        3 0.19411278E-01 0.32724918E+03</pdfrwt>
<totfact> 0.54083993E+02</totfact>
</mgrwt>
</event>
<event>
 4    0  0.1002184E-001  0.4766722E+03  0.7546771E-02  0.1020054E+00
          2   -1    0    0  502    0 -0.00000000000E+00  0.00000000000E+00  0.36793418281E+04  0.36793418281E+04  0.00000000000E+00 0. -1.
         21   -1    0    0  501  502  0.00000000000E+00 -0.00000000000E+00 -0.59915536785E+02  0.59915536785E+02  0.00000000000E+00 0. -1.
         25    1    1    2    0    0 -0.42293757957E+03 -0.18087342019E+03  0.17088110887E+04  0.17740495278E+04  0.12500000000E+03 0.  0.
          2    1    1    2  501    0  0.42293757957E+03  0.18087342019E+03  0.19106152027E+04  0.19652078371E+04  0.00000000000E+00 0. -1.
<mgrwt>
<rscale>  3 0.47667220E+03</rscale>
<asrwt>0</asrwt>
<pdfrwt beam="1">  1       21 0.92177778E-02 0.47667220E+03</pdfrwt>
<pdfrwt beam="2">  1        2 0.56605241E+00 0.47667220E+03</pdfrwt>
<totfact> 0.82423039E+02</totfact>
</mgrwt>
</event>
<event>
 4    0  0.1369803E-001  0.3573671E+03  0.7546771E-02  0.1059631E+00
          2   -1    0    0  502    0 -0.00000000000E+00  0.00000000000E+00  0.57167621958E+03  0.57167621958E+03  0.00000000000E+00 0. -1.
         21   -1    0    0  501  502  0.00000000000E+00 -0.00000000000E+00 -0.39808061374E+03  0.39808061374E+03  0.00000000000E+00 0. -1.
         25    1    1    2    0    0 -0.17151492641E+03 -0.28752201482E+03 -0.24534130892E+03  0.43347853101E+03  0.12500000000E+03 0.  0.
          2    1    1    2  501    0  0.17151492641E+03  0.28752201482E+03  0.41893691476E+03  0.53627830231E+03  0.00000000000E+00 0. -1.
<mgrwt>
<rscale>  3 0.35736715E+03</rscale>
<asrwt>0</asrwt>
<pdfrwt beam="1">  1       21 0.61243171E-01 0.35736715E+03</pdfrwt>
<pdfrwt beam="2">  1        2 0.87950188E-01 0.35736715E+03</pdfrwt>
<totfact> 0.15665775E+03</totfact>
</mgrwt>
</event>
<event>
 4    0  0.1192681E-001  0.2670663E+03  0.7546771E-02  0.1102970E+00
          1   -1    0    0  502    0 -0.00000000000E+00  0.00000000000E+00  0.11392976557E+04  0.11392976557E+04  0.00000000000E+00 0.  1.
         21   -1    0    0  501  502  0.00000000000E+00 -0.00000000000E+00 -0.90243843293E+02  0.90243843293E+02  0.00000000000E+00 0. -1.
         25    1    1    2    0    0 -0.17756300393E+02  0.23533830065E+03  0.16363914254E+03  0.31321266087E+03  0.12500000000E+03 0.  0.
          1    1    1    2  501    0  0.17756300393E+02 -0.23533830065E+03  0.88541466982E+03  0.91632883808E+03  0.00000000000E+00 0.  1.
<mgrwt>
<rscale>  3 0.26706629E+03</rscale>
<asrwt>0</asrwt>
<pdfrwt beam="1">  1       21 0.13883669E-01 0.26706629E+03</pdfrwt>
<pdfrwt beam="2">  1        1 0.17527655E+00 0.26706629E+03</pdfrwt>
<totfact> 0.62836565E+03</totfact>
</mgrwt>
</event>
<event>
 4    0  0.1837976E-001  0.2972862E+03  0.7546771E-02  0.1086605E+00
         21   -1    0    0  501  502  0.00000000000E+00  0.00000000000E+00  0.26789835322E+03  0.26789835322E+03  0.00000000000E+00 0. -1.
         -1   -1    0    0    0  501 -0.00000000000E+00 -0.00000000000E+00 -0.49567868848E+03  0.49567868848E+03  0.00000000000E+00 0. -1.
         25    1    1    2    0    0  0.19708150163E+03 -0.18415476560E+03  0.12245174570E+03  0.32151753607E+03  0.12500000000E+03 0.  0.
         -1    1    1    2    0  502 -0.19708150163E+03  0.18415476560E+03 -0.35023208096E+03  0.44205950562E+03  0.00000000000E+00 0. -1.
<mgrwt>
<rscale>  3 0.29728622E+03</rscale>
<asrwt>0</asrwt>
<pdfrwt beam="1">  1       21 0.41215132E-01 0.29728622E+03</pdfrwt>
<pdfrwt beam="2">  1       -1 0.76258259E-01 0.29728622E+03</pdfrwt>
<totfact> 0.91924473E+02</totfact>
</mgrwt>
</event>
<event>
 4    0  0.1002184E-001  0.4333579E+03  0.7546771E-02  0.1032804E+00
         21   -1    0    0  501  502  0.00000000000E+00  0.00000000000E+00  0.51768658478E+03  0.51768658478E+03  0.00000000000E+00 0. -1.
          3   -1    0    0  502    0 -0.00000000000E+00 -0.00000000000E+00 -0.44407998077E+03  0.44407998077E+03  0.00000000000E+00 0.  1.
         25    1    1    2    0    0 -0.42648911916E+02  0.41274098771E+03  0.26163503394E+03  0.50621333804E+03  0.12500000000E+03 0.  0.
          3    1    1    2  501    0  0.42648911916E+02 -0.41274098771E+03 -0.18802842993E+03  0.45555322750E+03  0.00000000000E+00 0.  1.
<mgrwt>
<rscale>  3 0.43335788E+03</rscale>
<asrwt>0</asrwt>
<pdfrwt beam="1">  1       21 0.79644089E-01 0.43335788E+03</pdfrwt>
<pdfrwt beam="2">  1        3 0.68319998E-01 0.43335788E+03</pdfrwt>
<totfact> 0.13568995E+02</totfact>
</mgrwt>
</event>
<event>
 4    0  0.1987798E-001  0.2855780E+03  0.7546771E-02  0.1092681E+00
         21   -1    0    0  501  502  0.00000000000E+00  0.00000000000E+00  0.74655639343E+02  0.74655639343E+02  0.00000000000E+00 0.  1.
         -2   -1    0    0    0  501 -0.00000000000E+00 -0.00000000000E+00 -0.13415364004E+04  0.13415364004E+04  0.00000000000E+00 0.  1.
         25    1    1    2    0    0 -0.13787297488E+03 -0.21661213177E+03 -0.29347551719E+03  0.40949072276E+03  0.12500000000E+03 0.  0.
         -2    1    1    2    0  502  0.13787297488E+03  0.21661213177E+03 -0.97340524386E+03  0.10067013170E+04  0.00000000000E+00 0.  1.
<mgrwt>
<rscale>  3 0.28557796E+03</rscale>
<asrwt>0</asrwt>
<pdfrwt beam="1">  1       21 0.11485485E-01 0.28557796E+03</pdfrwt>
<pdfrwt beam="2">  1       -2 0.20639018E+00 0.28557796E+03</pdfrwt>
<totfact> 0.67609044E+02</totfact>
</mgrwt>
</event>
<event>
 4    0  0.1002184E-001  0.2622179E+03  0.7546771E-02  0.1105818E+00
         21   -1    0    0  501  502  0.00000000000E+00  0.00000000000E+00  0.35818497349E+03  0.35818497349E+03  0.00000000000E+00 0. -1.
          2   -1    0    0  502    0 -0.00000000000E+00 -0.00000000000E+00 -0.19834371791E+03  0.19834371791E+03  0.00000000000E+00 0.  1.
         25    1    1    2    0    0 -0.19952048359E+03  0.11543302303E+03  0.19033384822E+03  0.32401416629E+03  0.12500000000E+03 0.  0.
          2    1    1    2  501    0  0.19952048359E+03 -0.11543302303E+03 -0.30492592648E+02  0.23251452511E+03  0.00000000000E+00 0.  1.
<mgrwt>
<rscale>  3 0.26221786E+03</rscale>
<asrwt>0</asrwt>
<pdfrwt beam="1">  1       21 0.55105380E-01 0.26221786E+03</pdfrwt>
<pdfrwt beam="2">  1        2 0.30514418E-01 0.26221786E+03</pdfrwt>
<totfact> 0.64754440E+03</totfact>
</mgrwt>
</event>
<event>
 4    0  0.1002184E-001  0.2545953E+03  0.7546771E-02  0.1110435E+00
         -2   -1    0    0    0  501 -0.00000000000E+00  0.00000000000E+00  0.28057645580E+03  0.28057645580E+03  0.00000000000E+00 0. -1.
         21   -1    0    0  501  502  0.00000000000E+00 -0.00000000000E+00 -0.44206706174E+03  0.44206706174E+03  0.00000000000E+00 0.  1.
         25    1    1    2    0    0  0.17879988530E+03 -0.13124172574E+03 -0.34914552098E+03  0.43211269870E+03  0.12500000000E+03 0.  0.
         -2    1    1    2    0  502 -0.17879988530E+03  0.13124172574E+03  0.18765491503E+03  0.29053081884E+03  0.00000000000E+00 0. -1.
<mgrwt>
<rscale>  3 0.25459534E+03</rscale>
<asrwt>0</asrwt>
<pdfrwt beam="1">  1       21 0.68010317E-01 0.25459534E+03</pdfrwt>
<pdfrwt beam="2">  1       -2 0.43165609E-01 0.25459534E+03</pdfrwt>
<totfact> 0.80231962E+02</totfact>
</mgrwt>
</event>
<event>
 4    0  0.1961647E-001  0.2503364E+03  0.7546771E-02  0.1113092E+00
         -1   -1    0    0    0  501 -0.00000000000E+00  0.00000000000E+00  0.82946589328E+03  0.82946589328E+03  0.00000000000E+00 0. -1.
         21   -1    0    0  501  502  0.00000000000E+00 -0.00000000000E+00 -0.79645883447E+02  0.79645883447E+02  0.00000000000E+00 0. -1.
         25    1    1    2    0    0  0.19630455371E+03 -0.92237994124E+02  0.58622277768E+03  0.63743664033E+03  0.12500000000E+03 0.  0.
         -1    1    1    2    0  502 -0.19630455371E+03  0.92237994124E+02  0.16359723215E+03  0.27167513639E+03  0.00000000000E+00 0. -1.
<mgrwt>
<rscale>  3 0.25033642E+03</rscale>
<asrwt>0</asrwt>
<pdfrwt beam="1">  1       21 0.12253213E-01 0.25033642E+03</pdfrwt>
<pdfrwt beam="2">  1       -1 0.12761013E+00 0.25033642E+03</pdfrwt>
<totfact> 0.29960467E+03</totfact>
</mgrwt>
</event>
<event>
 4    0  0.1002184E-001  0.6106751E+03  0.7546771E-02  0.9883503E-01
         21   -1    0    0  501  502  0.00000000000E+00  0.00000000000E+00  0.59946896655E+03  0.59946896655E+03  0.00000000000E+00 0. -1.
          1   -1    0    0  502    0 -0.00000000000E+00 -0.00000000000E+00 -0.66079974847E+03  0.66079974847E+03  0.00000000000E+00 0.  1.
         25    1    1    2    0    0  0.72648792245E+02  0.59331381407E+03  0.14546791576E+03  0.62776193218E+03  0.12500000000E+03 0.  0.
          1    1    1    2  501    0 -0.72648792245E+02 -0.59331381407E+03 -0.20679869768E+03  0.63250678284E+03  0.00000000000E+00 0.  1.
<mgrwt>
<rscale>  3 0.61067514E+03</rscale>
<asrwt>0</asrwt>
<pdfrwt beam="1">  1       21 0.92225995E-01 0.61067514E+03</pdfrwt>
<pdfrwt beam="2">  1        1 0.10166150E+00 0.61067514E+03</pdfrwt>
<totfact> 0.29024991E+02</totfact>
</mgrwt>
</event>
<event>
 4    0  0.1733619E-001  0.3110886E+03  0.7546771E-02  0.1079825E+00
         21   -1    0    0  501  502  0.00000000000E+00  0.00000000000E+00  0.26867767810E+03  0.26867767810E+03  0.00000000000E+00 0. -1.
          2   -1    0    0  502    0 -0.00000000000E+00 -0.00000000000E+00 -0.10933124391E+04  0.10933124391E+04  0.00000000000E+00 0.  1.
         25    1    1    2    0    0 -0.25510617757E+03  0.12677515538E+03  0.15086951741E+03  0.34574226403E+03  0.12500000000E+03 0.  0.
          2    1    1    2  501    0  0.25510617757E+03 -0.12677515538E+03 -0.97550427840E+03  0.10162478532E+04  0.00000000000E+00 0.  1.
<mgrwt>
<rscale>  3 0.31108858E+03</rscale>
<asrwt>0</asrwt>
<pdfrwt beam="1">  1       21 0.41335027E-01 0.31108858E+03</pdfrwt>
<pdfrwt beam="2">  1        2 0.16820192E+00 0.31108858E+03</pdfrwt>
<totfact> 0.15729045E+03</totfact>
</mgrwt>
</event>
<event>
 4    0  0.1207564E-001  0.2477517E+03  0.7546771E-02  0.1114734E+00
          2   -1    0    0  502    0 -0.00000000000E+00  0.00000000000E+00  0.30793539635E+04  0.30793539635E+04  0.00000000000E+00 0.  1.
         21   -1    0    0  501  502  0.00000000000E+00 -0.00000000000E+00 -0.37808434113E+02  0.37808434113E+02  0.00000000000E+00 0.  1.
         25    1    1    2    0    0  0.21214353566E+03 -0.27404708860E+02  0.42540024319E+03  0.49228677079E+03  0.12500000000E+03 0.  0.
          2    1    1    2  501    0 -0.21214353566E+03  0.27404708860E+02  0.26161452862E+04  0.26248756268E+04  0.00000000000E+00 0.  1.
<mgrwt>
<rscale>  3 0.24775169E+03</rscale>
<asrwt>0</asrwt>
<pdfrwt beam="1">  1       21 0.58166846E-02 0.24775169E+03</pdfrwt>
<pdfrwt beam="2">  1        2 0.47374657E+00 0.24775169E+03</pdfrwt>
<totfact> 0.49741766E+03</totfact>
</mgrwt>
</event>
<event>
 4    0  0.1187338E-001  0.2451738E+03  0.7546771E-02  0.1116393E+00
         21   -1    0    0  501  502  0.00000000000E+00  0.00000000000E+00  0.55061019716E+02  0.55061019716E+02  0.00000000000E+00 0.  1.
          1   -1    0    0  502    0 -0.00000000000E+00 -0.00000000000E+00 -0.16843147865E+04  0.16843147865E+04  0.00000000000E+00 0. -1.
         25    1    1    2    0    0 -0.21089578005E+03 -0.28577351340E+01 -0.27345996613E+03  0.36727448832E+03  0.12500000000E+03 0.  0.
          1    1    1    2  501    0  0.21089578005E+03  0.28577351340E+01 -0.13557938007E+04  0.13721013179E+04  0.00000000000E+00 0. -1.
<mgrwt>
<rscale>  3 0.24517381E+03</rscale>
<asrwt>0</asrwt>
<pdfrwt beam="1">  1       21 0.84709267E-02 0.24517381E+03</pdfrwt>
<pdfrwt beam="2">  1        1 0.25912533E+00 0.24517381E+03</pdfrwt>
<totfact> 0.65665133E+03</totfact>
</mgrwt>
</event>
<event>
 4    0  0.1231122E-001  0.2438196E+03  0.7546771E-02  0.1117274E+00
         21   -1    0    0  501  502  0.00000000000E+00  0.00000000000E+00  0.69890088784E+02  0.69890088784E+02  0.00000000000E+00 0. -1.
          2   -1    0    0  502    0 -0.00000000000E+00 -0.00000000000E+00 -0.21422262469E+04  0.21422262469E+04  0.00000000000E+00 0.  1.
         25    1    1    2    0    0 -0.12200226155E+03 -0.17011307065E+03 -0.16749900994E+03  0.29581062685E+03  0.12500000000E+03 0.  0.
          2    1    1    2  501    0  0.12200226155E+03  0.17011307065E+03 -0.19048371482E+04  0.19163057088E+04  0.00000000000E+00 0.  1.
<mgrwt>
<rscale>  3 0.24381962E+03</rscale>
<asrwt>0</asrwt>
<pdfrwt beam="1">  1       21 0.10752321E-01 0.24381962E+03</pdfrwt>
<pdfrwt beam="2">  1        2 0.32957327E+00 0.24381962E+03</pdfrwt>
<totfact> 0.56613073E+03</totfact>
</mgrwt>
</event>
<event>
 4    0  0.1530427E-001  0.2827362E+03  0.7546771E-02  0.1094204E+00
         21   -1    0    0  501  502  0.00000000000E+00  0.00000000000E+00  0.62672431141E+02  0.62672431141E+02  0.00000000000E+00 0. -1.
          2   -1    0    0  502    0 -0.00000000000E+00 -0.00000000000E+00 -0.15456056308E+04  0.15456056308E+04  0.00000000000E+00 0. -1.
         25    1    1    2    0    0 -0.24726531398E+03  0.56343744022E+02 -0.36368809672E+03  0.46066124722E+03  0.12500000000E+03 0.  0.
          2    1    1    2  501    0  0.24726531398E+03 -0.56343744022E+02 -0.11192451029E+04  0.11476168147E+04  0.00000000000E+00 0. -1.
<mgrwt>
<rscale>  3 0.28273619E+03</rscale>
<asrwt>0</asrwt>
<pdfrwt beam="1">  1       21 0.96419128E-02 0.28273619E+03</pdfrwt>
<pdfrwt beam="2">  1        2 0.23778547E+00 0.28273619E+03</pdfrwt>
<totfact> 0.13999417E+04</totfact>
</mgrwt>
</event>
<event>
 4    0  0.1075063E-001  0.2445672E+03  0.7546771E-02  0.1116787E+00
         21   -1    0    0  501  502  0.00000000000E+00  0.00000000000E+00  0.10630751736E+03  0.10630751736E+03  0.00000000000E+00 0.  1.
          2   -1    0    0  502    0 -0.00000000000E+00 -0.00000000000E+00 -0.70654939827E+03  0.70654939827E+03  0.00000000000E+00 0. -1.
         25    1    1    2    0    0  0.17614558480E+03  0.11472083126E+03 -0.89296157083E+02  0.26035925150E+03  0.12500000000E+03 0.  0.
          2    1    1    2  501    0 -0.17614558480E+03 -0.11472083126E+03 -0.51094572382E+03  0.55249766413E+03  0.00000000000E+00 0. -1.
<mgrwt>
<rscale>  3 0.24456724E+03</rscale>
<asrwt>0</asrwt>
<pdfrwt beam="1">  1       21 0.16355002E-01 0.24456724E+03</pdfrwt>
<pdfrwt beam="2">  1        2 0.10869991E+00 0.24456724E+03</pdfrwt>
<totfact> 0.17342912E+04</totfact>
</mgrwt>
</event>
<event>
 4    0  0.1418740E-001  0.3582915E+03  0.7546771E-02  0.1059262E+00
          1   -1    0    0  502    0 -0.00000000000E+00  0.00000000000E+00  0.20403071714E+04  0.20403071714E+04  0.00000000000E+00 0. -1.
         21   -1    0    0  501  502  0.00000000000E+00 -0.00000000000E+00 -0.65867260412E+02  0.65867260412E+02  0.00000000000E+00 0. -1.
         25    1    1    2    0    0 -0.33416475074E+03  0.32889583410E+02  0.67671586833E+03  0.76571350503E+03  0.12500000000E+03 0.  0.
          1    1    1    2  501    0  0.33416475074E+03 -0.32889583410E+02  0.12977240426E+04  0.13404609268E+04  0.00000000000E+00 0. -1.
<mgrwt>
<rscale>  3 0.35829151E+03</rscale>
<asrwt>0</asrwt>
<pdfrwt beam="1">  1       21 0.10133426E-01 0.35829151E+03</pdfrwt>
<pdfrwt beam="2">  1        1 0.31389336E+00 0.35829151E+03</pdfrwt>
<totfact> 0.27006172E+03</totfact>
</mgrwt>
</event>
<event>
 4    0  0.1002184E-001  0.2493086E+03  0.7546771E-02  0.1113743E+00
          2   -1    0    0  502    0 -0.00000000000E+00  0.00000000000E+00  0.34867814977E+03  0.34867814977E+03  0.00000000000E+00 0. -1.
         21   -1    0    0  501  502  0.00000000000E+00 -0.00000000000E+00 -0.23041468916E+03  0.23041468916E+03  0.00000000000E+00 0.  1.
         25    1    1    2    0    0 -0.13491134721E+03 -0.16831138418E+03 -0.10330491190E+03  0.26986422229E+03  0.12500000000E+03 0.  0.
          2    1    1    2  501    0  0.13491134721E+03  0.16831138418E+03  0.22156837251E+03  0.30922861663E+03  0.00000000000E+00 0. -1.
<mgrwt>
<rscale>  3 0.24930863E+03</rscale>
<asrwt>0</asrwt>
<pdfrwt beam="1">  1       21 0.35448414E-01 0.24930863E+03</pdfrwt>
<pdfrwt beam="2">  1        2 0.53642792E-01 0.24930863E+03</pdfrwt>
<totfact> 0.87426134E+03</totfact>
</mgrwt>
</event>
<event>
 4    0  0.1385555E-001  0.3441994E+03  0.7546771E-02  0.1065021E+00
          2   -1    0    0  502    0 -0.00000000000E+00  0.00000000000E+00  0.66765077466E+03  0.66765077466E+03  0.00000000000E+00 0.  1.
         21   -1    0    0  501  502  0.00000000000E+00 -0.00000000000E+00 -0.19820446764E+03  0.19820446764E+03  0.00000000000E+00 0.  1.
         25    1    1    2    0    0  0.31734039751E+03 -0.46295687692E+02  0.65992150540E+02  0.35046851859E+03  0.12500000000E+03 0.  0.
          2    1    1    2  501    0 -0.31734039751E+03  0.46295687692E+02  0.40345415648E+03  0.51538672371E+03  0.00000000000E+00 0.  1.
<mgrwt>
<rscale>  3 0.34419939E+03</rscale>
<asrwt>0</asrwt>
<pdfrwt beam="1">  1       21 0.30492995E-01 0.34419939E+03</pdfrwt>
<pdfrwt beam="2">  1        2 0.10271550E+00 0.34419939E+03</pdfrwt>
<totfact> 0.55537647E+03</totfact>
</mgrwt>
</event>
<event>
 4    0  0.1282520E-001  0.2479542E+03  0.7546771E-02  0.1114605E+00
         -2   -1    0    0    0  501 -0.00000000000E+00  0.00000000000E+00  0.96833238771E+02  0.96833238771E+02  0.00000000000E+00 0.  1.
         21   -1    0    0  501  502  0.00000000000E+00 -0.00000000000E+00 -0.69991627999E+03  0.69991627999E+03  0.00000000000E+00 0.  1.
         25    1    1    2    0    0  0.29678880792E+02 -0.21207420349E+03 -0.50211121346E+03  0.55999729860E+03  0.12500000000E+03 0.  0.
         -2    1    1    2    0  502 -0.29678880792E+02  0.21207420349E+03 -0.10097182776E+03  0.23675222017E+03  0.00000000000E+00 0.  1.
<mgrwt>
<rscale>  3 0.24795424E+03</rscale>
<asrwt>0</asrwt>
<pdfrwt beam="1">  1       21 0.10767943E+00 0.24795424E+03</pdfrwt>
<pdfrwt beam="2">  1       -2 0.14897421E-01 0.24795424E+03</pdfrwt>
<totfact> 0.18489720E+03</totfact>
</mgrwt>
</event>
<event>
 4    0  0.1002184E-001  0.2369892E+03  0.7546771E-02  0.1121815E+00
          2   -1    0    0  502    0 -0.00000000000E+00  0.00000000000E+00  0.21578272935E+03  0.21578272935E+03  0.00000000000E+00 0. -1.
         21   -1    0    0  501  502  0.00000000000E+00 -0.00000000000E+00 -0.30500574124E+03  0.30500574124E+03  0.00000000000E+00 0.  1.
         25    1    1    2    0    0 -0.14341621733E+03 -0.14131769054E+03 -0.18227968510E+03  0.29898124465E+03  0.12500000000E+03 0.  0.
          2    1    1    2  501    0  0.14341621733E+03  0.14131769054E+03  0.93056673208E+02  0.22180722594E+03  0.00000000000E+00 0. -1.
<mgrwt>
<rscale>  3 0.23698924E+03</rscale>
<asrwt>0</asrwt>
<pdfrwt beam="1">  1       21 0.46923960E-01 0.23698924E+03</pdfrwt>
<pdfrwt beam="2">  1        2 0.33197343E-01 0.23698924E+03</pdfrwt>
<totfact> 0.83225818E+03</totfact>
</mgrwt>
</event>
<event>
 4    0  0.1489906E-001  0.2558145E+03  0.7546771E-02  0.1109684E+00
          2   -1    0    0  502    0 -0.00000000000E+00  0.00000000000E+00  0.72172949494E+03  0.72172949494E+03  0.00000000000E+00 0.  1.
         21   -1    0    0  501  502  0.00000000000E+00 -0.00000000000E+00 -0.14611578744E+04  0.14611578744E+04  0.00000000000E+00 0. -1.
         25    1    1    2    0    0  0.11304377496E+03  0.19245037385E+03 -0.14322940620E+04  0.14549595601E+04  0.12500000000E+03 0.  0.
          2    1    1    2  501    0 -0.11304377496E+03 -0.19245037385E+03  0.69286568254E+03  0.72792780926E+03  0.00000000000E+00 0.  1.
<mgrwt>
<rscale>  3 0.25581447E+03</rscale>
<asrwt>0</asrwt>
<pdfrwt beam="1">  1       21 0.22479352E+00 0.25581447E+03</pdfrwt>
<pdfrwt beam="2">  1        2 0.11103531E+00 0.25581447E+03</pdfrwt>
<totfact> 0.45001109E+01</totfact>
</mgrwt>
</event>
<event>
 4    0  0.1002184E-001  0.2799660E+03  0.7546771E-02  0.1095708E+00
         21   -1    0    0  501  502  0.00000000000E+00  0.00000000000E+00  0.17670701863E+04  0.17670701863E+04  0.00000000000E+00 0.  1.
         -3   -1    0    0    0  501 -0.00000000000E+00 -0.00000000000E+00 -0.22548658138E+03  0.22548658138E+03  0.00000000000E+00 0.  1.
         25    1    1    2    0    0 -0.12147844496E+03  0.21908658419E+03  0.16821595351E+04  0.17052981105E+04  0.12500000000E+03 0.  0.
         -3    1    1    2    0  502  0.12147844496E+03 -0.21908658419E+03 -0.14057593024E+03  0.28725865718E+03  0.00000000000E+00 0.  1.
<mgrwt>
<rscale>  3 0.27996597E+03</rscale>
<asrwt>0</asrwt>
<pdfrwt beam="1">  1       21 0.27185694E+00 0.27996597E+03</pdfrwt>
<pdfrwt beam="2">  1       -3 0.34690244E-01 0.27996597E+03</pdfrwt>
<totfact> 0.18676490E+01</totfact>
</mgrwt>
</event>
<event>
 4    0  0.1002184E-001  0.2406179E+03  0.7546771E-02  0.1119382E+00
          2   -1    0    0  502    0 -0.00000000000E+00  0.00000000000E+00  0.15651935649E+03  0.15651935649E+03  0.00000000000E+00 0. -1.
         21   -1    0    0  501  502  0.00000000000E+00 -0.00000000000E+00 -0.41704607307E+03  0.41704607307E+03  0.00000000000E+00 0.  1.
         25    1    1    2    0    0  0.90908016299E+02 -0.18441179520E+03 -0.27746748422E+03  0.36726718127E+03  0.12500000000E+03 0.  0.
          2    1    1    2  501    0 -0.90908016299E+02  0.18441179520E+03  0.16940767644E+02  0.20629824828E+03  0.00000000000E+00 0. -1.
<mgrwt>
<rscale>  3 0.24061791E+03</rscale>
<asrwt>0</asrwt>
<pdfrwt beam="1">  1       21 0.64160935E-01 0.24061791E+03</pdfrwt>
<pdfrwt beam="2">  1        2 0.24079901E-01 0.24061791E+03</pdfrwt>
<totfact> 0.60984337E+03</totfact>
</mgrwt>
</event>
<event>
 4    0  0.1475351E-001  0.3930549E+03  0.7546771E-02  0.1046211E+00
         21   -1    0    0  501  502  0.00000000000E+00  0.00000000000E+00  0.19506984332E+03  0.19506984332E+03  0.00000000000E+00 0.  1.
          1   -1    0    0  502    0 -0.00000000000E+00 -0.00000000000E+00 -0.93012216549E+03  0.93012216549E+03  0.00000000000E+00 0.  1.
         25    1    1    2    0    0  0.36521502533E+03 -0.74061750761E+02 -0.12889683015E+03  0.41365027557E+03  0.12500000000E+03 0.  0.
          1    1    1    2  501    0 -0.36521502533E+03  0.74061750761E+02 -0.60615549201E+03  0.71154173324E+03  0.00000000000E+00 0.  1.
<mgrwt>
<rscale>  3 0.39305490E+03</rscale>
<asrwt>0</asrwt>
<pdfrwt beam="1">  1       21 0.30010745E-01 0.39305490E+03</pdfrwt>
<pdfrwt beam="2">  1        1 0.14309572E+00 0.39305490E+03</pdfrwt>
<totfact> 0.20199565E+03</totfact>
</mgrwt>
</event>
<event>
 4    0  0.1920229E-001  0.2403889E+03  0.7546771E-02  0.1119534E+00
         21   -1    0    0  501  502  0.00000000000E+00  0.00000000000E+00  0.76143921998E+02  0.76143921998E+02  0.00000000000E+00 0.  1.
         -3   -1    0    0    0  501 -0.00000000000E+00 -0.00000000000E+00 -0.11847254998E+04  0.11847254998E+04  0.00000000000E+00 0.  1.
         25    1    1    2    0    0 -0.12521096599E+03  0.16273916167E+03 -0.15637434843E+03  0.28677475062E+03  0.12500000000E+03 0.  0.
         -3    1    1    2    0  502  0.12521096599E+03 -0.16273916167E+03 -0.95220722942E+03  0.97409467122E+03  0.00000000000E+00 0.  1.
<mgrwt>
<rscale>  3 0.24038889E+03</rscale>
<asrwt>0</asrwt>
<pdfrwt beam="1">  1       21 0.11714450E-01 0.24038889E+03</pdfrwt>
<pdfrwt beam="2">  1       -3 0.18226545E+00 0.24038889E+03</pdfrwt>
<totfact> 0.62164817E+02</totfact>
</mgrwt>
</event>
<event>
 4    0  0.1201112E-001  0.2564949E+03  0.7546771E-02  0.1109268E+00
         21   -1    0    0  501  502  0.00000000000E+00  0.00000000000E+00  0.56714698448E+03  0.56714698448E+03  0.00000000000E+00 0. -1.
          2   -1    0    0  502    0 -0.00000000000E+00 -0.00000000000E+00 -0.10975704612E+03  0.10975704612E+03  0.00000000000E+00 0. -1.
         25    1    1    2    0    0  0.11398682314E+03 -0.19279951484E+03  0.33421098379E+03  0.42129162163E+03  0.12500000000E+03 0.  0.
          2    1    1    2  501    0 -0.11398682314E+03  0.19279951484E+03  0.12317895457E+03  0.25561240897E+03  0.00000000000E+00 0. -1.
<mgrwt>
<rscale>  3 0.25649493E+03</rscale>
<asrwt>0</asrwt>
<pdfrwt beam="1">  1       21 0.87253380E-01 0.25649493E+03</pdfrwt>
<pdfrwt beam="2">  1        2 0.16885700E-01 0.25649493E+03</pdfrwt>
<totfact> 0.45762180E+03</totfact>
</mgrwt>
</event>
<event>
 4    0  0.1145478E-001  0.3273730E+03  0.7546771E-02  0.1072305E+00
          2   -1    0    0  502    0 -0.00000000000E+00  0.00000000000E+00  0.39906212776E+03  0.39906212776E+03  0.00000000000E+00 0. -1.
         21   -1    0    0  501  502  0.00000000000E+00 -0.00000000000E+00 -0.40270696530E+03  0.40270696530E+03  0.00000000000E+00 0.  1.
         25    1    1    2    0    0 -0.19323684989E+03 -0.23282528495E+03 -0.24973911022E+03  0.41175565162E+03  0.12500000000E+03 0.  0.
          2    1    1    2  501    0  0.19323684989E+03  0.23282528495E+03  0.24609427268E+03  0.39001344145E+03  0.00000000000E+00 0. -1.
<mgrwt>
<rscale>  3 0.32737302E+03</rscale>
<asrwt>0</asrwt>
<pdfrwt beam="1">  1       21 0.61954917E-01 0.32737302E+03</pdfrwt>
<pdfrwt beam="2">  1        2 0.61394174E-01 0.32737302E+03</pdfrwt>
<totfact> 0.23092189E+03</totfact>
</mgrwt>
</event>
<event>
 4    0  0.1002184E-001  0.3905035E+03  0.7546771E-02  0.1047118E+00
          1   -1    0    0  502    0 -0.00000000000E+00  0.00000000000E+00  0.95098811083E+03  0.95098811083E+03  0.00000000000E+00 0.  1.
         21   -1    0    0  501  502  0.00000000000E+00 -0.00000000000E+00 -0.20162272200E+03  0.20162272200E+03  0.00000000000E+00 0. -1.
         25    1    1    2    0    0 -0.21802702034E+03 -0.29888499197E+03  0.96563713797E+02  0.40226554767E+03  0.12500000000E+03 0.  0.
          1    1    1    2  501    0  0.21802702034E+03  0.29888499197E+03  0.65280167504E+03  0.75034528515E+03  0.00000000000E+00 0.  1.
<mgrwt>
<rscale>  3 0.39050355E+03</rscale>
<asrwt>0</asrwt>
<pdfrwt beam="1">  1       21 0.31018881E-01 0.39050355E+03</pdfrwt>
<pdfrwt beam="2">  1        1 0.14630586E+00 0.39050355E+03</pdfrwt>
<totfact> 0.18231739E+03</totfact>
</mgrwt>
</event>
<event>
 4    0  0.1473043E-001  0.4433450E+03  0.7546771E-02  0.1029725E+00
         21   -1    0    0  501  502  0.00000000000E+00  0.00000000000E+00  0.20139560841E+03  0.20139560841E+03  0.00000000000E+00 0. -1.
          2   -1    0    0  502    0 -0.00000000000E+00 -0.00000000000E+00 -0.93953054270E+03  0.93953054270E+03  0.00000000000E+00 0. -1.
         25    1    1    2    0    0 -0.42530087702E+03 -0.69958705582E+01 -0.34577204330E+03  0.56223934772E+03  0.12500000000E+03 0.  0.
          2    1    1    2  501    0  0.42530087702E+03  0.69958705582E+01 -0.39236289099E+03  0.57868680339E+03  0.00000000000E+00 0. -1.
<mgrwt>
<rscale>  3 0.44334499E+03</rscale>
<asrwt>0</asrwt>
<pdfrwt beam="1">  1       21 0.30983940E-01 0.44334499E+03</pdfrwt>
<pdfrwt beam="2">  1        2 0.14454316E+00 0.44334499E+03</pdfrwt>
<totfact> 0.33893598E+03</totfact>
</mgrwt>
</event>
<event>
 4    0  0.1467689E-001  0.2561376E+03  0.7546771E-02  0.1109486E+00
         21   -1    0    0  501  502  0.00000000000E+00  0.00000000000E+00  0.15989866354E+03  0.15989866354E+03  0.00000000000E+00 0.  1.
          2   -1    0    0  502    0 -0.00000000000E+00 -0.00000000000E+00 -0.36863969947E+03  0.36863969947E+03  0.00000000000E+00 0.  1.
         25    1    1    2    0    0  0.12141801697E+03 -0.18772085173E+03 -0.70415804314E+02  0.26564043088E+03  0.12500000000E+03 0.  0.
          2    1    1    2  501    0 -0.12141801697E+03  0.18772085173E+03 -0.13832523161E+03  0.26289793213E+03  0.00000000000E+00 0.  1.
<mgrwt>
<rscale>  3 0.25613757E+03</rscale>
<asrwt>0</asrwt>
<pdfrwt beam="1">  1       21 0.24599795E-01 0.25613757E+03</pdfrwt>
<pdfrwt beam="2">  1        2 0.56713799E-01 0.25613757E+03</pdfrwt>
<totfact> 0.16812335E+04</totfact>
</mgrwt>
</event>
<event>
 4    0  0.1865068E-001  0.3711212E+03  0.7546771E-02  0.1054265E+00
         -2   -1    0    0    0  501 -0.00000000000E+00  0.00000000000E+00  0.12599302311E+04  0.12599302311E+04  0.00000000000E+00 0.  1.
         21   -1    0    0  501  502  0.00000000000E+00 -0.00000000000E+00 -0.14614755658E+03  0.14614755658E+03  0.00000000000E+00 0.  1.
         25    1    1    2    0    0  0.31839017759E+03  0.14399185559E+03  0.18692732939E+03  0.41553915115E+03  0.12500000000E+03 0.  0.
         -2    1    1    2    0  502 -0.31839017759E+03 -0.14399185559E+03  0.92685534509E+03  0.99053863649E+03  0.00000000000E+00 0.  1.
<mgrwt>
<rscale>  3 0.37112122E+03</rscale>
<asrwt>0</asrwt>
<pdfrwt beam="1">  1       21 0.22484240E-01 0.37112122E+03</pdfrwt>
<pdfrwt beam="2">  1       -2 0.19383541E+00 0.37112122E+03</pdfrwt>
<totfact> 0.22890783E+02</totfact>
</mgrwt>
</event>
<event>
 4    0  0.1002184E-001  0.3077516E+03  0.7546771E-02  0.1081429E+00
         21   -1    0    0  501  502  0.00000000000E+00  0.00000000000E+00  0.11574806517E+04  0.11574806517E+04  0.00000000000E+00 0.  1.
          1   -1    0    0  502    0 -0.00000000000E+00 -0.00000000000E+00 -0.88526054302E+02  0.88526054302E+02  0.00000000000E+00 0.  1.
         25    1    1    2    0    0  0.27832381246E+03  0.40273136662E+02  0.79885284649E+03  0.85608232108E+03  0.12500000000E+03 0.  0.
          1    1    1    2  501    0 -0.27832381246E+03 -0.40273136662E+02  0.27010175094E+03  0.38992438496E+03  0.00000000000E+00 0.  1.
<mgrwt>
<rscale>  3 0.30775164E+03</rscale>
<asrwt>0</asrwt>
<pdfrwt beam="1">  1       21 0.17807393E+00 0.30775164E+03</pdfrwt>
<pdfrwt beam="2">  1        1 0.13619394E-01 0.30775164E+03</pdfrwt>
<totfact> 0.80272017E+02</totfact>
</mgrwt>
</event>
<event>
 4    0  0.1002184E-001  0.2419978E+03  0.7546771E-02  0.1118469E+00
         21   -1    0    0  501  502  0.00000000000E+00  0.00000000000E+00  0.15298332669E+02  0.15298332669E+02  0.00000000000E+00 0.  1.
          2   -1    0    0  502    0 -0.00000000000E+00 -0.00000000000E+00 -0.37054151685E+04  0.37054151685E+04  0.00000000000E+00 0. -1.
         25    1    1    2    0    0  0.10376854879E+03  0.17936010039E+03 -0.13566829125E+04  0.13780970511E+04  0.12500000000E+03 0.  0.
          2    1    1    2  501    0 -0.10376854879E+03 -0.17936010039E+03 -0.23334339234E+04  0.23426164501E+04  0.00000000000E+00 0. -1.
<mgrwt>
<rscale>  3 0.24199785E+03</rscale>
<asrwt>0</asrwt>
<pdfrwt beam="1">  1       21 0.23535902E-02 0.24199785E+03</pdfrwt>
<pdfrwt beam="2">  1        2 0.57006375E+00 0.24199785E+03</pdfrwt>
<totfact> 0.90046734E+03</totfact>
</mgrwt>
</event>
<event>
 4    0  0.1140432E-001  0.6046790E+03  0.7546771E-02  0.9895746E-01
          2   -1    0    0  502    0 -0.00000000000E+00  0.00000000000E+00  0.13864687015E+04  0.13864687015E+04  0.00000000000E+00 0.  1.
         21   -1    0    0  501  502  0.00000000000E+00 -0.00000000000E+00 -0.42041144807E+03  0.42041144807E+03  0.00000000000E+00 0.  1.
         25    1    1    2    0    0 -0.21556602120E+03  0.55094740258E+03 -0.75149857671E+02  0.60933098643E+03  0.12500000000E+03 0.  0.
          2    1    1    2  501    0  0.21556602120E+03 -0.55094740258E+03  0.10412071111E+04  0.11975491631E+04  0.00000000000E+00 0.  1.
<mgrwt>
<rscale>  3 0.60467905E+03</rscale>
<asrwt>0</asrwt>
<pdfrwt beam="1">  1       21 0.64678685E-01 0.60467905E+03</pdfrwt>
<pdfrwt beam="2">  1        2 0.21330288E+00 0.60467905E+03</pdfrwt>
<totfact> 0.37709471E+02</totfact>
</mgrwt>
</event>
<event>
 4    0  0.1458108E-001  0.2505999E+03  0.7546771E-02  0.1112926E+00
          1   -1    0    0  502    0 -0.00000000000E+00  0.00000000000E+00  0.61968567925E+03  0.61968567925E+03  0.00000000000E+00 0. -1.
         21   -1    0    0  501  502  0.00000000000E+00 -0.00000000000E+00 -0.15134564637E+03  0.15134564637E+03  0.00000000000E+00 0. -1.
         25    1    1    2    0    0  0.11682164737E+03  0.18310661748E+03 -0.45557254137E+01  0.25064134793E+03  0.12500000000E+03 0.  0.
          1    1    1    2  501    0 -0.11682164737E+03 -0.18310661748E+03  0.47289575829E+03  0.52038997768E+03  0.00000000000E+00 0. -1.
<mgrwt>
<rscale>  3 0.25059994E+03</rscale>
<asrwt>0</asrwt>
<pdfrwt beam="1">  1       21 0.23283946E-01 0.25059994E+03</pdfrwt>
<pdfrwt beam="2">  1        1 0.95336257E-01 0.25059994E+03</pdfrwt>
<totfact> 0.63691510E+03</totfact>
</mgrwt>
</event>
<event>
 4    0  0.1164781E-001  0.2937298E+03  0.7546771E-02  0.1088418E+00
          2   -1    0    0  502    0 -0.00000000000E+00  0.00000000000E+00  0.72115066967E+03  0.72115066967E+03  0.00000000000E+00 0.  1.
         21   -1    0    0  501  502  0.00000000000E+00 -0.00000000000E+00 -0.17013242939E+03  0.17013242939E+03  0.00000000000E+00 0. -1.
         25    1    1    2    0    0  0.24014161224E+03 -0.11394813035E+03  0.16345518647E+02  0.29418420474E+03  0.12500000000E+03 0.  0.
          2    1    1    2  501    0 -0.24014161224E+03  0.11394813035E+03  0.53467272163E+03  0.59709889432E+03  0.00000000000E+00 0.  1.
<mgrwt>
<rscale>  3 0.29372976E+03</rscale>
<asrwt>0</asrwt>
<pdfrwt beam="1">  1       21 0.26174220E-01 0.29372976E+03</pdfrwt>
<pdfrwt beam="2">  1        2 0.11094626E+00 0.29372976E+03</pdfrwt>
<totfact> 0.68886836E+03</totfact>
</mgrwt>
</event>
<event>
 4    0  0.1182001E-001  0.2522175E+03  0.7546771E-02  0.1111911E+00
          2   -1    0    0  502    0 -0.00000000000E+00  0.00000000000E+00  0.45586529852E+04  0.45586529852E+04  0.00000000000E+00 0. -1.
         21   -1    0    0  501  502  0.00000000000E+00 -0.00000000000E+00 -0.22426966220E+02  0.22426966220E+02  0.00000000000E+00 0. -1.
         25    1    1    2    0    0 -0.14430416078E+03  0.16481808234E+03  0.80860533598E+03  0.84702791009E+03  0.12500000000E+03 0.  0.
          2    1    1    2  501    0  0.14430416078E+03 -0.16481808234E+03  0.37276206830E+04  0.37340520413E+04  0.00000000000E+00 0. -1.
<mgrwt>
<rscale>  3 0.25221755E+03</rscale>
<asrwt>0</asrwt>
<pdfrwt beam="1">  1       21 0.34503061E-02 0.25221755E+03</pdfrwt>
<pdfrwt beam="2">  1        2 0.70133049E+00 0.25221755E+03</pdfrwt>
<totfact> 0.96997006E+02</totfact>
</mgrwt>
</event>
<event>
 4    0  0.1623214E-001  0.2579042E+03  0.7546771E-02  0.1108409E+00
         21   -1    0    0  501  502  0.00000000000E+00  0.00000000000E+00  0.35964295759E+02  0.35964295759E+02  0.00000000000E+00 0. -1.
          2   -1    0    0  502    0 -0.00000000000E+00 -0.00000000000E+00 -0.17523743143E+04  0.17523743143E+04  0.00000000000E+00 0. -1.
         25    1    1    2    0    0  0.30400800608E+01 -0.22556673928E+03 -0.67079962210E+03  0.71867011136E+03  0.12500000000E+03 0.  0.
          2    1    1    2  501    0 -0.30400800608E+01  0.22556673928E+03 -0.10456103964E+04  0.10696684987E+04  0.00000000000E+00 0. -1.
<mgrwt>
<rscale>  3 0.25790424E+03</rscale>
<asrwt>0</asrwt>
<pdfrwt beam="1">  1       21 0.55329682E-02 0.25790424E+03</pdfrwt>
<pdfrwt beam="2">  1        2 0.26959606E+00 0.25790424E+03</pdfrwt>
<totfact> 0.28847690E+04</totfact>
</mgrwt>
</event>
<event>
 4    0  0.1427856E-001  0.2367817E+03  0.7546771E-02  0.1121956E+00
         21   -1    0    0  501  502  0.00000000000E+00  0.00000000000E+00  0.11209396213E+03  0.11209396213E+03  0.00000000000E+00 0. -1.
          2   -1    0    0  502    0 -0.00000000000E+00 -0.00000000000E+00 -0.14039893269E+04  0.14039893269E+04  0.00000000000E+00 0.  1.
         25    1    1    2    0    0 -0.54774373196E+02  0.19349500863E+03 -0.30476170169E+02  0.23873488910E+03  0.12500000000E+03 0.  0.
          2    1    1    2  501    0  0.54774373196E+02 -0.19349500863E+03 -0.12614191946E+04  0.12773483999E+04  0.00000000000E+00 0.  1.
<mgrwt>
<rscale>  3 0.23678165E+03</rscale>
<asrwt>0</asrwt>
<pdfrwt beam="1">  1       21 0.17245225E-01 0.23678165E+03</pdfrwt>
<pdfrwt beam="2">  1        2 0.21599835E+00 0.23678165E+03</pdfrwt>
<totfact> 0.58952250E+03</totfact>
</mgrwt>
</event>
<event>
 4    0  0.1579315E-001  0.2579984E+03  0.7546771E-02  0.1108352E+00
         21   -1    0    0  501  502  0.00000000000E+00  0.00000000000E+00  0.44610025518E+02  0.44610025518E+02  0.00000000000E+00 0.  1.
          2   -1    0    0  502    0 -0.00000000000E+00 -0.00000000000E+00 -0.17453332680E+04  0.17453332680E+04  0.00000000000E+00 0.  1.
         25    1    1    2    0    0 -0.66493690707E+02 -0.21567749366E+03 -0.44738410858E+03  0.51644528537E+03  0.12500000000E+03 0.  0.
          2    1    1    2  501    0  0.66493690707E+02  0.21567749366E+03 -0.12533391339E+04  0.12734980081E+04  0.00000000000E+00 0.  1.
<mgrwt>
<rscale>  3 0.25799843E+03</rscale>
<asrwt>0</asrwt>
<pdfrwt beam="1">  1       21 0.68630810E-02 0.25799843E+03</pdfrwt>
<pdfrwt beam="2">  1        2 0.26851280E+00 0.25799843E+03</pdfrwt>
<totfact> 0.20060968E+04</totfact>
</mgrwt>
</event>
<event>
 4    0  0.1418117E-001  0.2712628E+03  0.7546771E-02  0.1100559E+00
          1   -1    0    0  502    0 -0.00000000000E+00  0.00000000000E+00  0.41872503968E+03  0.41872503968E+03  0.00000000000E+00 0. -1.
         21   -1    0    0  501  502  0.00000000000E+00 -0.00000000000E+00 -0.21679277824E+03  0.21679277824E+03  0.00000000000E+00 0. -1.
         25    1    1    2    0    0  0.21507045663E+03 -0.10818128138E+03 -0.62023108353E+02  0.27826310738E+03  0.12500000000E+03 0.  0.
          1    1    1    2  501    0 -0.21507045663E+03  0.10818128138E+03  0.26395536980E+03  0.35725471054E+03  0.00000000000E+00 0. -1.
<mgrwt>
<rscale>  3 0.27126277E+03</rscale>
<asrwt>0</asrwt>
<pdfrwt beam="1">  1       21 0.33352735E-01 0.27126277E+03</pdfrwt>
<pdfrwt beam="2">  1        1 0.64419237E-01 0.27126277E+03</pdfrwt>
<totfact> 0.53284840E+03</totfact>
</mgrwt>
</event>
<event>
 4    0  0.1924686E-001  0.2829213E+03  0.7546771E-02  0.1094104E+00
         -2   -1    0    0    0  501 -0.00000000000E+00  0.00000000000E+00  0.67899222592E+03  0.67899222592E+03  0.00000000000E+00 0.  1.
         21   -1    0    0  501  502  0.00000000000E+00 -0.00000000000E+00 -0.10771579219E+03  0.10771579219E+03  0.00000000000E+00 0.  1.
         25    1    1    2    0    0  0.83723811895E+02  0.23960343384E+03  0.34945813337E+03  0.44962814544E+03  0.12500000000E+03 0.  0.
         -2    1    1    2    0  502 -0.83723811895E+02 -0.23960343384E+03  0.22181830036E+03  0.33707987267E+03  0.00000000000E+00 0.  1.
<mgrwt>
<rscale>  3 0.28292134E+03</rscale>
<asrwt>0</asrwt>
<pdfrwt beam="1">  1       21 0.16571661E-01 0.28292134E+03</pdfrwt>
<pdfrwt beam="2">  1       -2 0.10446034E+00 0.28292134E+03</pdfrwt>
<totfact> 0.20441801E+03</totfact>
</mgrwt>
</event>
<event>
 4    0  0.1002184E-001  0.3225675E+03  0.7546771E-02  0.1074474E+00
         21   -1    0    0  501  502  0.00000000000E+00  0.00000000000E+00  0.16913972025E+04  0.16913972025E+04  0.00000000000E+00 0. -1.
          1   -1    0    0  502    0 -0.00000000000E+00 -0.00000000000E+00 -0.93351522160E+02  0.93351522160E+02  0.00000000000E+00 0.  1.
         25    1    1    2    0    0  0.12893529020E+03 -0.26795608930E+03  0.13768693354E+04  0.14141495471E+04  0.12500000000E+03 0.  0.
          1    1    1    2  501    0 -0.12893529020E+03  0.26795608930E+03  0.22117634500E+03  0.37059917760E+03  0.00000000000E+00 0.  1.
<mgrwt>
<rscale>  3 0.32256747E+03</rscale>
<asrwt>0</asrwt>
<pdfrwt beam="1">  1       21 0.26021493E+00 0.32256747E+03</pdfrwt>
<pdfrwt beam="2">  1        1 0.14361774E-01 0.32256747E+03</pdfrwt>
<totfact> 0.22294151E+02</totfact>
</mgrwt>
</event>
<event>
 4    0  0.1539320E-001  0.3614519E+03  0.7546771E-02  0.1058010E+00
          2   -1    0    0  502    0 -0.00000000000E+00  0.00000000000E+00  0.76074641425E+03  0.76074641425E+03  0.00000000000E+00 0.  1.
         21   -1    0    0  501  502  0.00000000000E+00 -0.00000000000E+00 -0.17124889595E+03  0.17124889595E+03  0.00000000000E+00 0.  1.
         25    1    1    2    0    0 -0.32389541317E+03 -0.10056938851E+03  0.41583670542E+03  0.55096969622E+03  0.12500000000E+03 0.  0.
          2    1    1    2  501    0  0.32389541317E+03  0.10056938851E+03  0.17366081287E+03  0.38102561398E+03  0.00000000000E+00 0.  1.
<mgrwt>
<rscale>  3 0.36145185E+03</rscale>
<asrwt>0</asrwt>
<pdfrwt beam="1">  1       21 0.26345984E-01 0.36145185E+03</pdfrwt>
<pdfrwt beam="2">  1        2 0.11703791E+00 0.36145185E+03</pdfrwt>
<totfact> 0.62740666E+03</totfact>
</mgrwt>
</event>
<event>
 4    0  0.1428266E-001  0.2631613E+03  0.7546771E-02  0.1105259E+00
          4   -1    0    0  502    0 -0.00000000000E+00  0.00000000000E+00  0.71766162709E+03  0.71766162709E+03  0.00000000000E+00 0.  1.
         21   -1    0    0  501  502  0.00000000000E+00 -0.00000000000E+00 -0.22510645404E+03  0.22510645404E+03  0.00000000000E+00 0. -1.
         25    1    1    2    0    0 -0.64186061576E+02 -0.22250627841E+03 -0.11901374487E+03  0.28882203153E+03  0.12500000000E+03 0.  0.
          4    1    1    2  501    0  0.64186061576E+02  0.22250627841E+03  0.61156891791E+03  0.65394604960E+03  0.00000000000E+00 0.  1.
<mgrwt>
<rscale>  3 0.26316135E+03</rscale>
<asrwt>0</asrwt>
<pdfrwt beam="1">  1       21 0.34631763E-01 0.26316135E+03</pdfrwt>
<pdfrwt beam="2">  1        4 0.11040948E+00 0.26316135E+03</pdfrwt>
<totfact> 0.22654522E+02</totfact>
</mgrwt>
</event>
<event>
 4    0  0.1002184E-001  0.5085354E+03  0.7546771E-02  0.1011575E+00
          2   -1    0    0  502    0 -0.00000000000E+00  0.00000000000E+00  0.28676939593E+04  0.28676939593E+04  0.00000000000E+00 0. -1.
         21   -1    0    0  501  502  0.00000000000E+00 -0.00000000000E+00 -0.47468696414E+03  0.47468696414E+03  0.00000000000E+00 0. -1.
         25    1    1    2    0    0  0.46182010218E+03  0.17235281670E+03 -0.30948187749E+03  0.59530440339E+03  0.12500000000E+03 0.  0.
          2    1    1    2  501    0 -0.46182010218E+03 -0.17235281670E+03  0.27024888726E+04  0.27470765200E+04  0.00000000000E+00 0. -1.
<mgrwt>
<rscale>  3 0.50853545E+03</rscale>
<asrwt>0</asrwt>
<pdfrwt beam="1">  1       21 0.73028765E-01 0.50853545E+03</pdfrwt>
<pdfrwt beam="2">  1        2 0.44118368E+00 0.50853545E+03</pdfrwt>
<totfact> 0.44690004E+01</totfact>
</mgrwt>
</event>
<event>
 4    0  0.1161362E-001  0.3719602E+03  0.7546771E-02  0.1053946E+00
         21   -1    0    0  501  502  0.00000000000E+00  0.00000000000E+00  0.70572641744E+03  0.70572641744E+03  0.00000000000E+00 0.  1.
          2   -1    0    0  502    0 -0.00000000000E+00 -0.00000000000E+00 -0.23866892663E+03  0.23866892663E+03  0.00000000000E+00 0.  1.
         25    1    1    2    0    0 -0.71689514968E+02  0.34291396370E+03  0.46318109159E+03  0.59404637585E+03  0.12500000000E+03 0.  0.
          2    1    1    2  501    0  0.71689514968E+02 -0.34291396370E+03  0.38763992224E+01  0.35034896821E+03  0.00000000000E+00 0.  1.
<mgrwt>
<rscale>  3 0.37196018E+03</rscale>
<asrwt>0</asrwt>
<pdfrwt beam="1">  1       21 0.10857329E+00 0.37196018E+03</pdfrwt>
<pdfrwt beam="2">  1        2 0.36718297E-01 0.37196018E+03</pdfrwt>
<totfact> 0.10932652E+03</totfact>
</mgrwt>
</event>
<event>
 4    0  0.1631799E-001  0.2460700E+03  0.7546771E-02  0.1115814E+00
         21   -1    0    0  501  502  0.00000000000E+00  0.00000000000E+00  0.33742480993E+02  0.33742480993E+02  0.00000000000E+00 0. -1.
          1   -1    0    0  502    0 -0.00000000000E+00 -0.00000000000E+00 -0.16299173703E+04  0.16299173703E+04  0.00000000000E+00 0. -1.
         25    1    1    2    0    0  0.16514083207E+03 -0.13286824346E+03 -0.67611622813E+03  0.71950234084E+03  0.12500000000E+03 0.  0.
          1    1    1    2  501    0 -0.16514083207E+03  0.13286824346E+03 -0.92005866117E+03  0.94415751044E+03  0.00000000000E+00 0. -1.
<mgrwt>
<rscale>  3 0.24607004E+03</rscale>
<asrwt>0</asrwt>
<pdfrwt beam="1">  1       21 0.51911519E-02 0.24607004E+03</pdfrwt>
<pdfrwt beam="2">  1        1 0.25075647E+00 0.24607004E+03</pdfrwt>
<totfact> 0.16631378E+04</totfact>
</mgrwt>
</event>
<event>
 4    0  0.1002184E-001  0.2843697E+03  0.7546771E-02  0.1093326E+00
         21   -1    0    0  501  502  0.00000000000E+00  0.00000000000E+00  0.65684847597E+03  0.65684847597E+03  0.00000000000E+00 0. -1.
         -4   -1    0    0    0  501 -0.00000000000E+00 -0.00000000000E+00 -0.13081262737E+03  0.13081262737E+03  0.00000000000E+00 0.  1.
         25    1    1    2    0    0  0.17434103013E+03 -0.18667178867E+03  0.42844535935E+03  0.51422910985E+03  0.12500000000E+03 0.  0.
         -4    1    1    2    0  502 -0.17434103013E+03  0.18667178867E+03  0.97590489251E+02  0.27343199349E+03  0.00000000000E+00 0.  1.
<mgrwt>
<rscale>  3 0.28436974E+03</rscale>
<asrwt>0</asrwt>
<pdfrwt beam="1">  1       21 0.10105361E+00 0.28436974E+03</pdfrwt>
<pdfrwt beam="2">  1       -4 0.20125020E-01 0.28436974E+03</pdfrwt>
<totfact> 0.74483418E+02</totfact>
</mgrwt>
</event>
<event>
 4    0  0.1017678E-001  0.4212850E+03  0.7546771E-02  0.1036649E+00
          2   -1    0    0  502    0 -0.00000000000E+00  0.00000000000E+00  0.26048554775E+04  0.26048554775E+04  0.00000000000E+00 0. -1.
         21   -1    0    0  501  502  0.00000000000E+00 -0.00000000000E+00 -0.56450001879E+03  0.56450001879E+03  0.00000000000E+00 0. -1.
         25    1    1    2    0    0  0.28626714500E+03  0.28267856354E+03 -0.46756950823E+03  0.62936658127E+03  0.12500000000E+03 0.  0.
          2    1    1    2  501    0 -0.28626714500E+03 -0.28267856354E+03  0.25079249669E+04  0.25399889150E+04  0.00000000000E+00 0. -1.
<mgrwt>
<rscale>  3 0.42128500E+03</rscale>
<asrwt>0</asrwt>
<pdfrwt beam="1">  1       21 0.86846159E-01 0.42128500E+03</pdfrwt>
<pdfrwt beam="2">  1        2 0.40074699E+00 0.42128500E+03</pdfrwt>
<totfact> 0.44180487E+01</totfact>
</mgrwt>
</event>
<event>
 4    0  0.1002184E-001  0.4019812E+03  0.7546771E-02  0.1043096E+00
          2   -1    0    0  502    0 -0.00000000000E+00  0.00000000000E+00  0.44432961238E+04  0.44432961238E+04  0.00000000000E+00 0.  1.
         21   -1    0    0  501  502  0.00000000000E+00 -0.00000000000E+00 -0.40813108720E+02  0.40813108720E+02  0.00000000000E+00 0.  1.
         25    1    1    2    0    0 -0.36309177373E+03  0.11886221669E+03  0.31241670129E+04  0.31499219653E+04  0.12500000000E+03 0.  0.
          2    1    1    2  501    0  0.36309177373E+03 -0.11886221669E+03  0.12783160022E+04  0.13341872673E+04  0.00000000000E+00 0.  1.
<mgrwt>
<rscale>  3 0.40198117E+03</rscale>
<asrwt>0</asrwt>
<pdfrwt beam="1">  1       21 0.62789433E-02 0.40198117E+03</pdfrwt>
<pdfrwt beam="2">  1        2 0.68358364E+00 0.40198117E+03</pdfrwt>
<totfact> 0.41015923E+02</totfact>
</mgrwt>
</event>
<event>
 4    0  0.1385501E-001  0.2423488E+03  0.7546771E-02  0.1118238E+00
         21   -1    0    0  501  502  0.00000000000E+00  0.00000000000E+00  0.24293552330E+03  0.24293552330E+03  0.00000000000E+00 0.  1.
          3   -1    0    0  502    0 -0.00000000000E+00 -0.00000000000E+00 -0.27393659667E+03  0.27393659667E+03  0.00000000000E+00 0.  1.
         25    1    1    2    0    0  0.33473589291E+02 -0.20490845456E+03 -0.14256509964E+03  0.28117212445E+03  0.12500000000E+03 0.  0.
          3    1    1    2  501    0 -0.33473589291E+02  0.20490845456E+03  0.11156402628E+03  0.23569999552E+03  0.00000000000E+00 0.  1.
<mgrwt>
<rscale>  3 0.24234883E+03</rscale>
<asrwt>0</asrwt>
<pdfrwt beam="1">  1       21 0.37374696E-01 0.24234883E+03</pdfrwt>
<pdfrwt beam="2">  1        3 0.42144092E-01 0.24234883E+03</pdfrwt>
<totfact> 0.19073836E+03</totfact>
</mgrwt>
</event>
<event>
 4    0  0.1442455E-001  0.3905790E+03  0.7546771E-02  0.1047092E+00
         21   -1    0    0  501  502  0.00000000000E+00  0.00000000000E+00  0.41697499493E+03  0.41697499493E+03  0.00000000000E+00 0.  1.
          2   -1    0    0  502    0 -0.00000000000E+00 -0.00000000000E+00 -0.16376580366E+04  0.16376580366E+04  0.00000000000E+00 0.  1.
         25    1    1    2    0    0 -0.17973128774E+03  0.32345579870E+03  0.29815152649E+03  0.49137187776E+03  0.12500000000E+03 0.  0.
          2    1    1    2  501    0  0.17973128774E+03 -0.32345579870E+03 -0.15188345681E+04  0.15632611537E+04  0.00000000000E+00 0.  1.
<mgrwt>
<rscale>  3 0.39057904E+03</rscale>
<asrwt>0</asrwt>
<pdfrwt beam="1">  1       21 0.64150000E-01 0.39057904E+03</pdfrwt>
<pdfrwt beam="2">  1        2 0.25194739E+00 0.39057904E+03</pdfrwt>
<totfact> 0.29813790E+02</totfact>
</mgrwt>
</event>
<event>
 4    0  0.1098643E-001  0.2989035E+03  0.7546771E-02  0.1085790E+00
         21   -1    0    0  501  502  0.00000000000E+00  0.00000000000E+00  0.17710132071E+03  0.17710132071E+03  0.00000000000E+00 0.  1.
         -4   -1    0    0    0  501 -0.00000000000E+00 -0.00000000000E+00 -0.72542473636E+03  0.72542473636E+03  0.00000000000E+00 0. -1.
         25    1    1    2    0    0 -0.16776522491E+03  0.21347858728E+03 -0.93758249910E+01  0.29905047067E+03  0.12500000000E+03 0.  0.
         -4    1    1    2    0  502  0.16776522491E+03 -0.21347858728E+03 -0.53894759065E+03  0.60347558640E+03  0.00000000000E+00 0. -1.
<mgrwt>
<rscale>  3 0.29890346E+03</rscale>
<asrwt>0</asrwt>
<pdfrwt beam="1">  1       21 0.27246357E-01 0.29890346E+03</pdfrwt>
<pdfrwt beam="2">  1       -4 0.11160381E+00 0.29890346E+03</pdfrwt>
<totfact> 0.35293157E+02</totfact>
</mgrwt>
</event>
<event>
 4    0  0.1002184E-001  0.3424246E+03  0.7546771E-02  0.1065768E+00
         -2   -1    0    0    0  501 -0.00000000000E+00  0.00000000000E+00  0.94134807376E+02  0.94134807376E+02  0.00000000000E+00 0.  1.
         21   -1    0    0  501  502  0.00000000000E+00 -0.00000000000E+00 -0.17999476315E+04  0.17999476315E+04  0.00000000000E+00 0. -1.
         25    1    1    2    0    0  0.31636100377E+03  0.39310987725E+02 -0.14365306157E+04  0.14767785374E+04  0.12500000000E+03 0.  0.
         -2    1    1    2    0  502 -0.31636100377E+03 -0.39310987725E+02 -0.26928220837E+03  0.41730390150E+03  0.00000000000E+00 0.  1.
<mgrwt>
<rscale>  3 0.34242465E+03</rscale>
<asrwt>0</asrwt>
<pdfrwt beam="1">  1       21 0.27691500E+00 0.34242465E+03</pdfrwt>
<pdfrwt beam="2">  1       -2 0.14482279E-01 0.34242465E+03</pdfrwt>
<totfact> 0.11925348E+02</totfact>
</mgrwt>
</event>
<event>
 4    0  0.1391143E-001  0.2942392E+03  0.7546771E-02  0.1088156E+00
          1   -1    0    0  502    0 -0.00000000000E+00  0.00000000000E+00  0.18821243985E+04  0.18821243985E+04  0.00000000000E+00 0. -1.
         21   -1    0    0  501  502  0.00000000000E+00 -0.00000000000E+00 -0.61041591539E+03  0.61041591539E+03  0.00000000000E+00 0. -1.
         25    1    1    2    0    0  0.11750389775E+03  0.23904922656E+03 -0.56478245348E+03  0.63683272408E+03  0.12500000000E+03 0.  0.
          1    1    1    2  501    0 -0.11750389775E+03 -0.23904922656E+03  0.18364909366E+04  0.18557075898E+04  0.00000000000E+00 0. -1.
<mgrwt>
<rscale>  3 0.29423919E+03</rscale>
<asrwt>0</asrwt>
<pdfrwt beam="1">  1       21 0.93910142E-01 0.29423919E+03</pdfrwt>
<pdfrwt beam="2">  1        1 0.28955760E+00 0.29423919E+03</pdfrwt>
<totfact> 0.40103691E+01</totfact>
</mgrwt>
</event>
<event>
 4    0  0.1888920E-001  0.3209665E+03  0.7546771E-02  0.1075205E+00
         21   -1    0    0  501  502  0.00000000000E+00  0.00000000000E+00  0.31714239336E+03  0.31714239336E+03  0.00000000000E+00 0. -1.
          1   -1    0    0  502    0 -0.00000000000E+00 -0.00000000000E+00 -0.99994480567E+03  0.99994480567E+03  0.00000000000E+00 0. -1.
         25    1    1    2    0    0 -0.26935709238E+03  0.12182479374E+03  0.20534401183E+03  0.38103239598E+03  0.12500000000E+03 0.  0.
          1    1    1    2  501    0  0.26935709238E+03 -0.12182479374E+03 -0.88814642414E+03  0.93605480305E+03  0.00000000000E+00 0. -1.
<mgrwt>
<rscale>  3 0.32096655E+03</rscale>
<asrwt>0</asrwt>
<pdfrwt beam="1">  1       21 0.48791138E-01 0.32096655E+03</pdfrwt>
<pdfrwt beam="2">  1        1 0.15383766E+00 0.32096655E+03</pdfrwt>
<totfact> 0.67714364E+02</totfact>
</mgrwt>
</event>
<event>
 4    0  0.1002184E-001  0.3507735E+03  0.7546771E-02  0.1062298E+00
         21   -1    0    0  501  502  0.00000000000E+00  0.00000000000E+00  0.10486579366E+04  0.10486579366E+04  0.00000000000E+00 0. -1.
         -2   -1    0    0    0  501 -0.00000000000E+00 -0.00000000000E+00 -0.15423462526E+03  0.15423462526E+03  0.00000000000E+00 0.  1.
         25    1    1    2    0    0 -0.20480485587E+03  0.25587500814E+03  0.78086287618E+03  0.85603088740E+03  0.12500000000E+03 0.  0.
         -2    1    1    2    0  502  0.20480485587E+03 -0.25587500814E+03  0.11356043517E+03  0.34686167447E+03  0.00000000000E+00 0.  1.
<mgrwt>
<rscale>  3 0.35077350E+03</rscale>
<asrwt>0</asrwt>
<pdfrwt beam="1">  1       21 0.16133199E+00 0.35077350E+03</pdfrwt>
<pdfrwt beam="2">  1       -2 0.23728404E-01 0.35077350E+03</pdfrwt>
<totfact> 0.28440935E+02</totfact>
</mgrwt>
</event>
<event>
 4    0  0.1584746E-001  0.2837961E+03  0.7546771E-02  0.1093633E+00
          2   -1    0    0  502    0 -0.00000000000E+00  0.00000000000E+00  0.15647554937E+04  0.15647554937E+04  0.00000000000E+00 0. -1.
         21   -1    0    0  501  502  0.00000000000E+00 -0.00000000000E+00 -0.84420604060E+02  0.84420604060E+02  0.00000000000E+00 0. -1.
         25    1    1    2    0    0  0.23679717718E+03  0.94033701660E+02  0.20871157346E+03  0.35227937928E+03  0.12500000000E+03 0.  0.
          2    1    1    2  501    0 -0.23679717718E+03 -0.94033701660E+02  0.12716233162E+04  0.12968967185E+04  0.00000000000E+00 0. -1.
<mgrwt>
<rscale>  3 0.28379612E+03</rscale>
<asrwt>0</asrwt>
<pdfrwt beam="1">  1       21 0.12987786E-01 0.28379612E+03</pdfrwt>
<pdfrwt beam="2">  1        2 0.24073159E+00 0.28379612E+03</pdfrwt>
<totfact> 0.80058440E+03</totfact>
</mgrwt>
</event>
<event>
 4    0  0.1541958E-001  0.3570920E+03  0.7546771E-02  0.1059741E+00
         -1   -1    0    0    0  501 -0.00000000000E+00  0.00000000000E+00  0.34459271629E+03  0.34459271629E+03  0.00000000000E+00 0.  1.
         21   -1    0    0  501  502  0.00000000000E+00 -0.00000000000E+00 -0.38046194960E+03  0.38046194960E+03  0.00000000000E+00 0.  1.
         25    1    1    2    0    0 -0.56678740074E+02 -0.32966227024E+03 -0.12592534497E+03  0.37864479992E+03  0.12500000000E+03 0.  0.
         -1    1    1    2    0  502  0.56678740074E+02  0.32966227024E+03  0.90056111661E+02  0.34640986598E+03  0.00000000000E+00 0.  1.
<mgrwt>
<rscale>  3 0.35709199E+03</rscale>
<asrwt>0</asrwt>
<pdfrwt beam="1">  1       21 0.58532607E-01 0.35709199E+03</pdfrwt>
<pdfrwt beam="2">  1       -1 0.53014265E-01 0.35709199E+03</pdfrwt>
<totfact> 0.88360174E+02</totfact>
</mgrwt>
</event>
<event>
 4    0  0.1002184E-001  0.2638003E+03  0.7546771E-02  0.1104881E+00
         21   -1    0    0  501  502  0.00000000000E+00  0.00000000000E+00  0.40998787433E+03  0.40998787433E+03  0.00000000000E+00 0. -1.
         -3   -1    0    0    0  501 -0.00000000000E+00 -0.00000000000E+00 -0.16766361636E+03  0.16766361636E+03  0.00000000000E+00 0.  1.
         25    1    1    2    0    0  0.95796963373E+02 -0.21163303769E+03  0.22141832165E+03  0.34440771477E+03  0.12500000000E+03 0.  0.
         -3    1    1    2    0  502 -0.95796963373E+02  0.21163303769E+03  0.20905936320E+02  0.23324377592E+03  0.00000000000E+00 0.  1.
<mgrwt>
<rscale>  3 0.26380030E+03</rscale>
<asrwt>0</asrwt>
<pdfrwt beam="1">  1       21 0.63075057E-01 0.26380030E+03</pdfrwt>
<pdfrwt beam="2">  1       -3 0.25794403E-01 0.26380030E+03</pdfrwt>
<totfact> 0.16179499E+03</totfact>
</mgrwt>
</event>
<event>
 4    0  0.1780147E-001  0.2973748E+03  0.7546771E-02  0.1086560E+00
         21   -1    0    0  501  502  0.00000000000E+00  0.00000000000E+00  0.10339749780E+03  0.10339749780E+03  0.00000000000E+00 0.  1.
          2   -1    0    0  502    0 -0.00000000000E+00 -0.00000000000E+00 -0.12124269430E+04  0.12124269430E+04  0.00000000000E+00 0.  1.
         25    1    1    2    0    0 -0.21169157049E+03  0.16731238238E+03 -0.17821061433E+03  0.34668541558E+03  0.12500000000E+03 0.  0.
          2    1    1    2  501    0  0.21169157049E+03 -0.16731238238E+03 -0.93081883087E+03  0.96913902522E+03  0.00000000000E+00 0.  1.
<mgrwt>
<rscale>  3 0.29737477E+03</rscale>
<asrwt>0</asrwt>
<pdfrwt beam="1">  1       21 0.15907308E-01 0.29737477E+03</pdfrwt>
<pdfrwt beam="2">  1        2 0.18652722E+00 0.29737477E+03</pdfrwt>
<totfact> 0.85862518E+03</totfact>
</mgrwt>
</event>
<event>
 4    0  0.1132480E-001  0.2420916E+03  0.7546771E-02  0.1118407E+00
         21   -1    0    0  501  502  0.00000000000E+00  0.00000000000E+00  0.11446135727E+04  0.11446135727E+04  0.00000000000E+00 0.  1.
         -2   -1    0    0    0  501 -0.00000000000E+00 -0.00000000000E+00 -0.57554363127E+02  0.57554363127E+02  0.00000000000E+00 0.  1.
         25    1    1    2    0    0  0.20597419642E+03  0.23621184437E+02  0.28595683418E+03  0.37467271179E+03  0.12500000000E+03 0.  0.
         -2    1    1    2    0  502 -0.20597419642E+03 -0.23621184437E+02  0.80110237536E+03  0.82749522401E+03  0.00000000000E+00 0.  1.
<mgrwt>
<rscale>  3 0.24209157E+03</rscale>
<asrwt>0</asrwt>
<pdfrwt beam="1">  1       21 0.17609438E+00 0.24209157E+03</pdfrwt>
<pdfrwt beam="2">  1       -2 0.88545182E-02 0.24209157E+03</pdfrwt>
<totfact> 0.11936656E+03</totfact>
</mgrwt>
</event>
<event>
 4    0  0.1255293E-001  0.2668345E+03  0.7546771E-02  0.1103105E+00
         21   -1    0    0  501  502  0.00000000000E+00  0.00000000000E+00  0.53659736395E+03  0.53659736395E+03  0.00000000000E+00 0. -1.
          2   -1    0    0  502    0 -0.00000000000E+00 -0.00000000000E+00 -0.36381566912E+03  0.36381566912E+03  0.00000000000E+00 0. -1.
         25    1    1    2    0    0  0.30961657015E+02 -0.23370286418E+03 -0.28195562325E+03  0.38820049770E+03  0.12500000000E+03 0.  0.
          2    1    1    2  501    0 -0.30961657015E+02  0.23370286418E+03  0.45473731808E+03  0.51221253537E+03  0.00000000000E+00 0. -1.
<mgrwt>
<rscale>  3 0.26683450E+03</rscale>
<asrwt>0</asrwt>
<pdfrwt beam="1">  1       21 0.82553441E-01 0.26683450E+03</pdfrwt>
<pdfrwt beam="2">  1        2 0.55971641E-01 0.26683450E+03</pdfrwt>
<totfact> 0.13684012E+03</totfact>
</mgrwt>
</event>
<event>
 4    0  0.1252678E-001  0.2636145E+03  0.7546771E-02  0.1104991E+00
          1   -1    0    0  502    0 -0.00000000000E+00  0.00000000000E+00  0.11953924110E+04  0.11953924110E+04  0.00000000000E+00 0.  1.
         21   -1    0    0  501  502  0.00000000000E+00 -0.00000000000E+00 -0.84044948736E+02  0.84044948736E+02  0.00000000000E+00 0. -1.
         25    1    1    2    0    0  0.20616959511E+03  0.10659120991E+03  0.17901816106E+03  0.31865355791E+03  0.12500000000E+03 0.  0.
          1    1    1    2  501    0 -0.20616959511E+03 -0.10659120991E+03  0.93232930124E+03  0.96078380186E+03  0.00000000000E+00 0.  1.
<mgrwt>
<rscale>  3 0.26361447E+03</rscale>
<asrwt>0</asrwt>
<pdfrwt beam="1">  1       21 0.12929993E-01 0.26361447E+03</pdfrwt>
<pdfrwt beam="2">  1        1 0.18390651E+00 0.26361447E+03</pdfrwt>
<totfact> 0.65336197E+03</totfact>
</mgrwt>
</event>
<event>
 4    0  0.1245028E-001  0.2482689E+03  0.7546771E-02  0.1114404E+00
         21   -1    0    0  501  502  0.00000000000E+00  0.00000000000E+00  0.53694923065E+03  0.53694923065E+03  0.00000000000E+00 0.  1.
          1   -1    0    0  502    0 -0.00000000000E+00 -0.00000000000E+00 -0.21429620534E+03  0.21429620534E+03  0.00000000000E+00 0.  1.
         25    1    1    2    0    0  0.20857608383E+03  0.50084589759E+02 -0.10752449414E+03  0.27055307375E+03  0.12500000000E+03 0.  0.
          1    1    1    2  501    0 -0.20857608383E+03 -0.50084589759E+02  0.43017751944E+03  0.48069236224E+03  0.00000000000E+00 0.  1.
<mgrwt>
<rscale>  3 0.24826890E+03</rscale>
<asrwt>0</asrwt>
<pdfrwt beam="1">  1       21 0.82607574E-01 0.24826890E+03</pdfrwt>
<pdfrwt beam="2">  1        1 0.32968647E-01 0.24826890E+03</pdfrwt>
<totfact> 0.18261213E+03</totfact>
</mgrwt>
</event>
<event>
 4    0  0.1114769E-001  0.2376727E+03  0.7546771E-02  0.1121353E+00
         21   -1    0    0  501  502  0.00000000000E+00  0.00000000000E+00  0.32734649667E+03  0.32734649667E+03  0.00000000000E+00 0. -1.
          2   -1    0    0  502    0 -0.00000000000E+00 -0.00000000000E+00 -0.20681073882E+03  0.20681073882E+03  0.00000000000E+00 0. -1.
         25    1    1    2    0    0  0.13878495769E+03  0.14697638761E+03  0.20615696495E+03  0.31462520114E+03  0.12500000000E+03 0.  0.
          2    1    1    2  501    0 -0.13878495769E+03 -0.14697638761E+03 -0.85621207099E+02  0.21953203434E+03  0.00000000000E+00 0. -1.
<mgrwt>
<rscale>  3 0.23767272E+03</rscale>
<asrwt>0</asrwt>
<pdfrwt beam="1">  1       21 0.50361000E-01 0.23767272E+03</pdfrwt>
<pdfrwt beam="2">  1        2 0.31817037E-01 0.23767272E+03</pdfrwt>
<totfact> 0.75213144E+03</totfact>
</mgrwt>
</event>
<event>
 4    0  0.1602514E-001  0.2640870E+03  0.7546771E-02  0.1104712E+00
         21   -1    0    0  501  502  0.00000000000E+00  0.00000000000E+00  0.48878994047E+02  0.48878994047E+02  0.00000000000E+00 0. -1.
          2   -1    0    0  502    0 -0.00000000000E+00 -0.00000000000E+00 -0.12651794802E+04  0.12651794802E+04  0.00000000000E+00 0. -1.
         25    1    1    2    0    0  0.20099679810E+02 -0.23176058256E+03 -0.67977320174E+03  0.72926920308E+03  0.12500000000E+03 0.  0.
          2    1    1    2  501    0 -0.20099679810E+02  0.23176058256E+03 -0.53652728445E+03  0.58478927121E+03  0.00000000000E+00 0. -1.
<mgrwt>
<rscale>  3 0.26408704E+03</rscale>
<asrwt>0</asrwt>
<pdfrwt beam="1">  1       21 0.75198459E-02 0.26408704E+03</pdfrwt>
<pdfrwt beam="2">  1        2 0.19464298E+00 0.26408704E+03</pdfrwt>
<totfact> 0.30959842E+04</totfact>
</mgrwt>
</event>
<event>
 4    0  0.1002184E-001  0.2551849E+03  0.7546771E-02  0.1110071E+00
          1   -1    0    0  502    0 -0.00000000000E+00  0.00000000000E+00  0.97148615565E+03  0.97148615565E+03  0.00000000000E+00 0. -1.
         21   -1    0    0  501  502  0.00000000000E+00 -0.00000000000E+00 -0.71063769418E+02  0.71063769418E+02  0.00000000000E+00 0.  1.
         25    1    1    2    0    0 -0.52190552190E+02  0.21626489404E+03  0.25879560271E+03  0.36344810099E+03  0.12500000000E+03 0.  0.
          1    1    1    2  501    0  0.52190552190E+02 -0.21626489404E+03  0.64162678352E+03  0.67910182408E+03  0.00000000000E+00 0. -1.
<mgrwt>
<rscale>  3 0.25518495E+03</rscale>
<asrwt>0</asrwt>
<pdfrwt beam="1">  1       21 0.10932888E-01 0.25518495E+03</pdfrwt>
<pdfrwt beam="2">  1        1 0.14945940E+00 0.25518495E+03</pdfrwt>
<totfact> 0.12883183E+04</totfact>
</mgrwt>
</event>
<event>
 4    0  0.1212419E-001  0.2734575E+03  0.7546771E-02  0.1099317E+00
         21   -1    0    0  501  502  0.00000000000E+00  0.00000000000E+00  0.14059199063E+04  0.14059199063E+04  0.00000000000E+00 0.  1.
         -1   -1    0    0    0  501 -0.00000000000E+00 -0.00000000000E+00 -0.48725465704E+02  0.48725465704E+02  0.00000000000E+00 0.  1.
         25    1    1    2    0    0 -0.20482113985E+03 -0.13115758621E+03  0.60070094567E+03  0.66001563457E+03  0.12500000000E+03 0.  0.
         -1    1    1    2    0  502  0.20482113985E+03  0.13115758621E+03  0.75649349493E+03  0.79462973744E+03  0.00000000000E+00 0.  1.
<mgrwt>
<rscale>  3 0.27345751E+03</rscale>
<asrwt>0</asrwt>
<pdfrwt beam="1">  1       21 0.21629534E+00 0.27345751E+03</pdfrwt>
<pdfrwt beam="2">  1       -1 0.74962266E-02 0.27345751E+03</pdfrwt>
<totfact> 0.85902020E+02</totfact>
</mgrwt>
</event>
<event>
 4    0  0.1546895E-001  0.2477677E+03  0.7546771E-02  0.1114724E+00
         -2   -1    0    0    0  501 -0.00000000000E+00  0.00000000000E+00  0.33288473890E+03  0.33288473890E+03  0.00000000000E+00 0. -1.
         21   -1    0    0  501  502  0.00000000000E+00 -0.00000000000E+00 -0.21115383282E+03  0.21115383282E+03  0.00000000000E+00 0. -1.
         25    1    1    2    0    0  0.17350217823E+03 -0.12514319558E+03 -0.69254744108E+02  0.25726454251E+03  0.12500000000E+03 0.  0.
         -2    1    1    2    0  502 -0.17350217823E+03  0.12514319558E+03  0.19098565019E+03  0.28677402921E+03  0.00000000000E+00 0. -1.
<mgrwt>
<rscale>  3 0.24776768E+03</rscale>
<asrwt>0</asrwt>
<pdfrwt beam="1">  1       21 0.32485205E-01 0.24776768E+03</pdfrwt>
<pdfrwt beam="2">  1       -2 0.51213037E-01 0.24776768E+03</pdfrwt>
<totfact> 0.26751128E+03</totfact>
</mgrwt>
</event>
<event>
 4    0  0.1002184E-001  0.2999688E+03  0.7546771E-02  0.1085256E+00
         21   -1    0    0  501  502  0.00000000000E+00  0.00000000000E+00  0.20545016072E+02  0.20545016072E+02  0.00000000000E+00 0. -1.
          2   -1    0    0  502    0 -0.00000000000E+00 -0.00000000000E+00 -0.43348874404E+04  0.43348874404E+04  0.00000000000E+00 0. -1.
         25    1    1    2    0    0  0.16896632233E+03  0.21402485557E+03 -0.28650550596E+04  0.28807154930E+04  0.12500000000E+03 0.  0.
          2    1    1    2  501    0 -0.16896632233E+03 -0.21402485557E+03 -0.14492873647E+04  0.14747169635E+04  0.00000000000E+00 0. -1.
<mgrwt>
<rscale>  3 0.29996876E+03</rscale>
<asrwt>0</asrwt>
<pdfrwt beam="1">  1       21 0.31607688E-02 0.29996876E+03</pdfrwt>
<pdfrwt beam="2">  1        2 0.66690636E+00 0.29996876E+03</pdfrwt>
<totfact> 0.17410010E+03</totfact>
</mgrwt>
</event>
<event>
 4    0  0.1002184E-001  0.3018816E+03  0.7546771E-02  0.1084304E+00
         -4   -1    0    0    0  501 -0.00000000000E+00  0.00000000000E+00  0.23615953787E+03  0.23615953787E+03  0.00000000000E+00 0. -1.
         21   -1    0    0  501  502  0.00000000000E+00 -0.00000000000E+00 -0.57368638960E+03  0.57368638960E+03  0.00000000000E+00 0.  1.
         25    1    1    2    0    0  0.25897808821E+03  0.91857668153E+02 -0.42515123234E+03  0.52142693806E+03  0.12500000000E+03 0.  0.
         -4    1    1    2    0  502 -0.25897808821E+03 -0.91857668153E+02  0.87624380614E+02  0.28841898941E+03  0.00000000000E+00 0. -1.
<mgrwt>
<rscale>  3 0.30188157E+03</rscale>
<asrwt>0</asrwt>
<pdfrwt beam="1">  1       21 0.88259444E-01 0.30188157E+03</pdfrwt>
<pdfrwt beam="2">  1       -4 0.36332237E-01 0.30188157E+03</pdfrwt>
<totfact> 0.33444275E+02</totfact>
</mgrwt>
</event>
<event>
 4    0  0.1002184E-001  0.2795825E+03  0.7546771E-02  0.1095917E+00
         21   -1    0    0  501  502  0.00000000000E+00  0.00000000000E+00  0.17571227055E+03  0.17571227055E+03  0.00000000000E+00 0. -1.
          1   -1    0    0  502    0 -0.00000000000E+00 -0.00000000000E+00 -0.36940576177E+04  0.36940576177E+04  0.00000000000E+00 0.  1.
         25    1    1    2    0    0 -0.22702358357E+03  0.10488884617E+03  0.57296546471E+02  0.28539318805E+03  0.12500000000E+03 0.  0.
          1    1    1    2  501    0  0.22702358357E+03 -0.10488884617E+03 -0.35756418936E+04  0.35843767002E+04  0.00000000000E+00 0.  1.
<mgrwt>
<rscale>  3 0.27958251E+03</rscale>
<asrwt>0</asrwt>
<pdfrwt beam="1">  1       21 0.27032656E-01 0.27958251E+03</pdfrwt>
<pdfrwt beam="2">  1        1 0.56831657E+00 0.27958251E+03</pdfrwt>
<totfact> 0.31364775E+01</totfact>
</mgrwt>
</event>
<event>
 4    0  0.1501671E-001  0.2594502E+03  0.7546771E-02  0.1107474E+00
          2   -1    0    0  502    0 -0.00000000000E+00  0.00000000000E+00  0.88285672520E+03  0.88285672520E+03  0.00000000000E+00 0.  1.
         21   -1    0    0  501  502  0.00000000000E+00 -0.00000000000E+00 -0.12833906307E+03  0.12833906307E+03  0.00000000000E+00 0.  1.
         25    1    1    2    0    0 -0.50848878954E+02  0.22159376100E+03  0.41424280768E+02  0.26273632113E+03  0.12500000000E+03 0.  0.
          2    1    1    2  501    0  0.50848878954E+02 -0.22159376100E+03  0.71309338136E+03  0.74845946714E+03  0.00000000000E+00 0.  1.
<mgrwt>
<rscale>  3 0.25945019E+03</rscale>
<asrwt>0</asrwt>
<pdfrwt beam="1">  1       21 0.19744472E-01 0.25945019E+03</pdfrwt>
<pdfrwt beam="2">  1        2 0.13582411E+00 0.25945019E+03</pdfrwt>
<totfact> 0.91752572E+03</totfact>
</mgrwt>
</event>
<event>
 4    0  0.1384838E-001  0.3914849E+03  0.7546771E-02  0.1046769E+00
          2   -1    0    0  502    0 -0.00000000000E+00  0.00000000000E+00  0.19640872880E+04  0.19640872880E+04  0.00000000000E+00 0. -1.
         21   -1    0    0  501  502  0.00000000000E+00 -0.00000000000E+00 -0.11605841927E+03  0.11605841927E+03  0.00000000000E+00 0. -1.
         25    1    1    2    0    0  0.20084552112E+03 -0.31192381587E+03  0.31388288529E+03  0.50177968865E+03  0.12500000000E+03 0.  0.
          2    1    1    2  501    0 -0.20084552112E+03  0.31192381587E+03  0.15341459834E+04  0.15783660186E+04  0.00000000000E+00 0. -1.
<mgrwt>
<rscale>  3 0.39148485E+03</rscale>
<asrwt>0</asrwt>
<pdfrwt beam="1">  1       21 0.17855143E-01 0.39148485E+03</pdfrwt>
<pdfrwt beam="2">  1        2 0.30216725E+00 0.39148485E+03</pdfrwt>
<totfact> 0.26452159E+03</totfact>
</mgrwt>
</event>
<event>
 4    0  0.1569854E-001  0.3101833E+03  0.7546771E-02  0.1080258E+00
         21   -1    0    0  501  502  0.00000000000E+00  0.00000000000E+00  0.22470594463E+03  0.22470594463E+03  0.00000000000E+00 0. -1.
          2   -1    0    0  502    0 -0.00000000000E+00 -0.00000000000E+00 -0.11666929309E+04  0.11666929309E+04  0.00000000000E+00 0. -1.
         25    1    1    2    0    0  0.17647858943E+03 -0.22235999463E+03  0.88470266611E+02  0.32255332553E+03  0.12500000000E+03 0.  0.
          2    1    1    2  501    0 -0.17647858943E+03  0.22235999463E+03 -0.10304572529E+04  0.10688455500E+04  0.00000000000E+00 0. -1.
<mgrwt>
<rscale>  3 0.31018327E+03</rscale>
<asrwt>0</asrwt>
<pdfrwt beam="1">  1       21 0.34570146E-01 0.31018327E+03</pdfrwt>
<pdfrwt beam="2">  1        2 0.17949122E+00 0.31018327E+03</pdfrwt>
<totfact> 0.20473866E+03</totfact>
</mgrwt>
</event>
<event>
 4    0  0.1282170E-001  0.2383759E+03  0.7546771E-02  0.1120880E+00
         21   -1    0    0  501  502  0.00000000000E+00  0.00000000000E+00  0.25660296071E+03  0.25660296071E+03  0.00000000000E+00 0.  1.
          2   -1    0    0  502    0 -0.00000000000E+00 -0.00000000000E+00 -0.58257877892E+03  0.58257877892E+03  0.00000000000E+00 0. -1.
         25    1    1    2    0    0 -0.18158456817E+02  0.20215917504E+03  0.17692875257E+03  0.29686165986E+03  0.12500000000E+03 0.  0.
          2    1    1    2  501    0  0.18158456817E+02 -0.20215917504E+03 -0.50290457078E+03  0.54232007977E+03  0.00000000000E+00 0. -1.
<mgrwt>
<rscale>  3 0.23837588E+03</rscale>
<asrwt>0</asrwt>
<pdfrwt beam="1">  1       21 0.39477379E-01 0.23837588E+03</pdfrwt>
<pdfrwt beam="2">  1        2 0.89627502E-01 0.23837588E+03</pdfrwt>
<totfact> 0.39947636E+03</totfact>
</mgrwt>
</event>
<event>
 4    0  0.1730395E-001  0.2652698E+03  0.7546771E-02  0.1104018E+00
          1   -1    0    0  502    0 -0.00000000000E+00  0.00000000000E+00  0.93805275663E+03  0.93805275663E+03  0.00000000000E+00 0.  1.
         21   -1    0    0  501  502  0.00000000000E+00 -0.00000000000E+00 -0.68896050478E+02  0.68896050478E+02  0.00000000000E+00 0.  1.
         25    1    1    2    0    0 -0.21177509728E+03 -0.99470395671E+02  0.36568642146E+03  0.45176831483E+03  0.12500000000E+03 0.  0.
          1    1    1    2  501    0  0.21177509728E+03  0.99470395671E+02  0.50347028470E+03  0.55518049229E+03  0.00000000000E+00 0.  1.
<mgrwt>
<rscale>  3 0.26526977E+03</rscale>
<asrwt>0</asrwt>
<pdfrwt beam="1">  1       21 0.10599393E-01 0.26526977E+03</pdfrwt>
<pdfrwt beam="2">  1        1 0.14431580E+00 0.26526977E+03</pdfrwt>
<totfact> 0.14413474E+04</totfact>
</mgrwt>
</event>
<event>
 4    0  0.1002184E-001  0.3303790E+03  0.7546771E-02  0.1070969E+00
         -2   -1    0    0    0  501 -0.00000000000E+00  0.00000000000E+00  0.11956829608E+04  0.11956829608E+04  0.00000000000E+00 0. -1.
         21   -1    0    0  501  502  0.00000000000E+00 -0.00000000000E+00 -0.12867913030E+03  0.12867913030E+03  0.00000000000E+00 0.  1.
         25    1    1    2    0    0  0.11671535652E+02 -0.30559618847E+03  0.15979471377E+03  0.36699401317E+03  0.12500000000E+03 0.  0.
         -2    1    1    2    0  502 -0.11671535652E+02  0.30559618847E+03  0.90720911672E+03  0.95736807791E+03  0.00000000000E+00 0. -1.
<mgrwt>
<rscale>  3 0.33037896E+03</rscale>
<asrwt>0</asrwt>
<pdfrwt beam="1">  1       21 0.19796790E-01 0.33037896E+03</pdfrwt>
<pdfrwt beam="2">  1       -2 0.18395122E+00 0.33037896E+03</pdfrwt>
<totfact> 0.34218033E+02</totfact>
</mgrwt>
</event>
<event>
 4    0  0.1372324E-001  0.2431854E+03  0.7546771E-02  0.1117689E+00
         21   -1    0    0  501  502  0.00000000000E+00  0.00000000000E+00  0.49554011089E+02  0.49554011089E+02  0.00000000000E+00 0. -1.
          2   -1    0    0  502    0 -0.00000000000E+00 -0.00000000000E+00 -0.16854899331E+04  0.16854899331E+04  0.00000000000E+00 0. -1.
         25    1    1    2    0    0  0.32891249570E+02 -0.20599107223E+03 -0.31608054031E+03  0.39880579747E+03  0.12500000000E+03 0.  0.
          2    1    1    2  501    0 -0.32891249570E+02  0.20599107223E+03 -0.13198553817E+04  0.13362381467E+04  0.00000000000E+00 0. -1.
<mgrwt>
<rscale>  3 0.24318544E+03</rscale>
<asrwt>0</asrwt>
<pdfrwt beam="1">  1       21 0.76236951E-02 0.24318544E+03</pdfrwt>
<pdfrwt beam="2">  1        2 0.25930611E+00 0.24318544E+03</pdfrwt>
<totfact> 0.18031308E+04</totfact>
</mgrwt>
</event>
<event>
 4    0  0.1588484E-001  0.2623488E+03  0.7546771E-02  0.1105740E+00
          2   -1    0    0  502    0 -0.00000000000E+00  0.00000000000E+00  0.83994799927E+03  0.83994799927E+03  0.00000000000E+00 0.  1.
         21   -1    0    0  501  502  0.00000000000E+00 -0.00000000000E+00 -0.85137907707E+03  0.85137907707E+03  0.00000000000E+00 0. -1.
         25    1    1    2    0    0 -0.13925162429E+03  0.18387734669E+03 -0.81454276448E+03  0.85574926741E+03  0.12500000000E+03 0.  0.
          2    1    1    2  501    0  0.13925162429E+03 -0.18387734669E+03  0.80311168668E+03  0.83557780893E+03  0.00000000000E+00 0.  1.
<mgrwt>
<rscale>  3 0.26234880E+03</rscale>
<asrwt>0</asrwt>
<pdfrwt beam="1">  1       21 0.13098140E+00 0.26234880E+03</pdfrwt>
<pdfrwt beam="2">  1        2 0.12922277E+00 0.26234880E+03</pdfrwt>
<totfact> 0.16998073E+02</totfact>
</mgrwt>
</event>
<event>
 4    0  0.1348590E-001  0.2962930E+03  0.7546771E-02  0.1087108E+00
          2   -1    0    0  502    0 -0.00000000000E+00  0.00000000000E+00  0.27633635951E+03  0.27633635951E+03  0.00000000000E+00 0.  1.
         21   -1    0    0  501  502  0.00000000000E+00 -0.00000000000E+00 -0.36299900003E+03  0.36299900003E+03  0.00000000000E+00 0.  1.
         25    1    1    2    0    0  0.19076600568E+03  0.18913725426E+03 -0.18947738568E+03  0.35169766783E+03  0.12500000000E+03 0.  0.
          2    1    1    2  501    0 -0.19076600568E+03 -0.18913725426E+03  0.10281474515E+03  0.28763769171E+03  0.00000000000E+00 0.  1.
<mgrwt>
<rscale>  3 0.29629305E+03</rscale>
<asrwt>0</asrwt>
<pdfrwt beam="1">  1       21 0.55846000E-01 0.29629305E+03</pdfrwt>
<pdfrwt beam="2">  1        2 0.42513286E-01 0.29629305E+03</pdfrwt>
<totfact> 0.43481248E+03</totfact>
</mgrwt>
</event>
<event>
 4    0  0.1021295E-001  0.2562445E+03  0.7546771E-02  0.1109421E+00
         -1   -1    0    0    0  501 -0.00000000000E+00  0.00000000000E+00  0.29921042919E+03  0.29921042919E+03  0.00000000000E+00 0. -1.
         21   -1    0    0  501  502  0.00000000000E+00 -0.00000000000E+00 -0.84517847907E+03  0.84517847907E+03  0.00000000000E+00 0.  1.
         25    1    1    2    0    0  0.21562136226E+01  0.22367748249E+03 -0.77978307647E+03  0.82080625716E+03  0.12500000000E+03 0.  0.
         -1    1    1    2    0  502 -0.21562136226E+01 -0.22367748249E+03  0.23381502659E+03  0.32358265110E+03  0.00000000000E+00 0. -1.
<mgrwt>
<rscale>  3 0.25624454E+03</rscale>
<asrwt>0</asrwt>
<pdfrwt beam="1">  1       21 0.13002746E+00 0.25624454E+03</pdfrwt>
<pdfrwt beam="2">  1       -1 0.46032374E-01 0.25624454E+03</pdfrwt>
<totfact> 0.18382364E+02</totfact>
</mgrwt>
</event>
<event>
 4    0  0.1008399E-001  0.5027655E+03  0.7546771E-02  0.1013060E+00
         21   -1    0    0  501  502  0.00000000000E+00  0.00000000000E+00  0.48579136340E+03  0.48579136340E+03  0.00000000000E+00 0.  1.
          2   -1    0    0  502    0 -0.00000000000E+00 -0.00000000000E+00 -0.50449088262E+03  0.50449088262E+03  0.00000000000E+00 0.  1.
         25    1    1    2    0    0  0.48127746581E+03  0.74297554223E+02  0.38807895130E+01  0.50278045525E+03  0.12500000000E+03 0.  0.
          2    1    1    2  501    0 -0.48127746581E+03 -0.74297554223E+02 -0.22580308738E+02  0.48750179077E+03  0.00000000000E+00 0.  1.
<mgrwt>
<rscale>  3 0.50276548E+03</rscale>
<asrwt>0</asrwt>
<pdfrwt beam="1">  1       21 0.74737133E-01 0.50276548E+03</pdfrwt>
<pdfrwt beam="2">  1        2 0.77613982E-01 0.50276548E+03</pdfrwt>
<totfact> 0.11220199E+03</totfact>
</mgrwt>
</event>
<event>
 4    0  0.1224874E-001  0.4617912E+03  0.7546771E-02  0.1024263E+00
         21   -1    0    0  501  502  0.00000000000E+00  0.00000000000E+00  0.32478429262E+03  0.32478429262E+03  0.00000000000E+00 0.  1.
          1   -1    0    0  502    0 -0.00000000000E+00 -0.00000000000E+00 -0.19895999762E+04  0.19895999762E+04  0.00000000000E+00 0. -1.
         25    1    1    2    0    0  0.38951967686E+02 -0.44284177978E+03  0.11828747091E+03  0.47670014001E+03  0.12500000000E+03 0.  0.
          1    1    1    2  501    0 -0.38951967686E+02  0.44284177978E+03 -0.17831031544E+04  0.18376841288E+04  0.00000000000E+00 0. -1.
<mgrwt>
<rscale>  3 0.46179118E+03</rscale>
<asrwt>0</asrwt>
<pdfrwt beam="1">  1       21 0.49966814E-01 0.46179118E+03</pdfrwt>
<pdfrwt beam="2">  1        1 0.30609230E+00 0.46179118E+03</pdfrwt>
<totfact> 0.12875683E+02</totfact>
</mgrwt>
</event>
<event>
 4    0  0.1385157E-001  0.2972615E+03  0.7546771E-02  0.1086618E+00
         21   -1    0    0  501  502  0.00000000000E+00  0.00000000000E+00  0.27588428462E+03  0.27588428462E+03  0.00000000000E+00 0. -1.
          2   -1    0    0  502    0 -0.00000000000E+00 -0.00000000000E+00 -0.37857629302E+03  0.37857629302E+03  0.00000000000E+00 0. -1.
         25    1    1    2    0    0  0.23151917938E+03  0.13834121429E+03  0.10371829948E+03  0.31483631881E+03  0.12500000000E+03 0.  0.
          2    1    1    2  501    0 -0.23151917938E+03 -0.13834121429E+03 -0.20641030788E+03  0.33962425884E+03  0.00000000000E+00 0. -1.
<mgrwt>
<rscale>  3 0.29726154E+03</rscale>
<asrwt>0</asrwt>
<pdfrwt beam="1">  1       21 0.42443736E-01 0.29726154E+03</pdfrwt>
<pdfrwt beam="2">  1        2 0.58242506E-01 0.29726154E+03</pdfrwt>
<totfact> 0.54924338E+03</totfact>
</mgrwt>
</event>
<event>
 4    0  0.1534936E-001  0.2512334E+03  0.7546771E-02  0.1112528E+00
         21   -1    0    0  501  502  0.00000000000E+00  0.00000000000E+00  0.52690067777E+02  0.52690067777E+02  0.00000000000E+00 0.  1.
          2   -1    0    0  502    0 -0.00000000000E+00 -0.00000000000E+00 -0.12482777515E+04  0.12482777515E+04  0.00000000000E+00 0.  1.
         25    1    1    2    0    0 -0.10655493047E+03  0.19010329883E+03 -0.37095390283E+03  0.44802345414E+03  0.12500000000E+03 0.  0.
          2    1    1    2  501    0  0.10655493047E+03 -0.19010329883E+03 -0.82463378090E+03  0.85294436515E+03  0.00000000000E+00 0.  1.
<mgrwt>
<rscale>  3 0.25123339E+03</rscale>
<asrwt>0</asrwt>
<pdfrwt beam="1">  1       21 0.81061647E-02 0.25123339E+03</pdfrwt>
<pdfrwt beam="2">  1        2 0.19204272E+00 0.25123339E+03</pdfrwt>
<totfact> 0.27810472E+04</totfact>
</mgrwt>
</event>
<event>
 4    0  0.1539999E-001  0.2472215E+03  0.7546771E-02  0.1115073E+00
         21   -1    0    0  501  502  0.00000000000E+00  0.00000000000E+00  0.10341701777E+03  0.10341701777E+03  0.00000000000E+00 0.  1.
          2   -1    0    0  502    0 -0.00000000000E+00 -0.00000000000E+00 -0.14697022935E+04  0.14697022935E+04  0.00000000000E+00 0. -1.
         25    1    1    2    0    0 -0.17594138433E+03  0.12057407025E+03 -0.66581615172E+02  0.25603044471E+03  0.12500000000E+03 0.  0.
          2    1    1    2  501    0  0.17594138433E+03 -0.12057407025E+03 -0.12997036606E+04  0.13170888666E+04  0.00000000000E+00 0. -1.
<mgrwt>
<rscale>  3 0.24722151E+03</rscale>
<asrwt>0</asrwt>
<pdfrwt beam="1">  1       21 0.15910312E-01 0.24722151E+03</pdfrwt>
<pdfrwt beam="2">  1        2 0.22610803E+00 0.24722151E+03</pdfrwt>
<totfact> 0.62819271E+03</totfact>
</mgrwt>
</event>
<event>
 4    0  0.2053031E-001  0.3018342E+03  0.7546771E-02  0.1084327E+00
         -3   -1    0    0    0  501 -0.00000000000E+00  0.00000000000E+00  0.72777778464E+03  0.72777778464E+03  0.00000000000E+00 0.  1.
         21   -1    0    0  501  502  0.00000000000E+00 -0.00000000000E+00 -0.19257715011E+03  0.19257715011E+03  0.00000000000E+00 0.  1.
         25    1    1    2    0    0  0.67303393882E+02  0.26636283264E+03 -0.18334415717E+02  0.30239056904E+03  0.12500000000E+03 0.  0.
         -3    1    1    2    0  502 -0.67303393882E+02 -0.26636283264E+03  0.55353505025E+03  0.61796436572E+03  0.00000000000E+00 0.  1.
<mgrwt>
<rscale>  3 0.30183424E+03</rscale>
<asrwt>0</asrwt>
<pdfrwt beam="1">  1       21 0.29627254E-01 0.30183424E+03</pdfrwt>
<pdfrwt beam="2">  1       -3 0.11196581E+00 0.30183424E+03</pdfrwt>
<totfact> 0.36869586E+02</totfact>
</mgrwt>
</event>
<event>
 4    0  0.1534234E-001  0.2859876E+03  0.7546771E-02  0.1092463E+00
         21   -1    0    0  501  502  0.00000000000E+00  0.00000000000E+00  0.83952418454E+02  0.83952418454E+02  0.00000000000E+00 0. -1.
          1   -1    0    0  502    0 -0.00000000000E+00 -0.00000000000E+00 -0.87993405801E+03  0.87993405801E+03  0.00000000000E+00 0. -1.
         25    1    1    2    0    0 -0.31176992185E+02  0.25532710514E+03 -0.40106514308E+03  0.49258723537E+03  0.12500000000E+03 0.  0.
          1    1    1    2  501    0  0.31176992185E+02 -0.25532710514E+03 -0.39491649648E+03  0.47129924109E+03  0.00000000000E+00 0. -1.
<mgrwt>
<rscale>  3 0.28598765E+03</rscale>
<asrwt>0</asrwt>
<pdfrwt beam="1">  1       21 0.12915757E-01 0.28598765E+03</pdfrwt>
<pdfrwt beam="2">  1        1 0.13537447E+00 0.28598765E+03</pdfrwt>
<totfact> 0.11171036E+04</totfact>
</mgrwt>
</event>
<event>
 4    0  0.1559056E-001  0.2397675E+03  0.7546771E-02  0.1119948E+00
          2   -1    0    0  502    0 -0.00000000000E+00  0.00000000000E+00  0.17432767879E+04  0.17432767879E+04  0.00000000000E+00 0. -1.
         21   -1    0    0  501  502  0.00000000000E+00 -0.00000000000E+00 -0.29730022280E+02  0.29730022280E+02  0.00000000000E+00 0. -1.
         25    1    1    2    0    0  0.18568071115E+03  0.85942504571E+02  0.72875583102E+03  0.76718544162E+03  0.12500000000E+03 0.  0.
          2    1    1    2  501    0 -0.18568071115E+03 -0.85942504571E+02  0.98479093461E+03  0.10058213686E+04  0.00000000000E+00 0. -1.
<mgrwt>
<rscale>  3 0.23976747E+03</rscale>
<asrwt>0</asrwt>
<pdfrwt beam="1">  1       21 0.45738509E-02 0.23976747E+03</pdfrwt>
<pdfrwt beam="2">  1        2 0.26819635E+00 0.23976747E+03</pdfrwt>
<totfact> 0.40512044E+04</totfact>
</mgrwt>
</event>
<event>
 4    0  0.1298333E-001  0.2861062E+03  0.7546771E-02  0.1092400E+00
         21   -1    0    0  501  502  0.00000000000E+00  0.00000000000E+00  0.80880209973E+03  0.80880209973E+03  0.00000000000E+00 0. -1.
         -3   -1    0    0    0  501 -0.00000000000E+00 -0.00000000000E+00 -0.13992657818E+03  0.13992657818E+03  0.00000000000E+00 0. -1.
         25    1    1    2    0    0  0.11437191960E+03 -0.23054464740E+03  0.62538674205E+03  0.68772476149E+03  0.12500000000E+03 0.  0.
         -3    1    1    2    0  502 -0.11437191960E+03  0.23054464740E+03  0.43488779503E+02  0.26100391641E+03  0.00000000000E+00 0. -1.
<mgrwt>
<rscale>  3 0.28610622E+03</rscale>
<asrwt>0</asrwt>
<pdfrwt beam="1">  1       21 0.12443109E+00 0.28610622E+03</pdfrwt>
<pdfrwt beam="2">  1       -3 0.21527166E-01 0.28610622E+03</pdfrwt>
<totfact> 0.45745202E+02</totfact>
</mgrwt>
</event>
<event>
 4    0  0.1002184E-001  0.3415712E+03  0.7546771E-02  0.1066129E+00
         21   -1    0    0  501  502  0.00000000000E+00  0.00000000000E+00  0.44087984671E+03  0.44087984671E+03  0.00000000000E+00 0.  1.
          4   -1    0    0  502    0 -0.00000000000E+00 -0.00000000000E+00 -0.30123882038E+03  0.30123882038E+03  0.00000000000E+00 0. -1.
         25    1    1    2    0    0 -0.27704535888E+03  0.15585812183E+03  0.22982983839E+03  0.41169483799E+03  0.12500000000E+03 0.  0.
          4    1    1    2  501    0  0.27704535888E+03 -0.15585812183E+03 -0.90188812061E+02  0.33042382910E+03  0.00000000000E+00 0. -1.
<mgrwt>
<rscale>  3 0.34157120E+03</rscale>
<asrwt>0</asrwt>
<pdfrwt beam="1">  1       21 0.67827669E-01 0.34157120E+03</pdfrwt>
<pdfrwt beam="2">  1        4 0.46344434E-01 0.34157120E+03</pdfrwt>
<totfact> 0.37190699E+02</totfact>
</mgrwt>
</event>
<event>
 4    0  0.1175499E-001  0.2938052E+03  0.7546771E-02  0.1088379E+00
          1   -1    0    0  502    0 -0.00000000000E+00  0.00000000000E+00  0.11993785014E+04  0.11993785014E+04  0.00000000000E+00 0.  1.
         21   -1    0    0  501  502  0.00000000000E+00 -0.00000000000E+00 -0.10394903383E+03  0.10394903383E+03  0.00000000000E+00 0. -1.
         25    1    1    2    0    0 -0.17682294496E+03  0.19857026361E+03  0.16780501499E+03  0.33834897149E+03  0.12500000000E+03 0.  0.
          1    1    1    2  501    0  0.17682294496E+03 -0.19857026361E+03  0.92762445253E+03  0.96497856369E+03  0.00000000000E+00 0.  1.
<mgrwt>
<rscale>  3 0.29380521E+03</rscale>
<asrwt>0</asrwt>
<pdfrwt beam="1">  1       21 0.15992160E-01 0.29380521E+03</pdfrwt>
<pdfrwt beam="2">  1        1 0.18451976E+00 0.29380521E+03</pdfrwt>
<totfact> 0.43621240E+03</totfact>
</mgrwt>
</event>
<event>
 4    0  0.1002184E-001  0.3017722E+03  0.7546771E-02  0.1084358E+00
         21   -1    0    0  501  502  0.00000000000E+00  0.00000000000E+00  0.22475991439E+03  0.22475991439E+03  0.00000000000E+00 0.  1.
          1   -1    0    0  502    0 -0.00000000000E+00 -0.00000000000E+00 -0.39405687052E+03  0.39405687052E+03  0.00000000000E+00 0. -1.
         25    1    1    2    0    0 -0.35749006682E+02  0.27232967021E+03 -0.11372739615E+02  0.30198639036E+03  0.12500000000E+03 0.  0.
          1    1    1    2  501    0  0.35749006682E+02 -0.27232967021E+03 -0.15792421651E+03  0.31683039456E+03  0.00000000000E+00 0. -1.
<mgrwt>
<rscale>  3 0.30177217E+03</rscale>
<asrwt>0</asrwt>
<pdfrwt beam="1">  1       21 0.34578448E-01 0.30177217E+03</pdfrwt>
<pdfrwt beam="2">  1        1 0.60624134E-01 0.30177217E+03</pdfrwt>
<totfact> 0.53281933E+03</totfact>
</mgrwt>
</event>
<event>
 4    0  0.1414601E-001  0.2510243E+03  0.7546771E-02  0.1112659E+00
         21   -1    0    0  501  502  0.00000000000E+00  0.00000000000E+00  0.79648419334E+02  0.79648419334E+02  0.00000000000E+00 0. -1.
          1   -1    0    0  502    0 -0.00000000000E+00 -0.00000000000E+00 -0.15302757530E+04  0.15302757530E+04  0.00000000000E+00 0. -1.
         25    1    1    2    0    0 -0.98827793856E+02  0.19396207615E+03 -0.15259808011E+03  0.29376758480E+03  0.12500000000E+03 0.  0.
          1    1    1    2  501    0  0.98827793856E+02 -0.19396207615E+03 -0.12980292535E+04  0.13161565875E+04  0.00000000000E+00 0. -1.
<mgrwt>
<rscale>  3 0.25102434E+03</rscale>
<asrwt>0</asrwt>
<pdfrwt beam="1">  1       21 0.12253602E-01 0.25102434E+03</pdfrwt>
<pdfrwt beam="2">  1        1 0.23542705E+00 0.25102434E+03</pdfrwt>
<totfact> 0.42872229E+03</totfact>
</mgrwt>
</event>
<event>
 4    0  0.1002184E-001  0.2667520E+03  0.7546771E-02  0.1103153E+00
          1   -1    0    0  502    0 -0.00000000000E+00  0.00000000000E+00  0.43277355124E+03  0.43277355124E+03  0.00000000000E+00 0. -1.
         21   -1    0    0  501  502  0.00000000000E+00 -0.00000000000E+00 -0.20462553900E+03  0.20462553900E+03  0.00000000000E+00 0.  1.
         25    1    1    2    0    0  0.29447542537E+02 -0.23380429540E+03 -0.51524936206E+02  0.27168258199E+03  0.12500000000E+03 0.  0.
          1    1    1    2  501    0 -0.29447542537E+02  0.23380429540E+03  0.27967294845E+03  0.36571650825E+03  0.00000000000E+00 0. -1.
<mgrwt>
<rscale>  3 0.26675196E+03</rscale>
<asrwt>0</asrwt>
<pdfrwt beam="1">  1       21 0.31480852E-01 0.26675196E+03</pdfrwt>
<pdfrwt beam="2">  1        1 0.66580546E-01 0.26675196E+03</pdfrwt>
<totfact> 0.57300258E+03</totfact>
</mgrwt>
</event>
<event>
 4    0  0.1670482E-001  0.2538929E+03  0.7546771E-02  0.1110869E+00
          2   -1    0    0  502    0 -0.00000000000E+00  0.00000000000E+00  0.17299483386E+04  0.17299483386E+04  0.00000000000E+00 0.  1.
         21   -1    0    0  501  502  0.00000000000E+00 -0.00000000000E+00 -0.30282704485E+03  0.30282704485E+03  0.00000000000E+00 0. -1.
         25    1    1    2    0    0 -0.20309852980E+03 -0.87106705294E+02 -0.24101114357E+03  0.35006851078E+03  0.12500000000E+03 0.  0.
          2    1    1    2  501    0  0.20309852980E+03  0.87106705294E+02  0.16681324373E+04  0.16827068727E+04  0.00000000000E+00 0.  1.
<mgrwt>
<rscale>  3 0.25389287E+03</rscale>
<asrwt>0</asrwt>
<pdfrwt beam="1">  1       21 0.46588777E-01 0.25389287E+03</pdfrwt>
<pdfrwt beam="2">  1        2 0.26614589E+00 0.25389287E+03</pdfrwt>
<totfact> 0.56357538E+02</totfact>
</mgrwt>
</event>
<event>
 4    0  0.1820001E-001  0.3257232E+03  0.7546771E-02  0.1073045E+00
          2   -1    0    0  502    0 -0.00000000000E+00  0.00000000000E+00  0.16198625585E+04  0.16198625585E+04  0.00000000000E+00 0.  1.
         21   -1    0    0  501  502  0.00000000000E+00 -0.00000000000E+00 -0.32689778901E+03  0.32689778901E+03  0.00000000000E+00 0. -1.
         25    1    1    2    0    0 -0.15143330702E+03 -0.25988175109E+03 -0.22719383613E+03  0.39713046999E+03  0.12500000000E+03 0.  0.
          2    1    1    2  501    0  0.15143330702E+03  0.25988175109E+03  0.15201586056E+04  0.15496298775E+04  0.00000000000E+00 0.  1.
<mgrwt>
<rscale>  3 0.32572315E+03</rscale>
<asrwt>0</asrwt>
<pdfrwt beam="1">  1       21 0.50291968E-01 0.32572315E+03</pdfrwt>
<pdfrwt beam="2">  1        2 0.24920962E+00 0.32572315E+03</pdfrwt>
<totfact> 0.52963083E+02</totfact>
</mgrwt>
</event>
<event>
 4    0  0.1313180E-001  0.3080784E+03  0.7546771E-02  0.1081271E+00
          2   -1    0    0  502    0 -0.00000000000E+00  0.00000000000E+00  0.23988962191E+03  0.23988962191E+03  0.00000000000E+00 0.  1.
         21   -1    0    0  501  502  0.00000000000E+00 -0.00000000000E+00 -0.46636239423E+03  0.46636239423E+03  0.00000000000E+00 0.  1.
         25    1    1    2    0    0  0.23537843792E+02  0.28059452500E+03 -0.28382550212E+03  0.41889047877E+03  0.12500000000E+03 0.  0.
          2    1    1    2  501    0 -0.23537843792E+02 -0.28059452500E+03  0.57352729799E+02  0.28736153738E+03  0.00000000000E+00 0.  1.
<mgrwt>
<rscale>  3 0.30807843E+03</rscale>
<asrwt>0</asrwt>
<pdfrwt beam="1">  1       21 0.71748060E-01 0.30807843E+03</pdfrwt>
<pdfrwt beam="2">  1        2 0.36906096E-01 0.30807843E+03</pdfrwt>
<totfact> 0.29208654E+03</totfact>
</mgrwt>
</event>
<event>
 4    0  0.1219318E-001  0.4181201E+03  0.7546771E-02  0.1037680E+00
          2   -1    0    0  502    0 -0.00000000000E+00  0.00000000000E+00  0.16055573933E+04  0.16055573933E+04  0.00000000000E+00 0.  1.
         21   -1    0    0  501  502  0.00000000000E+00 -0.00000000000E+00 -0.12389431677E+03  0.12389431677E+03  0.00000000000E+00 0.  1.
         25    1    1    2    0    0  0.11263245173E+03  0.38277060134E+03  0.11021226361E+04  0.11787699977E+04  0.12500000000E+03 0.  0.
          2    1    1    2  501    0 -0.11263245173E+03 -0.38277060134E+03  0.37954044042E+03  0.55068171238E+03  0.00000000000E+00 0.  1.
<mgrwt>
<rscale>  3 0.41812008E+03</rscale>
<asrwt>0</asrwt>
<pdfrwt beam="1">  1       21 0.19060665E-01 0.41812008E+03</pdfrwt>
<pdfrwt beam="2">  1        2 0.24700881E+00 0.41812008E+03</pdfrwt>
<totfact> 0.36115509E+03</totfact>
</mgrwt>
</event>
<event>
 4    0  0.1002184E-001  0.2989412E+03  0.7546771E-02  0.1085771E+00
         -2   -1    0    0    0  501 -0.00000000000E+00  0.00000000000E+00  0.31070590228E+03  0.31070590228E+03  0.00000000000E+00 0. -1.
         21   -1    0    0  501  502  0.00000000000E+00 -0.00000000000E+00 -0.32492669589E+03  0.32492669589E+03  0.00000000000E+00 0.  1.
         25    1    1    2    0    0  0.15671215718E+03  0.22177053398E+03 -0.14725762375E+03  0.33324267089E+03  0.12500000000E+03 0.  0.
         -2    1    1    2    0  502 -0.15671215718E+03 -0.22177053398E+03  0.13303683013E+03  0.30238992728E+03  0.00000000000E+00 0. -1.
<mgrwt>
<rscale>  3 0.29894125E+03</rscale>
<asrwt>0</asrwt>
<pdfrwt beam="1">  1       21 0.49988722E-01 0.29894125E+03</pdfrwt>
<pdfrwt beam="2">  1       -2 0.47800908E-01 0.29894125E+03</pdfrwt>
<totfact> 0.12602060E+03</totfact>
</mgrwt>
</event>
<event>
 4    0  0.1043840E-001  0.2371663E+03  0.7546771E-02  0.1121695E+00
          4   -1    0    0  502    0 -0.00000000000E+00  0.00000000000E+00  0.14692454639E+04  0.14692454639E+04  0.00000000000E+00 0.  1.
         21   -1    0    0  501  502  0.00000000000E+00 -0.00000000000E+00 -0.20173770889E+03  0.20173770889E+03  0.00000000000E+00 0.  1.
         25    1    1    2    0    0  0.15226648931E+03 -0.13205213056E+03 -0.12215770590E+03  0.26677772408E+03  0.12500000000E+03 0.  0.
          4    1    1    2  501    0 -0.15226648931E+03  0.13205213056E+03  0.13896654609E+04  0.14042054487E+04  0.00000000000E+00 0.  1.
<mgrwt>
<rscale>  3 0.23716629E+03</rscale>
<asrwt>0</asrwt>
<pdfrwt beam="1">  1       21 0.31036572E-01 0.23716629E+03</pdfrwt>
<pdfrwt beam="2">  1        4 0.22603776E+00 0.23716629E+03</pdfrwt>
<totfact> 0.41458818E+01</totfact>
</mgrwt>
</event>
<event>
 4    0  0.1033194E-001  0.2580047E+03  0.7546771E-02  0.1108348E+00
          1   -1    0    0  502    0 -0.00000000000E+00  0.00000000000E+00  0.14269404295E+03  0.14269404295E+03  0.00000000000E+00 0.  1.
         21   -1    0    0  501  502  0.00000000000E+00 -0.00000000000E+00 -0.79763312729E+03  0.79763312729E+03  0.00000000000E+00 0.  1.
         25    1    1    2    0    0  0.14305043720E+03  0.17457947800E+03 -0.66612802989E+03  0.71434793618E+03  0.12500000000E+03 0.  0.
          1    1    1    2  501    0 -0.14305043720E+03 -0.17457947800E+03  0.11188945547E+02  0.22597923406E+03  0.00000000000E+00 0.  1.
<mgrwt>
<rscale>  3 0.25800469E+03</rscale>
<asrwt>0</asrwt>
<pdfrwt beam="1">  1       21 0.12271279E+00 0.25800469E+03</pdfrwt>
<pdfrwt beam="2">  1        1 0.21952930E-01 0.25800469E+03</pdfrwt>
<totfact> 0.11835971E+03</totfact>
</mgrwt>
</event>
<event>
 4    0  0.1452344E-001  0.2467372E+03  0.7546771E-02  0.1115384E+00
         21   -1    0    0  501  502  0.00000000000E+00  0.00000000000E+00  0.63016662672E+03  0.63016662672E+03  0.00000000000E+00 0. -1.
         -1   -1    0    0    0  501 -0.00000000000E+00 -0.00000000000E+00 -0.27288879389E+03  0.27288879389E+03  0.00000000000E+00 0. -1.
         25    1    1    2    0    0 -0.20948951344E+03  0.36992040270E+02  0.55828699842E+03  0.61037991439E+03  0.12500000000E+03 0.  0.
         -1    1    1    2    0  502  0.20948951344E+03 -0.36992040270E+02 -0.20100916560E+03  0.29267550621E+03  0.00000000000E+00 0. -1.
<mgrwt>
<rscale>  3 0.24673724E+03</rscale>
<asrwt>0</asrwt>
<pdfrwt beam="1">  1       21 0.96948711E-01 0.24673724E+03</pdfrwt>
<pdfrwt beam="2">  1       -1 0.41982892E-01 0.24673724E+03</pdfrwt>
<totfact> 0.44859904E+02</totfact>
</mgrwt>
</event>
<event>
 4    0  0.1502607E-001  0.4521423E+03  0.7546771E-02  0.1027085E+00
         21   -1    0    0  501  502  0.00000000000E+00  0.00000000000E+00  0.87326223031E+03  0.87326223031E+03  0.00000000000E+00 0.  1.
         -1   -1    0    0    0  501 -0.00000000000E+00 -0.00000000000E+00 -0.56324054433E+03  0.56324054433E+03  0.00000000000E+00 0.  1.
         25    1    1    2    0    0 -0.13101733042E+03  0.41429713344E+03  0.71274176158E+03  0.84405774349E+03  0.12500000000E+03 0.  0.
         -1    1    1    2    0  502  0.13101733042E+03 -0.41429713344E+03 -0.40272007560E+03  0.59244503115E+03  0.00000000000E+00 0.  1.
<mgrwt>
<rscale>  3 0.45214230E+03</rscale>
<asrwt>0</asrwt>
<pdfrwt beam="1">  1       21 0.13434803E+00 0.45214230E+03</pdfrwt>
<pdfrwt beam="2">  1       -1 0.86652392E-01 0.45214230E+03</pdfrwt>
<totfact> 0.44725572E+01</totfact>
</mgrwt>
</event>
<event>
 4    0  0.1274260E-001  0.4507049E+03  0.7546771E-02  0.1027512E+00
         21   -1    0    0  501  502  0.00000000000E+00  0.00000000000E+00  0.28026784174E+03  0.28026784174E+03  0.00000000000E+00 0. -1.
          1   -1    0    0  502    0 -0.00000000000E+00 -0.00000000000E+00 -0.70784893166E+03  0.70784893166E+03  0.00000000000E+00 0. -1.
         25    1    1    2    0    0  0.42215494095E+03 -0.96411104418E+02 -0.15582571462E+03  0.47688211180E+03  0.12500000000E+03 0.  0.
          1    1    1    2  501    0 -0.42215494095E+03  0.96411104418E+02 -0.27175537530E+03  0.51123466160E+03  0.00000000000E+00 0. -1.
<mgrwt>
<rscale>  3 0.45070489E+03</rscale>
<asrwt>0</asrwt>
<pdfrwt beam="1">  1       21 0.43118130E-01 0.45070489E+03</pdfrwt>
<pdfrwt beam="2">  1        1 0.10889983E+00 0.45070489E+03</pdfrwt>
<totfact> 0.14718901E+03</totfact>
</mgrwt>
</event>
<event>
 4    0  0.1216549E-001  0.2422455E+03  0.7546771E-02  0.1118306E+00
         -3   -1    0    0    0  501 -0.00000000000E+00  0.00000000000E+00  0.18688444165E+04  0.18688444165E+04  0.00000000000E+00 0.  1.
         21   -1    0    0  501  502  0.00000000000E+00 -0.00000000000E+00 -0.58067456506E+03  0.58067456506E+03  0.00000000000E+00 0. -1.
         25    1    1    2    0    0 -0.98648907654E+02 -0.18255481314E+03 -0.54931323732E+03  0.60035647700E+03  0.12500000000E+03 0.  0.
         -3    1    1    2    0  502  0.98648907654E+02  0.18255481314E+03  0.18374830888E+04  0.18491625046E+04  0.00000000000E+00 0.  1.
<mgrwt>
<rscale>  3 0.24224547E+03</rscale>
<asrwt>0</asrwt>
<pdfrwt beam="1">  1       21 0.89334549E-01 0.24224547E+03</pdfrwt>
<pdfrwt beam="2">  1       -3 0.28751452E+00 0.24224547E+03</pdfrwt>
<totfact> 0.26348594E+00</totfact>
</mgrwt>
</event>
<event>
 4    0  0.1492796E-001  0.2620981E+03  0.7546771E-02  0.1105889E+00
          1   -1    0    0  502    0 -0.00000000000E+00  0.00000000000E+00  0.41323128346E+03  0.41323128346E+03  0.00000000000E+00 0.  1.
         21   -1    0    0  501  502  0.00000000000E+00 -0.00000000000E+00 -0.16748009252E+03  0.16748009252E+03  0.00000000000E+00 0.  1.
         25    1    1    2    0    0 -0.79480474445E+02  0.21622500110E+03  0.27782044365E+02  0.26356638425E+03  0.12500000000E+03 0.  0.
          1    1    1    2  501    0  0.79480474445E+02 -0.21622500110E+03  0.21796914658E+03  0.31714499173E+03  0.00000000000E+00 0.  1.
<mgrwt>
<rscale>  3 0.26209807E+03</rscale>
<asrwt>0</asrwt>
<pdfrwt beam="1">  1       21 0.25766168E-01 0.26209807E+03</pdfrwt>
<pdfrwt beam="2">  1        1 0.63574044E-01 0.26209807E+03</pdfrwt>
<totfact> 0.90037658E+03</totfact>
</mgrwt>
</event>
<event>
 4    0  0.1003635E-001  0.2870123E+03  0.7546771E-02  0.1091919E+00
         21   -1    0    0  501  502  0.00000000000E+00  0.00000000000E+00  0.44775615492E+03  0.44775615492E+03  0.00000000000E+00 0. -1.
          1   -1    0    0  502    0 -0.00000000000E+00 -0.00000000000E+00 -0.32689562951E+04  0.32689562951E+04  0.00000000000E+00 0.  1.
         25    1    1    2    0    0 -0.18072684768E+03  0.18463170584E+03  0.39604552265E+03  0.48910951359E+03  0.12500000000E+03 0.  0.
          1    1    1    2  501    0  0.18072684768E+03 -0.18463170584E+03 -0.32172456629E+04  0.32276029365E+04  0.00000000000E+00 0.  1.
<mgrwt>
<rscale>  3 0.28701230E+03</rscale>
<asrwt>0</asrwt>
<pdfrwt beam="1">  1       21 0.68885563E-01 0.28701230E+03</pdfrwt>
<pdfrwt beam="2">  1        1 0.50291635E+00 0.28701230E+03</pdfrwt>
<totfact> 0.94405043E+00</totfact>
</mgrwt>
</event>
<event>
 4    0  0.1002184E-001  0.6827112E+03  0.7546771E-02  0.9747264E-01
          1   -1    0    0  502    0 -0.00000000000E+00  0.00000000000E+00  0.32219046925E+03  0.32219046925E+03  0.00000000000E+00 0. -1.
         21   -1    0    0  501  502  0.00000000000E+00 -0.00000000000E+00 -0.16692471402E+04  0.16692471402E+04  0.00000000000E+00 0. -1.
         25    1    1    2    0    0 -0.23955789289E+03 -0.62696222579E+03 -0.10613969230E+04  0.12620055645E+04  0.12500000000E+03 0.  0.
          1    1    1    2  501    0  0.23955789289E+03  0.62696222579E+03 -0.28565974795E+03  0.72943204496E+03  0.00000000000E+00 0. -1.
<mgrwt>
<rscale>  3 0.68271122E+03</rscale>
<asrwt>0</asrwt>
<pdfrwt beam="1">  1       21 0.25680725E+00 0.68271122E+03</pdfrwt>
<pdfrwt beam="2">  1        1 0.49567765E-01 0.68271122E+03</pdfrwt>
<totfact> 0.40608826E+01</totfact>
</mgrwt>
</event>
<event>
 4    0  0.1559555E-001  0.2636346E+03  0.7546771E-02  0.1104979E+00
          2   -1    0    0  502    0 -0.00000000000E+00  0.00000000000E+00  0.83779321653E+03  0.83779321653E+03  0.00000000000E+00 0.  1.
         21   -1    0    0  501  502  0.00000000000E+00 -0.00000000000E+00 -0.81539626158E+02  0.81539626158E+02  0.00000000000E+00 0.  1.
         25    1    1    2    0    0  0.21350182758E+03  0.91077955376E+02  0.25423351831E+03  0.36624842139E+03  0.12500000000E+03 0.  0.
          2    1    1    2  501    0 -0.21350182758E+03 -0.91077955376E+02  0.50202007206E+03  0.55308442130E+03  0.00000000000E+00 0.  1.
<mgrwt>
<rscale>  3 0.26363464E+03</rscale>
<asrwt>0</asrwt>
<pdfrwt beam="1">  1       21 0.12544558E-01 0.26363464E+03</pdfrwt>
<pdfrwt beam="2">  1        2 0.12889126E+00 0.26363464E+03</pdfrwt>
<totfact> 0.22646390E+04</totfact>
</mgrwt>
</event>
<event>
 4    0  0.1080050E-001  0.3755426E+03  0.7546771E-02  0.1052594E+00
          2   -1    0    0  502    0 -0.00000000000E+00  0.00000000000E+00  0.36065871533E+04  0.36065871533E+04  0.00000000000E+00 0. -1.
         21   -1    0    0  501  502  0.00000000000E+00 -0.00000000000E+00 -0.37611407990E+02  0.37611407990E+02  0.00000000000E+00 0. -1.
         25    1    1    2    0    0  0.12918059458E+03  0.32972658392E+03  0.20852856920E+04  0.21188319101E+04  0.12500000000E+03 0.  0.
          2    1    1    2  501    0 -0.12918059458E+03 -0.32972658392E+03  0.14836900533E+04  0.15253666512E+04  0.00000000000E+00 0. -1.
<mgrwt>
<rscale>  3 0.37554260E+03</rscale>
<asrwt>0</asrwt>
<pdfrwt beam="1">  1       21 0.57863733E-02 0.37554260E+03</pdfrwt>
<pdfrwt beam="2">  1        2 0.55485929E+00 0.37554260E+03</pdfrwt>
<totfact> 0.21811808E+03</totfact>
</mgrwt>
</event>
<event>
 4    0  0.1604820E-001  0.3047837E+03  0.7546771E-02  0.1082873E+00
         21   -1    0    0  501  502  0.00000000000E+00  0.00000000000E+00  0.92541853065E+02  0.92541853065E+02  0.00000000000E+00 0.  1.
          1   -1    0    0  502    0 -0.00000000000E+00 -0.00000000000E+00 -0.13599362225E+04  0.13599362225E+04  0.00000000000E+00 0.  1.
         25    1    1    2    0    0 -0.22313220717E+03  0.16577130416E+03 -0.23939659533E+03  0.38756139774E+03  0.12500000000E+03 0.  0.
          1    1    1    2  501    0  0.22313220717E+03 -0.16577130416E+03 -0.10279977741E+04  0.10649166778E+04  0.00000000000E+00 0.  1.
<mgrwt>
<rscale>  3 0.30478371E+03</rscale>
<asrwt>0</asrwt>
<pdfrwt beam="1">  1       21 0.14237208E-01 0.30478371E+03</pdfrwt>
<pdfrwt beam="2">  1        1 0.20922096E+00 0.30478371E+03</pdfrwt>
<totfact> 0.41718427E+03</totfact>
</mgrwt>
</event>
<event>
 4    0  0.1002184E-001  0.5745345E+03  0.7546771E-02  0.9959694E-01
          1   -1    0    0  502    0 -0.00000000000E+00  0.00000000000E+00  0.59130207605E+03  0.59130207605E+03  0.00000000000E+00 0.  1.
         21   -1    0    0  501  502  0.00000000000E+00 -0.00000000000E+00 -0.14751520361E+04  0.14751520361E+04  0.00000000000E+00 0.  1.
         25    1    1    2    0    0 -0.30044757569E+03 -0.47349358634E+03 -0.12643580464E+04  0.13887732686E+04  0.12500000000E+03 0.  0.
          1    1    1    2  501    0  0.30044757569E+03  0.47349358634E+03  0.38050808631E+03  0.67768084360E+03  0.00000000000E+00 0.  1.
<mgrwt>
<rscale>  3 0.57453453E+03</rscale>
<asrwt>0</asrwt>
<pdfrwt beam="1">  1       21 0.22694647E+00 0.57453453E+03</pdfrwt>
<pdfrwt beam="2">  1        1 0.90969551E-01 0.57453453E+03</pdfrwt>
<totfact> 0.28664463E+01</totfact>
</mgrwt>
</event>
<event>
 4    0  0.1299555E-001  0.2430045E+03  0.7546771E-02  0.1117807E+00
          2   -1    0    0  502    0 -0.00000000000E+00  0.00000000000E+00  0.47813261070E+03  0.47813261070E+03  0.00000000000E+00 0.  1.
         21   -1    0    0  501  502  0.00000000000E+00 -0.00000000000E+00 -0.12676564465E+03  0.12676564465E+03  0.00000000000E+00 0.  1.
         25    1    1    2    0    0  0.91600147078E+02 -0.18717795863E+03  0.66487896948E+02  0.25193613394E+03  0.12500000000E+03 0.  0.
          2    1    1    2  501    0 -0.91600147078E+02  0.18717795863E+03  0.28487906910E+03  0.35296212142E+03  0.00000000000E+00 0.  1.
<mgrwt>
<rscale>  3 0.24300448E+03</rscale>
<asrwt>0</asrwt>
<pdfrwt beam="1">  1       21 0.19502407E-01 0.24300448E+03</pdfrwt>
<pdfrwt beam="2">  1        2 0.73558862E-01 0.24300448E+03</pdfrwt>
<totfact> 0.19664698E+04</totfact>
</mgrwt>
</event>
<event>
 4    0  0.1418159E-001  0.2712571E+03  0.7546771E-02  0.1100562E+00
         21   -1    0    0  501  502  0.00000000000E+00  0.00000000000E+00  0.14755267272E+03  0.14755267272E+03  0.00000000000E+00 0.  1.
          1   -1    0    0  502    0 -0.00000000000E+00 -0.00000000000E+00 -0.11276637850E+04  0.11276637850E+04  0.00000000000E+00 0.  1.
         25    1    1    2    0    0  0.23393199515E+03  0.56843941667E+02 -0.54998830168E+01  0.27131284668E+03  0.12500000000E+03 0.  0.
          1    1    1    2  501    0 -0.23393199515E+03 -0.56843941667E+02 -0.97461122925E+03  0.10039036110E+04  0.00000000000E+00 0.  1.
<mgrwt>
<rscale>  3 0.27125710E+03</rscale>
<asrwt>0</asrwt>
<pdfrwt beam="1">  1       21 0.22700412E-01 0.27125710E+03</pdfrwt>
<pdfrwt beam="2">  1        1 0.17348673E+00 0.27125710E+03</pdfrwt>
<totfact> 0.25600403E+03</totfact>
</mgrwt>
</event>
<event>
 4    0  0.1537330E-001  0.2548744E+03  0.7546771E-02  0.1110263E+00
          2   -1    0    0  502    0 -0.00000000000E+00  0.00000000000E+00  0.17835913035E+04  0.17835913035E+04  0.00000000000E+00 0. -1.
         21   -1    0    0  501  502  0.00000000000E+00 -0.00000000000E+00 -0.36447603344E+02  0.36447603344E+02  0.00000000000E+00 0. -1.
         25    1    1    2    0    0 -0.51420271298E+02  0.21608306763E+03  0.60495843111E+03  0.65645688342E+03  0.12500000000E+03 0.  0.
          2    1    1    2  501    0  0.51420271298E+02 -0.21608306763E+03  0.11421852691E+04  0.11635820235E+04  0.00000000000E+00 0. -1.
<mgrwt>
<rscale>  3 0.25487435E+03</rscale>
<asrwt>0</asrwt>
<pdfrwt beam="1">  1       21 0.56073250E-02 0.25487435E+03</pdfrwt>
<pdfrwt beam="2">  1        2 0.27439859E+00 0.25487435E+03</pdfrwt>
<totfact> 0.27169470E+04</totfact>
</mgrwt>
</event>
<event>
 4    0  0.1002184E-001  0.2559163E+03  0.7546771E-02  0.1109622E+00
         -2   -1    0    0    0  501 -0.00000000000E+00  0.00000000000E+00  0.20517296283E+02  0.20517296283E+02  0.00000000000E+00 0. -1.
         21   -1    0    0  501  502  0.00000000000E+00 -0.00000000000E+00 -0.42287868522E+04  0.42287868522E+04  0.00000000000E+00 0. -1.
         25    1    1    2    0    0  0.94634086080E+02 -0.20226851562E+03 -0.96506428493E+03  0.99841986995E+03  0.12500000000E+03 0.  0.
         -2    1    1    2    0  502 -0.94634086080E+02  0.20226851562E+03 -0.32432052710E+04  0.32508842785E+04  0.00000000000E+00 0. -1.
<mgrwt>
<rscale>  3 0.25591632E+03</rscale>
<asrwt>0</asrwt>
<pdfrwt beam="1">  1       21 0.65058237E+00 0.25591632E+03</pdfrwt>
<pdfrwt beam="2">  1       -2 0.31565082E-02 0.25591632E+03</pdfrwt>
<totfact> 0.37263567E+00</totfact>
</mgrwt>
</event>
<event>
 4    0  0.1002184E-001  0.3100876E+03  0.7546771E-02  0.1080304E+00
          2   -1    0    0  502    0 -0.00000000000E+00  0.00000000000E+00  0.62507313474E+03  0.62507313474E+03  0.00000000000E+00 0.  1.
         21   -1    0    0  501  502  0.00000000000E+00 -0.00000000000E+00 -0.14657834726E+03  0.14657834726E+03  0.00000000000E+00 0. -1.
         25    1    1    2    0    0 -0.26329433597E+03  0.10585571408E+03  0.17461259960E+03  0.35587062185E+03  0.12500000000E+03 0.  0.
          2    1    1    2  501    0  0.26329433597E+03 -0.10585571408E+03  0.30388218788E+03  0.41578086015E+03  0.00000000000E+00 0.  1.
<mgrwt>
<rscale>  3 0.31008763E+03</rscale>
<asrwt>0</asrwt>
<pdfrwt beam="1">  1       21 0.22550515E-01 0.31008763E+03</pdfrwt>
<pdfrwt beam="2">  1        2 0.96165096E-01 0.31008763E+03</pdfrwt>
<totfact> 0.10872755E+04</totfact>
</mgrwt>
</event>
<event>
 4    0  0.1002184E-001  0.4101552E+03  0.7546771E-02  0.1040319E+00
          1   -1    0    0  502    0 -0.00000000000E+00  0.00000000000E+00  0.23242495381E+03  0.23242495381E+03  0.00000000000E+00 0. -1.
         21   -1    0    0  501  502  0.00000000000E+00 -0.00000000000E+00 -0.81667691482E+03  0.81667691482E+03  0.00000000000E+00 0.  1.
         25    1    1    2    0    0  0.34719955969E+03 -0.17903836441E+03 -0.50486481715E+03  0.65047348430E+03  0.12500000000E+03 0.  0.
          1    1    1    2  501    0 -0.34719955969E+03  0.17903836441E+03 -0.79387143859E+02  0.39862838432E+03  0.00000000000E+00 0. -1.
<mgrwt>
<rscale>  3 0.41015518E+03</rscale>
<asrwt>0</asrwt>
<pdfrwt beam="1">  1       21 0.12564260E+00 0.41015518E+03</pdfrwt>
<pdfrwt beam="2">  1        1 0.35757685E-01 0.41015518E+03</pdfrwt>
<totfact> 0.56827256E+02</totfact>
</mgrwt>
</event>
<event>
 4    0  0.1597533E-001  0.2802526E+03  0.7546771E-02  0.1095551E+00
          1   -1    0    0  502    0 -0.00000000000E+00  0.00000000000E+00  0.14354975735E+04  0.14354975735E+04  0.00000000000E+00 0.  1.
         21   -1    0    0  501  502  0.00000000000E+00 -0.00000000000E+00 -0.72874595620E+02  0.72874595620E+02  0.00000000000E+00 0.  1.
         25    1    1    2    0    0 -0.55197686097E+01  0.25077092730E+03  0.27661357487E+03  0.39377226366E+03  0.12500000000E+03 0.  0.
          1    1    1    2  501    0  0.55197686097E+01 -0.25077092730E+03  0.10860094030E+04  0.11145999054E+04  0.00000000000E+00 0.  1.
<mgrwt>
<rscale>  3 0.28025261E+03</rscale>
<asrwt>0</asrwt>
<pdfrwt beam="1">  1       21 0.11211477E-01 0.28025261E+03</pdfrwt>
<pdfrwt beam="2">  1        1 0.22084576E+00 0.28025261E+03</pdfrwt>
<totfact> 0.57617059E+03</totfact>
</mgrwt>
</event>
<event>
 4    0  0.1348267E-001  0.3964072E+03  0.7546771E-02  0.1045031E+00
          1   -1    0    0  502    0 -0.00000000000E+00  0.00000000000E+00  0.49393328087E+03  0.49393328087E+03  0.00000000000E+00 0.  1.
         21   -1    0    0  501  502  0.00000000000E+00 -0.00000000000E+00 -0.36140865703E+03  0.36140865703E+03  0.00000000000E+00 0.  1.
         25    1    1    2    0    0 -0.27354051327E+03 -0.25824268149E+03 -0.10546681431E+03  0.41019744498E+03  0.12500000000E+03 0.  0.
          1    1    1    2  501    0  0.27354051327E+03  0.25824268149E+03  0.23799143816E+03  0.44514449292E+03  0.00000000000E+00 0.  1.
<mgrwt>
<rscale>  3 0.39640723E+03</rscale>
<asrwt>0</asrwt>
<pdfrwt beam="1">  1       21 0.55601332E-01 0.39640723E+03</pdfrwt>
<pdfrwt beam="2">  1        1 0.75989736E-01 0.39640723E+03</pdfrwt>
<totfact> 0.14454331E+03</totfact>
</mgrwt>
</event>
<event>
 4    0  0.1002184E-001  0.2368967E+03  0.7546771E-02  0.1121878E+00
          2   -1    0    0  502    0 -0.00000000000E+00  0.00000000000E+00  0.15072732402E+04  0.15072732402E+04  0.00000000000E+00 0. -1.
         21   -1    0    0  501  502  0.00000000000E+00 -0.00000000000E+00 -0.32295429658E+02  0.32295429658E+02  0.00000000000E+00 0.  1.
         25    1    1    2    0    0 -0.12949797973E+03  0.15403026580E+03  0.70542368345E+03  0.74413884639E+03  0.12500000000E+03 0.  0.
          2    1    1    2  501    0  0.12949797973E+03 -0.15403026580E+03  0.76955412713E+03  0.79542982350E+03  0.00000000000E+00 0. -1.
<mgrwt>
<rscale>  3 0.23689671E+03</rscale>
<asrwt>0</asrwt>
<pdfrwt beam="1">  1       21 0.49685288E-02 0.23689671E+03</pdfrwt>
<pdfrwt beam="2">  1        2 0.23188814E+00 0.23689671E+03</pdfrwt>
<totfact> 0.46907597E+04</totfact>
</mgrwt>
</event>
<event>
 4    0  0.1518579E-001  0.3661493E+03  0.7546771E-02  0.1056175E+00
          2   -1    0    0  502    0 -0.00000000000E+00  0.00000000000E+00  0.15295772801E+04  0.15295772801E+04  0.00000000000E+00 0. -1.
         21   -1    0    0  501  502  0.00000000000E+00 -0.00000000000E+00 -0.67787210367E+03  0.67787210367E+03  0.00000000000E+00 0. -1.
         25    1    1    2    0    0 -0.15771923708E+03  0.30588390073E+03 -0.60689820105E+03  0.70879527715E+03  0.12500000000E+03 0.  0.
          2    1    1    2  501    0  0.15771923708E+03 -0.30588390073E+03  0.14586033775E+04  0.14986541066E+04  0.00000000000E+00 0. -1.
<mgrwt>
<rscale>  3 0.36614931E+03</rscale>
<asrwt>0</asrwt>
<pdfrwt beam="1">  1       21 0.10428802E+00 0.36614931E+03</pdfrwt>
<pdfrwt beam="2">  1        2 0.23531958E+00 0.36614931E+03</pdfrwt>
<totfact> 0.11183166E+02</totfact>
</mgrwt>
</event>
<event>
 4    0  0.1495156E-001  0.2437708E+03  0.7546771E-02  0.1117306E+00
          2   -1    0    0  502    0 -0.00000000000E+00  0.00000000000E+00  0.11348021431E+04  0.11348021431E+04  0.00000000000E+00 0. -1.
         21   -1    0    0  501  502  0.00000000000E+00 -0.00000000000E+00 -0.95185729981E+02  0.95185729981E+02  0.00000000000E+00 0. -1.
         25    1    1    2    0    0  0.15227952138E+03  0.14356230093E+03  0.93639107505E+02  0.26113687854E+03  0.12500000000E+03 0.  0.
          2    1    1    2  501    0 -0.15227952138E+03 -0.14356230093E+03  0.94597730559E+03  0.96885099452E+03  0.00000000000E+00 0. -1.
<mgrwt>
<rscale>  3 0.24377077E+03</rscale>
<asrwt>0</asrwt>
<pdfrwt beam="1">  1       21 0.14643959E-01 0.24377077E+03</pdfrwt>
<pdfrwt beam="2">  1        2 0.17458494E+00 0.24377077E+03</pdfrwt>
<totfact> 0.11228264E+04</totfact>
</mgrwt>
</event>
<event>
 4    0  0.1476989E-001  0.2771306E+03  0.7546771E-02  0.1097267E+00
         21   -1    0    0  501  502  0.00000000000E+00  0.00000000000E+00  0.20019563887E+03  0.20019563887E+03  0.00000000000E+00 0. -1.
          1   -1    0    0  502    0 -0.00000000000E+00 -0.00000000000E+00 -0.38536182115E+03  0.38536182115E+03  0.00000000000E+00 0. -1.
         25    1    1    2    0    0 -0.95807874804E+02 -0.22802904687E+03 -0.91152245837E+00  0.27713214531E+03  0.12500000000E+03 0.  0.
          1    1    1    2  501    0  0.95807874804E+02  0.22802904687E+03 -0.18425465982E+03  0.30842531471E+03  0.00000000000E+00 0. -1.
<mgrwt>
<rscale>  3 0.27713065E+03</rscale>
<asrwt>0</asrwt>
<pdfrwt beam="1">  1       21 0.30799329E-01 0.27713065E+03</pdfrwt>
<pdfrwt beam="2">  1        1 0.59286434E-01 0.27713065E+03</pdfrwt>
<totfact> 0.69359078E+03</totfact>
</mgrwt>
</event>
<event>
 4    0  0.1002184E-001  0.2746700E+03  0.7546771E-02  0.1098636E+00
         21   -1    0    0  501  502  0.00000000000E+00  0.00000000000E+00  0.14207292597E+04  0.14207292597E+04  0.00000000000E+00 0. -1.
         -1   -1    0    0    0  501 -0.00000000000E+00 -0.00000000000E+00 -0.19639214423E+03  0.19639214423E+03  0.00000000000E+00 0.  1.
         25    1    1    2    0    0  0.69359758613E+02  0.23453753084E+03  0.13246084481E+04  0.13527864466E+04  0.12500000000E+03 0.  0.
         -1    1    1    2    0  502 -0.69359758613E+02 -0.23453753084E+03 -0.10027133264E+03  0.26433495727E+03  0.00000000000E+00 0.  1.
<mgrwt>
<rscale>  3 0.27467004E+03</rscale>
<asrwt>0</asrwt>
<pdfrwt beam="1">  1       21 0.21857373E+00 0.27467004E+03</pdfrwt>
<pdfrwt beam="2">  1       -1 0.30214177E-01 0.27467004E+03</pdfrwt>
<totfact> 0.89000976E+01</totfact>
</mgrwt>
</event>
<event>
 4    0  0.1569221E-001  0.3752557E+03  0.7546771E-02  0.1052701E+00
         21   -1    0    0  501  502  0.00000000000E+00  0.00000000000E+00  0.55199917679E+03  0.55199917679E+03  0.00000000000E+00 0.  1.
         -3   -1    0    0    0  501 -0.00000000000E+00 -0.00000000000E+00 -0.24757980842E+03  0.24757980842E+03  0.00000000000E+00 0.  1.
         25    1    1    2    0    0 -0.25438265542E+03  0.24592950870E+03  0.90149114821E+02  0.38593227583E+03  0.12500000000E+03 0.  0.
         -3    1    1    2    0  502  0.25438265542E+03 -0.24592950870E+03  0.21427025355E+03  0.41364670938E+03  0.00000000000E+00 0.  1.
<mgrwt>
<rscale>  3 0.37525572E+03</rscale>
<asrwt>0</asrwt>
<pdfrwt beam="1">  1       21 0.84922950E-01 0.37525572E+03</pdfrwt>
<pdfrwt beam="2">  1       -3 0.38089201E-01 0.37525572E+03</pdfrwt>
<totfact> 0.39039124E+02</totfact>
</mgrwt>
</event>
<event>
 4    0  0.1002184E-001  0.6456704E+03  0.7546771E-02  0.9814937E-01
          1   -1    0    0  502    0 -0.00000000000E+00  0.00000000000E+00  0.13163535831E+04  0.13163535831E+04  0.00000000000E+00 0. -1.
         21   -1    0    0  501  502  0.00000000000E+00 -0.00000000000E+00 -0.13760304869E+04  0.13760304869E+04  0.00000000000E+00 0.  1.
         25    1    1    2    0    0 -0.11848757718E+03 -0.62227480351E+03 -0.12143700267E+04  0.13753489735E+04  0.12500000000E+03 0.  0.
          1    1    1    2  501    0  0.11848757718E+03  0.62227480351E+03  0.11546931230E+04  0.13170350965E+04  0.00000000000E+00 0. -1.
<mgrwt>
<rscale>  3 0.64567038E+03</rscale>
<asrwt>0</asrwt>
<pdfrwt beam="1">  1       21 0.21169700E+00 0.64567038E+03</pdfrwt>
<pdfrwt beam="2">  1        1 0.20251594E+00 0.64567038E+03</pdfrwt>
<totfact> 0.90197857E+00</totfact>
</mgrwt>
</event>
<event>
 4    0  0.1630393E-001  0.3143797E+03  0.7546771E-02  0.1078265E+00
         21   -1    0    0  501  502  0.00000000000E+00  0.00000000000E+00  0.13333114114E+03  0.13333114114E+03  0.00000000000E+00 0.  1.
          2   -1    0    0  502    0 -0.00000000000E+00 -0.00000000000E+00 -0.22181814863E+04  0.22181814863E+04  0.00000000000E+00 0. -1.
         25    1    1    2    0    0  0.15054908527E+03  0.24605801398E+03 -0.77832476113E+02  0.32387106641E+03  0.12500000000E+03 0.  0.
          2    1    1    2  501    0 -0.15054908527E+03 -0.24605801398E+03 -0.20070178690E+04  0.20276415610E+04  0.00000000000E+00 0. -1.
<mgrwt>
<rscale>  3 0.31437966E+03</rscale>
<asrwt>0</asrwt>
<pdfrwt beam="1">  1       21 0.20512483E-01 0.31437966E+03</pdfrwt>
<pdfrwt beam="2">  1        2 0.34125869E+00 0.31437966E+03</pdfrwt>
<totfact> 0.15301516E+03</totfact>
</mgrwt>
</event>
<event>
 4    0  0.1428225E-001  0.3781122E+03  0.7546771E-02  0.1051634E+00
         21   -1    0    0  501  502  0.00000000000E+00  0.00000000000E+00  0.55515160114E+03  0.55515160114E+03  0.00000000000E+00 0. -1.
          2   -1    0    0  502    0 -0.00000000000E+00 -0.00000000000E+00 -0.87240256389E+03  0.87240256389E+03  0.00000000000E+00 0.  1.
         25    1    1    2    0    0 -0.33936980823E+03 -0.11032660893E+03  0.44617486575E+03  0.58484257558E+03  0.12500000000E+03 0.  0.
          2    1    1    2  501    0  0.33936980823E+03  0.11032660893E+03 -0.76342582850E+03  0.84271158946E+03  0.00000000000E+00 0.  1.
<mgrwt>
<rscale>  3 0.37811219E+03</rscale>
<asrwt>0</asrwt>
<pdfrwt beam="1">  1       21 0.85407939E-01 0.37811219E+03</pdfrwt>
<pdfrwt beam="2">  1        2 0.13421578E+00 0.37811219E+03</pdfrwt>
<totfact> 0.43471097E+02</totfact>
</mgrwt>
</event>
<event>
 4    0  0.1002184E-001  0.3449212E+03  0.7546771E-02  0.1064719E+00
         21   -1    0    0  501  502  0.00000000000E+00  0.00000000000E+00  0.71764044663E+02  0.71764044663E+02  0.00000000000E+00 0.  1.
          2   -1    0    0  502    0 -0.00000000000E+00 -0.00000000000E+00 -0.41045822876E+04  0.41045822876E+04  0.00000000000E+00 0. -1.
         25    1    1    2    0    0 -0.57620491914E+02  0.31626814734E+03 -0.39520149504E+03  0.52455207920E+03  0.12500000000E+03 0.  0.
          2    1    1    2  501    0  0.57620491914E+02 -0.31626814734E+03 -0.36376167479E+04  0.36517942530E+04  0.00000000000E+00 0. -1.
<mgrwt>
<rscale>  3 0.34492124E+03</rscale>
<asrwt>0</asrwt>
<pdfrwt beam="1">  1       21 0.11040619E-01 0.34492124E+03</pdfrwt>
<pdfrwt beam="2">  1        2 0.63147436E+00 0.34492124E+03</pdfrwt>
<totfact> 0.30263605E+02</totfact>
</mgrwt>
</event>
<event>
 4    0  0.1002184E-001  0.2443285E+03  0.7546771E-02  0.1116942E+00
         21   -1    0    0  501  502  0.00000000000E+00  0.00000000000E+00  0.11824018460E+04  0.11824018460E+04  0.00000000000E+00 0. -1.
         -3   -1    0    0    0  501 -0.00000000000E+00 -0.00000000000E+00 -0.26699230870E+03  0.26699230870E+03  0.00000000000E+00 0.  1.
         25    1    1    2    0    0 -0.11729603379E+03 -0.17410638331E+03  0.11259028805E+04  0.11521083666E+04  0.12500000000E+03 0.  0.
         -3    1    1    2    0  502  0.11729603379E+03  0.17410638331E+03 -0.21049334318E+03  0.29728578805E+03  0.00000000000E+00 0.  1.
<mgrwt>
<rscale>  3 0.24432845E+03</rscale>
<asrwt>0</asrwt>
<pdfrwt beam="1">  1       21 0.18190797E+00 0.24432845E+03</pdfrwt>
<pdfrwt beam="2">  1       -3 0.41075740E-01 0.24432845E+03</pdfrwt>
<totfact> 0.49951968E+01</totfact>
</mgrwt>
</event>
<event>
 4    0  0.1147875E-001  0.3008481E+03  0.7546771E-02  0.1084817E+00
         -2   -1    0    0    0  501 -0.00000000000E+00  0.00000000000E+00  0.41824105444E+03  0.41824105444E+03  0.00000000000E+00 0.  1.
         21   -1    0    0  501  502  0.00000000000E+00 -0.00000000000E+00 -0.63217835865E+03  0.63217835865E+03  0.00000000000E+00 0. -1.
         25    1    1    2    0    0 -0.44761629459E+02  0.26996472055E+03 -0.54401379462E+03  0.62165952301E+03  0.12500000000E+03 0.  0.
         -2    1    1    2    0  502  0.44761629459E+02 -0.26996472055E+03  0.33007649041E+03  0.42875989007E+03  0.00000000000E+00 0.  1.
<mgrwt>
<rscale>  3 0.30084806E+03</rscale>
<asrwt>0</asrwt>
<pdfrwt beam="1">  1       21 0.97258209E-01 0.30084806E+03</pdfrwt>
<pdfrwt beam="2">  1       -2 0.64344778E-01 0.30084806E+03</pdfrwt>
<totfact> 0.15484169E+02</totfact>
</mgrwt>
</event>
<event>
 4    0  0.1705228E-001  0.2560778E+03  0.7546771E-02  0.1109523E+00
          2   -1    0    0  502    0 -0.00000000000E+00  0.00000000000E+00  0.18450042043E+04  0.18450042043E+04  0.00000000000E+00 0.  1.
         21   -1    0    0  501  502  0.00000000000E+00 -0.00000000000E+00 -0.31986517926E+02  0.31986517926E+02  0.00000000000E+00 0.  1.
         25    1    1    2    0    0  0.18543706214E+03  0.12475550805E+03  0.11166547394E+04  0.11456411514E+04  0.12500000000E+03 0.  0.
          2    1    1    2  501    0 -0.18543706214E+03 -0.12475550805E+03  0.69636294706E+03  0.73134957089E+03  0.00000000000E+00 0.  1.
<mgrwt>
<rscale>  3 0.25607780E+03</rscale>
<asrwt>0</asrwt>
<pdfrwt beam="1">  1       21 0.49210042E-02 0.25607780E+03</pdfrwt>
<pdfrwt beam="2">  1        2 0.28384672E+00 0.25607780E+03</pdfrwt>
<totfact> 0.31530393E+04</totfact>
</mgrwt>
</event>
<event>
 4    0  0.1744436E-001  0.2549918E+03  0.7546771E-02  0.1110190E+00
         21   -1    0    0  501  502  0.00000000000E+00  0.00000000000E+00  0.51307999016E+03  0.51307999016E+03  0.00000000000E+00 0. -1.
          2   -1    0    0  502    0 -0.00000000000E+00 -0.00000000000E+00 -0.95251305045E+03  0.95251305045E+03  0.00000000000E+00 0.  1.
         25    1    1    2    0    0 -0.91693779045E+02  0.20245511499E+03  0.46712419139E+03  0.53218965875E+03  0.12500000000E+03 0.  0.
          2    1    1    2  501    0  0.91693779045E+02 -0.20245511499E+03 -0.90655725167E+03  0.93340338186E+03  0.00000000000E+00 0.  1.
<mgrwt>
<rscale>  3 0.25499181E+03</rscale>
<asrwt>0</asrwt>
<pdfrwt beam="1">  1       21 0.78935384E-01 0.25499181E+03</pdfrwt>
<pdfrwt beam="2">  1        2 0.14654047E+00 0.25499181E+03</pdfrwt>
<totfact> 0.48735387E+02</totfact>
</mgrwt>
</event>
<event>
 4    0  0.1390112E-001  0.2975012E+03  0.7546771E-02  0.1086496E+00
         21   -1    0    0  501  502  0.00000000000E+00  0.00000000000E+00  0.43751979577E+02  0.43751979577E+02  0.00000000000E+00 0. -1.
          2   -1    0    0  502    0 -0.00000000000E+00 -0.00000000000E+00 -0.18635032983E+04  0.18635032983E+04  0.00000000000E+00 0. -1.
         25    1    1    2    0    0 -0.16312852288E+03 -0.21510702849E+03 -0.84656170731E+03  0.89731470119E+03  0.12500000000E+03 0.  0.
          2    1    1    2  501    0  0.16312852288E+03  0.21510702849E+03 -0.97318961141E+03  0.10099405767E+04  0.00000000000E+00 0. -1.
<mgrwt>
<rscale>  3 0.29750117E+03</rscale>
<asrwt>0</asrwt>
<pdfrwt beam="1">  1       21 0.67310733E-02 0.29750117E+03</pdfrwt>
<pdfrwt beam="2">  1        2 0.28669284E+00 0.29750117E+03</pdfrwt>
<totfact> 0.17808372E+04</totfact>
</mgrwt>
</event>
<event>
 4    0  0.1479568E-001  0.3057349E+03  0.7546771E-02  0.1082408E+00
          1   -1    0    0  502    0 -0.00000000000E+00  0.00000000000E+00  0.57672962813E+03  0.57672962813E+03  0.00000000000E+00 0.  1.
         21   -1    0    0  501  502  0.00000000000E+00 -0.00000000000E+00 -0.86777758164E+03  0.86777758164E+03  0.00000000000E+00 0.  1.
         25    1    1    2    0    0 -0.18268039551E+03  0.21089501233E+03 -0.80422805992E+03  0.86038166269E+03  0.12500000000E+03 0.  0.
          1    1    1    2  501    0  0.18268039551E+03 -0.21089501233E+03  0.51318010642E+03  0.58412554708E+03  0.00000000000E+00 0.  1.
<mgrwt>
<rscale>  3 0.30573491E+03</rscale>
<asrwt>0</asrwt>
<pdfrwt beam="1">  1       21 0.13350424E+00 0.30573491E+03</pdfrwt>
<pdfrwt beam="2">  1        1 0.88727636E-01 0.30573491E+03</pdfrwt>
<totfact> 0.15484741E+02</totfact>
</mgrwt>
</event>
<event>
 4    0  0.1371885E-001  0.2408416E+03  0.7546771E-02  0.1119233E+00
         21   -1    0    0  501  502  0.00000000000E+00  0.00000000000E+00  0.68064755381E+03  0.68064755381E+03  0.00000000000E+00 0.  1.
          2   -1    0    0  502    0 -0.00000000000E+00 -0.00000000000E+00 -0.48746383960E+03  0.48746383960E+03  0.00000000000E+00 0.  1.
         25    1    1    2    0    0  0.52344518761E+02  0.19909723675E+03  0.63584128636E+03  0.67992558399E+03  0.12500000000E+03 0.  0.
          2    1    1    2  501    0 -0.52344518761E+02 -0.19909723675E+03 -0.44265757216E+03  0.48818580942E+03  0.00000000000E+00 0.  1.
<mgrwt>
<rscale>  3 0.24084156E+03</rscale>
<asrwt>0</asrwt>
<pdfrwt beam="1">  1       21 0.10471501E+00 0.24084156E+03</pdfrwt>
<pdfrwt beam="2">  1        2 0.74994436E-01 0.24084156E+03</pdfrwt>
<totfact> 0.57362858E+02</totfact>
</mgrwt>
</event>
<event>
 4    0  0.1314947E-001  0.2422269E+03  0.7546771E-02  0.1118318E+00
          2   -1    0    0  502    0 -0.00000000000E+00  0.00000000000E+00  0.37575351373E+03  0.37575351373E+03  0.00000000000E+00 0.  1.
         21   -1    0    0  501  502  0.00000000000E+00 -0.00000000000E+00 -0.17995528880E+03  0.17995528880E+03  0.00000000000E+00 0.  1.
         25    1    1    2    0    0  0.15614958746E+02 -0.20689382011E+03 -0.35694382672E+02  0.24484274278E+03  0.12500000000E+03 0.  0.
          2    1    1    2  501    0 -0.15614958746E+02  0.20689382011E+03  0.23149260760E+03  0.31086605976E+03  0.00000000000E+00 0.  1.
<mgrwt>
<rscale>  3 0.24222692E+03</rscale>
<asrwt>0</asrwt>
<pdfrwt beam="1">  1       21 0.27685429E-01 0.24222692E+03</pdfrwt>
<pdfrwt beam="2">  1        2 0.57808233E-01 0.24222692E+03</pdfrwt>
<totfact> 0.13137730E+04</totfact>
</mgrwt>
</event>
<event>
 4    0  0.1059406E-001  0.2473522E+03  0.7546771E-02  0.1114990E+00
         21   -1    0    0  501  502  0.00000000000E+00  0.00000000000E+00  0.36856056968E+02  0.36856056968E+02  0.00000000000E+00 0. -1.
          1   -1    0    0  502    0 -0.00000000000E+00 -0.00000000000E+00 -0.20302682905E+04  0.20302682905E+04  0.00000000000E+00 0.  1.
         25    1    1    2    0    0  0.68952017386E+02  0.20199938887E+03 -0.49264832091E+03  0.55125810824E+03  0.12500000000E+03 0.  0.
          1    1    1    2  501    0 -0.68952017386E+02 -0.20199938887E+03 -0.15007639126E+04  0.15158662392E+04  0.00000000000E+00 0.  1.
<mgrwt>
<rscale>  3 0.24735225E+03</rscale>
<asrwt>0</asrwt>
<pdfrwt beam="1">  1       21 0.56701620E-02 0.24735225E+03</pdfrwt>
<pdfrwt beam="2">  1        1 0.31234900E+00 0.24735225E+03</pdfrwt>
<totfact> 0.78559591E+03</totfact>
</mgrwt>
</event>
<event>
 4    0  0.1539286E-001  0.2613654E+03  0.7546771E-02  0.1106326E+00
         21   -1    0    0  501  502  0.00000000000E+00  0.00000000000E+00  0.12928553976E+03  0.12928553976E+03  0.00000000000E+00 0. -1.
          1   -1    0    0  502    0 -0.00000000000E+00 -0.00000000000E+00 -0.12879157105E+04  0.12879157105E+04  0.00000000000E+00 0.  1.
         25    1    1    2    0    0 -0.82327730978E+02 -0.21426394003E+03 -0.27262110507E+02  0.26278339741E+03  0.12500000000E+03 0.  0.
          1    1    1    2  501    0  0.82327730978E+02  0.21426394003E+03 -0.11313680602E+04  0.11544178528E+04  0.00000000000E+00 0.  1.
<mgrwt>
<rscale>  3 0.26136544E+03</rscale>
<asrwt>0</asrwt>
<pdfrwt beam="1">  1       21 0.19890083E-01 0.26136544E+03</pdfrwt>
<pdfrwt beam="2">  1        1 0.19814088E+00 0.26136544E+03</pdfrwt>
<totfact> 0.25484136E+03</totfact>
</mgrwt>
</event>
<event>
 4    0  0.1002184E-001  0.6414535E+03  0.7546771E-02  0.9822950E-01
         21   -1    0    0  501  502  0.00000000000E+00  0.00000000000E+00  0.78447667383E+03  0.78447667383E+03  0.00000000000E+00 0.  1.
          1   -1    0    0  502    0 -0.00000000000E+00 -0.00000000000E+00 -0.62534282618E+03  0.62534282618E+03  0.00000000000E+00 0.  1.
         25    1    1    2    0    0 -0.44741438206E+03 -0.44233243556E+03  0.37696628830E+03  0.74402029228E+03  0.12500000000E+03 0.  0.
          1    1    1    2  501    0  0.44741438206E+03  0.44233243556E+03 -0.21783244064E+03  0.66579920773E+03  0.00000000000E+00 0.  1.
<mgrwt>
<rscale>  3 0.64145352E+03</rscale>
<asrwt>0</asrwt>
<pdfrwt beam="1">  1       21 0.12068872E+00 0.64145352E+03</pdfrwt>
<pdfrwt beam="2">  1        1 0.96206589E-01 0.64145352E+03</pdfrwt>
<totfact> 0.16035603E+02</totfact>
</mgrwt>
</event>
<event>
 4    0  0.1715333E-001  0.4510289E+03  0.7546771E-02  0.1027416E+00
         21   -1    0    0  501  502  0.00000000000E+00  0.00000000000E+00  0.18505513445E+03  0.18505513445E+03  0.00000000000E+00 0.  1.
         -3   -1    0    0    0  501 -0.00000000000E+00 -0.00000000000E+00 -0.11828671133E+04  0.11828671133E+04  0.00000000000E+00 0.  1.
         25    1    1    2    0    0  0.36652178110E+03 -0.23122255606E+03 -0.28441930461E+03  0.53321799228E+03  0.12500000000E+03 0.  0.
         -3    1    1    2    0  502 -0.36652178110E+03  0.23122255606E+03 -0.71339267421E+03  0.83470425545E+03  0.00000000000E+00 0.  1.
<mgrwt>
<rscale>  3 0.45102892E+03</rscale>
<asrwt>0</asrwt>
<pdfrwt beam="1">  1       21 0.28470022E-01 0.45102892E+03</pdfrwt>
<pdfrwt beam="2">  1       -3 0.18197955E+00 0.45102892E+03</pdfrwt>
<totfact> 0.11371183E+02</totfact>
</mgrwt>
</event>
