<event>
 5    0  0.1911311E+001  0.2398727E+03  0.7546771E-02  0.1119878E+00
         21   -1    0    0  503  501  0.00000000000E+00  0.00000000000E+00  0.23911766981E+03  0.23911766981E+03  0.00000000000E+00 0.  1.
         21   -1    0    0  504  502 -0.00000000000E+00 -0.00000000000E+00 -0.63041750271E+03  0.63041750271E+03  0.00000000000E+00 0.  1.
         25    1    1    2    0    0 -0.23022887196E+03  0.15061998279E+02 -0.48109751424E+03  0.54800731335E+03  0.12500000000E+03 0.  0.
         21    1    1    2  503  502  0.15902544607E+03  0.19808822641E+01 -0.47456494413E+02  0.16596727164E+03  0.00000000000E+00 0.  1.
         21    1    1    2  504  501  0.71203425887E+02 -0.17042880543E+02  0.13725417575E+03  0.15556058754E+03  0.00000000000E+00 0.  1.
<mgrwt>
<rscale>  4 0.23987270E+03</rscale>
<asrwt>0</asrwt>
<pdfrwt beam="1">  1       21 0.36787334E-01 0.23987270E+03</pdfrwt>
<pdfrwt beam="2">  1       21 0.96987308E-01 0.23987270E+03</pdfrwt>
<totfact> 0.60821839E+03</totfact>
</mgrwt>
</event>
<event>
 5    0  0.1911311E+001  0.4013325E+03  0.7546771E-02  0.1043319E+00
         21   -1    0    0  503  501  0.00000000000E+00  0.00000000000E+00  0.19722829561E+04  0.19722829561E+04  0.00000000000E+00 0. -1.
         21   -1    0    0  501  502 -0.00000000000E+00 -0.00000000000E+00 -0.12623592815E+03  0.12623592815E+03  0.00000000000E+00 0. -1.
         25    1    1    2    0    0  0.87131808361E+02 -0.28222042614E+03  0.45200755907E+03  0.55423474667E+03  0.12500000000E+03 0.  0.
         21    1    1    2  503  504  0.86518408703E+02 -0.12881722804E+03  0.12556139136E+03  0.19961206447E+03  0.00000000000E+00 0. -1.
         21    1    1    2  504  502 -0.17365021706E+03  0.41103765417E+03  0.12684780775E+04  0.13446720731E+04  0.00000000000E+00 0. -1.
<mgrwt>
<rscale>  4 0.40133250E+03</rscale>
<asrwt>0</asrwt>
<pdfrwt beam="1">  1       21 0.30342812E+00 0.40133250E+03</pdfrwt>
<pdfrwt beam="2">  1       21 0.19420914E-01 0.40133250E+03</pdfrwt>
<totfact> 0.65486277E+02</totfact>
</mgrwt>
</event>
<event>
 5    0  0.1911311E+001  0.2708330E+03  0.7546771E-02  0.1100804E+00
         21   -1    0    0  502  501  0.00000000000E+00  0.00000000000E+00  0.38171913657E+03  0.38171913657E+03  0.00000000000E+00 0.  1.
         21   -1    0    0  504  502 -0.00000000000E+00 -0.00000000000E+00 -0.31653308626E+03  0.31653308626E+03  0.00000000000E+00 0. -1.
         25    1    1    2    0    0 -0.70877612158E+02  0.27030031503E+03  0.91398921452E+02  0.31947560009E+03  0.12500000000E+03 0.  0.
         21    1    1    2  503  501  0.18198462313E+02 -0.48787769358E+02  0.10412571223E+03  0.11641990558E+03  0.00000000000E+00 0. -1.
         21    1    1    2  504  503  0.52679149845E+02 -0.22151254567E+03 -0.13033858336E+03  0.26235671715E+03  0.00000000000E+00 0. -1.
<mgrwt>
<rscale>  4 0.27083304E+03</rscale>
<asrwt>0</asrwt>
<pdfrwt beam="1">  1       21 0.58726021E-01 0.27083304E+03</pdfrwt>
<pdfrwt beam="2">  1       21 0.48697398E-01 0.27083304E+03</pdfrwt>
<totfact> 0.10428732E+04</totfact>
</mgrwt>
</event>
<event>
 5    0  0.1911311E+001  0.3167333E+03  0.7546771E-02  0.1077163E+00
         21   -1    0    0  502  501  0.00000000000E+00  0.00000000000E+00  0.17336882022E+03  0.17336882022E+03  0.00000000000E+00 0. -1.
         21   -1    0    0  504  502 -0.00000000000E+00 -0.00000000000E+00 -0.80705922053E+03  0.80705922053E+03  0.00000000000E+00 0. -1.
         25    1    1    2    0    0 -0.15251682536E+03  0.21189666618E+03 -0.35759556634E+03  0.46006648239E+03  0.12500000000E+03 0.  0.
         21    1    1    2  503  501 -0.81123270127E+02  0.45717576947E+02 -0.52401196167E+02  0.10685020897E+03  0.00000000000E+00 0. -1.
         21    1    1    2  504  503  0.23364009548E+03 -0.25761424313E+03 -0.22369363780E+03  0.41351134939E+03  0.00000000000E+00 0. -1.
<mgrwt>
<rscale>  4 0.31673334E+03</rscale>
<asrwt>0</asrwt>
<pdfrwt beam="1">  1       21 0.26672126E-01 0.31673334E+03</pdfrwt>
<pdfrwt beam="2">  1       21 0.12416296E+00 0.31673334E+03</pdfrwt>
<totfact> 0.60092249E+03</totfact>
</mgrwt>
</event>
