<event>
 5    0  0.1911311E+001  0.2463516E+03  0.7546771E-02  0.1115632E+00
         21   -1    0    0  504  501  0.00000000000E+00  0.00000000000E+00  0.70927670934E+03  0.70927670934E+03  0.00000000000E+00 0.  1.
         21   -1    0    0  501  502 -0.00000000000E+00 -0.00000000000E+00 -0.31305460640E+03  0.31305460640E+03  0.00000000000E+00 0.  1.
         25    1    1    2    0    0  0.17623113306E+03 -0.11296522434E+03  0.57851848034E+03  0.62779549717E+03  0.12500000000E+03 0.  0.
         21    1    1    2  503  502  0.23088899785E+02  0.38499549093E+02  0.58150020185E+02  0.73462489892E+02  0.00000000000E+00 0. -1.
         21    1    1    2  504  503 -0.19932003285E+03  0.74465675243E+02 -0.24044639758E+03  0.32107332868E+03  0.00000000000E+00 0.  1.
<mgrwt>
<rscale>  4 0.24635159E+03</rscale>
<asrwt>0</asrwt>
<pdfrwt beam="1">  1       21 0.10911949E+00 0.24635159E+03</pdfrwt>
<pdfrwt beam="2">  1       21 0.48162247E-01 0.24635159E+03</pdfrwt>
<totfact> 0.26280182E+03</totfact>
</mgrwt>
</event>
<event>
 5    0  0.1911311E+001  0.2440539E+03  0.7546771E-02  0.1117121E+00
         21   -1    0    0  504  501  0.00000000000E+00  0.00000000000E+00  0.37360119847E+03  0.37360119847E+03  0.00000000000E+00 0. -1.
         21   -1    0    0  503  502 -0.00000000000E+00 -0.00000000000E+00 -0.35969722442E+03  0.35969722442E+03  0.00000000000E+00 0. -1.
         25    1    1    2    0    0  0.18652369518E+03 -0.14938712671E+03  0.14083855610E+01  0.26969350389E+03  0.12500000000E+03 0.  0.
         21    1    1    2  503  501 -0.15734275686E+03  0.12335659784E+03 -0.17887987635E+03  0.26827523838E+03  0.00000000000E+00 0. -1.
         21    1    1    2  504  502 -0.29180938320E+02  0.26030528869E+02  0.19137546484E+03  0.19532968063E+03  0.00000000000E+00 0.  1.
<mgrwt>
<rscale>  4 0.24405387E+03</rscale>
<asrwt>0</asrwt>
<pdfrwt beam="1">  1       21 0.57477107E-01 0.24405387E+03</pdfrwt>
<pdfrwt beam="2">  1       21 0.55338035E-01 0.24405387E+03</pdfrwt>
<totfact> 0.84588925E+03</totfact>
</mgrwt>
</event>
<event>
 5    0  0.1911311E+001  0.2848185E+03  0.7546771E-02  0.1093086E+00
         21   -1    0    0  502  501  0.00000000000E+00  0.00000000000E+00  0.11617481171E+03  0.11617481171E+03  0.00000000000E+00 0.  1.
         21   -1    0    0  504  502 -0.00000000000E+00 -0.00000000000E+00 -0.18427689838E+04  0.18427689838E+04  0.00000000000E+00 0.  1.
         25    1    1    2    0    0  0.39997504607E+02 -0.23247785162E+03 -0.15816353226E+04  0.16040078072E+04  0.12500000000E+03 0.  0.
         21    1    1    2  503  501 -0.31766594758E+02  0.25601024789E+03 -0.57918068318E+02  0.26439528400E+03  0.00000000000E+00 0.  1.
         21    1    1    2  504  503 -0.82309098493E+01 -0.23532396263E+02 -0.87040781235E+02  0.90540704375E+02  0.00000000000E+00 0. -1.
<mgrwt>
<rscale>  4 0.28481851E+03</rscale>
<asrwt>0</asrwt>
<pdfrwt beam="1">  1       21 0.17873047E-01 0.28481851E+03</pdfrwt>
<pdfrwt beam="2">  1       21 0.28350293E+00 0.28481851E+03</pdfrwt>
<totfact> 0.10954078E+03</totfact>
</mgrwt>
</event>
<event>
 5    0  0.1911311E+001  0.2386211E+03  0.7546771E-02  0.1120715E+00
         21   -1    0    0  502  501  0.00000000000E+00  0.00000000000E+00  0.16666823858E+03  0.16666823858E+03  0.00000000000E+00 0. -1.
         21   -1    0    0  504  502 -0.00000000000E+00 -0.00000000000E+00 -0.79344144060E+03  0.79344144060E+03  0.00000000000E+00 0. -1.
         25    1    1    2    0    0 -0.18393340199E+03 -0.20547762512E+03 -0.16829772324E+03  0.34641257835E+03  0.12500000000E+03 0.  0.
         21    1    1    2  503  501  0.18864905316E+03  0.79178641146E+01 -0.12623065178E+03  0.22712405263E+03  0.00000000000E+00 0. -1.
         21    1    1    2  504  503 -0.47156511797E+01  0.19755976100E+03 -0.33224482700E+03  0.38657304821E+03  0.00000000000E+00 0. -1.
<mgrwt>
<rscale>  4 0.23862109E+03</rscale>
<asrwt>0</asrwt>
<pdfrwt beam="1">  1       21 0.25641267E-01 0.23862109E+03</pdfrwt>
<pdfrwt beam="2">  1       21 0.12206792E+00 0.23862109E+03</pdfrwt>
<totfact> 0.70695442E+03</totfact>
</mgrwt>
</event>
