<event>
 5    0  0.1911311E+001  0.2471527E+03  0.7546771E-02  0.1115118E+00
         21   -1    0    0  504  501  0.00000000000E+00  0.00000000000E+00  0.56976701111E+03  0.56976701111E+03  0.00000000000E+00 0.  1.
         21   -1    0    0  503  502 -0.00000000000E+00 -0.00000000000E+00 -0.42477188341E+03  0.42477188341E+03  0.00000000000E+00 0.  1.
         25    1    1    2    0    0 -0.17634859261E+03 -0.10170601970E+03  0.39220223122E+03  0.45922819026E+03  0.12500000000E+03 0.  0.
         21    1    1    2  503  501 -0.28131999445E+02 -0.30068908975E+02 -0.28602164520E+03  0.28897046597E+03  0.00000000000E+00 0.  1.
         21    1    1    2  504  502  0.20448059205E+03  0.13177492867E+03  0.38814541677E+02  0.24634023829E+03  0.00000000000E+00 0.  1.
<mgrwt>
<rscale>  4 0.24715267E+03</rscale>
<asrwt>0</asrwt>
<pdfrwt beam="1">  1       21 0.87656463E-01 0.24715267E+03</pdfrwt>
<pdfrwt beam="2">  1       21 0.65349521E-01 0.24715267E+03</pdfrwt>
<totfact> 0.23025958E+03</totfact>
</mgrwt>
</event>
<event>
 5    0  0.1911311E+001  0.2145289E+03  0.7546771E-02  0.1138029E+00
         21   -1    0    0  502  501  0.00000000000E+00  0.00000000000E+00  0.97987177544E+03  0.97987177544E+03  0.00000000000E+00 0. -1.
         21   -1    0    0  504  502 -0.00000000000E+00 -0.00000000000E+00 -0.86237282186E+02  0.86237282186E+02  0.00000000000E+00 0.  1.
         25    1    1    2    0    0  0.16078505513E+03 -0.18021405860E+03  0.28815143384E+03  0.39621356577E+03  0.12500000000E+03 0.  0.
         21    1    1    2  503  501 -0.97181845850E+02  0.12723487913E+03  0.54320041343E+03  0.56630355357E+03  0.00000000000E+00 0. -1.
         21    1    1    2  504  503 -0.63603209285E+02  0.52979179473E+02  0.62282645979E+02  0.10359193829E+03  0.00000000000E+00 0.  1.
<mgrwt>
<rscale>  4 0.21452894E+03</rscale>
<asrwt>0</asrwt>
<pdfrwt beam="1">  1       21 0.15074950E+00 0.21452894E+03</pdfrwt>
<pdfrwt beam="2">  1       21 0.13267275E-01 0.21452894E+03</pdfrwt>
<totfact> 0.14235775E+04</totfact>
</mgrwt>
</event>
<event>
 5    0  0.1911311E+001  0.4518042E+03  0.7546771E-02  0.1027185E+00
         21   -1    0    0  502  501  0.00000000000E+00  0.00000000000E+00  0.17812861828E+03  0.17812861828E+03  0.00000000000E+00 0.  1.
         21   -1    0    0  504  502 -0.00000000000E+00 -0.00000000000E+00 -0.14100598963E+04  0.14100598963E+04  0.00000000000E+00 0.  1.
         25    1    1    2    0    0  0.21386938939E+02 -0.44178102757E+03 -0.37048659800E+03  0.59035006291E+03  0.12500000000E+03 0.  0.
         21    1    1    2  503  501  0.15948893857E+02  0.12843314264E+02  0.12216065965E+02  0.23844290810E+02  0.00000000000E+00 0. -1.
         21    1    1    2  504  503 -0.37335832797E+02  0.42893771331E+03 -0.87366074598E+03  0.97399416085E+03  0.00000000000E+00 0.  1.
<mgrwt>
<rscale>  4 0.45180415E+03</rscale>
<asrwt>0</asrwt>
<pdfrwt beam="1">  1       21 0.27404403E-01 0.45180415E+03</pdfrwt>
<pdfrwt beam="2">  1       21 0.21693229E+00 0.45180415E+03</pdfrwt>
<totfact> 0.11092178E+03</totfact>
</mgrwt>
</event>
<event>
 5    0  0.1911311E+001  0.2927044E+03  0.7546771E-02  0.1088946E+00
         21   -1    0    0  504  501  0.00000000000E+00  0.00000000000E+00  0.42302589612E+03  0.42302589612E+03  0.00000000000E+00 0.  1.
         21   -1    0    0  503  502 -0.00000000000E+00 -0.00000000000E+00 -0.20265313593E+03  0.20265313593E+03  0.00000000000E+00 0.  1.
         25    1    1    2    0    0  0.24242038866E+03  0.10622243031E+03  0.16367134158E+03  0.33535676167E+03  0.12500000000E+03 0.  0.
         21    1    1    2  503  501 -0.56635179407E+02 -0.20820599271E+02 -0.30994565922E+02  0.67835860849E+02  0.00000000000E+00 0.  1.
         21    1    1    2  504  502 -0.18578520925E+03 -0.85401831040E+02  0.87695984530E+02  0.22248640953E+03  0.00000000000E+00 0.  1.
<mgrwt>
<rscale>  4 0.29270437E+03</rscale>
<asrwt>0</asrwt>
<pdfrwt beam="1">  1       21 0.65080907E-01 0.29270437E+03</pdfrwt>
<pdfrwt beam="2">  1       21 0.31177406E-01 0.29270437E+03</pdfrwt>
<totfact> 0.20436355E+04</totfact>
</mgrwt>
</event>
<event>
 5    0  0.1911311E+001  0.2491796E+03  0.7546771E-02  0.1113824E+00
         21   -1    0    0  504  501  0.00000000000E+00  0.00000000000E+00  0.22118573720E+03  0.22118573720E+03  0.00000000000E+00 0.  1.
         21   -1    0    0  501  502 -0.00000000000E+00 -0.00000000000E+00 -0.38912399355E+03  0.38912399355E+03  0.00000000000E+00 0.  1.
         25    1    1    2    0    0 -0.22462809898E+02 -0.23250979271E+03 -0.84588288147E+02  0.27811069743E+03  0.12500000000E+03 0.  0.
         21    1    1    2  503  502 -0.78267337107E+02  0.19829921970E+03 -0.37960551404E+02  0.21653951153E+03  0.00000000000E+00 0.  1.
         21    1    1    2  504  503  0.10073014701E+03  0.34210573009E+02 -0.45389416802E+02  0.11565952178E+03  0.00000000000E+00 0.  1.
<mgrwt>
<rscale>  4 0.24917955E+03</rscale>
<asrwt>0</asrwt>
<pdfrwt beam="1">  1       21 0.34028575E-01 0.24917955E+03</pdfrwt>
<pdfrwt beam="2">  1       21 0.59865229E-01 0.24917955E+03</pdfrwt>
<totfact> 0.21011644E+04</totfact>
</mgrwt>
</event>
<event>
 5    0  0.1911311E+001  0.2111960E+03  0.7546771E-02  0.1140622E+00
         21   -1    0    0  503  501  0.00000000000E+00  0.00000000000E+00  0.15236631259E+04  0.15236631259E+04  0.00000000000E+00 0. -1.
         21   -1    0    0  504  502 -0.00000000000E+00 -0.00000000000E+00 -0.13402744443E+03  0.13402744443E+03  0.00000000000E+00 0. -1.
         25    1    1    2    0    0  0.18839195181E+02  0.26759218716E+03  0.93135327063E+03  0.97724326993E+03  0.12500000000E+03 0.  0.
         21    1    1    2  503  502  0.80897770813E+02 -0.14489175708E+03 -0.28724360400E+02  0.16841365584E+03  0.00000000000E+00 0. -1.
         21    1    1    2  504  501 -0.99736965994E+02 -0.12270043008E+03  0.48700677127E+03  0.51203364459E+03  0.00000000000E+00 0. -1.
<mgrwt>
<rscale>  4 0.21119597E+03</rscale>
<asrwt>0</asrwt>
<pdfrwt beam="1">  1       21 0.23440970E+00 0.21119597E+03</pdfrwt>
<pdfrwt beam="2">  1       21 0.20619608E-01 0.21119597E+03</pdfrwt>
<totfact> 0.17578021E+03</totfact>
</mgrwt>
</event>
