<event>
 5    0  0.5719562E-003  0.8772272E+03  0.7546771E-02  0.9454505E-01
         -4   -1    0    0    0  501 -0.00000000000E+00  0.00000000000E+00  0.21698145458E+04  0.21698145458E+04  0.00000000000E+00 0. -1.
          4   -1    0    0  502    0  0.00000000000E+00 -0.00000000000E+00 -0.88662835493E+02  0.88662835493E+02  0.00000000000E+00 0.  1.
         25    1    1    2    0    0  0.41802078333E+03  0.12980604689E+02  0.12405623848E+04  0.13151159272E+04  0.12500000000E+03 0.  0.
          4    1    1    2  502    0 -0.67794190534E+02  0.74919890175E+01  0.75945440558E+02  0.10207787278E+03  0.00000000000E+00 0.  1.
         -4    1    1    2    0  501 -0.35022659280E+03 -0.20472593707E+02  0.76464388496E+03  0.84128358132E+03  0.00000000000E+00 0. -1.
<mgrwt>
<rscale>  4 0.87722725E+03</rscale>
<asrwt>0</asrwt>
<pdfrwt beam="1">  1        4 0.13640438E-01 0.87722725E+03</pdfrwt>
<pdfrwt beam="2">  1       -4 0.33381758E+00 0.87722725E+03</pdfrwt>
<totfact> 0.17943142E+00</totfact>
</mgrwt>
</event>
<event>
 5    0  0.5719562E-003  0.6830497E+03  0.7546771E-02  0.9746667E-01
         -2   -1    0    0    0  501 -0.00000000000E+00  0.00000000000E+00  0.14262348106E+03  0.14262348106E+03  0.00000000000E+00 0.  1.
          2   -1    0    0  502    0  0.00000000000E+00 -0.00000000000E+00 -0.81781215349E+03  0.81781215349E+03  0.00000000000E+00 0. -1.
         25    1    1    2    0    0 -0.46478973077E+02  0.21161507932E+03 -0.14310481958E+03  0.28817568621E+03  0.12500000000E+03 0.  0.
          4    1    1    2  502    0  0.91175037420E+02  0.50853693360E+01 -0.40899452529E+03  0.41906475651E+03  0.00000000000E+00 0. -1.
         -4    1    1    2    0  501 -0.44696064342E+02 -0.21670044865E+03 -0.12308932755E+03  0.25319519184E+03  0.00000000000E+00 0.  1.
<mgrwt>
<rscale>  4 0.68304968E+03</rscale>
<asrwt>0</asrwt>
<pdfrwt beam="1">  1        2 0.12581726E+00 0.68304968E+03</pdfrwt>
<pdfrwt beam="2">  1       -2 0.21942074E-01 0.68304968E+03</pdfrwt>
<totfact> 0.60954072E+02</totfact>
</mgrwt>
</event>
<event>
 5    0  0.5719562E-003  0.6776806E+03  0.7546771E-02  0.9756181E-01
         -1   -1    0    0    0  501 -0.00000000000E+00  0.00000000000E+00  0.18364949474E+03  0.18364949474E+03  0.00000000000E+00 0. -1.
          1   -1    0    0  502    0  0.00000000000E+00 -0.00000000000E+00 -0.62517325521E+03  0.62517325521E+03  0.00000000000E+00 0.  1.
         25    1    1    2    0    0  0.78337966695E+02  0.19592961842E+03  0.52170075120E+02  0.25074283467E+03  0.12500000000E+03 0.  0.
          2    1    1    2  502    0 -0.51620125864E+02 -0.11763892800E+03 -0.44255873399E+03  0.46082728631E+03  0.00000000000E+00 0.  1.
         -2    1    1    2    0  501 -0.26717840830E+02 -0.78290690423E+02 -0.51135101597E+02  0.97252628967E+02  0.00000000000E+00 0. -1.
<mgrwt>
<rscale>  4 0.67768061E+03</rscale>
<asrwt>0</asrwt>
<pdfrwt beam="1">  1        1 0.96180501E-01 0.67768061E+03</pdfrwt>
<pdfrwt beam="2">  1       -1 0.28253768E-01 0.67768061E+03</pdfrwt>
<totfact> 0.36970826E+02</totfact>
</mgrwt>
</event>
<event>
 5    0  0.5719562E-003  0.1004453E+04  0.7546771E-02  0.9303675E-01
          1   -1    0    0  502    0  0.00000000000E+00  0.00000000000E+00  0.93985559380E+03  0.93985559380E+03  0.00000000000E+00 0.  1.
         -1   -1    0    0    0  501 -0.00000000000E+00 -0.00000000000E+00 -0.26837236717E+03  0.26837236717E+03  0.00000000000E+00 0. -1.
         25    1    1    2    0    0 -0.18456725341E+03  0.32764873396E+03  0.55767385690E+03  0.68413733604E+03  0.12500000000E+03 0.  0.
          4    1    1    2  502    0  0.13062929659E+03 -0.35966656411E+03 -0.12721761646E+02  0.38286537280E+03  0.00000000000E+00 0. -1.
         -4    1    1    2    0  501  0.53937956823E+02  0.32017830150E+02  0.12653113137E+03  0.14122525214E+03  0.00000000000E+00 0.  1.
<mgrwt>
<rscale>  4 0.10044526E+04</rscale>
<asrwt>0</asrwt>
<pdfrwt beam="1">  1        1 0.14459317E+00 0.10044526E+04</pdfrwt>
<pdfrwt beam="2">  1       -1 0.41288057E-01 0.10044526E+04</pdfrwt>
<totfact> 0.97188396E+01</totfact>
</mgrwt>
</event>
<event>
 5    0  0.5719562E-003  0.4784985E+03  0.7546771E-02  0.1019549E+00
         -1   -1    0    0    0  501 -0.00000000000E+00  0.00000000000E+00  0.64945580928E+02  0.64945580928E+02  0.00000000000E+00 0.  1.
          1   -1    0    0  502    0  0.00000000000E+00 -0.00000000000E+00 -0.88135640224E+03  0.88135640224E+03  0.00000000000E+00 0. -1.
         25    1    1    2    0    0 -0.13660601784E+03 -0.15387005064E+03 -0.36744530889E+03  0.43929289958E+03  0.12500000000E+03 0.  0.
          2    1    1    2  502    0  0.45468029669E+02 -0.50623742055E+01 -0.14555078338E+03  0.15257129447E+03  0.00000000000E+00 0. -1.
         -2    1    1    2    0  501  0.91137988175E+02  0.15893242484E+03 -0.30341472904E+03  0.35443778911E+03  0.00000000000E+00 0.  1.
<mgrwt>
<rscale>  4 0.47849850E+03</rscale>
<asrwt>0</asrwt>
<pdfrwt beam="1">  1        1 0.13559329E+00 0.47849850E+03</pdfrwt>
<pdfrwt beam="2">  1       -1 0.99916278E-02 0.47849850E+03</pdfrwt>
<totfact> 0.12034490E+03</totfact>
</mgrwt>
</event>
<event>
 5    0  0.5719562E-003  0.5000851E+03  0.7546771E-02  0.1013757E+00
          2   -1    0    0  502    0  0.00000000000E+00  0.00000000000E+00  0.51273875479E+03  0.51273875479E+03  0.00000000000E+00 0.  1.
         -2   -1    0    0    0  501 -0.00000000000E+00 -0.00000000000E+00 -0.12193594200E+03  0.12193594200E+03  0.00000000000E+00 0. -1.
         25    1    1    2    0    0  0.22367370634E+02  0.22522095586E+03  0.26843979847E+03  0.37270592110E+03  0.12500000000E+03 0.  0.
          3    1    1    2  502    0 -0.14351278925E+02 -0.17256538370E+03  0.11577796278E+03  0.20830100221E+03  0.00000000000E+00 0.  1.
         -3    1    1    2    0  501 -0.80160917094E+01 -0.52655572161E+02  0.65850515571E+01  0.53667773476E+02  0.00000000000E+00 0. -1.
<mgrwt>
<rscale>  4 0.50008513E+03</rscale>
<asrwt>0</asrwt>
<pdfrwt beam="1">  1        2 0.78882884E-01 0.50008513E+03</pdfrwt>
<pdfrwt beam="2">  1       -2 0.18759376E-01 0.50008513E+03</pdfrwt>
<totfact> 0.14264152E+03</totfact>
</mgrwt>
</event>
<event>
 5    0  0.5719562E-003  0.5053122E+03  0.7546771E-02  0.1012402E+00
          1   -1    0    0  502    0  0.00000000000E+00  0.00000000000E+00  0.15460765475E+03  0.15460765475E+03  0.00000000000E+00 0. -1.
         -1   -1    0    0    0  501 -0.00000000000E+00 -0.00000000000E+00 -0.41288452740E+03  0.41288452740E+03  0.00000000000E+00 0.  1.
         25    1    1    2    0    0 -0.16705931989E+03  0.16288399197E+03 -0.16243630932E+03  0.31056491397E+03  0.12500000000E+03 0.  0.
          4    1    1    2  502    0  0.43889342993E+02 -0.21036605639E+02 -0.33130779161E+02  0.58876665436E+02  0.00000000000E+00 0.  1.
         -4    1    1    2    0  501  0.12316997689E+03 -0.14184738633E+03 -0.62709784168E+02  0.19805060275E+03  0.00000000000E+00 0. -1.
<mgrwt>
<rscale>  4 0.50531221E+03</rscale>
<asrwt>0</asrwt>
<pdfrwt beam="1">  1        1 0.23785793E-01 0.50531221E+03</pdfrwt>
<pdfrwt beam="2">  1       -1 0.63520697E-01 0.50531221E+03</pdfrwt>
<totfact> 0.53004714E+02</totfact>
</mgrwt>
</event>
<event>
 5    0  0.5719562E-003  0.7971600E+03  0.7546771E-02  0.9564137E-01
         -1   -1    0    0    0  501 -0.00000000000E+00  0.00000000000E+00  0.43222030563E+03  0.43222030563E+03  0.00000000000E+00 0.  1.
          1   -1    0    0  502    0  0.00000000000E+00 -0.00000000000E+00 -0.36755792710E+03  0.36755792710E+03  0.00000000000E+00 0. -1.
         25    1    1    2    0    0  0.26395420872E+03  0.56590328344E+02  0.15162838885E+03  0.33390186862E+03  0.12500000000E+03 0.  0.
          1    1    1    2  502    0 -0.15735772755E+03  0.13751360300E+03 -0.12153250137E+03  0.24174696341E+03  0.00000000000E+00 0. -1.
         -1    1    1    2    0  501 -0.10659648117E+03 -0.19410393134E+03  0.34566491050E+02  0.22412940071E+03  0.00000000000E+00 0.  1.
<mgrwt>
<rscale>  4 0.79715996E+03</rscale>
<asrwt>0</asrwt>
<pdfrwt beam="1">  1        1 0.56547373E-01 0.79715996E+03</pdfrwt>
<pdfrwt beam="2">  1       -1 0.66495432E-01 0.79715996E+03</pdfrwt>
<totfact> 0.15575543E+02</totfact>
</mgrwt>
</event>
<event>
 5    0  0.5719562E-003  0.6515139E+03  0.7546771E-02  0.9803943E-01
          1   -1    0    0  502    0  0.00000000000E+00  0.00000000000E+00  0.14757142239E+03  0.14757142239E+03  0.00000000000E+00 0. -1.
         -1   -1    0    0    0  501 -0.00000000000E+00 -0.00000000000E+00 -0.71909302261E+03  0.71909302261E+03  0.00000000000E+00 0.  1.
         25    1    1    2    0    0 -0.20743213385E+03  0.67275215512E+02 -0.21854860113E+03  0.33308037443E+03  0.12500000000E+03 0.  0.
          1    1    1    2  502    0  0.26636014860E+02  0.15806472558E+02  0.64260663893E+02  0.71335508594E+02  0.00000000000E+00 0. -1.
         -1    1    1    2    0  501  0.18079611899E+03 -0.83081688070E+02 -0.41723366298E+03  0.46224856198E+03  0.00000000000E+00 0.  1.
<mgrwt>
<rscale>  4 0.65151387E+03</rscale>
<asrwt>0</asrwt>
<pdfrwt beam="1">  1        1 0.22703295E-01 0.65151387E+03</pdfrwt>
<pdfrwt beam="2">  1       -1 0.11062970E+00 0.65151387E+03</pdfrwt>
<totfact> 0.16991952E+02</totfact>
</mgrwt>
</event>
<event>
 5    0  0.5719562E-003  0.5275106E+03  0.7546771E-02  0.1006838E+00
         -2   -1    0    0    0  501 -0.00000000000E+00  0.00000000000E+00  0.23129036107E+03  0.23129036107E+03  0.00000000000E+00 0. -1.
          2   -1    0    0  502    0  0.00000000000E+00 -0.00000000000E+00 -0.30077720627E+03  0.30077720627E+03  0.00000000000E+00 0.  1.
         25    1    1    2    0    0 -0.24406796653E+03 -0.25047765402E+02 -0.25521412327E+02  0.27653734888E+03  0.12500000000E+03 0.  0.
          4    1    1    2  502    0  0.13069738472E+03  0.34585730597E+02 -0.50594290164E+01  0.13529071275E+03  0.00000000000E+00 0. -1.
         -4    1    1    2    0  501  0.11337058180E+03 -0.95379651947E+01 -0.38906003854E+02  0.12023950571E+03  0.00000000000E+00 0.  1.
<mgrwt>
<rscale>  4 0.52751064E+03</rscale>
<asrwt>0</asrwt>
<pdfrwt beam="1">  1        2 0.46273416E-01 0.52751064E+03</pdfrwt>
<pdfrwt beam="2">  1       -2 0.35583133E-01 0.52751064E+03</pdfrwt>
<totfact> 0.81574365E+02</totfact>
</mgrwt>
</event>
<event>
 5    0  0.5719562E-003  0.6286830E+03  0.7546771E-02  0.9847622E-01
         -2   -1    0    0    0  501 -0.00000000000E+00  0.00000000000E+00  0.28979643759E+03  0.28979643759E+03  0.00000000000E+00 0. -1.
          2   -1    0    0  502    0  0.00000000000E+00 -0.00000000000E+00 -0.34096550839E+03  0.34096550839E+03  0.00000000000E+00 0.  1.
         25    1    1    2    0    0  0.25196892944E+03 -0.15589410301E+03 -0.56973748719E+02  0.32659197908E+03  0.12500000000E+03 0.  0.
          4    1    1    2  502    0 -0.30223109110E+02  0.17799513264E+02 -0.22094626496E+02  0.41453968648E+02  0.00000000000E+00 0.  1.
         -4    1    1    2    0  501 -0.22174582033E+03  0.13809458975E+03  0.27899304414E+02  0.26271599825E+03  0.00000000000E+00 0. -1.
<mgrwt>
<rscale>  4 0.62868304E+03</rscale>
<asrwt>0</asrwt>
<pdfrwt beam="1">  1        2 0.52456232E-01 0.62868304E+03</pdfrwt>
<pdfrwt beam="2">  1       -2 0.44584067E-01 0.62868304E+03</pdfrwt>
<totfact> 0.45792773E+02</totfact>
</mgrwt>
</event>
<event>
 5    0  0.5719562E-003  0.6303986E+03  0.7546771E-02  0.9844271E-01
          1   -1    0    0  502    0  0.00000000000E+00  0.00000000000E+00  0.88412908707E+02  0.88412908707E+02  0.00000000000E+00 0. -1.
         -1   -1    0    0    0  501 -0.00000000000E+00 -0.00000000000E+00 -0.11237115177E+04  0.11237115177E+04  0.00000000000E+00 0.  1.
         25    1    1    2    0    0  0.48131165250E+02 -0.21061304892E+03 -0.35869506789E+03  0.43699155275E+03  0.12500000000E+03 0.  0.
          1    1    1    2  502    0  0.69402095675E+02  0.24422813160E+03 -0.49330040619E+03  0.55480566138E+03  0.00000000000E+00 0.  1.
         -1    1    1    2    0  501 -0.11753326093E+03 -0.33615082675E+02 -0.18330313496E+03  0.22032721233E+03  0.00000000000E+00 0. -1.
<mgrwt>
<rscale>  4 0.63039862E+03</rscale>
<asrwt>0</asrwt>
<pdfrwt beam="1">  1        1 0.13601986E-01 0.63039862E+03</pdfrwt>
<pdfrwt beam="2">  1       -1 0.17287869E+00 0.63039862E+03</pdfrwt>
<totfact> 0.10589159E+02</totfact>
</mgrwt>
</event>
<event>
 5    0  0.5719562E-003  0.7590377E+03  0.7546771E-02  0.9621277E-01
          2   -1    0    0  502    0  0.00000000000E+00  0.00000000000E+00  0.28229595344E+04  0.28229595344E+04  0.00000000000E+00 0. -1.
         -2   -1    0    0    0  501 -0.00000000000E+00 -0.00000000000E+00 -0.51022533324E+02  0.51022533324E+02  0.00000000000E+00 0.  1.
         25    1    1    2    0    0 -0.41325104760E+02 -0.27472182928E+03  0.13265600997E+04  0.13610902049E+04  0.12500000000E+03 0.  0.
          4    1    1    2  502    0  0.54458379292E+02 -0.67698262319E+02  0.49629159321E+03  0.50383937449E+03  0.00000000000E+00 0. -1.
         -4    1    1    2    0  501 -0.13133274531E+02  0.34242009160E+03  0.94908530821E+03  0.10090524884E+04  0.00000000000E+00 0.  1.
<mgrwt>
<rscale>  4 0.75903767E+03</rscale>
<asrwt>0</asrwt>
<pdfrwt beam="1">  1        2 0.43430134E+00 0.75903767E+03</pdfrwt>
<pdfrwt beam="2">  1       -2 0.78496227E-02 0.75903767E+03</pdfrwt>
<totfact> 0.23799945E+02</totfact>
</mgrwt>
</event>
<event>
 5    0  0.5719562E-003  0.1031974E+04  0.7546771E-02  0.9274155E-01
          1   -1    0    0  502    0  0.00000000000E+00  0.00000000000E+00  0.11438682727E+04  0.11438682727E+04  0.00000000000E+00 0. -1.
         -1   -1    0    0    0  501 -0.00000000000E+00 -0.00000000000E+00 -0.23275630529E+03  0.23275630529E+03  0.00000000000E+00 0.  1.
         25    1    1    2    0    0 -0.24758262018E+02  0.31094574094E+03  0.47589781661E+03  0.58258386280E+03  0.12500000000E+03 0.  0.
          2    1    1    2  502    0  0.20010298645E+03 -0.23780531480E+02 -0.46162192432E+02  0.20673090450E+03  0.00000000000E+00 0.  1.
         -2    1    1    2    0  501 -0.17534472444E+03 -0.28716520946E+03  0.48137634329E+03  0.58730981074E+03  0.00000000000E+00 0. -1.
<mgrwt>
<rscale>  4 0.10319739E+04</rscale>
<asrwt>0</asrwt>
<pdfrwt beam="1">  1        1 0.17597973E+00 0.10319739E+04</pdfrwt>
<pdfrwt beam="2">  1       -1 0.35808663E-01 0.10319739E+04</pdfrwt>
<totfact> 0.87523233E+01</totfact>
</mgrwt>
</event>
<event>
 5    0  0.5719562E-003  0.5568206E+03  0.7546771E-02  0.9999274E-01
         -2   -1    0    0    0  501 -0.00000000000E+00  0.00000000000E+00  0.88651921974E+02  0.88651921974E+02  0.00000000000E+00 0. -1.
          2   -1    0    0  502    0  0.00000000000E+00 -0.00000000000E+00 -0.87434425846E+03  0.87434425846E+03  0.00000000000E+00 0.  1.
         25    1    1    2    0    0  0.37235983167E+02  0.21529411562E+03 -0.52088609968E+03  0.57852001133E+03  0.12500000000E+03 0.  0.
          1    1    1    2  502    0  0.17882400800E+02 -0.35927833849E+02 -0.16917195268E+03  0.17386701549E+03  0.00000000000E+00 0.  1.
         -1    1    1    2    0  501 -0.55118383968E+02 -0.17936628177E+03 -0.95634284128E+02  0.21060915362E+03  0.00000000000E+00 0. -1.
<mgrwt>
<rscale>  4 0.55682061E+03</rscale>
<asrwt>0</asrwt>
<pdfrwt beam="1">  1        2 0.13451450E+00 0.55682061E+03</pdfrwt>
<pdfrwt beam="2">  1       -2 0.13638757E-01 0.55682061E+03</pdfrwt>
<totfact> 0.12625019E+03</totfact>
</mgrwt>
</event>
<event>
 5    0  0.5719562E-003  0.6282616E+03  0.7546771E-02  0.9848447E-01
          2   -1    0    0  502    0  0.00000000000E+00  0.00000000000E+00  0.16353154094E+04  0.16353154094E+04  0.00000000000E+00 0.  1.
         -2   -1    0    0    0  501 -0.00000000000E+00 -0.00000000000E+00 -0.60341982717E+02  0.60341982717E+02  0.00000000000E+00 0. -1.
         25    1    1    2    0    0 -0.19271176901E+03  0.80549329490E+02  0.13792308332E+04  0.14005458620E+04  0.12500000000E+03 0.  0.
          3    1    1    2  502    0  0.40139121325E+02 -0.24244011044E+02  0.94796238735E+01  0.47841241634E+02  0.00000000000E+00 0.  1.
         -3    1    1    2    0  501  0.15257264769E+03 -0.56305318445E+02  0.18626296964E+03  0.24727028848E+03  0.00000000000E+00 0. -1.
<mgrwt>
<rscale>  4 0.62826165E+03</rscale>
<asrwt>0</asrwt>
<pdfrwt beam="1">  1        2 0.25158695E+00 0.62826165E+03</pdfrwt>
<pdfrwt beam="2">  1       -2 0.92833832E-02 0.62826165E+03</pdfrwt>
<totfact> 0.84283144E+02</totfact>
</mgrwt>
</event>
<event>
 5    0  0.5719562E-003  0.6029267E+03  0.7546771E-02  0.9899353E-01
          2   -1    0    0  502    0  0.00000000000E+00  0.00000000000E+00  0.50774571460E+03  0.50774571460E+03  0.00000000000E+00 0. -1.
         -2   -1    0    0    0  501 -0.00000000000E+00 -0.00000000000E+00 -0.17898753529E+03  0.17898753529E+03  0.00000000000E+00 0.  1.
         25    1    1    2    0    0  0.25008824705E+03  0.15835390641E+02  0.13148609699E+03  0.30936787909E+03  0.12500000000E+03 0.  0.
          3    1    1    2  502    0 -0.16292475041E+03 -0.10276268811E+03  0.84232652084E+02  0.21023744681E+03  0.00000000000E+00 0. -1.
         -3    1    1    2    0  501 -0.87163496640E+02  0.86927297472E+02  0.11303943024E+03  0.16712792400E+03  0.00000000000E+00 0.  1.
<mgrwt>
<rscale>  4 0.60292671E+03</rscale>
<asrwt>0</asrwt>
<pdfrwt beam="1">  1        2 0.78114725E-01 0.60292671E+03</pdfrwt>
<pdfrwt beam="2">  1       -2 0.27536544E-01 0.60292671E+03</pdfrwt>
<totfact> 0.73055675E+02</totfact>
</mgrwt>
</event>
<event>
 5    0  0.5719562E-003  0.4804124E+03  0.7546771E-02  0.1019022E+00
         -2   -1    0    0    0  501 -0.00000000000E+00  0.00000000000E+00  0.48540721483E+02  0.48540721483E+02  0.00000000000E+00 0. -1.
          2   -1    0    0  502    0  0.00000000000E+00 -0.00000000000E+00 -0.11886725272E+04  0.11886725272E+04  0.00000000000E+00 0.  1.
         25    1    1    2    0    0 -0.19724329070E+03  0.50874068780E+02 -0.64186038668E+03  0.68491082821E+03  0.12500000000E+03 0.  0.
          1    1    1    2  502    0  0.14993599194E+03 -0.83921157358E+02 -0.29911635589E+03  0.34495529666E+03  0.00000000000E+00 0. -1.
         -1    1    1    2    0  501  0.47307298767E+02  0.33047088579E+02 -0.19915506311E+03  0.20734712379E+03  0.00000000000E+00 0.  1.
<mgrwt>
<rscale>  4 0.48041241E+03</rscale>
<asrwt>0</asrwt>
<pdfrwt beam="1">  1        2 0.18287269E+00 0.48041241E+03</pdfrwt>
<pdfrwt beam="2">  1       -2 0.74678034E-02 0.48041241E+03</pdfrwt>
<totfact> 0.21340897E+03</totfact>
</mgrwt>
</event>
<event>
 5    0  0.5719562E-003  0.5653432E+03  0.7546771E-02  0.9980037E-01
         -1   -1    0    0    0  501 -0.00000000000E+00  0.00000000000E+00  0.33343540257E+03  0.33343540257E+03  0.00000000000E+00 0.  1.
          1   -1    0    0  502    0  0.00000000000E+00 -0.00000000000E+00 -0.23963633613E+03  0.23963633613E+03  0.00000000000E+00 0. -1.
         25    1    1    2    0    0 -0.78619996550E+02 -0.19095764951E+03  0.25165476917E+02  0.24270193446E+03  0.12500000000E+03 0.  0.
          2    1    1    2  502    0  0.51162584315E+02 -0.55166137683E+02  0.21757704508E+02  0.78321839139E+02  0.00000000000E+00 0. -1.
         -2    1    1    2    0  501  0.27457412235E+02  0.24612378719E+03  0.46875885018E+02  0.25204796509E+03  0.00000000000E+00 0.  1.
<mgrwt>
<rscale>  4 0.56534322E+03</rscale>
<asrwt>0</asrwt>
<pdfrwt beam="1">  1        1 0.36867129E-01 0.56534322E+03</pdfrwt>
<pdfrwt beam="2">  1       -1 0.51297754E-01 0.56534322E+03</pdfrwt>
<totfact> 0.45458489E+02</totfact>
</mgrwt>
</event>
<event>
 5    0  0.5719562E-003  0.5350052E+03  0.7546771E-02  0.1005025E+00
         -2   -1    0    0    0  501 -0.00000000000E+00  0.00000000000E+00  0.66640687071E+02  0.66640687071E+02  0.00000000000E+00 0. -1.
          2   -1    0    0  502    0  0.00000000000E+00 -0.00000000000E+00 -0.10737829850E+04  0.10737829850E+04  0.00000000000E+00 0.  1.
         25    1    1    2    0    0  0.88524826574E+02  0.19808139662E+03 -0.31450497621E+03  0.40200903555E+03  0.12500000000E+03 0.  0.
          4    1    1    2  502    0 -0.27870516230E+02 -0.19103764432E+03 -0.56137284085E+03  0.59364266496E+03  0.00000000000E+00 0.  1.
         -4    1    1    2    0  501 -0.60654310344E+02 -0.70437522972E+01 -0.13126448087E+03  0.14477197155E+03  0.00000000000E+00 0. -1.
<mgrwt>
<rscale>  4 0.53500518E+03</rscale>
<asrwt>0</asrwt>
<pdfrwt beam="1">  1        2 0.16519738E+00 0.53500518E+03</pdfrwt>
<pdfrwt beam="2">  1       -2 0.10252414E-01 0.53500518E+03</pdfrwt>
<totfact> 0.15039618E+03</totfact>
</mgrwt>
</event>
<event>
 5    0  0.5719562E-003  0.6726418E+03  0.7546771E-02  0.9765197E-01
         -1   -1    0    0    0  501 -0.00000000000E+00  0.00000000000E+00  0.27372682435E+03  0.27372682435E+03  0.00000000000E+00 0.  1.
          1   -1    0    0  502    0  0.00000000000E+00 -0.00000000000E+00 -0.41322859785E+03  0.41322859785E+03  0.00000000000E+00 0. -1.
         25    1    1    2    0    0 -0.48895904858E+02 -0.30974973759E+03 -0.77500873467E+02  0.34636266374E+03  0.12500000000E+03 0.  0.
          1    1    1    2  502    0  0.63574688012E+02  0.17180744185E+03 -0.81507507278E+02  0.20050688710E+03  0.00000000000E+00 0.  1.
         -1    1    1    2    0  501 -0.14678783154E+02  0.13794229574E+03  0.19506607250E+02  0.14008587136E+03  0.00000000000E+00 0. -1.
<mgrwt>
<rscale>  4 0.67264181E+03</rscale>
<asrwt>0</asrwt>
<pdfrwt beam="1">  1        1 0.63573630E-01 0.67264181E+03</pdfrwt>
<pdfrwt beam="2">  1       -1 0.42111820E-01 0.67264181E+03</pdfrwt>
<totfact> 0.32239509E+02</totfact>
</mgrwt>
</event>
<event>
 5    0  0.5719562E-003  0.5696310E+03  0.7546771E-02  0.9970495E-01
          2   -1    0    0  502    0  0.00000000000E+00  0.00000000000E+00  0.55440716578E+02  0.55440716578E+02  0.00000000000E+00 0. -1.
         -2   -1    0    0    0  501 -0.00000000000E+00 -0.00000000000E+00 -0.14631821675E+04  0.14631821675E+04  0.00000000000E+00 0.  1.
         25    1    1    2    0    0  0.52967867423E+02  0.19750831692E+03 -0.88373898006E+03  0.91566080790E+03  0.12500000000E+03 0.  0.
          1    1    1    2  502    0 -0.12071711283E+03 -0.49048460535E+02 -0.28719755342E+03  0.31537407551E+03  0.00000000000E+00 0.  1.
         -1    1    1    2    0  501  0.67749245409E+02 -0.14845985638E+03 -0.23680491746E+03  0.28758800069E+03  0.00000000000E+00 0. -1.
<mgrwt>
<rscale>  4 0.56963100E+03</rscale>
<asrwt>0</asrwt>
<pdfrwt beam="1">  1        2 0.85293410E-02 0.56963100E+03</pdfrwt>
<pdfrwt beam="2">  1       -2 0.22510495E+00 0.56963100E+03</pdfrwt>
<totfact> 0.77338529E+01</totfact>
</mgrwt>
</event>
<event>
 5    0  0.5719562E-003  0.4638482E+03  0.7546771E-02  0.1023671E+00
         -2   -1    0    0    0  501 -0.00000000000E+00  0.00000000000E+00  0.44164962814E+02  0.44164962814E+02  0.00000000000E+00 0. -1.
          2   -1    0    0  502    0  0.00000000000E+00 -0.00000000000E+00 -0.12179062183E+04  0.12179062183E+04  0.00000000000E+00 0.  1.
         25    1    1    2    0    0  0.20134849186E+03  0.60801173003E+02 -0.70552149011E+03  0.74674197071E+03  0.12500000000E+03 0.  0.
          4    1    1    2  502    0 -0.19966789791E+02 -0.79387361766E+01 -0.90237472894E+02  0.92760431979E+02  0.00000000000E+00 0.  1.
         -4    1    1    2    0  501 -0.18138170207E+03 -0.52862436826E+02 -0.37798229252E+03  0.42256877847E+03  0.00000000000E+00 0. -1.
<mgrwt>
<rscale>  4 0.46384818E+03</rscale>
<asrwt>0</asrwt>
<pdfrwt beam="1">  1        2 0.18737016E+00 0.46384818E+03</pdfrwt>
<pdfrwt beam="2">  1       -2 0.67946106E-02 0.46384818E+03</pdfrwt>
<totfact> 0.23816899E+03</totfact>
</mgrwt>
</event>
<event>
 5    0  0.5719562E-003  0.5145127E+03  0.7546771E-02  0.1010059E+00
         -2   -1    0    0    0  501 -0.00000000000E+00  0.00000000000E+00  0.56528740397E+02  0.56528740397E+02  0.00000000000E+00 0. -1.
          2   -1    0    0  502    0  0.00000000000E+00 -0.00000000000E+00 -0.11707466234E+04  0.11707466234E+04  0.00000000000E+00 0.  1.
         25    1    1    2    0    0 -0.24675948249E+02  0.23503011576E+03 -0.55873147402E+03  0.61939802857E+03  0.12500000000E+03 0.  0.
          1    1    1    2  502    0  0.58376474784E+00 -0.20702883389E+03 -0.43311071886E+03  0.48004809513E+03  0.00000000000E+00 0. -1.
         -1    1    1    2    0  501  0.24092183501E+02 -0.28001281869E+02 -0.12237569016E+03  0.12782924014E+03  0.00000000000E+00 0.  1.
<mgrwt>
<rscale>  4 0.51451271E+03</rscale>
<asrwt>0</asrwt>
<pdfrwt beam="1">  1        2 0.18011486E+00 0.51451271E+03</pdfrwt>
<pdfrwt beam="2">  1       -2 0.86967295E-02 0.51451271E+03</pdfrwt>
<totfact> 0.17153605E+03</totfact>
</mgrwt>
</event>
<event>
 5    0  0.5719562E-003  0.6476494E+03  0.7546771E-02  0.9811200E-01
          2   -1    0    0  502    0  0.00000000000E+00  0.00000000000E+00  0.53656085827E+03  0.53656085827E+03  0.00000000000E+00 0.  1.
         -2   -1    0    0    0  501 -0.00000000000E+00 -0.00000000000E+00 -0.19543439382E+03  0.19543439382E+03  0.00000000000E+00 0. -1.
         25    1    1    2    0    0 -0.80716884290E+02 -0.23047039035E+03  0.19374364034E+03  0.33584730818E+03  0.12500000000E+03 0.  0.
          1    1    1    2  502    0  0.83178957771E+02  0.83247337970E+02  0.20633993478E+03  0.23753952719E+03  0.00000000000E+00 0.  1.
         -1    1    1    2    0  501 -0.24620734814E+01  0.14722305238E+03 -0.58957110663E+02  0.15860841672E+03  0.00000000000E+00 0. -1.
<mgrwt>
<rscale>  4 0.64764943E+03</rscale>
<asrwt>0</asrwt>
<pdfrwt beam="1">  1        2 0.82547824E-01 0.64764943E+03</pdfrwt>
<pdfrwt beam="2">  1       -2 0.30066830E-01 0.64764943E+03</pdfrwt>
<totfact> 0.58236084E+02</totfact>
</mgrwt>
</event>
<event>
 5    0  0.5719562E-003  0.5241745E+03  0.7546771E-02  0.1007655E+00
         -1   -1    0    0    0  501 -0.00000000000E+00  0.00000000000E+00  0.18804601199E+03  0.18804601199E+03  0.00000000000E+00 0.  1.
          1   -1    0    0  502    0  0.00000000000E+00 -0.00000000000E+00 -0.36528148382E+03  0.36528148382E+03  0.00000000000E+00 0. -1.
         25    1    1    2    0    0  0.14536739202E+01 -0.20266764720E+03 -0.26272364930E+02  0.23956528452E+03  0.12500000000E+03 0.  0.
          3    1    1    2  502    0  0.51637268122E+02  0.10773281704E+03  0.95679083946E+01  0.11985120857E+03  0.00000000000E+00 0.  1.
         -3    1    1    2    0  501 -0.53090942043E+02  0.94934830159E+02 -0.16053101530E+03  0.19391100272E+03  0.00000000000E+00 0. -1.
<mgrwt>
<rscale>  4 0.52417450E+03</rscale>
<asrwt>0</asrwt>
<pdfrwt beam="1">  1        1 0.56197151E-01 0.52417450E+03</pdfrwt>
<pdfrwt beam="2">  1       -1 0.28930156E-01 0.52417450E+03</pdfrwt>
<totfact> 0.74102569E+02</totfact>
</mgrwt>
</event>
<event>
 5    0  0.5719562E-003  0.4967798E+03  0.7546771E-02  0.1014623E+00
         -2   -1    0    0    0  501 -0.00000000000E+00  0.00000000000E+00  0.15547468108E+03  0.15547468108E+03  0.00000000000E+00 0. -1.
          2   -1    0    0  502    0  0.00000000000E+00 -0.00000000000E+00 -0.39683340025E+03  0.39683340025E+03  0.00000000000E+00 0.  1.
         25    1    1    2    0    0 -0.16337851354E+03  0.11701924908E+03 -0.18968115743E+03  0.30329850779E+03  0.12500000000E+03 0.  0.
          1    1    1    2  502    0  0.15007374492E+03 -0.13498188872E+03 -0.10456556943E+02  0.20211773495E+03  0.00000000000E+00 0. -1.
         -1    1    1    2    0  501  0.13304768616E+02  0.17962639641E+02 -0.41221004797E+02  0.46891838599E+02  0.00000000000E+00 0.  1.
<mgrwt>
<rscale>  4 0.49677982E+03</rscale>
<asrwt>0</asrwt>
<pdfrwt beam="1">  1        2 0.61051291E-01 0.49677982E+03</pdfrwt>
<pdfrwt beam="2">  1       -2 0.23919182E-01 0.49677982E+03</pdfrwt>
<totfact> 0.12452238E+03</totfact>
</mgrwt>
</event>
<event>
 5    0  0.5719562E-003  0.4683174E+03  0.7546771E-02  0.1022396E+00
         -4   -1    0    0    0  501 -0.00000000000E+00  0.00000000000E+00  0.41743085014E+03  0.41743085014E+03  0.00000000000E+00 0.  1.
          4   -1    0    0  502    0  0.00000000000E+00 -0.00000000000E+00 -0.13135178280E+03  0.13135178280E+03  0.00000000000E+00 0. -1.
         25    1    1    2    0    0 -0.11022831039E+03 -0.17804991946E+03  0.11521631357E+03  0.26972551445E+03  0.12500000000E+03 0.  0.
          4    1    1    2  502    0  0.77252592117E+02  0.11830867640E+03  0.15352713911E+03  0.20865159559E+03  0.00000000000E+00 0.  1.
         -4    1    1    2    0  501  0.32975718269E+02  0.59741243063E+02  0.17335614665E+02  0.70405522894E+02  0.00000000000E+00 0. -1.
<mgrwt>
<rscale>  4 0.46831736E+03</rscale>
<asrwt>0</asrwt>
<pdfrwt beam="1">  1        4 0.20207967E-01 0.46831736E+03</pdfrwt>
<pdfrwt beam="2">  1       -4 0.64220130E-01 0.46831736E+03</pdfrwt>
<totfact> 0.99311855E+01</totfact>
</mgrwt>
</event>
<event>
 5    0  0.5719562E-003  0.7368032E+03  0.7546771E-02  0.9656285E-01
          2   -1    0    0  502    0  0.00000000000E+00  0.00000000000E+00  0.81843659565E+03  0.81843659565E+03  0.00000000000E+00 0.  1.
         -2   -1    0    0    0  501 -0.00000000000E+00 -0.00000000000E+00 -0.16582802069E+03  0.16582802069E+03  0.00000000000E+00 0. -1.
         25    1    1    2    0    0  0.28667649282E+03  0.14494690512E+02  0.60970452748E+03  0.68538902706E+03  0.12500000000E+03 0.  0.
          4    1    1    2  502    0 -0.27637945368E+02  0.42615686360E-02  0.27478572972E+02  0.38973427036E+02  0.00000000000E+00 0.  1.
         -4    1    1    2    0  501 -0.25903854745E+03 -0.14498952081E+02  0.15425474508E+02  0.25990216225E+03  0.00000000000E+00 0. -1.
<mgrwt>
<rscale>  4 0.73680315E+03</rscale>
<asrwt>0</asrwt>
<pdfrwt beam="1">  1        2 0.12591332E+00 0.73680315E+03</pdfrwt>
<pdfrwt beam="2">  1       -2 0.25512004E-01 0.73680315E+03</pdfrwt>
<totfact> 0.46418981E+02</totfact>
</mgrwt>
</event>
<event>
 5    0  0.5719562E-003  0.8075635E+03  0.7546771E-02  0.9549133E-01
          2   -1    0    0  502    0  0.00000000000E+00  0.00000000000E+00  0.36478938018E+03  0.36478938018E+03  0.00000000000E+00 0.  1.
         -2   -1    0    0    0  501 -0.00000000000E+00 -0.00000000000E+00 -0.44694203639E+03  0.44694203639E+03  0.00000000000E+00 0. -1.
         25    1    1    2    0    0 -0.20050109709E+03  0.96712872935E+02 -0.67738247864E+01  0.25539176656E+03  0.12500000000E+03 0.  0.
          1    1    1    2  502    0 -0.16444447022E+03 -0.42218866904E+02 -0.79167888133E+02  0.18732851096E+03  0.00000000000E+00 0. -1.
         -1    1    1    2    0  501  0.36494556731E+03 -0.54494006031E+02  0.37890567164E+01  0.36901113905E+03  0.00000000000E+00 0.  1.
<mgrwt>
<rscale>  4 0.80756352E+03</rscale>
<asrwt>0</asrwt>
<pdfrwt beam="1">  1        2 0.56121443E-01 0.80756352E+03</pdfrwt>
<pdfrwt beam="2">  1       -2 0.68760313E-01 0.80756352E+03</pdfrwt>
<totfact> 0.17178717E+02</totfact>
</mgrwt>
</event>
<event>
 5    0  0.5719562E-003  0.5791373E+03  0.7546771E-02  0.9949661E-01
         -2   -1    0    0    0  501 -0.00000000000E+00  0.00000000000E+00  0.66058365745E+02  0.66058365745E+02  0.00000000000E+00 0. -1.
          2   -1    0    0  502    0  0.00000000000E+00 -0.00000000000E+00 -0.12693319986E+04  0.12693319986E+04  0.00000000000E+00 0.  1.
         25    1    1    2    0    0 -0.25511516371E+03 -0.51462714119E+02 -0.43171951818E+03  0.51936393798E+03  0.12500000000E+03 0.  0.
          1    1    1    2  502    0  0.79988153617E+02  0.69614042425E+01 -0.17164300807E+03  0.18949376794E+03  0.00000000000E+00 0.  1.
         -1    1    1    2    0  501  0.17512701009E+03  0.44501309876E+02 -0.59991110658E+03  0.62653265840E+03  0.00000000000E+00 0. -1.
<mgrwt>
<rscale>  4 0.57913728E+03</rscale>
<asrwt>0</asrwt>
<pdfrwt beam="1">  1        2 0.19528184E+00 0.57913728E+03</pdfrwt>
<pdfrwt beam="2">  1       -2 0.10162826E-01 0.57913728E+03</pdfrwt>
<totfact> 0.11674446E+03</totfact>
</mgrwt>
</event>
<event>
 5    0  0.5719562E-003  0.5183592E+03  0.7546771E-02  0.1009095E+00
         -2   -1    0    0    0  501 -0.00000000000E+00  0.00000000000E+00  0.91409294979E+02  0.91409294979E+02  0.00000000000E+00 0. -1.
          2   -1    0    0  502    0  0.00000000000E+00 -0.00000000000E+00 -0.73487129777E+03  0.73487129777E+03  0.00000000000E+00 0.  1.
         25    1    1    2    0    0 -0.20825940078E+03 -0.30928063491E+02 -0.23450758914E+03  0.33903883625E+03  0.12500000000E+03 0.  0.
          1    1    1    2  502    0  0.12674513684E+03  0.26323459842E+02 -0.37863078305E+03  0.40014812773E+03  0.00000000000E+00 0.  1.
         -1    1    1    2    0  501  0.81514263935E+02  0.46046036490E+01 -0.30323630604E+02  0.87093628772E+02  0.00000000000E+00 0. -1.
<mgrwt>
<rscale>  4 0.51835921E+03</rscale>
<asrwt>0</asrwt>
<pdfrwt beam="1">  1        2 0.11305712E+00 0.51835921E+03</pdfrwt>
<pdfrwt beam="2">  1       -2 0.14062969E-01 0.51835921E+03</pdfrwt>
<totfact> 0.15075347E+03</totfact>
</mgrwt>
</event>
<event>
 5    0  0.5719562E-003  0.8726892E+03  0.7546771E-02  0.9460380E-01
          2   -1    0    0  502    0  0.00000000000E+00  0.00000000000E+00  0.10936256563E+04  0.10936256563E+04  0.00000000000E+00 0. -1.
         -2   -1    0    0    0  501 -0.00000000000E+00 -0.00000000000E+00 -0.17409668934E+03  0.17409668934E+03  0.00000000000E+00 0.  1.
         25    1    1    2    0    0 -0.16864325819E+03 -0.34460894146E+03  0.49347775520E+03  0.63744895164E+03  0.12500000000E+03 0.  0.
          4    1    1    2  502    0  0.37054053540E+01  0.61337865364E+02 -0.30207948144E+02  0.68473234824E+02  0.00000000000E+00 0.  1.
         -4    1    1    2    0  501  0.16493785283E+03  0.28327107609E+03  0.45625915988E+03  0.56180015916E+03  0.00000000000E+00 0. -1.
<mgrwt>
<rscale>  4 0.87268919E+03</rscale>
<asrwt>0</asrwt>
<pdfrwt beam="1">  1        2 0.16825010E+00 0.87268919E+03</pdfrwt>
<pdfrwt beam="2">  1       -2 0.26784107E-01 0.87268919E+03</pdfrwt>
<totfact> 0.27864570E+02</totfact>
</mgrwt>
</event>
<event>
 5    0  0.5719562E-003  0.8056488E+03  0.7546771E-02  0.9551876E-01
          2   -1    0    0  502    0  0.00000000000E+00  0.00000000000E+00  0.80977890793E+03  0.80977890793E+03  0.00000000000E+00 0.  1.
         -2   -1    0    0    0  501 -0.00000000000E+00 -0.00000000000E+00 -0.20038495208E+03  0.20038495208E+03  0.00000000000E+00 0. -1.
         25    1    1    2    0    0 -0.32855096082E+03  0.16541779723E+03  0.35467059453E+03  0.52604658740E+03  0.12500000000E+03 0.  0.
          1    1    1    2  502    0  0.21322082196E+03 -0.14822169914E+03  0.75734677773E+02  0.27049682517E+03  0.00000000000E+00 0. -1.
         -1    1    1    2    0  501  0.11533013886E+03 -0.17196098085E+02  0.17898868356E+03  0.21362044743E+03  0.00000000000E+00 0.  1.
<mgrwt>
<rscale>  4 0.80564883E+03</rscale>
<asrwt>0</asrwt>
<pdfrwt beam="1">  1        2 0.12458137E+00 0.80564883E+03</pdfrwt>
<pdfrwt beam="2">  1       -2 0.30828455E-01 0.80564883E+03</pdfrwt>
<totfact> 0.33166855E+02</totfact>
</mgrwt>
</event>
<event>
 5    0  0.5719562E-003  0.4984166E+03  0.7546771E-02  0.1014193E+00
          2   -1    0    0  502    0  0.00000000000E+00  0.00000000000E+00  0.17379383310E+04  0.17379383310E+04  0.00000000000E+00 0. -1.
         -2   -1    0    0    0  501 -0.00000000000E+00 -0.00000000000E+00 -0.35734738502E+02  0.35734738502E+02  0.00000000000E+00 0.  1.
         25    1    1    2    0    0  0.20107814156E+03 -0.10054844141E+03  0.71611658870E+03  0.76091417170E+03  0.12500000000E+03 0.  0.
          1    1    1    2  502    0 -0.14534447364E+03  0.52029892884E+02  0.59157366365E+03  0.61138492400E+03  0.00000000000E+00 0.  1.
         -1    1    1    2    0  501 -0.55733667912E+02  0.48518548526E+02  0.39451334010E+03  0.40137397376E+03  0.00000000000E+00 0. -1.
<mgrwt>
<rscale>  4 0.49841658E+03</rscale>
<asrwt>0</asrwt>
<pdfrwt beam="1">  1        2 0.26737506E+00 0.49841658E+03</pdfrwt>
<pdfrwt beam="2">  1       -2 0.54976534E-02 0.49841658E+03</pdfrwt>
<totfact> 0.17086853E+03</totfact>
</mgrwt>
</event>
<event>
 5    0  0.5719562E-003  0.4831305E+03  0.7546771E-02  0.1018278E+00
          2   -1    0    0  502    0  0.00000000000E+00  0.00000000000E+00  0.34958785964E+03  0.34958785964E+03  0.00000000000E+00 0. -1.
         -2   -1    0    0    0  501 -0.00000000000E+00 -0.00000000000E+00 -0.16692164080E+03  0.16692164080E+03  0.00000000000E+00 0.  1.
         25    1    1    2    0    0 -0.15892174029E+03 -0.12338821632E+03  0.16600717415E+03  0.28924756409E+03  0.12500000000E+03 0.  0.
          4    1    1    2  502    0  0.91172880677E+02  0.60420180449E+02  0.60403236443E+02  0.12494656197E+03  0.00000000000E+00 0. -1.
         -4    1    1    2    0  501  0.67748859615E+02  0.62968035868E+02 -0.43744191759E+02  0.10231537437E+03  0.00000000000E+00 0.  1.
<mgrwt>
<rscale>  4 0.48313054E+03</rscale>
<asrwt>0</asrwt>
<pdfrwt beam="1">  1        2 0.53782748E-01 0.48313054E+03</pdfrwt>
<pdfrwt beam="2">  1       -2 0.25680252E-01 0.48313054E+03</pdfrwt>
<totfact> 0.12617847E+03</totfact>
</mgrwt>
</event>
<event>
 5    0  0.5719562E-003  0.6437011E+03  0.7546771E-02  0.9818671E-01
         -1   -1    0    0    0  501 -0.00000000000E+00  0.00000000000E+00  0.97470748347E+02  0.97470748347E+02  0.00000000000E+00 0.  1.
          1   -1    0    0  502    0  0.00000000000E+00 -0.00000000000E+00 -0.10627574972E+04  0.10627574972E+04  0.00000000000E+00 0. -1.
         25    1    1    2    0    0 -0.12729752052E+03  0.19918237543E+03 -0.51201250892E+03  0.57763317659E+03  0.12500000000E+03 0.  0.
          2    1    1    2  502    0  0.17959754357E+01 -0.23258189971E+03 -0.32845182124E+03  0.40246510963E+03  0.00000000000E+00 0. -1.
         -2    1    1    2    0  501  0.12550154508E+03  0.33399524279E+02 -0.12482241874E+03  0.18012995936E+03  0.00000000000E+00 0.  1.
<mgrwt>
<rscale>  4 0.64370108E+03</rscale>
<asrwt>0</asrwt>
<pdfrwt beam="1">  1        1 0.16350116E+00 0.64370108E+03</pdfrwt>
<pdfrwt beam="2">  1       -1 0.14995499E-01 0.64370108E+03</pdfrwt>
<totfact> 0.45199566E+02</totfact>
</mgrwt>
</event>
<event>
 5    0  0.5719562E-003  0.6453958E+03  0.7546771E-02  0.9815457E-01
         -1   -1    0    0    0  501 -0.00000000000E+00  0.00000000000E+00  0.75726733736E+02  0.75726733736E+02  0.00000000000E+00 0. -1.
          1   -1    0    0  502    0  0.00000000000E+00 -0.00000000000E+00 -0.13751279019E+04  0.13751279019E+04  0.00000000000E+00 0.  1.
         25    1    1    2    0    0  0.99893474647E+00 -0.22034270575E+03 -0.64742901215E+03  0.69522746754E+03  0.12500000000E+03 0.  0.
          2    1    1    2  502    0  0.12010269682E+03  0.17637278512E+03 -0.55429656709E+03  0.59395008326E+03  0.00000000000E+00 0.  1.
         -2    1    1    2    0  501 -0.12110163156E+03  0.43969920634E+02 -0.97675588899E+02  0.16167708482E+03  0.00000000000E+00 0. -1.
<mgrwt>
<rscale>  4 0.64539583E+03</rscale>
<asrwt>0</asrwt>
<pdfrwt beam="1">  1        1 0.21155814E+00 0.64539583E+03</pdfrwt>
<pdfrwt beam="2">  1       -1 0.11650267E-01 0.64539583E+03</pdfrwt>
<totfact> 0.40423613E+02</totfact>
</mgrwt>
</event>
<event>
 5    0  0.5719562E-003  0.6645007E+03  0.7546771E-02  0.9779944E-01
         -2   -1    0    0    0  501 -0.00000000000E+00  0.00000000000E+00  0.70648259702E+02  0.70648259702E+02  0.00000000000E+00 0.  1.
          2   -1    0    0  502    0  0.00000000000E+00 -0.00000000000E+00 -0.15625338431E+04  0.15625338431E+04  0.00000000000E+00 0. -1.
         25    1    1    2    0    0  0.23311880613E+03  0.37589500650E+02 -0.54792444974E+03  0.60959293874E+03  0.12500000000E+03 0.  0.
          1    1    1    2  502    0 -0.25860470216E+03 -0.11003116597E+03 -0.87955013379E+03  0.92335891576E+03  0.00000000000E+00 0. -1.
         -1    1    1    2    0  501  0.25485896028E+02  0.72441665315E+02 -0.64410999845E+02  0.10023024828E+03  0.00000000000E+00 0.  1.
<mgrwt>
<rscale>  4 0.66450071E+03</rscale>
<asrwt>0</asrwt>
<pdfrwt beam="1">  1        2 0.24038980E+00 0.66450071E+03</pdfrwt>
<pdfrwt beam="2">  1       -2 0.10868964E-01 0.66450071E+03</pdfrwt>
<totfact> 0.71374603E+02</totfact>
</mgrwt>
</event>
<event>
 5    0  0.5719562E-003  0.5627750E+03  0.7546771E-02  0.9985795E-01
          2   -1    0    0  502    0  0.00000000000E+00  0.00000000000E+00  0.85621874069E+03  0.85621874069E+03  0.00000000000E+00 0. -1.
         -2   -1    0    0    0  501 -0.00000000000E+00 -0.00000000000E+00 -0.92475120822E+02  0.92475120822E+02  0.00000000000E+00 0.  1.
         25    1    1    2    0    0 -0.32641560664E+01  0.20406687606E+03  0.11770687612E+03  0.26670930487E+03  0.12500000000E+03 0.  0.
          4    1    1    2  502    0  0.40520844220E+01 -0.12094898234E+03  0.25564363485E+03  0.28284049172E+03  0.00000000000E+00 0.  1.
         -4    1    1    2    0  501 -0.78792835568E+00 -0.83117893712E+02  0.39039310890E+03  0.39914406492E+03  0.00000000000E+00 0. -1.
<mgrwt>
<rscale>  4 0.56277502E+03</rscale>
<asrwt>0</asrwt>
<pdfrwt beam="1">  1        2 0.13172595E+00 0.56277502E+03</pdfrwt>
<pdfrwt beam="2">  1       -2 0.14226942E-01 0.56277502E+03</pdfrwt>
<totfact> 0.12103524E+03</totfact>
</mgrwt>
</event>
<event>
 5    0  0.5719562E-003  0.5606229E+03  0.7546771E-02  0.9990646E-01
         -1   -1    0    0    0  501 -0.00000000000E+00  0.00000000000E+00  0.29191762873E+02  0.29191762873E+02  0.00000000000E+00 0.  1.
          1   -1    0    0  502    0  0.00000000000E+00 -0.00000000000E+00 -0.26916675386E+04  0.26916675386E+04  0.00000000000E+00 0. -1.
         25    1    1    2    0    0 -0.29535643279E+02  0.22991899385E+03 -0.83525811542E+03  0.87579462052E+03  0.12500000000E+03 0.  0.
          4    1    1    2  502    0  0.56666012247E+02 -0.19197687121E+03 -0.16378993622E+04  0.16500849908E+04  0.00000000000E+00 0. -1.
         -4    1    1    2    0  501 -0.27130368969E+02 -0.37942122641E+02 -0.18931829811E+03  0.19497969019E+03  0.00000000000E+00 0.  1.
<mgrwt>
<rscale>  4 0.56062294E+03</rscale>
<asrwt>0</asrwt>
<pdfrwt beam="1">  1        1 0.41410273E+00 0.56062294E+03</pdfrwt>
<pdfrwt beam="2">  1       -1 0.44910400E-02 0.56062294E+03</pdfrwt>
<totfact> 0.23275638E+02</totfact>
</mgrwt>
</event>
<event>
 5    0  0.5719562E-003  0.5945096E+03  0.7546771E-02  0.9916863E-01
         -1   -1    0    0    0  501 -0.00000000000E+00  0.00000000000E+00  0.60058685098E+02  0.60058685098E+02  0.00000000000E+00 0. -1.
          1   -1    0    0  502    0  0.00000000000E+00 -0.00000000000E+00 -0.14712344324E+04  0.14712344324E+04  0.00000000000E+00 0.  1.
         25    1    1    2    0    0 -0.96075033079E+02  0.19651385607E+03 -0.39689589504E+03  0.47010579566E+03  0.12500000000E+03 0.  0.
          3    1    1    2  502    0  0.90273349419E+02 -0.49942554870E+02 -0.13579325000E+03  0.17053839201E+03  0.00000000000E+00 0. -1.
         -3    1    1    2    0  501  0.58016836594E+01 -0.14657130120E+03 -0.87848660229E+03  0.89064892987E+03  0.00000000000E+00 0.  1.
<mgrwt>
<rscale>  4 0.59450956E+03</rscale>
<asrwt>0</asrwt>
<pdfrwt beam="1">  1        1 0.22634374E+00 0.59450956E+03</pdfrwt>
<pdfrwt beam="2">  1       -1 0.92397983E-02 0.59450956E+03</pdfrwt>
<totfact> 0.50252039E+02</totfact>
</mgrwt>
</event>
<event>
 5    0  0.5719562E-003  0.5542897E+03  0.7546771E-02  0.1000506E+00
         -1   -1    0    0    0  501 -0.00000000000E+00  0.00000000000E+00  0.49204918077E+02  0.49204918077E+02  0.00000000000E+00 0. -1.
          1   -1    0    0  502    0  0.00000000000E+00 -0.00000000000E+00 -0.15610079081E+04  0.15610079081E+04  0.00000000000E+00 0.  1.
         25    1    1    2    0    0  0.21494495028E+02  0.23443436589E+03 -0.48616924561E+03  0.55444298229E+03  0.12500000000E+03 0.  0.
          1    1    1    2  502    0 -0.85778784187E+01 -0.56782890717E+02 -0.43756807214E+03  0.44132039884E+03  0.00000000000E+00 0.  1.
         -1    1    1    2    0  501 -0.12916616609E+02 -0.17765147518E+03 -0.58806567224E+03  0.61444944502E+03  0.00000000000E+00 0. -1.
<mgrwt>
<rscale>  4 0.55428969E+03</rscale>
<asrwt>0</asrwt>
<pdfrwt beam="1">  1        1 0.24015505E+00 0.55428969E+03</pdfrwt>
<pdfrwt beam="2">  1       -1 0.75699879E-02 0.55428969E+03</pdfrwt>
<totfact> 0.59777665E+02</totfact>
</mgrwt>
</event>
<event>
 5    0  0.5719562E-003  0.5989770E+03  0.7546771E-02  0.9907531E-01
         -2   -1    0    0    0  501 -0.00000000000E+00  0.00000000000E+00  0.10901480557E+03  0.10901480557E+03  0.00000000000E+00 0.  1.
          2   -1    0    0  502    0  0.00000000000E+00 -0.00000000000E+00 -0.82276322212E+03  0.82276322212E+03  0.00000000000E+00 0. -1.
         25    1    1    2    0    0 -0.18313076342E+03  0.10182753994E+03 -0.98260189523E+02  0.26303191678E+03  0.12500000000E+03 0.  0.
          1    1    1    2  502    0  0.16106309786E+03 -0.10710876412E+03 -0.61640094469E+03  0.64603694435E+03  0.00000000000E+00 0. -1.
         -1    1    1    2    0  501  0.22067665563E+02  0.52812241887E+01  0.91271765751E+00  0.22709166560E+02  0.00000000000E+00 0.  1.
<mgrwt>
<rscale>  4 0.59897704E+03</rscale>
<asrwt>0</asrwt>
<pdfrwt beam="1">  1        2 0.12657896E+00 0.59897704E+03</pdfrwt>
<pdfrwt beam="2">  1       -2 0.16771508E-01 0.59897704E+03</pdfrwt>
<totfact> 0.96630315E+02</totfact>
</mgrwt>
</event>
<event>
 5    0  0.5719562E-003  0.6437174E+03  0.7546771E-02  0.9818640E-01
          2   -1    0    0  502    0  0.00000000000E+00  0.00000000000E+00  0.18092990273E+04  0.18092990273E+04  0.00000000000E+00 0. -1.
         -2   -1    0    0    0  501 -0.00000000000E+00 -0.00000000000E+00 -0.57255896620E+02  0.57255896620E+02  0.00000000000E+00 0.  1.
         25    1    1    2    0    0 -0.64199313005E+02  0.27141302673E+03  0.12593388174E+04  0.12958957673E+04  0.12500000000E+03 0.  0.
          1    1    1    2  502    0  0.38860300703E+02 -0.14624025416E+03  0.33603162700E+03  0.36852895307E+03  0.00000000000E+00 0.  1.
         -1    1    1    2    0  501  0.25339012302E+02 -0.12517277256E+03  0.15667268631E+03  0.20213020351E+03  0.00000000000E+00 0. -1.
<mgrwt>
<rscale>  4 0.64371745E+03</rscale>
<asrwt>0</asrwt>
<pdfrwt beam="1">  1        2 0.27835365E+00 0.64371745E+03</pdfrwt>
<pdfrwt beam="2">  1       -2 0.88086009E-02 0.64371745E+03</pdfrwt>
<totfact> 0.73697428E+02</totfact>
</mgrwt>
</event>
<event>
 5    0  0.5719562E-003  0.4923666E+03  0.7546771E-02  0.1015791E+00
          2   -1    0    0  502    0  0.00000000000E+00  0.00000000000E+00  0.42847824986E+03  0.42847824986E+03  0.00000000000E+00 0.  1.
         -2   -1    0    0    0  501 -0.00000000000E+00 -0.00000000000E+00 -0.14144525824E+03  0.14144525824E+03  0.00000000000E+00 0. -1.
         25    1    1    2    0    0  0.19630656217E+03  0.71524662622E+02  0.19072512686E+03  0.30927838225E+03  0.12500000000E+03 0.  0.
          2    1    1    2  502    0 -0.74071549486E+02 -0.38686422744E+02  0.10450856389E+03  0.13381058880E+03  0.00000000000E+00 0.  1.
         -2    1    1    2    0  501 -0.12223501268E+03 -0.32838239878E+02 -0.82006991314E+01  0.12683453705E+03  0.00000000000E+00 0. -1.
<mgrwt>
<rscale>  4 0.49236660E+03</rscale>
<asrwt>0</asrwt>
<pdfrwt beam="1">  1        2 0.65919730E-01 0.49236660E+03</pdfrwt>
<pdfrwt beam="2">  1       -2 0.21760809E-01 0.49236660E+03</pdfrwt>
<totfact> 0.13509159E+03</totfact>
</mgrwt>
</event>
<event>
 5    0  0.5719562E-003  0.7452564E+03  0.7546771E-02  0.9642822E-01
          2   -1    0    0  502    0  0.00000000000E+00  0.00000000000E+00  0.59789701863E+03  0.59789701863E+03  0.00000000000E+00 0.  1.
         -2   -1    0    0    0  501 -0.00000000000E+00 -0.00000000000E+00 -0.23223361112E+03  0.23223361112E+03  0.00000000000E+00 0. -1.
         25    1    1    2    0    0 -0.26126087986E+03  0.85973536746E+02  0.36578151184E+03  0.47441523034E+03  0.12500000000E+03 0.  0.
          1    1    1    2  502    0  0.15795231350E+03 -0.69752315360E+02  0.10930519356E+03  0.20435739325E+03  0.00000000000E+00 0.  1.
         -1    1    1    2    0  501  0.10330856636E+03 -0.16221221386E+02 -0.10942329789E+03  0.15135800616E+03  0.00000000000E+00 0. -1.
<mgrwt>
<rscale>  4 0.74525642E+03</rscale>
<asrwt>0</asrwt>
<pdfrwt beam="1">  1        2 0.91984156E-01 0.74525642E+03</pdfrwt>
<pdfrwt beam="2">  1       -2 0.35728248E-01 0.74525642E+03</pdfrwt>
<totfact> 0.36918793E+02</totfact>
</mgrwt>
</event>
<event>
 5    0  0.5719562E-003  0.5453683E+03  0.7546771E-02  0.1002572E+00
          2   -1    0    0  502    0  0.00000000000E+00  0.00000000000E+00  0.93118420002E+03  0.93118420002E+03  0.00000000000E+00 0. -1.
         -2   -1    0    0    0  501 -0.00000000000E+00 -0.00000000000E+00 -0.79851708868E+02  0.79851708868E+02  0.00000000000E+00 0.  1.
         25    1    1    2    0    0  0.18182357511E+03 -0.14681289772E+03  0.54936043039E+03  0.60994731074E+03  0.12500000000E+03 0.  0.
          3    1    1    2  502    0 -0.11585408244E+03  0.29193011105E+02  0.19613685607E+03  0.22966076423E+03  0.00000000000E+00 0. -1.
         -3    1    1    2    0  501 -0.65969492671E+02  0.11761988662E+03  0.10583520469E+03  0.17142783392E+03  0.00000000000E+00 0.  1.
<mgrwt>
<rscale>  4 0.54536831E+03</rscale>
<asrwt>0</asrwt>
<pdfrwt beam="1">  1        2 0.14325910E+00 0.54536831E+03</pdfrwt>
<pdfrwt beam="2">  1       -2 0.12284879E-01 0.54536831E+03</pdfrwt>
<totfact> 0.13763990E+03</totfact>
</mgrwt>
</event>
<event>
 5    0  0.5719562E-003  0.5595216E+03  0.7546771E-02  0.9993138E-01
          1   -1    0    0  502    0  0.00000000000E+00  0.00000000000E+00  0.45396018170E+03  0.45396018170E+03  0.00000000000E+00 0.  1.
         -1   -1    0    0    0  501 -0.00000000000E+00 -0.00000000000E+00 -0.17240745090E+03  0.17240745090E+03  0.00000000000E+00 0. -1.
         25    1    1    2    0    0 -0.14195639410E+03 -0.19997455475E+03  0.79563160937E+02  0.28652528152E+03  0.12500000000E+03 0.  0.
          4    1    1    2  502    0  0.59479212866E+02  0.74541698020E+02  0.96454999442E+01  0.95850285217E+02  0.00000000000E+00 0. -1.
         -4    1    1    2    0  501  0.82477181239E+02  0.12543285672E+03  0.19234406992E+03  0.24399206586E+03  0.00000000000E+00 0.  1.
<mgrwt>
<rscale>  4 0.55952164E+03</rscale>
<asrwt>0</asrwt>
<pdfrwt beam="1">  1        1 0.69840028E-01 0.55952164E+03</pdfrwt>
<pdfrwt beam="2">  1       -1 0.26524223E-01 0.55952164E+03</pdfrwt>
<totfact> 0.64532619E+02</totfact>
</mgrwt>
</event>
<event>
 5    0  0.5719562E-003  0.6533751E+03  0.7546771E-02  0.9800467E-01
          1   -1    0    0  502    0  0.00000000000E+00  0.00000000000E+00  0.85246048329E+03  0.85246048329E+03  0.00000000000E+00 0. -1.
         -1   -1    0    0    0  501 -0.00000000000E+00 -0.00000000000E+00 -0.12519614612E+03  0.12519614612E+03  0.00000000000E+00 0.  1.
         25    1    1    2    0    0  0.55213999354E+01 -0.25944017850E+03  0.56407678459E+03  0.63336191154E+03  0.12500000000E+03 0.  0.
          1    1    1    2  502    0 -0.62670955752E+02  0.14196094746E+03  0.30618194616E+02  0.15817089853E+03  0.00000000000E+00 0.  1.
         -1    1    1    2    0  501  0.57149555816E+02  0.11747923104E+03  0.13256935797E+03  0.18612381934E+03  0.00000000000E+00 0. -1.
<mgrwt>
<rscale>  4 0.65337514E+03</rscale>
<asrwt>0</asrwt>
<pdfrwt beam="1">  1        1 0.13114776E+00 0.65337514E+03</pdfrwt>
<pdfrwt beam="2">  1       -1 0.19260946E-01 0.65337514E+03</pdfrwt>
<totfact> 0.43925532E+02</totfact>
</mgrwt>
</event>
<event>
 5    0  0.5719562E-003  0.6793519E+03  0.7546771E-02  0.9753210E-01
         -2   -1    0    0    0  501 -0.00000000000E+00  0.00000000000E+00  0.22802705140E+03  0.22802705140E+03  0.00000000000E+00 0.  1.
          2   -1    0    0  502    0  0.00000000000E+00 -0.00000000000E+00 -0.50599146290E+03  0.50599146290E+03  0.00000000000E+00 0. -1.
         25    1    1    2    0    0 -0.28545241920E+03 -0.79518561216E+02 -0.10644255396E+02  0.32178344484E+03  0.12500000000E+03 0.  0.
          1    1    1    2  502    0  0.25809593350E+03  0.99612743711E+02 -0.21731743509E+03  0.35179976861E+03  0.00000000000E+00 0. -1.
         -1    1    1    2    0  501  0.27356485697E+02 -0.20094182494E+02 -0.50002721010E+02  0.60435300845E+02  0.00000000000E+00 0.  1.
<mgrwt>
<rscale>  4 0.67935187E+03</rscale>
<asrwt>0</asrwt>
<pdfrwt beam="1">  1        2 0.77844841E-01 0.67935187E+03</pdfrwt>
<pdfrwt beam="2">  1       -2 0.35081085E-01 0.67935187E+03</pdfrwt>
<totfact> 0.46651300E+02</totfact>
</mgrwt>
</event>
<event>
 5    0  0.5719562E-003  0.5741080E+03  0.7546771E-02  0.9960629E-01
         -2   -1    0    0    0  501 -0.00000000000E+00  0.00000000000E+00  0.56394937683E+02  0.56394937683E+02  0.00000000000E+00 0.  1.
          2   -1    0    0  502    0  0.00000000000E+00 -0.00000000000E+00 -0.14611241398E+04  0.14611241398E+04  0.00000000000E+00 0. -1.
         25    1    1    2    0    0 -0.85395790297E+02 -0.22829962803E+03 -0.63895088435E+03  0.69519521990E+03  0.12500000000E+03 0.  0.
          3    1    1    2  502    0  0.47971415878E+02  0.22722148781E+03 -0.74311968379E+03  0.77856131788E+03  0.00000000000E+00 0. -1.
         -3    1    1    2    0  501  0.37424374418E+02  0.10781402144E+01 -0.22658633959E+02  0.43762539687E+02  0.00000000000E+00 0.  1.
<mgrwt>
<rscale>  4 0.57410802E+03</rscale>
<asrwt>0</asrwt>
<pdfrwt beam="1">  1        2 0.22478831E+00 0.57410802E+03</pdfrwt>
<pdfrwt beam="2">  1       -2 0.86761450E-02 0.57410802E+03</pdfrwt>
<totfact> 0.11745855E+03</totfact>
</mgrwt>
</event>
<event>
 5    0  0.5719562E-003  0.6060204E+03  0.7546771E-02  0.9892994E-01
          2   -1    0    0  502    0  0.00000000000E+00  0.00000000000E+00  0.57535307870E+03  0.57535307870E+03  0.00000000000E+00 0.  1.
         -2   -1    0    0    0  501 -0.00000000000E+00 -0.00000000000E+00 -0.15958060692E+03  0.15958060692E+03  0.00000000000E+00 0. -1.
         25    1    1    2    0    0 -0.11993164461E+03  0.24421297811E+03  0.10052064598E+03  0.31583694895E+03  0.12500000000E+03 0.  0.
          2    1    1    2  502    0  0.11091973922E+03 -0.22448522455E+03  0.30632955405E+03  0.39564453778E+03  0.00000000000E+00 0. -1.
         -2    1    1    2    0  501  0.90119053903E+01 -0.19727753555E+02  0.89222717533E+01  0.23452198881E+02  0.00000000000E+00 0.  1.
<mgrwt>
<rscale>  4 0.60602044E+03</rscale>
<asrwt>0</asrwt>
<pdfrwt beam="1">  1        2 0.88515857E-01 0.60602044E+03</pdfrwt>
<pdfrwt beam="2">  1       -2 0.24550863E-01 0.60602044E+03</pdfrwt>
<totfact> 0.77653286E+02</totfact>
</mgrwt>
</event>
<event>
 5    0  0.5719562E-003  0.5511005E+03  0.7546771E-02  0.1001240E+00
         -4   -1    0    0    0  501 -0.00000000000E+00  0.00000000000E+00  0.23018679951E+03  0.23018679951E+03  0.00000000000E+00 0. -1.
          4   -1    0    0  502    0  0.00000000000E+00 -0.00000000000E+00 -0.32985362421E+03  0.32985362421E+03  0.00000000000E+00 0.  1.
         25    1    1    2    0    0  0.23013486829E+03  0.78752329787E+02  0.21438258538E+02  0.27431475713E+03  0.12500000000E+03 0.  0.
          1    1    1    2  502    0 -0.12612982040E+03 -0.87498261606E+02 -0.83766758241E+02  0.17487580497E+03  0.00000000000E+00 0.  1.
         -1    1    1    2    0  501 -0.10400504789E+03  0.87459318185E+01 -0.37338324995E+02  0.11084986163E+03  0.00000000000E+00 0. -1.
<mgrwt>
<rscale>  4 0.55110054E+03</rscale>
<asrwt>0</asrwt>
<pdfrwt beam="1">  1        4 0.50746711E-01 0.55110054E+03</pdfrwt>
<pdfrwt beam="2">  1       -4 0.35413354E-01 0.55110054E+03</pdfrwt>
<totfact> 0.57022904E+01</totfact>
</mgrwt>
</event>
<event>
 5    0  0.5719562E-003  0.5177417E+03  0.7546771E-02  0.1009249E+00
          2   -1    0    0  502    0  0.00000000000E+00  0.00000000000E+00  0.15117358128E+04  0.15117358128E+04  0.00000000000E+00 0.  1.
         -2   -1    0    0    0  501 -0.00000000000E+00 -0.00000000000E+00 -0.44329248782E+02  0.44329248782E+02  0.00000000000E+00 0. -1.
         25    1    1    2    0    0 -0.21208187650E+03 -0.21841686260E+02  0.42828569523E+03  0.49447893619E+03  0.12500000000E+03 0.  0.
          3    1    1    2  502    0  0.59427406322E+02  0.32634400716E+01  0.20752121407E+03  0.21588728762E+03  0.00000000000E+00 0.  1.
         -3    1    1    2    0  501  0.15265447017E+03  0.18578246188E+02  0.83159965470E+03  0.84569883776E+03  0.00000000000E+00 0. -1.
<mgrwt>
<rscale>  4 0.51774168E+03</rscale>
<asrwt>0</asrwt>
<pdfrwt beam="1">  1        2 0.23257470E+00 0.51774168E+03</pdfrwt>
<pdfrwt beam="2">  1       -2 0.68198856E-02 0.51774168E+03</pdfrwt>
<totfact> 0.16175758E+03</totfact>
</mgrwt>
</event>
<event>
 5    0  0.5719562E-003  0.5552693E+03  0.7546771E-02  0.1000282E+00
         -2   -1    0    0    0  501 -0.00000000000E+00  0.00000000000E+00  0.50379175961E+02  0.50379175961E+02  0.00000000000E+00 0.  1.
          2   -1    0    0  502    0  0.00000000000E+00 -0.00000000000E+00 -0.15300171745E+04  0.15300171745E+04  0.00000000000E+00 0. -1.
         25    1    1    2    0    0 -0.18862347880E+03 -0.16640063153E+03 -0.61954545197E+03  0.68024227595E+03  0.12500000000E+03 0.  0.
          1    1    1    2  502    0  0.12702938904E+03  0.64532711896E+02 -0.54523418546E+03  0.56354347976E+03  0.00000000000E+00 0. -1.
         -1    1    1    2    0  501  0.61594089762E+02  0.10186791963E+03 -0.31485836113E+03  0.33661059478E+03  0.00000000000E+00 0.  1.
<mgrwt>
<rscale>  4 0.55526932E+03</rscale>
<asrwt>0</asrwt>
<pdfrwt beam="1">  1        2 0.23538728E+00 0.55526932E+03</pdfrwt>
<pdfrwt beam="2">  1       -2 0.77506416E-02 0.55526932E+03</pdfrwt>
<totfact> 0.12893312E+03</totfact>
</mgrwt>
</event>
<event>
 5    0  0.5719562E-003  0.6802351E+03  0.7546771E-02  0.9751643E-01
         -1   -1    0    0    0  501 -0.00000000000E+00  0.00000000000E+00  0.10592359377E+04  0.10592359377E+04  0.00000000000E+00 0. -1.
          1   -1    0    0  502    0  0.00000000000E+00 -0.00000000000E+00 -0.10921075146E+03  0.10921075146E+03  0.00000000000E+00 0.  1.
         25    1    1    2    0    0 -0.73726735605E+02  0.23089313697E+03  0.16521170172E+03  0.31885291065E+03  0.12500000000E+03 0.  0.
          1    1    1    2  502    0  0.11172360103E+03 -0.23171613462E+02  0.26444051003E+03  0.28800671875E+03  0.00000000000E+00 0.  1.
         -1    1    1    2    0  501 -0.37996865425E+02 -0.20772152351E+03  0.52037297450E+03  0.56158705977E+03  0.00000000000E+00 0. -1.
<mgrwt>
<rscale>  4 0.68023511E+03</rscale>
<asrwt>0</asrwt>
<pdfrwt beam="1">  1        1 0.16801655E-01 0.68023511E+03</pdfrwt>
<pdfrwt beam="2">  1       -1 0.16295937E+00 0.68023511E+03</pdfrwt>
<totfact> 0.93932160E+01</totfact>
</mgrwt>
</event>
<event>
 5    0  0.5719562E-003  0.8046875E+03  0.7546771E-02  0.9553257E-01
          2   -1    0    0  502    0  0.00000000000E+00  0.00000000000E+00  0.15424351962E+04  0.15424351962E+04  0.00000000000E+00 0. -1.
         -2   -1    0    0    0  501 -0.00000000000E+00 -0.00000000000E+00 -0.10495123138E+03  0.10495123138E+03  0.00000000000E+00 0.  1.
         25    1    1    2    0    0 -0.38428767645E+02 -0.29396247037E+03  0.46039352290E+03  0.56167419390E+03  0.12500000000E+03 0.  0.
          2    1    1    2  502    0 -0.68856363897E+02  0.26350857115E+03  0.32444396577E+03  0.42360577528E+03  0.00000000000E+00 0.  1.
         -2    1    1    2    0  501  0.10728513154E+03  0.30453899219E+02  0.65264647615E+03  0.66210645841E+03  0.00000000000E+00 0. -1.
<mgrwt>
<rscale>  4 0.80468745E+03</rscale>
<asrwt>0</asrwt>
<pdfrwt beam="1">  1        2 0.23729771E+00 0.80468745E+03</pdfrwt>
<pdfrwt beam="2">  1       -2 0.16146344E-01 0.80468745E+03</pdfrwt>
<totfact> 0.37511668E+02</totfact>
</mgrwt>
</event>
<event>
 5    0  0.5719562E-003  0.8977614E+03  0.7546771E-02  0.9428384E-01
          1   -1    0    0  502    0  0.00000000000E+00  0.00000000000E+00  0.13381794901E+04  0.13381794901E+04  0.00000000000E+00 0. -1.
         -1   -1    0    0    0  501 -0.00000000000E+00 -0.00000000000E+00 -0.15057312947E+03  0.15057312947E+03  0.00000000000E+00 0.  1.
         25    1    1    2    0    0 -0.23591869718E+02  0.31663581288E+03  0.81200693067E+03  0.88079229661E+03  0.12500000000E+03 0.  0.
          1    1    1    2  502    0  0.46422504523E+02  0.37465455473E+02 -0.31878961930E+02  0.67638579921E+02  0.00000000000E+00 0.  1.
         -1    1    1    2    0  501 -0.22830634805E+02 -0.35410126835E+03  0.40747839187E+03  0.54032174302E+03  0.00000000000E+00 0. -1.
<mgrwt>
<rscale>  4 0.89776138E+03</rscale>
<asrwt>0</asrwt>
<pdfrwt beam="1">  1        1 0.20587376E+00 0.89776138E+03</pdfrwt>
<pdfrwt beam="2">  1       -1 0.23165098E-01 0.89776138E+03</pdfrwt>
<totfact> 0.13659498E+02</totfact>
</mgrwt>
</event>
<event>
 5    0  0.5719562E-003  0.6828278E+03  0.7546771E-02  0.9747058E-01
          1   -1    0    0  502    0  0.00000000000E+00  0.00000000000E+00  0.13892264365E+03  0.13892264365E+03  0.00000000000E+00 0. -1.
         -1   -1    0    0    0  501 -0.00000000000E+00 -0.00000000000E+00 -0.83905289891E+03  0.83905289891E+03  0.00000000000E+00 0.  1.
         25    1    1    2    0    0 -0.20463500914E+03 -0.24232715987E+03 -0.41620239172E+03  0.53800313219E+03  0.12500000000E+03 0.  0.
          2    1    1    2  502    0  0.12061439432E+03  0.12603626931E+03 -0.83279836087E+02  0.19330934896E+03  0.00000000000E+00 0. -1.
         -2    1    1    2    0  501  0.84020614822E+02  0.11629089055E+03 -0.20064802745E+03  0.24666306140E+03  0.00000000000E+00 0.  1.
<mgrwt>
<rscale>  4 0.68282779E+03</rscale>
<asrwt>0</asrwt>
<pdfrwt beam="1">  1        1 0.21372714E-01 0.68282779E+03</pdfrwt>
<pdfrwt beam="2">  1       -1 0.12908506E+00 0.68282779E+03</pdfrwt>
<totfact> 0.12628489E+02</totfact>
</mgrwt>
</event>
<event>
 5    0  0.5719562E-003  0.5738016E+03  0.7546771E-02  0.9961301E-01
          1   -1    0    0  502    0  0.00000000000E+00  0.00000000000E+00  0.84762719388E+03  0.84762719388E+03  0.00000000000E+00 0. -1.
         -1   -1    0    0    0  501 -0.00000000000E+00 -0.00000000000E+00 -0.97108811653E+02  0.97108811653E+02  0.00000000000E+00 0.  1.
         25    1    1    2    0    0 -0.11704793810E+03 -0.23432652975E+03  0.40179825705E+03  0.49565712113E+03  0.12500000000E+03 0.  0.
          1    1    1    2  502    0  0.25693201553E+02 -0.18173619401E+01  0.58583902629E+02  0.63996226902E+02  0.00000000000E+00 0. -1.
         -1    1    1    2    0  501  0.91354736543E+02  0.23614389169E+03  0.29013622255E+03  0.38508265750E+03  0.00000000000E+00 0.  1.
<mgrwt>
<rscale>  4 0.57380160E+03</rscale>
<asrwt>0</asrwt>
<pdfrwt beam="1">  1        1 0.13040418E+00 0.57380160E+03</pdfrwt>
<pdfrwt beam="2">  1       -1 0.14939818E-01 0.57380160E+03</pdfrwt>
<totfact> 0.67405309E+02</totfact>
</mgrwt>
</event>
<event>
 5    0  0.5719562E-003  0.6795999E+03  0.7546771E-02  0.9752769E-01
         -2   -1    0    0    0  501 -0.00000000000E+00  0.00000000000E+00  0.54710996039E+02  0.54710996039E+02  0.00000000000E+00 0. -1.
          2   -1    0    0  502    0  0.00000000000E+00 -0.00000000000E+00 -0.21104348971E+04  0.21104348971E+04  0.00000000000E+00 0.  1.
         25    1    1    2    0    0  0.29752687890E+03 -0.38840014631E+02 -0.14732583845E+04  0.15086901796E+04  0.12500000000E+03 0.  0.
          3    1    1    2  502    0 -0.26787005847E+03  0.47105081648E+02 -0.52312795244E+03  0.58960674315E+03  0.00000000000E+00 0. -1.
         -3    1    1    2    0  501 -0.29656820438E+02 -0.82650670166E+01 -0.59337564082E+02  0.66848970392E+02  0.00000000000E+00 0.  1.
<mgrwt>
<rscale>  4 0.67959987E+03</rscale>
<asrwt>0</asrwt>
<pdfrwt beam="1">  1        2 0.32468224E+00 0.67959987E+03</pdfrwt>
<pdfrwt beam="2">  1       -2 0.84170778E-02 0.67959987E+03</pdfrwt>
<totfact> 0.54252360E+02</totfact>
</mgrwt>
</event>
<event>
 5    0  0.5719562E-003  0.6058494E+03  0.7546771E-02  0.9893344E-01
         -1   -1    0    0    0  501 -0.00000000000E+00  0.00000000000E+00  0.41348086501E+02  0.41348086501E+02  0.00000000000E+00 0.  1.
          1   -1    0    0  502    0  0.00000000000E+00 -0.00000000000E+00 -0.22192897570E+04  0.22192897570E+04  0.00000000000E+00 0. -1.
         25    1    1    2    0    0  0.25670440084E+03  0.54427797498E+02 -0.11068734703E+04  0.11444008973E+04  0.12500000000E+03 0.  0.
          2    1    1    2  502    0 -0.32163122213E+02  0.32131951233E+01 -0.48366161343E+03  0.48474049486E+03  0.00000000000E+00 0. -1.
         -2    1    1    2    0  501 -0.22454127863E+03 -0.57640992621E+02 -0.58740658678E+03  0.63149645132E+03  0.00000000000E+00 0.  1.
<mgrwt>
<rscale>  4 0.60584944E+03</rscale>
<asrwt>0</asrwt>
<pdfrwt beam="1">  1        1 0.34142944E+00 0.60584944E+03</pdfrwt>
<pdfrwt beam="2">  1       -1 0.63612394E-02 0.60584944E+03</pdfrwt>
<totfact> 0.28378839E+02</totfact>
</mgrwt>
</event>
<event>
 5    0  0.5719562E-003  0.7077860E+03  0.7546771E-02  0.9704009E-01
          2   -1    0    0  502    0  0.00000000000E+00  0.00000000000E+00  0.34251972037E+04  0.34251972037E+04  0.00000000000E+00 0.  1.
         -2   -1    0    0    0  501 -0.00000000000E+00 -0.00000000000E+00 -0.36564390600E+02  0.36564390600E+02  0.00000000000E+00 0. -1.
         25    1    1    2    0    0  0.27180778234E+03 -0.22808675908E+02  0.19262572456E+04  0.19494849788E+04  0.12500000000E+03 0.  0.
          1    1    1    2  502    0  0.29563843540E+02 -0.30010685932E+00  0.55691791038E+03  0.55770213359E+03  0.00000000000E+00 0. -1.
         -1    1    1    2    0  501 -0.30137162588E+03  0.23108782768E+02  0.90545765710E+03  0.95457448192E+03  0.00000000000E+00 0.  1.
<mgrwt>
<rscale>  4 0.70778598E+03</rscale>
<asrwt>0</asrwt>
<pdfrwt beam="1">  1        2 0.52695316E+00 0.70778598E+03</pdfrwt>
<pdfrwt beam="2">  1       -2 0.56252936E-02 0.70778598E+03</pdfrwt>
<totfact> 0.16979901E+02</totfact>
</mgrwt>
</event>
<event>
 5    0  0.5719562E-003  0.5325759E+03  0.7546771E-02  0.1005609E+00
         -1   -1    0    0    0  501 -0.00000000000E+00  0.00000000000E+00  0.17474906627E+03  0.17474906627E+03  0.00000000000E+00 0.  1.
          1   -1    0    0  502    0  0.00000000000E+00 -0.00000000000E+00 -0.40577761586E+03  0.40577761586E+03  0.00000000000E+00 0. -1.
         25    1    1    2    0    0  0.14177396007E+03  0.15460192481E+03 -0.21681879196E+03  0.32655321075E+03  0.12500000000E+03 0.  0.
          4    1    1    2  502    0 -0.94979439503E+02 -0.17213066153E+03 -0.35291283596E+02  0.19973866242E+03  0.00000000000E+00 0. -1.
         -4    1    1    2    0  501 -0.46794520564E+02  0.17528736725E+02  0.21081525954E+02  0.54234808957E+02  0.00000000000E+00 0.  1.
<mgrwt>
<rscale>  4 0.53257585E+03</rscale>
<asrwt>0</asrwt>
<pdfrwt beam="1">  1        1 0.62427324E-01 0.53257585E+03</pdfrwt>
<pdfrwt beam="2">  1       -1 0.26884472E-01 0.53257585E+03</pdfrwt>
<totfact> 0.73228664E+02</totfact>
</mgrwt>
</event>
<event>
 5    0  0.5719562E-003  0.4989611E+03  0.7546771E-02  0.1014050E+00
         -1   -1    0    0    0  501 -0.00000000000E+00  0.00000000000E+00  0.27282224840E+02  0.27282224840E+02  0.00000000000E+00 0. -1.
          1   -1    0    0  502    0  0.00000000000E+00 -0.00000000000E+00 -0.22813586709E+04  0.22813586709E+04  0.00000000000E+00 0.  1.
         25    1    1    2    0    0  0.17215695450E+03  0.14000724395E+03 -0.89997512729E+03  0.93531827475E+03  0.12500000000E+03 0.  0.
          1    1    1    2  502    0 -0.10506976009E+03 -0.11450374584E+03 -0.10021502087E+04  0.10141281000E+04  0.00000000000E+00 0.  1.
         -1    1    1    2    0  501 -0.67087194414E+02 -0.25503498111E+02 -0.35195111010E+03  0.35919452107E+03  0.00000000000E+00 0. -1.
<mgrwt>
<rscale>  4 0.49896108E+03</rscale>
<asrwt>0</asrwt>
<pdfrwt beam="1">  1        1 0.35097822E+00 0.49896108E+03</pdfrwt>
<pdfrwt beam="2">  1       -1 0.41972657E-02 0.49896108E+03</pdfrwt>
<totfact> 0.49206415E+02</totfact>
</mgrwt>
</event>
<event>
 5    0  0.5719562E-003  0.9549244E+03  0.7546771E-02  0.9359413E-01
         -2   -1    0    0    0  501 -0.00000000000E+00  0.00000000000E+00  0.89640412910E+02  0.89640412910E+02  0.00000000000E+00 0.  1.
          2   -1    0    0  502    0  0.00000000000E+00 -0.00000000000E+00 -0.25431624845E+04  0.25431624845E+04  0.00000000000E+00 0. -1.
         25    1    1    2    0    0  0.24902546668E+03  0.22910506463E+03 -0.39092906826E+03  0.53193359558E+03  0.12500000000E+03 0.  0.
          1    1    1    2  502    0 -0.16909650924E+01 -0.11404350345E+03 -0.87187297981E+03  0.87930158249E+03  0.00000000000E+00 0. -1.
         -1    1    1    2    0  501 -0.24733450158E+03 -0.11506156118E+03 -0.11907200235E+04  0.12215677194E+04  0.00000000000E+00 0.  1.
<mgrwt>
<rscale>  4 0.95492436E+03</rscale>
<asrwt>0</asrwt>
<pdfrwt beam="1">  1        2 0.39125576E+00 0.95492436E+03</pdfrwt>
<pdfrwt beam="2">  1       -2 0.13790833E-01 0.95492436E+03</pdfrwt>
<totfact> 0.13509423E+02</totfact>
</mgrwt>
</event>
<event>
 5    0  0.5719562E-003  0.4725372E+03  0.7546771E-02  0.1021207E+00
          1   -1    0    0  502    0  0.00000000000E+00  0.00000000000E+00  0.25173063432E+03  0.25173063432E+03  0.00000000000E+00 0. -1.
         -1   -1    0    0    0  501 -0.00000000000E+00 -0.00000000000E+00 -0.22175630520E+03  0.22175630520E+03  0.00000000000E+00 0.  1.
         25    1    1    2    0    0 -0.13917075086E+03 -0.15965173228E+03 -0.35778953521E+02  0.24852023465E+03  0.12500000000E+03 0.  0.
          4    1    1    2  502    0  0.11901015172E+02  0.31027821294E+02  0.26701930339E+01  0.33339012992E+02  0.00000000000E+00 0.  1.
         -4    1    1    2    0  501  0.12726973569E+03  0.12862391098E+03  0.63083089602E+02  0.19162769187E+03  0.00000000000E+00 0. -1.
<mgrwt>
<rscale>  4 0.47253722E+03</rscale>
<asrwt>0</asrwt>
<pdfrwt beam="1">  1        1 0.38727790E-01 0.47253722E+03</pdfrwt>
<pdfrwt beam="2">  1       -1 0.34116355E-01 0.47253722E+03</pdfrwt>
<totfact> 0.89835830E+02</totfact>
</mgrwt>
</event>
<event>
 5    0  0.5719562E-003  0.5252301E+03  0.7546771E-02  0.1007396E+00
          2   -1    0    0  502    0  0.00000000000E+00  0.00000000000E+00  0.44590415943E+03  0.44590415943E+03  0.00000000000E+00 0.  1.
         -2   -1    0    0    0  501 -0.00000000000E+00 -0.00000000000E+00 -0.15466704099E+03  0.15466704099E+03  0.00000000000E+00 0. -1.
         25    1    1    2    0    0  0.20628929163E+03 -0.61448276985E+01  0.21421065163E+03  0.32265187745E+03  0.12500000000E+03 0.  0.
          4    1    1    2  502    0 -0.23395116084E+03  0.86087607278E+01  0.50457146560E+02  0.23948523975E+03  0.00000000000E+00 0. -1.
         -4    1    1    2    0  501  0.27661869215E+02 -0.24639330293E+01  0.26569320247E+02  0.38434083218E+02  0.00000000000E+00 0.  1.
<mgrwt>
<rscale>  4 0.52523015E+03</rscale>
<asrwt>0</asrwt>
<pdfrwt beam="1">  1        2 0.68600639E-01 0.52523015E+03</pdfrwt>
<pdfrwt beam="2">  1       -2 0.23794930E-01 0.52523015E+03</pdfrwt>
<totfact> 0.11030572E+03</totfact>
</mgrwt>
</event>
<event>
 5    0  0.5719562E-003  0.6369339E+03  0.7546771E-02  0.9831610E-01
          2   -1    0    0  502    0  0.00000000000E+00  0.00000000000E+00  0.22355804598E+04  0.22355804598E+04  0.00000000000E+00 0.  1.
         -2   -1    0    0    0  501 -0.00000000000E+00 -0.00000000000E+00 -0.45366829616E+02  0.45366829616E+02  0.00000000000E+00 0. -1.
         25    1    1    2    0    0  0.99573916596E+02 -0.24230793992E+03  0.12619283516E+04  0.12948807926E+04  0.12500000000E+03 0.  0.
          4    1    1    2  502    0  0.25436510789E+01  0.11795570485E+03  0.68027668574E+03  0.69043202970E+03  0.00000000000E+00 0.  1.
         -4    1    1    2    0  501 -0.10211756767E+03  0.12435223507E+03  0.24800859286E+03  0.29563446708E+03  0.00000000000E+00 0. -1.
<mgrwt>
<rscale>  4 0.63693390E+03</rscale>
<asrwt>0</asrwt>
<pdfrwt beam="1">  1        2 0.34393537E+00 0.63693390E+03</pdfrwt>
<pdfrwt beam="2">  1       -2 0.69795140E-02 0.63693390E+03</pdfrwt>
<totfact> 0.62637105E+02</totfact>
</mgrwt>
</event>
<event>
 5    0  0.5719562E-003  0.6030746E+03  0.7546771E-02  0.9899048E-01
         -1   -1    0    0    0  501 -0.00000000000E+00  0.00000000000E+00  0.12699411475E+03  0.12699411475E+03  0.00000000000E+00 0.  1.
          1   -1    0    0  502    0  0.00000000000E+00 -0.00000000000E+00 -0.71597609774E+03  0.71597609774E+03  0.00000000000E+00 0. -1.
         25    1    1    2    0    0  0.20804985928E+03 -0.36185185451E+02 -0.34277104513E+02  0.24777819010E+03  0.12500000000E+03 0.  0.
          1    1    1    2  502    0 -0.13084838145E+03  0.43395397802E+02 -0.33792854418E+03  0.36496597163E+03  0.00000000000E+00 0.  1.
         -1    1    1    2    0  501 -0.77201477830E+02 -0.72102123510E+01 -0.21677633430E+03  0.23022605077E+03  0.00000000000E+00 0. -1.
<mgrwt>
<rscale>  4 0.60307462E+03</rscale>
<asrwt>0</asrwt>
<pdfrwt beam="1">  1        1 0.11015017E+00 0.60307462E+03</pdfrwt>
<pdfrwt beam="2">  1       -1 0.19537556E-01 0.60307462E+03</pdfrwt>
<totfact> 0.56555509E+02</totfact>
</mgrwt>
</event>
<event>
 5    0  0.5719562E-003  0.5531940E+03  0.7546771E-02  0.1000757E+00
         -2   -1    0    0    0  501 -0.00000000000E+00  0.00000000000E+00  0.36864202515E+02  0.36864202515E+02  0.00000000000E+00 0. -1.
          2   -1    0    0  502    0  0.00000000000E+00 -0.00000000000E+00 -0.20753442951E+04  0.20753442951E+04  0.00000000000E+00 0.  1.
         25    1    1    2    0    0  0.17373101630E+03 -0.12543873159E+03 -0.77352509053E+03  0.81233207932E+03  0.12500000000E+03 0.  0.
          3    1    1    2  502    0 -0.41472333892E+02  0.53239832417E+01 -0.81029312291E+03  0.81137121240E+03  0.00000000000E+00 0.  1.
         -3    1    1    2    0  501 -0.13225868240E+03  0.12011474835E+03 -0.45466187914E+03  0.48850520589E+03  0.00000000000E+00 0. -1.
<mgrwt>
<rscale>  4 0.55319404E+03</rscale>
<asrwt>0</asrwt>
<pdfrwt beam="1">  1        2 0.31928376E+00 0.55319404E+03</pdfrwt>
<pdfrwt beam="2">  1       -2 0.56714154E-02 0.55319404E+03</pdfrwt>
<totfact> 0.10677431E+03</totfact>
</mgrwt>
</event>
<event>
 5    0  0.5719562E-003  0.7709969E+03  0.7546771E-02  0.9602973E-01
         -1   -1    0    0    0  501 -0.00000000000E+00  0.00000000000E+00  0.51870000342E+03  0.51870000342E+03  0.00000000000E+00 0. -1.
          1   -1    0    0  502    0  0.00000000000E+00 -0.00000000000E+00 -0.28650292382E+03  0.28650292382E+03  0.00000000000E+00 0.  1.
         25    1    1    2    0    0  0.22211827374E+03 -0.67188667642E+02 -0.91405054613E+02  0.27898159186E+03  0.12500000000E+03 0.  0.
          3    1    1    2  502    0 -0.15965125534E+03  0.56354215114E+01  0.38655721634E+03  0.41826637781E+03  0.00000000000E+00 0. -1.
         -3    1    1    2    0  501 -0.62467018399E+02  0.61553246130E+02 -0.62955082121E+02  0.10795495756E+03  0.00000000000E+00 0.  1.
<mgrwt>
<rscale>  4 0.77099693E+03</rscale>
<asrwt>0</asrwt>
<pdfrwt beam="1">  1        1 0.44077373E-01 0.77099693E+03</pdfrwt>
<pdfrwt beam="2">  1       -1 0.79800000E-01 0.77099693E+03</pdfrwt>
<totfact> 0.14797433E+02</totfact>
</mgrwt>
</event>
<event>
 5    0  0.5719562E-003  0.5627661E+03  0.7546771E-02  0.9985815E-01
         -2   -1    0    0    0  501 -0.00000000000E+00  0.00000000000E+00  0.12002693214E+04  0.12002693214E+04  0.00000000000E+00 0.  1.
          2   -1    0    0  502    0  0.00000000000E+00 -0.00000000000E+00 -0.65965537649E+02  0.65965537649E+02  0.00000000000E+00 0. -1.
         25    1    1    2    0    0  0.21410175150E+03 -0.67931727589E+02  0.69971086790E+03  0.74543583109E+03  0.12500000000E+03 0.  0.
          4    1    1    2  502    0 -0.11873769446E+03 -0.54929846415E+02  0.21579551627E+03  0.25235616290E+03  0.00000000000E+00 0.  1.
         -4    1    1    2    0  501 -0.95364057039E+02  0.12286157400E+03  0.21879739960E+03  0.26844286508E+03  0.00000000000E+00 0. -1.
<mgrwt>
<rscale>  4 0.56276607E+03</rscale>
<asrwt>0</asrwt>
<pdfrwt beam="1">  1        2 0.10148545E-01 0.56276607E+03</pdfrwt>
<pdfrwt beam="2">  1       -2 0.18465680E+00 0.56276607E+03</pdfrwt>
<totfact> 0.11247979E+02</totfact>
</mgrwt>
</event>
<event>
 5    0  0.5719562E-003  0.7584298E+03  0.7546771E-02  0.9622217E-01
          2   -1    0    0  502    0  0.00000000000E+00  0.00000000000E+00  0.23580674442E+04  0.23580674442E+04  0.00000000000E+00 0.  1.
         -2   -1    0    0    0  501 -0.00000000000E+00 -0.00000000000E+00 -0.60983810279E+02  0.60983810279E+02  0.00000000000E+00 0. -1.
         25    1    1    2    0    0  0.24112746034E+02 -0.20752248786E+03  0.86650752352E+03  0.90005960681E+03  0.12500000000E+03 0.  0.
          1    1    1    2  502    0 -0.13333895024E+03  0.12800093499E+02  0.93387114743E+02  0.16329198157E+03  0.00000000000E+00 0. -1.
         -1    1    1    2    0  501  0.10922620421E+03  0.19472239436E+03  0.13371889957E+04  0.13556996661E+04  0.00000000000E+00 0.  1.
<mgrwt>
<rscale>  4 0.75842979E+03</rscale>
<asrwt>0</asrwt>
<pdfrwt beam="1">  1        2 0.36277954E+00 0.75842979E+03</pdfrwt>
<pdfrwt beam="2">  1       -2 0.93821265E-02 0.75842979E+03</pdfrwt>
<totfact> 0.33033465E+02</totfact>
</mgrwt>
</event>
<event>
 5    0  0.5719562E-003  0.5531998E+03  0.7546771E-02  0.1000756E+00
         -2   -1    0    0    0  501 -0.00000000000E+00  0.00000000000E+00  0.33985327682E+03  0.33985327682E+03  0.00000000000E+00 0.  1.
          2   -1    0    0  502    0  0.00000000000E+00 -0.00000000000E+00 -0.22511924452E+03  0.22511924452E+03  0.00000000000E+00 0. -1.
         25    1    1    2    0    0  0.90168157289E+02 -0.20172356562E+03  0.52697420511E+02  0.25927728718E+03  0.12500000000E+03 0.  0.
          1    1    1    2  502    0  0.18272400883E+02 -0.24629900939E+02 -0.25495169811E+02  0.39881278039E+02  0.00000000000E+00 0. -1.
         -1    1    1    2    0  501 -0.10844055817E+03  0.22635346656E+03  0.87531781598E+02  0.26581395613E+03  0.00000000000E+00 0.  1.
<mgrwt>
<rscale>  4 0.55319983E+03</rscale>
<asrwt>0</asrwt>
<pdfrwt beam="1">  1        2 0.34633730E-01 0.55319983E+03</pdfrwt>
<pdfrwt beam="2">  1       -2 0.52285120E-01 0.55319983E+03</pdfrwt>
<totfact> 0.52677829E+02</totfact>
</mgrwt>
</event>
<event>
 5    0  0.5719562E-003  0.5464602E+03  0.7546771E-02  0.1002317E+00
          2   -1    0    0  502    0  0.00000000000E+00  0.00000000000E+00  0.23965884480E+04  0.23965884480E+04  0.00000000000E+00 0.  1.
         -2   -1    0    0    0  501 -0.00000000000E+00 -0.00000000000E+00 -0.31150399422E+02  0.31150399422E+02  0.00000000000E+00 0. -1.
         25    1    1    2    0    0  0.18479095292E+03 -0.13783641001E+03  0.83454927378E+03  0.87478229438E+03  0.12500000000E+03 0.  0.
          4    1    1    2  502    0 -0.12461013380E+03  0.11628079979E+03  0.13575310106E+04  0.13681883476E+04  0.00000000000E+00 0.  1.
         -4    1    1    2    0  501 -0.60180819125E+02  0.21555610219E+02  0.17335776425E+03  0.18476820546E+03  0.00000000000E+00 0. -1.
<mgrwt>
<rscale>  4 0.54646020E+03</rscale>
<asrwt>0</asrwt>
<pdfrwt beam="1">  1        2 0.36870577E+00 0.54646020E+03</pdfrwt>
<pdfrwt beam="2">  1       -2 0.47923710E-02 0.54646020E+03</pdfrwt>
<totfact> 0.92535697E+02</totfact>
</mgrwt>
</event>
<event>
 5    0  0.5719562E-003  0.8871318E+03  0.7546771E-02  0.9441812E-01
         -2   -1    0    0    0  501 -0.00000000000E+00  0.00000000000E+00  0.76756967431E+02  0.76756967431E+02  0.00000000000E+00 0. -1.
          2   -1    0    0  502    0  0.00000000000E+00 -0.00000000000E+00 -0.25632945910E+04  0.25632945910E+04  0.00000000000E+00 0.  1.
         25    1    1    2    0    0 -0.17183056982E+03 -0.27846694832E+03 -0.18908402092E+04  0.19230109940E+04  0.12500000000E+03 0.  0.
          3    1    1    2  502    0  0.10646520223E+03  0.23743519077E+02 -0.31050780886E+03  0.32911045767E+03  0.00000000000E+00 0.  1.
         -3    1    1    2    0  501  0.65365367596E+02  0.25472342924E+03 -0.28518960543E+03  0.38793010676E+03  0.00000000000E+00 0. -1.
<mgrwt>
<rscale>  4 0.88713183E+03</rscale>
<asrwt>0</asrwt>
<pdfrwt beam="1">  1        2 0.39435297E+00 0.88713183E+03</pdfrwt>
<pdfrwt beam="2">  1       -2 0.11808766E-01 0.88713183E+03</pdfrwt>
<totfact> 0.17147175E+02</totfact>
</mgrwt>
</event>
<event>
 5    0  0.5719562E-003  0.8500496E+03  0.7546771E-02  0.9490270E-01
          1   -1    0    0  502    0  0.00000000000E+00  0.00000000000E+00  0.16094163634E+04  0.16094163634E+04  0.00000000000E+00 0. -1.
         -1   -1    0    0    0  501 -0.00000000000E+00 -0.00000000000E+00 -0.11224322633E+03  0.11224322633E+03  0.00000000000E+00 0.  1.
         25    1    1    2    0    0  0.25052299900E+03  0.18332725794E+03  0.10090347612E+04  0.10630836307E+04  0.12500000000E+03 0.  0.
          2    1    1    2  502    0 -0.26276759590E+03 -0.62316218845E+01  0.26243707345E+03  0.37142813583E+03  0.00000000000E+00 0. -1.
         -2    1    1    2    0  501  0.12244596900E+02 -0.17709563606E+03  0.22570130243E+03  0.28714782322E+03  0.00000000000E+00 0.  1.
<mgrwt>
<rscale>  4 0.85004961E+03</rscale>
<asrwt>0</asrwt>
<pdfrwt beam="1">  1        1 0.24760250E+00 0.85004961E+03</pdfrwt>
<pdfrwt beam="2">  1       -1 0.17268190E-01 0.85004961E+03</pdfrwt>
<totfact> 0.14549466E+02</totfact>
</mgrwt>
</event>
<event>
 5    0  0.5719562E-003  0.6687973E+03  0.7546771E-02  0.9772133E-01
          2   -1    0    0  502    0  0.00000000000E+00  0.00000000000E+00  0.23726297946E+04  0.23726297946E+04  0.00000000000E+00 0.  1.
         -2   -1    0    0    0  501 -0.00000000000E+00 -0.00000000000E+00 -0.47130178815E+02  0.47130178815E+02  0.00000000000E+00 0. -1.
         25    1    1    2    0    0  0.12545894499E+03  0.17573916826E+03  0.70313336085E+03  0.74608694217E+03  0.12500000000E+03 0.  0.
          3    1    1    2  502    0 -0.10560572085E+03  0.75119923855E+02  0.28842365246E+03  0.31620211026E+03  0.00000000000E+00 0. -1.
         -3    1    1    2    0  501 -0.19853224148E+02 -0.25085909212E+03  0.13339426025E+04  0.13574709210E+04  0.00000000000E+00 0.  1.
<mgrwt>
<rscale>  4 0.66879733E+03</rscale>
<asrwt>0</asrwt>
<pdfrwt beam="1">  1        2 0.36501987E+00 0.66879733E+03</pdfrwt>
<pdfrwt beam="2">  1       -2 0.72507986E-02 0.66879733E+03</pdfrwt>
<totfact> 0.49386912E+02</totfact>
</mgrwt>
</event>
<event>
 5    0  0.5719562E-003  0.6494406E+03  0.7546771E-02  0.9807829E-01
         -1   -1    0    0    0  501 -0.00000000000E+00  0.00000000000E+00  0.21715620303E+03  0.21715620303E+03  0.00000000000E+00 0.  1.
          1   -1    0    0  502    0  0.00000000000E+00 -0.00000000000E+00 -0.48556425196E+03  0.48556425196E+03  0.00000000000E+00 0. -1.
         25    1    1    2    0    0  0.28464454188E+03 -0.11179660825E+03 -0.13415541075E+03  0.35657211202E+03  0.12500000000E+03 0.  0.
          3    1    1    2  502    0 -0.18552905987E+03  0.52457122669E+02 -0.12602087858E+03  0.23033463399E+03  0.00000000000E+00 0. -1.
         -3    1    1    2    0  501 -0.99115482002E+02  0.59339485583E+02 -0.82317595926E+01  0.11581370898E+03  0.00000000000E+00 0.  1.
<mgrwt>
<rscale>  4 0.64944065E+03</rscale>
<asrwt>0</asrwt>
<pdfrwt beam="1">  1        1 0.74702191E-01 0.64944065E+03</pdfrwt>
<pdfrwt beam="2">  1       -1 0.33408647E-01 0.64944065E+03</pdfrwt>
<totfact> 0.39380047E+02</totfact>
</mgrwt>
</event>
<event>
 5    0  0.5719562E-003  0.6931619E+03  0.7546771E-02  0.9728998E-01
         -2   -1    0    0    0  501 -0.00000000000E+00  0.00000000000E+00  0.43510018037E+02  0.43510018037E+02  0.00000000000E+00 0.  1.
          2   -1    0    0  502    0  0.00000000000E+00 -0.00000000000E+00 -0.27607054075E+04  0.27607054075E+04  0.00000000000E+00 0. -1.
         25    1    1    2    0    0  0.78326922484E+02  0.23852070705E+03 -0.14838730232E+04  0.15101428354E+04  0.12500000000E+03 0.  0.
          4    1    1    2  502    0 -0.54114907570E+02 -0.27283888152E+03 -0.12180129125E+04  0.12493698146E+04  0.00000000000E+00 0. -1.
         -4    1    1    2    0  501 -0.24212014914E+02  0.34318174470E+02 -0.15309453744E+02  0.44702775519E+02  0.00000000000E+00 0.  1.
<mgrwt>
<rscale>  4 0.69316186E+03</rscale>
<asrwt>0</asrwt>
<pdfrwt beam="1">  1        2 0.42472407E+00 0.69316186E+03</pdfrwt>
<pdfrwt beam="2">  1       -2 0.66938464E-02 0.69316186E+03</pdfrwt>
<totfact> 0.33589073E+02</totfact>
</mgrwt>
</event>
<event>
 5    0  0.5719562E-003  0.5714818E+03  0.7546771E-02  0.9966405E-01
          2   -1    0    0  502    0  0.00000000000E+00  0.00000000000E+00  0.18351071518E+04  0.18351071518E+04  0.00000000000E+00 0. -1.
         -2   -1    0    0    0  501 -0.00000000000E+00 -0.00000000000E+00 -0.44492149749E+02  0.44492149749E+02  0.00000000000E+00 0.  1.
         25    1    1    2    0    0  0.10097186518E+03 -0.19686894943E+03  0.12884419500E+04  0.13132632483E+04  0.12500000000E+03 0.  0.
          3    1    1    2  502    0 -0.10332858171E+03  0.17282389185E+03  0.50336641029E+03  0.54214632379E+03  0.00000000000E+00 0. -1.
         -3    1    1    2    0  501  0.23567165353E+01  0.24045057572E+02 -0.11933582586E+01  0.24189729441E+02  0.00000000000E+00 0.  1.
<mgrwt>
<rscale>  4 0.57148180E+03</rscale>
<asrwt>0</asrwt>
<pdfrwt beam="1">  1        2 0.28232412E+00 0.57148180E+03</pdfrwt>
<pdfrwt beam="2">  1       -2 0.68449475E-02 0.57148180E+03</pdfrwt>
<totfact> 0.10708337E+03</totfact>
</mgrwt>
</event>
<event>
 5    0  0.5719562E-003  0.6194321E+03  0.7546771E-02  0.9865891E-01
          1   -1    0    0  502    0  0.00000000000E+00  0.00000000000E+00  0.20084849634E+03  0.20084849634E+03  0.00000000000E+00 0. -1.
         -1   -1    0    0    0  501 -0.00000000000E+00 -0.00000000000E+00 -0.47759395036E+03  0.47759395036E+03  0.00000000000E+00 0.  1.
         25    1    1    2    0    0  0.26585368238E+03  0.35086858504E+02 -0.37281140496E+02  0.29820152835E+03  0.12500000000E+03 0.  0.
          3    1    1    2  502    0 -0.55973460166E+02 -0.36324549929E+02 -0.12369637754E+03  0.14054641577E+03  0.00000000000E+00 0.  1.
         -3    1    1    2    0  501 -0.20988022222E+03  0.12376914247E+01 -0.11576793598E+03  0.23969450256E+03  0.00000000000E+00 0. -1.
<mgrwt>
<rscale>  4 0.61943208E+03</rscale>
<asrwt>0</asrwt>
<pdfrwt beam="1">  1        1 0.30899769E-01 0.61943208E+03</pdfrwt>
<pdfrwt beam="2">  1       -1 0.73475992E-01 0.61943208E+03</pdfrwt>
<totfact> 0.28028279E+02</totfact>
</mgrwt>
</event>
<event>
 5    0  0.5719562E-003  0.8287659E+03  0.7546771E-02  0.9519288E-01
         -2   -1    0    0    0  501 -0.00000000000E+00  0.00000000000E+00  0.96408523168E+02  0.96408523168E+02  0.00000000000E+00 0.  1.
          2   -1    0    0  502    0  0.00000000000E+00 -0.00000000000E+00 -0.17811000846E+04  0.17811000846E+04  0.00000000000E+00 0. -1.
         25    1    1    2    0    0 -0.39637468300E+02  0.20899263137E+03 -0.16495665658E+03  0.29679074684E+03  0.12500000000E+03 0.  0.
          4    1    1    2  502    0  0.10970637447E+03 -0.12950031850E+03 -0.14351009898E+04  0.14451023051E+04  0.00000000000E+00 0. -1.
         -4    1    1    2    0  501 -0.70068906172E+02 -0.79492312870E+02 -0.84633914991E+02  0.13561555583E+03  0.00000000000E+00 0.  1.
<mgrwt>
<rscale>  4 0.82876590E+03</rscale>
<asrwt>0</asrwt>
<pdfrwt beam="1">  1        2 0.27401539E+00 0.82876590E+03</pdfrwt>
<pdfrwt beam="2">  1       -2 0.14832081E-01 0.82876590E+03</pdfrwt>
<totfact> 0.31973400E+02</totfact>
</mgrwt>
</event>
<event>
 5    0  0.5719562E-003  0.1111906E+04  0.7546771E-02  0.9193664E-01
          2   -1    0    0  502    0  0.00000000000E+00  0.00000000000E+00  0.97693704982E+03  0.97693704982E+03  0.00000000000E+00 0.  1.
         -2   -1    0    0    0  501 -0.00000000000E+00 -0.00000000000E+00 -0.31638045848E+03  0.31638045848E+03  0.00000000000E+00 0. -1.
         25    1    1    2    0    0 -0.37490104316E+03  0.20839274390E+03 -0.54479453401E+02  0.45007925825E+03  0.12500000000E+03 0.  0.
          1    1    1    2  502    0  0.41479040979E+02 -0.57333730317E+02  0.19376398257E+03  0.20628172099E+03  0.00000000000E+00 0. -1.
         -1    1    1    2    0  501  0.33342200218E+03 -0.15105901358E+03  0.52127206216E+03  0.63695652906E+03  0.00000000000E+00 0.  1.
<mgrwt>
<rscale>  4 0.11119061E+04</rscale>
<asrwt>0</asrwt>
<pdfrwt beam="1">  1        2 0.15029801E+00 0.11119061E+04</pdfrwt>
<pdfrwt beam="2">  1       -2 0.48673917E-01 0.11119061E+04</pdfrwt>
<totfact> 0.10336502E+02</totfact>
</mgrwt>
</event>
<event>
 5    0  0.5719562E-003  0.5469677E+03  0.7546771E-02  0.1002198E+00
         -2   -1    0    0    0  501 -0.00000000000E+00  0.00000000000E+00  0.17517619013E+03  0.17517619013E+03  0.00000000000E+00 0. -1.
          2   -1    0    0  502    0  0.00000000000E+00 -0.00000000000E+00 -0.42696101690E+03  0.42696101690E+03  0.00000000000E+00 0.  1.
         25    1    1    2    0    0 -0.16503105606E+03 -0.17209625772E+03 -0.21839863639E+03  0.34666314451E+03  0.12500000000E+03 0.  0.
          2    1    1    2  502    0  0.59770087461E+02  0.30751325667E+02 -0.41601219946E+02  0.79049154874E+02  0.00000000000E+00 0.  1.
         -2    1    1    2    0  501  0.10526096860E+03  0.14134493206E+03  0.82150295545E+01  0.17642490765E+03  0.00000000000E+00 0. -1.
<mgrwt>
<rscale>  4 0.54696766E+03</rscale>
<asrwt>0</asrwt>
<pdfrwt beam="1">  1        2 0.65686309E-01 0.54696766E+03</pdfrwt>
<pdfrwt beam="2">  1       -2 0.26950183E-01 0.54696766E+03</pdfrwt>
<totfact> 0.92606301E+02</totfact>
</mgrwt>
</event>
<event>
 5    0  0.5719562E-003  0.7470666E+03  0.7546771E-02  0.9639964E-01
          2   -1    0    0  502    0  0.00000000000E+00  0.00000000000E+00  0.23010024681E+04  0.23010024681E+04  0.00000000000E+00 0. -1.
         -2   -1    0    0    0  501 -0.00000000000E+00 -0.00000000000E+00 -0.60637542713E+02  0.60637542713E+02  0.00000000000E+00 0.  1.
         25    1    1    2    0    0  0.10676900157E+03  0.19323776994E+03  0.32715018095E+03  0.41399601004E+03  0.12500000000E+03 0.  0.
          3    1    1    2  502    0 -0.13171715392E+03 -0.37521196932E+02  0.34004371462E+03  0.36658829319E+03  0.00000000000E+00 0.  1.
         -3    1    1    2    0  501  0.24948152356E+02 -0.15571657301E+03  0.15731710298E+04  0.15810557076E+04  0.00000000000E+00 0. -1.
<mgrwt>
<rscale>  4 0.74706662E+03</rscale>
<asrwt>0</asrwt>
<pdfrwt beam="1">  1        2 0.35400031E+00 0.74706662E+03</pdfrwt>
<pdfrwt beam="2">  1       -2 0.93288545E-02 0.74706662E+03</pdfrwt>
<totfact> 0.35905337E+02</totfact>
</mgrwt>
</event>
<event>
 5    0  0.5719562E-003  0.5610016E+03  0.7546771E-02  0.9989791E-01
         -1   -1    0    0    0  501 -0.00000000000E+00  0.00000000000E+00  0.27471981702E+03  0.27471981702E+03  0.00000000000E+00 0. -1.
          1   -1    0    0  502    0  0.00000000000E+00 -0.00000000000E+00 -0.28640339157E+03  0.28640339157E+03  0.00000000000E+00 0.  1.
         25    1    1    2    0    0  0.11476699128E+03 -0.17295522652E+03 -0.16677766996E+03  0.29415092022E+03  0.12500000000E+03 0.  0.
          4    1    1    2  502    0 -0.58499090769E+02  0.96509662897E+02  0.12262210564E+03  0.16665065090E+03  0.00000000000E+00 0. -1.
         -4    1    1    2    0  501 -0.56267900510E+02  0.76445563627E+02  0.32471989761E+02  0.10032163747E+03  0.00000000000E+00 0.  1.
<mgrwt>
<rscale>  4 0.56100156E+03</rscale>
<asrwt>0</asrwt>
<pdfrwt beam="1">  1        1 0.44062060E-01 0.56100156E+03</pdfrwt>
<pdfrwt beam="2">  1       -1 0.42264587E-01 0.56100156E+03</pdfrwt>
<totfact> 0.51820269E+02</totfact>
</mgrwt>
</event>
<event>
 5    0  0.5719562E-003  0.5387319E+03  0.7546771E-02  0.1004136E+00
         -1   -1    0    0    0  501 -0.00000000000E+00  0.00000000000E+00  0.36466584289E+03  0.36466584289E+03  0.00000000000E+00 0. -1.
          1   -1    0    0  502    0  0.00000000000E+00 -0.00000000000E+00 -0.19897120593E+03  0.19897120593E+03  0.00000000000E+00 0.  1.
         25    1    1    2    0    0  0.17684435476E+03  0.10691896292E+03  0.21143522438E+03  0.32099134654E+03  0.12500000000E+03 0.  0.
          2    1    1    2  502    0 -0.16162096635E+03 -0.12772173146E+03 -0.21249927087E+02  0.20708871734E+03  0.00000000000E+00 0.  1.
         -2    1    1    2    0  501 -0.15223388415E+02  0.20802768543E+02 -0.24490660342E+02  0.35556984938E+02  0.00000000000E+00 0. -1.
<mgrwt>
<rscale>  4 0.53873185E+03</rscale>
<asrwt>0</asrwt>
<pdfrwt beam="1">  1        1 0.30610955E-01 0.53873185E+03</pdfrwt>
<pdfrwt beam="2">  1       -1 0.56102437E-01 0.53873185E+03</pdfrwt>
<totfact> 0.48703749E+02</totfact>
</mgrwt>
</event>
<event>
 5    0  0.5719562E-003  0.5569233E+03  0.7546771E-02  0.9999040E-01
          2   -1    0    0  502    0  0.00000000000E+00  0.00000000000E+00  0.15717006552E+03  0.15717006552E+03  0.00000000000E+00 0.  1.
         -2   -1    0    0    0  501 -0.00000000000E+00 -0.00000000000E+00 -0.49335663497E+03  0.49335663497E+03  0.00000000000E+00 0. -1.
         25    1    1    2    0    0 -0.18276660474E+01 -0.21481113680E+03 -0.29839114056E+01  0.24855797832E+03  0.12500000000E+03 0.  0.
          1    1    1    2  502    0  0.19381686718E+02  0.17860489719E+03 -0.23471205394E+03  0.29557589101E+03  0.00000000000E+00 0. -1.
         -1    1    1    2    0  501 -0.17554020671E+02  0.36206239616E+02 -0.98490604101E+02  0.10639283117E+03  0.00000000000E+00 0.  1.
<mgrwt>
<rscale>  4 0.55692331E+03</rscale>
<asrwt>0</asrwt>
<pdfrwt beam="1">  1        2 0.24180010E-01 0.55692331E+03</pdfrwt>
<pdfrwt beam="2">  1       -2 0.75901020E-01 0.55692331E+03</pdfrwt>
<totfact> 0.35783559E+02</totfact>
</mgrwt>
</event>
<event>
 5    0  0.5719562E-003  0.4587876E+03  0.7546771E-02  0.1025133E+00
         -3   -1    0    0    0  501 -0.00000000000E+00  0.00000000000E+00  0.66867468527E+03  0.66867468527E+03  0.00000000000E+00 0. -1.
          3   -1    0    0  502    0  0.00000000000E+00 -0.00000000000E+00 -0.78695243933E+02  0.78695243933E+02  0.00000000000E+00 0.  1.
         25    1    1    2    0    0  0.10616891105E+03  0.17659190612E+03  0.36878150275E+03  0.44054663289E+03  0.12500000000E+03 0.  0.
          2    1    1    2  502    0 -0.92460308178E+02 -0.13481259779E+03  0.19909861287E+03  0.25761134051E+03  0.00000000000E+00 0. -1.
         -2    1    1    2    0  501 -0.13708602870E+02 -0.41779308327E+02  0.22099325718E+02  0.49211955805E+02  0.00000000000E+00 0.  1.
<mgrwt>
<rscale>  4 0.45878761E+03</rscale>
<asrwt>0</asrwt>
<pdfrwt beam="1">  1        3 0.12106961E-01 0.45878761E+03</pdfrwt>
<pdfrwt beam="2">  1       -3 0.10287302E+00 0.45878761E+03</pdfrwt>
<totfact> 0.11798586E+02</totfact>
</mgrwt>
</event>
<event>
 5    0  0.5719562E-003  0.7900686E+03  0.7546771E-02  0.9574505E-01
          2   -1    0    0  502    0  0.00000000000E+00  0.00000000000E+00  0.11152861588E+04  0.11152861588E+04  0.00000000000E+00 0.  1.
         -2   -1    0    0    0  501 -0.00000000000E+00 -0.00000000000E+00 -0.13992111375E+03  0.13992111375E+03  0.00000000000E+00 0. -1.
         25    1    1    2    0    0  0.50729649460E+02 -0.34209534944E+03  0.71350963253E+03  0.80269777697E+03  0.12500000000E+03 0.  0.
          2    1    1    2  502    0 -0.58709272875E+02  0.31156205737E+03  0.17954027687E+03  0.36435203490E+03  0.00000000000E+00 0. -1.
         -2    1    1    2    0  501  0.79796234147E+01  0.30533292071E+02  0.82315135636E+02  0.88157460656E+02  0.00000000000E+00 0.  1.
<mgrwt>
<rscale>  4 0.79006856E+03</rscale>
<asrwt>0</asrwt>
<pdfrwt beam="1">  1        2 0.17158248E+00 0.79006856E+03</pdfrwt>
<pdfrwt beam="2">  1       -2 0.21526326E-01 0.79006856E+03</pdfrwt>
<totfact> 0.40181513E+02</totfact>
</mgrwt>
</event>
<event>
 5    0  0.5719562E-003  0.4799048E+03  0.7546771E-02  0.1019161E+00
         -2   -1    0    0    0  501 -0.00000000000E+00  0.00000000000E+00  0.48037172744E+03  0.48037172744E+03  0.00000000000E+00 0. -1.
          2   -1    0    0  502    0  0.00000000000E+00 -0.00000000000E+00 -0.11985955820E+03  0.11985955820E+03  0.00000000000E+00 0.  1.
         25    1    1    2    0    0  0.21572021569E+03  0.33152869729E+02  0.15506577797E+03  0.29547372087E+03  0.12500000000E+03 0.  0.
          2    1    1    2  502    0 -0.39162752844E+02  0.87106145496E+01  0.60143063057E+02  0.72296500953E+02  0.00000000000E+00 0.  1.
         -2    1    1    2    0  501 -0.17655746284E+03 -0.41863484279E+02  0.14530332822E+03  0.23246106382E+03  0.00000000000E+00 0. -1.
<mgrwt>
<rscale>  4 0.47990475E+03</rscale>
<asrwt>0</asrwt>
<pdfrwt beam="1">  1        2 0.18439932E-01 0.47990475E+03</pdfrwt>
<pdfrwt beam="2">  1       -2 0.73903342E-01 0.47990475E+03</pdfrwt>
<totfact> 0.52028097E+02</totfact>
</mgrwt>
</event>
<event>
 5    0  0.5719562E-003  0.6619646E+03  0.7546771E-02  0.9784584E-01
          2   -1    0    0  502    0  0.00000000000E+00  0.00000000000E+00  0.29455608467E+04  0.29455608467E+04  0.00000000000E+00 0.  1.
         -2   -1    0    0    0  501 -0.00000000000E+00 -0.00000000000E+00 -0.37191314768E+02  0.37191314768E+02  0.00000000000E+00 0. -1.
         25    1    1    2    0    0 -0.19970312289E+03 -0.72779909028E+02  0.25591400829E+04  0.25709922630E+04  0.12500000000E+03 0.  0.
          4    1    1    2  502    0  0.17531529637E+03  0.50927166919E+02  0.26894961825E+03  0.32505834342E+03  0.00000000000E+00 0. -1.
         -4    1    1    2    0  501  0.24387826521E+02  0.21852742109E+02  0.80279830840E+02  0.86701555117E+02  0.00000000000E+00 0.  1.
<mgrwt>
<rscale>  4 0.66196459E+03</rscale>
<asrwt>0</asrwt>
<pdfrwt beam="1">  1        2 0.45316302E+00 0.66196459E+03</pdfrwt>
<pdfrwt beam="2">  1       -2 0.57217431E-02 0.66196459E+03</pdfrwt>
<totfact> 0.33490688E+02</totfact>
</mgrwt>
</event>
<event>
 5    0  0.5719562E-003  0.6200883E+03  0.7546771E-02  0.9864584E-01
         -2   -1    0    0    0  501 -0.00000000000E+00  0.00000000000E+00  0.21309255454E+03  0.21309255454E+03  0.00000000000E+00 0. -1.
          2   -1    0    0  502    0  0.00000000000E+00 -0.00000000000E+00 -0.45110618550E+03  0.45110618550E+03  0.00000000000E+00 0.  1.
         25    1    1    2    0    0 -0.10151426208E+03 -0.20000718488E+03 -0.30974147345E+03  0.40233418918E+03  0.12500000000E+03 0.  0.
          3    1    1    2  502    0  0.78011455120E+02  0.10156723952E+03 -0.14524198212E+02  0.12889004464E+03  0.00000000000E+00 0.  1.
         -3    1    1    2    0  501  0.23502806961E+02  0.98439945356E+02  0.86252040710E+02  0.13297450622E+03  0.00000000000E+00 0. -1.
<mgrwt>
<rscale>  4 0.62008828E+03</rscale>
<asrwt>0</asrwt>
<pdfrwt beam="1">  1        2 0.69400951E-01 0.62008828E+03</pdfrwt>
<pdfrwt beam="2">  1       -2 0.32783470E-01 0.62008828E+03</pdfrwt>
<totfact> 0.60567300E+02</totfact>
</mgrwt>
</event>
<event>
 5    0  0.5719562E-003  0.6999615E+03  0.7546771E-02  0.9717298E-01
         -2   -1    0    0    0  501 -0.00000000000E+00  0.00000000000E+00  0.22420917542E+04  0.22420917542E+04  0.00000000000E+00 0. -1.
          2   -1    0    0  502    0  0.00000000000E+00 -0.00000000000E+00 -0.54630472494E+02  0.54630472494E+02  0.00000000000E+00 0.  1.
         25    1    1    2    0    0 -0.67331484952E+02 -0.21230132377E+03  0.80224326566E+03  0.84191723954E+03  0.12500000000E+03 0.  0.
          3    1    1    2  502    0  0.17837389166E+03  0.15403004747E+03  0.42108426460E+03  0.48254995455E+03  0.00000000000E+00 0.  1.
         -3    1    1    2    0  501 -0.11104240671E+03  0.58271276301E+02  0.96413375143E+03  0.97225503257E+03  0.00000000000E+00 0. -1.
<mgrwt>
<rscale>  4 0.69996152E+03</rscale>
<asrwt>0</asrwt>
<pdfrwt beam="1">  1        2 0.84046898E-02 0.69996152E+03</pdfrwt>
<pdfrwt beam="2">  1       -2 0.34493712E+00 0.69996152E+03</pdfrwt>
<totfact> 0.14734090E+01</totfact>
</mgrwt>
</event>
<event>
 5    0  0.5719562E-003  0.6335309E+03  0.7546771E-02  0.9838183E-01
          2   -1    0    0  502    0  0.00000000000E+00  0.00000000000E+00  0.10865853253E+04  0.10865853253E+04  0.00000000000E+00 0.  1.
         -2   -1    0    0    0  501 -0.00000000000E+00 -0.00000000000E+00 -0.92344658508E+02  0.92344658508E+02  0.00000000000E+00 0. -1.
         25    1    1    2    0    0 -0.14679713008E+03  0.25825711652E+03  0.45685141156E+03  0.55909243232E+03  0.12500000000E+03 0.  0.
          4    1    1    2  502    0  0.14145735478E+03 -0.23252809764E+03  0.52370930405E+03  0.59021261809E+03  0.00000000000E+00 0.  1.
         -4    1    1    2    0  501  0.53397753069E+01 -0.25729018880E+02  0.13679951137E+02  0.29624933350E+02  0.00000000000E+00 0. -1.
<mgrwt>
<rscale>  4 0.63353090E+03</rscale>
<asrwt>0</asrwt>
<pdfrwt beam="1">  1        2 0.16716696E+00 0.63353090E+03</pdfrwt>
<pdfrwt beam="2">  1       -2 0.14206871E-01 0.63353090E+03</pdfrwt>
<totfact> 0.86059048E+02</totfact>
</mgrwt>
</event>
<event>
 5    0  0.5719562E-003  0.5663560E+03  0.7546771E-02  0.9977775E-01
          1   -1    0    0  502    0  0.00000000000E+00  0.00000000000E+00  0.17916405732E+03  0.17916405732E+03  0.00000000000E+00 0. -1.
         -1   -1    0    0    0  501 -0.00000000000E+00 -0.00000000000E+00 -0.44757744157E+03  0.44757744157E+03  0.00000000000E+00 0.  1.
         25    1    1    2    0    0  0.10205609780E+03 -0.21831450810E+03 -0.23646288112E+03  0.36002272941E+03  0.12500000000E+03 0.  0.
          2    1    1    2  502    0 -0.27238928150E+02  0.15757963306E+03 -0.52254382939E+02  0.16823739328E+03  0.00000000000E+00 0.  1.
         -2    1    1    2    0  501 -0.74817169655E+02  0.60734875037E+02  0.20303879814E+02  0.98481376190E+02  0.00000000000E+00 0. -1.
<mgrwt>
<rscale>  4 0.56635604E+03</rscale>
<asrwt>0</asrwt>
<pdfrwt beam="1">  1        1 0.27563702E-01 0.56635604E+03</pdfrwt>
<pdfrwt beam="2">  1       -1 0.68858067E-01 0.56635604E+03</pdfrwt>
<totfact> 0.37176715E+02</totfact>
</mgrwt>
</event>
<event>
 5    0  0.5719562E-003  0.7479146E+03  0.7546771E-02  0.9638628E-01
          1   -1    0    0  502    0  0.00000000000E+00  0.00000000000E+00  0.31076021460E+03  0.31076021460E+03  0.00000000000E+00 0.  1.
         -1   -1    0    0    0  501 -0.00000000000E+00 -0.00000000000E+00 -0.45000637558E+03  0.45000637558E+03  0.00000000000E+00 0. -1.
         25    1    1    2    0    0 -0.25283112335E+03  0.11931321203E+03 -0.18793158313E+03  0.35930836261E+03  0.12500000000E+03 0.  0.
          4    1    1    2  502    0  0.70062385285E+02 -0.12413093159E+03 -0.92963532822E+02  0.17017474679E+03  0.00000000000E+00 0. -1.
         -4    1    1    2    0  501  0.18276873807E+03  0.48177195615E+01  0.14164895498E+03  0.23128348078E+03  0.00000000000E+00 0.  1.
<mgrwt>
<rscale>  4 0.74791464E+03</rscale>
<asrwt>0</asrwt>
<pdfrwt beam="1">  1        1 0.47809264E-01 0.74791464E+03</pdfrwt>
<pdfrwt beam="2">  1       -1 0.69231750E-01 0.74791464E+03</pdfrwt>
<totfact> 0.17914456E+02</totfact>
</mgrwt>
</event>
<event>
 5    0  0.5719562E-003  0.7522596E+03  0.7546771E-02  0.9631812E-01
          2   -1    0    0  502    0  0.00000000000E+00  0.00000000000E+00  0.15691048167E+03  0.15691048167E+03  0.00000000000E+00 0.  1.
         -2   -1    0    0    0  501 -0.00000000000E+00 -0.00000000000E+00 -0.90161995730E+03  0.90161995730E+03  0.00000000000E+00 0. -1.
         25    1    1    2    0    0 -0.71525464991E+02 -0.23624540745E+03 -0.48813649967E+03  0.56109716359E+03  0.12500000000E+03 0.  0.
          1    1    1    2  502    0  0.15050739262E+03 -0.21011435499E+02 -0.13026574910E+03  0.20015774040E+03  0.00000000000E+00 0. -1.
         -1    1    1    2    0  501 -0.78981927625E+02  0.25725684294E+03 -0.12630722686E+03  0.29727553497E+03  0.00000000000E+00 0.  1.
<mgrwt>
<rscale>  4 0.75225959E+03</rscale>
<asrwt>0</asrwt>
<pdfrwt beam="1">  1        2 0.24140074E-01 0.75225959E+03</pdfrwt>
<pdfrwt beam="2">  1       -2 0.13871076E+00 0.75225959E+03</pdfrwt>
<totfact> 0.84783304E+01</totfact>
</mgrwt>
</event>
<event>
 5    0  0.5719562E-003  0.7750127E+03  0.7546771E-02  0.9596906E-01
          2   -1    0    0  502    0  0.00000000000E+00  0.00000000000E+00  0.38085951825E+03  0.38085951825E+03  0.00000000000E+00 0. -1.
         -2   -1    0    0    0  501 -0.00000000000E+00 -0.00000000000E+00 -0.39426917076E+03  0.39426917076E+03  0.00000000000E+00 0.  1.
         25    1    1    2    0    0 -0.22014938391E+03  0.11681626242E+03  0.12433218621E+03  0.30527902471E+03  0.12500000000E+03 0.  0.
          2    1    1    2  502    0  0.27580587517E+03 -0.19502618442E+03 -0.53239693996E+02  0.34196280266E+03  0.00000000000E+00 0. -1.
         -2    1    1    2    0  501 -0.55656491261E+02  0.78209921991E+02 -0.84502144723E+02  0.12788686164E+03  0.00000000000E+00 0.  1.
<mgrwt>
<rscale>  4 0.77501269E+03</rscale>
<asrwt>0</asrwt>
<pdfrwt beam="1">  1        2 0.58593772E-01 0.77501269E+03</pdfrwt>
<pdfrwt beam="2">  1       -2 0.60656795E-01 0.77501269E+03</pdfrwt>
<totfact> 0.21447050E+02</totfact>
</mgrwt>
</event>
<event>
 5    0  0.5719562E-003  0.6507190E+03  0.7546771E-02  0.9805431E-01
          2   -1    0    0  502    0  0.00000000000E+00  0.00000000000E+00  0.12757049012E+03  0.12757049012E+03  0.00000000000E+00 0. -1.
         -2   -1    0    0    0  501 -0.00000000000E+00 -0.00000000000E+00 -0.82980632150E+03  0.82980632150E+03  0.00000000000E+00 0.  1.
         25    1    1    2    0    0 -0.13843443273E+03  0.16584519079E+03 -0.37056504321E+03  0.44677977877E+03  0.12500000000E+03 0.  0.
          3    1    1    2  502    0  0.17695279626E+03 -0.11335001118E+03 -0.42772985397E+02  0.21445289790E+03  0.00000000000E+00 0. -1.
         -3    1    1    2    0  501 -0.38518363535E+02 -0.52495179610E+02 -0.28889780278E+03  0.29614413495E+03  0.00000000000E+00 0.  1.
<mgrwt>
<rscale>  4 0.65071898E+03</rscale>
<asrwt>0</asrwt>
<pdfrwt beam="1">  1        2 0.19626229E-01 0.65071898E+03</pdfrwt>
<pdfrwt beam="2">  1       -2 0.12766251E+00 0.65071898E+03</pdfrwt>
<totfact> 0.13382352E+02</totfact>
</mgrwt>
</event>
<event>
 5    0  0.5719562E-003  0.6440441E+03  0.7546771E-02  0.9818020E-01
         -1   -1    0    0    0  501 -0.00000000000E+00  0.00000000000E+00  0.82245086448E+02  0.82245086448E+02  0.00000000000E+00 0.  1.
          1   -1    0    0  502    0  0.00000000000E+00 -0.00000000000E+00 -0.12608437371E+04  0.12608437371E+04  0.00000000000E+00 0. -1.
         25    1    1    2    0    0 -0.15699446555E+03  0.23481396810E+03 -0.49768238081E+03  0.58574534910E+03  0.12500000000E+03 0.  0.
          3    1    1    2  502    0  0.14603305801E+03 -0.26159505986E+03 -0.58645571775E+03  0.65854987530E+03  0.00000000000E+00 0. -1.
         -3    1    1    2    0  501  0.10961407538E+02  0.26781091754E+02 -0.94460552043E+02  0.98793599100E+02  0.00000000000E+00 0.  1.
<mgrwt>
<rscale>  4 0.64404410E+03</rscale>
<asrwt>0</asrwt>
<pdfrwt beam="1">  1        1 0.19397594E+00 0.64404410E+03</pdfrwt>
<pdfrwt beam="2">  1       -1 0.12653092E-01 0.64404410E+03</pdfrwt>
<totfact> 0.42613553E+02</totfact>
</mgrwt>
</event>
