<event>
 5    0  0.3502913E+000  0.2784869E+03  0.7546771E-02  0.1096518E+00
         21   -1    0    0  502  501  0.00000000000E+00  0.00000000000E+00  0.80160402334E+03  0.80160402334E+03  0.00000000000E+00 0.  1.
         21   -1    0    0  503  502 -0.00000000000E+00 -0.00000000000E+00 -0.94210792886E+02  0.94210792886E+02  0.00000000000E+00 0.  1.
         25    1    1    2    0    0 -0.23584860949E+03  0.79406491093E+02  0.26134838416E+03  0.38191351813E+03  0.12500000000E+03 0.  0.
         21    1    1    2  503  504  0.15720140489E+03 -0.71744262863E+02  0.26497781061E+03  0.31634279045E+03  0.00000000000E+00 0.  1.
         21    1    1    2  504  501  0.78647204605E+02 -0.76622282301E+01  0.18106703569E+03  0.19755850766E+03  0.00000000000E+00 0. -1.
<mgrwt>
<rscale>  4 0.27848691E+03</rscale>
<asrwt>0</asrwt>
<pdfrwt beam="1">  1       21 0.12332369E+00 0.27848691E+03</pdfrwt>
<pdfrwt beam="2">  1       21 0.14493969E-01 0.27848691E+03</pdfrwt>
<totfact> 0.19649194E+04</totfact>
</mgrwt>
</event>
<event>
 5    0  0.2159162E+000  0.2840628E+03  0.7546771E-02  0.1093490E+00
         21   -1    0    0  502  501  0.00000000000E+00  0.00000000000E+00  0.40676333332E+03  0.40676333332E+03  0.00000000000E+00 0. -1.
         21   -1    0    0  503  502 -0.00000000000E+00 -0.00000000000E+00 -0.22795606847E+03  0.22795606847E+03  0.00000000000E+00 0. -1.
         25    1    1    2    0    0  0.24368297814E+03 -0.75400726637E+02 -0.29224067547E+02  0.28556209401E+03  0.12500000000E+03 0.  0.
         21    1    1    2  503  504 -0.18710239811E+03  0.91610227674E+01  0.10691460166E+03  0.21568950777E+03  0.00000000000E+00 0. -1.
         21    1    1    2  504  501 -0.56580580028E+02  0.66239703870E+02  0.10111673074E+03  0.13346780002E+03  0.00000000000E+00 0. -1.
<mgrwt>
<rscale>  4 0.28406278E+03</rscale>
<asrwt>0</asrwt>
<pdfrwt beam="1">  1       21 0.62578974E-01 0.28406278E+03</pdfrwt>
<pdfrwt beam="2">  1       21 0.35070165E-01 0.28406278E+03</pdfrwt>
<totfact> 0.17684263E+04</totfact>
</mgrwt>
</event>
<event>
 5    0  0.2159162E+000  0.3214196E+03  0.7546771E-02  0.1074998E+00
         21   -1    0    0  502  501  0.00000000000E+00  0.00000000000E+00  0.64917421887E+03  0.64917421887E+03  0.00000000000E+00 0. -1.
         21   -1    0    0  503  502 -0.00000000000E+00 -0.00000000000E+00 -0.27771529791E+03  0.27771529791E+03  0.00000000000E+00 0. -1.
         25    1    1    2    0    0 -0.13434157677E+03 -0.29447259207E+03  0.46061579157E+03  0.57667466927E+03  0.12500000000E+03 0.  0.
         21    1    1    2  503  504  0.68782160512E+01  0.33106630189E+02  0.20377197014E+02  0.39478968789E+02  0.00000000000E+00 0. -1.
         21    1    1    2  504  501  0.12746336072E+03  0.26136596188E+03 -0.10953406762E+03  0.31073587872E+03  0.00000000000E+00 0. -1.
<mgrwt>
<rscale>  4 0.32141962E+03</rscale>
<asrwt>0</asrwt>
<pdfrwt beam="1">  1       21 0.99872957E-01 0.32141962E+03</pdfrwt>
<pdfrwt beam="2">  1       21 0.42725431E-01 0.32141962E+03</pdfrwt>
<totfact> 0.39962126E+03</totfact>
</mgrwt>
</event>
<event>
 5    0  0.2159162E+000  0.2552416E+03  0.7546771E-02  0.1110036E+00
         21   -1    0    0  502  501  0.00000000000E+00  0.00000000000E+00  0.28528982143E+03  0.28528982143E+03  0.00000000000E+00 0.  1.
         21   -1    0    0  503  502 -0.00000000000E+00 -0.00000000000E+00 -0.62519876861E+03  0.62519876861E+03  0.00000000000E+00 0.  1.
         25    1    1    2    0    0 -0.17243612469E+03  0.15204899958E+03  0.18517035094E+03  0.32057163667E+03  0.12500000000E+03 0.  0.
         21    1    1    2  503  504  0.12903928987E+03 -0.10715630827E+03 -0.49083715107E+03  0.51870485019E+03  0.00000000000E+00 0.  1.
         21    1    1    2  504  501  0.43396834826E+02 -0.44892691305E+02 -0.34242147041E+02  0.71212103181E+02  0.00000000000E+00 0. -1.
<mgrwt>
<rscale>  4 0.25524155E+03</rscale>
<asrwt>0</asrwt>
<pdfrwt beam="1">  1       21 0.43890742E-01 0.25524155E+03</pdfrwt>
<pdfrwt beam="2">  1       21 0.96184426E-01 0.25524155E+03</pdfrwt>
<totfact> 0.42901463E+03</totfact>
</mgrwt>
</event>
<event>
 5    0  0.2159162E+000  0.3315619E+03  0.7546771E-02  0.1070448E+00
         21   -1    0    0  502  501  0.00000000000E+00  0.00000000000E+00  0.80705110305E+03  0.80705110305E+03  0.00000000000E+00 0.  1.
         21   -1    0    0  503  502 -0.00000000000E+00 -0.00000000000E+00 -0.48047048285E+03  0.48047048285E+03  0.00000000000E+00 0.  1.
         25    1    1    2    0    0  0.31146246599E+03 -0.12788739835E+02  0.69147258927E+03  0.76872086045E+03  0.12500000000E+03 0.  0.
         21    1    1    2  503  504 -0.55373886167E+02 -0.44439977756E+02 -0.20684626154E+01  0.71031383415E+02  0.00000000000E+00 0. -1.
         21    1    1    2  504  501 -0.25608857982E+03  0.57228717591E+02 -0.36282350645E+03  0.44776934203E+03  0.00000000000E+00 0.  1.
<mgrwt>
<rscale>  4 0.33156189E+03</rscale>
<asrwt>0</asrwt>
<pdfrwt beam="1">  1       21 0.12416171E+00 0.33156189E+03</pdfrwt>
<pdfrwt beam="2">  1       21 0.73918536E-01 0.33156189E+03</pdfrwt>
<totfact> 0.71236637E+02</totfact>
</mgrwt>
</event>
<event>
 5    0  0.2159162E+000  0.2448440E+03  0.7546771E-02  0.1116607E+00
         21   -1    0    0  502  501  0.00000000000E+00  0.00000000000E+00  0.86220691045E+03  0.86220691045E+03  0.00000000000E+00 0.  1.
         21   -1    0    0  503  502 -0.00000000000E+00 -0.00000000000E+00 -0.28139292886E+03  0.28139292886E+03  0.00000000000E+00 0.  1.
         25    1    1    2    0    0  0.18465098551E+03 -0.10666921811E+03  0.47239881884E+03  0.53316034416E+03  0.12500000000E+03 0.  0.
         21    1    1    2  503  504  0.20893588477E+02  0.17707359769E+03  0.28111732857E+03  0.33289420761E+03  0.00000000000E+00 0.  1.
         21    1    1    2  504  501 -0.20554457399E+03 -0.70404379572E+02 -0.17270216581E+03  0.27754528754E+03  0.00000000000E+00 0.  1.
<mgrwt>
<rscale>  4 0.24484402E+03</rscale>
<asrwt>0</asrwt>
<pdfrwt beam="1">  1       21 0.13264722E+00 0.24484402E+03</pdfrwt>
<pdfrwt beam="2">  1       21 0.43291220E-01 0.24484402E+03</pdfrwt>
<totfact> 0.20159292E+03</totfact>
</mgrwt>
</event>
<event>
 5    0  0.2159162E+000  0.3538703E+03  0.7546771E-02  0.1061038E+00
         21   -1    0    0  502  501  0.00000000000E+00  0.00000000000E+00  0.92487613397E+03  0.92487613397E+03  0.00000000000E+00 0.  1.
         21   -1    0    0  503  502 -0.00000000000E+00 -0.00000000000E+00 -0.18421471255E+03  0.18421471255E+03  0.00000000000E+00 0.  1.
         25    1    1    2    0    0  0.89154209233E+02  0.31882712606E+03  0.68470335528E+03  0.77074178171E+03  0.12500000000E+03 0.  0.
         21    1    1    2  503  504  0.21860952017E+01 -0.24438586428E+02  0.10868037838E+02  0.26835382712E+02  0.00000000000E+00 0.  1.
         21    1    1    2  504  501 -0.91340304434E+02 -0.29438853963E+03  0.45090028303E+02  0.31151368210E+03  0.00000000000E+00 0.  1.
<mgrwt>
<rscale>  4 0.35387033E+03</rscale>
<asrwt>0</asrwt>
<pdfrwt beam="1">  1       21 0.14228863E+00 0.35387033E+03</pdfrwt>
<pdfrwt beam="2">  1       21 0.28340726E-01 0.35387033E+03</pdfrwt>
<totfact> 0.36838606E+03</totfact>
</mgrwt>
</event>
