<event>
 5    0  0.9662576E-001  0.3782900E+03  0.7546771E-02  0.1051568E+00
         -1   -1    0    0    0  501 -0.00000000000E+00  0.00000000000E+00  0.53951199150E+03  0.53951199150E+03  0.00000000000E+00 0.  1.
         21   -1    0    0  503  502  0.00000000000E+00 -0.00000000000E+00 -0.41221365637E+03  0.41221365637E+03  0.00000000000E+00 0. -1.
         25    1    1    2    0    0  0.35194632988E+03  0.15377109248E+03 -0.11873043547E+03  0.42099131144E+03  0.12500000000E+03 0.  0.
         21    1    1    2  503  501 -0.10230598641E+03  0.56785330568E+02  0.15017637457E+03  0.19037865453E+03  0.00000000000E+00 0.  1.
         -1    1    1    2    0  502 -0.24964034347E+03 -0.21055642305E+03  0.95852396030E+02  0.34035568190E+03  0.00000000000E+00 0.  1.
<mgrwt>
<rscale>  4 0.37829002E+03</rscale>
<asrwt>0</asrwt>
<pdfrwt beam="1">  1       21 0.63417486E-01 0.37829002E+03</pdfrwt>
<pdfrwt beam="2">  1       -1 0.83001845E-01 0.37829002E+03</pdfrwt>
<totfact> 0.30154942E+02</totfact>
</mgrwt>
</event>
<event>
 5    0  0.9662576E-001  0.3342751E+03  0.7546771E-02  0.1069261E+00
          1   -1    0    0  503    0 -0.00000000000E+00  0.00000000000E+00  0.70311890554E+03  0.70311890554E+03  0.00000000000E+00 0. -1.
         21   -1    0    0  501  502  0.00000000000E+00 -0.00000000000E+00 -0.27428810503E+03  0.27428810503E+03  0.00000000000E+00 0. -1.
         25    1    1    2    0    0 -0.31257235459E+03  0.23933678130E+02 -0.10400656496E+03  0.35315246475E+03  0.12500000000E+03 0.  0.
         21    1    1    2  503  502  0.19966607655E+02  0.10921249618E+02  0.11735333580E+02  0.25605803419E+02  0.00000000000E+00 0.  1.
          1    1    1    2  501    0  0.29260574694E+03 -0.34854927748E+02  0.52110203189E+03  0.59864874240E+03  0.00000000000E+00 0. -1.
<mgrwt>
<rscale>  4 0.33427506E+03</rscale>
<asrwt>0</asrwt>
<pdfrwt beam="1">  1       21 0.42198170E-01 0.33427506E+03</pdfrwt>
<pdfrwt beam="2">  1        1 0.10817214E+00 0.33427506E+03</pdfrwt>
<totfact> 0.15995193E+03</totfact>
</mgrwt>
</event>
<event>
 5    0  0.9662576E-001  0.2766757E+03  0.7546771E-02  0.1097519E+00
         21   -1    0    0  501  502  0.00000000000E+00  0.00000000000E+00  0.19510685212E+03  0.19510685212E+03  0.00000000000E+00 0. -1.
          2   -1    0    0  503    0 -0.00000000000E+00 -0.00000000000E+00 -0.15192962870E+04  0.15192962870E+04  0.00000000000E+00 0. -1.
         25    1    1    2    0    0  0.24922579977E+03 -0.19077797803E+01  0.71533914311E+02  0.28785280924E+03  0.12500000000E+03 0.  0.
         21    1    1    2  503  502 -0.21826788904E+02 -0.17309863457E+02 -0.54615980264E+03  0.54686979264E+03  0.00000000000E+00 0. -1.
          2    1    1    2  501    0 -0.22739901086E+03  0.19217643238E+02 -0.84956354656E+03  0.87968053723E+03  0.00000000000E+00 0. -1.
<mgrwt>
<rscale>  4 0.27667566E+03</rscale>
<asrwt>0</asrwt>
<pdfrwt beam="1">  1       21 0.30016440E-01 0.27667566E+03</pdfrwt>
<pdfrwt beam="2">  1        2 0.23373788E+00 0.27667566E+03</pdfrwt>
<totfact> 0.17503160E+03</totfact>
</mgrwt>
</event>
<event>
 5    0  0.9662576E-001  0.3980633E+03  0.7546771E-02  0.1044452E+00
          2   -1    0    0  503    0 -0.00000000000E+00  0.00000000000E+00  0.26376899815E+04  0.26376899815E+04  0.00000000000E+00 0.  1.
         21   -1    0    0  501  502  0.00000000000E+00 -0.00000000000E+00 -0.35345987022E+03  0.35345987022E+03  0.00000000000E+00 0.  1.
         25    1    1    2    0    0  0.28600058000E+03 -0.24778299129E+03 -0.20672140092E+03  0.44894485199E+03  0.12500000000E+03 0.  0.
         21    1    1    2  503  502 -0.68226069620E+02 -0.63222898743E+02  0.20736214708E+03  0.22726854499E+03  0.00000000000E+00 0.  1.
          2    1    1    2  501    0 -0.21777451038E+03  0.31100589003E+03  0.22835893652E+04  0.23149364548E+04  0.00000000000E+00 0.  1.
<mgrwt>
<rscale>  4 0.39806331E+03</rscale>
<asrwt>0</asrwt>
<pdfrwt beam="1">  1       21 0.54378443E-01 0.39806331E+03</pdfrwt>
<pdfrwt beam="2">  1        2 0.40579845E+00 0.39806331E+03</pdfrwt>
<totfact> 0.12232860E+02</totfact>
</mgrwt>
</event>
<event>
 5    0  0.1614700E+000  0.2813411E+03  0.7546771E-02  0.1094959E+00
         21   -1    0    0  501  502  0.00000000000E+00  0.00000000000E+00  0.12090114666E+03  0.12090114666E+03  0.00000000000E+00 0. -1.
          2   -1    0    0  503    0 -0.00000000000E+00 -0.00000000000E+00 -0.11990170678E+04  0.11990170678E+04  0.00000000000E+00 0.  1.
         25    1    1    2    0    0 -0.97153935326E+02  0.21617848855E+03 -0.20203497120E+03  0.33558181663E+03  0.12500000000E+03 0.  0.
         21    1    1    2  503  502 -0.13393731281E+03 -0.99277816284E+01 -0.20303168575E+03  0.24343300933E+03  0.00000000000E+00 0. -1.
          2    1    1    2  501    0  0.23109124813E+03 -0.20625070693E+03 -0.67304926414E+03  0.74090338846E+03  0.00000000000E+00 0.  1.
<mgrwt>
<rscale>  4 0.28134108E+03</rscale>
<asrwt>0</asrwt>
<pdfrwt beam="1">  1       21 0.18600178E-01 0.28134108E+03</pdfrwt>
<pdfrwt beam="2">  1        2 0.18446415E+00 0.28134108E+03</pdfrwt>
<totfact> 0.65612869E+03</totfact>
</mgrwt>
</event>
<event>
 5    0  0.9662576E-001  0.2460591E+03  0.7546771E-02  0.1115821E+00
         21   -1    0    0  503  502  0.00000000000E+00  0.00000000000E+00  0.74061238582E+03  0.74061238582E+03  0.00000000000E+00 0. -1.
         -3   -1    0    0    0  501 -0.00000000000E+00 -0.00000000000E+00 -0.28952284944E+03  0.28952284944E+03  0.00000000000E+00 0. -1.
         25    1    1    2    0    0 -0.17528785398E+03  0.19086733845E+03  0.56978630536E+03  0.63830839444E+03  0.12500000000E+03 0.  0.
         21    1    1    2  503  501  0.97166997421E+02  0.34189471893E+01  0.61936969467E+02  0.11527923826E+03  0.00000000000E+00 0. -1.
         -3    1    1    2    0  502  0.78120856561E+02 -0.19428628564E+03 -0.18063373844E+03  0.27654760256E+03  0.00000000000E+00 0. -1.
<mgrwt>
<rscale>  4 0.24605915E+03</rscale>
<asrwt>0</asrwt>
<pdfrwt beam="1">  1       21 0.11394037E+00 0.24605915E+03</pdfrwt>
<pdfrwt beam="2">  1       -3 0.44541977E-01 0.24605915E+03</pdfrwt>
<totfact> 0.14608866E+02</totfact>
</mgrwt>
</event>
<event>
 5    0  0.9662576E-001  0.3808602E+03  0.7546771E-02  0.1050616E+00
          2   -1    0    0  503    0 -0.00000000000E+00  0.00000000000E+00  0.12885399017E+04  0.12885399017E+04  0.00000000000E+00 0. -1.
         21   -1    0    0  501  502  0.00000000000E+00 -0.00000000000E+00 -0.64564880144E+03  0.64564880144E+03  0.00000000000E+00 0.  1.
         25    1    1    2    0    0 -0.11964557726E+03 -0.32784240344E+03 -0.44841631424E+03  0.58180572061E+03  0.12500000000E+03 0.  0.
         21    1    1    2  503  502 -0.26248291633E+03 -0.34741154140E+02  0.45384130473E+03  0.52542949959E+03  0.00000000000E+00 0. -1.
          2    1    1    2  501    0  0.38212849359E+03  0.36258355758E+03  0.63746610975E+03  0.82695348293E+03  0.00000000000E+00 0. -1.
<mgrwt>
<rscale>  4 0.38086020E+03</rscale>
<asrwt>0</asrwt>
<pdfrwt beam="1">  1       21 0.99330585E-01 0.38086020E+03</pdfrwt>
<pdfrwt beam="2">  1        2 0.19823691E+00 0.38086020E+03</pdfrwt>
<totfact> 0.16979294E+02</totfact>
</mgrwt>
</event>
<event>
 5    0  0.9662576E-001  0.6031016E+03  0.7546771E-02  0.9898992E-01
         21   -1    0    0  501  502  0.00000000000E+00  0.00000000000E+00  0.12603273815E+03  0.12603273815E+03  0.00000000000E+00 0.  1.
          2   -1    0    0  503    0 -0.00000000000E+00 -0.00000000000E+00 -0.36403811142E+04  0.36403811142E+04  0.00000000000E+00 0.  1.
         25    1    1    2    0    0  0.44399377985E+03 -0.41399869839E+03 -0.10743885154E+04  0.12403471614E+04  0.12500000000E+03 0.  0.
         21    1    1    2  503  502 -0.27865972653E+02  0.35634795864E+02 -0.60886783182E+03  0.61054597512E+03  0.00000000000E+00 0.  1.
          2    1    1    2  501    0 -0.41612780720E+03  0.37836390252E+03 -0.18310920288E+04  0.19155207158E+04  0.00000000000E+00 0.  1.
<mgrwt>
<rscale>  4 0.60310159E+03</rscale>
<asrwt>0</asrwt>
<pdfrwt beam="1">  1       21 0.19389652E-01 0.60310159E+03</pdfrwt>
<pdfrwt beam="2">  1        2 0.56005863E+00 0.60310159E+03</pdfrwt>
<totfact> 0.21363789E+02</totfact>
</mgrwt>
</event>
<event>
 5    0  0.9662576E-001  0.2986006E+03  0.7546771E-02  0.1085942E+00
         21   -1    0    0  501  502  0.00000000000E+00  0.00000000000E+00  0.54751008239E+03  0.54751008239E+03  0.00000000000E+00 0. -1.
          3   -1    0    0  503    0 -0.00000000000E+00 -0.00000000000E+00 -0.33528676993E+03  0.33528676993E+03  0.00000000000E+00 0.  1.
         25    1    1    2    0    0 -0.27480459979E+03 -0.18254656183E+02  0.42532084585E+03  0.52189426367E+03  0.12500000000E+03 0.  0.
         21    1    1    2  503  502  0.28920623583E+02 -0.78255987269E+01  0.59758981473E+01  0.30550839965E+02  0.00000000000E+00 0.  1.
          3    1    1    2  501    0  0.24588397620E+03  0.26080254910E+02 -0.21907343154E+03  0.33035174868E+03  0.00000000000E+00 0.  1.
<mgrwt>
<rscale>  4 0.29860065E+03</rscale>
<asrwt>0</asrwt>
<pdfrwt beam="1">  1       21 0.84232320E-01 0.29860065E+03</pdfrwt>
<pdfrwt beam="2">  1        3 0.51582580E-01 0.29860065E+03</pdfrwt>
<totfact> 0.22051401E+02</totfact>
</mgrwt>
</event>
<event>
 5    0  0.9662576E-001  0.2452101E+03  0.7546771E-02  0.1116370E+00
         21   -1    0    0  501  502  0.00000000000E+00  0.00000000000E+00  0.35950192547E+03  0.35950192547E+03  0.00000000000E+00 0.  1.
          2   -1    0    0  503    0 -0.00000000000E+00 -0.00000000000E+00 -0.28705736834E+04  0.28705736834E+04  0.00000000000E+00 0.  1.
         25    1    1    2    0    0  0.86509918943E+02 -0.19006849572E+03  0.29046273936E+03  0.37895065919E+03  0.12500000000E+03 0.  0.
         21    1    1    2  503  502 -0.12797929050E+03 -0.13161877174E+03 -0.14312955072E+04  0.14430207998E+04  0.00000000000E+00 0. -1.
          2    1    1    2  501    0  0.41469371555E+02  0.32168726745E+03 -0.13702389901E+04  0.14081041498E+04  0.00000000000E+00 0.  1.
<mgrwt>
<rscale>  4 0.24521005E+03</rscale>
<asrwt>0</asrwt>
<pdfrwt beam="1">  1       21 0.55307988E-01 0.24521005E+03</pdfrwt>
<pdfrwt beam="2">  1        2 0.44162672E+00 0.24521005E+03</pdfrwt>
<totfact> 0.95649152E+01</totfact>
</mgrwt>
</event>
<event>
 5    0  0.9662576E-001  0.4074980E+03  0.7546771E-02  0.1041214E+00
          1   -1    0    0  503    0 -0.00000000000E+00  0.00000000000E+00  0.11591812554E+04  0.11591812554E+04  0.00000000000E+00 0. -1.
         21   -1    0    0  501  502  0.00000000000E+00 -0.00000000000E+00 -0.25055196674E+04  0.25055196674E+04  0.00000000000E+00 0.  1.
         25    1    1    2    0    0 -0.97614860015E+00  0.38829628005E+03 -0.24484069777E+04  0.24821556523E+04  0.12500000000E+03 0.  0.
         21    1    1    2  503  502  0.39447268836E+02 -0.23576267838E+02  0.26071882723E+03  0.26473804845E+03  0.00000000000E+00 0. -1.
          1    1    1    2  501    0 -0.38471120235E+02 -0.36472001221E+03  0.84134973851E+03  0.91780722207E+03  0.00000000000E+00 0. -1.
<mgrwt>
<rscale>  4 0.40749799E+03</rscale>
<asrwt>0</asrwt>
<pdfrwt beam="1">  1       21 0.38546456E+00 0.40749799E+03</pdfrwt>
<pdfrwt beam="2">  1        1 0.17833558E+00 0.40749799E+03</pdfrwt>
<totfact> 0.11247512E+00</totfact>
</mgrwt>
</event>
<event>
 5    0  0.9662576E-001  0.3309807E+03  0.7546771E-02  0.1070704E+00
         21   -1    0    0  503  502  0.00000000000E+00  0.00000000000E+00  0.15483045326E+04  0.15483045326E+04  0.00000000000E+00 0.  1.
         -4   -1    0    0    0  501 -0.00000000000E+00 -0.00000000000E+00 -0.24757880714E+03  0.24757880714E+03  0.00000000000E+00 0. -1.
         25    1    1    2    0    0  0.77692145141E+01 -0.30514464161E+03  0.13551133468E+04  0.13946794599E+04  0.12500000000E+03 0.  0.
         21    1    1    2  503  501  0.57725493625E+02 -0.12288174983E+02  0.30103986105E+02  0.66253164740E+02  0.00000000000E+00 0.  1.
         -4    1    1    2    0  502 -0.65494708139E+02  0.31743281659E+03 -0.84491607474E+02  0.33495071515E+03  0.00000000000E+00 0. -1.
<mgrwt>
<rscale>  4 0.33098074E+03</rscale>
<asrwt>0</asrwt>
<pdfrwt beam="1">  1       21 0.23820069E+00 0.33098074E+03</pdfrwt>
<pdfrwt beam="2">  1       -4 0.38089048E-01 0.33098074E+03</pdfrwt>
<totfact> 0.20391871E+01</totfact>
</mgrwt>
</event>
<event>
 5    0  0.9662576E-001  0.2913726E+03  0.7546771E-02  0.1089635E+00
          3   -1    0    0  503    0 -0.00000000000E+00  0.00000000000E+00  0.10371233917E+04  0.10371233917E+04  0.00000000000E+00 0.  1.
         21   -1    0    0  501  502  0.00000000000E+00 -0.00000000000E+00 -0.10752532475E+03  0.10752532475E+03  0.00000000000E+00 0. -1.
         25    1    1    2    0    0  0.24618795358E+03  0.37699608383E+01  0.68229116095E+03  0.73604955635E+03  0.12500000000E+03 0.  0.
         21    1    1    2  503  502  0.22415158407E+02  0.59559486771E+00  0.99474708688E+02  0.10197064150E+03  0.00000000000E+00 0.  1.
          3    1    1    2  501    0 -0.26860311199E+03 -0.43655557060E+01  0.14783219729E+03  0.30662851857E+03  0.00000000000E+00 0.  1.
<mgrwt>
<rscale>  4 0.29137259E+03</rscale>
<asrwt>0</asrwt>
<pdfrwt beam="1">  1       21 0.16542358E-01 0.29137259E+03</pdfrwt>
<pdfrwt beam="2">  1        3 0.15955744E+00 0.29137259E+03</pdfrwt>
<totfact> 0.46980275E+02</totfact>
</mgrwt>
</event>
<event>
 5    0  0.9662576E-001  0.2595621E+03  0.7546771E-02  0.1107407E+00
          2   -1    0    0  503    0 -0.00000000000E+00  0.00000000000E+00  0.14809931305E+04  0.14809931305E+04  0.00000000000E+00 0. -1.
         21   -1    0    0  501  502  0.00000000000E+00 -0.00000000000E+00 -0.17620122681E+03  0.17620122681E+03  0.00000000000E+00 0. -1.
         25    1    1    2    0    0 -0.16337688864E+03  0.16637089622E+03 -0.41146152366E+02  0.26774855501E+03  0.12500000000E+03 0.  0.
         21    1    1    2  503  502  0.18706827390E+03 -0.94075924524E+02  0.52840778217E+03  0.56838332394E+03  0.00000000000E+00 0. -1.
          2    1    1    2  501    0 -0.23691385258E+02 -0.72294971699E+02  0.81753027385E+03  0.82106247833E+03  0.00000000000E+00 0. -1.
<mgrwt>
<rscale>  4 0.25956214E+03</rscale>
<asrwt>0</asrwt>
<pdfrwt beam="1">  1       21 0.27107882E-01 0.25956214E+03</pdfrwt>
<pdfrwt beam="2">  1        2 0.22784509E+00 0.25956214E+03</pdfrwt>
<totfact> 0.22553528E+03</totfact>
</mgrwt>
</event>
<event>
 5    0  0.9662576E-001  0.3984748E+03  0.7546771E-02  0.1044392E+00
          2   -1    0    0  503    0 -0.00000000000E+00  0.00000000000E+00  0.23162162046E+04  0.23162162046E+04  0.00000000000E+00 0.  1.
         21   -1    0    0  501  502  0.00000000000E+00 -0.00000000000E+00 -0.48308446894E+03  0.48308446894E+03  0.00000000000E+00 0.  1.
         25    1    1    2    0    0 -0.37503127854E+03  0.41818023258E+02 -0.38038979211E+03  0.55019869220E+03  0.12500000000E+03 0.  0.
         21    1    1    2  503  502  0.65695019957E+02 -0.43812430008E+02  0.27725940176E+03  0.28828482537E+03  0.00000000000E+00 0. -1.
          2    1    1    2  501    0  0.30933625859E+03  0.19944067501E+01  0.19362621260E+04  0.19608171559E+04  0.00000000000E+00 0.  1.
<mgrwt>
<rscale>  4 0.39823591E+03</rscale>
<asrwt>0</asrwt>
<pdfrwt beam="1">  1       21 0.74320689E-01 0.39847480E+03</pdfrwt>
<pdfrwt beam="2">  1        2 0.35634095E+00 0.39847480E+03</pdfrwt>
<totfact> 0.92482161E+01</totfact>
</mgrwt>
</event>
<event>
 5    0  0.9662576E-001  0.2485269E+03  0.7546771E-02  0.1114239E+00
          2   -1    0    0  503    0 -0.00000000000E+00  0.00000000000E+00  0.36155572410E+03  0.36155572410E+03  0.00000000000E+00 0. -1.
         21   -1    0    0  501  502  0.00000000000E+00 -0.00000000000E+00 -0.84544410872E+03  0.84544410872E+03  0.00000000000E+00 0.  1.
         25    1    1    2    0    0 -0.23620845847E+03 -0.13195443845E+02 -0.74326352363E+03  0.78995836672E+03  0.12500000000E+03 0.  0.
         21    1    1    2  503  502  0.22747466593E+02  0.26820939898E+02 -0.37322241190E+02  0.51281183107E+02  0.00000000000E+00 0. -1.
          2    1    1    2  501    0  0.21346099187E+03 -0.13625496053E+02  0.29669738021E+03  0.36576028299E+03  0.00000000000E+00 0. -1.
<mgrwt>
<rscale>  4 0.24852692E+03</rscale>
<asrwt>0</asrwt>
<pdfrwt beam="1">  1       21 0.13006832E+00 0.24852692E+03</pdfrwt>
<pdfrwt beam="2">  1        2 0.55623958E-01 0.24852692E+03</pdfrwt>
<totfact> 0.46359602E+02</totfact>
</mgrwt>
</event>
<event>
 5    0  0.1723921E+000  0.2834258E+03  0.7546771E-02  0.1093832E+00
          3   -1    0    0  503    0 -0.00000000000E+00  0.00000000000E+00  0.62692598058E+02  0.62692598058E+02  0.00000000000E+00 0. -1.
         21   -1    0    0  501  502  0.00000000000E+00 -0.00000000000E+00 -0.18256211592E+04  0.18256211592E+04  0.00000000000E+00 0. -1.
         25    1    1    2    0    0 -0.24103276056E+03 -0.56321215949E+02 -0.13122515225E+04  0.13412300061E+04  0.12500000000E+03 0.  0.
         21    1    1    2  503  502 -0.24947651439E+02 -0.32316104108E+01 -0.65616401639E+01  0.25997764130E+02  0.00000000000E+00 0.  1.
          3    1    1    2  501    0  0.26598041200E+03  0.59552826360E+02 -0.44411539855E+03  0.52108598707E+03  0.00000000000E+00 0. -1.
<mgrwt>
<rscale>  4 0.28342575E+03</rscale>
<asrwt>0</asrwt>
<pdfrwt beam="1">  1       21 0.28086479E+00 0.28342575E+03</pdfrwt>
<pdfrwt beam="2">  1        3 0.96450151E-02 0.28342575E+03</pdfrwt>
<totfact> 0.16067993E+02</totfact>
</mgrwt>
</event>
<event>
 5    0  0.9662576E-001  0.2530708E+03  0.7546771E-02  0.1111379E+00
         21   -1    0    0  501  502  0.00000000000E+00  0.00000000000E+00  0.16958620993E+04  0.16958620993E+04  0.00000000000E+00 0. -1.
          2   -1    0    0  503    0 -0.00000000000E+00 -0.00000000000E+00 -0.23332572019E+04  0.23332572019E+04  0.00000000000E+00 0. -1.
         25    1    1    2    0    0 -0.20833924838E+03  0.32425489039E+02  0.16603467431E+04  0.16783423256E+04  0.12500000000E+03 0.  0.
         21    1    1    2  503  502 -0.11182614300E+02 -0.48243498282E+02 -0.76221630957E+01  0.50105721822E+02  0.00000000000E+00 0. -1.
          2    1    1    2  501    0  0.21952186268E+03  0.15818009243E+02 -0.22901196826E+04  0.23006712538E+04  0.00000000000E+00 0. -1.
<mgrwt>
<rscale>  4 0.25307075E+03</rscale>
<asrwt>0</asrwt>
<pdfrwt beam="1">  1       21 0.26090186E+00 0.25307075E+03</pdfrwt>
<pdfrwt beam="2">  1        2 0.35896265E+00 0.25307075E+03</pdfrwt>
<totfact> 0.33773090E+00</totfact>
</mgrwt>
</event>
<event>
 5    0  0.9662576E-001  0.2951300E+03  0.7546771E-02  0.1087701E+00
         21   -1    0    0  501  502  0.00000000000E+00  0.00000000000E+00  0.22351769126E+03  0.22351769126E+03  0.00000000000E+00 0. -1.
          3   -1    0    0  503    0 -0.00000000000E+00 -0.00000000000E+00 -0.69147081751E+03  0.69147081751E+03  0.00000000000E+00 0. -1.
         25    1    1    2    0    0  0.57054595100E+02  0.26383194122E+03  0.17811953894E+02  0.29800131834E+03  0.12500000000E+03 0.  0.
         21    1    1    2  503  502 -0.54015928827E+02  0.19485923648E+01 -0.26793518443E+03  0.27333272881E+03  0.00000000000E+00 0. -1.
          3    1    1    2  501    0 -0.30386662731E+01 -0.26578053359E+03 -0.21782989572E+03  0.34365446162E+03  0.00000000000E+00 0. -1.
<mgrwt>
<rscale>  4 0.29512996E+03</rscale>
<asrwt>0</asrwt>
<pdfrwt beam="1">  1       21 0.34387337E-01 0.29512996E+03</pdfrwt>
<pdfrwt beam="2">  1        3 0.10638013E+00 0.29512996E+03</pdfrwt>
<totfact> 0.31047061E+02</totfact>
</mgrwt>
</event>
<event>
 5    0  0.9662576E-001  0.2576128E+03  0.7546771E-02  0.1108586E+00
          2   -1    0    0  503    0 -0.00000000000E+00  0.00000000000E+00  0.23169554247E+04  0.23169554247E+04  0.00000000000E+00 0. -1.
         21   -1    0    0  501  502  0.00000000000E+00 -0.00000000000E+00 -0.75681735479E+02  0.75681735479E+02  0.00000000000E+00 0.  1.
         25    1    1    2    0    0 -0.47618261471E+02 -0.21954005337E+03  0.19198651778E+03  0.32085691027E+03  0.12500000000E+03 0.  0.
         21    1    1    2  503  502  0.58697050288E+02 -0.15485926533E+02  0.65218865008E+03  0.65500778082E+03  0.00000000000E+00 0. -1.
          2    1    1    2  501    0 -0.11078788816E+02  0.23502597991E+03  0.13970985214E+04  0.14167724691E+04  0.00000000000E+00 0. -1.
<mgrwt>
<rscale>  4 0.25761281E+03</rscale>
<asrwt>0</asrwt>
<pdfrwt beam="1">  1       21 0.11643346E-01 0.25761281E+03</pdfrwt>
<pdfrwt beam="2">  1        2 0.35645463E+00 0.25761281E+03</pdfrwt>
<totfact> 0.39400433E+03</totfact>
</mgrwt>
</event>
<event>
 5    0  0.1287543E+000  0.2630732E+03  0.7546771E-02  0.1105311E+00
          2   -1    0    0  503    0 -0.00000000000E+00  0.00000000000E+00  0.16089107423E+03  0.16089107423E+03  0.00000000000E+00 0.  1.
         21   -1    0    0  501  502  0.00000000000E+00 -0.00000000000E+00 -0.88526339781E+03  0.88526339781E+03  0.00000000000E+00 0. -1.
         25    1    1    2    0    0  0.12636981944E+03 -0.21012627365E+03 -0.71333941463E+03  0.76459172282E+03  0.12500000000E+03 0.  0.
         21    1    1    2  503  502 -0.88884237220E+01  0.82359658768E+02 -0.58747426663E+02  0.10155480101E+03  0.00000000000E+00 0.  1.
          2    1    1    2  501    0 -0.11748139572E+03  0.12776661488E+03  0.47714517719E+02  0.18000794821E+03  0.00000000000E+00 0.  1.
<mgrwt>
<rscale>  4 0.26307319E+03</rscale>
<asrwt>0</asrwt>
<pdfrwt beam="1">  1       21 0.13619437E+00 0.26307319E+03</pdfrwt>
<pdfrwt beam="2">  1        2 0.24752473E-01 0.26307319E+03</pdfrwt>
<totfact> 0.99170868E+02</totfact>
</mgrwt>
</event>
<event>
 5    0  0.1843370E+000  0.2498097E+03  0.7546771E-02  0.1113425E+00
          2   -1    0    0  503    0 -0.00000000000E+00  0.00000000000E+00  0.15538606965E+03  0.15538606965E+03  0.00000000000E+00 0.  1.
         21   -1    0    0  501  502  0.00000000000E+00 -0.00000000000E+00 -0.41541183021E+03  0.41541183021E+03  0.00000000000E+00 0.  1.
         25    1    1    2    0    0  0.13358341449E+03  0.18264611209E+03 -0.11699484936E+03  0.28375504518E+03  0.12500000000E+03 0.  0.
         21    1    1    2  503  502  0.14382727370E+02 -0.33079631836E+02 -0.76940772981E+01  0.36882566538E+02  0.00000000000E+00 0.  1.
          2    1    1    2  501    0 -0.14796614186E+03 -0.14956648025E+03 -0.13533683390E+03  0.25016028814E+03  0.00000000000E+00 0.  1.
<mgrwt>
<rscale>  4 0.24980969E+03</rscale>
<asrwt>0</asrwt>
<pdfrwt beam="1">  1       21 0.63909511E-01 0.24980969E+03</pdfrwt>
<pdfrwt beam="2">  1        2 0.23905550E-01 0.24980969E+03</pdfrwt>
<totfact> 0.61885936E+03</totfact>
</mgrwt>
</event>
<event>
 5    0  0.9662576E-001  0.2807663E+03  0.7546771E-02  0.1095271E+00
          2   -1    0    0  503    0 -0.00000000000E+00  0.00000000000E+00  0.57797209929E+03  0.57797209929E+03  0.00000000000E+00 0. -1.
         21   -1    0    0  501  502  0.00000000000E+00 -0.00000000000E+00 -0.15476647310E+03  0.15476647310E+03  0.00000000000E+00 0.  1.
         25    1    1    2    0    0 -0.25834564114E+03 -0.14961006197E+02  0.93887719743E+02  0.30233459266E+03  0.12500000000E+03 0.  0.
         21    1    1    2  503  502  0.18697359834E+02  0.31592826481E+02  0.38445837835E+02  0.53158069911E+02  0.00000000000E+00 0.  1.
          2    1    1    2  501    0  0.23964828130E+03 -0.16631820283E+02  0.29087206861E+03  0.37724590982E+03  0.00000000000E+00 0. -1.
<mgrwt>
<rscale>  4 0.28076635E+03</rscale>
<asrwt>0</asrwt>
<pdfrwt beam="1">  1       21 0.23810227E-01 0.28076635E+03</pdfrwt>
<pdfrwt beam="2">  1        2 0.88918783E-01 0.28076635E+03</pdfrwt>
<totfact> 0.10797090E+04</totfact>
</mgrwt>
</event>
<event>
 5    0  0.9662576E-001  0.2687811E+03  0.7546771E-02  0.1101979E+00
         -1   -1    0    0    0  501 -0.00000000000E+00  0.00000000000E+00  0.91240524139E+03  0.91240524139E+03  0.00000000000E+00 0.  1.
         21   -1    0    0  503  502  0.00000000000E+00 -0.00000000000E+00 -0.52101502298E+03  0.52101502298E+03  0.00000000000E+00 0. -1.
         25    1    1    2    0    0  0.20397463872E+03 -0.12055000518E+03 -0.46177212553E+03  0.53385059044E+03  0.12500000000E+03 0.  0.
         21    1    1    2  503  501  0.24213280367E+02 -0.42834857138E+01  0.90107031573E+02  0.93401864730E+02  0.00000000000E+00 0. -1.
         -1    1    1    2    0  502 -0.22818791909E+03  0.12483349090E+03  0.76305531236E+03  0.80616780920E+03  0.00000000000E+00 0.  1.
<mgrwt>
<rscale>  4 0.26878107E+03</rscale>
<asrwt>0</asrwt>
<pdfrwt beam="1">  1       21 0.80156157E-01 0.26878107E+03</pdfrwt>
<pdfrwt beam="2">  1       -1 0.14037004E+00 0.26878107E+03</pdfrwt>
<totfact> 0.55294864E+01</totfact>
</mgrwt>
</event>
<event>
 5    0  0.9662576E-001  0.2420912E+03  0.7546771E-02  0.1118408E+00
         21   -1    0    0  503  502  0.00000000000E+00  0.00000000000E+00  0.13971246430E+04  0.13971246430E+04  0.00000000000E+00 0.  1.
         -1   -1    0    0    0  501 -0.00000000000E+00 -0.00000000000E+00 -0.93332440311E+03  0.93332440311E+03  0.00000000000E+00 0. -1.
         25    1    1    2    0    0  0.85569259528E+02  0.18914296556E+03  0.13681480070E+04  0.13894427403E+04  0.12500000000E+03 0.  0.
         21    1    1    2  503  501  0.45601463120E+02 -0.41866010984E+02 -0.18320521980E+03  0.19338151120E+03  0.00000000000E+00 0.  1.
         -1    1    1    2    0  502 -0.13117072265E+03 -0.14727695458E+03 -0.72114254734E+03  0.74762479455E+03  0.00000000000E+00 0. -1.
<mgrwt>
<rscale>  4 0.24209118E+03</rscale>
<asrwt>0</asrwt>
<pdfrwt beam="1">  1       21 0.21494225E+00 0.24209118E+03</pdfrwt>
<pdfrwt beam="2">  1       -1 0.14358837E+00 0.24209118E+03</pdfrwt>
<totfact> 0.40945732E+00</totfact>
</mgrwt>
</event>
<event>
 5    0  0.9662576E-001  0.3222322E+03  0.7546771E-02  0.1074627E+00
         21   -1    0    0  503  502  0.00000000000E+00  0.00000000000E+00  0.24415670414E+03  0.24415670414E+03  0.00000000000E+00 0.  1.
         -3   -1    0    0    0  501 -0.00000000000E+00 -0.00000000000E+00 -0.62101247451E+03  0.62101247451E+03  0.00000000000E+00 0.  1.
         25    1    1    2    0    0  0.22382739120E+03 -0.18608027468E+03 -0.30889570695E+02  0.31828247714E+03  0.12500000000E+03 0.  0.
         21    1    1    2  503  501  0.58726457383E+02  0.53814641672E+02 -0.17231635546E+03  0.18983608407E+03  0.00000000000E+00 0.  1.
         -3    1    1    2    0  502 -0.28255384858E+03  0.13226563301E+03 -0.17364984421E+03  0.35705061744E+03  0.00000000000E+00 0.  1.
<mgrwt>
<rscale>  4 0.32223224E+03</rscale>
<asrwt>0</asrwt>
<pdfrwt beam="1">  1       21 0.37562570E-01 0.32223224E+03</pdfrwt>
<pdfrwt beam="2">  1       -3 0.95540380E-01 0.32223224E+03</pdfrwt>
<totfact> 0.33118362E+02</totfact>
</mgrwt>
</event>
