<LesHouchesEvents version="3.0">
  <!--
  <scalesfunctionalform>
    muR  H_T/2 := sum_i mT(i)/2, i=final state
    muF1 H_T/2 := sum_i mT(i)/2, i=final state
    muF2 H_T/2 := sum_i mT(i)/2, i=final state
    QES  H_T/2 := sum_i mT(i)/2, i=final state
  </scalesfunctionalform>
HERWIG6   
  -->
  <header>
      277
  </header>
  <init>
   2212   2212 0.65000000D+04 0.65000000D+04 -1 -1   247000   247000 -3   1
 0.50659673D-01 0.17574437D-02 0.45638357D-03     66
  </init>
  <event>
  5     66 0.45638357E-03 0.20408076E+02 0.75467711E-02 0.11891459E+00
        2 -1    0    0  502    0 0.00000000E+00 0.00000000E+00 0.33625554E+03 0.33625569E+03 0.32000000E+00 0.0000E+00 0.9000E+01
       21 -1    0    0  501  502 0.00000000E+00 0.00000000E+00 -.11949478E+03 0.11949713E+03 0.75000000E+00 0.0000E+00 0.9000E+01
       25  1    1    2    0    0 -.65655130E+02 0.97612905E+02 0.10979685E+03 0.20376266E+03 0.12500000E+03 0.0000E+00 0.9000E+01
       24  1    1    2    0    0 0.50630910E+02 -.83801398E+02 0.15476496E+03 0.20001393E+03 0.80419002E+02 0.0000E+00 0.9000E+01
        1  1    1    2  501    0 0.15024219E+02 -.13811507E+02 -.47801053E+02 0.51976225E+02 0.32000000E+00 0.0000E+00 0.9000E+01
#aMCatNLO 1  0  0  5  2 0.31135481D+00 0.00000000D+00  -5  6  0 0.00000000D+00 0.00000000D+00 0.00000000D+00 0.00000000D+00 0.00000000D+00
  <mgrwgt>
 0.2520093808D+00    7    2    0
 0.200452866986334D+03 0.000000000000000D+00 0.000000000000000D+00 0.200452866986334D+03
 0.200452866986334D+03 -.000000000000000D+00 -.000000000000000D+00 -.200452866986334D+03
 0.172274377745698D+03 -.656551754687731D+02 0.976129471265179D+02 0.146482666246732D+02
 0.143699539508935D+03 0.506308719868678D+02 -.838013627171221D+02 0.677951923760982D+02
 0.849318167180365D+02 0.150243034819054D+02 -.138115844093958D+02 -.824434590007714D+02
 0.000000000000000D+00 0.000000000000000D+00 -.000000000000000D+00 0.000000000000000D+00
 0.200452866986334D+03 0.000000000000000D+00 0.000000000000000D+00 0.200452866986334D+03
 0.200452866986334D+03 -.000000000000000D+00 -.000000000000000D+00 -.200452866986334D+03
 0.172259069243120D+03 -.656439816879292D+02 0.976026568758469D+02 0.145868425451357D+02
 0.143683671677002D+03 0.506402089749377D+02 -.838099460500542D+02 0.677439571495160D+02
 0.403823624077868D+00 -.112565313665764D+00 0.216565670007660D+00 -.321717080829919D+00
 0.845591694284694D+02 0.151163380266573D+02 -.140092764958004D+02 -.820090826138218D+02
0.176640990825D-04 0.000000000000D+00 0.000000000000D+00 0.310396741210D-05 0.000000000000D+00  6 2 21 25 24 1 21 2 0.51731814D-01 0.18384005D-01 0.25402057D+05 0.25402057D+05 0.25402057D+05 0.12225555D+01  1  2  2  3  6  5        1 0.857078528406D-01 0.100000000000D+01
0.405435121501D-05 0.932160118235D-06 -.356587267950D-07 0.310396741210D-05 0.000000000000D+00  6 2 21 25 24 1 21 4 0.51731814D-01 0.18384005D-01 0.25402057D+05 0.25402057D+05 0.25402057D+05 0.12225555D+01  1  2  3  3  6  5        1 0.294027291068D-01 0.100000000000D+01
0.177530147137D-05 0.000000000000D+00 0.000000000000D+00 0.310396741210D-05 0.000000000000D+00  6 2 21 25 24 1 21 4 0.51731814D-01 0.18384005D-01 0.25402057D+05 0.25402057D+05 0.25402057D+05 0.12225555D+01  1  2 15  3  6  5        1 0.128747376528D-01 0.100000000000D+01
-.909166535067D-05 0.000000000000D+00 0.000000000000D+00 0.310396741210D-05 0.000000000000D+00  6 2 21 25 24 1 21 4 0.51731814D-01 0.18384005D-01 0.25402057D+05 0.25402057D+05 0.25402057D+05 0.12225555D+01  1  2  4  3  6  5        1 -.659340445016D-01 0.100000000000D+01
-.509202748108D-05 0.000000000000D+00 0.000000000000D+00 0.310396741210D-05 0.000000000000D+00  6 2 21 25 24 1 21 4 0.51731814D-01 0.18384005D-01 0.25402057D+05 0.25402057D+05 0.25402057D+05 0.12225555D+01  1  2  5  3  6  5        1 -.369281043231D-01 0.100000000000D+01
0.118627359716D-04 0.000000000000D+00 -.000000000000D+00 0.310396741210D-05 0.000000000000D+00  6 2 21 25 24 1 21 4 0.51731814D-01 0.18384005D-01 0.25402057D+05 0.25402057D+05 0.25402057D+05 0.12225555D+01  1  2  6  3  6  5        1 0.860302410279D-01 0.100000000000D+01
0.194309397407D-04 0.000000000000D+00 0.000000000000D+00 0.310396741210D-05 0.291436024732D-05  6 2 21 25 24 1 21 4 0.51731814D-01 0.18384005D-01 0.25473041D+05 0.25473041D+05 0.25473041D+05 0.12224258D+01  1  2 11  3  6  5        1 0.140855968993D+00 0.100000000000D+01
  </mgrwgt>
  </event>
  <event>
  6     66 0.45638357E-03 0.16917842E+02 0.75467711E-02 0.12018170E+00
        2 -1    0    0  502    0 0.00000000E+00 0.00000000E+00 0.11592829E+04 0.11592829E+04 0.32000000E+00 0.0000E+00 0.9000E+01
       21 -1    0    0  501  502 0.00000000E+00 0.00000000E+00 -.21355856E+02 0.21369021E+02 0.75000000E+00 0.0000E+00 0.9000E+01
       25  1    1    2    0    0 0.78632521E+02 -.10308216E+02 0.59964236E+03 0.61764495E+03 0.12500000E+03 0.0000E+00 0.9000E+01
       24  1    1    2    0    0 -.70906591E+02 0.14694095E+02 0.27384729E+03 0.29445410E+03 0.80419002E+02 0.0000E+00 0.9000E+01
        1  1    1    2  503    0 -.20883903E+02 -.13638763E+02 0.21758885E+03 0.21901408E+03 0.32000000E+00 0.0000E+00 0.9000E+01
       21  1    1    2  501  503 0.13157973E+02 0.92528840E+01 0.46848531E+02 0.49538828E+02 0.75000000E+00 0.0000E+00 0.9000E+01
#aMCatNLO 2  0  0  5  1 0.12145624D+02 0.00000000D+00  -5  6  0 0.00000000D+00 0.00000000D+00 0.00000000D+00 0.00000000D+00 0.00000000D+00
  <mgrwgt>
 0.6034816991D+00    1    2    0
 0.157369871229458D+03 0.000000000000000D+00 0.000000000000000D+00 0.157369871229458D+03
 0.157369871229458D+03 -.000000000000000D+00 -.000000000000000D+00 -.157369871229458D+03
 0.150518008010340D+03 0.834438042378039D+02 -.757693329796601D+01 0.322371703502647D+01
 0.116246356172797D+03 -.671995750881872D+02 0.167985042456281D+02 -.474133602706985D+02
 0.479753782757781D+02 -.162442291496168D+02 -.922157094766206D+01 0.441896432356721D+02
 0.000000000000000D+00 0.000000000000000D+00 0.000000000000000D+00 0.000000000000000D+00
 0.157369871229458D+03 0.000000000000000D+00 0.000000000000000D+00 0.157369871229458D+03
 0.157369871229458D+03 -.000000000000000D+00 -.000000000000000D+00 -.157369871229458D+03
 0.148916239256793D+03 0.785547198596717D+02 -.103523828466518D+02 0.165236337272173D+02
 0.114453941173328D+03 -.709663894391828D+02 0.146601481891822D+02 -.371663869749892D+02
 0.346279349282061D+02 -.210276737829803D+02 -.137730990557044D+02 0.238166444964523D+02
 0.167416271005879D+02 0.134393433624913D+02 0.946533371317404D+01 -.317389124868040D+01
0.180889044912D-04 0.000000000000D+00 0.000000000000D+00 0.178276438768D-06 0.141456367754D-07  6 2 21 25 24 1 21 4 0.17835223D+00 0.32865324D-02 0.22174626D+05 0.22174626D+05 0.22174626D+05 0.12289214D+01  1  2  1  3  6  5        1 0.603481699141D+00 0.100000000000D+01
  </mgrwgt>
  </event>
  <event>
  5     66 0.45638357E-03 0.23451061E+02 0.75467711E-02 0.99077871E-01
        2 -1    0    0  502    0 0.00000000E+00 0.00000000E+00 0.11592244E+04 0.11592244E+04 0.32000000E+00 0.0000E+00 0.9000E+01
       21 -1    0    0  501  502 0.00000000E+00 0.00000000E+00 -.18662602E+02 0.18677666E+02 0.75000000E+00 0.0000E+00 0.9000E+01
       25  1    1    2    0    0 -.73254489E+01 0.37973800E+01 0.78234541E+03 0.79231145E+03 0.12500000E+03 0.0000E+00 0.9000E+01
       24  1    1    2    0    0 0.12847045E+02 0.18994193E+02 0.35133340E+03 0.36114845E+03 0.80419002E+02 0.0000E+00 0.9000E+01
        1  1    1    2  501    0 -.55215959E+01 -.22791573E+02 0.68829746E+01 0.24442209E+02 0.32000000E+00 0.0000E+00 0.9000E+01
#aMCatNLO 1  0  0  2  1 0.13700531D+03 0.00000000D+00  -5  6  0 0.00000000D+00 0.00000000D+00 0.00000000D+00 0.00000000D+00 0.00000000D+00
  <mgrwgt>
 0.8361023401D+00   12    2    0
 0.147115742918125D+03 0.000000000000000D+00 0.000000000000000D+00 0.147115742918125D+03
 0.147115742918125D+03 0.000000000000000D+00 0.000000000000000D+00 -.147115742918125D+03
 0.139183185438363D+03 -.732542252825824D+01 0.379748902722397D+01 0.606537416046230D+02
 0.838797777745335D+02 0.128470607192192D+02 0.189942589220963D+02 0.654005535233878D+01
 0.711685226233524D+02 -.552163819096095D+01 -.227917479493202D+02 -.671937969569617D+02
 0.000000000000000D+00 -.000000000000000D+00 -.000000000000000D+00 -.000000000000000D+00
 0.468126179143036D+03 0.000000000000000D+00 0.000000000000000D+00 0.468126179143036D+03
 0.900620320244921D+03 0.000000000000000D+00 0.000000000000000D+00 -.900620320244921D+03
 0.300153830515763D+03 0.198854002434917D+03 0.176764055504107D+03 0.606537416046230D+02
 0.227877146677883D+03 0.159153565925234D+03 0.141732664382468D+03 0.654005535233878D+01
 0.119637515675391D+03 0.840230116503450D+02 0.523284083523656D+02 -.671937969569617D+02
 0.721078006518920D+03 -.442030580010496D+03 -.370825128238941D+03 -.432494141101886D+03
0.572343265379D-05 0.000000000000D+00 0.000000000000D+00 0.410043345397D-05 0.000000000000D+00  6 2 21 25 24 1 21 2 0.17834338D+00 0.28723318D-02 0.13496343D+05 0.13496343D+05 0.13496343D+05 0.12530865D+01  1  2  2  2  6  2       21 0.163301552492D+00 0.100000000000D+01
0.759528775396D-06 0.302033839052D-06 -.115539615340D-07 0.410043345397D-05 0.000000000000D+00  6 2 21 25 24 1 21 4 0.17834338D+00 0.28723318D-02 0.13496343D+05 0.13496343D+05 0.13496343D+05 0.12530865D+01  1  2  3  2  6  2       21 0.340282864429D-01 0.100000000000D+01
0.460500529032D-06 0.000000000000D+00 0.000000000000D+00 0.410043345397D-05 0.000000000000D+00  6 2 21 25 24 1 21 4 0.17834338D+00 0.28723318D-02 0.13496343D+05 0.13496343D+05 0.13496343D+05 0.12530865D+01  1  2 15  2  6  2       21 0.206312708835D-01 0.100000000000D+01
0.346884308399D-02 0.000000000000D+00 -.107488644652D-02 0.410043345397D-05 0.000000000000D+00  6 2 21 25 24 1 21 4 0.17834338D+00 0.73681875D-01 0.13496343D+05 0.13496343D+05 0.13496343D+05 0.12530865D+01  1  2  5  2  6  2       21 0.408179142131D+00 0.100000000000D+01
0.153892786471D-02 0.000000000000D+00 -.476596542253D-03 0.410043345397D-05 0.000000000000D+00  6 2 -1 25 24 1 -1 4 0.17834338D+00 0.73681875D-01 0.13496343D+05 0.13496343D+05 0.13496343D+05 0.12530865D+01  1  2  5  5  6  2       21 0.192279095083D-01 0.100000000000D+01
0.153892786471D-02 0.000000000000D+00 -.476596542253D-03 0.410043345397D-05 0.000000000000D+00  6 2 1 25 24 1 1 4 0.17834338D+00 0.73681875D-01 0.13496343D+05 0.13496343D+05 0.13496343D+05 0.12530865D+01  1  2  5  6  6  2       21 0.562105123804D-01 0.100000000000D+01
0.153892786471D-02 0.000000000000D+00 -.476596542253D-03 0.410043345397D-05 0.000000000000D+00  6 2 -2 25 24 1 -2 4 0.17834338D+00 0.73681875D-01 0.13496343D+05 0.13496343D+05 0.13496343D+05 0.12530865D+01  1  2  5  7  6  2       21 0.147999809704D-01 0.100000000000D+01
0.153892786471D-02 0.000000000000D+00 -.476596542253D-03 0.410043345397D-05 0.000000000000D+00  6 2 2 25 24 1 2 4 0.17834338D+00 0.73681875D-01 0.13496343D+05 0.13496343D+05 0.13496343D+05 0.12530865D+01  1  2  5  8  6  2       21 0.866525368059D-01 0.100000000000D+01
0.153892786471D-02 0.000000000000D+00 -.476596542253D-03 0.410043345397D-05 0.000000000000D+00  6 2 -3 25 24 1 -3 4 0.17834338D+00 0.73681875D-01 0.13496343D+05 0.13496343D+05 0.13496343D+05 0.12530865D+01  1  2  5  9  6  2       21 0.915916145994D-02 0.100000000000D+01
0.153892786471D-02 0.000000000000D+00 -.476596542253D-03 0.410043345397D-05 0.000000000000D+00  6 2 -4 25 24 1 -4 4 0.17834338D+00 0.73681875D-01 0.13496343D+05 0.13496343D+05 0.13496343D+05 0.12530865D+01  1  2  5  9  6  2       21 0.737151913926D-02 0.100000000000D+01
0.153892786471D-02 0.000000000000D+00 -.476596542253D-03 0.410043345397D-05 0.000000000000D+00  6 2 3 25 24 1 3 4 0.17834338D+00 0.73681875D-01 0.13496343D+05 0.13496343D+05 0.13496343D+05 0.12530865D+01  1  2  5 10  6  2       21 0.916894872192D-02 0.100000000000D+01
0.153892786471D-02 0.000000000000D+00 -.476596542253D-03 0.410043345397D-05 0.000000000000D+00  6 2 4 25 24 1 4 4 0.17834338D+00 0.73681875D-01 0.13496343D+05 0.13496343D+05 0.13496343D+05 0.12530865D+01  1  2  5 10  6  2       21 0.737151913926D-02 0.100000000000D+01
  </mgrwgt>
  </event>
  <event>
  5     66 0.45638357E-03 0.24935738E+02 0.75467711E-02 0.11502648E+00
        2 -1    0    0  502    0 0.00000000E+00 0.00000000E+00 0.10130518E+04 0.10130518E+04 0.32000000E+00 0.0000E+00 0.9000E+01
       21 -1    0    0  501  502 0.00000000E+00 0.00000000E+00 -.34833067E+02 0.34841140E+02 0.75000000E+00 0.0000E+00 0.9000E+01
       25  1    1    2    0    0 0.40328886E+02 0.42991881E+02 0.87123111E+03 0.88212435E+03 0.12500000E+03 0.0000E+00 0.9000E+01
       24  1    1    2    0    0 -.32768140E+02 -.19232021E+02 0.46547834E+02 0.10038694E+03 0.80419002E+02 0.0000E+00 0.9000E+01
        1  1    1    2  501    0 -.75607455E+01 -.23759861E+02 0.60439784E+02 0.65381693E+02 0.32000000E+00 0.0000E+00 0.9000E+01
#aMCatNLO 1  0  0  2  2 0.80882163D+01 0.00000000D+00  -5  6  0 0.00000000D+00 0.00000000D+00 0.00000000D+00 0.00000000D+00 0.00000000D+00
  <mgrwgt>
 0.3446318733D+00    3    2    0
 0.187861538420306D+03 0.000000000000000D+00 0.000000000000000D+00 0.187861538420306D+03
 0.187861538420306D+03 0.000000000000000D+00 0.000000000000000D+00 -.187861538420306D+03
 0.191943113923154D+03 0.403292022729195D+02 0.429928765910118D+02 0.133200326534798D+03
 0.158789117298173D+03 -.327678780717958D+02 -.192311973802013D+02 -.131541609508011D+03
 0.249908456192846D+02 -.756132420112366D+01 -.237616792108105D+02 -.165871702678697D+01
 0.000000000000000D+00 0.000000000000000D+00 0.000000000000000D+00 0.000000000000000D+00
 0.432218876427305D+03 0.000000000000000D+00 0.000000000000000D+00 0.432218876427305D+03
 0.212661841077317D+03 0.000000000000000D+00 0.000000000000000D+00 -.212661841077317D+03
 0.185015912749760D+03 0.257990126999695D+02 -.140702496550972D+02 0.133200326534798D+03
 0.175289416976495D+03 -.456452044966547D+02 -.698031806158536D+02 -.131541609508011D+03
 0.342123420666916D+02 -.984335879780833D+01 -.327237115115473D+02 -.165871702678697D+01
 0.250363045711676D+03 0.296895505944935D+02 0.116597141782498D+03 0.219557035349988D+03
0.234468392121D-04 0.000000000000D+00 0.000000000000D+00 0.201946688903D-06 0.000000000000D+00  6 2 21 25 24 1 21 2 0.15585475D+00 0.53595583D-02 0.15886144D+05 0.15886144D+05 0.15886144D+05 0.12449908D+01  1  2  2  2  6  2       21 0.285090666865D+00 0.100000000000D+01
0.778989692580D-06 0.123732369877D-05 -.473324130355D-07 0.201946688903D-06 0.000000000000D+00  6 2 21 25 24 1 21 4 0.15585475D+00 0.53595583D-02 0.15886144D+05 0.15886144D+05 0.15886144D+05 0.12449908D+01  1  2  3  2  6  2       21 0.146812378795D-01 0.100000000000D+01
0.238027974454D-05 0.000000000000D+00 0.000000000000D+00 0.201946688903D-06 0.000000000000D+00  6 2 21 25 24 1 21 4 0.15585475D+00 0.53595583D-02 0.15886144D+05 0.15886144D+05 0.15886144D+05 0.12449908D+01  1  2 15  2  6  2       21 0.448599686007D-01 0.100000000000D+01
  </mgrwgt>
  </event>
  <event>
  5     66 0.45638357E-03 0.21691808E+02 0.75467711E-02 0.11470633E+00
        2 -1    0    0  502    0 0.00000000E+00 0.00000000E+00 0.17360331E+04 0.17360331E+04 0.32000000E+00 0.0000E+00 0.9000E+01
       21 -1    0    0  501  502 0.00000000E+00 0.00000000E+00 -.78009724E+01 0.78369426E+01 0.75000000E+00 0.0000E+00 0.9000E+01
       25  1    1    2    0    0 0.34211509E+01 -.46769428E+01 0.97267331E+03 0.98068952E+03 0.12500000E+03 0.0000E+00 0.9000E+01
       24  1    1    2    0    0 0.33698544E+01 -.15922817E+02 0.66584972E+03 0.67088595E+03 0.80419002E+02 0.0000E+00 0.9000E+01
        1  1    1    2  501    0 -.67910053E+01 0.20599759E+02 0.89709077E+02 0.92294576E+02 0.32000000E+00 0.0000E+00 0.9000E+01
#aMCatNLO 1  0  0  1  2 0.44663102D+01 0.00000000D+00  -5  6  0 0.00000000D+00 0.00000000D+00 0.00000000D+00 0.00000000D+00 0.00000000D+00
  <mgrwgt>
 0.3225258190D+00    3    2    0
 0.116508090689834D+03 0.000000000000000D+00 0.000000000000000D+00 0.116508090689834D+03
 0.116508090689834D+03 0.000000000000000D+00 0.000000000000000D+00 -.116508090689834D+03
 0.125269693054207D+03 0.342144133764462D+01 -.467782386570105D+01 0.582303193790436D+01
 0.823766259271431D+02 0.337004542808679D+01 -.159233960386188D+02 0.733353919876704D+01
 0.253698623983171D+02 -.679148676573140D+01 0.206012199043198D+02 -.131565711366714D+02
 0.000000000000000D+00 0.000000000000000D+00 -.000000000000000D+00 -.000000000000000D+00
 0.183400249061685D+03 0.000000000000000D+00 0.000000000000000D+00 0.183400249061685D+03
 0.235077949625421D+03 0.000000000000000D+00 0.000000000000000D+00 -.235077949625421D+03
 0.142568288554631D+03 -.617720972777161D+02 0.291721990662170D+02 0.582303193790436D+01
 0.896509639073601D+02 -.385026092768837D+02 0.581787391063314D+01 0.733353919876704D+01
 0.387028165215257D+02 -.223872011683691D+02 0.286988826693925D+02 -.131565711366714D+02
 0.147556129703589D+03 0.122661907722969D+03 -.636889556462426D+02 -.516777005637361D+02
0.450619857672D-05 0.000000000000D+00 0.000000000000D+00 0.169924425692D-05 0.000000000000D+00  6 2 21 25 24 1 21 2 0.26708478D+00 0.12029188D-02 0.13096014D+05 0.13096014D+05 0.13096014D+05 0.12545997D+01  1  2  2  1  6  1        2 0.259719663936D+00 0.100000000000D+01
0.245224969702D-06 0.237798632042D-06 -.909671663303D-08 0.169924425692D-05 0.000000000000D+00  6 2 21 25 24 1 21 4 0.26708478D+00 0.12029188D-02 0.13096014D+05 0.13096014D+05 0.13096014D+05 0.12545997D+01  1  2  3  1  6  1        2 0.222469017700D-01 0.100000000000D+01
0.447079857264D-06 0.000000000000D+00 0.000000000000D+00 0.169924425692D-05 0.000000000000D+00  6 2 21 25 24 1 21 4 0.26708478D+00 0.12029188D-02 0.13096014D+05 0.13096014D+05 0.13096014D+05 0.12545997D+01  1  2 15  1  6  1        2 0.405592533257D-01 0.100000000000D+01
  </mgrwgt>
  </event>
  <event>
  6     66 -.45638357E-03 0.16644933E+02 0.75467711E-02 0.11873434E+00
        2 -1    0    0  502    0 0.00000000E+00 0.00000000E+00 0.67049911E+03 0.67049919E+03 0.32000000E+00 0.0000E+00 0.9000E+01
        2 -1    0    0  501    0 0.00000000E+00 0.00000000E+00 -.42288737E+02 0.42289948E+02 0.32000000E+00 0.0000E+00 0.9000E+01
       25  1    1    2    0    0 -.22457544E+02 0.47801952E+02 0.29253220E+03 0.32247396E+03 0.12500000E+03 0.0000E+00 0.9000E+01
       24  1    1    2    0    0 0.68506541E+02 -.64662529E+02 0.26500171E+03 0.29251925E+03 0.80419002E+02 0.0000E+00 0.9000E+01
        1  1    1    2  501    0 -.29030754E+02 -.10293240E+02 0.16743162E+02 0.35059540E+02 0.32000000E+00 0.0000E+00 0.9000E+01
        2  1    1    2  502    0 -.17018243E+02 0.27153817E+02 0.53933305E+02 0.62736386E+02 0.32000000E+00 0.0000E+00 0.9000E+01
#aMCatNLO 2  0  0  2  1 0.32046066D+02 0.00000000D+00  -5  6  0 0.00000000D+00 0.00000000D+00 0.00000000D+00 0.00000000D+00 0.00000000D+00
  <mgrwgt>
 -.1631853881D-03    2    2    0
 0.151449227012018D+03 0.000000000000000D+00 0.000000000000000D+00 0.151449227012018D+03
 0.151449227012018D+03 0.000000000000000D+00 0.000000000000000D+00 -.151449227012018D+03
 0.142987663391158D+03 -.302917454023325D+02 0.603026779244712D+02 0.163238805950309D+02
 0.115705094396172D+03 0.617733774897503D+02 -.539187205086778D+02 0.140454379451958D+02
 0.442056962367064D+02 -.314816320874179D+02 -.638395741579340D+01 -.303693185402267D+02
 0.000000000000000D+00 -.000000000000000D+00 0.000000000000000D+00 -.000000000000000D+00
 0.166806233935487D+03 0.000000000000000D+00 0.000000000000000D+00 0.166806233935487D+03
 0.169986159955191D+03 0.000000000000000D+00 0.000000000000000D+00 -.169986159955191D+03
 0.136677822084133D+03 -.224571547361719D+02 0.478020310566071D+02 0.163238805950309D+02
 0.124655194581350D+03 0.685068665126756D+02 -.646624813573193D+02 0.140454379451958D+02
 0.432559256992166D+02 -.290314691518597D+02 -.102933667176009D+02 -.303693185402267D+02
 0.322034515259789D+02 -.170182426246441D+02 0.271538170183131D+02 -.317992601970360D+01
-.139336760943D-06 0.000000000000D+00 0.000000000000D+00 0.868080926093D-06 0.000000000000D+00  6 2 2 25 24 1 2 4 0.93656516D-01 0.67678969D-02 0.25986928D+05 0.25986928D+05 0.25986928D+05 0.12214990D+01  1  2 13  8  6  2       21 -.243788629927D-03 0.100000000000D+01
0.490070392285D-07 0.000000000000D+00 0.000000000000D+00 0.882732154366D-06 0.135050556546D-09  6 2 2 25 24 1 2 4 0.10315332D+00 0.65060278D-02 0.25986928D+05 0.25986928D+05 0.25986928D+05 0.12214990D+01  1  2  1  8  6  2       21 0.806032418244D-04 0.100000000000D+01
  </mgrwgt>
  </event>
  <event>
  6     66 -.45638357E-03 0.14670831E+02 0.75467711E-02 0.11802220E+00
        2 -1    0    0  502    0 0.00000000E+00 0.00000000E+00 0.47125252E+03 0.47125263E+03 0.32000000E+00 0.0000E+00 0.9000E+01
       21 -1    0    0  501  503 0.00000000E+00 0.00000000E+00 -.11218153E+03 0.11218404E+03 0.75000000E+00 0.0000E+00 0.9000E+01
       25  1    1    2    0    0 -.89782401E+02 0.38470336E+02 0.23635466E+03 0.28465659E+03 0.12500000E+03 0.0000E+00 0.9000E+01
       24  1    1    2    0    0 0.11667351E+03 -.28788702E+02 0.17787000E+03 0.22923013E+03 0.80419002E+02 0.0000E+00 0.9000E+01
        1  1    1    2  501    0 -.15715331E+02 -.13210564E+02 -.98952921E+01 0.22792758E+02 0.32000000E+00 0.0000E+00 0.9000E+01
       21  1    1    2  502  503 -.11175778E+02 0.35289297E+01 -.45258386E+02 0.46757195E+02 0.75000000E+00 0.0000E+00 0.9000E+01
#aMCatNLO 2  0  0  2  1 0.11719700D+02 0.00000000D+00  -5  6  0 0.00000000D+00 0.00000000D+00 0.00000000D+00 0.00000000D+00 0.00000000D+00
  <mgrwgt>
 -.2016064593D+00    3    2    0
 0.176355651340284D+03 0.000000000000000D+00 0.000000000000000D+00 0.176355651340284D+03
 0.176355651340284D+03 0.000000000000000D+00 0.000000000000000D+00 -.176355651340284D+03
 0.165413944930528D+03 -.949693908304983D+02 0.401084133748022D+02 0.333001975867987D+02
 0.140907227123134D+03 0.112148367505762D+03 -.273596432756350D+02 0.786284215677254D+01
 0.463901306269071D+02 -.171789766752639D+02 -.127487700991672D+02 -.411630397435712D+02
 0.000000000000000D+00 -.000000000000000D+00 0.000000000000000D+00 -.000000000000000D+00
 0.176732885420933D+03 0.000000000000000D+00 0.000000000000000D+00 0.176732885420933D+03
 0.299128877871371D+03 0.000000000000000D+00 0.000000000000000D+00 -.299128877871371D+03
 0.162094805200931D+03 -.897822088446856D+02 0.384704781459414D+02 0.333001975867987D+02
 0.144812187662398D+03 0.116673677442604D+03 -.287885818760811D+02 0.786284215677254D+01
 0.459989640164691D+02 -.157156904356525D+02 -.132108260070420D+02 -.411630397435712D+02
 0.122955806412506D+03 -.111757781622657D+02 0.352892973718179D+01 -.122395992450437D+03
-.664112003084D-04 0.000000000000D+00 0.000000000000D+00 0.164336957320D-05 0.000000000000D+00  6 2 21 25 24 1 21 4 0.72345370D-01 0.17262953D-01 0.28137771D+05 0.28137771D+05 0.28137771D+05 0.12178303D+01  1  2 13  2  6  2       21 -.370654389236D+00 0.100000000000D+01
-.621032761661D-04 0.000000000000D+00 0.000000000000D+00 0.164336957320D-05 0.000000000000D+00  6 2 21 25 24 1 21 4 0.72345370D-01 0.18128633D-01 0.28137771D+05 0.28137771D+05 0.28137771D+05 0.12178303D+01  1  2 13  2  6  2       21 -.316770965227D+00 0.100000000000D+01
0.872111076462D-04 0.000000000000D+00 0.000000000000D+00 0.165196815239D-05 0.301881598536D-06  6 2 21 25 24 1 21 4 0.72500120D-01 0.17258787D-01 0.28137771D+05 0.28137771D+05 0.28137771D+05 0.12178303D+01  1  2  1  2  6  2       21 0.485818895180D+00 0.100000000000D+01
  </mgrwgt>
  </event>
  <event>
  5     66 0.45638357E-03 0.35465677E+02 0.75467711E-02 0.10725515E+00
        2 -1    0    0  502    0 0.00000000E+00 0.00000000E+00 0.70292821E+03 0.70292828E+03 0.32000000E+00 0.0000E+00 0.9000E+01
       21 -1    0    0  501  502 0.00000000E+00 0.00000000E+00 -.12457415E+03 0.12457641E+03 0.75000000E+00 0.0000E+00 0.9000E+01
       25  1    1    2    0    0 0.42174537E+02 -.12617895E+03 0.43398152E+03 0.47081289E+03 0.12500000E+03 0.0000E+00 0.9000E+01
       24  1    1    2    0    0 -.30554584E+02 0.92670907E+02 0.23085670E+03 0.26321761E+03 0.80419002E+02 0.0000E+00 0.9000E+01
        1  1    1    2  501    0 -.11619953E+02 0.33508046E+02 -.86484156E+02 0.93474189E+02 0.32000000E+00 0.0000E+00 0.9000E+01
#aMCatNLO 1  0  0  2  5 0.32526100D+02 0.00000000D+00  -5  6  0 0.00000000D+00 0.00000000D+00 0.00000000D+00 0.00000000D+00 0.00000000D+00
  <mgrwgt>
 0.7658914849D+00    3    2    0
 0.295918313524894D+03 0.000000000000000D+00 0.000000000000000D+00 0.295918313524894D+03
 0.295918313524894D+03 0.000000000000000D+00 0.000000000000000D+00 -.295918313524894D+03
 0.234194599754168D+03 0.421745418658192D+02 -.126178968528172D+03 0.146704759546477D+03
 0.142432736145469D+03 -.305545808583345D+02 0.926708985211382D+02 0.655621119807070D+02
 0.215209291150150D+03 -.116199610074847D+02 0.335080700070341D+02 -.212266871527184D+03
 0.000000000000000D+00 0.000000000000000D+00 -.000000000000000D+00 0.000000000000000D+00
 0.707342198205952D+03 0.000000000000000D+00 0.000000000000000D+00 0.707342198205952D+03
 0.347361068256014D+03 0.000000000000000D+00 0.000000000000000D+00 -.347361068256014D+03
 0.202933017426970D+03 -.584730314871530D+01 -.632481789011524D+02 0.146704759546477D+03
 0.186619755193620D+03 -.667035385531860D+02 0.140042723806947D+03 0.655621119807070D+02
 0.242417944581720D+03 -.618938474538750D+02 0.993900737229037D+02 -.212266871527184D+03
 0.422732549259656D+03 0.134444689155776D+03 -.176184618628699D+03 0.359981129949938D+03
0.267738086563D-03 0.000000000000D+00 0.000000000000D+00 0.423548694845D-05 0.000000000000D+00  6 2 21 25 24 1 21 2 0.10814298D+00 0.19165433D-01 0.29663684D+05 0.29663684D+05 0.29663684D+05 0.12154126D+01  1  2  2  2  6  2       21 0.522701707574D+00 0.100000000000D+01
0.619970791285D-04 0.141289269983D-04 -.540486058009D-06 0.423548694845D-05 0.000000000000D+00  6 2 21 25 24 1 21 4 0.10814298D+00 0.19165433D-01 0.29663684D+05 0.29663684D+05 0.29663684D+05 0.12154126D+01  1  2  3  2  6  2       21 0.178797921297D+00 0.100000000000D+01
0.223274798881D-04 0.000000000000D+00 0.000000000000D+00 0.423548694845D-05 0.000000000000D+00  6 2 21 25 24 1 21 4 0.10814298D+00 0.19165433D-01 0.29663684D+05 0.29663684D+05 0.29663684D+05 0.12154126D+01  1  2 15  2  6  2       21 0.643918560021D-01 0.100000000000D+01
  </mgrwgt>
  </event>
  <event>
  5     66 -.45638357E-03 0.45754592E+02 0.75467711E-02 0.11787855E+00
        2 -1    0    0  502    0 0.00000000E+00 0.00000000E+00 0.15647275E+03 0.15647307E+03 0.32000000E+00 0.0000E+00 0.9000E+01
       21 -1    0    0  501  502 0.00000000E+00 0.00000000E+00 -.15823292E+03 0.15823470E+03 0.75000000E+00 0.0000E+00 0.9000E+01
       25  1    1    2    0    0 0.71915194E+02 0.88588548E+01 -.21302776E+02 0.14604480E+03 0.12500000E+03 0.0000E+00 0.9000E+01
       24  1    1    2    0    0 -.26446574E+02 -.37555407E+01 0.62974210E+02 0.10557695E+03 0.80419002E+02 0.0000E+00 0.9000E+01
        1  1    1    2  501    0 -.45468620E+02 -.51033141E+01 -.43431607E+02 0.63086022E+02 0.32000000E+00 0.0000E+00 0.9000E+01
#aMCatNLO 1  0  0  2  5 0.59232979D+02 0.00000000D+00  -5  6  0 0.00000000D+00 0.00000000D+00 0.00000000D+00 0.00000000D+00 0.00000000D+00
  <mgrwgt>
 -.2852556036D+00   12    2    0
 0.157351423251644D+03 0.000000000000000D+00 0.000000000000000D+00 0.157351423251644D+03
 0.157351423251644D+03 0.000000000000000D+00 0.000000000000000D+00 -.157351423251644D+03
 0.145928032219496D+03 0.719154672550953D+02 0.885888543844382D+01 -.204860026780245D+02
 0.105930886754991D+03 -.264463751290894D+02 -.375551842317823D+01 0.635658881652165D+02
 0.628439275288018D+02 -.454690921260059D+02 -.510336701526559D+01 -.430798854871920D+02
 0.000000000000000D+00 -.000000000000000D+00 -.000000000000000D+00 -.000000000000000D+00
 0.163182658794657D+03 0.000000000000000D+00 0.000000000000000D+00 0.163182658794657D+03
 0.445984548686784D+03 0.000000000000000D+00 0.000000000000000D+00 -.445984548686784D+03
 0.155743578137526D+03 0.838567063068783D+02 0.343429560858914D+02 -.204860026780245D+02
 0.105038786493150D+03 -.180954424776837D+02 0.140663974381180D+02 0.635658881652165D+02
 0.594463464275574D+02 -.406284066094182D+02 0.522725036471036D+01 -.430798854871920D+02
 0.288938496423208D+03 -.251328572197764D+02 -.536366038887197D+02 -.282801889892128D+03
0.412624353965D-05 0.000000000000D+00 0.000000000000D+00 0.590886277707D-06 0.000000000000D+00  6 2 21 25 24 1 21 2 0.24072892D-01 0.24343688D-01 0.18903047D+05 0.18903047D+05 0.18903047D+05 0.12365322D+01  1  2  2  2  6  2       21 0.276393016190D-01 0.100000000000D+01
-.140248965461D-09 0.217747853872D-06 -.832969688309D-08 0.590886277707D-06 0.000000000000D+00  6 2 21 25 24 1 21 4 0.24072892D-01 0.24343688D-01 0.18903047D+05 0.18903047D+05 0.18903047D+05 0.12365322D+01  1  2  3  2  6  2       21 -.143642434352D-05 0.100000000000D+01
0.400792068970D-06 0.000000000000D+00 0.000000000000D+00 0.590886277707D-06 0.000000000000D+00  6 2 21 25 24 1 21 4 0.24072892D-01 0.24343688D-01 0.18903047D+05 0.18903047D+05 0.18903047D+05 0.12365322D+01  1  2 15  2  6  2       21 0.410489647938D-02 0.100000000000D+01
-.185562374819D-03 0.000000000000D+00 -.907946975152D-05 0.590886277707D-06 0.000000000000D+00  6 2 21 25 24 1 21 4 0.24072892D-01 0.70095690D-01 0.18903047D+05 0.18903047D+05 0.18903047D+05 0.12365322D+01  1  2  5  2  6  2       21 -.224550391529D+00 0.100000000000D+01
-.675489716009D-04 0.000000000000D+00 -.314033901205D-05 0.590886277707D-06 0.000000000000D+00  6 2 -1 25 24 1 -1 4 0.24072892D-01 0.70095690D-01 0.18903047D+05 0.18903047D+05 0.18903047D+05 0.12365322D+01  1  2  5  5  6  2       21 -.866206608368D-02 0.100000000000D+01
-.675489716009D-04 0.000000000000D+00 -.314033901205D-05 0.590886277707D-06 0.000000000000D+00  6 2 1 25 24 1 1 4 0.24072892D-01 0.70095690D-01 0.18903047D+05 0.18903047D+05 0.18903047D+05 0.12365322D+01  1  2  5  6  6  2       21 -.244733440577D-01 0.100000000000D+01
-.675489716009D-04 0.000000000000D+00 -.314033901205D-05 0.590886277707D-06 0.000000000000D+00  6 2 -2 25 24 1 -2 4 0.24072892D-01 0.70095690D-01 0.18903047D+05 0.18903047D+05 0.18903047D+05 0.12365322D+01  1  2  5  7  6  2       21 -.672892498880D-02 0.100000000000D+01
-.675489716009D-04 0.000000000000D+00 -.314033901205D-05 0.590886277707D-06 0.000000000000D+00  6 2 2 25 24 1 2 4 0.24072892D-01 0.70095690D-01 0.18903047D+05 0.18903047D+05 0.18903047D+05 0.12365322D+01  1  2  5  8  6  2       21 -.374056789605D-01 0.100000000000D+01
-.675489716009D-04 0.000000000000D+00 -.314033901205D-05 0.590886277707D-06 0.000000000000D+00  6 2 -3 25 24 1 -3 4 0.24072892D-01 0.70095690D-01 0.18903047D+05 0.18903047D+05 0.18903047D+05 0.12365322D+01  1  2  5  9  6  2       21 -.419242163978D-02 0.100000000000D+01
-.675489716009D-04 0.000000000000D+00 -.314033901205D-05 0.590886277707D-06 0.000000000000D+00  6 2 -4 25 24 1 -4 4 0.24072892D-01 0.70095690D-01 0.18903047D+05 0.18903047D+05 0.18903047D+05 0.12365322D+01  1  2  5  9  6  2       21 -.339453884419D-02 0.100000000000D+01
-.675489716009D-04 0.000000000000D+00 -.314033901205D-05 0.590886277707D-06 0.000000000000D+00  6 2 3 25 24 1 3 4 0.24072892D-01 0.70095690D-01 0.18903047D+05 0.18903047D+05 0.18903047D+05 0.12365322D+01  1  2  5 10  6  2       21 -.419646036020D-02 0.100000000000D+01
-.675489716009D-04 0.000000000000D+00 -.314033901205D-05 0.590886277707D-06 0.000000000000D+00  6 2 4 25 24 1 4 4 0.24072892D-01 0.70095690D-01 0.18903047D+05 0.18903047D+05 0.18903047D+05 0.12365322D+01  1  2  5 10  6  2       21 -.339453884419D-02 0.100000000000D+01
  </mgrwgt>
  </event>
  <event>
  5     66 -.45638357E-03 0.42617509E+02 0.75467711E-02 0.12163729E+00
        2 -1    0    0  502    0 0.00000000E+00 0.00000000E+00 0.73186694E+03 0.73186701E+03 0.32000000E+00 0.0000E+00 0.9000E+01
       21 -1    0    0  501  502 0.00000000E+00 0.00000000E+00 -.27989286E+02 0.27999333E+02 0.75000000E+00 0.0000E+00 0.9000E+01
       25  1    1    2    0    0 -.43237027E+02 0.52511017E+02 0.47651242E+03 0.49730869E+03 0.12500000E+03 0.0000E+00 0.9000E+01
       24  1    1    2    0    0 0.34138195E+02 -.10876974E+02 0.16505220E+03 0.18706462E+03 0.80419002E+02 0.0000E+00 0.9000E+01
        1  1    1    2  501    0 0.90988319E+01 -.41634043E+02 0.62313034E+02 0.75493039E+02 0.32000000E+00 0.0000E+00 0.9000E+01
#aMCatNLO 1  0  0  5  5 0.85596867D+01 0.00000000D+00  -5  6  0 0.00000000D+00 0.00000000D+00 0.00000000D+00 0.00000000D+00 0.00000000D+00
  <mgrwgt>
 -.1171526686D+00    5    2    0
 0.143137265185576D+03 0.000000000000000D+00 0.000000000000000D+00 0.143137265185576D+03
 0.143137265185576D+03 -.000000000000000D+00 -.000000000000000D+00 -.143137265185576D+03
 0.148395215040226D+03 -.432371356544449D+02 0.525115140182147D+02 0.420622258415902D+02
 0.907084555954029D+02 0.341381289268665D+02 -.108766709215408D+02 -.218424848671068D+02
 0.471708597355230D+02 0.909900672757835D+01 -.416348430966740D+02 -.202197409744835D+02
 0.000000000000000D+00 0.000000000000000D+00 0.000000000000000D+00 0.000000000000000D+00
 0.143137265185576D+03 0.000000000000000D+00 0.000000000000000D+00 0.143137265185576D+03
 0.143137265185576D+03 -.000000000000000D+00 -.000000000000000D+00 -.143137265185576D+03
 0.144309034309180D+03 -.415492697467958D+02 0.447882498931098D+02 0.383114635359766D+02
 0.923995739266117D+02 0.351940131551753D+02 -.157081404972963D+02 -.241888624701409D+02
 0.393903090405968D+02 0.524825462696195D+01 -.379326248488273D+02 -.922866413748084D+01
 0.101756130947634D+02 0.110700196465851D+01 0.885251545301378D+01 -.489393692835490D+01
0.487522164296D-05 0.000000000000D+00 0.000000000000D+00 0.555175226832D-06 0.000000000000D+00  6 2 21 25 24 1 21 2 0.11259569D+00 0.43068222D-02 0.18627620D+05 0.18627620D+05 0.18627620D+05 0.12372394D+01  1  2  2  3  6  5        1 0.128421427265D+00 0.100000000000D+01
-.482890622837D-07 0.257272514262D-06 -.984166788352D-08 0.555175226832D-06 0.000000000000D+00  6 2 21 25 24 1 21 4 0.11259569D+00 0.43068222D-02 0.18627620D+05 0.18627620D+05 0.18627620D+05 0.12372394D+01  1  2  3  3  6  5        1 -.194714988021D-02 0.100000000000D+01
0.503745722648D-06 0.000000000000D+00 0.000000000000D+00 0.555175226832D-06 0.000000000000D+00  6 2 21 25 24 1 21 4 0.11259569D+00 0.43068222D-02 0.18627620D+05 0.18627620D+05 0.18627620D+05 0.12372394D+01  1  2 15  3  6  5        1 0.203124346824D-01 0.100000000000D+01
-.655335452791D-05 0.000000000000D+00 0.000000000000D+00 0.555175226832D-06 0.000000000000D+00  6 2 21 25 24 1 21 4 0.11259569D+00 0.43068222D-02 0.18627620D+05 0.18627620D+05 0.18627620D+05 0.12372394D+01  1  2  4  3  6  5        1 -.264249560470D+00 0.100000000000D+01
0.771269696033D-08 0.000000000000D+00 0.000000000000D+00 0.555175226832D-06 0.824184810820D-07  6 2 21 25 24 1 21 4 0.11259569D+00 0.43068222D-02 0.18978271D+05 0.18978271D+05 0.18978271D+05 0.12363411D+01  1  2 11  3  6  5        1 0.310179819962D-03 0.100000000000D+01
  </mgrwgt>
  </event>
  <event>
  6     66 0.45638357E-03 0.18328216E+02 0.75467711E-02 0.12283215E+00
        2 -1    0    0  502    0 0.00000000E+00 0.00000000E+00 0.16911657E+04 0.16911657E+04 0.32000000E+00 0.0000E+00 0.9000E+01
       21 -1    0    0  501  502 0.00000000E+00 0.00000000E+00 -.56136389E+02 0.56141399E+02 0.75000000E+00 0.0000E+00 0.9000E+01
       25  1    1    2    0    0 0.39886477E+02 0.20249263E+02 0.70116408E+03 0.71362247E+03 0.12500000E+03 0.0000E+00 0.9000E+01
       24  1    1    2    0    0 -.58815592E+02 -.83601124E+01 0.97762152E+03 0.98272083E+03 0.80419002E+02 0.0000E+00 0.9000E+01
        1  1    1    2  503    0 0.14689733E+02 -.14849929E+02 -.34347827E+02 0.40201794E+02 0.32000000E+00 0.0000E+00 0.9000E+01
       21  1    1    2  501  503 0.42393813E+01 0.29607786E+01 -.94084941E+01 0.10762008E+02 0.75000000E+00 0.0000E+00 0.9000E+01
#aMCatNLO 2  0  0  5  5 0.55102548D+01 0.00000000D+00  -5  6  0 0.00000000D+00 0.00000000D+00 0.00000000D+00 0.00000000D+00 0.00000000D+00
  <mgrwgt>
 0.5021770479D+01    1    2    0
 0.308123899929482D+03 0.000000000000000D+00 0.000000000000000D+00 0.308123899929482D+03
 0.308123899929482D+03 -.000000000000000D+00 -.000000000000000D+00 -.308123899929482D+03
 0.163126413203661D+03 0.398797102291455D+02 0.202535131061232D+02 0.947872913611894D+02
 0.192672966542297D+03 -.588235833369231D+02 -.835509285323416D+01 0.164698617324665D+03
 0.260448420113007D+03 0.189438731077776D+02 -.118984202528890D+02 -.259485908685854D+03
 0.000000000000000D+00 0.000000000000000D+00 0.000000000000000D+00 -.000000000000000D+00
 0.308123899929482D+03 0.000000000000000D+00 0.000000000000000D+00 0.308123899929482D+03
 0.308123899929482D+03 -.000000000000000D+00 -.000000000000000D+00 -.308123899929482D+03
 0.163074025831396D+03 0.398864351014237D+02 0.202492892942312D+02 0.946951766397700D+02
 0.192577771022425D+03 -.588156410974432D+02 -.836008127891366D+01 0.164589827574190D+03
 0.205308133567400D+03 0.147026849969807D+02 -.148765946136341D+02 -.204239926790798D+03
 0.552878694377438D+02 0.422652099903880D+01 0.298738659831655D+01 -.550450774231618D+02
0.140704984854D-02 0.000000000000D+00 0.000000000000D+00 0.312483964215D-04 0.145138237493D-04  6 2 21 25 24 1 21 4 0.26017972D+00 0.86367553D-02 0.16749085D+05 0.16749085D+05 0.16749085D+05 0.12423986D+01  1  2  1  3  6  5        1 0.502177047871D+01 0.100000000000D+01
  </mgrwgt>
  </event>
  <event>
  5     66 0.45638357E-03 0.78327401E+02 0.75467711E-02 0.11695582E+00
        2 -1    0    0  502    0 0.00000000E+00 0.00000000E+00 0.28258333E+04 0.28258333E+04 0.32000000E+00 0.0000E+00 0.9000E+01
       21 -1    0    0  501  502 0.00000000E+00 0.00000000E+00 -.97409809E+01 0.97698111E+01 0.75000000E+00 0.0000E+00 0.9000E+01
       25  1    1    2    0    0 -.21376487E+02 -.91922913E+02 0.13202675E+04 0.13295255E+04 0.12500000E+03 0.0000E+00 0.9000E+01
       24  1    1    2    0    0 -.36826435E+02 0.39506086E+02 0.78794010E+03 0.79387262E+03 0.80419002E+02 0.0000E+00 0.9000E+01
        1  1    1    2  501    0 0.58202922E+02 0.52416826E+02 0.70788471E+03 0.71220500E+03 0.32000000E+00 0.0000E+00 0.9000E+01
#aMCatNLO 1  0  0  1  2 0.23719333D+02 0.00000000D+00  -5  6  0 0.00000000D+00 0.00000000D+00 0.00000000D+00 0.00000000D+00 0.00000000D+00
  <mgrwgt>
 0.1432057809D+00    9    2    0
 0.166034000989128D+03 0.000000000000000D+00 0.000000000000000D+00 0.166034000989128D+03
 0.166034000989128D+03 0.000000000000000D+00 0.000000000000000D+00 -.166034000989128D+03
 0.156629198261100D+03 -.213767148015047D+02 -.919231180913739D+02 -.939240421510109D+00
 0.969548957102145D+02 -.368265764924654D+02 0.395059590500397D+02 -.401476166032640D+01
 0.784839080069417D+02 0.582032912939700D+02 0.524171590413342D+02 0.495400208183651D+01
 0.000000000000000D+00 -.000000000000000D+00 0.000000000000000D+00 0.000000000000000D+00
 0.190340319268292D+03 0.000000000000000D+00 0.000000000000000D+00 0.190340319268292D+03
 0.172346149440348D+03 0.000000000000000D+00 0.000000000000000D+00 -.172346149440348D+03
 0.155851464508008D+03 -.102464642584155D+02 -.925138194375439D+02 -.939240421510109D+00
 0.944255734460193D+02 -.300097944494217D+02 0.391441808210785D+02 -.401476166032640D+01
 0.826370120713311D+02 0.639422582825587D+02 0.521125822923508D+02 0.495400208183651D+01
 0.297724186832813D+02 -.236859995747214D+02 0.125705632411460D+01 0.179941698279443D+02
0.272558331403D-05 0.000000000000D+00 0.000000000000D+00 0.229878810242D-06 0.000000000000D+00  6 2 21 25 24 1 21 2 0.43474581D+00 0.15008316D-02 0.27527044D+05 0.27527044D+05 0.27527044D+05 0.12188393D+01  1  2  2  1  6  1        2 0.276848462838D-01 0.100000000000D+01
-.200163569441D-06 0.143832983069D-06 -.550216743567D-08 0.229878810242D-06 0.000000000000D+00  6 2 21 25 24 1 21 4 0.43474581D+00 0.15008316D-02 0.27527044D+05 0.27527044D+05 0.27527044D+05 0.12188393D+01  1  2  3  1  6  1        2 -.302037309910D-02 0.100000000000D+01
0.291199656456D-06 0.000000000000D+00 0.000000000000D+00 0.229878810242D-06 0.000000000000D+00  6 2 21 25 24 1 21 4 0.43474581D+00 0.15008316D-02 0.27527044D+05 0.27527044D+05 0.27527044D+05 0.12188393D+01  1  2 15  1  6  1        2 0.439406437087D-02 0.100000000000D+01
0.118566394532D-04 0.000000000000D+00 0.000000000000D+00 0.227424762023D-06 0.000000000000D+00  6 2 21 25 24 1 21 4 0.50581023D+00 0.15008316D-02 0.31754623D+05 0.31754623D+05 0.31754623D+05 0.12123161D+01  1  2 12  1  6  1        2 0.929825261912D-01 0.100000000000D+01
-.105323640142D-04 0.000000000000D+00 0.000000000000D+00 0.229878810242D-06 0.000000000000D+00  6 2 21 25 24 1 21 4 0.43474581D+00 0.15008316D-02 0.27527044D+05 0.27527044D+05 0.27527044D+05 0.12188393D+01  1  2  4  1  6  1        2 -.158928365572D+00 0.100000000000D+01
-.253292320362D-04 0.000000000000D+00 -.463108117188D-05 0.229878810242D-06 0.000000000000D+00  6 2 21 25 24 1 21 4 0.50337704D+00 0.15008316D-02 0.27527044D+05 0.27527044D+05 0.27527044D+05 0.12188393D+01  1  2  5  1  6  1        2 -.208683295045D+00 0.100000000000D+01
0.257799163641D-04 0.000000000000D+00 0.458177305930D-05 0.229878810242D-06 0.000000000000D+00  6 2 21 25 24 1 21 4 0.43474581D+00 0.15008316D-02 0.27527044D+05 0.27527044D+05 0.27527044D+05 0.12188393D+01  1  2  6  1  6  1        2 0.389006681388D+00 0.100000000000D+01
0.272501384563D-06 0.000000000000D+00 0.000000000000D+00 0.227424762023D-06 0.000000000000D+00  6 21 21 25 24 1 -2 4 0.50581023D+00 0.15008316D-02 0.31754623D+05 0.31754623D+05 0.31754623D+05 0.12123161D+01  1  2 12  4  6  1        2 0.203138285053D-03 0.100000000000D+01
-.536233278302D-06 0.000000000000D+00 -.103680197379D-06 0.229878810242D-06 0.000000000000D+00  6 21 21 25 24 1 -2 4 0.50337704D+00 0.15008316D-02 0.27527044D+05 0.27527044D+05 0.27527044D+05 0.12188393D+01  1  2  5  4  6  1        2 -.433441914739D-03 0.100000000000D+01
  </mgrwgt>
  </event>
  <event>
  6     66 0.45638357E-03 0.24055851E+02 0.75467711E-02 0.11356173E+00
        2 -1    0    0  502    0 0.00000000E+00 0.00000000E+00 0.57383297E+03 0.57383306E+03 0.32000000E+00 0.0000E+00 0.9000E+01
       21 -1    0    0  501  502 0.00000000E+00 0.00000000E+00 -.12228711E+03 0.12228941E+03 0.75000000E+00 0.0000E+00 0.9000E+01
       25  1    1    2    0    0 0.14744876E+03 0.98355625E+02 0.11775008E+03 0.24678948E+03 0.12500000E+03 0.0000E+00 0.9000E+01
       24  1    1    2    0    0 -.12769061E+03 -.41086360E+02 0.26203207E+03 0.30515734E+03 0.80419002E+02 0.0000E+00 0.9000E+01
        1  1    1    2  503    0 -.18682231E+02 -.32401947E+02 -.24519858E+02 0.44724018E+02 0.32000000E+00 0.0000E+00 0.9000E+01
       21  1    1    2  501  503 -.10759197E+01 -.24867317E+02 0.96283566E+02 0.99451640E+02 0.75000000E+00 0.0000E+00 0.9000E+01
#aMCatNLO 2  0  0  5  2 0.48763721D+02 0.00000000D+00  -5  6  0 0.00000000D+00 0.00000000D+00 0.00000000D+00 0.00000000D+00 0.00000000D+00
  <mgrwgt>
 0.2260730508D+00    1    2    0
 0.264902264195218D+03 0.000000000000000D+00 0.000000000000000D+00 0.264902264195218D+03
 0.264902264195218D+03 -.000000000000000D+00 -.000000000000000D+00 -.264902264195218D+03
 0.238396565713397D+03 0.155819327762308D+03 0.122617831502237D+03 -.435100797210669D+02
 0.174428796211353D+03 -.121316194313473D+03 -.226100390280218D+02 0.934310233585091D+02
 0.116979166465686D+03 -.345031334488352D+02 -.100007792474216D+03 -.499209436374422D+02
 0.000000000000000D+00 0.000000000000000D+00 0.000000000000000D+00 0.000000000000000D+00
 0.264902264195218D+03 0.000000000000000D+00 0.000000000000000D+00 0.264902264195218D+03
 0.264902264195218D+03 -.000000000000000D+00 -.000000000000000D+00 -.264902264195218D+03
 0.223852184788455D+03 0.147414843588913D+03 0.982573220339578D+02 -.556701283538662D+02
 0.177645567884459D+03 -.127717517016214D+03 -.411643582571879D+02 0.841692538348080D+02
 0.793656115971765D+02 -.185028144914819D+02 -.317451481149735D+02 -.703476490811603D+02
 0.489411641203459D+02 -.119451208121774D+01 -.253478156617963D+02 0.418485236002185D+02
0.645926690499D-04 0.000000000000D+00 0.000000000000D+00 0.818984509164D-07 0.570865543662D-08  6 2 21 25 24 1 21 4 0.88282179D-01 0.18813586D-01 0.47388755D+05 0.47388755D+05 0.47388755D+05 0.11945957D+01  1  2  1  3  6  5        1 0.226073050836D+00 0.100000000000D+01
  </mgrwgt>
  </event>
  <event>
  5     66 0.45638357E-03 0.10633357E+03 0.75467711E-02 0.10773399E+00
        2 -1    0    0  502    0 0.00000000E+00 0.00000000E+00 0.38983051E+03 0.38983064E+03 0.32000000E+00 0.0000E+00 0.9000E+01
       21 -1    0    0  501  502 0.00000000E+00 0.00000000E+00 -.18527706E+03 0.18527858E+03 0.75000000E+00 0.0000E+00 0.9000E+01
       25  1    1    2    0    0 0.11387377E+03 -.16408187E+02 0.19770263E+03 0.26066797E+03 0.12500000E+03 0.0000E+00 0.9000E+01
       24  1    1    2    0    0 -.14732407E+02 -.22034020E+02 0.12785697E+03 0.15335306E+03 0.80419002E+02 0.0000E+00 0.9000E+01
        1  1    1    2  501    0 -.99141362E+02 0.38442207E+02 -.12100614E+03 0.16108818E+03 0.32000000E+00 0.0000E+00 0.9000E+01
#aMCatNLO 1  0  0  2  1 0.29929459D+02 0.00000000D+00  -5  6  0 0.00000000D+00 0.00000000D+00 0.00000000D+00 0.00000000D+00 0.00000000D+00
  <mgrwgt>
 0.6122615594D-01   12    2    0
 0.268751044225731D+03 0.000000000000000D+00 0.000000000000000D+00 0.268751044225731D+03
 0.268751044225731D+03 0.000000000000000D+00 0.000000000000000D+00 -.268751044225731D+03
 0.203667738761061D+03 0.113873808563145D+03 -.164082030068565D+02 0.112334653644607D+03
 0.115425022562469D+03 -.147323837300334D+02 -.220340287884874D+02 0.784421973440000D+02
 0.218409327127931D+03 -.991414248331119D+02 0.384422317953439D+02 -.190776850988607D+03
 0.000000000000000D+00 0.000000000000000D+00 -.000000000000000D+00 -.000000000000000D+00
 0.343519032860152D+03 0.000000000000000D+00 0.000000000000000D+00 0.343519032860152D+03
 0.477789058702913D+03 0.000000000000000D+00 0.000000000000000D+00 -.477789058702913D+03
 0.199646904816498D+03 0.926325934203198D+02 0.550818920297738D+02 0.112334653644607D+03
 0.117116933469565D+03 -.269795802959573D+02 0.191855172941160D+02 0.784421973440000D+02
 0.258797906587016D+03 -.124274312221324D+03 0.123030260109492D+03 -.190776850988607D+03
 0.245746346689986D+03 0.586212990969618D+02 -.197297669433381D+03 -.134270025842761D+03
0.474195879430D-04 0.000000000000D+00 0.000000000000D+00 0.105545535475D-05 0.000000000000D+00  6 2 21 25 24 1 21 2 0.59974051D-01 0.28504290D-01 0.32561234D+05 0.32561234D+05 0.32561234D+05 0.12111818D+01  1  2  2  2  6  2       21 0.839970088481D-01 0.100000000000D+01
0.773322687133D-08 0.250240040532D-05 -.957264858681D-07 0.105545535475D-05 0.000000000000D+00  6 2 21 25 24 1 21 4 0.59974051D-01 0.28504290D-01 0.32561234D+05 0.32561234D+05 0.32561234D+05 0.12111818D+01  1  2  3  2  6  2       21 0.200948834190D-04 0.100000000000D+01
0.441273790359D-05 0.000000000000D+00 0.000000000000D+00 0.105545535475D-05 0.000000000000D+00  6 2 21 25 24 1 21 4 0.59974051D-01 0.28504290D-01 0.32561234D+05 0.32561234D+05 0.32561234D+05 0.12111818D+01  1  2 15  2  6  2       21 0.114665527349D-01 0.100000000000D+01
-.521637864724D-04 0.000000000000D+00 -.685670071418D-04 0.105545535475D-05 0.000000000000D+00  6 2 21 25 24 1 21 4 0.59974051D-01 0.62654908D-01 0.32561234D+05 0.32561234D+05 0.32561234D+05 0.12111818D+01  1  2  5  2  6  2       21 -.272574102943D-01 0.100000000000D+01
-.125828767105D-04 0.000000000000D+00 -.190478223735D-04 0.105545535475D-05 0.000000000000D+00  6 2 -1 25 24 1 -1 4 0.59974051D-01 0.62654908D-01 0.32561234D+05 0.32561234D+05 0.32561234D+05 0.12111818D+01  1  2  5  5  6  2       21 -.689118818259D-03 0.100000000000D+01
-.125828767105D-04 0.000000000000D+00 -.190478223735D-04 0.105545535475D-05 0.000000000000D+00  6 2 1 25 24 1 1 4 0.59974051D-01 0.62654908D-01 0.32561234D+05 0.32561234D+05 0.32561234D+05 0.12111818D+01  1  2  5  6  6  2       21 -.180727672307D-02 0.100000000000D+01
-.125828767105D-04 0.000000000000D+00 -.190478223735D-04 0.105545535475D-05 0.000000000000D+00  6 2 -2 25 24 1 -2 4 0.59974051D-01 0.62654908D-01 0.32561234D+05 0.32561234D+05 0.32561234D+05 0.12111818D+01  1  2  5  7  6  2       21 -.545760407955D-03 0.100000000000D+01
-.125828767105D-04 0.000000000000D+00 -.190478223735D-04 0.105545535475D-05 0.000000000000D+00  6 2 2 25 24 1 2 4 0.59974051D-01 0.62654908D-01 0.32561234D+05 0.32561234D+05 0.32561234D+05 0.12111818D+01  1  2  5  8  6  2       21 -.270778885716D-02 0.100000000000D+01
-.125828767105D-04 0.000000000000D+00 -.190478223735D-04 0.105545535475D-05 0.000000000000D+00  6 2 -3 25 24 1 -3 4 0.59974051D-01 0.62654908D-01 0.32561234D+05 0.32561234D+05 0.32561234D+05 0.12111818D+01  1  2  5  9  6  2       21 -.343714758738D-03 0.100000000000D+01
-.125828767105D-04 0.000000000000D+00 -.190478223735D-04 0.105545535475D-05 0.000000000000D+00  6 2 -4 25 24 1 -4 4 0.59974051D-01 0.62654908D-01 0.32561234D+05 0.32561234D+05 0.32561234D+05 0.12111818D+01  1  2  5  9  6  2       21 -.281228321472D-03 0.100000000000D+01
-.125828767105D-04 0.000000000000D+00 -.190478223735D-04 0.105545535475D-05 0.000000000000D+00  6 2 3 25 24 1 3 4 0.59974051D-01 0.62654908D-01 0.32561234D+05 0.32561234D+05 0.32561234D+05 0.12111818D+01  1  2  5 10  6  2       21 -.343974026229D-03 0.100000000000D+01
-.125828767105D-04 0.000000000000D+00 -.190478223735D-04 0.105545535475D-05 0.000000000000D+00  6 2 4 25 24 1 4 4 0.59974051D-01 0.62654908D-01 0.32561234D+05 0.32561234D+05 0.32561234D+05 0.12111818D+01  1  2  5 10  6  2       21 -.281228321472D-03 0.100000000000D+01
  </mgrwgt>
  </event>
  <event>
  6     66 -.45638357E-03 0.15958754E+03 0.75467711E-02 0.11224919E+00
        2 -1    0    0  503    0 0.00000000E+00 0.00000000E+00 0.28387438E+03 0.28387456E+03 0.32000000E+00 0.0000E+00 0.9000E+01
       21 -1    0    0  501  502 0.00000000E+00 0.00000000E+00 -.21102762E+03 0.21102895E+03 0.75000000E+00 0.0000E+00 0.9000E+01
       25  1    1    2    0    0 0.40408484E+02 0.24565582E+02 -.18535431E+02 0.13492544E+03 0.12500000E+03 0.0000E+00 0.9000E+01
       24  1    1    2    0    0 0.12041952E+03 -.61243916E+02 0.35754719E+00 0.15722284E+03 0.80419002E+02 0.0000E+00 0.9000E+01
        1  1    1    2  501    0 -.15880950E+03 0.50887563E+02 0.82642473E+02 0.18611793E+03 0.32000000E+00 0.0000E+00 0.9000E+01
       21  1    1    2  503  502 -.20184984E+01 -.14209229E+02 0.83821723E+01 0.16637303E+02 0.75000000E+00 0.0000E+00 0.9000E+01
#aMCatNLO 2  0  0  1  2 0.14351882D+02 0.00000000D+00  -5  6  0 0.00000000D+00 0.00000000D+00 0.00000000D+00 0.00000000D+00 0.00000000D+00
  <mgrwgt>
 -.1936632283D-01    3    2    0
 0.236842199337611D+03 0.000000000000000D+00 0.000000000000000D+00 0.236842199337611D+03
 0.236842199337611D+03 0.000000000000000D+00 0.000000000000000D+00 -.236842199337611D+03
 0.137843995841703D+03 0.398195037171502D+02 0.204188913953764D+02 -.370599944348493D+02
 0.160019041907042D+03 0.119740854174560D+03 -.660220241188889D+02 -.210261263971480D+02
 0.175821360926476D+03 -.159560357891710D+03 0.456031327235125D+02 0.580861208319973D+02
 0.000000000000000D+00 -.000000000000000D+00 -.000000000000000D+00 0.000000000000000D+00
 0.247864988373464D+03 0.000000000000000D+00 0.000000000000000D+00 0.247864988373464D+03
 0.241669011286125D+03 0.000000000000000D+00 0.000000000000000D+00 -.241669011286125D+03
 0.138689443605086D+03 0.404085607601919D+02 0.245655612039913D+02 -.370599944348493D+02
 0.158622242596740D+03 0.120419607142795D+03 -.612439394255028D+02 -.210261263971480D+02
 0.176590082175443D+03 -.158809669501102D+03 0.508876071590258D+02 0.580861208319973D+02
 0.156322312823198D+02 -.201849840188508D+01 -.142092289375143D+02 0.619597708733897D+01
-.460760829889D-04 0.000000000000D+00 0.000000000000D+00 0.140962424675D-06 0.000000000000D+00  6 2 21 25 24 1 21 4 0.44082194D-01 0.31816294D-01 0.55692253D+05 0.55692253D+05 0.55692253D+05 0.11876721D+01  1  2 13  1  6  1        2 -.123102644165D+00 0.100000000000D+01
-.139058314600D-04 0.000000000000D+00 0.000000000000D+00 0.141600878150D-06 0.000000000000D+00  6 2 21 25 24 1 21 4 0.41729374D-01 0.31816294D-01 0.52292158D+05 0.52292158D+05 0.52292158D+05 0.11903587D+01  1  2  8  1  6  1        2 -.398209217321D-01 0.100000000000D+01
0.553539633700D-04 0.000000000000D+00 0.000000000000D+00 0.141600878150D-06 0.779085262421D-08  6 2 21 25 24 1 21 4 0.43671486D-01 0.32464706D-01 0.55692253D+05 0.55692253D+05 0.55692253D+05 0.11876721D+01  1  2  1  1  6  1        2 0.143557243066D+00 0.100000000000D+01
  </mgrwgt>
  </event>
  <event>
  5     66 0.45638357E-03 0.22408027E+02 0.75467711E-02 0.11957632E+00
        2 -1    0    0  502    0 0.00000000E+00 0.00000000E+00 0.56922620E+03 0.56922629E+03 0.32000000E+00 0.0000E+00 0.9000E+01
       21 -1    0    0  501  502 0.00000000E+00 0.00000000E+00 -.61170226E+02 0.61174824E+02 0.75000000E+00 0.0000E+00 0.9000E+01
       25  1    1    2    0    0 -.22669367E+02 0.10461704E+03 0.31309791E+03 0.35371447E+03 0.12500000E+03 0.0000E+00 0.9000E+01
       24  1    1    2    0    0 0.57407929E+01 -.89935880E+02 0.21501143E+03 0.24661418E+03 0.80419002E+02 0.0000E+00 0.9000E+01
        1  1    1    2  501    0 0.16928574E+02 -.14681157E+02 -.20053373E+02 0.30072465E+02 0.32000000E+00 0.0000E+00 0.9000E+01
#aMCatNLO 1  0  0  5  2 0.69171846D+00 0.00000000D+00  -5  6  0 0.00000000D+00 0.00000000D+00 0.00000000D+00 0.00000000D+00 0.00000000D+00
  <mgrwgt>
 0.4553082594D+00    8    2    0
 0.186604321366202D+03 0.000000000000000D+00 0.000000000000000D+00 0.186604321366202D+03
 0.186604321366202D+03 -.000000000000000D+00 -.000000000000000D+00 -.186604321366202D+03
 0.171246778661562D+03 -.226694324863023D+02 0.104617094210025D+03 0.473478577314938D+02
 0.123866405654363D+03 0.574074570684955D+01 -.899358393198185D+02 0.274637786899338D+02
 0.780954584164784D+02 0.169286867794527D+02 -.146812548902067D+02 -.748116364214276D+02
 0.000000000000000D+00 0.000000000000000D+00 0.000000000000000D+00 0.000000000000000D+00
 0.186604321366202D+03 0.000000000000000D+00 0.000000000000000D+00 0.186604321366202D+03
 0.186604321366202D+03 -.000000000000000D+00 -.000000000000000D+00 -.186604321366202D+03
 0.171244481662706D+03 -.226682132674610D+02 0.104616036853196D+03 0.473424697319485D+02
 0.123866137794175D+03 0.574162759850506D+01 -.899366041326092D+02 0.274598814143356D+02
 0.397152109537603D+02 0.800109604398375D+01 -.778908443604397D+01 -.381131290613197D+02
 0.383828123217622D+02 0.892548962497218D+01 -.689034828454277D+01 -.366892220849643D+02
0.716765451368D-06 0.000000000000D+00 0.000000000000D+00 0.270861981978D-05 0.000000000000D+00  6 2 21 25 24 1 21 2 0.87573622D-01 0.94111646D-02 0.23679438D+05 0.23679438D+05 0.23679438D+05 0.12258326D+01  1  2  2  3  6  5        1 0.655267225675D-02 0.100000000000D+01
0.136868737808D-06 0.378247520451D-07 -.144694293703D-08 0.270861981978D-05 0.000000000000D+00  6 2 21 25 24 1 21 4 0.87573622D-01 0.94111646D-02 0.23679438D+05 0.23679438D+05 0.23679438D+05 0.12258326D+01  1  2  3  3  6  5        1 0.188021697394D-02 0.100000000000D+01
0.625692804357D-07 0.000000000000D+00 0.000000000000D+00 0.270861981978D-05 0.000000000000D+00  6 2 21 25 24 1 21 4 0.87573622D-01 0.94111646D-02 0.23679438D+05 0.23679438D+05 0.23679438D+05 0.12258326D+01  1  2 15  3  6  5        1 0.859537575977D-03 0.100000000000D+01
0.551834593023D-10 0.000000000000D+00 0.000000000000D+00 0.270857435262D-05 0.000000000000D+00  6 2 21 25 24 1 21 4 0.87573622D-01 0.94111646D-02 0.23684638D+05 0.23684638D+05 0.23684638D+05 0.12258223D+01  1  2 12  3  6  5        1 0.758051045059D-06 0.100000000000D+01
-.482265834075D-03 0.000000000000D+00 0.000000000000D+00 0.270861981978D-05 0.000000000000D+00  6 2 21 25 24 1 21 4 0.87573622D-01 0.94111646D-02 0.23679438D+05 0.23679438D+05 0.23679438D+05 0.12258326D+01  1  2  4  3  6  5        1 -.662506589672D+01 0.100000000000D+01
-.307060329119D-03 0.000000000000D+00 0.000000000000D+00 0.270861981978D-05 0.000000000000D+00  6 2 21 25 24 1 21 4 0.87573622D-01 0.94111646D-02 0.23679438D+05 0.23679438D+05 0.23679438D+05 0.12258326D+01  1  2  5  3  6  5        1 -.421820243307D+01 0.100000000000D+01
0.530611009511D-03 0.000000000000D+00 -.000000000000D+00 0.270861981978D-05 0.000000000000D+00  6 2 21 25 24 1 21 4 0.87573622D-01 0.94111646D-02 0.23679438D+05 0.23679438D+05 0.23679438D+05 0.12258326D+01  1  2  6  3  6  5        1 0.728920162939D+01 0.100000000000D+01
0.291191933934D-03 0.000000000000D+00 0.000000000000D+00 0.270861981978D-05 0.137711561552D-04  6 2 21 25 24 1 21 4 0.87573622D-01 0.94111646D-02 0.23684638D+05 0.23684638D+05 0.23684638D+05 0.12258223D+01  1  2 11  3  6  5        1 0.400008177490D+01 0.100000000000D+01
  </mgrwgt>
  </event>
  <event>
  5     66 -.45638357E-03 0.53406110E+02 0.75467711E-02 0.11151806E+00
        2 -1    0    0  502    0 0.00000000E+00 0.00000000E+00 0.55364624E+03 0.55364633E+03 0.32000000E+00 0.0000E+00 0.9000E+01
       21 -1    0    0  501  502 0.00000000E+00 0.00000000E+00 -.19644235E+03 0.19644378E+03 0.75000000E+00 0.0000E+00 0.9000E+01
       25  1    1    2    0    0 0.89763587E+02 -.49060666E+02 0.41568279E+03 0.44596147E+03 0.12500000E+03 0.0000E+00 0.9000E+01
       24  1    1    2    0    0 -.14310433E+03 0.46420098E+02 0.54564793E+02 0.17910390E+03 0.80419002E+02 0.0000E+00 0.9000E+01
        1  1    1    2  501    0 0.53340745E+02 0.26405684E+01 -.11304369E+03 0.12502475E+03 0.32000000E+00 0.0000E+00 0.9000E+01
#aMCatNLO 1  0  0  2  2 0.54690016D+03 0.00000000D+00  -5  6  0 0.00000000D+00 0.00000000D+00 0.00000000D+00 0.00000000D+00 0.00000000D+00
  <mgrwgt>
 -.1041215024D+01   12    2    0
 0.329788024954206D+03 0.000000000000000D+00 0.000000000000000D+00 0.329788024954206D+03
 0.329788024954206D+03 0.000000000000000D+00 0.000000000000000D+00 -.329788024954206D+03
 0.282041520391396D+03 0.897635590501396D+02 -.490606674688242D+02 0.231209804287915D+03
 0.174132023014582D+03 -.143104349933291D+03 0.464200967797105D+02 -.349437423570040D+02
 0.203402506502433D+03 0.533407908831516D+02 0.264057068911365D+01 -.196266061930911D+03
 0.000000000000000D+00 -.000000000000000D+00 0.000000000000000D+00 -.000000000000000D+00
 0.333697858892285D+03 0.000000000000000D+00 0.000000000000000D+00 0.333697858892285D+03
 0.244782023426466D+04 0.000000000000000D+00 0.000000000000000D+00 -.244782023426466D+04
 0.292947433813689D+03 0.955939898960922D+02 -.871608540281468D+02 0.231209804287915D+03
 0.166609157851943D+03 -.139649208966006D+03 0.238417455531094D+02 -.349437423570040D+02
 0.205973871578633D+03 0.574918978651422D+02 -.244857180226956D+02 -.196266061930911D+03
 0.211598762991268D+04 -.134366787952284D+02 0.878048264977330D+02 -.211412237537237D+04
0.819778395766D-05 0.000000000000D+00 0.000000000000D+00 0.710924179309D-06 0.000000000000D+00  6 2 21 25 24 1 21 2 0.85176462D-01 0.30222018D-01 0.37156077D+05 0.37156077D+05 0.37156077D+05 0.12052666D+01  1  2  2  2  6  2       21 0.869742141229D-02 0.100000000000D+01
0.906485658087D-06 0.432608944706D-06 -.165489639243D-07 0.710924179309D-06 0.000000000000D+00  6 2 21 25 24 1 21 4 0.85176462D-01 0.30222018D-01 0.37156077D+05 0.37156077D+05 0.37156077D+05 0.12052666D+01  1  2  3  2  6  2       21 0.139707974680D-02 0.100000000000D+01
0.765712902707D-06 0.000000000000D+00 0.000000000000D+00 0.710924179309D-06 0.000000000000D+00  6 2 21 25 24 1 21 4 0.85176462D-01 0.30222018D-01 0.37156077D+05 0.37156077D+05 0.37156077D+05 0.12052666D+01  1  2 15  2  6  2       21 0.118012014718D-02 0.100000000000D+01
-.312277755006D-01 0.000000000000D+00 -.117600936710D-03 0.710924179309D-06 0.000000000000D+00  6 2 21 25 24 1 21 4 0.85176462D-01 0.22461199D+00 0.37156077D+05 0.37156077D+05 0.37156077D+05 0.12052666D+01  1  2  5  2  6  2       21 -.431914501626D+00 0.100000000000D+01
-.136366156947D-01 0.000000000000D+00 -.506716009796D-04 0.710924179309D-06 0.000000000000D+00  6 2 -1 25 24 1 -1 4 0.85176462D-01 0.22461199D+00 0.37156077D+05 0.37156077D+05 0.37156077D+05 0.12052666D+01  1  2  5  5  6  2       21 -.220196286082D-01 0.100000000000D+01
-.136366156947D-01 0.000000000000D+00 -.506716009796D-04 0.710924179309D-06 0.000000000000D+00  6 2 1 25 24 1 1 4 0.85176462D-01 0.22461199D+00 0.37156077D+05 0.37156077D+05 0.37156077D+05 0.12052666D+01  1  2  5  6  6  2       21 -.172796764539D+00 0.100000000000D+01
-.136366156947D-01 0.000000000000D+00 -.506716009796D-04 0.710924179309D-06 0.000000000000D+00  6 2 -2 25 24 1 -2 4 0.85176462D-01 0.22461199D+00 0.37156077D+05 0.37156077D+05 0.37156077D+05 0.12052666D+01  1  2  5  7  6  2       21 -.169576991856D-01 0.100000000000D+01
-.136366156947D-01 0.000000000000D+00 -.506716009796D-04 0.710924179309D-06 0.000000000000D+00  6 2 2 25 24 1 2 4 0.85176462D-01 0.22461199D+00 0.37156077D+05 0.37156077D+05 0.37156077D+05 0.12052666D+01  1  2  5  8  6  2       21 -.368717306569D+00 0.100000000000D+01
-.136366156947D-01 0.000000000000D+00 -.506716009796D-04 0.710924179309D-06 0.000000000000D+00  6 2 -3 25 24 1 -3 4 0.85176462D-01 0.22461199D+00 0.37156077D+05 0.37156077D+05 0.37156077D+05 0.12052666D+01  1  2  5  9  6  2       21 -.113659032159D-01 0.100000000000D+01
-.136366156947D-01 0.000000000000D+00 -.506716009796D-04 0.710924179309D-06 0.000000000000D+00  6 2 -4 25 24 1 -4 4 0.85176462D-01 0.22461199D+00 0.37156077D+05 0.37156077D+05 0.37156077D+05 0.12052666D+01  1  2  5  9  6  2       21 -.863063562201D-02 0.100000000000D+01
-.136366156947D-01 0.000000000000D+00 -.506716009796D-04 0.710924179309D-06 0.000000000000D+00  6 2 3 25 24 1 3 4 0.85176462D-01 0.22461199D+00 0.37156077D+05 0.37156077D+05 0.37156077D+05 0.12052666D+01  1  2  5 10  6  2       21 -.114565705191D-01 0.100000000000D+01
-.136366156947D-01 0.000000000000D+00 -.506716009796D-04 0.710924179309D-06 0.000000000000D+00  6 2 4 25 24 1 4 4 0.85176462D-01 0.22461199D+00 0.37156077D+05 0.37156077D+05 0.37156077D+05 0.12052666D+01  1  2  5 10  6  2       21 -.863063562201D-02 0.100000000000D+01
  </mgrwgt>
  </event>
  <event>
  5     66 0.45638357E-03 0.10062092E+03 0.75467711E-02 0.11529645E+00
        2 -1    0    0  502    0 0.00000000E+00 0.00000000E+00 0.61702896E+03 0.61702904E+03 0.32000000E+00 0.0000E+00 0.9000E+01
       21 -1    0    0  501  502 0.00000000E+00 0.00000000E+00 -.61975301E+02 0.61979839E+02 0.75000000E+00 0.0000E+00 0.9000E+01
       25  1    1    2    0    0 0.13135576E+03 -.14624379E+02 0.31971623E+03 0.36784735E+03 0.12500000E+03 0.0000E+00 0.9000E+01
       24  1    1    2    0    0 -.22663679E+02 -.16297091E+02 0.13734592E+03 0.16158699E+03 0.80419002E+02 0.0000E+00 0.9000E+01
        1  1    1    2  501    0 -.10869208E+03 0.30921470E+02 0.97991513E+02 0.14957454E+03 0.32000000E+00 0.0000E+00 0.9000E+01
#aMCatNLO 1  0  0  2  1 0.12376674D+02 0.00000000D+00  -5  6  0 0.00000000D+00 0.00000000D+00 0.00000000D+00 0.00000000D+00 0.00000000D+00
  <mgrwgt>
 0.1610741153D+00   23    2    0
 0.195555936640718D+03 0.000000000000000D+00 0.000000000000000D+00 0.195555936640718D+03
 0.195555936640718D+03 0.000000000000000D+00 0.000000000000000D+00 -.195555936640718D+03
 0.184888309256136D+03 0.131355936999513D+03 -.146244308246269D+02 0.330216707273892D+02
 0.856139699908088D+02 -.226635954047396D+02 -.162971146859663D+02 0.912696003383958D+01
 0.120609594034492D+03 -.108692341594773D+03 0.309215455105932D+02 -.421486307612287D+02
 0.000000000000000D+00 -.000000000000000D+00 0.000000000000000D+00 -.000000000000000D+00
 0.199904302741807D+03 0.000000000000000D+00 0.000000000000000D+00 0.199904302741807D+03
 0.204663526915099D+03 0.000000000000000D+00 0.000000000000000D+00 -.204663526915099D+03
 0.189142756719304D+03 0.137272123636792D+03 -.146940720698835D+02 0.330216707273892D+02
 0.849457600314600D+02 -.199657895607675D+02 -.163288713849944D+02 0.912696003383958D+01
 0.117219136490959D+03 -.104930517282597D+03 0.308772639242271D+02 -.421486307612287D+02
 0.132601764151830D+02 -.123758167934273D+02 0.145679530650829D+00 -.475922417329204D+01
0.218729315744D-05 0.000000000000D+00 0.000000000000D+00 0.218441264706D-06 0.000000000000D+00  6 2 21 25 24 1 21 2 0.94927888D-01 0.95350172D-02 0.36108887D+05 0.36108887D+05 0.36108887D+05 0.12065401D+01  1  2  2  2  6  2       21 0.172568413253D-01 0.100000000000D+01
-.141921986981D-06 0.115426631086D-06 -.441551469777D-08 0.218441264706D-06 0.000000000000D+00  6 2 21 25 24 1 21 4 0.94927888D-01 0.95350172D-02 0.36108887D+05 0.36108887D+05 0.36108887D+05 0.12065401D+01  1  2  3  2  6  2       21 -.162999956225D-02 0.100000000000D+01
0.219406127322D-06 0.000000000000D+00 0.000000000000D+00 0.218441264706D-06 0.000000000000D+00  6 2 21 25 24 1 21 4 0.94927888D-01 0.95350172D-02 0.36108887D+05 0.36108887D+05 0.36108887D+05 0.12065401D+01  1  2 15  2  6  2       21 0.251991885892D-02 0.100000000000D+01
0.703178495017D-05 0.000000000000D+00 0.000000000000D+00 0.217408744048D-06 0.000000000000D+00  6 2 21 25 24 1 21 4 0.94927888D-01 0.10081392D-01 0.38503823D+05 0.38503823D+05 0.38503823D+05 0.12036852D+01  1  2 12  2  6  2       21 0.724838911688D-01 0.100000000000D+01
-.593192202434D-06 0.000000000000D+00 0.000000000000D+00 0.218441264706D-06 0.000000000000D+00  6 2 21 25 24 1 21 4 0.94927888D-01 0.95350172D-02 0.36108887D+05 0.36108887D+05 0.36108887D+05 0.12065401D+01  1  2  4  2  6  2       21 -.681291920205D-02 0.100000000000D+01
-.617883771966D-04 0.000000000000D+00 -.999304689625D-05 0.218441264706D-06 0.000000000000D+00  6 2 21 25 24 1 21 4 0.94927888D-01 0.10197298D-01 0.36108887D+05 0.36108887D+05 0.36108887D+05 0.12065401D+01  1  2  5  2  6  2       21 -.630360123710D+00 0.100000000000D+01
0.619268592150D-04 0.000000000000D+00 0.990349495975D-05 0.218441264706D-06 0.000000000000D+00  6 2 21 25 24 1 21 4 0.94927888D-01 0.95350172D-02 0.36108887D+05 0.36108887D+05 0.36108887D+05 0.12065401D+01  1  2  6  2  6  2       21 0.711241123091D+00 0.100000000000D+01
0.121045532646D-06 0.000000000000D+00 0.000000000000D+00 0.217408744048D-06 0.000000000000D+00  6 2 -1 25 24 1 -1 4 0.94927888D-01 0.10081392D-01 0.38503823D+05 0.38503823D+05 0.38503823D+05 0.12036852D+01  1  2 12  5  6  2       21 0.839758464474D-04 0.100000000000D+01
-.860411321250D-06 0.000000000000D+00 -.164167992230D-06 0.218441264706D-06 0.000000000000D+00  6 2 -1 25 24 1 -1 4 0.94927888D-01 0.10197298D-01 0.36108887D+05 0.36108887D+05 0.36108887D+05 0.12065401D+01  1  2  5  5  6  2       21 -.591520938056D-03 0.100000000000D+01
0.121045532646D-06 0.000000000000D+00 0.000000000000D+00 0.217408744048D-06 0.000000000000D+00  6 2 1 25 24 1 1 4 0.94927888D-01 0.10081392D-01 0.38503823D+05 0.38503823D+05 0.38503823D+05 0.12036852D+01  1  2 12  6  6  2       21 0.105312356623D-03 0.100000000000D+01
-.860411321250D-06 0.000000000000D+00 -.164167992230D-06 0.218441264706D-06 0.000000000000D+00  6 2 1 25 24 1 1 4 0.94927888D-01 0.10197298D-01 0.36108887D+05 0.36108887D+05 0.36108887D+05 0.12065401D+01  1  2  5  6  6  2       21 -.743601094859D-03 0.100000000000D+01
0.121045532646D-06 0.000000000000D+00 0.000000000000D+00 0.217408744048D-06 0.000000000000D+00  6 2 -2 25 24 1 -2 4 0.94927888D-01 0.10081392D-01 0.38503823D+05 0.38503823D+05 0.38503823D+05 0.12036852D+01  1  2 12  7  6  2       21 0.802795267547D-04 0.100000000000D+01
-.860411321250D-06 0.000000000000D+00 -.164167992230D-06 0.218441264706D-06 0.000000000000D+00  6 2 -2 25 24 1 -2 4 0.94927888D-01 0.10197298D-01 0.36108887D+05 0.36108887D+05 0.36108887D+05 0.12065401D+01  1  2  5  7  6  2       21 -.565172588256D-03 0.100000000000D+01
0.121045532646D-06 0.000000000000D+00 0.000000000000D+00 0.217408744048D-06 0.000000000000D+00  6 2 2 25 24 1 2 4 0.94927888D-01 0.10081392D-01 0.38503823D+05 0.38503823D+05 0.38503823D+05 0.12036852D+01  1  2 12  8  6  2       21 0.119805434021D-03 0.100000000000D+01
-.860411321250D-06 0.000000000000D+00 -.164167992230D-06 0.218441264706D-06 0.000000000000D+00  6 2 2 25 24 1 2 4 0.94927888D-01 0.10197298D-01 0.36108887D+05 0.36108887D+05 0.36108887D+05 0.12065401D+01  1  2  5  8  6  2       21 -.846902052306D-03 0.100000000000D+01
0.121045532646D-06 0.000000000000D+00 0.000000000000D+00 0.217408744048D-06 0.000000000000D+00  6 2 -3 25 24 1 -3 4 0.94927888D-01 0.10081392D-01 0.38503823D+05 0.38503823D+05 0.38503823D+05 0.12036852D+01  1  2 12  9  6  2       21 0.559891393109D-04 0.100000000000D+01
0.121045532646D-06 0.000000000000D+00 0.000000000000D+00 0.217408744048D-06 0.000000000000D+00  6 2 -4 25 24 1 -4 4 0.94927888D-01 0.10081392D-01 0.38503823D+05 0.38503823D+05 0.38503823D+05 0.12036852D+01  1  2 12  9  6  2       21 0.492083461556D-04 0.100000000000D+01
-.860411321250D-06 0.000000000000D+00 -.164167992230D-06 0.218441264706D-06 0.000000000000D+00  6 2 -3 25 24 1 -3 4 0.94927888D-01 0.10197298D-01 0.36108887D+05 0.36108887D+05 0.36108887D+05 0.12065401D+01  1  2  5  9  6  2       21 -.393287351395D-03 0.100000000000D+01
-.860411321250D-06 0.000000000000D+00 -.164167992230D-06 0.218441264706D-06 0.000000000000D+00  6 2 -4 25 24 1 -4 4 0.94927888D-01 0.10197298D-01 0.36108887D+05 0.36108887D+05 0.36108887D+05 0.12065401D+01  1  2  5  9  6  2       21 -.345326955456D-03 0.100000000000D+01
0.121045532646D-06 0.000000000000D+00 0.000000000000D+00 0.217408744048D-06 0.000000000000D+00  6 2 3 25 24 1 3 4 0.94927888D-01 0.10081392D-01 0.38503823D+05 0.38503823D+05 0.38503823D+05 0.12036852D+01  1  2 12 10  6  2       21 0.559824695516D-04 0.100000000000D+01
0.121045532646D-06 0.000000000000D+00 0.000000000000D+00 0.217408744048D-06 0.000000000000D+00  6 2 4 25 24 1 4 4 0.94927888D-01 0.10081392D-01 0.38503823D+05 0.38503823D+05 0.38503823D+05 0.12036852D+01  1  2 12 10  6  2       21 0.492083461556D-04 0.100000000000D+01
-.860411321250D-06 0.000000000000D+00 -.164167992230D-06 0.218441264706D-06 0.000000000000D+00  6 2 3 25 24 1 3 4 0.94927888D-01 0.10197298D-01 0.36108887D+05 0.36108887D+05 0.36108887D+05 0.12065401D+01  1  2  5 10  6  2       21 -.393240158688D-03 0.100000000000D+01
-.860411321250D-06 0.000000000000D+00 -.164167992230D-06 0.218441264706D-06 0.000000000000D+00  6 2 4 25 24 1 4 4 0.94927888D-01 0.10197298D-01 0.36108887D+05 0.36108887D+05 0.36108887D+05 0.12065401D+01  1  2  5 10  6  2       21 -.345326955456D-03 0.100000000000D+01
  </mgrwgt>
  </event>
  <event>
  5     66 0.45638357E-03 0.21928927E+02 0.75467711E-02 0.12203318E+00
        2 -1    0    0  502    0 0.00000000E+00 0.00000000E+00 0.65870984E+03 0.65870992E+03 0.32000000E+00 0.0000E+00 0.9000E+01
       21 -1    0    0  501  502 0.00000000E+00 0.00000000E+00 -.28308749E+02 0.28318682E+02 0.75000000E+00 0.0000E+00 0.9000E+01
       25  1    1    2    0    0 0.33623794E+02 -.44341407E+01 0.48809107E+03 0.50498328E+03 0.12500000E+03 0.0000E+00 0.9000E+01
       24  1    1    2    0    0 -.17888465E+02 0.19706697E+02 0.13412894E+03 0.15863839E+03 0.80419002E+02 0.0000E+00 0.9000E+01
        1  1    1    2  501    0 -.15735329E+02 -.15272557E+02 0.81810757E+01 0.23406921E+02 0.32000000E+00 0.0000E+00 0.9000E+01
#aMCatNLO 1  0  0  2  2 0.32480259D+02 0.00000000D+00  -5  6  0 0.00000000D+00 0.00000000D+00 0.00000000D+00 0.00000000D+00 0.00000000D+00
  <mgrwgt>
 0.2843033082D+00   14    2    0
 0.136567530158429D+03 0.000000000000000D+00 0.000000000000000D+00 0.136567530158429D+03
 0.136567530158429D+03 0.000000000000000D+00 0.000000000000000D+00 -.136567530158429D+03
 0.143683109080193D+03 0.336240590743701D+02 -.443388349646657D+01 0.622061023007681D+02
 0.894577664557633D+02 -.178883001107258D+02 0.197068573806034D+02 -.287597725340888D+02
 0.399941847809014D+02 -.157357589636443D+02 -.152729738841368D+02 -.334463297666792D+02
 0.000000000000000D+00 -.000000000000000D+00 0.000000000000000D+00 -.000000000000000D+00
 0.143937805330421D+03 0.000000000000000D+00 0.000000000000000D+00 0.143937805330421D+03
 0.178687601777390D+03 0.000000000000000D+00 0.000000000000000D+00 -.178687601777390D+03
 0.148726623601643D+03 0.507226969217132D+02 -.722616229261492D+01 0.622061023007681D+02
 0.876109634874905D+02 -.753421900808688D+01 0.180159927997741D+02 -.287597725340888D+02
 0.387219126007956D+02 -.111328408954201D+02 -.160246495811753D+02 -.334463297666792D+02
 0.475659074178818D+02 -.320556370182063D+02 0.523481907401612D+01 -.347497964469697D+02
0.287951735012D-05 0.000000000000D+00 0.000000000000D+00 0.198103208864D-05 0.000000000000D+00  6 2 21 25 24 1 21 2 0.10134075D+00 0.43559622D-02 0.13942520D+05 0.13942520D+05 0.13942520D+05 0.12514584D+01  1  2  2  2  6  2       21 0.858013341640D-01 0.100000000000D+01
0.230718286668D-06 0.151956305330D-06 -.581291590417D-08 0.198103208864D-05 0.000000000000D+00  6 2 21 25 24 1 21 4 0.10134075D+00 0.43559622D-02 0.13942520D+05 0.13942520D+05 0.13942520D+05 0.12514584D+01  1  2  3  2  6  2       21 0.107668630069D-01 0.100000000000D+01
0.269715866255D-06 0.000000000000D+00 0.000000000000D+00 0.198103208864D-05 0.000000000000D+00  6 2 21 25 24 1 21 4 0.10134075D+00 0.43559622D-02 0.13942520D+05 0.13942520D+05 0.13942520D+05 0.12514584D+01  1  2 15  2  6  2       21 0.125867516819D-01 0.100000000000D+01
-.597239387074D-06 0.000000000000D+00 0.000000000000D+00 0.198103208864D-05 0.000000000000D+00  6 2 21 25 24 1 21 4 0.10134075D+00 0.43559622D-02 0.13942520D+05 0.13942520D+05 0.13942520D+05 0.12514584D+01  1  2  4  2  6  2       21 -.278711963227D-01 0.100000000000D+01
-.168090772084D-04 0.000000000000D+00 -.378064581842D-05 0.198103208864D-05 0.000000000000D+00  6 2 21 25 24 1 21 4 0.10134075D+00 0.60016527D-02 0.13942520D+05 0.13942520D+05 0.13942520D+05 0.12514584D+01  1  2  5  2  6  2       21 -.458153910129D+00 0.100000000000D+01
0.145602718293D-04 0.000000000000D+00 0.310417406024D-05 0.198103208864D-05 0.000000000000D+00  6 2 21 25 24 1 21 4 0.10134075D+00 0.43559622D-02 0.13942520D+05 0.13942520D+05 0.13942520D+05 0.12514584D+01  1  2  6  2  6  2       21 0.679479959711D+00 0.100000000000D+01
-.162575921232D-05 0.000000000000D+00 -.386072788598D-06 0.198103208864D-05 0.000000000000D+00  6 2 -1 25 24 1 -1 4 0.10134075D+00 0.60016527D-02 0.13942520D+05 0.13942520D+05 0.13942520D+05 0.12514584D+01  1  2  5  5  6  2       21 -.261887619453D-02 0.100000000000D+01
-.162575921232D-05 0.000000000000D+00 -.386072788598D-06 0.198103208864D-05 0.000000000000D+00  6 2 1 25 24 1 1 4 0.10134075D+00 0.60016527D-02 0.13942520D+05 0.13942520D+05 0.13942520D+05 0.12514584D+01  1  2  5  6  6  2       21 -.301994612796D-02 0.100000000000D+01
-.162575921232D-05 0.000000000000D+00 -.386072788598D-06 0.198103208864D-05 0.000000000000D+00  6 2 -2 25 24 1 -2 4 0.10134075D+00 0.60016527D-02 0.13942520D+05 0.13942520D+05 0.13942520D+05 0.12514584D+01  1  2  5  7  6  2       21 -.254843713681D-02 0.100000000000D+01
-.162575921232D-05 0.000000000000D+00 -.386072788598D-06 0.198103208864D-05 0.000000000000D+00  6 2 2 25 24 1 2 4 0.10134075D+00 0.60016527D-02 0.13942520D+05 0.13942520D+05 0.13942520D+05 0.12514584D+01  1  2  5  8  6  2       21 -.328855811966D-02 0.100000000000D+01
-.162575921232D-05 0.000000000000D+00 -.386072788598D-06 0.198103208864D-05 0.000000000000D+00  6 2 -3 25 24 1 -3 4 0.10134075D+00 0.60016527D-02 0.13942520D+05 0.13942520D+05 0.13942520D+05 0.12514584D+01  1  2  5  9  6  2       21 -.181329249154D-02 0.100000000000D+01
-.162575921232D-05 0.000000000000D+00 -.386072788598D-06 0.198103208864D-05 0.000000000000D+00  6 2 -4 25 24 1 -4 4 0.10134075D+00 0.60016527D-02 0.13942520D+05 0.13942520D+05 0.13942520D+05 0.12514584D+01  1  2  5  9  6  2       21 -.160214636837D-02 0.100000000000D+01
-.162575921232D-05 0.000000000000D+00 -.386072788598D-06 0.198103208864D-05 0.000000000000D+00  6 2 3 25 24 1 3 4 0.10134075D+00 0.60016527D-02 0.13942520D+05 0.13942520D+05 0.13942520D+05 0.12514584D+01  1  2  5 10  6  2       21 -.181309108950D-02 0.100000000000D+01
-.162575921232D-05 0.000000000000D+00 -.386072788598D-06 0.198103208864D-05 0.000000000000D+00  6 2 4 25 24 1 4 4 0.10134075D+00 0.60016527D-02 0.13942520D+05 0.13942520D+05 0.13942520D+05 0.12514584D+01  1  2  5 10  6  2       21 -.160214636837D-02 0.100000000000D+01
  </mgrwgt>
  </event>
  <event>
  5     66 0.45638357E-03 0.25284401E+02 0.75467711E-02 0.12232251E+00
        4 -1    0    0  502    0 0.00000000E+00 0.00000000E+00 0.82393210E+03 0.82393356E+03 0.15500000E+01 0.0000E+00 0.9000E+01
       21 -1    0    0  501  502 0.00000000E+00 0.00000000E+00 -.39635075E+02 0.39642170E+02 0.75000000E+00 0.0000E+00 0.9000E+01
       25  1    1    2    0    0 -.30444770E+02 0.83487191E+01 0.55533898E+03 0.57010785E+03 0.12500000E+03 0.0000E+00 0.9000E+01
       24  1    1    2    0    0 0.46072297E+02 0.11527701E+02 0.24589271E+03 0.26303229E+03 0.80419002E+02 0.0000E+00 0.9000E+01
        3  1    1    2  501    0 -.15627527E+02 -.19876420E+02 -.16934666E+02 0.30435581E+02 0.50000000E+00 0.0000E+00 0.9000E+01
#aMCatNLO 1  0  0  2  1 0.21672458D+02 0.00000000D+00  -5  6  0 0.00000000D+00 0.00000000D+00 0.00000000D+00 0.00000000D+00 0.00000000D+00
  <mgrwgt>
 0.3583584526D-01   23    2    0
 0.180721618716128D+03 0.000000000000000D+00 0.000000000000000D+00 0.180721618716128D+03
 0.180721618716128D+03 0.000000000000000D+00 0.000000000000000D+00 -.180721618716128D+03
 0.157094358088159D+03 -.304446994661202D+02 0.834880923315490D+01 0.897610996029827D+02
 0.948846312140442D+02 0.460723399200140D+02 0.115277549707813D+02 0.167429879616198D+02
 0.109464248130053D+03 -.156276404538938D+02 -.198765642039362D+02 -.106504087564602D+03
 0.000000000000000D+00 -.000000000000000D+00 -.000000000000000D+00 -.000000000000000D+00
 0.182279519081753D+03 0.000000000000000D+00 0.000000000000000D+00 0.182279519081753D+03
 0.276256009082510D+03 0.000000000000000D+00 0.000000000000000D+00 -.276256009082510D+03
 0.157608294440613D+03 -.290836869814987D+02 0.176764992604438D+02 0.897610996029827D+02
 0.961378810464611D+02 0.468984658580741D+02 0.171896036024419D+02 0.167429879616198D+02
 0.108346228923704D+03 -.146856630788399D+02 -.134207285180021D+02 -.106504087564602D+03
 0.964431237534854D+02 -.312911579773550D+01 -.214453743448836D+02 -.939764900007564D+02
0.274298648701D-05 0.000000000000D+00 0.000000000000D+00 0.551615579213D-05 0.000000000000D+00  6 4 21 25 24 3 21 2 0.12675944D+00 0.60983618D-02 0.15327042D+05 0.15327042D+05 0.15327042D+05 0.12467561D+01  1  2  2  2  6  2       21 0.162432546634D-02 0.100000000000D+01
0.491947925600D-06 0.144751373739D-06 -.553729942783D-08 0.551615579213D-05 0.000000000000D+00  6 4 21 25 24 3 21 4 0.12675944D+00 0.60983618D-02 0.15327042D+05 0.15327042D+05 0.15327042D+05 0.12467561D+01  1  2  3  2  6  2       21 0.452826165598D-03 0.100000000000D+01
0.211301692132D-06 0.000000000000D+00 0.000000000000D+00 0.551615579213D-05 0.000000000000D+00  6 4 21 25 24 3 21 4 0.12675944D+00 0.60983618D-02 0.15327042D+05 0.15327042D+05 0.15327042D+05 0.12467561D+01  1  2 15  2  6  2       21 0.194498096350D-03 0.100000000000D+01
0.394103960510D-04 0.000000000000D+00 0.000000000000D+00 0.545493752236D-05 0.000000000000D+00  6 4 21 25 24 3 21 4 0.12675944D+00 0.93371106D-02 0.17660544D+05 0.17660544D+05 0.17660544D+05 0.12398185D+01  1  2 12  2  6  2       21 0.171386051468D-01 0.100000000000D+01
-.558204546710D-05 0.000000000000D+00 0.000000000000D+00 0.551615579213D-05 0.000000000000D+00  6 4 21 25 24 3 21 4 0.12675944D+00 0.60983618D-02 0.15327042D+05 0.15327042D+05 0.15327042D+05 0.12467561D+01  1  2  4  2  6  2       21 -.513813782623D-02 0.100000000000D+01
-.780177210708D-04 0.000000000000D+00 -.326662350948D-05 0.551615579213D-05 0.000000000000D+00  6 4 21 25 24 3 21 4 0.12675944D+00 0.93802952D-02 0.15327042D+05 0.15327042D+05 0.15327042D+05 0.12467561D+01  1  2  5  2  6  2       21 -.342865665147D-01 0.100000000000D+01
0.615811303035D-04 0.000000000000D+00 0.231341410129D-05 0.551615579213D-05 0.000000000000D+00  6 4 21 25 24 3 21 4 0.12675944D+00 0.60983618D-02 0.15327042D+05 0.15327042D+05 0.15327042D+05 0.12467561D+01  1  2  6  2  6  2       21 0.566839408348D-01 0.100000000000D+01
0.490026275557D-05 0.000000000000D+00 0.000000000000D+00 0.545493752236D-05 0.000000000000D+00  6 4 -3 25 24 3 -3 4 0.12675944D+00 0.93371106D-02 0.17660544D+05 0.17660544D+05 0.17660544D+05 0.12398185D+01  1  2 12  5  6  2       21 0.919760373276D-04 0.100000000000D+01
-.898233133058D-05 0.000000000000D+00 -.477653918931D-06 0.551615579213D-05 0.000000000000D+00  6 4 -3 25 24 3 -3 4 0.12675944D+00 0.93802952D-02 0.15327042D+05 0.15327042D+05 0.15327042D+05 0.12467561D+01  1  2  5  5  6  2       21 -.169489449425D-03 0.100000000000D+01
0.490026275557D-05 0.000000000000D+00 0.000000000000D+00 0.545493752236D-05 0.000000000000D+00  6 4 3 25 24 3 3 4 0.12675944D+00 0.93371106D-02 0.17660544D+05 0.17660544D+05 0.17660544D+05 0.12398185D+01  1  2 12  6  6  2       21 0.919644042075D-04 0.100000000000D+01
-.898233133058D-05 0.000000000000D+00 -.477653918931D-06 0.551615579213D-05 0.000000000000D+00  6 4 3 25 24 3 3 4 0.12675944D+00 0.93802952D-02 0.15327042D+05 0.15327042D+05 0.15327042D+05 0.12467561D+01  1  2  5  6  6  2       21 -.169467692658D-03 0.100000000000D+01
0.490026275557D-05 0.000000000000D+00 0.000000000000D+00 0.545493752236D-05 0.000000000000D+00  6 4 -4 25 24 3 -4 4 0.12675944D+00 0.93371106D-02 0.17660544D+05 0.17660544D+05 0.17660544D+05 0.12398185D+01  1  2 12  7  6  2       21 0.804119351686D-04 0.100000000000D+01
-.898233133058D-05 0.000000000000D+00 -.477653918931D-06 0.551615579213D-05 0.000000000000D+00  6 4 -4 25 24 3 -4 4 0.12675944D+00 0.93802952D-02 0.15327042D+05 0.15327042D+05 0.15327042D+05 0.12467561D+01  1  2  5  7  6  2       21 -.147926467131D-03 0.100000000000D+01
0.490026275557D-05 0.000000000000D+00 0.000000000000D+00 0.545493752236D-05 0.000000000000D+00  6 4 4 25 24 3 4 4 0.12675944D+00 0.93371106D-02 0.17660544D+05 0.17660544D+05 0.17660544D+05 0.12398185D+01  1  2 12  8  6  2       21 0.804119351686D-04 0.100000000000D+01
-.898233133058D-05 0.000000000000D+00 -.477653918931D-06 0.551615579213D-05 0.000000000000D+00  6 4 4 25 24 3 4 4 0.12675944D+00 0.93802952D-02 0.15327042D+05 0.15327042D+05 0.15327042D+05 0.12467561D+01  1  2  5  8  6  2       21 -.147926467131D-03 0.100000000000D+01
0.490026275557D-05 0.000000000000D+00 0.000000000000D+00 0.545493752236D-05 0.000000000000D+00  6 4 -1 25 24 3 -1 4 0.12675944D+00 0.93371106D-02 0.17660544D+05 0.17660544D+05 0.17660544D+05 0.12398185D+01  1  2 12  9  6  2       21 0.139021850212D-03 0.100000000000D+01
0.490026275557D-05 0.000000000000D+00 0.000000000000D+00 0.545493752236D-05 0.000000000000D+00  6 4 -2 25 24 3 -2 4 0.12675944D+00 0.93371106D-02 0.17660544D+05 0.17660544D+05 0.17660544D+05 0.12398185D+01  1  2 12  9  6  2       21 0.133293695130D-03 0.100000000000D+01
-.898233133058D-05 0.000000000000D+00 -.477653918931D-06 0.551615579213D-05 0.000000000000D+00  6 4 -1 25 24 3 -1 4 0.12675944D+00 0.93802952D-02 0.15327042D+05 0.15327042D+05 0.15327042D+05 0.12467561D+01  1  2  5  9  6  2       21 -.257216373494D-03 0.100000000000D+01
-.898233133058D-05 0.000000000000D+00 -.477653918931D-06 0.551615579213D-05 0.000000000000D+00  6 4 -2 25 24 3 -2 4 0.12675944D+00 0.93802952D-02 0.15327042D+05 0.15327042D+05 0.15327042D+05 0.12467561D+01  1  2  5  9  6  2       21 -.246550907153D-03 0.100000000000D+01
0.490026275557D-05 0.000000000000D+00 0.000000000000D+00 0.545493752236D-05 0.000000000000D+00  6 4 1 25 24 3 1 4 0.12675944D+00 0.93371106D-02 0.17660544D+05 0.17660544D+05 0.17660544D+05 0.12398185D+01  1  2 12 10  6  2       21 0.171941075612D-03 0.100000000000D+01
0.490026275557D-05 0.000000000000D+00 0.000000000000D+00 0.545493752236D-05 0.000000000000D+00  6 4 2 25 24 3 2 4 0.12675944D+00 0.93371106D-02 0.17660544D+05 0.17660544D+05 0.17660544D+05 0.12398185D+01  1  2 12 10  6  2       21 0.194135725842D-03 0.100000000000D+01
-.898233133058D-05 0.000000000000D+00 -.477653918931D-06 0.551615579213D-05 0.000000000000D+00  6 4 1 25 24 3 1 4 0.12675944D+00 0.93802952D-02 0.15327042D+05 0.15327042D+05 0.15327042D+05 0.12467561D+01  1  2  5 10  6  2       21 -.318477748764D-03 0.100000000000D+01
-.898233133058D-05 0.000000000000D+00 -.477653918931D-06 0.551615579213D-05 0.000000000000D+00  6 4 2 25 24 3 2 4 0.12675944D+00 0.93802952D-02 0.15327042D+05 0.15327042D+05 0.15327042D+05 0.12467561D+01  1  2  5 10  6  2       21 -.359747665688D-03 0.100000000000D+01
  </mgrwgt>
  </event>
  <event>
  5     66 0.45638357E-03 0.36196200E+02 0.75467711E-02 0.11895319E+00
        2 -1    0    0  502    0 0.00000000E+00 0.00000000E+00 0.60562360E+03 0.60562368E+03 0.32000000E+00 0.0000E+00 0.9000E+01
       21 -1    0    0  501  502 0.00000000E+00 0.00000000E+00 -.60753602E+02 0.60758231E+02 0.75000000E+00 0.0000E+00 0.9000E+01
       25  1    1    2    0    0 0.58677163E+02 0.17893045E+02 0.37854510E+03 0.40334174E+03 0.12500000E+03 0.0000E+00 0.9000E+01
       24  1    1    2    0    0 -.85126036E+02 0.68175338E+01 0.18745082E+03 0.22112880E+03 0.80419002E+02 0.0000E+00 0.9000E+01
        1  1    1    2  501    0 0.26448873E+02 -.24710579E+02 -.21125924E+02 0.41911367E+02 0.32000000E+00 0.0000E+00 0.9000E+01
#aMCatNLO 1  0  0  1  2 0.21284209D+02 0.00000000D+00  -5  6  0 0.00000000D+00 0.00000000D+00 0.00000000D+00 0.00000000D+00 0.00000000D+00
  <mgrwgt>
 0.1860066096D+00    9    2    0
 0.191821232533891D+03 0.000000000000000D+00 0.000000000000000D+00 0.191821232533891D+03
 0.191821232533891D+03 0.000000000000000D+00 0.000000000000000D+00 -.191821232533891D+03
 0.162968951203795D+03 0.586771081900354D+02 0.178930960064007D+02 0.846800634519464D+02
 0.117869962401643D+03 -.851260750717851D+02 0.681757062239865D+01 0.115405440025865D+02
 0.102803551462344D+03 0.264489668817497D+02 -.247106666287993D+02 -.962206074545328D+02
 0.000000000000000D+00 -.000000000000000D+00 0.000000000000000D+00 0.000000000000000D+00
 0.210253595462035D+03 0.000000000000000D+00 0.000000000000000D+00 0.210253595462035D+03
 0.198360466198011D+03 0.000000000000000D+00 0.000000000000000D+00 -.198360466198011D+03
 0.165642515874833D+03 0.667455217594769D+02 0.136662081124886D+02 0.846800634519464D+02
 0.113692276454742D+03 -.794405159926429D+02 0.383901472229361D+01 0.115405440025865D+02
 0.104897635441299D+03 0.315486643746601D+02 -.273823008242795D+02 -.962206074545328D+02
 0.243816338891727D+02 -.188536701414941D+02 0.987707798949724D+01 0.118931292640238D+02
0.367328817072D-05 0.000000000000D+00 0.000000000000D+00 0.168952691878D-05 0.000000000000D+00  6 2 21 25 24 1 21 2 0.93173223D-01 0.93470705D-02 0.21424358D+05 0.21424358D+05 0.21424358D+05 0.12305503D+01  1  2  2  1  6  1        2 0.319056969735D-01 0.100000000000D+01
0.376442089056D-06 0.193844742352D-06 -.741531049544D-08 0.168952691878D-05 0.000000000000D+00  6 2 21 25 24 1 21 4 0.93173223D-01 0.93470705D-02 0.21424358D+05 0.21424358D+05 0.21424358D+05 0.12305503D+01  1  2  3  1  6  1        2 0.495119604310D-02 0.100000000000D+01
0.329390114940D-06 0.000000000000D+00 0.000000000000D+00 0.168952691878D-05 0.000000000000D+00  6 2 21 25 24 1 21 4 0.93173223D-01 0.93470705D-02 0.21424358D+05 0.21424358D+05 0.21424358D+05 0.12305503D+01  1  2 15  1  6  1        2 0.433233977054D-02 0.100000000000D+01
0.262709535196D-04 0.000000000000D+00 0.000000000000D+00 0.166783219842D-05 0.000000000000D+00  6 2 21 25 24 1 21 4 0.10360554D+00 0.93470705D-02 0.25364545D+05 0.25364545D+05 0.25364545D+05 0.12226242D+01  1  2 12  1  6  1        2 0.297740063825D+00 0.100000000000D+01
-.197036339142D-04 0.000000000000D+00 0.000000000000D+00 0.168952691878D-05 0.000000000000D+00  6 2 21 25 24 1 21 4 0.93173223D-01 0.93470705D-02 0.21424358D+05 0.21424358D+05 0.21424358D+05 0.12305503D+01  1  2  4  1  6  1        2 -.259154215500D+00 0.100000000000D+01
-.615146606751D-04 0.000000000000D+00 -.124466809809D-04 0.168952691878D-05 0.000000000000D+00  6 2 21 25 24 1 21 4 0.10459976D+00 0.93470705D-02 0.21424358D+05 0.21424358D+05 0.21424358D+05 0.12305503D+01  1  2  5  1  6  1        2 -.707359414649D+00 0.100000000000D+01
0.626178772388D-04 0.000000000000D+00 0.123638616834D-04 0.168952691878D-05 0.000000000000D+00  6 2 21 25 24 1 21 4 0.93173223D-01 0.93470705D-02 0.21424358D+05 0.21424358D+05 0.21424358D+05 0.12305503D+01  1  2  6  1  6  1        2 0.823588528023D+00 0.100000000000D+01
0.449109776694D-06 0.000000000000D+00 0.000000000000D+00 0.166783219842D-05 0.000000000000D+00  6 21 21 25 24 1 -2 4 0.10360554D+00 0.93470705D-02 0.25364545D+05 0.25364545D+05 0.25364545D+05 0.12226242D+01  1  2 12  4  6  1        2 0.703171478388D-02 0.100000000000D+01
-.107783370054D-05 0.000000000000D+00 -.228972277801D-06 0.168952691878D-05 0.000000000000D+00  6 21 21 25 24 1 -2 4 0.10459976D+00 0.93470705D-02 0.21424358D+05 0.21424358D+05 0.21424358D+05 0.12305503D+01  1  2  5  4  6  1        2 -.170292996210D-01 0.100000000000D+01
  </mgrwgt>
  </event>
  <event>
  5     66 0.45638357E-03 0.22211645E+02 0.75467711E-02 0.11066978E+00
        2 -1    0    0  502    0 0.00000000E+00 0.00000000E+00 0.19945320E+03 0.19945346E+03 0.32000000E+00 0.0000E+00 0.9000E+01
       21 -1    0    0  501  502 0.00000000E+00 0.00000000E+00 -.92324525E+02 0.92327571E+02 0.75000000E+00 0.0000E+00 0.9000E+01
       25  1    1    2    0    0 0.47433887E+02 -.27101662E+02 0.57959673E+02 0.14821875E+03 0.12500000E+03 0.0000E+00 0.9000E+01
       24  1    1    2    0    0 -.25737746E+02 0.31856417E+02 0.69143107E+02 0.11368926E+03 0.80419002E+02 0.0000E+00 0.9000E+01
        1  1    1    2  501    0 -.21696141E+02 -.47547553E+01 -.19974102E+02 0.29873021E+02 0.32000000E+00 0.0000E+00 0.9000E+01
#aMCatNLO 1  0  0  2  1 0.79636574D+01 0.00000000D+00  -5  6  0 0.00000000D+00 0.00000000D+00 0.00000000D+00 0.00000000D+00 0.00000000D+00
  <mgrwgt>
 0.3555719139D+00    3    2    0
 0.135701525937213D+03 0.000000000000000D+00 0.000000000000000D+00 0.135701525937213D+03
 0.135701525937213D+03 0.000000000000000D+00 0.000000000000000D+00 -.135701525937213D+03
 0.136469758884649D+03 0.474342363812981D+02 -.271015856497433D+02 0.380688379476774D+01
 0.949332676928786D+02 -.257375032268779D+02 0.318564707139591D+02 0.294593883469146D+02
 0.400000252968982D+02 -.216967331544202D+02 -.475488506421580D+01 -.332662721416824D+02
 0.000000000000000D+00 0.000000000000000D+00 0.000000000000000D+00 0.000000000000000D+00
 0.418843891477923D+03 0.000000000000000D+00 0.000000000000000D+00 0.418843891477923D+03
 0.208528883544740D+03 0.000000000000000D+00 0.000000000000000D+00 -.208528883544740D+03
 0.184074799725128D+03 0.317647316096379D+02 -.131282296427915D+03 0.380688379476774D+01
 0.975327274089830D+02 -.351460136745701D+02 -.306972168522987D+02 0.294593883469146D+02
 0.555315946816013D+02 -.263667022270192D+02 -.358037729764459D+02 -.332662721416824D+02
 0.290233653206951D+03 0.297479842919513D+02 0.197783286256659D+03 0.210315007933183D+03
0.194062051998D-04 0.000000000000D+00 0.000000000000D+00 0.213227509546D-05 0.000000000000D+00  6 2 21 25 24 1 21 2 0.30685362D-01 0.14204027D-01 0.15484693D+05 0.15484693D+05 0.15484693D+05 0.12462511D+01  1  2  2  2  6  2       21 0.272055243318D+00 0.100000000000D+01
0.176668739741D-05 0.102409358378D-05 -.391755371228D-07 0.213227509546D-05 0.000000000000D+00  6 2 21 25 24 1 21 4 0.30685362D-01 0.14204027D-01 0.15484693D+05 0.15484693D+05 0.15484693D+05 0.12462511D+01  1  2  3  2  6  2       21 0.384669097130D-01 0.100000000000D+01
0.206902102115D-05 0.000000000000D+00 0.000000000000D+00 0.213227509546D-05 0.000000000000D+00  6 2 21 25 24 1 21 4 0.30685362D-01 0.14204027D-01 0.15484693D+05 0.15484693D+05 0.15484693D+05 0.12462511D+01  1  2 15  2  6  2       21 0.450497608867D-01 0.100000000000D+01
  </mgrwgt>
  </event>
  <event>
  6     66 0.45638357E-03 0.23997616E+02 0.75467711E-02 0.12363586E+00
        2 -1    0    0  502    0 0.00000000E+00 0.00000000E+00 0.10156549E+04 0.10156549E+04 0.32000000E+00 0.0000E+00 0.9000E+01
       21 -1    0    0  501  502 0.00000000E+00 0.00000000E+00 -.17941675E+02 0.17957344E+02 0.75000000E+00 0.0000E+00 0.9000E+01
       25  1    1    2    0    0 0.79703441E+01 -.20451985E+02 0.42037258E+03 0.43911264E+03 0.12500000E+03 0.0000E+00 0.9000E+01
       24  1    1    2    0    0 0.82158903E+01 0.46114325E+01 0.45816275E+03 0.46526239E+03 0.80419002E+02 0.0000E+00 0.9000E+01
        1  1    1    2  503    0 -.26598728E+02 0.12986073E+02 0.42460765E+02 0.51760500E+02 0.32000000E+00 0.0000E+00 0.9000E+01
       21  1    1    2  501  503 0.10412493E+02 0.28544796E+01 0.76717111E+02 0.77476743E+02 0.75000000E+00 0.0000E+00 0.9000E+01
#aMCatNLO 2  0  0  5  5 0.96824413D+01 0.00000000D+00  -5  6  0 0.00000000D+00 0.00000000D+00 0.00000000D+00 0.00000000D+00 0.00000000D+00
  <mgrwgt>
 0.8992568369D+00    2    2    0
 0.135021010829584D+03 0.000000000000000D+00 0.000000000000000D+00 0.135021010829584D+03
 0.135021010829584D+03 -.000000000000000D+00 -.000000000000000D+00 -.135021010829584D+03
 0.128617775105120D+03 0.139658930687316D+02 -.263194900988389D+02 -.545622073609299D+01
 0.907548395067147D+02 0.124004965582114D+02 0.516194954957071D+00 0.401893787883972D+02
 0.506694070473337D+02 -.263663896269431D+02 0.258032951438818D+02 -.347331580523043D+02
 0.000000000000000D+00 0.000000000000000D+00 0.000000000000000D+00 0.000000000000000D+00
 0.135021010829584D+03 0.000000000000000D+00 0.000000000000000D+00 0.135021010829584D+03
 0.135021010829584D+03 -.000000000000000D+00 -.000000000000000D+00 -.135021010829584D+03
 0.127605801483612D+03 0.787704032272104D+01 -.203606740942237D+02 -.134772311124352D+02
 0.880461476433651D+02 0.815150083310038D+01 0.467444689279900D+01 0.345920618188779D+02
 0.410851914525185D+02 -.266192187701745D+02 0.127102929733153D+02 -.285982272403060D+02
 0.133048810796725D+02 0.105906776143530D+02 0.297593422810945D+01 0.748339653386326D+01
-.284582122947D-08 0.000000000000D+00 0.000000000000D+00 0.104636084850D-05 0.000000000000D+00  6 2 21 25 24 1 21 4 0.15625581D+00 0.27614668D-02 0.15223213D+05 0.15223213D+05 0.15223213D+05 0.12470919D+01  1  2  8  3  6  5        1 -.161425929585D-03 0.100000000000D+01
0.158851172266D-04 0.000000000000D+00 0.000000000000D+00 0.104636084850D-05 0.962744513854D-07  6 2 21 25 24 1 21 4 0.15625581D+00 0.27614668D-02 0.15420314D+05 0.15420314D+05 0.15420314D+05 0.12464566D+01  1  2  1  3  6  5        1 0.899418262780D+00 0.100000000000D+01
  </mgrwgt>
  </event>
  <event>
  5     66 -.45638357E-03 0.39651435E+02 0.75467711E-02 0.11094567E+00
        2 -1    0    0  502    0 0.00000000E+00 0.00000000E+00 0.20760802E+04 0.20760802E+04 0.32000000E+00 0.0000E+00 0.9000E+01
       21 -1    0    0  501  502 0.00000000E+00 0.00000000E+00 -.18435877E+02 0.18451126E+02 0.75000000E+00 0.0000E+00 0.9000E+01
       25  1    1    2    0    0 0.33895961E+02 -.10125635E+03 0.60497174E+03 0.62691115E+03 0.12500000E+03 0.0000E+00 0.9000E+01
       24  1    1    2    0    0 -.12302376E+02 0.13451106E+03 0.13146373E+04 0.13240027E+04 0.80419002E+02 0.0000E+00 0.9000E+01
        1  1    1    2  501    0 -.21593585E+02 -.33254706E+02 0.13803526E+03 0.14361753E+03 0.32000000E+00 0.0000E+00 0.9000E+01
#aMCatNLO 1  0  0  2  1 0.42911055D+01 0.00000000D+00  -5  6  0 0.00000000D+00 0.00000000D+00 0.00000000D+00 0.00000000D+00 0.00000000D+00
  <mgrwgt>
 -.3846428253D+00   12    2    0
 0.195679214682658D+03 0.000000000000000D+00 0.000000000000000D+00 0.195679214682658D+03
 0.195679214682658D+03 0.000000000000000D+00 0.000000000000000D+00 -.195679214682658D+03
 0.174439308922282D+03 0.338962289234051D+02 -.101255939533399D+03 -.583296911637987D+02
 0.174032883048117D+03 -.123021086202167D+02 0.134511469917945D+03 0.746696123712935D+02
 0.428862373949170D+02 -.215941203031884D+02 -.332555303845460D+02 -.163399212074948D+02
 0.000000000000000D+00 0.000000000000000D+00 -.000000000000000D+00 -.000000000000000D+00
 0.210341000096227D+03 0.000000000000000D+00 0.000000000000000D+00 0.210341000096227D+03
 0.114978761365891D+04 0.000000000000000D+00 0.000000000000000D+00 -.114978761365891D+04
 0.165363318828657D+03 -.191207949879720D+02 -.891743771595405D+02 -.583296911637987D+02
 0.196936243001054D+03 -.701818229599985D+02 0.147701146127347D+03 0.746696123712935D+02
 0.496288819674782D+02 -.360286063690086D+02 -.299661880021764D+02 -.163399212074948D+02
 0.948200169957945D+03 0.125331224316979D+03 -.285605809656297D+02 -.939446613562681D+03
0.314473575632D-05 0.000000000000D+00 0.000000000000D+00 0.278692548845D-06 0.000000000000D+00  6 2 21 25 24 1 21 2 0.31939813D+00 0.28374637D-02 0.32625329D+05 0.32625329D+05 0.32625329D+05 0.12110931D+01  1  2  2  2  6  2       21 0.282228878712D-01 0.100000000000D+01
0.796710876219D-07 0.165952265142D-06 -.634831545348D-08 0.278692548845D-06 0.000000000000D+00  6 2 21 25 24 1 21 4 0.31939813D+00 0.28374637D-02 0.32625329D+05 0.32625329D+05 0.32625329D+05 0.12110931D+01  1  2  3  2  6  2       21 0.104875262817D-02 0.100000000000D+01
0.341198545311D-06 0.000000000000D+00 0.000000000000D+00 0.278692548845D-06 0.000000000000D+00  6 2 21 25 24 1 21 4 0.31939813D+00 0.28374637D-02 0.32625329D+05 0.32625329D+05 0.32625329D+05 0.12110931D+01  1  2 15  2  6  2       21 0.449137675665D-02 0.100000000000D+01
-.624057587192D-03 0.000000000000D+00 -.331657543712D-04 0.278692548845D-06 0.000000000000D+00  6 2 21 25 24 1 21 4 0.31939813D+00 0.17925853D-01 0.32625329D+05 0.32625329D+05 0.32625329D+05 0.12110931D+01  1  2  5  2  6  2       21 -.336596366335D+00 0.100000000000D+01
-.265838821218D-03 0.000000000000D+00 -.141073516114D-04 0.278692548845D-06 0.000000000000D+00  6 2 -1 25 24 1 -1 4 0.31939813D+00 0.17925853D-01 0.32625329D+05 0.32625329D+05 0.32625329D+05 0.12110931D+01  1  2  5  5  6  2       21 -.110186655493D-01 0.100000000000D+01
-.265838821218D-03 0.000000000000D+00 -.141073516114D-04 0.278692548845D-06 0.000000000000D+00  6 2 1 25 24 1 1 4 0.31939813D+00 0.17925853D-01 0.32625329D+05 0.32625329D+05 0.32625329D+05 0.12110931D+01  1  2  5  6  6  2       21 -.159919519549D-01 0.100000000000D+01
-.265838821218D-03 0.000000000000D+00 -.141073516114D-04 0.278692548845D-06 0.000000000000D+00  6 2 -2 25 24 1 -2 4 0.31939813D+00 0.17925853D-01 0.32625329D+05 0.32625329D+05 0.32625329D+05 0.12110931D+01  1  2  5  7  6  2       21 -.101726865967D-01 0.100000000000D+01
-.265838821218D-03 0.000000000000D+00 -.141073516114D-04 0.278692548845D-06 0.000000000000D+00  6 2 2 25 24 1 2 4 0.31939813D+00 0.17925853D-01 0.32625329D+05 0.32625329D+05 0.32625329D+05 0.12110931D+01  1  2  5  8  6  2       21 -.194695496597D-01 0.100000000000D+01
-.265838821218D-03 0.000000000000D+00 -.141073516114D-04 0.278692548845D-06 0.000000000000D+00  6 2 -3 25 24 1 -3 4 0.31939813D+00 0.17925853D-01 0.32625329D+05 0.32625329D+05 0.32625329D+05 0.12110931D+01  1  2  5  9  6  2       21 -.676166425166D-02 0.100000000000D+01
-.265838821218D-03 0.000000000000D+00 -.141073516114D-04 0.278692548845D-06 0.000000000000D+00  6 2 -4 25 24 1 -4 4 0.31939813D+00 0.17925853D-01 0.32625329D+05 0.32625329D+05 0.32625329D+05 0.12110931D+01  1  2  5  9  6  2       21 -.581698582667D-02 0.100000000000D+01
-.265838821218D-03 0.000000000000D+00 -.141073516114D-04 0.278692548845D-06 0.000000000000D+00  6 2 3 25 24 1 3 4 0.31939813D+00 0.17925853D-01 0.32625329D+05 0.32625329D+05 0.32625329D+05 0.12110931D+01  1  2  5 10  6  2       21 -.676098651912D-02 0.100000000000D+01
-.265838821218D-03 0.000000000000D+00 -.141073516114D-04 0.278692548845D-06 0.000000000000D+00  6 2 4 25 24 1 4 4 0.31939813D+00 0.17925853D-01 0.32625329D+05 0.32625329D+05 0.32625329D+05 0.12110931D+01  1  2  5 10  6  2       21 -.581698582667D-02 0.100000000000D+01
  </mgrwgt>
  </event>
  <event>
  5     66 0.45638357E-03 0.65677082E+02 0.75467711E-02 0.10861557E+00
        2 -1    0    0  502    0 0.00000000E+00 0.00000000E+00 0.65003276E+03 0.65003284E+03 0.32000000E+00 0.0000E+00 0.9000E+01
       21 -1    0    0  501  502 0.00000000E+00 0.00000000E+00 -.24017443E+03 0.24017560E+03 0.75000000E+00 0.0000E+00 0.9000E+01
       25  1    1    2    0    0 -.24327688E+03 -.37335831E+02 0.16054783E+03 0.31934027E+03 0.12500000E+03 0.0000E+00 0.9000E+01
       24  1    1    2    0    0 0.21917370E+03 0.98430087E+02 0.36115588E+03 0.44116480E+03 0.80419002E+02 0.0000E+00 0.9000E+01
        1  1    1    2  501    0 0.24103178E+02 -.61094256E+02 -.11184539E+03 0.12970337E+03 0.32000000E+00 0.0000E+00 0.9000E+01
#aMCatNLO 1  0  0  5  5 0.12006224D+01 0.00000000D+00  -5  6  0 0.00000000D+00 0.00000000D+00 0.00000000D+00 0.00000000D+00 0.00000000D+00
  <mgrwgt>
 0.1343750860D+00    5    2    0
 0.395122516901827D+03 0.000000000000000D+00 0.000000000000000D+00 0.395122516901827D+03
 0.395122516901827D+03 -.000000000000000D+00 -.000000000000000D+00 -.395122516901827D+03
 0.276468103030693D+03 -.243276885376869D+03 -.373358047782418D+02 0.152317666828381D+02
 0.309658287174271D+03 0.219173685895910D+03 0.984301162997298D+02 0.178032150122822D+03
 0.204118643598690D+03 0.241031994809590D+02 -.610943115214881D+02 -.193263916805661D+03
 0.000000000000000D+00 -.000000000000000D+00 0.000000000000000D+00 0.000000000000000D+00
 0.395122516901827D+03 0.000000000000000D+00 0.000000000000000D+00 0.395122516901827D+03
 0.395122516901827D+03 -.000000000000000D+00 -.000000000000000D+00 -.395122516901827D+03
 0.276304983160859D+03 -.243106541120708D+03 -.377675758823248D+02 0.138659148930321D+02
 0.308764011500296D+03 0.219364260815517D+03 0.979470665902587D+02 0.176504085127256D+03
 0.202945538333682D+03 0.251498542176403D+02 -.605791343111555D+02 -.192053494757295D+03
 0.223050080881705D+01 -.140757391244900D+01 0.399643603221556D+00 0.168349473700710D+01
0.195392666508D-03 0.000000000000D+00 0.000000000000D+00 0.318597682007D-06 0.000000000000D+00  6 2 21 25 24 1 21 2 0.10000514D+00 0.36950008D-01 0.88532513D+05 0.88532513D+05 0.88532513D+05 0.11684624D+01  1  2  2  3  6  5        1 0.105336433225D+00 0.100000000000D+01
0.240464478112D-04 0.103111542946D-04 -.394441498557D-06 0.318597682007D-06 0.000000000000D+00  6 2 21 25 24 1 21 4 0.10000514D+00 0.36950008D-01 0.88532513D+05 0.88532513D+05 0.88532513D+05 0.11684624D+01  1  2  3  3  6  5        1 0.176990833665D-01 0.100000000000D+01
0.165992187715D-04 0.000000000000D+00 0.000000000000D+00 0.318597682007D-06 0.000000000000D+00  6 2 21 25 24 1 21 4 0.10000514D+00 0.36950008D-01 0.88532513D+05 0.88532513D+05 0.88532513D+05 0.11684624D+01  1  2 15  3  6  5        1 0.122176447500D-01 0.100000000000D+01
-.193948150080D-02 0.000000000000D+00 0.000000000000D+00 0.318597682007D-06 0.000000000000D+00  6 2 21 25 24 1 21 4 0.10000514D+00 0.36950008D-01 0.88532513D+05 0.88532513D+05 0.88532513D+05 0.11684624D+01  1  2  4  3  6  5        1 -.142753079541D+01 0.100000000000D+01
0.193974076375D-02 0.000000000000D+00 0.000000000000D+00 0.318597682007D-06 0.109360625043D-05  6 2 21 25 24 1 21 4 0.10000514D+00 0.36950008D-01 0.88909241D+05 0.88909241D+05 0.88909241D+05 0.11682908D+01  1  2 11  3  6  5        1 0.142665272010D+01 0.100000000000D+01
  </mgrwgt>
  </event>
  <event>
  5     66 0.45638357E-03 0.29148495E+02 0.75467711E-02 0.11841732E+00
        2 -1    0    0  502    0 0.00000000E+00 0.00000000E+00 0.27784888E+03 0.27784906E+03 0.32000000E+00 0.0000E+00 0.9000E+01
       21 -1    0    0  501  502 0.00000000E+00 0.00000000E+00 -.22211481E+03 0.22211607E+03 0.75000000E+00 0.0000E+00 0.9000E+01
       25  1    1    2    0    0 -.10223771E+03 -.15648304E+01 0.38079760E+02 0.16592186E+03 0.12500000E+03 0.0000E+00 0.9000E+01
       24  1    1    2    0    0 0.75779381E+02 -.10665845E+02 0.15666512E+03 0.19200898E+03 0.80419002E+02 0.0000E+00 0.9000E+01
        1  1    1    2  501    0 0.26458325E+02 0.12230676E+02 -.13901080E+03 0.14203429E+03 0.32000000E+00 0.0000E+00 0.9000E+01
#aMCatNLO 1  0  0  2  1 0.21436451D+02 0.00000000D+00  -5  6  0 0.00000000D+00 0.00000000D+00 0.00000000D+00 0.00000000D+00 0.00000000D+00
  <mgrwgt>
 0.4332287084D+00   23    2    0
 0.248424459712459D+03 0.000000000000000D+00 0.000000000000000D+00 0.248424459712459D+03
 0.248424459712459D+03 0.000000000000000D+00 0.000000000000000D+00 -.248424459712459D+03
 0.162690942936564D+03 -.102237723240090D+03 -.156483854138426D+01 0.197063984687849D+02
 0.175639410753029D+03 0.757793618833513D+02 -.106658543058750D+02 0.136109200716846D+03
 0.158518565735326D+03 0.264583613567384D+02 0.122306928472593D+02 -.155815599185631D+03
 0.000000000000000D+00 -.000000000000000D+00 -.000000000000000D+00 -.000000000000000D+00
 0.253830503578561D+03 0.000000000000000D+00 0.000000000000000D+00 0.253830503578561D+03
 0.270854957699696D+03 0.000000000000000D+00 0.000000000000000D+00 -.270854957699696D+03
 0.161294445585717D+03 -.998870312226716D+02 0.501368424559050D+01 0.197063984687849D+02
 0.176469620413320D+03 0.783341063815485D+02 -.351628100075627D+01 0.136109200716846D+03
 0.159547074184818D+03 0.287661023452609D+02 0.186890151484962D+02 -.155815599185631D+03
 0.273743210944021D+02 -.721317750413781D+01 -.201864183933305D+02 -.170244541211352D+02
0.296828950009D-04 0.000000000000D+00 0.000000000000D+00 0.360797125016D-05 0.000000000000D+00  6 2 21 25 24 1 21 2 0.42746093D-01 0.34171620D-01 0.22748594D+05 0.22748594D+05 0.22748594D+05 0.12277163D+01  1  2  2  2  6  2       21 0.547762451839D-01 0.100000000000D+01
0.629332321029D-05 0.156640940386D-05 -.599212129856D-07 0.360797125016D-05 0.000000000000D+00  6 2 21 25 24 1 21 4 0.42746093D-01 0.34171620D-01 0.22748594D+05 0.22748594D+05 0.22748594D+05 0.12277163D+01  1  2  3  2  6  2       21 0.175049998996D-01 0.100000000000D+01
0.317072094122D-05 0.000000000000D+00 0.000000000000D+00 0.360797125016D-05 0.000000000000D+00  6 2 21 25 24 1 21 4 0.42746093D-01 0.34171620D-01 0.22748594D+05 0.22748594D+05 0.22748594D+05 0.12277163D+01  1  2 15  2  6  2       21 0.881942145716D-02 0.100000000000D+01
0.119985897926D-03 0.000000000000D+00 0.000000000000D+00 0.356198499532D-05 0.000000000000D+00  6 2 21 25 24 1 21 4 0.42746093D-01 0.37606470D-01 0.26920068D+05 0.26920068D+05 0.26920068D+05 0.12198672D+01  1  2 12  2  6  2       21 0.268407091148D+00 0.100000000000D+01
-.511177550883D-04 0.000000000000D+00 0.000000000000D+00 0.360797125016D-05 0.000000000000D+00  6 2 21 25 24 1 21 4 0.42746093D-01 0.34171620D-01 0.22748594D+05 0.22748594D+05 0.22748594D+05 0.12277163D+01  1  2  4  2  6  2       21 -.142185021774D+00 0.100000000000D+01
-.467290081105D-03 0.000000000000D+00 -.875947033535D-04 0.360797125016D-05 0.000000000000D+00  6 2 21 25 24 1 21 4 0.42746093D-01 0.37939322D-01 0.22748594D+05 0.22748594D+05 0.22748594D+05 0.12277163D+01  1  2  5  2  6  2       21 -.105669920582D+01 0.100000000000D+01
0.466073907529D-03 0.000000000000D+00 0.857075034828D-04 0.360797125016D-05 0.000000000000D+00  6 2 21 25 24 1 21 4 0.42746093D-01 0.34171620D-01 0.22748594D+05 0.22748594D+05 0.22748594D+05 0.12277163D+01  1  2  6  2  6  2       21 0.129639356376D+01 0.100000000000D+01
0.292029547991D-05 0.000000000000D+00 0.000000000000D+00 0.356198499532D-05 0.000000000000D+00  6 2 -1 25 24 1 -1 4 0.42746093D-01 0.37606470D-01 0.26920068D+05 0.26920068D+05 0.26920068D+05 0.12198672D+01  1  2 12  5  6  2       21 0.602027612566D-03 0.100000000000D+01
-.107173999167D-04 0.000000000000D+00 -.235452535712D-05 0.360797125016D-05 0.000000000000D+00  6 2 -1 25 24 1 -1 4 0.42746093D-01 0.37939322D-01 0.22748594D+05 0.22748594D+05 0.22748594D+05 0.12277163D+01  1  2  5  5  6  2       21 -.223030892689D-02 0.100000000000D+01
0.292029547991D-05 0.000000000000D+00 0.000000000000D+00 0.356198499532D-05 0.000000000000D+00  6 2 1 25 24 1 1 4 0.42746093D-01 0.37606470D-01 0.26920068D+05 0.26920068D+05 0.26920068D+05 0.12198672D+01  1  2 12  6  6  2       21 0.117589014484D-02 0.100000000000D+01
-.107173999167D-04 0.000000000000D+00 -.235452535712D-05 0.360797125016D-05 0.000000000000D+00  6 2 1 25 24 1 1 4 0.42746093D-01 0.37939322D-01 0.22748594D+05 0.22748594D+05 0.22748594D+05 0.12277163D+01  1  2  5  6  6  2       21 -.437492701629D-02 0.100000000000D+01
0.292029547991D-05 0.000000000000D+00 0.000000000000D+00 0.356198499532D-05 0.000000000000D+00  6 2 -2 25 24 1 -2 4 0.42746093D-01 0.37606470D-01 0.26920068D+05 0.26920068D+05 0.26920068D+05 0.12198672D+01  1  2 12  7  6  2       21 0.513646991495D-03 0.100000000000D+01
-.107173999167D-04 0.000000000000D+00 -.235452535712D-05 0.360797125016D-05 0.000000000000D+00  6 2 -2 25 24 1 -2 4 0.42746093D-01 0.37939322D-01 0.22748594D+05 0.22748594D+05 0.22748594D+05 0.12277163D+01  1  2  5  7  6  2       21 -.189992417184D-02 0.100000000000D+01
0.292029547991D-05 0.000000000000D+00 0.000000000000D+00 0.356198499532D-05 0.000000000000D+00  6 2 2 25 24 1 2 4 0.42746093D-01 0.37606470D-01 0.26920068D+05 0.26920068D+05 0.26920068D+05 0.12198672D+01  1  2 12  8  6  2       21 0.160451104076D-02 0.100000000000D+01
-.107173999167D-04 0.000000000000D+00 -.235452535712D-05 0.360797125016D-05 0.000000000000D+00  6 2 2 25 24 1 2 4 0.42746093D-01 0.37939322D-01 0.22748594D+05 0.22748594D+05 0.22748594D+05 0.12277163D+01  1  2  5  8  6  2       21 -.597597311770D-02 0.100000000000D+01
0.292029547991D-05 0.000000000000D+00 0.000000000000D+00 0.356198499532D-05 0.000000000000D+00  6 2 -3 25 24 1 -3 4 0.42746093D-01 0.37606470D-01 0.26920068D+05 0.26920068D+05 0.26920068D+05 0.12198672D+01  1  2 12  9  6  2       21 0.325804954285D-03 0.100000000000D+01
0.292029547991D-05 0.000000000000D+00 0.000000000000D+00 0.356198499532D-05 0.000000000000D+00  6 2 -4 25 24 1 -4 4 0.42746093D-01 0.37606470D-01 0.26920068D+05 0.26920068D+05 0.26920068D+05 0.12198672D+01  1  2 12  9  6  2       21 0.271696003575D-03 0.100000000000D+01
-.107173999167D-04 0.000000000000D+00 -.235452535712D-05 0.360797125016D-05 0.000000000000D+00  6 2 -3 25 24 1 -3 4 0.42746093D-01 0.37939322D-01 0.22748594D+05 0.22748594D+05 0.22748594D+05 0.12277163D+01  1  2  5  9  6  2       21 -.120032337717D-02 0.100000000000D+01
-.107173999167D-04 0.000000000000D+00 -.235452535712D-05 0.360797125016D-05 0.000000000000D+00  6 2 -4 25 24 1 -4 4 0.42746093D-01 0.37939322D-01 0.22748594D+05 0.22748594D+05 0.22748594D+05 0.12277163D+01  1  2  5  9  6  2       21 -.998773034966D-03 0.100000000000D+01
0.292029547991D-05 0.000000000000D+00 0.000000000000D+00 0.356198499532D-05 0.000000000000D+00  6 2 3 25 24 1 3 4 0.42746093D-01 0.37606470D-01 0.26920068D+05 0.26920068D+05 0.26920068D+05 0.12198672D+01  1  2 12 10  6  2       21 0.325854752539D-03 0.100000000000D+01
0.292029547991D-05 0.000000000000D+00 0.000000000000D+00 0.356198499532D-05 0.000000000000D+00  6 2 4 25 24 1 4 4 0.42746093D-01 0.37606470D-01 0.26920068D+05 0.26920068D+05 0.26920068D+05 0.12198672D+01  1  2 12 10  6  2       21 0.271696003575D-03 0.100000000000D+01
-.107173999167D-04 0.000000000000D+00 -.235452535712D-05 0.360797125016D-05 0.000000000000D+00  6 2 3 25 24 1 3 4 0.42746093D-01 0.37939322D-01 0.22748594D+05 0.22748594D+05 0.22748594D+05 0.12277163D+01  1  2  5 10  6  2       21 -.120051032094D-02 0.100000000000D+01
-.107173999167D-04 0.000000000000D+00 -.235452535712D-05 0.360797125016D-05 0.000000000000D+00  6 2 4 25 24 1 4 4 0.42746093D-01 0.37939322D-01 0.22748594D+05 0.22748594D+05 0.22748594D+05 0.12277163D+01  1  2  5 10  6  2       21 -.998773034966D-03 0.100000000000D+01
  </mgrwgt>
  </event>
  <event>
  6     66 0.45638357E-03 0.13603794E+03 0.75467711E-02 0.11029840E+00
        2 -1    0    0  502    0 0.00000000E+00 0.00000000E+00 0.72687972E+03 0.72687979E+03 0.32000000E+00 0.0000E+00 0.9000E+01
        2 -1    0    0  501    0 0.00000000E+00 0.00000000E+00 -.27110202E+03 0.27110221E+03 0.32000000E+00 0.0000E+00 0.9000E+01
       25  1    1    2    0    0 -.14464594E+02 0.88004593E+02 0.26231502E+03 0.30395428E+03 0.12500000E+03 0.0000E+00 0.9000E+01
       24  1    1    2    0    0 0.44257196E+02 0.15673237E+02 0.17513014E+03 0.19834851E+03 0.80419002E+02 0.0000E+00 0.9000E+01
        1  1    1    2  501    0 -.61342860E+02 0.80129308E+02 0.20706586E+03 0.23034762E+03 0.32000000E+00 0.0000E+00 0.9000E+01
        2  1    1    2  502    0 0.31550258E+02 -.18380714E+03 -.18873333E+03 0.26533159E+03 0.32000000E+00 0.0000E+00 0.9000E+01
#aMCatNLO 2  0  0  2  2 0.93926480D+02 0.00000000D+00  -5  6  0 0.00000000D+00 0.00000000D+00 0.00000000D+00 0.00000000D+00 0.00000000D+00
  <mgrwgt>
 0.1066606778D-01    1    2    0
 0.147140816976910D+03 0.000000000000000D+00 0.000000000000000D+00 0.147140816976910D+03
 0.147140816976910D+03 0.000000000000000D+00 0.000000000000000D+00 -.147140816976910D+03
 0.125713135280281D+03 -.736423704176666D+00 0.802781436328459D+01 -.106679078864997D+02
 0.105213289160106D+03 0.539944771369300D+02 -.410534571286898D+02 0.135290724362448D+01
 0.633552095134326D+02 -.532580534327534D+02 0.330256427654053D+02 0.931500064287519D+01
 0.000000000000000D+00 0.000000000000000D+00 -.000000000000000D+00 -.000000000000000D+00
 0.183888745585245D+03 0.000000000000000D+00 0.000000000000000D+00 0.183888745585245D+03
 0.107161878949243D+04 0.000000000000000D+00 0.000000000000000D+00 -.107161878949243D+04
 0.153924619915403D+03 -.144642956258658D+02 0.880043664227739D+02 -.106679078864997D+02
 0.931311664506651D+02 0.442574254248090D+02 0.156731664589063D+02 0.135290724362448D+01
 0.101343643912848D+03 -.613433878465662D+02 0.801296055903380D+02 0.931500064287519D+01
 0.907108104798759D+03 0.315502580476229D+02 -.183807138472018D+03 -.887730043907185D+03
0.733040580516D-04 0.000000000000D+00 0.000000000000D+00 0.308258404910D-06 0.207206135346D-08  6 2 2 25 24 1 2 4 0.11182765D+00 0.41708018D-01 0.71311895D+05 0.71311895D+05 0.71311895D+05 0.11773065D+01  1  2  1  8  6  2       21 0.106660677845D-01 0.100000000000D+01
  </mgrwgt>
  </event>
  <event>
  5     66 0.45638357E-03 0.29314581E+02 0.75467711E-02 0.11862326E+00
        2 -1    0    0  502    0 0.00000000E+00 0.00000000E+00 0.34864415E+04 0.34864415E+04 0.32000000E+00 0.0000E+00 0.9000E+01
       21 -1    0    0  501  502 0.00000000E+00 0.00000000E+00 -.11259855E+02 0.11284805E+02 0.75000000E+00 0.0000E+00 0.9000E+01
       25  1    1    2    0    0 -.76552458E+02 -.90142208E+02 0.20610914E+04 0.20682622E+04 0.12500000E+03 0.0000E+00 0.9000E+01
       24  1    1    2    0    0 0.50025324E+02 0.77666335E+02 0.13757928E+04 0.13812341E+04 0.80419002E+02 0.0000E+00 0.9000E+01
        1  1    1    2  501    0 0.26527134E+02 0.12475873E+02 0.38297497E+02 0.48230042E+02 0.32000000E+00 0.0000E+00 0.9000E+01
#aMCatNLO 1  0  0  5  2 0.72134129D+00 0.00000000D+00  -5  6  0 0.00000000D+00 0.00000000D+00 0.00000000D+00 0.00000000D+00 0.00000000D+00
  <mgrwgt>
 0.4573606511D+00    5    2    0
 0.198243501460063D+03 0.000000000000000D+00 0.000000000000000D+00 0.198243501460063D+03
 0.198243501460063D+03 -.000000000000000D+00 -.000000000000000D+00 -.198243501460063D+03
 0.180455570313446D+03 -.765525342159156D+02 -.901422439499431D+02 0.543442565313127D+02
 0.126231071408330D+03 0.500252699753114D+02 0.776663100583866D+02 0.305366023050391D+02
 0.898003611983493D+02 0.265272642406042D+02 0.124759338915565D+02 -.848808588363518D+02
 0.000000000000000D+00 -.000000000000000D+00 0.000000000000000D+00 0.000000000000000D+00
 0.198243501460063D+03 0.000000000000000D+00 0.000000000000000D+00 0.198243501460063D+03
 0.198243501460063D+03 -.000000000000000D+00 -.000000000000000D+00 -.198243501460063D+03
 0.180200599129870D+03 -.763950376291309D+02 -.900681723462131D+02 0.538403053726547D+02
 0.126221878216277D+03 0.501355148047593D+02 0.777181588729346D+02 0.301838453934734D+02
 0.806624949127665D+00 0.201203105323604D+00 -.702507470103917D+00 0.341532389988052D+00
 0.892579006248508D+02 0.260583197190480D+02 0.130525209433824D+02 -.843656831561162D+02
0.918910291407D-04 0.000000000000D+00 0.000000000000D+00 0.172751340331D-05 0.000000000000D+00  6 2 21 25 24 1 21 2 0.53637754D+00 0.17342057D-02 0.26223695D+05 0.26223695D+05 0.26223695D+05 0.12210788D+01  1  2  2  3  6  5        1 0.297164314403D+00 0.100000000000D+01
0.136212801825D-04 0.484922283263D-05 -.185501512856D-06 0.172751340331D-05 0.000000000000D+00  6 2 21 25 24 1 21 4 0.53637754D+00 0.17342057D-02 0.26223695D+05 0.26223695D+05 0.26223695D+05 0.12210788D+01  1  2  3  3  6  5        1 0.656793509782D-01 0.100000000000D+01
0.906417148507D-05 0.000000000000D+00 0.000000000000D+00 0.172751340331D-05 0.000000000000D+00  6 2 21 25 24 1 21 4 0.53637754D+00 0.17342057D-02 0.26223695D+05 0.26223695D+05 0.26223695D+05 0.12210788D+01  1  2 15  3  6  5        1 0.437057965417D-01 0.100000000000D+01
-.208397425108D-04 0.000000000000D+00 0.000000000000D+00 0.172751340331D-05 0.000000000000D+00  6 2 21 25 24 1 21 4 0.53637754D+00 0.17342057D-02 0.26223695D+05 0.26223695D+05 0.26223695D+05 0.12210788D+01  1  2  4  3  6  5        1 -.100485471580D+00 0.100000000000D+01
0.313975715401D-04 0.000000000000D+00 0.000000000000D+00 0.172751340331D-05 0.140560443147D-06  6 2 21 25 24 1 21 4 0.53637754D+00 0.17342057D-02 0.26309566D+05 0.26309566D+05 0.26309566D+05 0.12209275D+01  1  2 11  3  6  5        1 0.151296660795D+00 0.100000000000D+01
  </mgrwgt>
  </event>
  <event>
  6     66 -.45638357E-03 0.92846569E+01 0.75467711E-02 0.12508430E+00
        2 -1    0    0  503    0 0.00000000E+00 0.00000000E+00 0.98666348E+03 0.98666353E+03 0.32000000E+00 0.0000E+00 0.9000E+01
       21 -1    0    0  501  502 0.00000000E+00 0.00000000E+00 -.23073505E+02 0.23085691E+02 0.75000000E+00 0.0000E+00 0.9000E+01
       25  1    1    2    0    0 0.13148852E+02 -.36034395E+01 0.57004427E+03 0.58374767E+03 0.12500000E+03 0.0000E+00 0.9000E+01
       24  1    1    2    0    0 0.20871663E+02 0.16069340E+02 0.32650582E+03 0.33729381E+03 0.80419002E+02 0.0000E+00 0.9000E+01
        1  1    1    2  501    0 -.17914962E+02 -.40573350E+01 -.88325542E+00 0.18392672E+02 0.32000000E+00 0.0000E+00 0.9000E+01
       21  1    1    2  503  502 -.16105552E+02 -.84085655E+01 0.67923142E+02 0.70315066E+02 0.75000000E+00 0.0000E+00 0.9000E+01
#aMCatNLO 2  0  0  1  2 0.18168456D+02 0.00000000D+00  -5  6  0 0.00000000D+00 0.00000000D+00 0.00000000D+00 0.00000000D+00 0.00000000D+00
  <mgrwgt>
 -.4372891252D+00    1    2    0
 0.141410190511883D+03 0.000000000000000D+00 0.000000000000000D+00 0.141410190511883D+03
 0.141410190511883D+03 0.000000000000000D+00 0.000000000000000D+00 -.141410190511883D+03
 0.133092680406076D+03 0.556723337717803D+01 -.756176511495389D+01 0.447268062636300D+02
 0.846956039299150D+02 0.160112722484015D+02 0.135317540600244D+02 0.163297325063542D+02
 0.650320966877742D+02 -.215785056255795D+02 -.596998894507052D+01 -.610565387699842D+02
 0.000000000000000D+00 -.000000000000000D+00 -.000000000000000D+00 0.000000000000000D+00
 0.152368343667211D+03 0.000000000000000D+00 0.000000000000000D+00 0.152368343667211D+03
 0.149438226148057D+03 0.000000000000000D+00 0.000000000000000D+00 -.149438226148057D+03
 0.133459235051096D+03 0.131489816024967D+02 -.360340182279327D+01 0.447268062636300D+02
 0.861842810062310D+02 0.208717447838744D+02 0.160693635262319D+02 0.163297325063542D+02
 0.637598373257979D+02 -.179151741673606D+02 -.405739618410194D+01 -.610565387699842D+02
 0.184032164321432D+02 -.161055522190104D+02 -.840856551933673D+01 0.293011751915428D+01
-.105651538130D-04 0.000000000000D+00 0.000000000000D+00 0.423292104797D-05 0.000000000000D+00  6 2 21 25 24 1 21 4 0.15551957D+00 0.33597918D-02 0.15240121D+05 0.15240121D+05 0.15240121D+05 0.12470370D+01  1  2 13  1  6  1        2 -.437289125172D+00 0.100000000000D+01
  </mgrwgt>
  </event>
  <event>
  5     66 0.45638357E-03 0.38562660E+02 0.75467711E-02 0.11199872E+00
        2 -1    0    0  502    0 0.00000000E+00 0.00000000E+00 0.20451558E+04 0.20451559E+04 0.32000000E+00 0.0000E+00 0.9000E+01
       21 -1    0    0  501  502 0.00000000E+00 0.00000000E+00 -.25903410E+02 0.25914266E+02 0.75000000E+00 0.0000E+00 0.9000E+01
       25  1    1    2    0    0 0.18883941E+02 -.11865719E+03 0.13182486E+04 0.13296017E+04 0.12500000E+03 0.0000E+00 0.9000E+01
       24  1    1    2    0    0 -.40624171E+02 0.15050721E+03 0.66819670E+03 0.69083774E+03 0.80419002E+02 0.0000E+00 0.9000E+01
        1  1    1    2  501    0 0.21740230E+02 -.31850015E+02 0.32807074E+02 0.50630697E+02 0.32000000E+00 0.0000E+00 0.9000E+01
#aMCatNLO 1  0  0  1  2 0.85657219D+02 0.00000000D+00  -5  6  0 0.00000000D+00 0.00000000D+00 0.00000000D+00 0.00000000D+00 0.00000000D+00
  <mgrwgt>
 0.1389627956D+00    7    2    0
 0.230190742021321D+03 0.000000000000000D+00 0.000000000000000D+00 0.230190742021321D+03
 0.230190742021321D+03 0.000000000000000D+00 0.000000000000000D+00 -.230190742021321D+03
 0.199446694595927D+03 0.188838728467081D+02 -.118657093194797D+03 0.985792958288486D+02
 0.177061063936131D+03 -.406242317573079D+02 0.150507297537568D+03 -.240962567609715D+02
 0.838737255105846D+02 0.217403589105998D+02 -.318502043427711D+02 -.744830390678771D+02
 0.000000000000000D+00 -.000000000000000D+00 -.000000000000000D+00 0.000000000000000D+00
 0.332933070679505D+03 0.000000000000000D+00 0.000000000000000D+00 0.332933070679505D+03
 0.252708327804630D+03 0.000000000000000D+00 0.000000000000000D+00 -.252708327804630D+03
 0.189381668383324D+03 0.437284495194816D+02 -.927920333658112D+02 0.985792958288486D+02
 0.195059133939398D+03 -.168472399844635D+02 0.175260921753346D+03 -.240962567609715D+02
 0.838414524138160D+02 0.324566877432086D+02 -.206937056809821D+02 -.744830390678771D+02
 0.117359143747597D+03 -.593378972782267D+02 -.617751827065533D+02 0.802247428748743D+02
0.111284776936D-04 0.000000000000D+00 0.000000000000D+00 0.583992320157D-06 0.000000000000D+00  6 2 21 25 24 1 21 2 0.31464020D+00 0.39859770D-02 0.37511520D+05 0.37511520D+05 0.37511520D+05 0.12048434D+01  1  2  2  1  6  1        2 0.581119260909D-01 0.100000000000D+01
0.100967187382D-05 0.587265902112D-06 -.224651902069D-07 0.583992320157D-06 0.000000000000D+00  6 2 21 25 24 1 21 4 0.31464020D+00 0.39859770D-02 0.37511520D+05 0.37511520D+05 0.37511520D+05 0.12048434D+01  1  2  3  1  6  1        2 0.765369148771D-02 0.100000000000D+01
0.103524401132D-05 0.000000000000D+00 0.000000000000D+00 0.583992320157D-06 0.000000000000D+00  6 2 21 25 24 1 21 4 0.31464020D+00 0.39859770D-02 0.37511520D+05 0.37511520D+05 0.37511520D+05 0.12048434D+01  1  2 15  1  6  1        2 0.784753788089D-02 0.100000000000D+01
-.170688696198D-04 0.000000000000D+00 0.000000000000D+00 0.583992320157D-06 0.000000000000D+00  6 2 21 25 24 1 21 4 0.31464020D+00 0.39859770D-02 0.37511520D+05 0.37511520D+05 0.37511520D+05 0.12048434D+01  1  2  4  1  6  1        2 -.129388433511D+00 0.100000000000D+01
-.332708744508D-04 0.000000000000D+00 -.102279846254D-04 0.583992320157D-06 0.000000000000D+00  6 2 21 25 24 1 21 4 0.46699204D+00 0.39859770D-02 0.37511520D+05 0.37511520D+05 0.37511520D+05 0.12048434D+01  1  2  5  1  6  1        2 -.723150676043D-01 0.100000000000D+01
0.352724641734D-04 0.000000000000D+00 0.947926946292D-05 0.583992320157D-06 0.000000000000D+00  6 2 21 25 24 1 21 4 0.31464020D+00 0.39859770D-02 0.37511520D+05 0.37511520D+05 0.37511520D+05 0.12048434D+01  1  2  6  1  6  1        2 0.267378507605D+00 0.100000000000D+01
-.122577211417D-05 0.000000000000D+00 -.482276165198D-06 0.583992320157D-06 0.000000000000D+00  6 21 21 25 24 1 -2 4 0.46699204D+00 0.39859770D-02 0.37511520D+05 0.37511520D+05 0.37511520D+05 0.12048434D+01  1  2  5  4  6  1        2 -.325366376482D-03 0.100000000000D+01
  </mgrwgt>
  </event>
  <event>
  5     66 0.45638357E-03 0.12619647E+03 0.75467711E-02 0.10590689E+00
        2 -1    0    0  502    0 0.00000000E+00 0.00000000E+00 0.22364211E+04 0.22364211E+04 0.32000000E+00 0.0000E+00 0.9000E+01
       21 -1    0    0  501  502 0.00000000E+00 0.00000000E+00 -.39677429E+02 0.39684517E+02 0.75000000E+00 0.0000E+00 0.9000E+01
       25  1    1    2    0    0 0.30507047E+02 -.11191787E+03 0.17842904E+04 0.17924212E+04 0.12500000E+03 0.0000E+00 0.9000E+01
       24  1    1    2    0    0 -.51662839E+01 -.11708101E+02 0.31181613E+03 0.32227362E+03 0.80419002E+02 0.0000E+00 0.9000E+01
        1  1    1    2  501    0 -.25340763E+02 0.12362597E+03 0.10063711E+03 0.16141086E+03 0.32000000E+00 0.0000E+00 0.9000E+01
#aMCatNLO 1  0  0  2  2 0.26580199D+03 0.00000000D+00  -5  6  0 0.00000000D+00 0.00000000D+00 0.00000000D+00 0.00000000D+00 0.00000000D+00
  <mgrwgt>
 0.1152493728D+00    3    2    0
 0.297898525482051D+03 0.000000000000000D+00 0.000000000000000D+00 0.297898525482051D+03
 0.297898525482051D+03 0.000000000000000D+00 0.000000000000000D+00 -.297898525482051D+03
 0.268734560437976D+03 0.305070565366702D+02 -.111917914829585D+03 0.207694400058013D+03
 0.814852832939984D+02 -.516628097814609D+01 -.117081155223620D+02 0.297741681705785D+01
 0.245577207232128D+03 -.253407755585241D+02 0.123626030351947D+03 -.210671816875071D+03
 0.000000000000000D+00 -.000000000000000D+00 0.000000000000000D+00 0.000000000000000D+00
 0.661652352450144D+03 0.000000000000000D+00 0.000000000000000D+00 0.661652352450144D+03
 0.378852885579230D+03 0.000000000000000D+00 0.000000000000000D+00 -.378852885579230D+03
 0.323752012180788D+03 0.149448739184304D+03 -.154008038530049D+03 0.207694400058013D+03
 0.887963016067802D+02 0.290177481087657D+02 -.238048841304778D+02 0.297741681705785D+01
 0.239850966975727D+03 0.721089330309097D+02 0.891413131544052D+02 -.210671816875071D+03
 0.388105957266077D+03 -.250575420323979D+03 0.886716095061212D+02 0.282799466870914D+03
0.511158369792D-04 0.000000000000D+00 0.000000000000D+00 0.590811672175D-06 0.000000000000D+00  6 2 21 25 24 1 21 2 0.34406533D+00 0.61047668D-02 0.35751198D+05 0.35751198D+05 0.35751198D+05 0.12069845D+01  1  2  2  2  6  2       21 0.103493058120D+00 0.100000000000D+01
-.749380113997D-06 0.269745682583D-05 -.103188147736D-06 0.590811672175D-06 0.000000000000D+00  6 2 21 25 24 1 21 4 0.34406533D+00 0.61047668D-02 0.35751198D+05 0.35751198D+05 0.35751198D+05 0.12069845D+01  1  2  3  2  6  2       21 -.221035126994D-02 0.100000000000D+01
0.473514858771D-05 0.000000000000D+00 0.000000000000D+00 0.590811672175D-06 0.000000000000D+00  6 2 21 25 24 1 21 4 0.34406533D+00 0.61047668D-02 0.35751198D+05 0.35751198D+05 0.35751198D+05 0.12069845D+01  1  2 15  2  6  2       21 0.139666659132D-01 0.100000000000D+01
  </mgrwgt>
  </event>
  <event>
  5     66 -.45638357E-03 0.28336541E+02 0.75467711E-02 0.12435311E+00
        4 -1    0    0  502    0 0.00000000E+00 0.00000000E+00 0.76604208E+02 0.76619888E+02 0.15500000E+01 0.0000E+00 0.9000E+01
       21 -1    0    0  501  502 0.00000000E+00 0.00000000E+00 -.71769450E+03 0.71769490E+03 0.75000000E+00 0.0000E+00 0.9000E+01
       25  1    1    2    0    0 -.19069700E+02 -.16930540E+01 -.99260349E+02 0.16076112E+03 0.12500000E+03 0.0000E+00 0.9000E+01
       24  1    1    2    0    0 -.37013486E+00 -.18923653E+02 0.79918127E+01 0.83001968E+02 0.80419002E+02 0.0000E+00 0.9000E+01
        3  1    1    2  501    0 0.19439835E+02 0.20616707E+02 -.54982176E+03 0.55055170E+03 0.50000000E+00 0.0000E+00 0.9000E+01
#aMCatNLO 1  0  0  1  2 0.15931823D+01 0.00000000D+00  -5  6  0 0.00000000D+00 0.00000000D+00 0.00000000D+00 0.00000000D+00 0.00000000D+00
  <mgrwgt>
 -.8752850833D+00   10    2    0
 0.234488383688519D+03 0.000000000000000D+00 0.000000000000000D+00 0.234488383688519D+03
 0.234488383688519D+03 0.000000000000000D+00 0.000000000000000D+00 -.234488383688519D+03
 0.136595513416175D+03 -.190697216919486D+02 -.169307694341492D+01 0.516411995453610D+02
 0.151506976053281D+03 -.370158858686272D+00 -.189236782837140D+02 0.126999626854069D+03
 0.180874277907583D+03 0.194398805506349D+02 0.206167552271289D+02 -.178640826399430D+03
 0.000000000000000D+00 -.000000000000000D+00 -.000000000000000D+00 0.000000000000000D+00
 0.236086221801959D+03 0.000000000000000D+00 0.000000000000000D+00 0.236086221801959D+03
 0.234887208344465D+03 0.000000000000000D+00 0.000000000000000D+00 -.234887208344465D+03
 0.136538491427946D+03 -.186777527690546D+02 -.144488838100412D+01 0.516411995453610D+02
 0.151472397032696D+03 0.646405307027971D-01 -.186483701429746D+02 0.126999626854069D+03
 0.180968585044577D+03 0.199591537086190D+02 0.209455508306860D+02 -.178640826399430D+03
 0.199395664120438D+01 -.134604147026717D+01 -.852292306707315D+00 0.119901345749394D+01
0.873752439719D-04 0.000000000000D+00 0.000000000000D+00 0.110743148238D-04 0.000000000000D+00  6 4 21 25 24 3 21 2 0.11786499D-01 0.11041578D+00 0.14090932D+05 0.14090932D+05 0.14090932D+05 0.12509298D+01  1  2  2  1  6  1        4 0.212075489251D-01 0.100000000000D+01
0.186938930681D-04 0.461091830222D-05 -.176385443656D-06 0.110743148238D-04 0.000000000000D+00  6 4 21 25 24 3 21 4 0.11786499D-01 0.11041578D+00 0.14090932D+05 0.14090932D+05 0.14090932D+05 0.12509298D+01  1  2  3  1  6  1        4 0.710015265138D-02 0.100000000000D+01
0.891544986894D-05 0.000000000000D+00 0.000000000000D+00 0.110743148238D-04 0.000000000000D+00  6 4 21 25 24 3 21 4 0.11786499D-01 0.11041578D+00 0.14090932D+05 0.14090932D+05 0.14090932D+05 0.12509298D+01  1  2 15  1  6  1        4 0.338618899737D-02 0.100000000000D+01
-.102047144041D-01 0.000000000000D+00 0.000000000000D+00 0.110743148238D-04 0.000000000000D+00  6 4 21 25 24 3 21 4 0.11786499D-01 0.11041578D+00 0.14090932D+05 0.14090932D+05 0.14090932D+05 0.12509298D+01  1  2  4  1  6  1        4 -.387586629328D+01 0.100000000000D+01
-.417708947577D-01 0.000000000000D+00 -.417766311192D-02 0.110743148238D-04 0.000000000000D+00  6 4 21 25 24 3 21 4 0.11886113D-01 0.11041578D+00 0.14090932D+05 0.14090932D+05 0.14090932D+05 0.12509298D+01  1  2  5  1  6  1        4 -.156392307676D+02 0.100000000000D+01
0.418047214407D-01 0.000000000000D+00 0.417751516606D-02 0.110743148238D-04 0.000000000000D+00  6 4 21 25 24 3 21 4 0.11786499D-01 0.11041578D+00 0.14090932D+05 0.14090932D+05 0.14090932D+05 0.12509298D+01  1  2  6  1  6  1        4 0.158779074373D+02 0.100000000000D+01
0.873060287094D-02 0.000000000000D+00 0.000000000000D+00 0.110743148238D-04 0.362857529518D-04  6 4 21 25 24 3 21 4 0.11866814D-01 0.11060357D+00 0.14337006D+05 0.14337006D+05 0.14337006D+05 0.12500669D+01  1  2 11  1  6  1        4 0.325622998235D+01 0.100000000000D+01
0.468502525822D-08 0.000000000000D+00 0.000000000000D+00 0.110590427272D-04 0.000000000000D+00  6 21 21 25 24 3 -4 4 0.11876794D-01 0.11041578D+00 0.14337006D+05 0.14337006D+05 0.14337006D+05 0.12500669D+01  1  2 12  4  6  1        4 0.462029687138D-04 0.100000000000D+01
-.649803900485D-04 0.000000000000D+00 -.650991277644D-05 0.110743148238D-04 0.000000000000D+00  6 21 21 25 24 3 -4 4 0.11886113D-01 0.11041578D+00 0.14090932D+05 0.14090932D+05 0.14090932D+05 0.12509298D+01  1  2  5  4  6  1        4 -.642169461766D+00 0.100000000000D+01
0.118032995094D-04 0.000000000000D+00 0.000000000000D+00 0.110743148238D-04 0.435840713494D-07  6 21 21 25 24 3 -4 4 0.11866814D-01 0.11060357D+00 0.14337006D+05 0.14337006D+05 0.14337006D+05 0.12500669D+01  1  2 11  4  6  1        4 0.116103926169D+00 0.100000000000D+01
  </mgrwgt>
  </event>
  <event>
  6     66 0.45638357E-03 0.20430602E+02 0.75467711E-02 0.12057464E+00
       21 -1    0    0  502  503 0.00000000E+00 0.00000000E+00 0.51173693E+02 0.51179189E+02 0.75000000E+00 0.0000E+00 0.9000E+01
       21 -1    0    0  501  502 0.00000000E+00 0.00000000E+00 -.43303979E+03 0.43304044E+03 0.75000000E+00 0.0000E+00 0.9000E+01
       25  1    1    2    0    0 0.20226484E+02 -.25074484E+02 -.21239346E+03 0.24854340E+03 0.12500000E+03 0.0000E+00 0.9000E+01
       24  1    1    2    0    0 -.47987634E+01 0.15216950E+02 -.92073294E+02 0.12328541E+03 0.80419002E+02 0.0000E+00 0.9000E+01
        1  1    1    2  501    0 0.14139603E+02 0.37469140E+02 -.29791500E+02 0.49914935E+02 0.32000000E+00 0.0000E+00 0.9000E+01
       -2  1    1    2    0  503 -.29567324E+02 -.27611606E+02 -.47607840E+02 0.62475885E+02 0.32000000E+00 0.0000E+00 0.9000E+01
#aMCatNLO 2  0  0  1  2 0.15931823D+01 0.00000000D+00  -5  6  0 0.00000000D+00 0.00000000D+00 0.00000000D+00 0.00000000D+00 0.00000000D+00
  <mgrwgt>
 0.2962752084D-01    1    2    0
 0.126986786226915D+03 0.000000000000000D+00 0.000000000000000D+00 0.126986786226915D+03
 0.126986786226915D+03 0.000000000000000D+00 0.000000000000000D+00 -.126986786226915D+03
 0.133563974070163D+03 0.489176564484698D+01 -.393953478741900D+02 -.252668233888363D+02
 0.824507196644440D+02 -.143407829261442D+02 0.630580344391300D+01 0.924575615112893D+01
 0.379588787192228D+02 0.944901728129724D+01 0.330895444302770D+02 0.160210672377073D+02
 0.000000000000000D+00 -.000000000000000D+00 -.000000000000000D+00 0.000000000000000D+00
 0.150440394095105D+03 0.000000000000000D+00 0.000000000000000D+00 0.150440394095105D+03
 0.147311135349653D+03 0.000000000000000D+00 0.000000000000000D+00 -.147311135349653D+03
 0.131534316880070D+03 0.202263294073940D+02 -.250750822859579D+02 -.252668233888363D+02
 0.825061995507761D+02 -.479887910355797D+01 0.152165621112405D+02 0.924575615112893D+01
 0.431349157440056D+02 0.141398734821647D+02 0.374701259500913D+02 0.160210672377073D+02
 0.405760972699057D+02 -.295673237860007D+02 -.276116057753739D+02 0.312925874545189D+01
0.500332785412D-06 0.000000000000D+00 0.000000000000D+00 0.455188016696D-06 0.137275552826D-09  6 21 21 25 24 1 -2 4 0.78733152D-02 0.66621696D-01 0.21254110D+05 0.21254110D+05 0.21254110D+05 0.12309288D+01  1  2  1  4  6  1        2 0.296275208433D-01 0.100000000000D+01
  </mgrwgt>
  </event>
  <event>
  6     66 0.45638357E-03 0.20278435E+02 0.75467711E-02 0.11862239E+00
        2 -1    0    0  502    0 0.00000000E+00 0.00000000E+00 0.14779847E+03 0.14779882E+03 0.32000000E+00 0.0000E+00 0.9000E+01
       21 -1    0    0  501  502 -.00000000E+00 -.00000000E+00 -.39567716E+03 0.39567787E+03 0.75000000E+00 0.0000E+00 0.9000E+01
       25  1    1    2    0    0 -.15068799E+02 -.10996946E+03 -.22454158E+03 0.27993619E+03 0.12500000E+03 0.0000E+00 0.9000E+01
       24  1    1    2    0    0 0.11779952E+02 0.92753240E+02 0.84779715E+02 0.14965543E+03 0.80419002E+02 0.0000E+00 0.9000E+01
        1  1    1    2  503    0 0.10775584E+02 0.22423366E+02 -.60837431E+02 0.65728350E+02 0.32000000E+00 0.0000E+00 0.9000E+01
       21  1    1    2  501  503 -.74867367E+01 -.52071428E+01 -.47279391E+02 0.48156712E+02 0.75000000E+00 0.0000E+00 0.9000E+01
#aMCatNLO 2  0  0  5  2 0.18714967D+02 0.00000000D+00  -5  6  0 0.00000000D+00 0.00000000D+00 0.00000000D+00 0.00000000D+00 0.00000000D+00
  <mgrwgt>
 0.9966035944D-01    1    2    0
 0.241827966407636D+03 0.000000000000000D+00 0.000000000000000D+00 0.241827966407636D+03
 0.241827966407636D+03 -.000000000000000D+00 -.000000000000000D+00 -.241827966407636D+03
 0.198397100123198D+03 -.152154420956219D+02 -.110737098440483D+03 -.106029216200591D+03
 0.213705183248561D+03 0.116231939628597D+02 0.919326563973604D+02 0.174974219366046D+03
 0.715536494435125D+02 0.359224813276220D+01 0.188044420431224D+02 -.689450031654549D+02
 0.000000000000000D+00 0.000000000000000D+00 0.000000000000000D+00 -.000000000000000D+00
 0.241827966407636D+03 0.000000000000000D+00 0.000000000000000D+00 0.241827966407636D+03
 0.241827966407636D+03 -.000000000000000D+00 -.000000000000000D+00 -.241827966407636D+03
 0.199482521857566D+03 -.150684735662961D+02 -.109967758158373D+03 -.108849941647470D+03
 0.211611394079552D+03 0.117802971378265D+02 0.927550487932282D+02 0.171958982529647D+03
 0.422991619149660D+02 0.107904983340441D+02 0.223601635487391D+02 -.342462746949962D+02
 0.302628549631873D+02 -.750232190557448D+01 -.514745418359479D+01 -.288627661871804D+02
0.603420212115D-04 0.000000000000D+00 0.000000000000D+00 0.108444373688D-05 0.738158512490D-07  6 2 21 25 24 1 21 4 0.22738307D-01 0.60873490D-01 0.26312132D+05 0.26312132D+05 0.26312132D+05 0.12209230D+01  1  2  1  3  6  5        1 0.996603594415D-01 0.100000000000D+01
  </mgrwgt>
  </event>
  <event>
  6     66 -.45638357E-03 0.23866622E+02 0.75467711E-02 0.11714235E+00
        2 -1    0    0  502    0 0.00000000E+00 0.00000000E+00 0.13067902E+04 0.13067902E+04 0.32000000E+00 0.0000E+00 0.9000E+01
       21 -1    0    0  501  503 0.00000000E+00 0.00000000E+00 -.26538391E+02 0.26548987E+02 0.75000000E+00 0.0000E+00 0.9000E+01
       25  1    1    2    0    0 0.14724188E+01 -.13189618E+03 0.48725602E+03 0.52004057E+03 0.12500000E+03 0.0000E+00 0.9000E+01
       24  1    1    2    0    0 0.19107685E+02 0.95155842E+02 0.56135288E+03 0.57532948E+03 0.80419002E+02 0.0000E+00 0.9000E+01
        1  1    1    2  501    0 -.85134252E+01 0.29662686E+02 0.20953977E+03 0.21180031E+03 0.32000000E+00 0.0000E+00 0.9000E+01
       21  1    1    2  502  503 -.12066679E+02 0.70776554E+01 0.22103125E+02 0.26168848E+02 0.75000000E+00 0.0000E+00 0.9000E+01
#aMCatNLO 2  0  0  2  1 0.13989208D+02 0.00000000D+00  -5  6  0 0.00000000D+00 0.00000000D+00 0.00000000D+00 0.00000000D+00 0.00000000D+00
  <mgrwgt>
 -.1681053942D+00    4    2    0
 0.177172646276373D+03 0.000000000000000D+00 0.000000000000000D+00 0.177172646276373D+03
 0.177172646276373D+03 0.000000000000000D+00 0.000000000000000D+00 -.177172646276373D+03
 0.185666366120089D+03 -.489070016032142D+01 -.128164377760817D+03 -.489588892170088D+02
 0.130468953761825D+03 0.146895987161965D+02 0.977469316990714D+02 0.280122290135736D+02
 0.382099726708318D+02 -.979889855587509D+01 0.304174460617457D+02 0.209466602034351D+02
 0.000000000000000D+00 -.000000000000000D+00 0.000000000000000D+00 -.000000000000000D+00
 0.180639434535904D+03 0.000000000000000D+00 0.000000000000000D+00 0.180639434535904D+03
 0.192008121066077D+03 0.000000000000000D+00 0.000000000000000D+00 -.192008121066077D+03
 0.188204395525485D+03 0.147261563178001D+01 -.131896751532974D+03 -.489588892170088D+02
 0.129118432839595D+03 0.191078006352786D+02 0.951554555722159D+02 0.280122290135736D+02
 0.372984968574224D+02 -.851373724913979D+01 0.296636405755865D+02 0.209466602034351D+02
 0.180262303794787D+02 -.120666790179188D+02 0.707765538517112D+01 -.113686865301721D+02
-.886227350679D-05 0.000000000000D+00 0.000000000000D+00 0.181008561635D-06 0.000000000000D+00  6 2 21 25 24 1 21 4 0.19717863D+00 0.41183014D-02 0.31084947D+05 0.31084947D+05 0.31084947D+05 0.12132824D+01  1  2 13  2  6  2       21 -.165040214983D+00 0.100000000000D+01
-.572792384000D-05 0.000000000000D+00 0.000000000000D+00 0.181008561635D-06 0.000000000000D+00  6 2 21 25 24 1 21 4 0.19717863D+00 0.42984137D-02 0.31084947D+05 0.31084947D+05 0.31084947D+05 0.12132824D+01  1  2 13  2  6  2       21 -.992795543913D-01 0.100000000000D+01
-.161072778734D-07 0.000000000000D+00 0.000000000000D+00 0.182124221714D-06 0.000000000000D+00  6 2 21 25 24 1 21 4 0.19717863D+00 0.37679643D-02 0.28641867D+05 0.28641867D+05 0.28641867D+05 0.12170157D+01  1  2  8  2  6  2       21 -.352473298596D-03 0.100000000000D+01
0.527596368231D-05 0.000000000000D+00 0.000000000000D+00 0.182124221714D-06 0.186433562932D-07  6 2 21 25 24 1 21 4 0.20103688D+00 0.40834732D-02 0.31084947D+05 0.31084947D+05 0.31084947D+05 0.12132824D+01  1  2  1  2  6  2       21 0.965668484987D-01 0.100000000000D+01
  </mgrwgt>
  </event>
  <event>
  5     66 0.45638357E-03 0.27876191E+02 0.75467711E-02 0.10934743E+00
        2 -1    0    0  502    0 0.00000000E+00 0.00000000E+00 0.55891067E+03 0.55891076E+03 0.32000000E+00 0.0000E+00 0.9000E+01
       21 -1    0    0  501  502 0.00000000E+00 0.00000000E+00 -.22564837E+03 0.22564962E+03 0.75000000E+00 0.0000E+00 0.9000E+01
       25  1    1    2    0    0 -.54291615E+02 0.34183885E+02 0.28828687E+03 0.32070304E+03 0.12500000E+03 0.0000E+00 0.9000E+01
       24  1    1    2    0    0 0.74043038E+02 -.14512512E+02 0.24143682E+03 0.26542784E+03 0.80419002E+02 0.0000E+00 0.9000E+01
        1  1    1    2  501    0 -.19751422E+02 -.19671373E+02 -.19646140E+03 0.19842949E+03 0.32000000E+00 0.0000E+00 0.9000E+01
#aMCatNLO 1  0  0  1  2 0.79703602D+01 0.00000000D+00  -5  6  0 0.00000000D+00 0.00000000D+00 0.00000000D+00 0.00000000D+00 0.00000000D+00
  <mgrwgt>
 0.1000181865D+01    7    2    0
 0.355130688252469D+03 0.000000000000000D+00 0.000000000000000D+00 0.355130688252469D+03
 0.355130688252469D+03 0.000000000000000D+00 0.000000000000000D+00 -.355130688252469D+03
 0.218983859942654D+03 -.542916121013186D+02 0.341838879834086D+02 0.167966703763460D+03
 0.179908981355477D+03 0.740430403345585D+02 -.145125094223343D+02 0.142151471558604D+03
 0.311368535206806D+03 -.197514282332400D+02 -.196713785610743D+02 -.310118175322063D+03
 0.000000000000000D+00 -.000000000000000D+00 0.000000000000000D+00 0.000000000000000D+00
 0.480292553227437D+03 0.000000000000000D+00 0.000000000000000D+00 0.480292553227437D+03
 0.462808541648131D+03 0.000000000000000D+00 0.000000000000000D+00 -.462808541648131D+03
 0.209486914322029D+03 -.644996521500195D+01 -.231336286143865D+01 0.167966703763460D+03
 0.206538004055867D+03 0.117192448244724D+03 -.474301631152793D+02 0.142151471558604D+03
 0.322816980450113D+03 0.510596546289308D+02 -.736914640308971D+02 -.310118175322063D+03
 0.204259196047558D+03 -.161802137658652D+03 0.123434990007615D+03 0.174840115793058D+02
0.814866628756D-03 0.000000000000D+00 0.000000000000D+00 0.294378812590D-04 0.000000000000D+00  6 2 21 25 24 1 21 2 0.85986360D-01 0.34715237D-01 0.19411815D+05 0.19411815D+05 0.19411815D+05 0.12352558D+01  1  2  2  1  6  1        2 0.696736452697D+00 0.100000000000D+01
0.272266297543D-03 0.430016934043D-04 -.164498094998D-05 0.294378812590D-04 0.000000000000D+00  6 2 21 25 24 1 21 4 0.85986360D-01 0.34715237D-01 0.19411815D+05 0.19411815D+05 0.19411815D+05 0.12352558D+01  1  2  3  1  6  1        2 0.355213691261D+00 0.100000000000D+01
0.794513278503D-04 0.000000000000D+00 0.000000000000D+00 0.294378812590D-04 0.000000000000D+00  6 2 21 25 24 1 21 4 0.85986360D-01 0.34715237D-01 0.19411815D+05 0.19411815D+05 0.19411815D+05 0.12352558D+01  1  2 15  1  6  1        2 0.103656602730D+00 0.100000000000D+01
-.537969573288D-03 0.000000000000D+00 0.000000000000D+00 0.294378812590D-04 0.000000000000D+00  6 2 21 25 24 1 21 4 0.85986360D-01 0.34715237D-01 0.19411815D+05 0.19411815D+05 0.19411815D+05 0.12352558D+01  1  2  4  1  6  1        2 -.701864900790D+00 0.100000000000D+01
0.239631677816D-03 0.000000000000D+00 -.857430399759D-03 0.294378812590D-04 0.000000000000D+00  6 2 21 25 24 1 21 4 0.14302262D+00 0.34715237D-01 0.19411815D+05 0.19411815D+05 0.19411815D+05 0.12352558D+01  1  2  5  1  6  1        2 0.169090694193D+00 0.100000000000D+01
0.262129829914D-03 0.000000000000D+00 0.757271537724D-03 0.294378812590D-04 0.000000000000D+00  6 2 21 25 24 1 21 4 0.85986360D-01 0.34715237D-01 0.19411815D+05 0.19411815D+05 0.19411815D+05 0.12352558D+01  1  2  6  1  6  1        2 0.341989094184D+00 0.100000000000D+01
0.531362051881D-04 0.000000000000D+00 -.490211562321D-04 0.294378812590D-04 0.000000000000D+00  6 21 21 25 24 1 -2 4 0.14302262D+00 0.34715237D-01 0.19411815D+05 0.19411815D+05 0.19411815D+05 0.12352558D+01  1  2  5  4  6  1        2 0.353602310940D-01 0.100000000000D+01
  </mgrwgt>
  </event>
  <event>
  5     66 0.45638357E-03 0.29682282E+02 0.75467711E-02 0.11303058E+00
        2 -1    0    0  502    0 0.00000000E+00 0.00000000E+00 0.53906046E+03 0.53906055E+03 0.32000000E+00 0.0000E+00 0.9000E+01
       21 -1    0    0  501  502 0.00000000E+00 0.00000000E+00 -.36761482E+02 0.36769132E+02 0.75000000E+00 0.0000E+00 0.9000E+01
       25  1    1    2    0    0 0.16890194E+02 0.31529047E+02 0.38195511E+03 0.40347747E+03 0.12500000E+03 0.0000E+00 0.9000E+01
       24  1    1    2    0    0 -.40826708E+02 -.13978152E+02 0.10436459E+03 0.13864124E+03 0.80419002E+02 0.0000E+00 0.9000E+01
        1  1    1    2  501    0 0.23936514E+02 -.17550894E+02 0.15979274E+02 0.33710980E+02 0.32000000E+00 0.0000E+00 0.9000E+01
#aMCatNLO 1  0  0  2  2 0.15935309D+03 0.00000000D+00  -5  6  0 0.00000000D+00 0.00000000D+00 0.00000000D+00 0.00000000D+00 0.00000000D+00
  <mgrwgt>
 0.1822969252D+00    3    2    0
 0.140779583372000D+03 0.000000000000000D+00 0.000000000000000D+00 0.140779583372000D+03
 0.140779583372000D+03 0.000000000000000D+00 0.000000000000000D+00 -.140779583372000D+03
 0.143766226317488D+03 0.168898110176462D+02 0.315293274484740D+02 0.613544099801011D+02
 0.973561147297837D+02 -.408269666848337D+02 -.139779623423239D+02 -.338935463028041D+02
 0.404368256967290D+02 0.239371556671875D+02 -.175513651061501D+02 -.274608636772970D+02
 0.000000000000000D+00 0.000000000000000D+00 -.000000000000000D+00 0.000000000000000D+00
 0.288983263398618D+03 0.000000000000000D+00 0.000000000000000D+00 0.288983263398618D+03
 0.211663368337918D+03 0.000000000000000D+00 0.000000000000000D+00 -.211663368337918D+03
 0.174598789147608D+03 -.301669076013912D+02 0.100922402040249D+03 0.613544099801011D+02
 0.118288064779495D+03 -.727007812815064D+02 0.330253574543201D+02 -.338935463028041D+02
 0.306389899908808D+02 0.134316211487533D+02 -.205918116603920D+01 -.274608636772970D+02
 0.177120787818553D+03 0.894360677341443D+02 -.131888578328529D+03 0.773198950607003D+02
0.639145882571D-05 0.000000000000D+00 0.000000000000D+00 0.969648574868D-06 0.000000000000D+00  6 2 21 25 24 1 21 2 0.82932974D-01 0.56562083D-02 0.15745837D+05 0.15745837D+05 0.15745837D+05 0.12454272D+01  1  2  2  2  6  2       21 0.153079895625D+00 0.100000000000D+01
0.206749360453D-06 0.337286548657D-06 -.129025139082D-07 0.969648574868D-06 0.000000000000D+00  6 2 21 25 24 1 21 4 0.82932974D-01 0.56562083D-02 0.15745837D+05 0.15745837D+05 0.15745837D+05 0.12454272D+01  1  2  3  2  6  2       21 0.768066808622D-02 0.100000000000D+01
0.579718966846D-06 0.000000000000D+00 0.000000000000D+00 0.969648574868D-06 0.000000000000D+00  6 2 21 25 24 1 21 4 0.82932974D-01 0.56562083D-02 0.15745837D+05 0.15745837D+05 0.15745837D+05 0.12454272D+01  1  2 15  2  6  2       21 0.215363615049D-01 0.100000000000D+01
  </mgrwgt>
  </event>
  <event>
  5     66 -.45638357E-03 0.27628523E+02 0.75467711E-02 0.11989868E+00
        2 -1    0    0  502    0 0.00000000E+00 0.00000000E+00 0.15977380E+04 0.15977381E+04 0.32000000E+00 0.0000E+00 0.9000E+01
       21 -1    0    0  501  502 0.00000000E+00 0.00000000E+00 -.99110802E+01 0.99394170E+01 0.75000000E+00 0.0000E+00 0.9000E+01
       25  1    1    2    0    0 -.46772628E+02 -.18103934E+02 0.94799190E+03 0.95751191E+03 0.12500000E+03 0.0000E+00 0.9000E+01
       24  1    1    2    0    0 0.34414529E+02 -.66048734E+01 0.49721063E+03 0.50488970E+03 0.80419002E+02 0.0000E+00 0.9000E+01
        1  1    1    2  501    0 0.12358099E+02 0.24708807E+02 0.14262443E+03 0.14527586E+03 0.32000000E+00 0.0000E+00 0.9000E+01
#aMCatNLO 1  0  0  2  1 0.26369102D+01 0.00000000D+00  -5  6  0 0.00000000D+00 0.00000000D+00 0.00000000D+00 0.00000000D+00 0.00000000D+00
  <mgrwgt>
 -.1870100022D+01   12    2    0
 0.125929001950080D+03 0.000000000000000D+00 0.000000000000000D+00 0.125929001950080D+03
 0.125929001950080D+03 0.000000000000000D+00 0.000000000000000D+00 -.125929001950080D+03
 0.135486388219815D+03 -.467730575879009D+02 -.181047916429363D+02 0.146989454143878D+02
 0.882058303788043D+02 0.344142501199843D+02 -.660543193013353D+01 -.922389376236490D+01
 0.281657853015400D+02 0.123588074679166D+02 0.247102235730698D+02 -.547505165202290D+01
 0.000000000000000D+00 0.000000000000000D+00 -.000000000000000D+00 -.000000000000000D+00
 0.128578090586874D+03 0.000000000000000D+00 0.000000000000000D+00 0.128578090586874D+03
 0.156604355873135D+04 0.000000000000000D+00 0.000000000000000D+00 -.156604355873135D+04
 0.141047137488641D+03 -.636418592108572D+02 0.171748468111316D+01 0.146989454143878D+02
 0.845911196631326D+02 0.238734758545796D+02 0.578087415304063D+01 -.922389376236490D+01
 0.307222162047227D+02 0.876658474252896D+01 0.289313907354877D+02 -.547505165202290D+01
 0.143826117596172D+04 0.310017986137487D+02 -.364297495696415D+02 -.143746546814447D+04
0.208885097317D-06 0.000000000000D+00 0.000000000000D+00 0.830484301861D-06 0.000000000000D+00  6 2 21 25 24 1 21 2 0.24580803D+00 0.15269638D-02 0.15629679D+05 0.15629679D+05 0.15629679D+05 0.12457917D+01  1  2  2  2  6  2       21 0.957954087882D-02 0.100000000000D+01
0.398827076633D-08 0.110231694299D-07 -.421678829019D-09 0.830484301861D-06 0.000000000000D+00  6 2 21 25 24 1 21 4 0.24580803D+00 0.15269638D-02 0.15629679D+05 0.15629679D+05 0.15629679D+05 0.12457917D+01  1  2  3  2  6  2       21 0.283865600498D-03 0.100000000000D+01
0.199048898741D-07 0.000000000000D+00 0.000000000000D+00 0.830484301861D-06 0.000000000000D+00  6 2 21 25 24 1 21 4 0.24580803D+00 0.15269638D-02 0.15629679D+05 0.15629679D+05 0.15629679D+05 0.12457917D+01  1  2 15  2  6  2       21 0.141673267639D-02 0.100000000000D+01
-.154193021370D-02 0.000000000000D+00 -.911437420068D-05 0.830484301861D-06 0.000000000000D+00  6 2 21 25 24 1 21 4 0.24580803D+00 0.19178113D-01 0.15629679D+05 0.15629679D+05 0.15629679D+05 0.12457917D+01  1  2  5  2  6  2       21 -.150234562993D+01 0.100000000000D+01
-.679242483830D-03 0.000000000000D+00 -.400936224113D-05 0.830484301861D-06 0.000000000000D+00  6 2 -1 25 24 1 -1 4 0.24580803D+00 0.19178113D-01 0.15629679D+05 0.15629679D+05 0.15629679D+05 0.12457917D+01  1  2  5  5  6  2       21 -.509902134482D-01 0.100000000000D+01
-.679242483830D-03 0.000000000000D+00 -.400936224113D-05 0.830484301861D-06 0.000000000000D+00  6 2 1 25 24 1 1 4 0.24580803D+00 0.19178113D-01 0.15629679D+05 0.15629679D+05 0.15629679D+05 0.12457917D+01  1  2  5  6  6  2       21 -.756555232385D-01 0.100000000000D+01
-.679242483830D-03 0.000000000000D+00 -.400936224113D-05 0.830484301861D-06 0.000000000000D+00  6 2 -2 25 24 1 -2 4 0.24580803D+00 0.19178113D-01 0.15629679D+05 0.15629679D+05 0.15629679D+05 0.12457917D+01  1  2  5  7  6  2       21 -.467872821521D-01 0.100000000000D+01
-.679242483830D-03 0.000000000000D+00 -.400936224113D-05 0.830484301861D-06 0.000000000000D+00  6 2 2 25 24 1 2 4 0.24580803D+00 0.19178113D-01 0.15629679D+05 0.15629679D+05 0.15629679D+05 0.12457917D+01  1  2  5  8  6  2       21 -.928850475905D-01 0.100000000000D+01
-.679242483830D-03 0.000000000000D+00 -.400936224113D-05 0.830484301861D-06 0.000000000000D+00  6 2 -3 25 24 1 -3 4 0.24580803D+00 0.19178113D-01 0.15629679D+05 0.15629679D+05 0.15629679D+05 0.12457917D+01  1  2  5  9  6  2       21 -.304416176757D-01 0.100000000000D+01
-.679242483830D-03 0.000000000000D+00 -.400936224113D-05 0.830484301861D-06 0.000000000000D+00  6 2 -4 25 24 1 -4 4 0.24580803D+00 0.19178113D-01 0.15629679D+05 0.15629679D+05 0.15629679D+05 0.12457917D+01  1  2  5  9  6  2       21 -.259181951133D-01 0.100000000000D+01
-.679242483830D-03 0.000000000000D+00 -.400936224113D-05 0.830484301861D-06 0.000000000000D+00  6 2 3 25 24 1 3 4 0.24580803D+00 0.19178113D-01 0.15629679D+05 0.15629679D+05 0.15629679D+05 0.12457917D+01  1  2  5 10  6  2       21 -.304384566243D-01 0.100000000000D+01
-.679242483830D-03 0.000000000000D+00 -.400936224113D-05 0.830484301861D-06 0.000000000000D+00  6 2 4 25 24 1 4 4 0.24580803D+00 0.19178113D-01 0.15629679D+05 0.15629679D+05 0.15629679D+05 0.12457917D+01  1  2  5 10  6  2       21 -.259181951133D-01 0.100000000000D+01
  </mgrwgt>
  </event>
  <event>
  6     66 0.45638357E-03 0.19892156E+03 0.75467711E-02 0.10151002E+00
        2 -1    0    0  502    0 0.00000000E+00 0.00000000E+00 0.53638156E+03 0.53638165E+03 0.32000000E+00 0.0000E+00 0.9000E+01
       21 -1    0    0  503  502 0.00000000E+00 0.00000000E+00 -.58876834E+03 0.58876882E+03 0.75000000E+00 0.0000E+00 0.9000E+01
       25  1    1    2    0    0 -.20034733E+03 0.31446669E+03 0.18947292E+03 0.43652416E+03 0.12500000E+03 0.0000E+00 0.9000E+01
       24  1    1    2    0    0 0.88579728E+02 -.99003379E+02 -.11331419E+02 0.15570374E+03 0.80419002E+02 0.0000E+00 0.9000E+01
        1  1    1    2  501    0 0.14938967E+03 0.61739343E+02 0.12810219E+02 0.16215185E+03 0.32000000E+00 0.0000E+00 0.9000E+01
       21  1    1    2  503  501 -.37622060E+02 -.27720266E+03 -.24333851E+03 0.37077072E+03 0.75000000E+00 0.0000E+00 0.9000E+01
#aMCatNLO 2  0  0  2  2 0.18659358D+02 0.00000000D+00  -5  6  0 0.00000000D+00 0.00000000D+00 0.00000000D+00 0.00000000D+00 0.00000000D+00
  <mgrwgt>
 0.8694053225D-02    1    2    0
 0.337034684621793D+03 0.000000000000000D+00 0.000000000000000D+00 0.337034684621793D+03
 0.337034684621793D+03 0.000000000000000D+00 0.000000000000000D+00 -.337034684621793D+03
 0.316720169806139D+03 -.219598643077766D+03 0.172622543321930D+03 0.816367531048470D+02
 0.213234608991255D+03 0.784726731933023D+02 -.173472236923494D+03 -.524519312889361D+02
 0.144114590446192D+03 0.141125969884464D+03 0.849693601564063D+00 -.291848218159109D+02
 0.000000000000000D+00 -.000000000000000D+00 -.000000000000000D+00 -.000000000000000D+00
 0.414095898501117D+03 0.000000000000000D+00 0.000000000000000D+00 0.414095898501117D+03
 0.762635806912323D+03 0.000000000000000D+00 0.000000000000000D+00 -.762635806912323D+03
 0.401644128935741D+03 -.200347489404250D+03 0.314466739641034D+03 0.816367531048470D+02
 0.163909860450513D+03 0.885796149651246D+02 -.990033995134869D+02 -.524519312889361D+02
 0.164258484188132D+03 0.149389934921364D+03 0.617393160599232D+02 -.291848218159109D+02
 0.446919231839054D+03 -.376220604822381D+02 -.277202656187470D+03 -.348539908411206D+03
0.798745701567D-04 0.000000000000D+00 0.000000000000D+00 0.417414713432D-07 0.988857812831D-11  6 2 21 25 24 1 21 4 0.82520226D-01 0.90579725D-01 0.24499523D+06 0.24499523D+06 0.24499523D+06 0.11294302D+01  1  2  1  2  6  2       21 0.869405322517D-02 0.100000000000D+01
  </mgrwgt>
  </event>
  <event>
  5     66 0.45638357E-03 0.89464261E+02 0.75467711E-02 0.10498115E+00
        2 -1    0    0  502    0 0.00000000E+00 0.00000000E+00 0.21670259E+04 0.21670259E+04 0.32000000E+00 0.0000E+00 0.9000E+01
       21 -1    0    0  501  502 0.00000000E+00 0.00000000E+00 -.25556381E+02 0.25567383E+02 0.75000000E+00 0.0000E+00 0.9000E+01
       25  1    1    2    0    0 -.14198682E+02 0.11482160E+03 0.12125516E+04 0.12244558E+04 0.12500000E+03 0.0000E+00 0.9000E+01
       24  1    1    2    0    0 -.60480070E+02 -.65557876E+02 0.81243175E+03 0.82126015E+03 0.80419002E+02 0.0000E+00 0.9000E+01
        1  1    1    2  501    0 0.74678752E+02 -.49263728E+02 0.11648619E+03 0.14687738E+03 0.32000000E+00 0.0000E+00 0.9000E+01
#aMCatNLO 1  0  0  1  2 0.24622702D+02 0.00000000D+00  -5  6  0 0.00000000D+00 0.00000000D+00 0.00000000D+00 0.00000000D+00 0.00000000D+00
  <mgrwgt>
 0.1228524181D+00    3    2    0
 0.235358082720086D+03 0.000000000000000D+00 0.000000000000000D+00 0.235358082720086D+03
 0.235358082720086D+03 0.000000000000000D+00 0.000000000000000D+00 -.235358082720086D+03
 0.187143173284952D+03 -.141987460407747D+02 0.114821645859368D+03 0.775367819823419D+02
 0.129359696969192D+03 -.604801139608903D+02 -.655578469587066D+02 0.480732749353245D+02
 0.154213295186026D+03 0.746788600016650D+02 -.492637989006612D+02 -.125610056917666D+03
 0.000000000000000D+00 -.000000000000000D+00 -.000000000000000D+00 -.000000000000000D+00
 0.384566821272146D+03 0.000000000000000D+00 0.000000000000000D+00 0.384566821272146D+03
 0.454384204233576D+03 0.000000000000000D+00 0.000000000000000D+00 -.454384204233576D+03
 0.215294205010236D+03 0.966827786219316D+02 0.123964036997650D+03 0.775367819823419D+02
 0.111459327029372D+03 0.587152728541435D+01 -.600870288148725D+02 0.480732749353245D+02
 0.221870902911952D+03 0.178299426916470D+03 -.407200874429819D+02 -.125610056917666D+03
 0.290326590554161D+03 -.280853732823816D+03 -.231569207397958D+02 -.698173829614304D+02
0.235742624781D-04 0.000000000000D+00 0.000000000000D+00 0.464166217536D-06 0.000000000000D+00  6 2 21 25 24 1 21 2 0.33338945D+00 0.39325990D-02 0.36078083D+05 0.36078083D+05 0.36078083D+05 0.12065781D+01  1  2  2  1  6  1        2 0.109189876862D+00 0.100000000000D+01
-.285696678004D-07 0.124404800926D-05 -.475896438972D-07 0.464166217536D-06 0.000000000000D+00  6 2 21 25 24 1 21 4 0.33338945D+00 0.39325990D-02 0.36078083D+05 0.36078083D+05 0.36078083D+05 0.12065781D+01  1  2  3  1  6  1        2 -.192646161346D-03 0.100000000000D+01
0.205474169747D-05 0.000000000000D+00 0.000000000000D+00 0.464166217536D-06 0.000000000000D+00  6 2 21 25 24 1 21 4 0.33338945D+00 0.39325990D-02 0.36078083D+05 0.36078083D+05 0.36078083D+05 0.12065781D+01  1  2 15  1  6  1        2 0.138551873736D-01 0.100000000000D+01
  </mgrwgt>
  </event>
  <event>
  5     66 0.45638357E-03 0.35898170E+02 0.75467711E-02 0.12198567E+00
        2 -1    0    0  502    0 0.00000000E+00 0.00000000E+00 0.15652667E+04 0.15652668E+04 0.32000000E+00 0.0000E+00 0.9000E+01
       21 -1    0    0  501  502 0.00000000E+00 0.00000000E+00 -.28711961E+02 0.28721755E+02 0.75000000E+00 0.0000E+00 0.9000E+01
       25  1    1    2    0    0 -.23000556E+02 -.61524746E+02 0.65423201E+03 0.66929728E+03 0.12500000E+03 0.0000E+00 0.9000E+01
       24  1    1    2    0    0 0.20436853E+02 0.25718297E+02 0.88447168E+03 0.88872744E+03 0.80419002E+02 0.0000E+00 0.9000E+01
        1  1    1    2  501    0 0.25637029E+01 0.35806449E+02 -.21489258E+01 0.35963796E+02 0.32000000E+00 0.0000E+00 0.9000E+01
#aMCatNLO 1  0  0  2  5 0.78790950D+01 0.00000000D+00  -5  6  0 0.00000000D+00 0.00000000D+00 0.00000000D+00 0.00000000D+00 0.00000000D+00
  <mgrwgt>
 0.7850075095D+00   41    2    0
 0.212013463189198D+03 0.000000000000000D+00 0.000000000000000D+00 0.212013463189198D+03
 0.212013463189198D+03 0.000000000000000D+00 0.000000000000000D+00 -.212013463189198D+03
 0.145247554232610D+03 -.230005578415020D+02 -.615247766827167D+02 0.340224661610040D+02
 0.135798431695846D+03 0.204368506920025D+02 0.257182684679865D+02 0.104378656331082D+03
 0.142980940449940D+03 0.256370714949950D+01 0.358065082147303D+02 -.138401122492086D+03
 0.000000000000000D+00 0.000000000000000D+00 0.000000000000000D+00 -.000000000000000D+00
 0.212459850987372D+03 0.000000000000000D+00 0.000000000000000D+00 0.212459850987372D+03
 0.249923255915513D+03 0.000000000000000D+00 0.000000000000000D+00 -.249923255915513D+03
 0.146240359696070D+03 -.252980293679875D+02 -.629581155249717D+02 0.340224661610040D+02
 0.135246732714502D+03 0.183005063776488D+02 0.243854531312593D+02 0.104378656331082D+03
 0.142613030711615D+03 0.312690947708949D+00 0.344021517648780D+02 -.138401122492086D+03
 0.382829837806985D+02 0.668483204262971D+01 0.417051062883435D+01 -.374634049281407D+02
0.168901258519D-05 0.000000000000D+00 0.000000000000D+00 0.355998119947D-05 0.000000000000D+00  6 2 21 25 24 1 21 2 0.24081102D+00 0.44179806D-02 0.17420613D+05 0.17420613D+05 0.17420613D+05 0.12404830D+01  1  2  2  2  6  2       21 0.141101951354D-01 0.100000000000D+01
0.222920206762D-06 0.891316428739D-07 -.340962978340D-08 0.355998119947D-05 0.000000000000D+00  6 2 21 25 24 1 21 4 0.24081102D+00 0.44179806D-02 0.17420613D+05 0.17420613D+05 0.17420613D+05 0.12404830D+01  1  2  3  2  6  2       21 0.286570306650D-02 0.100000000000D+01
0.165767552031D-06 0.000000000000D+00 0.000000000000D+00 0.355998119947D-05 0.000000000000D+00  6 2 21 25 24 1 21 4 0.24081102D+00 0.44179806D-02 0.17420613D+05 0.17420613D+05 0.17420613D+05 0.12404830D+01  1  2 15  2  6  2       21 0.213098933058D-02 0.100000000000D+01
0.688057809884D-04 0.000000000000D+00 0.000000000000D+00 0.354637599011D-05 0.000000000000D+00  6 2 21 25 24 1 21 4 0.24081102D+00 0.52120821D-02 0.18294572D+05 0.18294572D+05 0.18294572D+05 0.12381103D+01  1  2 12  2  6  2       21 0.664813342539D+00 0.100000000000D+01
0.446405817735D-04 0.000000000000D+00 0.000000000000D+00 0.354637599011D-05 0.000000000000D+00  6 2 21 25 24 1 21 4 0.24081102D+00 0.56374690D-02 0.18294572D+05 0.18294572D+05 0.18294572D+05 0.12381103D+01  1  2 12  2  6  2       21 0.377812478341D+00 0.100000000000D+01
-.487998666909D-04 0.000000000000D+00 0.000000000000D+00 0.355998119947D-05 0.000000000000D+00  6 2 21 25 24 1 21 4 0.24081102D+00 0.44179806D-02 0.17420613D+05 0.17420613D+05 0.17420613D+05 0.12404830D+01  1  2  4  2  6  2       21 -.627336254762D+00 0.100000000000D+01
-.144690647334D-03 0.000000000000D+00 -.344582910517D-05 0.355998119947D-05 0.000000000000D+00  6 2 21 25 24 1 21 4 0.24081102D+00 0.52160443D-02 0.17420613D+05 0.17420613D+05 0.17420613D+05 0.12404830D+01  1  2  5  2  6  2       21 -.140789661224D+01 0.100000000000D+01
0.136709311247D-03 0.000000000000D+00 0.326297122813D-05 0.355998119947D-05 0.000000000000D+00  6 2 21 25 24 1 21 4 0.24081102D+00 0.44179806D-02 0.17420613D+05 0.17420613D+05 0.17420613D+05 0.12404830D+01  1  2  6  2  6  2       21 0.175743732768D+01 0.100000000000D+01
0.313460756543D-06 0.000000000000D+00 0.000000000000D+00 0.355998119947D-05 0.114056067932D-05  6 2 21 25 24 1 21 4 0.24131804D+00 0.52079528D-02 0.18294572D+05 0.18294572D+05 0.18294572D+05 0.12381103D+01  1  2 11  2  6  2       21 0.302088507002D-02 0.100000000000D+01
0.330112096155D-05 0.000000000000D+00 0.000000000000D+00 0.354637599011D-05 0.000000000000D+00  6 2 -1 25 24 1 -1 4 0.24081102D+00 0.52120821D-02 0.18294572D+05 0.18294572D+05 0.18294572D+05 0.12381103D+01  1  2 12  5  6  2       21 0.183854888514D-02 0.100000000000D+01
0.346730628860D-05 0.000000000000D+00 0.000000000000D+00 0.354637599011D-05 0.000000000000D+00  6 2 -1 25 24 1 -1 4 0.24081102D+00 0.56374690D-02 0.18294572D+05 0.18294572D+05 0.18294572D+05 0.12381103D+01  1  2 12  5  6  2       21 0.171892791655D-02 0.100000000000D+01
-.689016270003D-05 0.000000000000D+00 -.158263714387D-06 0.355998119947D-05 0.000000000000D+00  6 2 -1 25 24 1 -1 4 0.24081102D+00 0.52160443D-02 0.17420613D+05 0.17420613D+05 0.17420613D+05 0.12404830D+01  1  2  5  5  6  2       21 -.386231372943D-02 0.100000000000D+01
0.488110750225D-07 0.000000000000D+00 0.000000000000D+00 0.355998119947D-05 0.172580984355D-06  6 2 -1 25 24 1 -1 4 0.24131804D+00 0.52079528D-02 0.18294572D+05 0.18294572D+05 0.18294572D+05 0.12381103D+01  1  2 11  5  6  2       21 0.271105456673D-04 0.100000000000D+01
0.330112096155D-05 0.000000000000D+00 0.000000000000D+00 0.354637599011D-05 0.000000000000D+00  6 2 1 25 24 1 1 4 0.24081102D+00 0.52120821D-02 0.18294572D+05 0.18294572D+05 0.18294572D+05 0.12381103D+01  1  2 12  6  6  2       21 0.208238609179D-02 0.100000000000D+01
0.346730628860D-05 0.000000000000D+00 0.000000000000D+00 0.354637599011D-05 0.000000000000D+00  6 2 1 25 24 1 1 4 0.24081102D+00 0.56374690D-02 0.18294572D+05 0.18294572D+05 0.18294572D+05 0.12381103D+01  1  2 12  6  6  2       21 0.196542573191D-02 0.100000000000D+01
-.689016270003D-05 0.000000000000D+00 -.158263714387D-06 0.355998119947D-05 0.000000000000D+00  6 2 1 25 24 1 1 4 0.24081102D+00 0.52160443D-02 0.17420613D+05 0.17420613D+05 0.17420613D+05 0.12404830D+01  1  2  5  6  6  2       21 -.437528115130D-02 0.100000000000D+01
0.515585988665D-07 0.000000000000D+00 0.000000000000D+00 0.355998119947D-05 0.330094558963D-07  6 2 1 25 24 1 1 4 0.24131804D+00 0.52079528D-02 0.18294572D+05 0.18294572D+05 0.18294572D+05 0.12381103D+01  1  2 11  6  6  2       21 0.324314916802D-04 0.100000000000D+01
0.330112096155D-05 0.000000000000D+00 0.000000000000D+00 0.354637599011D-05 0.000000000000D+00  6 2 -2 25 24 1 -2 4 0.24081102D+00 0.52120821D-02 0.18294572D+05 0.18294572D+05 0.18294572D+05 0.12381103D+01  1  2 12  7  6  2       21 0.179558224655D-02 0.100000000000D+01
0.346730628860D-05 0.000000000000D+00 0.000000000000D+00 0.354637599011D-05 0.000000000000D+00  6 2 -2 25 24 1 -2 4 0.24081102D+00 0.56374690D-02 0.18294572D+05 0.18294572D+05 0.18294572D+05 0.12381103D+01  1  2 12  7  6  2       21 0.167559553810D-02 0.100000000000D+01
-.689016270003D-05 0.000000000000D+00 -.158263714387D-06 0.355998119947D-05 0.000000000000D+00  6 2 -2 25 24 1 -2 4 0.24081102D+00 0.52160443D-02 0.17420613D+05 0.17420613D+05 0.17420613D+05 0.12404830D+01  1  2  5  7  6  2       21 -.377191221639D-02 0.100000000000D+01
0.399070272313D-07 0.000000000000D+00 0.000000000000D+00 0.355998119947D-05 0.470600658606D-07  6 2 -2 25 24 1 -2 4 0.24131804D+00 0.52079528D-02 0.18294572D+05 0.18294572D+05 0.18294572D+05 0.12381103D+01  1  2 11  7  6  2       21 0.216474791925D-04 0.100000000000D+01
0.330112096155D-05 0.000000000000D+00 0.000000000000D+00 0.354637599011D-05 0.000000000000D+00  6 2 2 25 24 1 2 4 0.24081102D+00 0.52120821D-02 0.18294572D+05 0.18294572D+05 0.18294572D+05 0.12381103D+01  1  2 12  8  6  2       21 0.224607468541D-02 0.100000000000D+01
0.346730628860D-05 0.000000000000D+00 0.000000000000D+00 0.354637599011D-05 0.000000000000D+00  6 2 2 25 24 1 2 4 0.24081102D+00 0.56374690D-02 0.18294572D+05 0.18294572D+05 0.18294572D+05 0.12381103D+01  1  2 12  8  6  2       21 0.213078785032D-02 0.100000000000D+01
-.689016270003D-05 0.000000000000D+00 -.158263714387D-06 0.355998119947D-05 0.000000000000D+00  6 2 2 25 24 1 2 4 0.24081102D+00 0.52160443D-02 0.17420613D+05 0.17420613D+05 0.17420613D+05 0.12404830D+01  1  2  5  8  6  2       21 -.471955836390D-02 0.100000000000D+01
0.396706246602D-07 0.000000000000D+00 0.000000000000D+00 0.355998119947D-05 0.468484652581D-07  6 2 2 25 24 1 2 4 0.24131804D+00 0.52079528D-02 0.18294572D+05 0.18294572D+05 0.18294572D+05 0.12381103D+01  1  2 11  8  6  2       21 0.269138614665D-04 0.100000000000D+01
0.330112096155D-05 0.000000000000D+00 0.000000000000D+00 0.354637599011D-05 0.000000000000D+00  6 2 -3 25 24 1 -3 4 0.24081102D+00 0.52120821D-02 0.18294572D+05 0.18294572D+05 0.18294572D+05 0.12381103D+01  1  2 12  9  6  2       21 0.130051032916D-02 0.100000000000D+01
0.330112096155D-05 0.000000000000D+00 0.000000000000D+00 0.354637599011D-05 0.000000000000D+00  6 2 -4 25 24 1 -4 4 0.24081102D+00 0.52120821D-02 0.18294572D+05 0.18294572D+05 0.18294572D+05 0.12381103D+01  1  2 12  9  6  2       21 0.115680197574D-02 0.100000000000D+01
0.346730628860D-05 0.000000000000D+00 0.000000000000D+00 0.354637599011D-05 0.000000000000D+00  6 2 -3 25 24 1 -3 4 0.24081102D+00 0.56374690D-02 0.18294572D+05 0.18294572D+05 0.18294572D+05 0.12381103D+01  1  2 12  9  6  2       21 0.120592616226D-02 0.100000000000D+01
0.346730628860D-05 0.000000000000D+00 0.000000000000D+00 0.354637599011D-05 0.000000000000D+00  6 2 -4 25 24 1 -4 4 0.24081102D+00 0.56374690D-02 0.18294572D+05 0.18294572D+05 0.18294572D+05 0.12381103D+01  1  2 12  9  6  2       21 0.107043333239D-02 0.100000000000D+01
-.689016270003D-05 0.000000000000D+00 -.158263714387D-06 0.355998119947D-05 0.000000000000D+00  6 2 -3 25 24 1 -3 4 0.24081102D+00 0.52160443D-02 0.17420613D+05 0.17420613D+05 0.17420613D+05 0.12404830D+01  1  2  5  9  6  2       21 -.272878086710D-02 0.100000000000D+01
-.689016270003D-05 0.000000000000D+00 -.158263714387D-06 0.355998119947D-05 0.000000000000D+00  6 2 -4 25 24 1 -4 4 0.24081102D+00 0.52160443D-02 0.17420613D+05 0.17420613D+05 0.17420613D+05 0.12404830D+01  1  2  5  9  6  2       21 -.242598438376D-02 0.100000000000D+01
0.399090094356D-07 0.000000000000D+00 0.000000000000D+00 0.355998119947D-05 0.470624033604D-07  6 2 -3 25 24 1 -3 4 0.24131804D+00 0.52079528D-02 0.18294572D+05 0.18294572D+05 0.18294572D+05 0.12381103D+01  1  2 11  9  6  2       21 0.156806903210D-04 0.100000000000D+01
0.399090094356D-07 0.000000000000D+00 0.000000000000D+00 0.355998119947D-05 0.470624033604D-07  6 2 -4 25 24 1 -4 4 0.24131804D+00 0.52079528D-02 0.18294572D+05 0.18294572D+05 0.18294572D+05 0.12381103D+01  1  2 11  9  6  2       21 0.139482402199D-04 0.100000000000D+01
0.330112096155D-05 0.000000000000D+00 0.000000000000D+00 0.354637599011D-05 0.000000000000D+00  6 2 3 25 24 1 3 4 0.24081102D+00 0.52120821D-02 0.18294572D+05 0.18294572D+05 0.18294572D+05 0.12381103D+01  1  2 12 10  6  2       21 0.130037829404D-02 0.100000000000D+01
0.330112096155D-05 0.000000000000D+00 0.000000000000D+00 0.354637599011D-05 0.000000000000D+00  6 2 4 25 24 1 4 4 0.24081102D+00 0.52120821D-02 0.18294572D+05 0.18294572D+05 0.18294572D+05 0.12381103D+01  1  2 12 10  6  2       21 0.115680197574D-02 0.100000000000D+01
0.346730628860D-05 0.000000000000D+00 0.000000000000D+00 0.354637599011D-05 0.000000000000D+00  6 2 3 25 24 1 3 4 0.24081102D+00 0.56374690D-02 0.18294572D+05 0.18294572D+05 0.18294572D+05 0.12381103D+01  1  2 12 10  6  2       21 0.120579905122D-02 0.100000000000D+01
0.346730628860D-05 0.000000000000D+00 0.000000000000D+00 0.354637599011D-05 0.000000000000D+00  6 2 4 25 24 1 4 4 0.24081102D+00 0.56374690D-02 0.18294572D+05 0.18294572D+05 0.18294572D+05 0.12381103D+01  1  2 12 10  6  2       21 0.107043333239D-02 0.100000000000D+01
-.689016270003D-05 0.000000000000D+00 -.158263714387D-06 0.355998119947D-05 0.000000000000D+00  6 2 3 25 24 1 3 4 0.24081102D+00 0.52160443D-02 0.17420613D+05 0.17420613D+05 0.17420613D+05 0.12404830D+01  1  2  5 10  6  2       21 -.272850257175D-02 0.100000000000D+01
-.689016270003D-05 0.000000000000D+00 -.158263714387D-06 0.355998119947D-05 0.000000000000D+00  6 2 4 25 24 1 4 4 0.24081102D+00 0.52160443D-02 0.17420613D+05 0.17420613D+05 0.17420613D+05 0.12404830D+01  1  2  5 10  6  2       21 -.242598438376D-02 0.100000000000D+01
0.399090094356D-07 0.000000000000D+00 0.000000000000D+00 0.355998119947D-05 0.470624033604D-07  6 2 3 25 24 1 3 4 0.24131804D+00 0.52079528D-02 0.18294572D+05 0.18294572D+05 0.18294572D+05 0.12381103D+01  1  2 11 10  6  2       21 0.156790989481D-04 0.100000000000D+01
0.399090094356D-07 0.000000000000D+00 0.000000000000D+00 0.355998119947D-05 0.470624033604D-07  6 2 4 25 24 1 4 4 0.24131804D+00 0.52079528D-02 0.18294572D+05 0.18294572D+05 0.18294572D+05 0.12381103D+01  1  2 11 10  6  2       21 0.139482402199D-04 0.100000000000D+01
  </mgrwgt>
  </event>
  <event>
  6     66 0.45638357E-03 0.13148200E+03 0.75467711E-02 0.11480484E+00
        2 -1    0    0  503    0 0.00000000E+00 0.00000000E+00 0.52315455E+03 0.52315465E+03 0.32000000E+00 0.0000E+00 0.9000E+01
       21 -1    0    0  501  502 0.00000000E+00 0.00000000E+00 -.11633187E+03 0.11633429E+03 0.75000000E+00 0.0000E+00 0.9000E+01
       25  1    1    2    0    0 -.34706343E+02 0.98564563E+01 0.32315535E+03 0.34836197E+03 0.12500000E+03 0.0000E+00 0.9000E+01
       24  1    1    2    0    0 -.97397975E+02 -.13251509E+02 0.60921181E+02 0.14085657E+03 0.80419002E+02 0.0000E+00 0.9000E+01
        1  1    1    2  501    0 0.13650310E+03 -.59172346E+01 0.26694705E+02 0.13921501E+03 0.32000000E+00 0.0000E+00 0.9000E+01
       21  1    1    2  503  502 -.43987805E+01 0.93122876E+01 -.39485567E+01 0.11055387E+02 0.75000000E+00 0.0000E+00 0.9000E+01
#aMCatNLO 2  0  0  1  2 0.10298931D+02 0.00000000D+00  -5  6  0 0.00000000D+00 0.00000000D+00 0.00000000D+00 0.00000000D+00 0.00000000D+00
  <mgrwgt>
 0.7640533997D-01    2    2    0
 0.237744428031366D+03 0.000000000000000D+00 0.000000000000000D+00 0.237744428031366D+03
 0.237744428031366D+03 0.000000000000000D+00 0.000000000000000D+00 -.237744428031366D+03
 0.181758011221625D+03 -.363851304046869D+02 0.134102588091582D+02 0.126123994098449D+03
 0.134176390042681D+03 -.986360694361195D+02 -.106306054449205D+02 -.411582765016058D+02
 0.159554454798425D+03 0.135021199840806D+03 -.277965336423770D+01 -.849657175968432D+02
 0.000000000000000D+00 -.000000000000000D+00 0.000000000000000D+00 -.000000000000000D+00
 0.239418673197383D+03 0.000000000000000D+00 0.000000000000000D+00 0.239418673197383D+03
 0.254184036880376D+03 0.000000000000000D+00 0.000000000000000D+00 -.254184036880376D+03
 0.181201404571054D+03 -.347064458416691D+02 0.985645718382763D+01 0.126123994098449D+03
 0.133503567829953D+03 -.973980516480186D+02 -.132515085761388D+02 -.411582765016058D+02
 0.160895406289476D+03 0.136503278033639D+03 -.591723621130078D+01 -.849657175968432D+02
 0.180023313872757D+02 -.439878054395093D+01 0.931228760361192D+01 -.147653636829936D+02
-.291348908154D-05 0.000000000000D+00 0.000000000000D+00 0.188729496255D-06 0.000000000000D+00  6 2 21 25 24 1 21 4 0.79920085D-01 0.16739329D-01 0.38737008D+05 0.38737008D+05 0.38737008D+05 0.12034178D+01  1  2  8  1  6  1        2 -.146416731757D-01 0.100000000000D+01
0.208324712796D-04 0.000000000000D+00 0.000000000000D+00 0.188729496255D-06 0.235058842186D-07  6 2 21 25 24 1 21 4 0.80482899D-01 0.17896824D-01 0.40810825D+05 0.40810825D+05 0.40810825D+05 0.12011162D+01  1  2  1  1  6  1        2 0.910470131485D-01 0.100000000000D+01
  </mgrwgt>
  </event>
  <event>
  6     66 0.45638357E-03 0.37889485E+02 0.75467711E-02 0.11705961E+00
        2 -1    0    0  502    0 0.00000000E+00 0.00000000E+00 0.14972892E+04 0.14972892E+04 0.32000000E+00 0.0000E+00 0.9000E+01
       21 -1    0    0  501  503 0.00000000E+00 0.00000000E+00 -.29429799E+02 0.29439354E+02 0.75000000E+00 0.0000E+00 0.9000E+01
       25  1    1    2    0    0 -.22791359E+02 -.69032271E+02 0.63728923E+03 0.65348869E+03 0.12500000E+03 0.0000E+00 0.9000E+01
       24  1    1    2    0    0 0.15664928E+02 0.11911573E+03 0.64072795E+03 0.65683595E+03 0.80419002E+02 0.0000E+00 0.9000E+01
        1  1    1    2  501    0 -.15726705E+02 -.90548583E+01 0.15940357E+03 0.16043354E+03 0.32000000E+00 0.0000E+00 0.9000E+01
       21  1    1    2  502  503 0.22853136E+02 -.41028602E+02 0.30438636E+02 0.55970395E+02 0.75000000E+00 0.0000E+00 0.9000E+01
#aMCatNLO 2  0  0  2  5 0.16642347D+01 0.00000000D+00  -5  6  0 0.00000000D+00 0.00000000D+00 0.00000000D+00 0.00000000D+00 0.00000000D+00
  <mgrwgt>
 0.1272770137D+00    1    2    0
 0.153903860913384D+03 0.000000000000000D+00 0.000000000000000D+00 0.153903860913384D+03
 0.153903860913384D+03 0.000000000000000D+00 0.000000000000000D+00 -.153903860913384D+03
 0.153935030977909D+03 -.117664586960437D+02 -.888235184979071D+02 -.655185268271117D+01
 0.131647803456604D+03 0.258647359255206D+02 0.100805505339975D+03 -.576139993695697D+01
 0.222248873922553D+02 -.140982772294769D+02 -.119819868420675D+02 0.123132526196681D+02
 0.000000000000000D+00 0.000000000000000D+00 -.000000000000000D+00 -.000000000000000D+00
 0.160309613127296D+03 0.000000000000000D+00 0.000000000000000D+00 0.160309613127296D+03
 0.274915712671959D+03 0.000000000000000D+00 0.000000000000000D+00 -.274915712671959D+03
 0.144750522761128D+03 -.227906001396547D+02 -.690317000465603D+02 -.655185268271117D+01
 0.144687663772514D+03 0.156655105579565D+02 0.119116338691645D+03 -.576139993695697D+01
 0.219316990338896D+02 -.157280462234409D+02 -.905603635320977D+01 0.123132526196681D+02
 0.123855440231724D+03 0.228531358051391D+02 -.410286022918745D+02 -.114606099544663D+03
0.104771254076D-04 0.000000000000D+00 0.000000000000D+00 0.378483052617D-06 0.356586261475D-08  6 2 21 25 24 1 21 4 0.23035133D+00 0.45283677D-02 0.31379986D+05 0.31379986D+05 0.31379986D+05 0.12128538D+01  1  2  1  2  6  2       21 0.127277013683D+00 0.100000000000D+01
  </mgrwgt>
  </event>
  <event>
  6     66 0.45638357E-03 0.68792697E+02 0.75467711E-02 0.11587070E+00
        2 -1    0    0  502    0 0.00000000E+00 0.00000000E+00 0.23814488E+03 0.23814510E+03 0.32000000E+00 0.0000E+00 0.9000E+01
        2 -1    0    0  501    0 0.00000000E+00 0.00000000E+00 -.14082408E+04 0.14082408E+04 0.32000000E+00 0.0000E+00 0.9000E+01
       25  1    1    2    0    0 -.76401397E+02 0.21762236E+02 0.11952138E+03 0.19031850E+03 0.12500000E+03 0.0000E+00 0.9000E+01
       24  1    1    2    0    0 0.42083971E+02 -.63708930E+02 0.12186785E+02 0.11155995E+03 0.80419002E+02 0.0000E+00 0.9000E+01
        1  1    1    2  501    0 -.63376156E+01 -.33852831E+02 0.50632208E+01 0.34812615E+02 0.32000000E+00 0.0000E+00 0.9000E+01
        2  1    1    2  502    0 0.40655042E+02 0.75799525E+02 -.13068673E+04 0.13096948E+04 0.32000000E+00 0.0000E+00 0.9000E+01
#aMCatNLO 2  0  0  2  1 0.57453586D+01 0.00000000D+00  -5  6  0 0.00000000D+00 0.00000000D+00 0.00000000D+00 0.00000000D+00 0.00000000D+00
  <mgrwgt>
 0.1193964373D+00    1    2    0
 0.147695680010548D+03 0.000000000000000D+00 0.000000000000000D+00 0.147695680010548D+03
 0.147695680010548D+03 0.000000000000000D+00 0.000000000000000D+00 -.147695680010548D+03
 0.156656655829522D+03 -.553811534784752D+02 0.609543255824472D+02 0.461931363718899D+02
 0.110958479890137D+03 0.574297012773422D+02 -.350969464268301D+02 -.362574415515898D+02
 0.277762243014367D+02 -.204854779886705D+01 -.258573791556172D+02 -.993569482030006D+01
 0.000000000000000D+00 0.000000000000000D+00 0.000000000000000D+00 -.000000000000000D+00
 0.154748496421939D+03 0.000000000000000D+00 0.000000000000000D+00 0.154748496421939D+03
 0.216716472254250D+04 0.000000000000000D+00 0.000000000000000D+00 -.216716472254250D+04
 0.155143823396501D+03 -.764013680665555D+02 0.217630661390173D+02 0.461931363718899D+02
 0.116668853498809D+03 0.420840693340389D+02 -.637081977674526D+02 -.362574415515898D+02
 0.358469662718884D+02 -.633774299814758D+01 -.338543937034058D+02 -.993569482030006D+01
 0.201425357579725D+04 0.406550417306642D+02 0.757995253318410D+02 -.201241622612057D+04
0.164843610014D-02 0.000000000000D+00 0.000000000000D+00 0.681297459934D-06 0.785544688681D-07  6 2 2 25 24 1 2 4 0.36637690D-01 0.21665243D+00 0.35996674D+05 0.35996674D+05 0.35996674D+05 0.12066790D+01  1  2  1  8  6  2       21 0.119396437342D+00 0.100000000000D+01
  </mgrwgt>
  </event>
  <event>
  5     66 0.45638357E-03 0.18658333E+03 0.75467711E-02 0.10749199E+00
        2 -1    0    0  502    0 0.00000000E+00 0.00000000E+00 0.65284679E+03 0.65284687E+03 0.32000000E+00 0.0000E+00 0.9000E+01
       21 -1    0    0  501  502 0.00000000E+00 0.00000000E+00 -.72574477E+03 0.72574515E+03 0.75000000E+00 0.0000E+00 0.9000E+01
       25  1    1    2    0    0 0.36325737E+02 0.15268573E+02 0.17786687E+03 0.22093961E+03 0.12500000E+03 0.0000E+00 0.9000E+01
       24  1    1    2    0    0 -.16244067E+03 -.21146830E+03 0.38801243E+03 0.47762608E+03 0.80419002E+02 0.0000E+00 0.9000E+01
        1  1    1    2  501    0 0.12611494E+03 0.19619973E+03 -.63877727E+03 0.68002633E+03 0.32000000E+00 0.0000E+00 0.9000E+01
#aMCatNLO 1  0  0  2  1 0.42923765D+00 0.00000000D+00  -5  6  0 0.00000000D+00 0.00000000D+00 0.00000000D+00 0.00000000D+00 0.00000000D+00
  <mgrwgt>
 0.6211326950D-01   23    2    0
 0.688331651918350D+03 0.000000000000000D+00 0.000000000000000D+00 0.688331651918350D+03
 0.688331651918350D+03 0.000000000000000D+00 0.000000000000000D+00 -.688331651918350D+03
 0.230667678781953D+03 0.363257340295981D+02 0.152685691105347D+02 0.189815410015051D+03
 0.498841557634795D+03 -.162440677323402D+03 -.211468312527005D+03 0.413847632368282D+03
 0.647154067419953D+03 0.126114943293804D+03 0.196199743416470D+03 -.603663042383333D+03
 0.000000000000000D+00 0.000000000000000D+00 0.000000000000000D+00 -.000000000000000D+00
 0.688511547632435D+03 0.000000000000000D+00 0.000000000000000D+00 0.688511547632435D+03
 0.688587777125675D+03 0.000000000000000D+00 0.000000000000000D+00 -.688587777125675D+03
 0.230656203206042D+03 0.362736336697248D+02 0.152189913805032D+02 0.189815410015051D+03
 0.498923725200385D+03 -.162553361561818D+03 -.211575540745094D+03 0.413847632368282D+03
 0.647083442347490D+03 0.125968776484209D+03 0.196060653808581D+03 -.603663042383333D+03
 0.435954004192442D+00 0.310951407884515D+00 0.295895556009795D+00 -.762294932405845D-01
0.115285134373D-03 0.000000000000D+00 0.000000000000D+00 0.587456183516D-06 0.000000000000D+00  6 2 21 25 24 1 21 2 0.10043800D+00 0.11165308D+00 0.10330428D+06 0.10330428D+06 0.10330428D+06 0.11622769D+01  1  2  2  2  6  2       21 0.525075913432D-02 0.100000000000D+01
0.244926581568D-05 0.608376368284D-05 -.232727471180D-06 0.587456183516D-06 0.000000000000D+00  6 2 21 25 24 1 21 4 0.10043800D+00 0.11165308D+00 0.10330428D+06 0.10330428D+06 0.10330428D+06 0.11622769D+01  1  2  3  2  6  2       21 0.150696772295D-03 0.100000000000D+01
0.106353846244D-04 0.000000000000D+00 0.000000000000D+00 0.587456183516D-06 0.000000000000D+00  6 2 21 25 24 1 21 4 0.10043800D+00 0.11165308D+00 0.10330428D+06 0.10330428D+06 0.10330428D+06 0.11622769D+01  1  2 15  2  6  2       21 0.654366759526D-03 0.100000000000D+01
-.124217598311D-01 0.000000000000D+00 0.000000000000D+00 0.587456183516D-06 0.000000000000D+00  6 2 21 25 24 1 21 4 0.10043800D+00 0.11165308D+00 0.10330428D+06 0.10330428D+06 0.10330428D+06 0.11622769D+01  1  2  4  2  6  2       21 -.764277646304D+00 0.100000000000D+01
-.739638845911D+00 0.000000000000D+00 -.531118802362D-01 0.587456183516D-06 0.000000000000D+00  6 2 21 25 24 1 21 4 0.10043800D+00 0.11171703D+00 0.10330428D+06 0.10330428D+06 0.10330428D+06 0.11622769D+01  1  2  5  2  6  2       21 -.454438265701D+02 0.100000000000D+01
0.739668778255D+00 0.000000000000D+00 0.531118454026D-01 0.587456183516D-06 0.000000000000D+00  6 2 21 25 24 1 21 4 0.10043800D+00 0.11165308D+00 0.10330428D+06 0.10330428D+06 0.10330428D+06 0.11622769D+01  1  2  6  2  6  2       21 0.455098408418D+02 0.100000000000D+01
0.124181153491D-01 0.000000000000D+00 0.000000000000D+00 0.587456183516D-06 0.232575729328D-04  6 2 21 25 24 1 21 4 0.10046425D+00 0.11169462D+00 0.10342007D+06 0.10342007D+06 0.10342007D+06 0.11622324D+01  1  2 11  2  6  2       21 0.762937558913D+00 0.100000000000D+01
-.874456637106D-04 0.000000000000D+00 -.676457478661D-05 0.587456183516D-06 0.000000000000D+00  6 2 -1 25 24 1 -1 4 0.10043800D+00 0.11171703D+00 0.10330428D+06 0.10330428D+06 0.10330428D+06 0.11622769D+01  1  2  5  5  6  2       21 -.650349711736D-03 0.100000000000D+01
0.860882292851D-05 0.000000000000D+00 0.000000000000D+00 0.587456183516D-06 0.137299103063D-07  6 2 -1 25 24 1 -1 4 0.10046425D+00 0.11169462D+00 0.10342007D+06 0.10342007D+06 0.10342007D+06 0.11622324D+01  1  2 11  5  6  2       21 0.640227704665D-04 0.100000000000D+01
-.874456637106D-04 0.000000000000D+00 -.676457478661D-05 0.587456183516D-06 0.000000000000D+00  6 2 1 25 24 1 1 4 0.10043800D+00 0.11171703D+00 0.10330428D+06 0.10330428D+06 0.10330428D+06 0.11622769D+01  1  2  5  6  6  2       21 -.263639326385D-02 0.100000000000D+01
0.918629527968D-05 0.000000000000D+00 0.000000000000D+00 0.587456183516D-06 0.216796792588D-08  6 2 1 25 24 1 1 4 0.10046425D+00 0.11169462D+00 0.10342007D+06 0.10342007D+06 0.10342007D+06 0.11622324D+01  1  2 11  6  6  2       21 0.276899946940D-03 0.100000000000D+01
-.874456637106D-04 0.000000000000D+00 -.676457478661D-05 0.587456183516D-06 0.000000000000D+00  6 2 -2 25 24 1 -2 4 0.10043800D+00 0.11171703D+00 0.10330428D+06 0.10330428D+06 0.10330428D+06 0.11622769D+01  1  2  5  7  6  2       21 -.482522143137D-03 0.100000000000D+01
0.904225881723D-05 0.000000000000D+00 0.000000000000D+00 0.587456183516D-06 0.426473464315D-08  6 2 -2 25 24 1 -2 4 0.10046425D+00 0.11169462D+00 0.10342007D+06 0.10342007D+06 0.10342007D+06 0.11622324D+01  1  2 11  7  6  2       21 0.498937922418D-04 0.100000000000D+01
-.874456637106D-04 0.000000000000D+00 -.676457478661D-05 0.587456183516D-06 0.000000000000D+00  6 2 2 25 24 1 2 4 0.10043800D+00 0.11171703D+00 0.10330428D+06 0.10330428D+06 0.10330428D+06 0.11622769D+01  1  2  5  8  6  2       21 -.450427798069D-02 0.100000000000D+01
0.541419867289D-05 0.000000000000D+00 0.000000000000D+00 0.587456183516D-06 0.405685253999D-08  6 2 2 25 24 1 2 4 0.10046425D+00 0.11169462D+00 0.10342007D+06 0.10342007D+06 0.10342007D+06 0.11622324D+01  1  2 11  8  6  2       21 0.278812431758D-03 0.100000000000D+01
-.874456637106D-04 0.000000000000D+00 -.676457478661D-05 0.587456183516D-06 0.000000000000D+00  6 2 -3 25 24 1 -3 4 0.10043800D+00 0.11171703D+00 0.10330428D+06 0.10330428D+06 0.10330428D+06 0.11622769D+01  1  2  5  9  6  2       21 -.312398737476D-03 0.100000000000D+01
-.874456637106D-04 0.000000000000D+00 -.676457478661D-05 0.587456183516D-06 0.000000000000D+00  6 2 -4 25 24 1 -4 4 0.10043800D+00 0.11171703D+00 0.10330428D+06 0.10330428D+06 0.10330428D+06 0.11622769D+01  1  2  5  9  6  2       21 -.252041430408D-03 0.100000000000D+01
0.904227532389D-05 0.000000000000D+00 0.000000000000D+00 0.587456183516D-06 0.426474242843D-08  6 2 -3 25 24 1 -3 4 0.10046425D+00 0.11169462D+00 0.10342007D+06 0.10342007D+06 0.10342007D+06 0.11622324D+01  1  2 11  9  6  2       21 0.323030558805D-04 0.100000000000D+01
0.904227532389D-05 0.000000000000D+00 0.000000000000D+00 0.587456183516D-06 0.426474242843D-08  6 2 -4 25 24 1 -4 4 0.10046425D+00 0.11169462D+00 0.10342007D+06 0.10342007D+06 0.10342007D+06 0.11622324D+01  1  2 11  9  6  2       21 0.260623798464D-04 0.100000000000D+01
-.874456637106D-04 0.000000000000D+00 -.676457478661D-05 0.587456183516D-06 0.000000000000D+00  6 2 3 25 24 1 3 4 0.10043800D+00 0.11171703D+00 0.10330428D+06 0.10330428D+06 0.10330428D+06 0.11622769D+01  1  2  5 10  6  2       21 -.313150334427D-03 0.100000000000D+01
-.874456637106D-04 0.000000000000D+00 -.676457478661D-05 0.587456183516D-06 0.000000000000D+00  6 2 4 25 24 1 4 4 0.10043800D+00 0.11171703D+00 0.10330428D+06 0.10330428D+06 0.10330428D+06 0.11622769D+01  1  2  5 10  6  2       21 -.252041430408D-03 0.100000000000D+01
0.904227532389D-05 0.000000000000D+00 0.000000000000D+00 0.587456183516D-06 0.426474242843D-08  6 2 3 25 24 1 3 4 0.10046425D+00 0.11169462D+00 0.10342007D+06 0.10342007D+06 0.10342007D+06 0.11622324D+01  1  2 11 10  6  2       21 0.323807469944D-04 0.100000000000D+01
0.904227532389D-05 0.000000000000D+00 0.000000000000D+00 0.587456183516D-06 0.426474242843D-08  6 2 4 25 24 1 4 4 0.10046425D+00 0.11169462D+00 0.10342007D+06 0.10342007D+06 0.10342007D+06 0.11622324D+01  1  2 11 10  6  2       21 0.260623798464D-04 0.100000000000D+01
  </mgrwgt>
  </event>
  <event>
  5     66 0.45638357E-03 0.30140511E+02 0.75467711E-02 0.10971186E+00
        2 -1    0    0  502    0 0.00000000E+00 0.00000000E+00 0.26387860E+04 0.26387860E+04 0.32000000E+00 0.0000E+00 0.9000E+01
       21 -1    0    0  501  502 0.00000000E+00 0.00000000E+00 -.23994140E+02 0.24005858E+02 0.75000000E+00 0.0000E+00 0.9000E+01
       25  1    1    2    0    0 -.19813702E+03 -.39588271E+02 0.97834466E+03 0.10067814E+04 0.12500000E+03 0.0000E+00 0.9000E+01
       24  1    1    2    0    0 0.19226751E+03 0.69150237E+02 0.15174823E+04 0.15332867E+04 0.80419002E+02 0.0000E+00 0.9000E+01
        1  1    1    2  501    0 0.58695074E+01 -.29561966E+02 0.11896493E+03 0.12272375E+03 0.32000000E+00 0.0000E+00 0.9000E+01
#aMCatNLO 1  0  0  2  1 0.63557513D+02 0.00000000D+00  -5  6  0 0.00000000D+00 0.00000000D+00 0.00000000D+00 0.00000000D+00 0.00000000D+00
  <mgrwgt>
 0.3718829629D+00   14    2    0
 0.251656566724828D+03 0.000000000000000D+00 0.000000000000000D+00 0.251656566724828D+03
 0.251656566724828D+03 0.000000000000000D+00 0.000000000000000D+00 -.251656566724828D+03
 0.243748161371245D+03 -.198137166871373D+03 -.395875197273857D+02 -.544302999980905D+02
 0.228333494288304D+03 0.192267370445446D+03 0.691509410241001D+02 0.626128922587972D+02
 0.312314777901052D+02 0.586979642592737D+01 -.295634212967145D+02 -.818259226070668D+01
 0.000000000000000D+00 0.000000000000000D+00 -.000000000000000D+00 -.000000000000000D+00
 0.268545259364401D+03 0.000000000000000D+00 0.000000000000000D+00 0.268545259364401D+03
 0.321477782374171D+03 0.000000000000000D+00 0.000000000000000D+00 -.321477782374171D+03
 0.258043944339079D+03 -.218537070863012D+03 -.155102646915637D+02 -.544302999980905D+02
 0.221114257862388D+03 0.173995478781959D+03 0.907165815167710D+02 0.626128922587972D+02
 0.281520261662059D+02 0.345561380804625D+01 -.267140505046952D+02 -.818259226070668D+01
 0.827128133708997D+02 0.410859782730063D+02 -.484922663205122D+02 -.529325230097702D+02
0.418519126546D-04 0.000000000000D+00 0.000000000000D+00 0.234942479830D-06 0.000000000000D+00  6 2 21 25 24 1 21 2 0.40596798D+00 0.36923090D-02 0.59368894D+05 0.59368894D+05 0.59368894D+05 0.11849647D+01  1  2  2  2  6  2       21 0.113713100958D+00 0.100000000000D+01
0.444817192464D-05 0.220858610826D-05 -.844869535791D-07 0.234942479830D-06 0.000000000000D+00  6 2 21 25 24 1 21 4 0.40596798D+00 0.36923090D-02 0.59368894D+05 0.59368894D+05 0.59368894D+05 0.11849647D+01  1  2  3  2  6  2       21 0.169702233286D-01 0.100000000000D+01
0.404549572620D-05 0.000000000000D+00 0.000000000000D+00 0.234942479830D-06 0.000000000000D+00  6 2 21 25 24 1 21 4 0.40596798D+00 0.36923090D-02 0.59368894D+05 0.59368894D+05 0.59368894D+05 0.11849647D+01  1  2 15  2  6  2       21 0.154339731269D-01 0.100000000000D+01
-.311799513277D-05 0.000000000000D+00 0.000000000000D+00 0.234942479830D-06 0.000000000000D+00  6 2 21 25 24 1 21 4 0.40596798D+00 0.36923090D-02 0.59368894D+05 0.59368894D+05 0.59368894D+05 0.11849647D+01  1  2  4  2  6  2       21 -.118954650668D-01 0.100000000000D+01
-.207280491042D-03 0.000000000000D+00 -.543955498086D-04 0.234942479830D-06 0.000000000000D+00  6 2 21 25 24 1 21 4 0.40596798D+00 0.51261610D-02 0.59368894D+05 0.59368894D+05 0.59368894D+05 0.11849647D+01  1  2  5  2  6  2       21 -.453861835713D+00 0.100000000000D+01
0.185561523408D-03 0.000000000000D+00 0.442584572340D-04 0.234942479830D-06 0.000000000000D+00  6 2 21 25 24 1 21 4 0.40596798D+00 0.36923090D-02 0.59368894D+05 0.59368894D+05 0.59368894D+05 0.11849647D+01  1  2  6  2  6  2       21 0.707935877206D+00 0.100000000000D+01
-.180398090470D-04 0.000000000000D+00 -.571741021391D-05 0.234942479830D-06 0.000000000000D+00  6 2 -1 25 24 1 -1 4 0.40596798D+00 0.51261610D-02 0.59368894D+05 0.59368894D+05 0.59368894D+05 0.11849647D+01  1  2  5  5  6  2       21 -.231867287224D-02 0.100000000000D+01
-.180398090470D-04 0.000000000000D+00 -.571741021391D-05 0.234942479830D-06 0.000000000000D+00  6 2 1 25 24 1 1 4 0.40596798D+00 0.51261610D-02 0.59368894D+05 0.59368894D+05 0.59368894D+05 0.11849647D+01  1  2  5  6  6  2       21 -.261671765142D-02 0.100000000000D+01
-.180398090470D-04 0.000000000000D+00 -.571741021391D-05 0.234942479830D-06 0.000000000000D+00  6 2 -2 25 24 1 -2 4 0.40596798D+00 0.51261610D-02 0.59368894D+05 0.59368894D+05 0.59368894D+05 0.11849647D+01  1  2  5  7  6  2       21 -.226631172841D-02 0.100000000000D+01
-.180398090470D-04 0.000000000000D+00 -.571741021391D-05 0.234942479830D-06 0.000000000000D+00  6 2 2 25 24 1 2 4 0.40596798D+00 0.51261610D-02 0.59368894D+05 0.59368894D+05 0.59368894D+05 0.11849647D+01  1  2  5  8  6  2       21 -.281786584110D-02 0.100000000000D+01
-.180398090470D-04 0.000000000000D+00 -.571741021391D-05 0.234942479830D-06 0.000000000000D+00  6 2 -3 25 24 1 -3 4 0.40596798D+00 0.51261610D-02 0.59368894D+05 0.59368894D+05 0.59368894D+05 0.11849647D+01  1  2  5  9  6  2       21 -.168305271250D-02 0.100000000000D+01
-.180398090470D-04 0.000000000000D+00 -.571741021391D-05 0.234942479830D-06 0.000000000000D+00  6 2 -4 25 24 1 -4 4 0.40596798D+00 0.51261610D-02 0.59368894D+05 0.59368894D+05 0.59368894D+05 0.11849647D+01  1  2  5  9  6  2       21 -.151369584828D-02 0.100000000000D+01
-.180398090470D-04 0.000000000000D+00 -.571741021391D-05 0.234942479830D-06 0.000000000000D+00  6 2 3 25 24 1 3 4 0.40596798D+00 0.51261610D-02 0.59368894D+05 0.59368894D+05 0.59368894D+05 0.11849647D+01  1  2  5 10  6  2       21 -.168289842441D-02 0.100000000000D+01
-.180398090470D-04 0.000000000000D+00 -.571741021391D-05 0.234942479830D-06 0.000000000000D+00  6 2 4 25 24 1 4 4 0.40596798D+00 0.51261610D-02 0.59368894D+05 0.59368894D+05 0.59368894D+05 0.11849647D+01  1  2  5 10  6  2       21 -.151369584828D-02 0.100000000000D+01
  </mgrwgt>
  </event>
  <event>
  6     66 0.45638357E-03 0.49961164E+02 0.75467711E-02 0.10586060E+00
        4 -1    0    0  502    0 0.00000000E+00 0.00000000E+00 0.81376932E+03 0.81377079E+03 0.15500000E+01 0.0000E+00 0.9000E+01
       21 -1    0    0  501  502 0.00000000E+00 0.00000000E+00 -.18639288E+03 0.18639439E+03 0.75000000E+00 0.0000E+00 0.9000E+01
       25  1    1    2    0    0 0.17811592E+02 -.26368489E+03 0.34474974E+03 0.45202252E+03 0.12500000E+03 0.0000E+00 0.9000E+01
       24  1    1    2    0    0 0.91498288E+02 0.28908064E+03 0.26159483E+03 0.40845884E+03 0.80419002E+02 0.0000E+00 0.9000E+01
        3  1    1    2  503    0 -.71430368E+02 -.72107403E+01 0.51002022E+02 0.88066728E+02 0.50000000E+00 0.0000E+00 0.9000E+01
       21  1    1    2  501  503 -.37879512E+02 -.18185016E+02 -.29970148E+02 0.51617095E+02 0.75000000E+00 0.0000E+00 0.9000E+01
#aMCatNLO 2  0  0  5  2 0.39804481D+02 0.00000000D+00  -5  6  0 0.00000000D+00 0.00000000D+00 0.00000000D+00 0.00000000D+00 0.00000000D+00
  <mgrwgt>
 0.1054789857D-01    2    2    0
 0.389464114766073D+03 0.000000000000000D+00 0.000000000000000D+00 0.389464114766073D+03
 0.389464114766073D+03 -.000000000000000D+00 -.000000000000000D+00 -.389464114766073D+03
 0.303240323680544D+03 0.243313436896076D+02 -.262170164937359D+03 0.836927968038914D+02
 0.317426630550476D+03 0.982894413691864D+02 0.290658418370051D+03 0.122196306904573D+02
 0.158261275301127D+03 -.122620785058794D+03 -.284882534326924D+02 -.959124274943487D+02
 0.000000000000000D+00 0.000000000000000D+00 0.000000000000000D+00 -.000000000000000D+00
 0.389464114766073D+03 0.000000000000000D+00 0.000000000000000D+00 0.389464114766073D+03
 0.389464114766073D+03 -.000000000000000D+00 -.000000000000000D+00 -.389464114766073D+03
 0.302736515164218D+03 0.178267126463762D+02 -.263681373478039D+03 0.786049566549942D+02
 0.313782774652747D+03 0.915139608084247D+02 0.289084283876860D+03 0.691993547392577D+01
 0.714344419136237D+02 -.708948650461193D+02 -.710565434207194D+01 -.512906209500407D+01
 0.909744978015575D+02 -.384458084086816D+02 -.182972560567490D+02 -.803958300339159D+02
-.472395876963D-04 0.000000000000D+00 0.000000000000D+00 0.553815704532D-07 0.000000000000D+00  6 4 21 25 24 3 21 4 0.12519551D+00 0.28676057D-01 0.12955968D+06 0.12955968D+06 0.12955968D+06 0.11533792D+01  1  2 13  3  6  5        3 -.200301411991D-02 0.100000000000D+01
0.296003874759D-03 0.000000000000D+00 0.000000000000D+00 0.552317227820D-07 0.683585619938D-09  6 4 21 25 24 3 21 4 0.12519551D+00 0.28676057D-01 0.12955968D+06 0.12955968D+06 0.12955968D+06 0.11533792D+01  1  2  1  3  6  5        3 0.125509126901D-01 0.100000000000D+01
  </mgrwgt>
  </event>
  <event>
  5     66 0.45638357E-03 0.36422437E+02 0.75467711E-02 0.95966737E-01
        2 -1    0    0  502    0 0.00000000E+00 0.00000000E+00 0.82839913E+03 0.82839919E+03 0.32000000E+00 0.0000E+00 0.9000E+01
       21 -1    0    0  501  502 0.00000000E+00 0.00000000E+00 -.28178568E+02 0.28188547E+02 0.75000000E+00 0.0000E+00 0.9000E+01
       25  1    1    2    0    0 -.25449169E+02 -.45300338E+02 0.50730271E+03 0.52505316E+03 0.12500000E+03 0.0000E+00 0.9000E+01
       24  1    1    2    0    0 0.81692595E+00 0.72129580E+02 0.26326129E+03 0.28456470E+03 0.80419002E+02 0.0000E+00 0.9000E+01
        1  1    1    2  501    0 0.24632243E+02 -.26829242E+02 0.29656555E+02 0.46969876E+02 0.32000000E+00 0.0000E+00 0.9000E+01
#aMCatNLO 1  0  0  2  5 0.25412526D+02 0.00000000D+00  -5  6  0 0.00000000D+00 0.00000000D+00 0.00000000D+00 0.00000000D+00 0.00000000D+00
  <mgrwgt>
 0.5595976896D+00   12    2    0
 0.152798564684449D+03 0.000000000000000D+00 0.000000000000000D+00 0.152798564684449D+03
 0.152798564684449D+03 0.000000000000000D+00 0.000000000000000D+00 -.152798564684449D+03
 0.143326154591408D+03 -.254493714091478D+02 -.453001170153362D+02 0.470915648841305D+02
 0.108271830877989D+03 0.816772709760114D+00 0.721297465510075D+02 -.722536865007114D+01
 0.539991438995006D+02 0.246325986993877D+02 -.268296295356713D+02 -.398661962340594D+02
 0.000000000000000D+00 -.000000000000000D+00 0.000000000000000D+00 -.000000000000000D+00
 0.526174161792978D+03 0.000000000000000D+00 0.000000000000000D+00 0.526174161792978D+03
 0.155167134519274D+04 0.000000000000000D+00 0.000000000000000D+00 -.155167134519274D+04
 0.407439599002659D+03 0.248690833347384D+03 -.293798027156744D+03 0.470915648841305D+02
 0.169245575466635D+03 0.138949323803141D+03 -.530822788054760D+02 -.722536865007114D+01
 0.231649004353148D+03 0.166812175659833D+03 -.155710133476486D+03 -.398661962340594D+02
 0.126951132816327D+04 -.554452332810359D+03 0.502590439438706D+03 -.102549718339976D+04
0.532087263401D-05 0.000000000000D+00 0.000000000000D+00 0.864910991405D-06 0.000000000000D+00  6 2 21 25 24 1 21 2 0.12744679D+00 0.43359366D-02 0.19575078D+05 0.19575078D+05 0.19575078D+05 0.12348541D+01  1  2  2  2  6  2       21 0.118583189722D+00 0.100000000000D+01
0.178083092170D-06 0.280790163171D-06 -.107413088367D-07 0.864910991405D-06 0.000000000000D+00  6 2 21 25 24 1 21 4 0.12744679D+00 0.43359366D-02 0.19575078D+05 0.19575078D+05 0.19575078D+05 0.12348541D+01  1  2  3  2  6  2       21 0.605193524327D-02 0.100000000000D+01
0.511518953100D-06 0.000000000000D+00 0.000000000000D+00 0.864910991405D-06 0.000000000000D+00  6 2 21 25 24 1 21 4 0.12744679D+00 0.43359366D-02 0.19575078D+05 0.19575078D+05 0.19575078D+05 0.12348541D+01  1  2 15  2  6  2       21 0.173833435963D-01 0.100000000000D+01
0.740111927889D-02 0.000000000000D+00 -.198415992369D-02 0.864910991405D-06 0.000000000000D+00  6 2 21 25 24 1 21 4 0.12744679D+00 0.15606210D+00 0.19575078D+05 0.19575078D+05 0.19575078D+05 0.12348541D+01  1  2  5  2  6  2       21 0.210454095061D+00 0.100000000000D+01
0.328732109337D-02 0.000000000000D+00 -.880799714068D-03 0.864910991405D-06 0.000000000000D+00  6 2 -1 25 24 1 -1 4 0.12744679D+00 0.15606210D+00 0.19575078D+05 0.19575078D+05 0.19575078D+05 0.12348541D+01  1  2  5  5  6  2       21 0.109428319875D-01 0.100000000000D+01
0.328732109337D-02 0.000000000000D+00 -.880799714068D-03 0.864910991405D-06 0.000000000000D+00  6 2 1 25 24 1 1 4 0.12744679D+00 0.15606210D+00 0.19575078D+05 0.19575078D+05 0.19575078D+05 0.12348541D+01  1  2  5  6  6  2       21 0.594338017074D-01 0.100000000000D+01
0.328732109337D-02 0.000000000000D+00 -.880799714068D-03 0.864910991405D-06 0.000000000000D+00  6 2 -2 25 24 1 -2 4 0.12744679D+00 0.15606210D+00 0.19575078D+05 0.19575078D+05 0.19575078D+05 0.12348541D+01  1  2  5  7  6  2       21 0.799028340891D-02 0.100000000000D+01
0.328732109337D-02 0.000000000000D+00 -.880799714068D-03 0.864910991405D-06 0.000000000000D+00  6 2 2 25 24 1 2 4 0.12744679D+00 0.15606210D+00 0.19575078D+05 0.19575078D+05 0.19575078D+05 0.12348541D+01  1  2  5  8  6  2       21 0.110476321203D+00 0.100000000000D+01
0.328732109337D-02 0.000000000000D+00 -.880799714068D-03 0.864910991405D-06 0.000000000000D+00  6 2 -3 25 24 1 -3 4 0.12744679D+00 0.15606210D+00 0.19575078D+05 0.19575078D+05 0.19575078D+05 0.12348541D+01  1  2  5  9  6  2       21 0.512432023392D-02 0.100000000000D+01
0.328732109337D-02 0.000000000000D+00 -.880799714068D-03 0.864910991405D-06 0.000000000000D+00  6 2 -4 25 24 1 -4 4 0.12744679D+00 0.15606210D+00 0.19575078D+05 0.19575078D+05 0.19575078D+05 0.12348541D+01  1  2  5  9  6  2       21 0.400596060392D-02 0.100000000000D+01
0.328732109337D-02 0.000000000000D+00 -.880799714068D-03 0.864910991405D-06 0.000000000000D+00  6 2 3 25 24 1 3 4 0.12744679D+00 0.15606210D+00 0.19575078D+05 0.19575078D+05 0.19575078D+05 0.12348541D+01  1  2  5 10  6  2       21 0.514564619968D-02 0.100000000000D+01
0.328732109337D-02 0.000000000000D+00 -.880799714068D-03 0.864910991405D-06 0.000000000000D+00  6 2 4 25 24 1 4 4 0.12744679D+00 0.15606210D+00 0.19575078D+05 0.19575078D+05 0.19575078D+05 0.12348541D+01  1  2  5 10  6  2       21 0.400596060392D-02 0.100000000000D+01
  </mgrwgt>
  </event>
  <event>
  5     66 0.45638357E-03 0.57996737E+02 0.75467711E-02 0.12115001E+00
        2 -1    0    0  502    0 0.00000000E+00 0.00000000E+00 0.16895967E+04 0.16895967E+04 0.32000000E+00 0.0000E+00 0.9000E+01
       21 -1    0    0  501  502 0.00000000E+00 0.00000000E+00 -.17893548E+02 0.17909259E+02 0.75000000E+00 0.0000E+00 0.9000E+01
       25  1    1    2    0    0 -.40134504E+02 0.20256016E+02 0.31761653E+03 0.34427655E+03 0.12500000E+03 0.0000E+00 0.9000E+01
       24  1    1    2    0    0 -.13471837E+02 -.42390790E+02 0.60974142E+03 0.61662815E+03 0.80419002E+02 0.0000E+00 0.9000E+01
        1  1    1    2  501    0 0.53606341E+02 0.22134774E+02 0.74434520E+03 0.74660128E+03 0.32000000E+00 0.0000E+00 0.9000E+01
#aMCatNLO 1  0  0  1  2 0.10021477D+03 0.00000000D+00  -5  6  0 0.00000000D+00 0.00000000D+00 0.00000000D+00 0.00000000D+00 0.00000000D+00
  <mgrwgt>
 0.2077291466D-03    1    2    0
 0.173914688912184D+03 0.000000000000000D+00 0.000000000000000D+00 0.173914688912184D+03
 0.173914688912184D+03 0.000000000000000D+00 0.000000000000000D+00 -.173914688912184D+03
 0.163568054635891D+03 -.401346720050123D+02 0.202559466613710D+02 -.954380072364863D+02
 0.965692343179177D+02 -.134719361991912D+02 -.423908310253675D+02 0.296635372537064D+02
 0.876920888705595D+02 0.536066082042035D+02 0.221348843639966D+02 0.657744699827799D+02
 0.000000000000000D+00 0.000000000000000D+00 0.000000000000000D+00 0.000000000000000D+00
 0.205183965979384D+03 0.000000000000000D+00 0.000000000000000D+00 0.205183965979384D+03
 0.174083165894627D+03 0.000000000000000D+00 0.000000000000000D+00 -.174083165894627D+03
 0.163504466328133D+03 -.408084959052288D+02 0.183020202690530D+02 -.954380072364863D+02
 0.971389628856265D+02 -.138710073671355D+02 -.435480409242877D+02 0.296635372537064D+02
 0.872137293118652D+02 0.532462730704819D+02 0.210899995986567D+02 0.657744699827799D+02
 0.314099733483866D+02 0.143323020188239D+01 0.415602105657800D+01 0.311008000847575D+02
0.876600909588D-08 0.000000000000D+00 0.000000000000D+00 0.152027669075D-06 0.000000000000D+00  6 2 21 25 24 1 21 4 0.25993916D+00 0.27540644D-02 0.19984881D+05 0.19984881D+05 0.19984881D+05 0.12338622D+01  1  2 14  1  6  1        2 0.207729146590D-03 0.100000000000D+01
  </mgrwgt>
  </event>
  <event>
  6     66 0.45638357E-03 0.47810530E+02 0.75467711E-02 0.11930435E+00
        2 -1    0    0  502    0 0.00000000E+00 0.00000000E+00 0.46726519E+03 0.46726530E+03 0.32000000E+00 0.0000E+00 0.9000E+01
       21 -1    0    0  501  502 0.00000000E+00 0.00000000E+00 -.65417077E+02 0.65421377E+02 0.75000000E+00 0.0000E+00 0.9000E+01
       25  1    1    2    0    0 -.24308869E+02 0.28604887E+00 0.22331781E+03 0.25707362E+03 0.12500000E+03 0.0000E+00 0.9000E+01
       24  1    1    2    0    0 0.47547842E+02 -.65101063E+02 0.46522378E+02 0.12300607E+03 0.80419002E+02 0.0000E+00 0.9000E+01
        1  1    1    2  503    0 -.25625042E+02 0.49556704E+02 0.12210141E+03 0.13424368E+03 0.32000000E+00 0.0000E+00 0.9000E+01
       21  1    1    2  501  503 0.23860692E+01 0.15258310E+02 0.99065203E+01 0.18363306E+02 0.75000000E+00 0.0000E+00 0.9000E+01
#aMCatNLO 2  0  0  5  2 0.12856068D+02 0.00000000D+00  -5  6  0 0.00000000D+00 0.00000000D+00 0.00000000D+00 0.00000000D+00 0.00000000D+00
  <mgrwgt>
 0.1228492093D+00    3    2    0
 0.174837917572943D+03 0.000000000000000D+00 0.000000000000000D+00 0.174837917572943D+03
 0.174837917572943D+03 -.000000000000000D+00 -.000000000000000D+00 -.174837917572943D+03
 0.134515523692437D+03 -.234136780250620D+02 -.221069734082406D+01 0.437760049896816D+02
 0.135990727764955D+03 0.484444081987982D+02 -.676016445919582D+02 -.714802003802612D+02
 0.791695836884943D+02 -.250307301737363D+02 0.698123419327822D+02 0.277041953905796D+02
 0.000000000000000D+00 0.000000000000000D+00 0.000000000000000D+00 0.000000000000000D+00
 0.174837917572943D+03 0.000000000000000D+00 0.000000000000000D+00 0.174837917572943D+03
 0.174837917572943D+03 -.000000000000000D+00 -.000000000000000D+00 -.174837917572943D+03
 0.134985264550554D+03 -.243152391339249D+02 0.303815498728639D+00 0.447738594247350D+02
 0.133906013944162D+03 0.475415225066259D+02 -.650834374030088D+02 -.704808798867046D+02
 0.640446963183464D+02 -.256243273770368D+02 0.493586478419912D+02 0.317622552126569D+02
 0.167398603328240D+02 0.239804400433584D+01 0.154209740622890D+02 -.605523475068738D+01
-.454245656738D-05 0.000000000000D+00 0.000000000000D+00 0.136936591716D-06 0.000000000000D+00  6 2 21 25 24 1 21 4 0.71887292D-01 0.10064505D-01 0.24401513D+05 0.24401513D+05 0.24401513D+05 0.12244275D+01  1  2 13  3  6  5        1 -.687511617200D-01 0.100000000000D+01
-.295914387544D-07 0.000000000000D+00 0.000000000000D+00 0.136630198044D-06 0.000000000000D+00  6 2 21 25 24 1 21 4 0.71887292D-01 0.10064505D-01 0.25129639D+05 0.25129639D+05 0.25129639D+05 0.12230569D+01  1  2  8  3  6  5        1 -.445962093150D-03 0.100000000000D+01
0.126886892568D-04 0.000000000000D+00 0.000000000000D+00 0.136630198044D-06 0.152800445357D-07  6 2 21 25 24 1 21 4 0.71887292D-01 0.10064505D-01 0.24401513D+05 0.24401513D+05 0.24401513D+05 0.12244275D+01  1  2  1  3  6  5        1 0.192046333117D+00 0.100000000000D+01
  </mgrwgt>
  </event>
  <event>
  5     66 0.45638357E-03 0.18190966E+03 0.75467711E-02 0.11214339E+00
        2 -1    0    0  502    0 0.00000000E+00 0.00000000E+00 0.86114096E+03 0.86114102E+03 0.32000000E+00 0.0000E+00 0.9000E+01
       21 -1    0    0  501  502 0.00000000E+00 0.00000000E+00 -.10080258E+03 0.10080537E+03 0.75000000E+00 0.0000E+00 0.9000E+01
       25  1    1    2    0    0 -.96454031E+01 -.17483150E+03 0.16722545E+03 0.27248567E+03 0.12500000E+03 0.0000E+00 0.9000E+01
       24  1    1    2    0    0 0.89911496E+01 -.70768206E+01 0.45198345E+03 0.45922454E+03 0.80419002E+02 0.0000E+00 0.9000E+01
        1  1    1    2  501    0 0.65425353E+00 0.18190832E+03 0.14112948E+03 0.23023618E+03 0.32000000E+00 0.0000E+00 0.9000E+01
#aMCatNLO 1  0  0  5  5 0.11516759D+03 0.00000000D+00  -5  6  0 0.00000000D+00 0.00000000D+00 0.00000000D+00 0.00000000D+00 0.00000000D+00
  <mgrwgt>
 0.8337611737D-01    4    2    0
 0.294629596173554D+03 0.000000000000000D+00 0.000000000000000D+00 0.294629596173554D+03
 0.294629596173554D+03 -.000000000000000D+00 -.000000000000000D+00 -.294629596173554D+03
 0.229048120651377D+03 -.964540344286431D+01 -.174831597596795D+03 -.786061082111580D+02
 0.166461613832956D+03 0.899114931219091D+01 -.707689070535598D+01 0.145297383932031D+03
 0.193749457862774D+03 0.654254130673415D+00 0.181908488302151D+03 -.666912757208730D+02
 0.000000000000000D+00 -.000000000000000D+00 0.000000000000000D+00 0.000000000000000D+00
 0.294629596173554D+03 0.000000000000000D+00 0.000000000000000D+00 0.294629596173554D+03
 0.294629596173554D+03 -.000000000000000D+00 -.000000000000000D+00 -.294629596173554D+03
 0.189532519069139D+03 -.934297111296546D+01 -.907434652238731D+02 -.109434492709747D+03
 0.157039246318642D+03 0.922488472557566D+01 0.579107856700847D+02 0.121471607113885D+03
 0.116394985216765D+03 0.107687430243489D+03 -.216847072963802D+01 0.441192439402496D+02
 0.126292441742561D+03 -.107569343856100D+03 0.350011502834265D+02 -.561563583443875D+02
0.517367341219D-04 0.000000000000D+00 0.000000000000D+00 0.684051963434D-07 0.000000000000D+00  6 2 21 25 24 1 21 2 0.13248344D+00 0.15508308D-01 0.57186993D+05 0.57186993D+05 0.57186993D+05 0.11865481D+01  1  2  2  3  6  5        1 0.108626532537D+00 0.100000000000D+01
-.430826987935D-05 0.273022246824D-05 -.104441560178D-06 0.684051963434D-07 0.000000000000D+00  6 2 21 25 24 1 21 4 0.13248344D+00 0.15508308D-01 0.57186993D+05 0.57186993D+05 0.57186993D+05 0.11865481D+01  1  2  3  3  6  5        1 -.127353389046D-01 0.100000000000D+01
0.582887042276D-05 0.000000000000D+00 0.000000000000D+00 0.684051963434D-07 0.000000000000D+00  6 2 21 25 24 1 21 4 0.13248344D+00 0.15508308D-01 0.57186993D+05 0.57186993D+05 0.57186993D+05 0.11865481D+01  1  2 15  3  6  5        1 0.172302669851D-01 0.100000000000D+01
-.100626270984D-04 0.000000000000D+00 0.000000000000D+00 0.684051963434D-07 0.000000000000D+00  6 2 21 25 24 1 21 4 0.13248344D+00 0.15508308D-01 0.57186993D+05 0.57186993D+05 0.57186993D+05 0.11865481D+01  1  2  4  3  6  5        1 -.297453432487D-01 0.100000000000D+01
  </mgrwgt>
  </event>
  <event>
  6     66 -.45638357E-03 0.16152217E+02 0.75467711E-02 0.12099531E+00
        4 -1    0    0  502    0 0.00000000E+00 0.00000000E+00 0.18666268E+02 0.18730512E+02 0.15500000E+01 0.0000E+00 0.9000E+01
       21 -1    0    0  501  503 0.00000000E+00 0.00000000E+00 -.12119762E+04 0.12119764E+04 0.75000000E+00 0.0000E+00 0.9000E+01
       25  1    1    2    0    0 -.25216180E+02 0.47212541E+02 -.48349833E+03 0.50225542E+03 0.12500000E+03 0.0000E+00 0.9000E+01
       24  1    1    2    0    0 0.21527369E+02 -.67977358E+02 -.58912718E+03 0.59885090E+03 0.80419002E+02 0.0000E+00 0.9000E+01
        3  1    1    2  501    0 0.19623644E+02 0.14900558E+02 -.38758189E+02 0.45929960E+02 0.50000000E+00 0.0000E+00 0.9000E+01
       21  1    1    2  502  503 -.15934833E+02 0.58642596E+01 -.81926190E+02 0.83670613E+02 0.75000000E+00 0.0000E+00 0.9000E+01
#aMCatNLO 2  0  0  2  1 0.16979648D+02 0.00000000D+00  -5  6  0 0.00000000D+00 0.00000000D+00 0.00000000D+00 0.00000000D+00 0.00000000D+00
  <mgrwgt>
 -.3231635663D-01    2    2    0
 0.141624688148197D+03 0.000000000000000D+00 0.000000000000000D+00 0.141624688148197D+03
 0.141624688148197D+03 0.000000000000000D+00 0.000000000000000D+00 -.141624688148197D+03
 0.139211833712073D+03 -.329676100528756D+02 0.500639456848450D+02 0.127150570326780D+02
 0.110912428303946D+03 0.152247098872411D+02 -.656588715544499D+02 -.359370504208826D+02
 0.331251142803759D+02 0.177429001656345D+02 0.155949258696049D+02 0.232219933882046D+02
 0.000000000000000D+00 -.000000000000000D+00 0.000000000000000D+00 -.000000000000000D+00
 0.148812794891575D+03 0.000000000000000D+00 0.000000000000000D+00 0.148812794891575D+03
 0.152273858203436D+03 0.000000000000000D+00 0.000000000000000D+00 -.152273858203436D+03
 0.136570571982198D+03 -.252171857283125D+02 0.472116722870958D+02 0.127150570326780D+02
 0.113327402622270D+03 0.215266124171405D+02 -.679780670189193D+02 -.359370504208826D+02
 0.338598757162561D+02 0.196254063920326D+02 0.149021351002485D+02 0.232219933882046D+02
 0.173288027742866D+02 -.159348330808607D+02 0.586425963157499D+01 -.346106331186096D+01
-.565570089542D-04 0.000000000000D+00 0.000000000000D+00 0.317725591055D-06 0.000000000000D+00  6 4 21 25 24 3 21 4 0.27375924D-02 0.19057621D+00 0.20317306D+05 0.20317306D+05 0.20317306D+05 0.12330742D+01  1  2 13  2  6  2       21 -.531387768630D-01 0.100000000000D+01
0.225075695218D-04 0.000000000000D+00 0.000000000000D+00 0.320947613519D-06 0.156672752470D-07  6 4 21 25 24 3 21 4 0.28765379D-02 0.18645276D+00 0.20317306D+05 0.20317306D+05 0.20317306D+05 0.12330742D+01  1  2  1  2  6  2       21 0.208224202332D-01 0.100000000000D+01
  </mgrwgt>
  </event>
  <event>
  5     66 -.45638357E-03 0.49845575E+02 0.75467711E-02 0.11689891E+00
        2 -1    0    0  502    0 0.00000000E+00 0.00000000E+00 0.39991497E+03 0.39991510E+03 0.32000000E+00 0.0000E+00 0.9000E+01
       21 -1    0    0  501  502 0.00000000E+00 0.00000000E+00 -.64589502E+02 0.64593856E+02 0.75000000E+00 0.0000E+00 0.9000E+01
       25  1    1    2    0    0 -.78921301E+01 -.18371510E+01 0.23941871E+03 0.27020729E+03 0.12500000E+03 0.0000E+00 0.9000E+01
       24  1    1    2    0    0 -.32140864E+02 0.31534238E+02 0.10902067E+03 0.14275912E+03 0.80419002E+02 0.0000E+00 0.9000E+01
        1  1    1    2  501    0 0.40032995E+02 -.29697087E+02 -.13113907E+02 0.51542551E+02 0.32000000E+00 0.0000E+00 0.9000E+01
#aMCatNLO 1  0  0  2  2 0.82832425D+02 0.00000000D+00  -5  6  0 0.00000000D+00 0.00000000D+00 0.00000000D+00 0.00000000D+00 0.00000000D+00
  <mgrwgt>
 -.2452489555D+00   12    2    0
 0.160721342440620D+03 0.000000000000000D+00 0.000000000000000D+00 0.160721342440620D+03
 0.160721342440620D+03 0.000000000000000D+00 0.000000000000000D+00 -.160721342440620D+03
 0.140711078099632D+03 -.789224553614899D+01 -.183706540125832D+01 0.641010542118416D+02
 0.925686031886740D+02 -.321409403718966D+02 0.315342943701813D+02 0.861850175590821D+01
 0.881630035929327D+02 0.400331859080456D+02 -.296972289689230D+02 -.727195559677498D+02
 0.000000000000000D+00 -.000000000000000D+00 -.000000000000000D+00 -.000000000000000D+00
 0.167687118155697D+03 0.000000000000000D+00 0.000000000000000D+00 0.167687118155697D+03
 0.116598771178816D+04 0.000000000000000D+00 0.000000000000000D+00 -.116598771178816D+04
 0.144704457724508D+03 -.556140877080125D+01 0.342710616520499D+02 0.641010542118416D+02
 0.103168316636246D+03 -.305424611309314D+02 0.562971144796521D+02 0.861850175590821D+01
 0.840709110725920D+02 0.414397286156210D+02 -.790779113865961D+01 -.727195559677498D+02
 0.100173114451051D+04 -.533585871388832D+01 -.826603849930423D+02 -.998300593632465D+03
0.541179256040D-06 0.000000000000D+00 0.000000000000D+00 0.113155052518D-05 0.000000000000D+00  6 2 21 25 24 1 21 2 0.61525726D-01 0.99371912D-02 0.17858911D+05 0.17858911D+05 0.17858911D+05 0.12392768D+01  1  2  2  2  6  2       21 0.675211579355D-02 0.100000000000D+01
0.927844430307D-08 0.285588139504D-07 -.109248499729D-08 0.113155052518D-05 0.000000000000D+00  6 2 21 25 24 1 21 4 0.61525726D-01 0.99371912D-02 0.17858911D+05 0.17858911D+05 0.17858911D+05 0.12392768D+01  1  2  3  2  6  2       21 0.177791316085D-03 0.100000000000D+01
0.492518254655D-07 0.000000000000D+00 0.000000000000D+00 0.113155052518D-05 0.000000000000D+00  6 2 21 25 24 1 21 4 0.61525726D-01 0.99371912D-02 0.17858911D+05 0.17858911D+05 0.17858911D+05 0.12392768D+01  1  2 15  2  6  2       21 0.943751622908D-03 0.100000000000D+01
-.412882801250D-03 0.000000000000D+00 -.776680683317D-05 0.113155052518D-05 0.000000000000D+00  6 2 21 25 24 1 21 4 0.61525726D-01 0.73133145D-01 0.17858911D+05 0.17858911D+05 0.17858911D+05 0.12392768D+01  1  2  5  2  6  2       21 -.168162032001D+00 0.100000000000D+01
-.179202625588D-03 0.000000000000D+00 -.334435319328D-05 0.113155052518D-05 0.000000000000D+00  6 2 -1 25 24 1 -1 4 0.61525726D-01 0.73133145D-01 0.17858911D+05 0.17858911D+05 0.17858911D+05 0.12392768D+01  1  2  5  5  6  2       21 -.779213285224D-02 0.100000000000D+01
-.179202625588D-03 0.000000000000D+00 -.334435319328D-05 0.113155052518D-05 0.000000000000D+00  6 2 1 25 24 1 1 4 0.61525726D-01 0.73133145D-01 0.17858911D+05 0.17858911D+05 0.17858911D+05 0.12392768D+01  1  2  5  6  6  2       21 -.226736004036D-01 0.100000000000D+01
-.179202625588D-03 0.000000000000D+00 -.334435319328D-05 0.113155052518D-05 0.000000000000D+00  6 2 -2 25 24 1 -2 4 0.61525726D-01 0.73133145D-01 0.17858911D+05 0.17858911D+05 0.17858911D+05 0.12392768D+01  1  2  5  7  6  2       21 -.601311047534D-02 0.100000000000D+01
-.179202625588D-03 0.000000000000D+00 -.334435319328D-05 0.113155052518D-05 0.000000000000D+00  6 2 2 25 24 1 2 4 0.61525726D-01 0.73133145D-01 0.17858911D+05 0.17858911D+05 0.17858911D+05 0.12392768D+01  1  2  5  8  6  2       21 -.349430407358D-01 0.100000000000D+01
-.179202625588D-03 0.000000000000D+00 -.334435319328D-05 0.113155052518D-05 0.000000000000D+00  6 2 -3 25 24 1 -3 4 0.61525726D-01 0.73133145D-01 0.17858911D+05 0.17858911D+05 0.17858911D+05 0.12392768D+01  1  2  5  9  6  2       21 -.374345839098D-02 0.100000000000D+01
-.179202625588D-03 0.000000000000D+00 -.334435319328D-05 0.113155052518D-05 0.000000000000D+00  6 2 -4 25 24 1 -4 4 0.61525726D-01 0.73133145D-01 0.17858911D+05 0.17858911D+05 0.17858911D+05 0.12392768D+01  1  2  5  9  6  2       21 -.302391463669D-02 0.100000000000D+01
-.179202625588D-03 0.000000000000D+00 -.334435319328D-05 0.113155052518D-05 0.000000000000D+00  6 2 3 25 24 1 3 4 0.61525726D-01 0.73133145D-01 0.17858911D+05 0.17858911D+05 0.17858911D+05 0.12392768D+01  1  2  5 10  6  2       21 -.374741007723D-02 0.100000000000D+01
-.179202625588D-03 0.000000000000D+00 -.334435319328D-05 0.113155052518D-05 0.000000000000D+00  6 2 4 25 24 1 4 4 0.61525726D-01 0.73133145D-01 0.17858911D+05 0.17858911D+05 0.17858911D+05 0.12392768D+01  1  2  5 10  6  2       21 -.302391463669D-02 0.100000000000D+01
  </mgrwgt>
  </event>
  <event>
  5     66 -.45638357E-03 0.42105458E+02 0.75467711E-02 0.12129963E+00
        2 -1    0    0  502    0 0.00000000E+00 0.00000000E+00 0.23605523E+03 0.23605544E+03 0.32000000E+00 0.0000E+00 0.9000E+01
       21 -1    0    0  501  502 0.00000000E+00 0.00000000E+00 -.88036998E+02 0.88040192E+02 0.75000000E+00 0.0000E+00 0.9000E+01
       25  1    1    2    0    0 -.20358108E+02 -.71696080E+02 0.54495500E+02 0.15540122E+03 0.12500000E+03 0.0000E+00 0.9000E+01
       24  1    1    2    0    0 0.35859721E+02 0.32548885E+02 0.43952627E+02 0.10365519E+03 0.80419002E+02 0.0000E+00 0.9000E+01
        1  1    1    2  501    0 -.15501613E+02 0.39147195E+02 0.49570102E+02 0.65039221E+02 0.32000000E+00 0.0000E+00 0.9000E+01
#aMCatNLO 1  0  0  5  2 0.13365798D+02 0.00000000D+00  -5  6  0 0.00000000D+00 0.00000000D+00 0.00000000D+00 0.00000000D+00 0.00000000D+00
  <mgrwgt>
 -.6025045871D-02    7    2    0
 0.144160141267072D+03 0.000000000000000D+00 0.000000000000000D+00 0.144160141267072D+03
 0.144160141267072D+03 -.000000000000000D+00 -.000000000000000D+00 -.144160141267072D+03
 0.146706974090940D+03 -.203579299936456D+02 -.716965292700244D+02 -.185229215818121D+02
 0.939524302122631D+02 0.358598347528620D+02 0.325485978450276D+02 -.380844039466658D+01
 0.476608782309410D+02 -.155019047592164D+02 0.391479314249968D+02 0.223313619764787D+02
 0.000000000000000D+00 0.000000000000000D+00 0.000000000000000D+00 0.000000000000000D+00
 0.144160141267072D+03 0.000000000000000D+00 0.000000000000000D+00 0.144160141267072D+03
 0.144160141267072D+03 -.000000000000000D+00 -.000000000000000D+00 -.144160141267072D+03
 0.144479317399291D+03 -.221717384314548D+02 -.671160051702864D+02 -.159100289463683D+02
 0.945304834054997D+02 0.346857688400983D+02 0.355135400605301D+02 -.211713269477999D+01
 0.342504651618145D+02 -.199477312695226D+02 0.272584219233567D+02 0.567105062998473D+01
 0.150600165675385D+02 0.743370086087907D+01 0.434404318639962D+01 0.123561110111635D+02
0.932039056039D-05 0.000000000000D+00 0.000000000000D+00 0.295559662444D-06 0.000000000000D+00  6 2 21 25 24 1 21 2 0.36316451D-01 0.13544416D-01 0.19812478D+05 0.19812478D+05 0.19812478D+05 0.12342767D+01  1  2  2  3  6  5        1 0.116893240749D+00 0.100000000000D+01
-.583063337112D-06 0.491850522702D-06 -.188151832179D-07 0.295559662444D-06 0.000000000000D+00  6 2 21 25 24 1 21 4 0.36316451D-01 0.13544416D-01 0.19812478D+05 0.19812478D+05 0.19812478D+05 0.12342767D+01  1  2  3  3  6  5        1 -.111402794782D-01 0.100000000000D+01
0.107369168765D-05 0.000000000000D+00 0.000000000000D+00 0.295559662444D-06 0.000000000000D+00  6 2 21 25 24 1 21 4 0.36316451D-01 0.13544416D-01 0.19812478D+05 0.19812478D+05 0.19812478D+05 0.12342767D+01  1  2 15  3  6  5        1 0.205144530834D-01 0.100000000000D+01
0.772967783002D-05 0.000000000000D+00 0.000000000000D+00 0.295725946484D-06 0.000000000000D+00  6 2 21 25 24 1 21 4 0.36316451D-01 0.13544416D-01 0.19669366D+05 0.19669366D+05 0.19669366D+05 0.12346239D+01  1  2 12  3  6  5        1 0.147839459610D+00 0.100000000000D+01
-.173283329176D-04 0.000000000000D+00 0.000000000000D+00 0.295559662444D-06 0.000000000000D+00  6 2 21 25 24 1 21 4 0.36316451D-01 0.13544416D-01 0.19812478D+05 0.19812478D+05 0.19812478D+05 0.12342767D+01  1  2  4  3  6  5        1 -.331083193378D+00 0.100000000000D+01
-.493280965232D-05 0.000000000000D+00 0.000000000000D+00 0.295559662444D-06 0.000000000000D+00  6 2 21 25 24 1 21 4 0.36316451D-01 0.13544416D-01 0.19812478D+05 0.19812478D+05 0.19812478D+05 0.12342767D+01  1  2  5  3  6  5        1 -.942485569607D-01 0.100000000000D+01
0.759951291054D-05 0.000000000000D+00 -.000000000000D+00 0.295559662444D-06 0.000000000000D+00  6 2 21 25 24 1 21 4 0.36316451D-01 0.13544416D-01 0.19812478D+05 0.19812478D+05 0.19812478D+05 0.12342767D+01  1  2  6  3  6  5        1 0.145199830503D+00 0.100000000000D+01
  </mgrwgt>
  </event>
  <event>
  5     66 0.45638357E-03 0.76036807E+02 0.75467711E-02 0.11793267E+00
        2 -1    0    0  502    0 0.00000000E+00 0.00000000E+00 0.20568269E+04 0.20568270E+04 0.32000000E+00 0.0000E+00 0.9000E+01
       21 -1    0    0  501  502 0.00000000E+00 0.00000000E+00 -.17591465E+02 0.17607445E+02 0.75000000E+00 0.0000E+00 0.9000E+01
       25  1    1    2    0    0 0.10510589E+03 -.15886118E+02 0.98430823E+03 0.99789144E+03 0.12500000E+03 0.0000E+00 0.9000E+01
       24  1    1    2    0    0 -.41139328E+02 -.25221515E+02 0.89004502E+03 0.89497258E+03 0.80419002E+02 0.0000E+00 0.9000E+01
        1  1    1    2  501    0 -.63966559E+02 0.41107633E+02 0.16488222E+03 0.18157039E+03 0.32000000E+00 0.0000E+00 0.9000E+01
#aMCatNLO 1  0  0  5  2 0.39650949D+01 0.00000000D+00  -5  6  0 0.00000000D+00 0.00000000D+00 0.00000000D+00 0.00000000D+00 0.00000000D+00
  <mgrwgt>
 0.2706362635D+00    4    2    0
 0.190260871551703D+03 0.000000000000000D+00 0.000000000000000D+00 0.190260871551703D+03
 0.190260871551703D+03 -.000000000000000D+00 -.000000000000000D+00 -.190260871551703D+03
 0.165099895443572D+03 0.105106013156719D+03 -.158861987028325D+02 0.182573318026539D+02
 0.109193635160524D+03 -.411392448214005D+02 -.252215685655010D+02 0.559237786618501D+02
 0.106228212499310D+03 -.639667683353181D+02 0.411077672683334D+02 -.741811104645040D+02
 0.000000000000000D+00 0.000000000000000D+00 0.000000000000000D+00 0.000000000000000D+00
 0.190260871551703D+03 0.000000000000000D+00 0.000000000000000D+00 0.190260871551703D+03
 0.190260871551703D+03 -.000000000000000D+00 -.000000000000000D+00 -.190260871551703D+03
 0.162554577496122D+03 0.101950237867422D+03 -.138581632162885D+02 0.145976359726363D+02
 0.108480292703229D+03 -.432357521466736D+02 -.238742637469754D+02 0.534924968332845D+02
 0.661261838289816D+01 0.609477170198797D+01 0.385366528399782D+00 0.253613335952097D+01
 0.102874254521157D+03 -.648092574227363D+02 0.373470604348641D+02 -.706262661654418D+02
0.169152574275D-04 0.000000000000D+00 0.000000000000D+00 0.409526760912D-06 0.000000000000D+00  6 2 21 25 24 1 21 2 0.31643614D+00 0.27076104D-02 0.27873962D+05 0.27873962D+05 0.27873962D+05 0.12182631D+01  1  2  2  3  6  5        1 0.170290843425D+00 0.100000000000D+01
-.327571200257D-06 0.892642658424D-06 -.341470312445D-07 0.409526760912D-06 0.000000000000D+00  6 2 21 25 24 1 21 4 0.31643614D+00 0.27076104D-02 0.27873962D+05 0.27873962D+05 0.27873962D+05 0.12182631D+01  1  2  3  3  6  5        1 -.489441281922D-02 0.100000000000D+01
0.181022069426D-05 0.000000000000D+00 0.000000000000D+00 0.409526760912D-06 0.000000000000D+00  6 2 21 25 24 1 21 4 0.31643614D+00 0.27076104D-02 0.27873962D+05 0.27873962D+05 0.27873962D+05 0.12182631D+01  1  2 15  3  6  5        1 0.270474552239D-01 0.100000000000D+01
0.525049087885D-05 0.000000000000D+00 0.000000000000D+00 0.408925393894D-06 0.335396922438D-08  6 2 21 25 24 1 21 4 0.31643614D+00 0.27076104D-02 0.28422447D+05 0.28422447D+05 0.28422447D+05 0.12173683D+01  1  2 11  3  6  5        1 0.781923776812D-01 0.100000000000D+01
  </mgrwgt>
  </event>
  <event>
  6     66 0.45638357E-03 0.19238262E+02 0.75467711E-02 0.11719634E+00
        2 -1    0    0  502    0 0.00000000E+00 0.00000000E+00 0.50581109E+03 0.50581119E+03 0.32000000E+00 0.0000E+00 0.9000E+01
       21 -1    0    0  501  503 0.00000000E+00 0.00000000E+00 -.41538264E+03 0.41538331E+03 0.75000000E+00 0.0000E+00 0.9000E+01
       25  1    1    2    0    0 -.84635162E+02 0.50879604E+02 0.14152070E+03 0.21308438E+03 0.12500000E+03 0.0000E+00 0.9000E+01
       24  1    1    2    0    0 0.11479002E+03 -.40977755E+02 0.30637536E+03 0.33939506E+03 0.80419002E+02 0.0000E+00 0.9000E+01
        1  1    1    2  501    0 -.12947587E+02 0.12475807E+02 -.10961998E+02 0.21060711E+02 0.32000000E+00 0.0000E+00 0.9000E+01
       21  1    1    2  502  503 -.17207274E+02 -.22377656E+02 -.34650561E+03 0.34765435E+03 0.75000000E+00 0.0000E+00 0.9000E+01
#aMCatNLO 2  0  0  2  1 0.78707419D+01 0.00000000D+00  -5  6  0 0.00000000D+00 0.00000000D+00 0.00000000D+00 0.00000000D+00 0.00000000D+00
  <mgrwgt>
 0.1419136457D+01    1    2    0
 0.185229638448219D+03 0.000000000000000D+00 0.000000000000000D+00 0.185229638448219D+03
 0.185229638448219D+03 0.000000000000000D+00 0.000000000000000D+00 -.185229638448219D+03
 0.163836980598393D+03 -.922031550034657D+02 0.410372851703821D+02 -.321259341475067D+02
 0.161239721724056D+03 0.107256454970180D+03 -.507753010346884D+02 0.738170277059916D+02
 0.453825745739892D+02 -.150532999667141D+02 0.973801586430634D+01 -.416910935584849D+02
 0.000000000000000D+00 -.000000000000000D+00 -.000000000000000D+00 -.000000000000000D+00
 0.185977642193083D+03 0.000000000000000D+00 0.000000000000000D+00 0.185977642193083D+03
 0.112973345556140D+04 0.000000000000000D+00 0.000000000000000D+00 -.112973345556140D+04
 0.162508098019803D+03 -.846350065817839D+02 0.508794844516468D+02 -.321259341475067D+02
 0.163621952728857D+03 0.114790202312674D+03 -.409778395489841D+02 0.738170277059916D+02
 0.454031585535235D+02 -.129479214949767D+02 0.124760111211065D+02 -.416910935584849D+02
 0.944177888452304D+03 -.172072742359129D+02 -.223776560237692D+02 -.943755813368322D+03
0.372894798592D-02 0.000000000000D+00 0.000000000000D+00 0.170297925458D-05 0.832436668794D-06  6 2 21 25 24 1 21 4 0.77817088D-01 0.63905030D-01 0.30894157D+05 0.30894157D+05 0.30894157D+05 0.12135620D+01  1  2  1  2  6  2       21 0.141913645749D+01 0.100000000000D+01
  </mgrwgt>
  </event>
  <event>
  6     66 -.45638357E-03 0.45703399E+02 0.75467711E-02 0.11883545E+00
        2 -1    0    0  502    0 0.00000000E+00 0.00000000E+00 0.12849295E+04 0.12849296E+04 0.32000000E+00 0.0000E+00 0.9000E+01
       21 -1    0    0  501  503 0.00000000E+00 0.00000000E+00 -.28897368E+02 0.28907099E+02 0.75000000E+00 0.0000E+00 0.9000E+01
       25  1    1    2    0    0 0.74585047E+02 0.36560699E+02 0.35442288E+03 0.38488985E+03 0.12500000E+03 0.0000E+00 0.9000E+01
       24  1    1    2    0    0 -.25640279E+02 -.62394955E+02 0.79139727E+03 0.79832788E+03 0.80419002E+02 0.0000E+00 0.9000E+01
        1  1    1    2  501    0 -.39137317E+02 0.34724639E+02 0.10299575E+03 0.11552384E+03 0.32000000E+00 0.0000E+00 0.9000E+01
       21  1    1    2  502  503 -.98074511E+01 -.88903839E+01 0.72162485E+01 0.15095091E+02 0.75000000E+00 0.0000E+00 0.9000E+01
#aMCatNLO 2  0  0  2  1 0.13237259D+02 0.00000000D+00  -5  6  0 0.00000000D+00 0.00000000D+00 0.00000000D+00 0.00000000D+00 0.00000000D+00
  <mgrwgt>
 -.1104018773D+00    3    2    0
 0.178194609048249D+03 0.000000000000000D+00 0.000000000000000D+00 0.178194609048249D+03
 0.178194609048249D+03 0.000000000000000D+00 0.000000000000000D+00 -.178194609048249D+03
 0.157712357074419D+03 0.702074684381806D+02 0.325920176144915D+02 -.570688999130660D+02
 0.138383369392710D+03 -.294144978789968D+02 -.658166407020778D+02 0.865199288680291D+02
 0.602934916293681D+02 -.407929705591837D+02 0.332246230875863D+02 -.294510289549631D+02
 0.000000000000000D+00 -.000000000000000D+00 -.000000000000000D+00 -.000000000000000D+00
 0.179874477428864D+03 0.000000000000000D+00 0.000000000000000D+00 0.179874477428864D+03
 0.206452633654333D+03 0.000000000000000D+00 0.000000000000000D+00 -.206452633654333D+03
 0.160566173836074D+03 0.745853018770399D+02 0.365604921599754D+02 -.570688999130660D+02
 0.136027493213424D+03 -.256400521227382D+02 -.623951327538620D+02 0.865199288680291D+02
 0.600413001061387D+02 -.391377986768364D+02 0.347250245019461D+02 -.294510289549631D+02
 0.296921439275605D+02 -.980745107746530D+01 -.889038390805959D+01 -.265781562254685D+02
-.119215123057D-04 0.000000000000D+00 0.000000000000D+00 0.272673737118D-06 0.000000000000D+00  6 2 21 25 24 1 21 4 0.19583092D+00 0.44626617D-02 0.25697213D+05 0.25697213D+05 0.25697213D+05 0.12220190D+01  1  2 13  2  6  2       21 -.202166303154D+00 0.100000000000D+01
-.898063187912D-05 0.000000000000D+00 0.000000000000D+00 0.272673737118D-06 0.000000000000D+00  6 2 21 25 24 1 21 4 0.19583092D+00 0.46574631D-02 0.25697213D+05 0.25697213D+05 0.25697213D+05 0.12220190D+01  1  2 13  2  6  2       21 -.141742362906D+00 0.100000000000D+01
0.138933946834D-04 0.000000000000D+00 0.000000000000D+00 0.274395358393D-06 0.267016886350D-07  6 2 21 25 24 1 21 4 0.19767705D+00 0.44463844D-02 0.25697213D+05 0.25697213D+05 0.25697213D+05 0.12220190D+01  1  2  1  2  6  2       21 0.233506788733D+00 0.100000000000D+01
  </mgrwgt>
  </event>
  <event>
  5     66 0.45638357E-03 0.51368064E+02 0.75467711E-02 0.12223342E+00
        2 -1    0    0  502    0 0.00000000E+00 0.00000000E+00 0.28784812E+04 0.28784813E+04 0.32000000E+00 0.0000E+00 0.9000E+01
       21 -1    0    0  501  502 0.00000000E+00 0.00000000E+00 -.98098810E+01 0.98385093E+01 0.75000000E+00 0.0000E+00 0.9000E+01
       25  1    1    2    0    0 0.20004851E+02 -.29376080E+02 0.55742177E+03 0.57236979E+03 0.12500000E+03 0.0000E+00 0.9000E+01
       24  1    1    2    0    0 0.19688367E+01 -.17053958E+02 0.18542516E+04 0.18560740E+04 0.80419002E+02 0.0000E+00 0.9000E+01
        1  1    1    2  501    0 -.21973688E+02 0.46430038E+02 0.45699801E+03 0.45987594E+03 0.32000000E+00 0.0000E+00 0.9000E+01
#aMCatNLO 1  0  0  1  2 0.34257332D+01 0.00000000D+00  -5  6  0 0.00000000D+00 0.00000000D+00 0.00000000D+00 0.00000000D+00 0.00000000D+00
  <mgrwgt>
 0.2754677650D+00   11    2    0
 0.168163396022809D+03 0.000000000000000D+00 0.000000000000000D+00 0.168163396022809D+03
 0.168163396022809D+03 0.000000000000000D+00 0.000000000000000D+00 -.168163396022809D+03
 0.160936195704904D+03 0.200050549031159D+02 -.293765098690775D+02 -.949330160386910D+02
 0.123977512030513D+03 0.196899362733594D+01 -.170542896997273D+02 0.927819044956435D+02
 0.514130843102006D+02 -.219740485304518D+02 0.464307995688047D+02 0.215111154304753D+01
 0.000000000000000D+00 0.000000000000000D+00 0.000000000000000D+00 0.000000000000000D+00
 0.172115556651901D+03 0.000000000000000D+00 0.000000000000000D+00 0.172115556651901D+03
 0.168916117821291D+03 0.000000000000000D+00 0.000000000000000D+00 -.168916117821291D+03
 0.160907345151013D+03 0.185626647149831D+02 -.301549940809780D+02 -.949330160386910D+02
 0.124048798930642D+03 0.857426446656391D+00 -.176542227190623D+02 0.927819044956435D+02
 0.513880943050462D+02 -.224347674591859D+02 0.461821411855919D+02 0.215111154304753D+01
 0.468743608649105D+01 0.301467629754636D+01 0.162707561444844D+01 0.319943883061044D+01
0.269393593841D-05 0.000000000000D+00 0.000000000000D+00 0.163137617379D-06 0.000000000000D+00  6 2 21 25 24 1 21 2 0.44284547D+00 0.15114160D-02 0.17365128D+05 0.17365128D+05 0.17365128D+05 0.12406381D+01  1  2  2  1  6  1        2 0.264629414562D-01 0.100000000000D+01
-.146389623848D-06 0.142162905175D-06 -.543828050230D-08 0.163137617379D-06 0.000000000000D+00  6 2 21 25 24 1 21 4 0.44284547D+00 0.15114160D-02 0.17365128D+05 0.17365128D+05 0.17365128D+05 0.12406381D+01  1  2  3  1  6  1        2 -.221335649062D-02 0.100000000000D+01
0.331198702747D-06 0.000000000000D+00 0.000000000000D+00 0.163137617379D-06 0.000000000000D+00  6 2 21 25 24 1 21 4 0.44284547D+00 0.15114160D-02 0.17365128D+05 0.17365128D+05 0.17365128D+05 0.12406381D+01  1  2 15  1  6  1        2 0.500760080627D-02 0.100000000000D+01
0.394654606535D-06 0.000000000000D+00 0.000000000000D+00 0.162803491518D-06 0.000000000000D+00  6 2 21 25 24 1 21 4 0.45423012D+00 0.15114160D-02 0.17825729D+05 0.17825729D+05 0.17825729D+05 0.12393669D+01  1  2 12  1  6  1        2 0.539026125199D-02 0.100000000000D+01
-.478695814639D-04 0.000000000000D+00 0.000000000000D+00 0.163137617379D-06 0.000000000000D+00  6 2 21 25 24 1 21 4 0.44284547D+00 0.15114160D-02 0.17365128D+05 0.17365128D+05 0.17365128D+05 0.12406381D+01  1  2  4  1  6  1        2 -.723770210288D+00 0.100000000000D+01
-.234378655096D-03 0.000000000000D+00 -.251092348149D-04 0.163137617379D-06 0.000000000000D+00  6 2 21 25 24 1 21 4 0.45384896D+00 0.15114160D-02 0.17365128D+05 0.17365128D+05 0.17365128D+05 0.12406381D+01  1  2  5  1  6  1        2 -.322694471490D+01 0.100000000000D+01
0.234931722639D-03 0.000000000000D+00 0.251016739801D-04 0.163137617379D-06 0.000000000000D+00  6 2 21 25 24 1 21 4 0.44284547D+00 0.15114160D-02 0.17365128D+05 0.17365128D+05 0.17365128D+05 0.12406381D+01  1  2  6  1  6  1        2 0.355207998687D+01 0.100000000000D+01
0.468490764976D-04 0.000000000000D+00 0.000000000000D+00 0.163137617379D-06 0.136625228353D-06  6 2 21 25 24 1 21 4 0.45325319D+00 0.15181813D-02 0.17825729D+05 0.17825729D+05 0.17825729D+05 0.12393669D+01  1  2 11  1  6  1        2 0.640660857648D+00 0.100000000000D+01
0.146150871850D-07 0.000000000000D+00 0.000000000000D+00 0.162803491518D-06 0.000000000000D+00  6 21 21 25 24 1 -2 4 0.45423012D+00 0.15114160D-02 0.17825729D+05 0.17825729D+05 0.17825729D+05 0.12393669D+01  1  2 12  4  6  1        2 0.286525207118D-04 0.100000000000D+01
-.103445986377D-05 0.000000000000D+00 -.111411963814D-06 0.163137617379D-06 0.000000000000D+00  6 21 21 25 24 1 -2 4 0.45384896D+00 0.15114160D-02 0.17365128D+05 0.17365128D+05 0.17365128D+05 0.12406381D+01  1  2  5  4  6  1        2 -.205511836563D-02 0.100000000000D+01
0.415506182941D-06 0.000000000000D+00 0.000000000000D+00 0.163137617379D-06 0.578664297458D-09  6 21 21 25 24 1 -2 4 0.45325319D+00 0.15181813D-02 0.17825729D+05 0.17825729D+05 0.17825729D+05 0.12393669D+01  1  2 11  4  6  1        2 0.820864536644D-03 0.100000000000D+01
  </mgrwgt>
  </event>
  <event>
  5     66 0.45638357E-03 0.64793638E+02 0.75467711E-02 0.10223686E+00
        2 -1    0    0  502    0 0.00000000E+00 0.00000000E+00 0.11369292E+04 0.11369292E+04 0.32000000E+00 0.0000E+00 0.9000E+01
       21 -1    0    0  501  502 0.00000000E+00 0.00000000E+00 -.36163180E+02 0.36170956E+02 0.75000000E+00 0.0000E+00 0.9000E+01
       25  1    1    2    0    0 -.37644908E+02 0.80008327E+02 0.21427325E+03 0.26335621E+03 0.12500000E+03 0.0000E+00 0.9000E+01
       24  1    1    2    0    0 -.26360713E+02 -.90081251E+02 0.39199395E+03 0.41101824E+03 0.80419002E+02 0.0000E+00 0.9000E+01
        1  1    1    2  501    0 0.64005622E+02 0.10072924E+02 0.49449880E+03 0.49872573E+03 0.32000000E+00 0.0000E+00 0.9000E+01
#aMCatNLO 1  0  0  2  1 0.11263366D+02 0.00000000D+00  -5  6  0 0.00000000D+00 0.00000000D+00 0.00000000D+00 0.00000000D+00 0.00000000D+00
  <mgrwgt>
 0.1434409417D+00   12    2    0
 0.202779589506164D+03 0.000000000000000D+00 0.000000000000000D+00 0.202779589506164D+03
 0.202779589506164D+03 0.000000000000000D+00 0.000000000000000D+00 -.202779589506164D+03
 0.180192108053458D+03 -.376450527653167D+02 0.800083043070432D+02 -.950037738669207D+02
 0.124943449567450D+03 -.263608134905117D+02 -.900812670149462D+02 0.182790174939386D+02
 0.100423621391420D+03 0.640058662558284D+02 0.100729627079030D+02 0.767247563729821D+02
 0.000000000000000D+00 0.000000000000000D+00 -.000000000000000D+00 -.000000000000000D+00
 0.455881759459545D+03 0.000000000000000D+00 0.000000000000000D+00 0.455881759459545D+03
 0.526401640432082D+03 0.000000000000000D+00 0.000000000000000D+00 -.526401640432082D+03
 0.341130236293307D+03 -.958941560830655D+02 0.287268919122287D+03 -.950037738669207D+02
 0.970706849455328D+02 -.511672013223084D+02 -.181575045725278D+01 0.182790174939386D+02
 0.134131804680929D+03 0.377981976316365D+02 0.103324484234228D+03 0.767247563729821D+02
 0.409950673971859D+03 0.109263159773737D+03 -.388777652899262D+03 -.705198809725378D+02
0.826167651917D-05 0.000000000000D+00 0.000000000000D+00 0.103727772503D-06 0.000000000000D+00  6 2 21 25 24 1 21 2 0.17491278D+00 0.55641678D-02 0.29156484D+05 0.29156484D+05 0.29156484D+05 0.12162005D+01  1  2  2  2  6  2       21 0.761597724822D-01 0.100000000000D+01
-.944020334341D-06 0.435980647809D-06 -.166779445977D-07 0.103727772503D-06 0.000000000000D+00  6 2 21 25 24 1 21 4 0.17491278D+00 0.55641678D-02 0.29156484D+05 0.29156484D+05 0.29156484D+05 0.12162005D+01  1  2  3  2  6  2       21 -.128720930020D-01 0.100000000000D+01
0.923219751330D-06 0.000000000000D+00 0.000000000000D+00 0.103727772503D-06 0.000000000000D+00  6 2 21 25 24 1 21 4 0.17491278D+00 0.55641678D-02 0.29156484D+05 0.29156484D+05 0.29156484D+05 0.12162005D+01  1  2 15  2  6  2       21 0.125884687735D-01 0.100000000000D+01
0.111348551681D-03 0.000000000000D+00 -.911650558556D-04 0.103727772503D-06 0.000000000000D+00  6 2 21 25 24 1 21 4 0.17491278D+00 0.35979673D-01 0.29156484D+05 0.29156484D+05 0.29156484D+05 0.12162005D+01  1  2  5  2  6  2       21 0.509294807883D-01 0.100000000000D+01
0.476202933225D-04 0.000000000000D+00 -.388610103643D-04 0.103727772503D-06 0.000000000000D+00  6 2 -1 25 24 1 -1 4 0.17491278D+00 0.35979673D-01 0.29156484D+05 0.29156484D+05 0.29156484D+05 0.12162005D+01  1  2  5  5  6  2       21 0.198871144237D-02 0.100000000000D+01
0.476202933225D-04 0.000000000000D+00 -.388610103643D-04 0.103727772503D-06 0.000000000000D+00  6 2 1 25 24 1 1 4 0.17491278D+00 0.35979673D-01 0.29156484D+05 0.29156484D+05 0.29156484D+05 0.12162005D+01  1  2  5  6  6  2       21 0.380092725260D-02 0.100000000000D+01
0.476202933225D-04 0.000000000000D+00 -.388610103643D-04 0.103727772503D-06 0.000000000000D+00  6 2 -2 25 24 1 -2 4 0.17491278D+00 0.35979673D-01 0.29156484D+05 0.29156484D+05 0.29156484D+05 0.12162005D+01  1  2  5  7  6  2       21 0.170704828021D-02 0.100000000000D+01
0.476202933225D-04 0.000000000000D+00 -.388610103643D-04 0.103727772503D-06 0.000000000000D+00  6 2 2 25 24 1 2 4 0.17491278D+00 0.35979673D-01 0.29156484D+05 0.29156484D+05 0.29156484D+05 0.12162005D+01  1  2  5  8  6  2       21 0.514855327191D-02 0.100000000000D+01
0.476202933225D-04 0.000000000000D+00 -.388610103643D-04 0.103727772503D-06 0.000000000000D+00  6 2 -3 25 24 1 -3 4 0.17491278D+00 0.35979673D-01 0.29156484D+05 0.29156484D+05 0.29156484D+05 0.12162005D+01  1  2  5  9  6  2       21 0.108650497512D-02 0.100000000000D+01
0.476202933225D-04 0.000000000000D+00 -.388610103643D-04 0.103727772503D-06 0.000000000000D+00  6 2 -4 25 24 1 -4 4 0.17491278D+00 0.35979673D-01 0.29156484D+05 0.29156484D+05 0.29156484D+05 0.12162005D+01  1  2  5  9  6  2       21 0.908463443164D-03 0.100000000000D+01
0.476202933225D-04 0.000000000000D+00 -.388610103643D-04 0.103727772503D-06 0.000000000000D+00  6 2 3 25 24 1 3 4 0.17491278D+00 0.35979673D-01 0.29156484D+05 0.29156484D+05 0.29156484D+05 0.12162005D+01  1  2  5 10  6  2       21 0.108664050729D-02 0.100000000000D+01
0.476202933225D-04 0.000000000000D+00 -.388610103643D-04 0.103727772503D-06 0.000000000000D+00  6 2 4 25 24 1 4 4 0.17491278D+00 0.35979673D-01 0.29156484D+05 0.29156484D+05 0.29156484D+05 0.12162005D+01  1  2  5 10  6  2       21 0.908463443164D-03 0.100000000000D+01
  </mgrwgt>
  </event>
  <event>
  5     66 0.45638357E-03 0.24503946E+02 0.75467711E-02 0.11589988E+00
        2 -1    0    0  502    0 0.00000000E+00 0.00000000E+00 0.86365183E+03 0.86365189E+03 0.32000000E+00 0.0000E+00 0.9000E+01
       21 -1    0    0  501  502 0.00000000E+00 0.00000000E+00 -.37008036E+02 0.37015635E+02 0.75000000E+00 0.0000E+00 0.9000E+01
       25  1    1    2    0    0 -.62416444E+02 -.10040708E+03 0.33396237E+03 0.37567707E+03 0.12500000E+03 0.0000E+00 0.9000E+01
       24  1    1    2    0    0 0.53455139E+02 0.12321153E+03 0.43545776E+03 0.46274098E+03 0.80419002E+02 0.0000E+00 0.9000E+01
        1  1    1    2  501    0 0.89613047E+01 -.22804452E+02 0.57223661E+02 0.62249480E+02 0.32000000E+00 0.0000E+00 0.9000E+01
#aMCatNLO 1  0  0  2  5 0.37112317D+02 0.00000000D+00  -5  6  0 0.00000000D+00 0.00000000D+00 0.00000000D+00 0.00000000D+00 0.00000000D+00
  <mgrwgt>
 0.9599454299D-01    4    2    0
 0.178789000035302D+03 0.000000000000000D+00 0.000000000000000D+00 0.178789000035302D+03
 0.178789000035302D+03 0.000000000000000D+00 0.000000000000000D+00 -.178789000035302D+03
 0.174205530823077D+03 -.624168159008430D+02 -.100406129514723D+03 -.273004984940406D+02
 0.158867466652704D+03 0.534547993955345D+02 0.123212392933067D+03 0.270729875626595D+02
 0.245050025948223D+02 0.896201650530852D+01 -.228062634183446D+02 0.227510931381033D+00
 0.000000000000000D+00 -.000000000000000D+00 -.000000000000000D+00 0.000000000000000D+00
 0.195708392791542D+03 0.000000000000000D+00 0.000000000000000D+00 0.195708392791542D+03
 0.188569980808044D+03 0.000000000000000D+00 0.000000000000000D+00 -.188569980808044D+03
 0.168886914325828D+03 -.507981334309797D+02 -.978367121913083D+02 -.273004984940406D+02
 0.164722634296653D+03 0.644130431181261D+02 0.125635757314361D+03 0.270729875626595D+02
 0.248297450654810D+02 0.106327171456188D+02 -.224367957804616D+02 0.227510931381033D+00
 0.258390799116241D+02 -.242476268327652D+02 -.536224934259076D+01 0.713841198349783D+01
0.678557499528D-05 0.000000000000D+00 0.000000000000D+00 0.386293588818D-06 0.000000000000D+00  6 2 21 25 24 1 21 2 0.13287010D+00 0.56941330D-02 0.31170022D+05 0.31170022D+05 0.31170022D+05 0.12131584D+01  1  2  2  2  6  2       21 0.876107393321D-01 0.100000000000D+01
0.512477712352D-06 0.358084630321D-06 -.136981209047D-07 0.386293588818D-06 0.000000000000D+00  6 2 21 25 24 1 21 4 0.13287010D+00 0.56941330D-02 0.31170022D+05 0.31170022D+05 0.31170022D+05 0.12131584D+01  1  2  3  2  6  2       21 0.973824432899D-02 0.100000000000D+01
0.695899302794D-06 0.000000000000D+00 0.000000000000D+00 0.386293588818D-06 0.000000000000D+00  6 2 21 25 24 1 21 4 0.13287010D+00 0.56941330D-02 0.31170022D+05 0.31170022D+05 0.31170022D+05 0.12131584D+01  1  2 15  2  6  2       21 0.132236725142D-01 0.100000000000D+01
-.767177105392D-06 0.000000000000D+00 0.000000000000D+00 0.386293588818D-06 0.000000000000D+00  6 2 21 25 24 1 21 4 0.13287010D+00 0.56941330D-02 0.31170022D+05 0.31170022D+05 0.31170022D+05 0.12131584D+01  1  2  4  2  6  2       21 -.145781131859D-01 0.100000000000D+01
  </mgrwgt>
  </event>
  <event>
  6     66 0.45638357E-03 0.26098087E+02 0.75467711E-02 0.11748591E+00
        4 -1    0    0  502    0 0.00000000E+00 0.00000000E+00 0.11711419E+03 0.11712444E+03 0.15500000E+01 0.0000E+00 0.9000E+01
       21 -1    0    0  501  502 -.00000000E+00 -.00000000E+00 -.35626176E+03 0.35626255E+03 0.75000000E+00 0.0000E+00 0.9000E+01
       25  1    1    2    0    0 0.46810881E+02 -.92096695E+02 -.62684587E+01 0.16228787E+03 0.12500000E+03 0.0000E+00 0.9000E+01
       24  1    1    2    0    0 -.80658810E+02 0.79485752E+02 -.20729326E+03 0.24952263E+03 0.80419002E+02 0.0000E+00 0.9000E+01
        3  1    1    2  503    0 0.25209818E+02 0.21087025E+02 -.33629763E+02 0.47025615E+02 0.50000000E+00 0.0000E+00 0.9000E+01
       21  1    1    2  501  503 0.86381109E+01 -.84760827E+01 0.80439124E+01 0.14550875E+02 0.75000000E+00 0.0000E+00 0.9000E+01
#aMCatNLO 2  0  0  5  2 0.20205005D+02 0.00000000D+00  -5  6  0 0.00000000D+00 0.00000000D+00 0.00000000D+00 0.00000000D+00 0.00000000D+00
  <mgrwgt>
 0.6853225827D-01    2    2    0
 0.204269233956038D+03 0.000000000000000D+00 0.000000000000000D+00 0.204269233956038D+03
 0.204269233956038D+03 -.000000000000000D+00 -.000000000000000D+00 -.204269233956038D+03
 0.183277840147951D+03 0.384338333615294D+02 -.952177859148978D+02 0.861520770956835D+02
 0.171129714720507D+03 -.883809964863015D+02 0.766086469280881D+02 -.955932946491941D+02
 0.541309130436178D+02 0.499471631247721D+02 0.186091389868098D+02 0.944121755351057D+01
 0.000000000000000D+00 0.000000000000000D+00 -.000000000000000D+00 0.000000000000000D+00
 0.204269233956038D+03 0.000000000000000D+00 0.000000000000000D+00 0.204269233956038D+03
 0.204269233956038D+03 -.000000000000000D+00 -.000000000000000D+00 -.204269233956038D+03
 0.184390870518097D+03 0.468865545282623D+02 -.920685006869153D+02 0.877498451061496D+02
 0.167757884285158D+03 -.805899544472080D+02 0.795114060656869D+02 -.941205999402698D+02
 0.343940476017469D+02 0.245666451482935D+02 0.209975490399857D+02 -.117700208539517D+02
 0.219956655070743D+02 0.913675477065217D+01 -.844045441875732D+01 0.181407756880720D+02
-.260387034082D-04 0.000000000000D+00 0.000000000000D+00 0.111901965771D-06 0.000000000000D+00  6 4 21 25 24 3 21 4 0.18018417D-01 0.54810351D-01 0.29893665D+05 0.29893665D+05 0.29893665D+05 0.12150603D+01  1  2 13  3  6  5        3 -.203467953373D-01 0.100000000000D+01
0.113742497422D-03 0.000000000000D+00 0.000000000000D+00 0.111368480664D-06 0.143188341994D-07  6 4 21 25 24 3 21 4 0.18018417D-01 0.54810351D-01 0.29893665D+05 0.29893665D+05 0.29893665D+05 0.12150603D+01  1  2  1  3  6  5        3 0.888790536115D-01 0.100000000000D+01
  </mgrwgt>
  </event>
  <event>
  6     66 0.45638357E-03 0.12508739E+02 0.75467711E-02 0.12216455E+00
        2 -1    0    0  502    0 0.00000000E+00 0.00000000E+00 0.30394471E+03 0.30394488E+03 0.32000000E+00 0.0000E+00 0.9000E+01
       21 -1    0    0  503  502 0.00000000E+00 0.00000000E+00 -.34314855E+03 0.34314937E+03 0.75000000E+00 0.0000E+00 0.9000E+01
       25  1    1    2    0    0 0.45188209E+02 -.38934009E+02 0.16977772E+03 0.21910570E+03 0.12500000E+03 0.0000E+00 0.9000E+01
       24  1    1    2    0    0 -.46882313E+02 0.14792838E+02 0.87838354E+02 0.12883933E+03 0.80419002E+02 0.0000E+00 0.9000E+01
        1  1    1    2  501    0 -.11907904E+02 0.93651583E+01 -.81759581E+02 0.83151884E+02 0.32000000E+00 0.0000E+00 0.9000E+01
       21  1    1    2  503  501 0.13602009E+02 0.14776012E+02 -.21506033E+03 0.21599735E+03 0.75000000E+00 0.0000E+00 0.9000E+01
#aMCatNLO 2  0  0  2  5 0.21183878D+01 0.00000000D+00  -5  6  0 0.00000000D+00 0.00000000D+00 0.00000000D+00 0.00000000D+00 0.00000000D+00
  <mgrwgt>
 0.1032554323D+01    1    2    0
 0.196542419024471D+03 0.000000000000000D+00 0.000000000000000D+00 0.196542419024471D+03
 0.196542419024471D+03 0.000000000000000D+00 0.000000000000000D+00 -.196542419024471D+03
 0.164439492258739D+03 0.508692132933592D+02 -.327627002866523D+02 0.880583625963695D+02
 0.100935433338695D+03 -.433757541330343D+02 0.186020343691827D+02 0.386426450908556D+02
 0.127709912451508D+03 -.749345916032498D+01 0.141606659174696D+02 -.126701007687225D+03
 0.000000000000000D+00 0.000000000000000D+00 0.000000000000000D+00 -.000000000000000D+00
 0.197102173464584D+03 0.000000000000000D+00 0.000000000000000D+00 0.197102173464584D+03
 0.529157340071121D+03 0.000000000000000D+00 0.000000000000000D+00 -.529157340071121D+03
 0.164125283901731D+03 0.451882155706122D+02 -.389340309525498D+02 0.880583625963695D+02
 0.101868780880357D+03 -.468823085866353D+02 0.147928254789028D+02 0.386426450908556D+02
 0.127603489934749D+03 -.119079154952145D+02 0.936519317089796D+01 -.126701007687225D+03
 0.332661958818868D+03 0.136020085112376D+02 0.147760123027491D+02 -.332055166606537D+03
0.944242856236D-03 0.000000000000D+00 0.000000000000D+00 0.159731068022D-04 0.223410512158D-05  6 2 21 25 24 1 21 4 0.46760701D-01 0.52792048D-01 0.17954652D+05 0.17954652D+05 0.17954652D+05 0.12390177D+01  1  2  1  2  6  2       21 0.103255432261D+01 0.100000000000D+01
  </mgrwgt>
  </event>
  <event>
  5     66 -.45638357E-03 0.48754640E+02 0.75467711E-02 0.10283130E+00
        2 -1    0    0  502    0 0.00000000E+00 0.00000000E+00 0.10297320E+04 0.10297320E+04 0.32000000E+00 0.0000E+00 0.9000E+01
       21 -1    0    0  501  502 0.00000000E+00 0.00000000E+00 -.22809191E+02 0.22821518E+02 0.75000000E+00 0.0000E+00 0.9000E+01
       25  1    1    2    0    0 0.58757711E+02 -.70342152E+02 0.44120021E+03 0.46763567E+03 0.12500000E+03 0.0000E+00 0.9000E+01
       24  1    1    2    0    0 -.35627221E+02 0.27424586E+02 0.45015807E+03 0.45948984E+03 0.80419002E+02 0.0000E+00 0.9000E+01
        1  1    1    2  501    0 -.23130491E+02 0.42917567E+02 0.11556450E+03 0.12542804E+03 0.32000000E+00 0.0000E+00 0.9000E+01
#aMCatNLO 1  0  0  2  5 0.21183878D+01 0.00000000D+00  -5  6  0 0.00000000D+00 0.00000000D+00 0.00000000D+00 0.00000000D+00 0.00000000D+00
  <mgrwgt>
 -.1947325297D+00   12    2    0
 0.153277092366959D+03 0.000000000000000D+00 0.000000000000000D+00 0.153277092366959D+03
 0.153277092366959D+03 0.000000000000000D+00 0.000000000000000D+00 -.153277092366959D+03
 0.156439256569789D+03 0.587579431504127D+02 -.703425824372718D+02 -.211581239455825D+02
 0.990467996312607D+02 -.356270741576565D+02 0.274243134358970D+02 0.363547958646324D+02
 0.510681285328693D+02 -.231308689927562D+02 0.429182690013749D+02 -.151966719190499D+02
 0.000000000000000D+00 0.000000000000000D+00 0.000000000000000D+00 -.000000000000000D+00
 0.272872914874212D+03 0.000000000000000D+00 0.000000000000000D+00 0.272872914874212D+03
 0.210693184357446D+04 0.000000000000000D+00 0.000000000000000D+00 -.210693184357446D+04
 0.196018263601421D+03 -.112553259384126D+03 -.983984616669849D+02 -.211581239455825D+02
 0.202450587423995D+03 -.182169216065617D+03 0.342489848459332D+01 0.363547958646324D+02
 0.104445094765685D+03 -.987177291634694D+02 0.305393014328343D+02 -.151966719190499D+02
 0.187689081265757D+04 0.393440204613212D+03 0.644342617495573D+02 -.183405892870024D+04
0.243646953313D-05 0.000000000000D+00 0.000000000000D+00 0.361483744479D-06 0.000000000000D+00  6 2 21 25 24 1 21 2 0.15842126D+00 0.35100584D-02 0.21887735D+05 0.21887735D+05 0.21887735D+05 0.12295368D+01  1  2  2  2  6  2       21 0.573767418921D-01 0.100000000000D+01
-.539957189246D-07 0.128576029690D-06 -.491853000940D-08 0.361483744479D-06 0.000000000000D+00  6 2 21 25 24 1 21 4 0.15842126D+00 0.35100584D-02 0.21887735D+05 0.21887735D+05 0.21887735D+05 0.12295368D+01  1  2  3  2  6  2       21 -.192228299416D-02 0.100000000000D+01
0.262989847142D-06 0.000000000000D+00 0.000000000000D+00 0.361483744479D-06 0.000000000000D+00  6 2 21 25 24 1 21 4 0.15842126D+00 0.35100584D-02 0.21887735D+05 0.21887735D+05 0.21887735D+05 0.12295368D+01  1  2 15  2  6  2       21 0.936261097857D-02 0.100000000000D+01
-.173932261340D-02 0.000000000000D+00 -.392276563427D-03 0.361483744479D-06 0.000000000000D+00  6 2 21 25 24 1 21 4 0.15842126D+00 0.83506135D-01 0.21887735D+05 0.21887735D+05 0.21887735D+05 0.12295368D+01  1  2  5  2  6  2       21 -.164837851687D+00 0.100000000000D+01
-.771783214103D-03 0.000000000000D+00 -.173863994415D-03 0.361483744479D-06 0.000000000000D+00  6 2 -1 25 24 1 -1 4 0.15842126D+00 0.83506135D-01 0.21887735D+05 0.21887735D+05 0.21887735D+05 0.12295368D+01  1  2  5  5  6  2       21 -.805408544709D-02 0.100000000000D+01
-.771783214103D-03 0.000000000000D+00 -.173863994415D-03 0.361483744479D-06 0.000000000000D+00  6 2 1 25 24 1 1 4 0.15842126D+00 0.83506135D-01 0.21887735D+05 0.21887735D+05 0.21887735D+05 0.12295368D+01  1  2  5  6  6  2       21 -.258129703801D-01 0.100000000000D+01
-.771783214103D-03 0.000000000000D+00 -.173863994415D-03 0.361483744479D-06 0.000000000000D+00  6 2 -2 25 24 1 -2 4 0.15842126D+00 0.83506135D-01 0.21887735D+05 0.21887735D+05 0.21887735D+05 0.12295368D+01  1  2  5  7  6  2       21 -.610498569570D-02 0.100000000000D+01
-.771783214103D-03 0.000000000000D+00 -.173863994415D-03 0.361483744479D-06 0.000000000000D+00  6 2 2 25 24 1 2 4 0.15842126D+00 0.83506135D-01 0.21887735D+05 0.21887735D+05 0.21887735D+05 0.12295368D+01  1  2  5  8  6  2       21 -.409283765350D-01 0.100000000000D+01
-.771783214103D-03 0.000000000000D+00 -.173863994415D-03 0.361483744479D-06 0.000000000000D+00  6 2 -3 25 24 1 -3 4 0.15842126D+00 0.83506135D-01 0.21887735D+05 0.21887735D+05 0.21887735D+05 0.12295368D+01  1  2  5  9  6  2       21 -.382368906772D-02 0.100000000000D+01
-.771783214103D-03 0.000000000000D+00 -.173863994415D-03 0.361483744479D-06 0.000000000000D+00  6 2 -4 25 24 1 -4 4 0.15842126D+00 0.83506135D-01 0.21887735D+05 0.21887735D+05 0.21887735D+05 0.12295368D+01  1  2  5  9  6  2       21 -.307931590971D-02 0.100000000000D+01
-.771783214103D-03 0.000000000000D+00 -.173863994415D-03 0.361483744479D-06 0.000000000000D+00  6 2 3 25 24 1 3 4 0.15842126D+00 0.83506135D-01 0.21887735D+05 0.21887735D+05 0.21887735D+05 0.12295368D+01  1  2  5 10  6  2       21 -.382900890896D-02 0.100000000000D+01
-.771783214103D-03 0.000000000000D+00 -.173863994415D-03 0.361483744479D-06 0.000000000000D+00  6 2 4 25 24 1 4 4 0.15842126D+00 0.83506135D-01 0.21887735D+05 0.21887735D+05 0.21887735D+05 0.12295368D+01  1  2  5 10  6  2       21 -.307931590971D-02 0.100000000000D+01
  </mgrwgt>
  </event>
  <event>
  6     66 -.45638357E-03 0.19028881E+02 0.75467711E-02 0.12048168E+00
        2 -1    0    0  502    0 0.00000000E+00 0.00000000E+00 0.44927169E+03 0.44927181E+03 0.32000000E+00 0.0000E+00 0.9000E+01
       21 -1    0    0  503  502 0.00000000E+00 0.00000000E+00 -.66842088E+02 0.66846295E+02 0.75000000E+00 0.0000E+00 0.9000E+01
       25  1    1    2    0    0 -.44704643E+02 0.63035544E+02 0.31728053E+03 0.34966258E+03 0.12500000E+03 0.0000E+00 0.9000E+01
       24  1    1    2    0    0 0.22487746E+02 -.76755624E+02 0.69575448E+02 0.13306045E+03 0.80419002E+02 0.0000E+00 0.9000E+01
        1  1    1    2  501    0 0.23102334E+02 0.46773976E+01 -.80995285E+00 0.23587164E+02 0.32000000E+00 0.0000E+00 0.9000E+01
       21  1    1    2  503  501 -.88543704E+00 0.90426830E+01 -.36164183E+01 0.98079099E+01 0.75000000E+00 0.0000E+00 0.9000E+01
#aMCatNLO 2  0  0  2  1 0.90859295D+01 0.00000000D+00  -5  6  0 0.00000000D+00 0.00000000D+00 0.00000000D+00 0.00000000D+00 0.00000000D+00
  <mgrwgt>
 -.2096130094D+00    2    2    0
 0.163734483520141D+03 0.000000000000000D+00 0.000000000000000D+00 0.163734483520141D+03
 0.163734483520141D+03 0.000000000000000D+00 0.000000000000000D+00 -.163734483520141D+03
 0.168451201748055D+03 -.451578543861652D+02 0.676595394406706D+02 0.783183393610849D+02
 0.121527526473075D+03 0.221560192973980D+02 -.733710572932810D+02 -.492698944270510D+02
 0.374902388191530D+02 0.230018350887672D+02 0.571151785261032D+01 -.290484449340339D+02
 0.000000000000000D+00 -.000000000000000D+00 0.000000000000000D+00 -.000000000000000D+00
 0.164926781975272D+03 0.000000000000000D+00 0.000000000000000D+00 0.164926781975272D+03
 0.182073224895979D+03 0.000000000000000D+00 0.000000000000000D+00 -.182073224895979D+03
 0.166525586536150D+03 -.447050728647133D+02 0.630354277457630D+02 0.783183393610849D+02
 0.123660261146022D+03 0.224874347966278D+02 -.767556969334940D+02 -.492698944270510D+02
 0.374091438686499D+02 0.231030751078828D+02 0.467758617871122D+01 -.290484449340339D+02
 0.194050153204296D+02 -.885437039797423D+00 0.904268300901981D+01 -.171464429207065D+02
-.224688983690D-04 0.000000000000D+00 0.000000000000D+00 0.101230637838D-05 0.000000000000D+00  6 2 21 25 24 1 21 4 0.68616379D-01 0.10314666D-01 0.21467824D+05 0.21467824D+05 0.21467824D+05 0.12304542D+01  1  2 13  2  6  2       21 -.349106629283D+00 0.100000000000D+01
0.900050110201D-05 0.000000000000D+00 0.000000000000D+00 0.101725721209D-05 0.175171205520D-06  6 2 21 25 24 1 21 4 0.69116037D-01 0.10283282D-01 0.21467824D+05 0.21467824D+05 0.21467824D+05 0.12304542D+01  1  2  1  2  6  2       21 0.139493619851D+00 0.100000000000D+01
  </mgrwgt>
  </event>
  <event>
  5     66 0.45638357E-03 0.39920868E+02 0.75467711E-02 0.95146333E-01
        2 -1    0    0  502    0 0.00000000E+00 0.00000000E+00 0.32531811E+03 0.32531827E+03 0.32000000E+00 0.0000E+00 0.9000E+01
       21 -1    0    0  501  502 0.00000000E+00 0.00000000E+00 -.88544109E+02 0.88547285E+02 0.75000000E+00 0.0000E+00 0.9000E+01
       25  1    1    2    0    0 -.80297718E+02 0.30792793E+02 0.11785947E+03 0.19212437E+03 0.12500000E+03 0.0000E+00 0.9000E+01
       24  1    1    2    0    0 0.10221902E+03 -.64155234E+02 0.10652118E+03 0.17994054E+03 0.80419002E+02 0.0000E+00 0.9000E+01
        1  1    1    2  501    0 -.21921302E+02 0.33362441E+02 0.12393361E+02 0.41800643E+02 0.32000000E+00 0.0000E+00 0.9000E+01
#aMCatNLO 1  0  0  2  2 0.17309799D+00 0.00000000D+00  -5  6  0 0.00000000D+00 0.00000000D+00 0.00000000D+00 0.00000000D+00 0.00000000D+00
  <mgrwgt>
 0.1204723941D+00   12    2    0
 0.169722397758189D+03 0.000000000000000D+00 0.000000000000000D+00 0.169722397758189D+03
 0.169722397758189D+03 0.000000000000000D+00 0.000000000000000D+00 -.169722397758189D+03
 0.152035105694007D+03 -.802974368699964D+02 0.307923655993257D+02 0.968634173949556D+01
 0.145089496079068D+03 0.102219287236727D+03 -.641556418813090D+02 0.436083131067588D+01
 0.423201937433034D+02 -.219218503667306D+02 0.333632762819833D+02 -.140471730501714D+02
 0.000000000000000D+00 0.000000000000000D+00 -.000000000000000D+00 -.000000000000000D+00
 0.574706879556712D+03 0.000000000000000D+00 0.000000000000000D+00 0.574706879556712D+03
 0.156116389834540D+04 0.000000000000000D+00 0.000000000000000D+00 -.156116389834540D+04
 0.585037820546906D+03 -.563448703017607D+03 0.952679658739273D+02 0.968634173949556D+01
 0.112514430604720D+03 -.666400737719942D+02 -.416216873501898D+02 0.436083131067588D+01
 0.169557626820501D+03 -.160807751109392D+03 0.518973306195869D+02 -.140471730501714D+02
 0.126876089992999D+04 0.790896527898993D+03 -.105543609143324D+03 -.986457018788690D+03
0.750068564751D-05 0.000000000000D+00 0.000000000000D+00 0.366747418946D-06 0.000000000000D+00  6 2 21 25 24 1 21 2 0.50049197D-01 0.13622427D-01 0.28336848D+05 0.28336848D+05 0.28336848D+05 0.12175067D+01  1  2  2  2  6  2       21 0.645490998847D-01 0.100000000000D+01
0.128648813838D-06 0.395822056216D-06 -.151417232790D-07 0.366747418946D-06 0.000000000000D+00  6 2 21 25 24 1 21 4 0.50049197D-01 0.13622427D-01 0.28336848D+05 0.28336848D+05 0.28336848D+05 0.12175067D+01  1  2  3  2  6  2       21 0.164111014055D-02 0.100000000000D+01
0.750211911945D-06 0.000000000000D+00 0.000000000000D+00 0.366747418946D-06 0.000000000000D+00  6 2 21 25 24 1 21 4 0.50049197D-01 0.13622427D-01 0.28336848D+05 0.28336848D+05 0.28336848D+05 0.12175067D+01  1  2 15  2  6  2       21 0.957008727498D-02 0.100000000000D+01
0.163949599100D-02 0.000000000000D+00 -.106548364418D-02 0.366747418946D-06 0.000000000000D+00  6 2 21 25 24 1 21 4 0.50049197D-01 0.30629290D+00 0.28336848D+05 0.28336848D+05 0.28336848D+05 0.12175067D+01  1  2  5  2  6  2       21 0.145593341078D-01 0.100000000000D+01
0.726570717098D-03 0.000000000000D+00 -.472081889840D-03 0.366747418946D-06 0.000000000000D+00  6 2 -1 25 24 1 -1 4 0.50049197D-01 0.30629290D+00 0.28336848D+05 0.28336848D+05 0.28336848D+05 0.12175067D+01  1  2  5  5  6  2       21 0.687018379281D-03 0.100000000000D+01
0.726570717098D-03 0.000000000000D+00 -.472081889840D-03 0.366747418946D-06 0.000000000000D+00  6 2 1 25 24 1 1 4 0.50049197D-01 0.30629290D+00 0.28336848D+05 0.28336848D+05 0.28336848D+05 0.12175067D+01  1  2  5  6  6  2       21 0.789091903000D-02 0.100000000000D+01
0.726570717098D-03 0.000000000000D+00 -.472081889840D-03 0.366747418946D-06 0.000000000000D+00  6 2 -2 25 24 1 -2 4 0.50049197D-01 0.30629290D+00 0.28336848D+05 0.28336848D+05 0.28336848D+05 0.12175067D+01  1  2  5  7  6  2       21 0.571218389195D-03 0.100000000000D+01
0.726570717098D-03 0.000000000000D+00 -.472081889840D-03 0.366747418946D-06 0.000000000000D+00  6 2 2 25 24 1 2 4 0.50049197D-01 0.30629290D+00 0.28336848D+05 0.28336848D+05 0.28336848D+05 0.12175067D+01  1  2  5  8  6  2       21 0.196016508113D-01 0.100000000000D+01
0.726570717098D-03 0.000000000000D+00 -.472081889840D-03 0.366747418946D-06 0.000000000000D+00  6 2 -3 25 24 1 -3 4 0.50049197D-01 0.30629290D+00 0.28336848D+05 0.28336848D+05 0.28336848D+05 0.12175067D+01  1  2  5  9  6  2       21 0.410068065190D-03 0.100000000000D+01
0.726570717098D-03 0.000000000000D+00 -.472081889840D-03 0.366747418946D-06 0.000000000000D+00  6 2 -4 25 24 1 -4 4 0.50049197D-01 0.30629290D+00 0.28336848D+05 0.28336848D+05 0.28336848D+05 0.12175067D+01  1  2  5  9  6  2       21 0.287377668188D-03 0.100000000000D+01
0.726570717098D-03 0.000000000000D+00 -.472081889840D-03 0.366747418946D-06 0.000000000000D+00  6 2 3 25 24 1 3 4 0.50049197D-01 0.30629290D+00 0.28336848D+05 0.28336848D+05 0.28336848D+05 0.12175067D+01  1  2  5 10  6  2       21 0.417132710428D-03 0.100000000000D+01
0.726570717098D-03 0.000000000000D+00 -.472081889840D-03 0.366747418946D-06 0.000000000000D+00  6 2 4 25 24 1 4 4 0.50049197D-01 0.30629290D+00 0.28336848D+05 0.28336848D+05 0.28336848D+05 0.12175067D+01  1  2  5 10  6  2       21 0.287377668188D-03 0.100000000000D+01
  </mgrwgt>
  </event>
  <event>
  5     66 -.45638357E-03 0.47168807E+02 0.75467711E-02 0.12295522E+00
        2 -1    0    0  502    0 0.00000000E+00 0.00000000E+00 0.20610495E+04 0.20610495E+04 0.32000000E+00 0.0000E+00 0.9000E+01
       21 -1    0    0  501  502 0.00000000E+00 0.00000000E+00 -.82144774E+01 0.82486447E+01 0.75000000E+00 0.0000E+00 0.9000E+01
       25  1    1    2    0    0 -.15145360E+02 0.16836865E+02 0.89317372E+03 0.90216248E+03 0.12500000E+03 0.0000E+00 0.9000E+01
       24  1    1    2    0    0 -.21879061E+02 0.12386494E+02 0.78855577E+03 0.79304447E+03 0.80419002E+02 0.0000E+00 0.9000E+01
        1  1    1    2  501    0 0.37024422E+02 -.29223359E+02 0.37110551E+03 0.37409118E+03 0.32000000E+00 0.0000E+00 0.9000E+01
#aMCatNLO 1  0  0  5  2 0.14475610D+02 0.00000000D+00  -5  6  0 0.00000000D+00 0.00000000D+00 0.00000000D+00 0.00000000D+00 0.00000000D+00
  <mgrwgt>
 -.2580515560D+00    7    2    0
 0.130252911346996D+03 0.000000000000000D+00 0.000000000000000D+00 0.130252911346996D+03
 0.130252911346996D+03 -.000000000000000D+00 -.000000000000000D+00 -.130252911346996D+03
 0.127847111160084D+03 -.151457784692647D+02 0.168371954327571D+02 -.143874277234659D+02
 0.854898445887213D+02 -.218793408937650D+02 0.123867146862436D+02 0.144624104066094D+02
 0.471688669451875D+02 0.370251193630297D+02 -.292239101190007D+02 -.749826831434462D-01
 0.000000000000000D+00 0.000000000000000D+00 0.000000000000000D+00 -.000000000000000D+00
 0.130252911346996D+03 0.000000000000000D+00 0.000000000000000D+00 0.130252911346996D+03
 0.130252911346996D+03 -.000000000000000D+00 -.000000000000000D+00 -.130252911346996D+03
 0.127087413730535D+03 -.113182802710772D+02 0.138161528203689D+02 -.143951791119709D+02
 0.846006415346975D+02 -.193256615541559D+02 0.103710967280203D+02 0.144572387358068D+02
 0.274551435028268D+02 0.100084538075776D+02 -.249878613499286D+02 0.540578785184398D+01
 0.213626239259334D+02 0.206354880176554D+02 0.800611801539320D+00 -.546784747567984D+01
0.133663314614D-04 0.000000000000D+00 0.000000000000D+00 0.499877180204D-06 0.000000000000D+00  6 2 21 25 24 1 21 2 0.31708716D+00 0.12663959D-02 0.16700579D+05 0.16700579D+05 0.16700579D+05 0.12425403D+01  1  2  2  3  6  5        1 0.476735925727D+00 0.100000000000D+01
-.634842028069D-06 0.705360689906D-06 -.269827722097D-07 0.499877180204D-06 0.000000000000D+00  6 2 21 25 24 1 21 4 0.31708716D+00 0.12663959D-02 0.16700579D+05 0.16700579D+05 0.16700579D+05 0.12425403D+01  1  2  3  3  6  5        1 -.349584596590D-01 0.100000000000D+01
0.154811875708D-05 0.000000000000D+00 0.000000000000D+00 0.499877180204D-06 0.000000000000D+00  6 2 21 25 24 1 21 4 0.31708716D+00 0.12663959D-02 0.16700579D+05 0.16700579D+05 0.16700579D+05 0.12425403D+01  1  2 15  3  6  5        1 0.852493135675D-01 0.100000000000D+01
0.709365166545D-05 0.000000000000D+00 0.000000000000D+00 0.500263904084D-06 0.000000000000D+00  6 2 21 25 24 1 21 4 0.31708716D+00 0.12663959D-02 0.16537243D+05 0.16537243D+05 0.16537243D+05 0.12430208D+01  1  2 12  3  6  5        1 0.391222434201D+00 0.100000000000D+01
-.255646431464D-04 0.000000000000D+00 0.000000000000D+00 0.499877180204D-06 0.000000000000D+00  6 2 21 25 24 1 21 4 0.31708716D+00 0.12663959D-02 0.16700579D+05 0.16700579D+05 0.16700579D+05 0.12425403D+01  1  2  4  3  6  5        1 -.140775264808D+01 0.100000000000D+01
-.550037602150D-05 0.000000000000D+00 0.000000000000D+00 0.499877180204D-06 0.000000000000D+00  6 2 21 25 24 1 21 4 0.31708716D+00 0.12663959D-02 0.16700579D+05 0.16700579D+05 0.16700579D+05 0.12425403D+01  1  2  5  3  6  5        1 -.302885859403D+00 0.100000000000D+01
0.970351830010D-05 0.000000000000D+00 -.000000000000D+00 0.499877180204D-06 0.000000000000D+00  6 2 21 25 24 1 21 4 0.31708716D+00 0.12663959D-02 0.16700579D+05 0.16700579D+05 0.16700579D+05 0.12425403D+01  1  2  6  3  6  5        1 0.534337737651D+00 0.100000000000D+01
  </mgrwgt>
  </event>
  <event>
  6     66 -.45638357E-03 0.14725023E+02 0.75467711E-02 0.12256250E+00
        2 -1    0    0  503    0 0.00000000E+00 0.00000000E+00 0.22347203E+04 0.22347203E+04 0.32000000E+00 0.0000E+00 0.9000E+01
       21 -1    0    0  501  502 0.00000000E+00 0.00000000E+00 -.79205696E+01 0.79559992E+01 0.75000000E+00 0.0000E+00 0.9000E+01
       25  1    1    2    0    0 0.27578819E+02 0.49533874E+02 0.10370860E+04 0.10461293E+04 0.12500000E+03 0.0000E+00 0.9000E+01
       24  1    1    2    0    0 -.38012064E+02 -.24843767E+02 0.76472184E+03 0.77027842E+03 0.80419002E+02 0.0000E+00 0.9000E+01
        1  1    1    2  501    0 0.15578685E+02 -.13740446E+02 0.28155513E+03 0.28232054E+03 0.32000000E+00 0.0000E+00 0.9000E+01
       21  1    1    2  503  502 -.51454403E+01 -.10949660E+02 0.14343673E+03 0.14394801E+03 0.75000000E+00 0.0000E+00 0.9000E+01
#aMCatNLO 2  0  0  1  2 0.12098372D+02 0.00000000D+00  -5  6  0 0.00000000D+00 0.00000000D+00 0.00000000D+00 0.00000000D+00 0.00000000D+00
  <mgrwgt>
 -.5234639347D+00    3    2    0
 0.126602507767758D+03 0.000000000000000D+00 0.000000000000000D+00 0.126602507767758D+03
 0.126602507767758D+03 0.000000000000000D+00 0.000000000000000D+00 -.126602507767758D+03
 0.135188433891544D+03 0.248066089427598D+02 0.436368041608412D+02 -.114618555844072D+02
 0.943092321090253D+02 -.399081392999186D+02 -.288770844650379D+02 0.685359059783853D+00
 0.237073495349457D+02 0.151015303571588D+02 -.147597196958033D+02 0.107764965246234D+02
 0.000000000000000D+00 -.000000000000000D+00 -.000000000000000D+00 0.000000000000000D+00
 0.135445597098691D+03 0.000000000000000D+00 0.000000000000000D+00 0.135445597098691D+03
 0.130953646128877D+03 0.000000000000000D+00 0.000000000000000D+00 -.130953646128877D+03
 0.137733806483300D+03 0.275780874231268D+02 0.495345981009619D+02 -.114618555844072D+02
 0.923570748728614D+02 -.380125750098874D+02 -.248432636498839D+02 0.685359059783853D+00
 0.234030051592590D+02 0.155799279185232D+02 -.137416745410705D+02 0.107764965246234D+02
 0.129053567121471D+02 -.514544033176269D+01 -.109496599100075D+02 0.449195096981328D+01
-.125385314946D-04 0.000000000000D+00 0.000000000000D+00 0.589266145501D-06 0.000000000000D+00  6 2 21 25 24 1 21 4 0.34900533D+00 0.11806004D-02 0.17224355D+05 0.17224355D+05 0.17224355D+05 0.12410341D+01  1  2 13  1  6  1        2 -.600264395705D+00 0.100000000000D+01
-.271630069262D-08 0.000000000000D+00 0.000000000000D+00 0.593759949733D-06 0.000000000000D+00  6 2 21 25 24 1 21 4 0.32133274D+00 0.11806004D-02 0.15640614D+05 0.15640614D+05 0.15640614D+05 0.12457573D+01  1  2  8  1  6  1        2 -.163486218808D-03 0.100000000000D+01
0.162860690657D-05 0.000000000000D+00 0.000000000000D+00 0.593759949733D-06 0.573196035187D-07  6 2 21 25 24 1 21 4 0.34377758D+00 0.12211759D-02 0.17224355D+05 0.17224355D+05 0.17224355D+05 0.12410341D+01  1  2  1  1  6  1        2 0.769639472097D-01 0.100000000000D+01
  </mgrwgt>
  </event>
  <event>
  5     66 0.45638357E-03 0.10969276E+03 0.75467711E-02 0.10831401E+00
        2 -1    0    0  502    0 0.00000000E+00 0.00000000E+00 0.57145569E+03 0.57145578E+03 0.32000000E+00 0.0000E+00 0.9000E+01
       21 -1    0    0  501  502 0.00000000E+00 0.00000000E+00 -.15134519E+03 0.15134705E+03 0.75000000E+00 0.0000E+00 0.9000E+01
       25  1    1    2    0    0 -.10242736E+03 -.17558692E+02 0.24365403E+03 0.29290264E+03 0.12500000E+03 0.0000E+00 0.9000E+01
       24  1    1    2    0    0 -.70437329E+02 0.29082377E+02 0.22429743E+03 0.25016745E+03 0.80419002E+02 0.0000E+00 0.9000E+01
        1  1    1    2  501    0 0.17286469E+03 -.11523685E+02 -.47840962E+02 0.17973274E+03 0.32000000E+00 0.0000E+00 0.9000E+01
#aMCatNLO 1  0  0  2  1 0.13822772D+03 0.00000000D+00  -5  6  0 0.00000000D+00 0.00000000D+00 0.00000000D+00 0.00000000D+00 0.00000000D+00
  <mgrwgt>
 0.6512531876D-01   23    2    0
 0.294088041106233D+03 0.000000000000000D+00 0.000000000000000D+00 0.294088041106233D+03
 0.294088041106233D+03 0.000000000000000D+00 0.000000000000000D+00 -.294088041106233D+03
 0.185912475593280D+03 -.102427404191573D+03 -.175586889779107D+02 0.902151200917847D+02
 0.147221325922954D+03 -.704373626311423D+02 0.290823789338359D+02 0.969520295468838D+02
 0.255042280696233D+03 0.172864766822716D+03 -.115236899559252D+02 -.187167149638668D+03
 0.000000000000000D+00 -.000000000000000D+00 -.000000000000000D+00 -.000000000000000D+00
 0.358755972808786D+03 0.000000000000000D+00 0.000000000000000D+00 0.358755972808786D+03
 0.386411451374398D+03 0.000000000000000D+00 0.000000000000000D+00 -.386411451374398D+03
 0.180446172590073D+03 -.908514371845108D+02 0.233038552763271D+02 0.902151200917847D+02
 0.153296202377716D+03 -.609418013555927D+02 0.626012022515116D+02 0.969520295468838D+02
 0.270457928905503D+03 0.189469187432734D+03 0.470890265090493D+02 -.187167149638668D+03
 0.140967120309893D+03 -.376759488926306D+02 -.132994084036888D+03 -.276554785656119D+02
0.221243719271D-04 0.000000000000D+00 0.000000000000D+00 0.668625981964D-06 0.000000000000D+00  6 2 21 25 24 1 21 2 0.87916410D-01 0.23284026D-01 0.49861804D+05 0.49861804D+05 0.49861804D+05 0.11924008D+01  1  2  2  2  6  2       21 0.363264304597D-01 0.100000000000D+01
-.975902841224D-06 0.116753518281D-05 -.446627326066D-07 0.668625981964D-06 0.000000000000D+00  6 2 21 25 24 1 21 4 0.87916410D-01 0.23284026D-01 0.49861804D+05 0.49861804D+05 0.49861804D+05 0.11924008D+01  1  2  3  2  6  2       21 -.227825791742D-02 0.100000000000D+01
0.236650730933D-05 0.000000000000D+00 0.000000000000D+00 0.668625981964D-06 0.000000000000D+00  6 2 21 25 24 1 21 4 0.87916410D-01 0.23284026D-01 0.49861804D+05 0.49861804D+05 0.49861804D+05 0.11924008D+01  1  2 15  2  6  2       21 0.552464219426D-02 0.100000000000D+01
0.503120339675D-05 0.000000000000D+00 0.000000000000D+00 0.640078456389D-06 0.000000000000D+00  6 2 21 25 24 1 21 4 0.87916410D-01 0.32484035D-01 0.92561948D+05 0.92561948D+05 0.92561948D+05 0.11666679D+01  1  2 12  2  6  2       21 0.553578451820D-02 0.100000000000D+01
-.752724694549D-05 0.000000000000D+00 0.000000000000D+00 0.668625981964D-06 0.000000000000D+00  6 2 21 25 24 1 21 4 0.87916410D-01 0.23284026D-01 0.49861804D+05 0.49861804D+05 0.49861804D+05 0.11924008D+01  1  2  4  2  6  2       21 -.175724562175D-01 0.100000000000D+01
-.395061989402D-04 0.000000000000D+00 -.256971926167D-04 0.668625981964D-06 0.000000000000D+00  6 2 21 25 24 1 21 4 0.87916410D-01 0.36925384D-01 0.49861804D+05 0.49861804D+05 0.49861804D+05 0.11924008D+01  1  2  5  2  6  2       21 -.375002632581D-01 0.100000000000D+01
0.336645546351D-04 0.000000000000D+00 0.173662564394D-04 0.668625981964D-06 0.000000000000D+00  6 2 21 25 24 1 21 4 0.87916410D-01 0.23284026D-01 0.49861804D+05 0.49861804D+05 0.49861804D+05 0.11924008D+01  1  2  6  2  6  2       21 0.785903420855D-01 0.100000000000D+01
0.538486803055D-06 0.000000000000D+00 0.000000000000D+00 0.640078456389D-06 0.000000000000D+00  6 2 -1 25 24 1 -1 4 0.87916410D-01 0.32484035D-01 0.92561948D+05 0.92561948D+05 0.92561948D+05 0.11666679D+01  1  2 12  5  6  2       21 0.542394908822D-04 0.100000000000D+01
-.527979442325D-05 0.000000000000D+00 -.407494294805D-05 0.668625981964D-06 0.000000000000D+00  6 2 -1 25 24 1 -1 4 0.87916410D-01 0.36925384D-01 0.49861804D+05 0.49861804D+05 0.49861804D+05 0.11924008D+01  1  2  5  5  6  2       21 -.466797625035D-03 0.100000000000D+01
0.538486803055D-06 0.000000000000D+00 0.000000000000D+00 0.640078456389D-06 0.000000000000D+00  6 2 1 25 24 1 1 4 0.87916410D-01 0.32484035D-01 0.92561948D+05 0.92561948D+05 0.92561948D+05 0.11666679D+01  1  2 12  6  6  2       21 0.988499521477D-04 0.100000000000D+01
-.527979442325D-05 0.000000000000D+00 -.407494294805D-05 0.668625981964D-06 0.000000000000D+00  6 2 1 25 24 1 1 4 0.87916410D-01 0.36925384D-01 0.49861804D+05 0.49861804D+05 0.49861804D+05 0.11924008D+01  1  2  5  6  6  2       21 -.903994427983D-03 0.100000000000D+01
0.538486803055D-06 0.000000000000D+00 0.000000000000D+00 0.640078456389D-06 0.000000000000D+00  6 2 -2 25 24 1 -2 4 0.87916410D-01 0.32484035D-01 0.92561948D+05 0.92561948D+05 0.92561948D+05 0.11666679D+01  1  2 12  7  6  2       21 0.472560341776D-04 0.100000000000D+01
-.527979442325D-05 0.000000000000D+00 -.407494294805D-05 0.668625981964D-06 0.000000000000D+00  6 2 -2 25 24 1 -2 4 0.87916410D-01 0.36925384D-01 0.49861804D+05 0.49861804D+05 0.49861804D+05 0.11924008D+01  1  2  5  7  6  2       21 -.399736804115D-03 0.100000000000D+01
0.538486803055D-06 0.000000000000D+00 0.000000000000D+00 0.640078456389D-06 0.000000000000D+00  6 2 2 25 24 1 2 4 0.87916410D-01 0.32484035D-01 0.92561948D+05 0.92561948D+05 0.92561948D+05 0.11666679D+01  1  2 12  8  6  2       21 0.131968735356D-03 0.100000000000D+01
-.527979442325D-05 0.000000000000D+00 -.407494294805D-05 0.668625981964D-06 0.000000000000D+00  6 2 2 25 24 1 2 4 0.87916410D-01 0.36925384D-01 0.49861804D+05 0.49861804D+05 0.49861804D+05 0.11924008D+01  1  2  5  8  6  2       21 -.123159111985D-02 0.100000000000D+01
0.538486803055D-06 0.000000000000D+00 0.000000000000D+00 0.640078456389D-06 0.000000000000D+00  6 2 -3 25 24 1 -3 4 0.87916410D-01 0.32484035D-01 0.92561948D+05 0.92561948D+05 0.92561948D+05 0.11666679D+01  1  2 12  9  6  2       21 0.308965028638D-04 0.100000000000D+01
0.538486803055D-06 0.000000000000D+00 0.000000000000D+00 0.640078456389D-06 0.000000000000D+00  6 2 -4 25 24 1 -4 4 0.87916410D-01 0.32484035D-01 0.92561948D+05 0.92561948D+05 0.92561948D+05 0.11666679D+01  1  2 12  9  6  2       21 0.262218247887D-04 0.100000000000D+01
-.527979442325D-05 0.000000000000D+00 -.407494294805D-05 0.668625981964D-06 0.000000000000D+00  6 2 -3 25 24 1 -3 4 0.87916410D-01 0.36925384D-01 0.49861804D+05 0.49861804D+05 0.49861804D+05 0.11924008D+01  1  2  5  9  6  2       21 -.256915691098D-03 0.100000000000D+01
-.527979442325D-05 0.000000000000D+00 -.407494294805D-05 0.668625981964D-06 0.000000000000D+00  6 2 -4 25 24 1 -4 4 0.87916410D-01 0.36925384D-01 0.49861804D+05 0.49861804D+05 0.49861804D+05 0.11924008D+01  1  2  5  9  6  2       21 -.215733139386D-03 0.100000000000D+01
0.538486803055D-06 0.000000000000D+00 0.000000000000D+00 0.640078456389D-06 0.000000000000D+00  6 2 3 25 24 1 3 4 0.87916410D-01 0.32484035D-01 0.92561948D+05 0.92561948D+05 0.92561948D+05 0.11666679D+01  1  2 12 10  6  2       21 0.308991487074D-04 0.100000000000D+01
0.538486803055D-06 0.000000000000D+00 0.000000000000D+00 0.640078456389D-06 0.000000000000D+00  6 2 4 25 24 1 4 4 0.87916410D-01 0.32484035D-01 0.92561948D+05 0.92561948D+05 0.92561948D+05 0.11666679D+01  1  2 12 10  6  2       21 0.262218247887D-04 0.100000000000D+01
-.527979442325D-05 0.000000000000D+00 -.407494294805D-05 0.668625981964D-06 0.000000000000D+00  6 2 3 25 24 1 3 4 0.87916410D-01 0.36925384D-01 0.49861804D+05 0.49861804D+05 0.49861804D+05 0.11924008D+01  1  2  5 10  6  2       21 -.256954672155D-03 0.100000000000D+01
-.527979442325D-05 0.000000000000D+00 -.407494294805D-05 0.668625981964D-06 0.000000000000D+00  6 2 4 25 24 1 4 4 0.87916410D-01 0.36925384D-01 0.49861804D+05 0.49861804D+05 0.49861804D+05 0.11924008D+01  1  2  5 10  6  2       21 -.215733139386D-03 0.100000000000D+01
  </mgrwgt>
  </event>
  <event>
  5     66 0.45638357E-03 0.29774052E+02 0.75467711E-02 0.12100361E+00
        4 -1    0    0  502    0 0.00000000E+00 0.00000000E+00 0.32415346E+02 0.32452383E+02 0.15500000E+01 0.0000E+00 0.9000E+01
       21 -1    0    0  501  502 0.00000000E+00 0.00000000E+00 -.65182459E+03 0.65182502E+03 0.75000000E+00 0.0000E+00 0.9000E+01
       25  1    1    2    0    0 0.83498246E+00 -.47392586E+02 -.32749184E+03 0.35372682E+03 0.12500000E+03 0.0000E+00 0.9000E+01
       24  1    1    2    0    0 0.14490361E+02 0.72917799E+02 -.27567375E+03 0.29663144E+03 0.80419002E+02 0.0000E+00 0.9000E+01
        3  1    1    2  501    0 -.15325344E+02 -.25525212E+02 -.16243652E+02 0.33919152E+02 0.50000000E+00 0.0000E+00 0.9000E+01
#aMCatNLO 1  0  0  1  2 0.12311857D+02 0.00000000D+00  -5  6  0 0.00000000D+00 0.00000000D+00 0.00000000D+00 0.00000000D+00 0.00000000D+00
  <mgrwgt>
 0.5710570621D-01    9    2    0
 0.145402677140893D+03 0.000000000000000D+00 0.000000000000000D+00 0.145402677140893D+03
 0.145402677140893D+03 0.000000000000000D+00 0.000000000000000D+00 -.145402677140893D+03
 0.134783475269188D+03 0.835416812508838D+00 -.473918627586042D+02 -.171726127499200D+02
 0.110807731985642D+03 0.144907183086344D+02 0.729183932872164D+02 -.168542136198056D+02
 0.452141470269556D+02 -.153261351211433D+02 -.255265305286122D+02 0.340268263697256D+02
 0.000000000000000D+00 -.000000000000000D+00 -.000000000000000D+00 0.000000000000000D+00
 0.152367382501736D+03 0.000000000000000D+00 0.000000000000000D+00 0.152367382501736D+03
 0.151077699603263D+03 0.000000000000000D+00 0.000000000000000D+00 -.151077699603263D+03
 0.132935706159567D+03 0.183783802126933D+01 -.418165720126784D+02 -.171726127499200D+02
 0.114053991465120D+03 0.153326682930268D+02 0.776011712606788D+02 -.168542136198056D+02
 0.440761641538249D+02 -.149918053163577D+02 -.236670468600521D+02 0.340268263697256D+02
 0.123792203264869D+02 -.217870099793848D+01 -.121175523879484D+02 0.128968289847321D+01
0.126114807572D-04 0.000000000000D+00 0.000000000000D+00 0.269338002243D-06 0.000000000000D+00  6 4 21 25 24 3 21 2 0.49898585D-02 0.10028359D+00 0.18629182D+05 0.18629182D+05 0.18629182D+05 0.12372354D+01  1  2  2  1  6  1        4 0.156404979876D-01 0.100000000000D+01
-.914296889116D-06 0.665526123858D-06 -.254589461202D-07 0.269338002243D-06 0.000000000000D+00  6 4 21 25 24 3 21 4 0.49898585D-02 0.10028359D+00 0.18629182D+05 0.18629182D+05 0.18629182D+05 0.12372354D+01  1  2  3  1  6  1        4 -.173570686568D-02 0.100000000000D+01
0.126556171204D-05 0.000000000000D+00 0.000000000000D+00 0.269338002243D-06 0.000000000000D+00  6 4 21 25 24 3 21 4 0.49898585D-02 0.10028359D+00 0.18629182D+05 0.18629182D+05 0.18629182D+05 0.12372354D+01  1  2 15  1  6  1        4 0.240255017674D-02 0.100000000000D+01
0.829508041082D-04 0.000000000000D+00 0.000000000000D+00 0.267547668365D-06 0.000000000000D+00  6 4 21 25 24 3 21 4 0.53220552D-02 0.10028359D+00 0.20299311D+05 0.20299311D+05 0.20299311D+05 0.12331164D+01  1  2 12  1  6  1        4 0.140378961515D+00 0.100000000000D+01
-.156024869706D-04 0.000000000000D+00 0.000000000000D+00 0.269338002243D-06 0.000000000000D+00  6 4 21 25 24 3 21 4 0.49898585D-02 0.10028359D+00 0.18629182D+05 0.18629182D+05 0.18629182D+05 0.12372354D+01  1  2  4  1  6  1        4 -.296198577059D-01 0.100000000000D+01
-.325071933567D-03 0.000000000000D+00 -.624088636835D-04 0.269338002243D-06 0.000000000000D+00  6 4 21 25 24 3 21 4 0.54345403D-02 0.10028359D+00 0.18629182D+05 0.18629182D+05 0.18629182D+05 0.12372354D+01  1  2  5  1  6  1        4 -.537796511605D+00 0.100000000000D+01
0.329425244774D-03 0.000000000000D+00 0.621821469920D-04 0.269338002243D-06 0.000000000000D+00  6 4 21 25 24 3 21 4 0.49898585D-02 0.10028359D+00 0.18629182D+05 0.18629182D+05 0.18629182D+05 0.12372354D+01  1  2  6  1  6  1        4 0.625382920898D+00 0.100000000000D+01
0.959018095990D-06 0.000000000000D+00 0.000000000000D+00 0.267547668365D-06 0.000000000000D+00  6 21 21 25 24 3 -4 4 0.53220552D-02 0.10028359D+00 0.20299311D+05 0.20299311D+05 0.20299311D+05 0.12331164D+01  1  2 12  4  6  1        4 0.444602334778D-01 0.100000000000D+01
-.444591658065D-05 0.000000000000D+00 -.882906013505D-06 0.269338002243D-06 0.000000000000D+00  6 21 21 25 24 3 -4 4 0.54345403D-02 0.10028359D+00 0.18629182D+05 0.18629182D+05 0.18629182D+05 0.12372354D+01  1  2  5  4  6  1        4 -.202007381664D+00 0.100000000000D+01
  </mgrwgt>
  </event>
  <event>
  5     66 0.45638357E-03 0.26745454E+02 0.75467711E-02 0.11955558E+00
        2 -1    0    0  502    0 0.00000000E+00 0.00000000E+00 0.86135764E+03 0.86135770E+03 0.32000000E+00 0.0000E+00 0.9000E+01
       21 -1    0    0  501  502 0.00000000E+00 0.00000000E+00 -.41425928E+02 0.41432716E+02 0.75000000E+00 0.0000E+00 0.9000E+01
       25  1    1    2    0    0 -.90868346E+02 -.46749069E+02 0.59884042E+03 0.62022366E+03 0.12500000E+03 0.0000E+00 0.9000E+01
       24  1    1    2    0    0 0.88470396E+02 0.20111539E+02 0.22495165E+03 0.25554246E+03 0.80419002E+02 0.0000E+00 0.9000E+01
        1  1    1    2  501    0 0.23979500E+01 0.26637530E+02 -.38603627E+01 0.27024304E+02 0.32000000E+00 0.0000E+00 0.9000E+01
#aMCatNLO 1  0  0  5  2 0.21200199D+01 0.00000000D+00  -5  6  0 0.00000000D+00 0.00000000D+00 0.00000000D+00 0.00000000D+00 0.00000000D+00
  <mgrwgt>
 0.2179396850D+00    5    2    0
 0.188906406855989D+03 0.000000000000000D+00 0.000000000000000D+00 0.188906406855989D+03
 0.188906406855989D+03 -.000000000000000D+00 -.000000000000000D+00 -.188906406855989D+03
 0.182428404745208D+03 -.908683571683647D+02 -.467491931494056D+02 0.849268948171514D+02
 0.122431708695154D+03 0.884703885621986D+02 0.201114560584750D+02 -.170536512954331D+02
 0.729527002716155D+02 0.239796860616618D+01 0.266377370909305D+02 -.678732435217183D+02
 0.000000000000000D+00 0.000000000000000D+00 0.000000000000000D+00 0.000000000000000D+00
 0.188906406855989D+03 0.000000000000000D+00 0.000000000000000D+00 0.188906406855989D+03
 0.188906406855989D+03 -.000000000000000D+00 -.000000000000000D+00 -.188906406855989D+03
 0.180286969840658D+03 -.907368474185348D+02 -.452883224224678D+02 0.812045803328269D+02
 0.123037751049149D+03 0.885593884488968D+02 0.211001076934026D+02 -.195727464027435D+02
 0.701085178185497D+02 0.359907293335901D+01 0.240104122487740D+02 -.657704420570380D+02
 0.437957500362068D+01 -.142161396372105D+01 0.177802480291170D+00 0.413860812695460D+01
0.112523362496D-04 0.000000000000D+00 0.000000000000D+00 0.152718126565D-05 0.000000000000D+00  6 2 21 25 24 1 21 2 0.13251709D+00 0.63737464D-02 0.23937985D+05 0.23937985D+05 0.23937985D+05 0.12253240D+01  1  2  2  3  6  5        1 0.122705307503D+00 0.100000000000D+01
0.147932615320D-05 0.593802097684D-06 -.227152249462D-07 0.152718126565D-05 0.000000000000D+00  6 2 21 25 24 1 21 4 0.13251709D+00 0.63737464D-02 0.23937985D+05 0.23937985D+05 0.23937985D+05 0.12253240D+01  1  2  3  3  6  5        1 0.242206885354D-01 0.100000000000D+01
0.920393608964D-06 0.000000000000D+00 0.000000000000D+00 0.152718126565D-05 0.000000000000D+00  6 2 21 25 24 1 21 4 0.13251709D+00 0.63737464D-02 0.23937985D+05 0.23937985D+05 0.23937985D+05 0.12253240D+01  1  2 15  3  6  5        1 0.150694063540D-01 0.100000000000D+01
-.142520066315D-04 0.000000000000D+00 0.000000000000D+00 0.152718126565D-05 0.000000000000D+00  6 2 21 25 24 1 21 4 0.13251709D+00 0.63737464D-02 0.23937985D+05 0.23937985D+05 0.23937985D+05 0.12253240D+01  1  2  4  3  6  5        1 -.233345035426D+00 0.100000000000D+01
0.176466449584D-04 0.000000000000D+00 0.000000000000D+00 0.152718126565D-05 0.689869075133D-05  6 2 21 25 24 1 21 4 0.13251709D+00 0.63737464D-02 0.23738441D+05 0.23738441D+05 0.23738441D+05 0.12257160D+01  1  2 11  3  6  5        1 0.289289318010D+00 0.100000000000D+01
  </mgrwgt>
  </event>
  <event>
  5     66 0.45638357E-03 0.27105166E+02 0.75467711E-02 0.11910597E+00
        2 -1    0    0  502    0 0.00000000E+00 0.00000000E+00 0.13096774E+04 0.13096775E+04 0.32000000E+00 0.0000E+00 0.9000E+01
       21 -1    0    0  501  502 0.00000000E+00 0.00000000E+00 -.13746361E+02 0.13766806E+02 0.75000000E+00 0.0000E+00 0.9000E+01
       25  1    1    2    0    0 -.59290836E+00 0.83335416E+01 0.73418038E+03 0.74479234E+03 0.12500000E+03 0.0000E+00 0.9000E+01
       24  1    1    2    0    0 -.12147958E+01 0.18710593E+02 0.20693454E+03 0.22280189E+03 0.80419002E+02 0.0000E+00 0.9000E+01
        1  1    1    2  501    0 0.18077042E+01 -.27044135E+02 0.35481615E+03 0.35585005E+03 0.32000000E+00 0.0000E+00 0.9000E+01
#aMCatNLO 1  0  0  2  2 0.71515719D+02 0.00000000D+00  -5  6  0 0.00000000D+00 0.00000000D+00 0.00000000D+00 0.00000000D+00 0.00000000D+00
  <mgrwgt>
 0.2357056013D+00    3    2    0
 0.134226872511757D+03 0.000000000000000D+00 0.000000000000000D+00 0.134226872511757D+03
 0.134226872511757D+03 0.000000000000000D+00 0.000000000000000D+00 -.134226872511757D+03
 0.127560068300650D+03 -.592933948488240D+00 0.833392439246287D+01 0.240159355099866D+02
 0.994325926174932D+02 -.121481579214794D+01 0.187108918053754D+02 -.553899925140320D+02
 0.414610841053718D+02 0.180774974063618D+01 -.270448161978383D+02 0.313740570040453D+02
 0.000000000000000D+00 0.000000000000000D+00 -.000000000000000D+00 0.000000000000000D+00
 0.348935027270295D+03 0.000000000000000D+00 0.000000000000000D+00 0.348935027270295D+03
 0.144996072579985D+03 0.000000000000000D+00 0.000000000000000D+00 -.144996072579985D+03
 0.133091798259777D+03 -.315081562580379D+02 0.227793260396417D+02 0.240159355099866D+02
 0.105303687887686D+03 -.254980396576506D+02 0.300574355407956D+02 -.553899925140320D+02
 0.394208403193968D+02 -.778543947152025D+01 -.225623166104368D+02 0.313740570040453D+02
 0.216114773383420D+03 0.647916353872088D+02 -.302744449700005D+02 0.203938954690311D+03
0.582748471531D-05 0.000000000000D+00 0.000000000000D+00 0.309578699670D-06 0.000000000000D+00  6 2 21 25 24 1 21 2 0.20149041D+00 0.21164004D-02 0.13801555D+05 0.13801555D+05 0.13801555D+05 0.12519664D+01  1  2  2  2  6  2       21 0.225672433554D+00 0.100000000000D+01
-.439127427186D-06 0.307524817194D-06 -.117640126674D-07 0.309578699670D-06 0.000000000000D+00  6 2 21 25 24 1 21 4 0.20149041D+00 0.21164004D-02 0.13801555D+05 0.13801555D+05 0.13801555D+05 0.12519664D+01  1  2  3  2  6  2       21 -.266546671119D-01 0.100000000000D+01
0.604420774552D-06 0.000000000000D+00 0.000000000000D+00 0.309578699670D-06 0.000000000000D+00  6 2 21 25 24 1 21 4 0.20149041D+00 0.21164004D-02 0.13801555D+05 0.13801555D+05 0.13801555D+05 0.12519664D+01  1  2 15  2  6  2       21 0.366878348830D-01 0.100000000000D+01
  </mgrwgt>
  </event>
  <event>
  5     66 0.45638357E-03 0.28566788E+02 0.75467711E-02 0.11654274E+00
        2 -1    0    0  502    0 0.00000000E+00 0.00000000E+00 0.31094013E+04 0.31094013E+04 0.32000000E+00 0.0000E+00 0.9000E+01
       21 -1    0    0  501  502 0.00000000E+00 0.00000000E+00 -.96314307E+02 0.96317227E+02 0.75000000E+00 0.0000E+00 0.9000E+01
       25  1    1    2    0    0 -.11192283E+03 -.57241521E+02 0.18539120E+04 0.18623689E+04 0.12500000E+03 0.0000E+00 0.9000E+01
       24  1    1    2    0    0 0.10744741E+03 0.85455555E+02 0.12438502E+04 0.12539849E+04 0.80419002E+02 0.0000E+00 0.9000E+01
        1  1    1    2  501    0 0.44754273E+01 -.28214035E+02 -.84675202E+02 0.89364721E+02 0.32000000E+00 0.0000E+00 0.9000E+01
#aMCatNLO 1  0  0  1  2 0.47249179D+01 0.00000000D+00  -5  6  0 0.00000000D+00 0.00000000D+00 0.00000000D+00 0.00000000D+00 0.00000000D+00
  <mgrwgt>
 0.1122806764D+00    1    2    0
 0.547251803506590D+03 0.000000000000000D+00 0.000000000000000D+00 0.547251803506590D+03
 0.547251803506590D+03 0.000000000000000D+00 0.000000000000000D+00 -.547251803506590D+03
 0.351056399142828D+03 -.111922833351682D+03 -.572415188063930D+02 0.303005417902713D+03
 0.248600196328520D+03 0.107447405559533D+03 0.854555566872575D+02 0.191016346237710D+03
 0.494847011541831D+03 0.447542779214861D+01 -.282140378808646D+02 -.494021764140422D+03
 0.000000000000000D+00 0.000000000000000D+00 -.000000000000000D+00 0.000000000000000D+00
 0.846198668296642D+03 0.000000000000000D+00 0.000000000000000D+00 0.846198668296642D+03
 0.645340507779126D+03 0.000000000000000D+00 0.000000000000000D+00 -.645340507779126D+03
 0.348336746765180D+03 -.112380817135089D+03 0.356617134838115D+02 0.303005417902713D+03
 0.280498406523298D+03 0.107100935793069D+03 0.155737873139399D+03 0.191016346237710D+03
 0.504987984963220D+03 0.382070559882828D+01 0.104598105726276D+03 -.494021764140422D+03
 0.357716037824070D+03 0.145917574319154D+01 -.295997692349487D+03 0.200858160517516D+03
0.546889881959D-03 0.000000000000D+00 0.000000000000D+00 0.316117579668D-04 0.000000000000D+00  6 2 21 25 24 1 21 4 0.47836965D+00 0.14817812D-01 0.33297747D+05 0.33297747D+05 0.33297747D+05 0.12101732D+01  1  2 14  1  6  1        2 0.112280676416D+00 0.100000000000D+01
  </mgrwgt>
  </event>
  <event>
  5     66 0.45638357E-03 0.27924790E+02 0.75467711E-02 0.11934306E+00
        2 -1    0    0  502    0 0.00000000E+00 0.00000000E+00 0.94826776E+03 0.94826781E+03 0.32000000E+00 0.0000E+00 0.9000E+01
       21 -1    0    0  501  502 0.00000000E+00 0.00000000E+00 -.34543287E+02 0.34551428E+02 0.75000000E+00 0.0000E+00 0.9000E+01
       25  1    1    2    0    0 -.84820628E+02 -.34594116E+02 0.20768250E+03 0.25912992E+03 0.12500000E+03 0.0000E+00 0.9000E+01
       24  1    1    2    0    0 0.99275760E+02 0.10702671E+02 0.52049869E+03 0.53605627E+03 0.80419002E+02 0.0000E+00 0.9000E+01
        1  1    1    2  501    0 -.14455132E+02 0.23891445E+02 0.18554328E+03 0.18763306E+03 0.32000000E+00 0.0000E+00 0.9000E+01
#aMCatNLO 1  0  0  2  5 0.64488485D+00 0.00000000D+00  -5  6  0 0.00000000D+00 0.00000000D+00 0.00000000D+00 0.00000000D+00 0.00000000D+00
  <mgrwgt>
 0.6965890590D-01   41    2    0
 0.180998101583431D+03 0.000000000000000D+00 0.000000000000000D+00 0.180998101583431D+03
 0.180998101583431D+03 0.000000000000000D+00 0.000000000000000D+00 -.180998101583431D+03
 0.179320536549829D+03 -.848204106191134D+02 -.345944753521016D+02 -.902195934708008D+02
 0.141587142618600D+03 0.992759313887315D+02 0.107023879799342D+02 0.600787095313813D+02
 0.410885239984318D+02 -.144555207696181D+02 0.238920873721675D+02 0.301408839394195D+02
 0.000000000000000D+00 -.000000000000000D+00 -.000000000000000D+00 -.000000000000000D+00
 0.181042136414437D+03 0.000000000000000D+00 0.000000000000000D+00 0.181042136414437D+03
 0.183374955033307D+03 0.000000000000000D+00 0.000000000000000D+00 -.183374955033307D+03
 0.179208169306997D+03 -.847035408989853D+02 -.342972748116049D+02 -.902195934708008D+02
 0.141669832752223D+03 0.993682647581246D+02 0.109371924036929D+02 0.600787095313813D+02
 0.411187755282294D+02 -.144287236291626D+02 0.239602326934569D+02 0.301408839394195D+02
 0.242031386029446D+01 -.236000229976603D+00 -.600150285544888D+00 -.233281861886964D+01
0.688379386091D-06 0.000000000000D+00 0.000000000000D+00 0.144214127013D-06 0.000000000000D+00  6 2 21 25 24 1 21 2 0.14588798D+00 0.53149823D-02 0.24196634D+05 0.24196634D+05 0.24196634D+05 0.12248214D+01  1  2  2  2  6  2       21 0.900057471096D-02 0.100000000000D+01
-.288578621506D-07 0.363267782259D-07 -.138963964963D-08 0.144214127013D-06 0.000000000000D+00  6 2 21 25 24 1 21 4 0.14588798D+00 0.53149823D-02 0.24196634D+05 0.24196634D+05 0.24196634D+05 0.12248214D+01  1  2  3  2  6  2       21 -.566046435211D-03 0.100000000000D+01
0.691596509673D-07 0.000000000000D+00 0.000000000000D+00 0.144214127013D-06 0.000000000000D+00  6 2 21 25 24 1 21 4 0.14588798D+00 0.53149823D-02 0.24196634D+05 0.24196634D+05 0.24196634D+05 0.12248214D+01  1  2 15  2  6  2       21 0.135656528145D-02 0.100000000000D+01
0.277248711943D-12 0.000000000000D+00 0.000000000000D+00 0.144168149719D-06 0.000000000000D+00  6 2 21 25 24 1 21 4 0.14588798D+00 0.53854204D-02 0.24297951D+05 0.24297951D+05 0.24297951D+05 0.12246261D+01  1  2 12  2  6  2       21 0.531503299820D-08 0.100000000000D+01
0.267054963017D-12 0.000000000000D+00 0.000000000000D+00 0.144168149719D-06 0.000000000000D+00  6 2 21 25 24 1 21 4 0.14588798D+00 0.53880749D-02 0.24297951D+05 0.24297951D+05 0.24297951D+05 0.12246261D+01  1  2 12  2  6  2       21 0.511534150445D-08 0.100000000000D+01
-.404708206372D-03 0.000000000000D+00 0.000000000000D+00 0.144214127013D-06 0.000000000000D+00  6 2 21 25 24 1 21 4 0.14588798D+00 0.53149823D-02 0.24196634D+05 0.24196634D+05 0.24196634D+05 0.12248214D+01  1  2  4  2  6  2       21 -.793834402293D+01 0.100000000000D+01
-.540779946989D-03 0.000000000000D+00 -.154644537400D-04 0.144214127013D-06 0.000000000000D+00  6 2 21 25 24 1 21 4 0.14588798D+00 0.53858064D-02 0.24196634D+05 0.24196634D+05 0.24196634D+05 0.12248214D+01  1  2  5  2  6  2       21 -.103723256482D+02 0.100000000000D+01
0.540806218133D-03 0.000000000000D+00 0.154590354710D-04 0.144214127013D-06 0.000000000000D+00  6 2 21 25 24 1 21 4 0.14588798D+00 0.53149823D-02 0.24196634D+05 0.24196634D+05 0.24196634D+05 0.12248214D+01  1  2  6  2  6  2       21 0.106079040199D+02 0.100000000000D+01
0.404876059161D-03 0.000000000000D+00 0.000000000000D+00 0.144214127013D-06 0.604236602705D-05  6 2 21 25 24 1 21 4 0.14592347D+00 0.53847782D-02 0.24297951D+05 0.24297951D+05 0.24297951D+05 0.12246261D+01  1  2 11  2  6  2       21 0.776075342555D+01 0.100000000000D+01
0.364785043825D-13 0.000000000000D+00 0.000000000000D+00 0.144168149719D-06 0.000000000000D+00  6 2 -1 25 24 1 -1 4 0.14588798D+00 0.53854204D-02 0.24297951D+05 0.24297951D+05 0.24297951D+05 0.12246261D+01  1  2 12  5  6  2       21 0.407525930821D-10 0.100000000000D+01
0.364750390280D-13 0.000000000000D+00 0.000000000000D+00 0.144168149719D-06 0.000000000000D+00  6 2 -1 25 24 1 -1 4 0.14588798D+00 0.53880749D-02 0.24297951D+05 0.24297951D+05 0.24297951D+05 0.12246261D+01  1  2 12  5  6  2       21 0.407188416498D-10 0.100000000000D+01
-.157232559100D-05 0.000000000000D+00 -.463952390922D-07 0.144214127013D-06 0.000000000000D+00  6 2 -1 25 24 1 -1 4 0.14588798D+00 0.53858064D-02 0.24196634D+05 0.24196634D+05 0.24196634D+05 0.12248214D+01  1  2  5  5  6  2       21 -.175735439304D-02 0.100000000000D+01
0.502347100810D-05 0.000000000000D+00 0.000000000000D+00 0.144214127013D-06 0.747816076683D-07  6 2 -1 25 24 1 -1 4 0.14592347D+00 0.53847782D-02 0.24297951D+05 0.24297951D+05 0.24297951D+05 0.12246261D+01  1  2 11  5  6  2       21 0.561121446865D-02 0.100000000000D+01
0.364785043825D-13 0.000000000000D+00 0.000000000000D+00 0.144168149719D-06 0.000000000000D+00  6 2 1 25 24 1 1 4 0.14588798D+00 0.53854204D-02 0.24297951D+05 0.24297951D+05 0.24297951D+05 0.12246261D+01  1  2 12  6  6  2       21 0.463158166819D-10 0.100000000000D+01
0.364750390280D-13 0.000000000000D+00 0.000000000000D+00 0.144168149719D-06 0.000000000000D+00  6 2 1 25 24 1 1 4 0.14588798D+00 0.53880749D-02 0.24297951D+05 0.24297951D+05 0.24297951D+05 0.12246261D+01  1  2 12  6  6  2       21 0.462801936463D-10 0.100000000000D+01
-.157232559100D-05 0.000000000000D+00 -.463952390922D-07 0.144214127013D-06 0.000000000000D+00  6 2 1 25 24 1 1 4 0.14588798D+00 0.53858064D-02 0.24196634D+05 0.24196634D+05 0.24196634D+05 0.12248214D+01  1  2  5  6  6  2       21 -.199728470896D-02 0.100000000000D+01
0.126682756005D-05 0.000000000000D+00 0.000000000000D+00 0.144214127013D-06 0.918683971916D-08  6 2 1 25 24 1 1 4 0.14592347D+00 0.53847782D-02 0.24297951D+05 0.24297951D+05 0.24297951D+05 0.12246261D+01  1  2 11  6  6  2       21 0.160819363352D-02 0.100000000000D+01
0.364785043825D-13 0.000000000000D+00 0.000000000000D+00 0.144168149719D-06 0.000000000000D+00  6 2 -2 25 24 1 -2 4 0.14588798D+00 0.53854204D-02 0.24297951D+05 0.24297951D+05 0.24297951D+05 0.12246261D+01  1  2 12  7  6  2       21 0.397741267274D-10 0.100000000000D+01
0.364750390280D-13 0.000000000000D+00 0.000000000000D+00 0.144168149719D-06 0.000000000000D+00  6 2 -2 25 24 1 -2 4 0.14588798D+00 0.53880749D-02 0.24297951D+05 0.24297951D+05 0.24297951D+05 0.12246261D+01  1  2 12  7  6  2       21 0.397407192102D-10 0.100000000000D+01
-.157232559100D-05 0.000000000000D+00 -.463952390922D-07 0.144214127013D-06 0.000000000000D+00  6 2 -2 25 24 1 -2 4 0.14588798D+00 0.53858064D-02 0.24196634D+05 0.24196634D+05 0.24196634D+05 0.12248214D+01  1  2  5  7  6  2       21 -.171515472572D-02 0.100000000000D+01
0.126717635542D-05 0.000000000000D+00 0.000000000000D+00 0.144214127013D-06 0.183779475665D-07  6 2 -2 25 24 1 -2 4 0.14592347D+00 0.53847782D-02 0.24297951D+05 0.24297951D+05 0.24297951D+05 0.12246261D+01  1  2 11  7  6  2       21 0.138145475975D-02 0.100000000000D+01
0.364785043825D-13 0.000000000000D+00 0.000000000000D+00 0.144168149719D-06 0.000000000000D+00  6 2 2 25 24 1 2 4 0.14588798D+00 0.53854204D-02 0.24297951D+05 0.24297951D+05 0.24297951D+05 0.12246261D+01  1  2 12  8  6  2       21 0.500540923051D-10 0.100000000000D+01
0.364750390280D-13 0.000000000000D+00 0.000000000000D+00 0.144168149719D-06 0.000000000000D+00  6 2 2 25 24 1 2 4 0.14588798D+00 0.53880749D-02 0.24297951D+05 0.24297951D+05 0.24297951D+05 0.12246261D+01  1  2 12  8  6  2       21 0.500171969410D-10 0.100000000000D+01
-.157232559100D-05 0.000000000000D+00 -.463952390922D-07 0.144214127013D-06 0.000000000000D+00  6 2 2 25 24 1 2 4 0.14588798D+00 0.53858064D-02 0.24196634D+05 0.24196634D+05 0.24196634D+05 0.12248214D+01  1  2  5  8  6  2       21 -.215850562034D-02 0.100000000000D+01
0.133019824466D-05 0.000000000000D+00 0.000000000000D+00 0.144214127013D-06 0.193410745181D-07  6 2 2 25 24 1 2 4 0.14592347D+00 0.53847782D-02 0.24297951D+05 0.24297951D+05 0.24297951D+05 0.12246261D+01  1  2 11  8  6  2       21 0.182492114256D-02 0.100000000000D+01
0.364785043825D-13 0.000000000000D+00 0.000000000000D+00 0.144168149719D-06 0.000000000000D+00  6 2 -3 25 24 1 -3 4 0.14588798D+00 0.53854204D-02 0.24297951D+05 0.24297951D+05 0.24297951D+05 0.12246261D+01  1  2 12  9  6  2       21 0.289105260253D-10 0.100000000000D+01
0.364785043825D-13 0.000000000000D+00 0.000000000000D+00 0.144168149719D-06 0.000000000000D+00  6 2 -4 25 24 1 -4 4 0.14588798D+00 0.53854204D-02 0.24297951D+05 0.24297951D+05 0.24297951D+05 0.12246261D+01  1  2 12  9  6  2       21 0.257663188240D-10 0.100000000000D+01
0.364750390280D-13 0.000000000000D+00 0.000000000000D+00 0.144168149719D-06 0.000000000000D+00  6 2 -3 25 24 1 -3 4 0.14588798D+00 0.53880749D-02 0.24297951D+05 0.24297951D+05 0.24297951D+05 0.12246261D+01  1  2 12  9  6  2       21 0.288850976282D-10 0.100000000000D+01
0.364750390280D-13 0.000000000000D+00 0.000000000000D+00 0.144168149719D-06 0.000000000000D+00  6 2 -4 25 24 1 -4 4 0.14588798D+00 0.53880749D-02 0.24297951D+05 0.24297951D+05 0.24297951D+05 0.12246261D+01  1  2 12  9  6  2       21 0.257433215242D-10 0.100000000000D+01
-.157232559100D-05 0.000000000000D+00 -.463952390922D-07 0.144214127013D-06 0.000000000000D+00  6 2 -3 25 24 1 -3 4 0.14588798D+00 0.53858064D-02 0.24196634D+05 0.24196634D+05 0.24196634D+05 0.12248214D+01  1  2  5  9  6  2       21 -.124657106054D-02 0.100000000000D+01
-.157232559100D-05 0.000000000000D+00 -.463952390922D-07 0.144214127013D-06 0.000000000000D+00  6 2 -4 25 24 1 -4 4 0.14588798D+00 0.53858064D-02 0.24196634D+05 0.24196634D+05 0.24196634D+05 0.12248214D+01  1  2  5  9  6  2       21 -.111095097086D-02 0.100000000000D+01
0.126697388882D-05 0.000000000000D+00 0.000000000000D+00 0.144214127013D-06 0.183750111791D-07  6 2 -3 25 24 1 -3 4 0.14592347D+00 0.53847782D-02 0.24297951D+05 0.24297951D+05 0.24297951D+05 0.12246261D+01  1  2 11  9  6  2       21 0.100398397071D-02 0.100000000000D+01
0.126697388882D-05 0.000000000000D+00 0.000000000000D+00 0.144214127013D-06 0.183750111791D-07  6 2 -4 25 24 1 -4 4 0.14592347D+00 0.53847782D-02 0.24297951D+05 0.24297951D+05 0.24297951D+05 0.12246261D+01  1  2 11  9  6  2       21 0.894797014927D-03 0.100000000000D+01
0.364785043825D-13 0.000000000000D+00 0.000000000000D+00 0.144168149719D-06 0.000000000000D+00  6 2 3 25 24 1 3 4 0.14588798D+00 0.53854204D-02 0.24297951D+05 0.24297951D+05 0.24297951D+05 0.12246261D+01  1  2 12 10  6  2       21 0.289076140259D-10 0.100000000000D+01
0.364785043825D-13 0.000000000000D+00 0.000000000000D+00 0.144168149719D-06 0.000000000000D+00  6 2 4 25 24 1 4 4 0.14588798D+00 0.53854204D-02 0.24297951D+05 0.24297951D+05 0.24297951D+05 0.12246261D+01  1  2 12 10  6  2       21 0.257663188240D-10 0.100000000000D+01
0.364750390280D-13 0.000000000000D+00 0.000000000000D+00 0.144168149719D-06 0.000000000000D+00  6 2 3 25 24 1 3 4 0.14588798D+00 0.53880749D-02 0.24297951D+05 0.24297951D+05 0.24297951D+05 0.12246261D+01  1  2 12 10  6  2       21 0.288821875050D-10 0.100000000000D+01
0.364750390280D-13 0.000000000000D+00 0.000000000000D+00 0.144168149719D-06 0.000000000000D+00  6 2 4 25 24 1 4 4 0.14588798D+00 0.53880749D-02 0.24297951D+05 0.24297951D+05 0.24297951D+05 0.12246261D+01  1  2 12 10  6  2       21 0.257433215242D-10 0.100000000000D+01
-.157232559100D-05 0.000000000000D+00 -.463952390922D-07 0.144214127013D-06 0.000000000000D+00  6 2 3 25 24 1 3 4 0.14588798D+00 0.53858064D-02 0.24196634D+05 0.24196634D+05 0.24196634D+05 0.12248214D+01  1  2  5 10  6  2       21 -.124644545219D-02 0.100000000000D+01
-.157232559100D-05 0.000000000000D+00 -.463952390922D-07 0.144214127013D-06 0.000000000000D+00  6 2 4 25 24 1 4 4 0.14588798D+00 0.53858064D-02 0.24196634D+05 0.24196634D+05 0.24196634D+05 0.12248214D+01  1  2  5 10  6  2       21 -.111095097086D-02 0.100000000000D+01
0.126697388882D-05 0.000000000000D+00 0.000000000000D+00 0.144214127013D-06 0.183750111791D-07  6 2 3 25 24 1 3 4 0.14592347D+00 0.53847782D-02 0.24297951D+05 0.24297951D+05 0.24297951D+05 0.12246261D+01  1  2 11 10  6  2       21 0.100388285065D-02 0.100000000000D+01
0.126697388882D-05 0.000000000000D+00 0.000000000000D+00 0.144214127013D-06 0.183750111791D-07  6 2 4 25 24 1 4 4 0.14592347D+00 0.53847782D-02 0.24297951D+05 0.24297951D+05 0.24297951D+05 0.12246261D+01  1  2 11 10  6  2       21 0.894797014927D-03 0.100000000000D+01
  </mgrwgt>
  </event>
  <event>
  5     66 0.45638357E-03 0.61495846E+02 0.75467711E-02 0.12091955E+00
        2 -1    0    0  502    0 0.00000000E+00 0.00000000E+00 0.30788342E+04 0.30788342E+04 0.32000000E+00 0.0000E+00 0.9000E+01
       21 -1    0    0  501  502 0.00000000E+00 0.00000000E+00 -.78444233E+01 0.78801952E+01 0.75000000E+00 0.0000E+00 0.9000E+01
       25  1    1    2    0    0 -.16963151E+02 -.50497532E+02 0.17396665E+04 0.17449648E+04 0.12500000E+03 0.0000E+00 0.9000E+01
       24  1    1    2    0    0 0.37792980E+02 -.73627526E+01 0.10502307E+04 0.10540087E+04 0.80419002E+02 0.0000E+00 0.9000E+01
        1  1    1    2  501    0 -.20829830E+02 0.57860285E+02 0.28109257E+03 0.28774091E+03 0.32000000E+00 0.0000E+00 0.9000E+01
#aMCatNLO 1  0  0  5  2 0.51228727D+01 0.00000000D+00  -5  6  0 0.00000000D+00 0.00000000D+00 0.00000000D+00 0.00000000D+00 0.00000000D+00
  <mgrwgt>
 0.1071705796D+00    8    2    0
 0.155585709342859D+03 0.000000000000000D+00 0.000000000000000D+00 0.155585709342859D+03
 0.155585709342859D+03 -.000000000000000D+00 -.000000000000000D+00 -.155585709342859D+03
 0.140469544224121D+03 -.169630757950666D+02 -.504977402145490D+02 0.356219756235826D+02
 0.905481598176982D+02 0.377930286943875D+02 -.736288676936847D+01 0.157869621057236D+02
 0.801537146438994D+02 -.208299528993209D+02 0.578606269839175D+02 -.514089377293062D+02
 0.000000000000000D+00 -.000000000000000D+00 0.000000000000000D+00 0.000000000000000D+00
 0.155585709342859D+03 0.000000000000000D+00 0.000000000000000D+00 0.155585709342859D+03
 0.155585709342859D+03 -.000000000000000D+00 -.000000000000000D+00 -.155585709342859D+03
 0.140353439057897D+03 -.170404669493452D+02 -.502827660986106D+02 0.354309719736782D+02
 0.904947848678534D+02 0.377431356183313D+02 -.722429573765945D+01 0.156638245233923D+02
 0.429025251964827D+02 -.788833492362007D+01 0.287827669023453D+02 -.308213103195320D+02
 0.374206695634855D+02 -.128143337453660D+02 0.287242949339248D+02 -.202734861775385D+02
0.160228180044D-05 0.000000000000D+00 0.000000000000D+00 0.640328654760D-06 0.000000000000D+00  6 2 21 25 24 1 21 2 0.47366955D+00 0.12095873D-02 0.20525567D+05 0.20525567D+05 0.20525567D+05 0.12325878D+01  1  2  2  3  6  5        1 0.169163477523D-01 0.100000000000D+01
-.320633738352D-07 0.845547336193D-07 -.323454531724D-08 0.640328654760D-06 0.000000000000D+00  6 2 21 25 24 1 21 4 0.47366955D+00 0.12095873D-02 0.20525567D+05 0.20525567D+05 0.20525567D+05 0.12325878D+01  1  2  3  3  6  5        1 -.514295393453D-03 0.100000000000D+01
0.145794982597D-06 0.000000000000D+00 0.000000000000D+00 0.640328654760D-06 0.000000000000D+00  6 2 21 25 24 1 21 4 0.47366955D+00 0.12095873D-02 0.20525567D+05 0.20525567D+05 0.20525567D+05 0.12325878D+01  1  2 15  3  6  5        1 0.233854641509D-02 0.100000000000D+01
0.630024231402D-05 0.000000000000D+00 0.000000000000D+00 0.640432844951D-06 0.000000000000D+00  6 2 21 25 24 1 21 4 0.47366955D+00 0.12095873D-02 0.20482436D+05 0.20482436D+05 0.20482436D+05 0.12326880D+01  1  2 12  3  6  5        1 0.101093744562D+00 0.100000000000D+01
-.148172465508D-04 0.000000000000D+00 0.000000000000D+00 0.640328654760D-06 0.000000000000D+00  6 2 21 25 24 1 21 4 0.47366955D+00 0.12095873D-02 0.20525567D+05 0.20525567D+05 0.20525567D+05 0.12325878D+01  1  2  4  3  6  5        1 -.237668115772D+00 0.100000000000D+01
-.140950997174D-04 0.000000000000D+00 0.000000000000D+00 0.640328654760D-06 0.000000000000D+00  6 2 21 25 24 1 21 4 0.47366955D+00 0.12095873D-02 0.20525567D+05 0.20525567D+05 0.20525567D+05 0.12325878D+01  1  2  5  3  6  5        1 -.226084905855D+00 0.100000000000D+01
0.219509349438D-04 0.000000000000D+00 -.000000000000D+00 0.640328654760D-06 0.000000000000D+00  6 2 21 25 24 1 21 4 0.47366955D+00 0.12095873D-02 0.20525567D+05 0.20525567D+05 0.20525567D+05 0.12325878D+01  1  2  6  3  6  5        1 0.352092227773D+00 0.100000000000D+01
0.616957340712D-05 0.000000000000D+00 0.000000000000D+00 0.640328654760D-06 0.537484882440D-07  6 2 21 25 24 1 21 4 0.47366955D+00 0.12095873D-02 0.20482436D+05 0.20482436D+05 0.20482436D+05 0.12326880D+01  1  2 11  3  6  5        1 0.989970301124D-01 0.100000000000D+01
  </mgrwgt>
  </event>
  <event>
  5     66 0.45638357E-03 0.20116986E+02 0.75467711E-02 0.11027954E+00
        2 -1    0    0  502    0 0.00000000E+00 0.00000000E+00 0.10706930E+04 0.10706930E+04 0.32000000E+00 0.0000E+00 0.9000E+01
       21 -1    0    0  501  502 0.00000000E+00 0.00000000E+00 -.75162364E+02 0.75166106E+02 0.75000000E+00 0.0000E+00 0.9000E+01
       25  1    1    2    0    0 0.27506563E+02 0.25436353E+02 0.47360591E+03 0.49125470E+03 0.12500000E+03 0.0000E+00 0.9000E+01
       24  1    1    2    0    0 -.28777219E+02 -.45513159E+02 0.58264975E+03 0.59063315E+03 0.80419002E+02 0.0000E+00 0.9000E+01
        1  1    1    2  501    0 0.12706560E+01 0.20076806E+02 -.60725040E+02 0.63971287E+02 0.32000000E+00 0.0000E+00 0.9000E+01
#aMCatNLO 1  0  0  2  1 0.23433980D+02 0.00000000D+00  -5  6  0 0.00000000D+00 0.00000000D+00 0.00000000D+00 0.00000000D+00 0.00000000D+00
  <mgrwgt>
 0.1794373973D+01   13    2    0
 0.283686424113432D+03 0.000000000000000D+00 0.000000000000000D+00 0.283686424113432D+03
 0.283686424113432D+03 0.000000000000000D+00 0.000000000000000D+00 -.283686424113432D+03
 0.161127764007180D+03 0.275065622122367D+02 0.254363481387169D+02 0.945173929104260D+02
 0.170499454637970D+03 -.287772189028132D+02 -.455131645660505D+02 0.140368342587914D+03
 0.235745629581713D+03 0.127065669057642D+01 0.200768164273336D+02 -.234885735498340D+03
 0.000000000000000D+00 0.000000000000000D+00 0.000000000000000D+00 -.000000000000000D+00
 0.393624131188659D+03 0.000000000000000D+00 0.000000000000000D+00 0.393624131188659D+03
 0.403918021607695D+03 0.000000000000000D+00 0.000000000000000D+00 -.403918021607695D+03
 0.158328674233992D+03 -.221027630575062D+02 0.457158477262565D+01 0.945173929104260D+02
 0.195778071963867D+03 -.856575280186043D+02 -.694359690677867D+02 0.140368342587914D+03
 0.246412904615340D+03 -.736051532516423D+02 -.114145624171525D+02 -.234885735498340D+03
 0.197022501983155D+03 0.181365444327753D+03 0.762789467123136D+02 -.102938904190354D+02
0.327228157741D-03 0.000000000000D+00 0.000000000000D+00 0.362011376460D-04 0.000000000000D+00  6 2 21 25 24 1 21 2 0.16472229D+00 0.11563732D-01 0.15300815D+05 0.15300815D+05 0.15300815D+05 0.12468407D+01  1  2  2  2  6  2       21 0.982372988990D+00 0.100000000000D+01
0.122520575026D-03 0.172683043039D-04 -.660579371868D-06 0.362011376460D-04 0.000000000000D+00  6 2 21 25 24 1 21 4 0.16472229D+00 0.11563732D-01 0.15300815D+05 0.15300815D+05 0.15300815D+05 0.12468407D+01  1  2  3  2  6  2       21 0.571816506700D+00 0.100000000000D+01
0.289379463035D-04 0.000000000000D+00 0.000000000000D+00 0.362011376460D-04 0.000000000000D+00  6 2 21 25 24 1 21 4 0.16472229D+00 0.11563732D-01 0.15300815D+05 0.15300815D+05 0.15300815D+05 0.12468407D+01  1  2 15  2  6  2       21 0.135056461846D+00 0.100000000000D+01
-.517530978837D-04 0.000000000000D+00 0.000000000000D+00 0.362011376460D-04 0.000000000000D+00  6 2 21 25 24 1 21 4 0.16472229D+00 0.11563732D-01 0.15300815D+05 0.15300815D+05 0.15300815D+05 0.12468407D+01  1  2  4  2  6  2       21 -.241537191907D+00 0.100000000000D+01
0.221239591121D-03 0.000000000000D+00 -.432750460034D-03 0.362011376460D-04 0.000000000000D+00  6 2 21 25 24 1 21 4 0.16472229D+00 0.23160751D-01 0.15300815D+05 0.15300815D+05 0.15300815D+05 0.12468407D+01  1  2  5  2  6  2       21 0.292581985810D+00 0.100000000000D+01
0.665124252876D-04 0.000000000000D+00 -.107066947908D-03 0.362011376460D-04 0.000000000000D+00  6 2 -1 25 24 1 -1 4 0.16472229D+00 0.23160751D-01 0.15300815D+05 0.15300815D+05 0.15300815D+05 0.12468407D+01  1  2  5  5  6  2       21 0.709659422581D-02 0.100000000000D+01
0.665124252876D-04 0.000000000000D+00 -.107066947908D-03 0.362011376460D-04 0.000000000000D+00  6 2 1 25 24 1 1 4 0.16472229D+00 0.23160751D-01 0.15300815D+05 0.15300815D+05 0.15300815D+05 0.12468407D+01  1  2  5  6  6  2       21 0.112408539487D-01 0.100000000000D+01
0.665124252876D-04 0.000000000000D+00 -.107066947908D-03 0.362011376460D-04 0.000000000000D+00  6 2 -2 25 24 1 -2 4 0.16472229D+00 0.23160751D-01 0.15300815D+05 0.15300815D+05 0.15300815D+05 0.12468407D+01  1  2  5  7  6  2       21 0.640090750178D-02 0.100000000000D+01
0.665124252876D-04 0.000000000000D+00 -.107066947908D-03 0.362011376460D-04 0.000000000000D+00  6 2 2 25 24 1 2 4 0.16472229D+00 0.23160751D-01 0.15300815D+05 0.15300815D+05 0.15300815D+05 0.12468407D+01  1  2  5  8  6  2       21 0.141775865827D-01 0.100000000000D+01
0.665124252876D-04 0.000000000000D+00 -.107066947908D-03 0.362011376460D-04 0.000000000000D+00  6 2 -3 25 24 1 -3 4 0.16472229D+00 0.23160751D-01 0.15300815D+05 0.15300815D+05 0.15300815D+05 0.12468407D+01  1  2  5  9  6  2       21 0.411041231025D-02 0.100000000000D+01
0.665124252876D-04 0.000000000000D+00 -.107066947908D-03 0.362011376460D-04 0.000000000000D+00  6 2 -4 25 24 1 -4 4 0.16472229D+00 0.23160751D-01 0.15300815D+05 0.15300815D+05 0.15300815D+05 0.12468407D+01  1  2  5  9  6  2       21 0.347337090096D-02 0.100000000000D+01
0.665124252876D-04 0.000000000000D+00 -.107066947908D-03 0.362011376460D-04 0.000000000000D+00  6 2 3 25 24 1 3 4 0.16472229D+00 0.23160751D-01 0.15300815D+05 0.15300815D+05 0.15300815D+05 0.12468407D+01  1  2  5 10  6  2       21 0.411012501746D-02 0.100000000000D+01
0.665124252876D-04 0.000000000000D+00 -.107066947908D-03 0.362011376460D-04 0.000000000000D+00  6 2 4 25 24 1 4 4 0.16472229D+00 0.23160751D-01 0.15300815D+05 0.15300815D+05 0.15300815D+05 0.12468407D+01  1  2  5 10  6  2       21 0.347337090096D-02 0.100000000000D+01
  </mgrwgt>
  </event>
  <event>
  5     66 0.45638357E-03 0.43906557E+02 0.75467711E-02 0.12143997E+00
        2 -1    0    0  502    0 0.00000000E+00 0.00000000E+00 0.51742697E+02 0.51743687E+02 0.32000000E+00 0.0000E+00 0.9000E+01
       21 -1    0    0  501  502 0.00000000E+00 0.00000000E+00 -.42999084E+03 0.42999149E+03 0.75000000E+00 0.0000E+00 0.9000E+01
       25  1    1    2    0    0 -.32079974E+02 -.35506635E+02 -.25236874E+03 0.28566559E+03 0.12500000E+03 0.0000E+00 0.9000E+01
       24  1    1    2    0    0 0.18060703E+02 -.61012726E+01 -.12771466E+03 0.15212385E+03 0.80419002E+02 0.0000E+00 0.9000E+01
        1  1    1    2  501    0 0.14019272E+02 0.41607908E+02 0.18352599E+01 0.43945746E+02 0.32000000E+00 0.0000E+00 0.9000E+01
#aMCatNLO 1  0  0  2  1 0.17961685D+02 0.00000000D+00  -5  6  0 0.00000000D+00 0.00000000D+00 0.00000000D+00 0.00000000D+00 0.00000000D+00
  <mgrwgt>
 0.5188990754D-01   13    2    0
 0.149161931125386D+03 0.000000000000000D+00 0.000000000000000D+00 0.149161931125386D+03
 0.149161931125386D+03 0.000000000000000D+00 0.000000000000000D+00 -.149161931125386D+03
 0.141313533233924D+03 -.320800376540686D+02 -.355068232551964D+02 -.453282622818613D+02
 0.837196976604871D+02 0.180606650706462D+02 -.610138388579661D+01 -.133550482543834D+02
 0.732906313563604D+02 0.140193725834224D+02 0.416082071409930D+02 0.586833105362447D+02
 0.000000000000000D+00 -.000000000000000D+00 0.000000000000000D+00 0.000000000000000D+00
 0.158511899760243D+03 0.000000000000000D+00 0.000000000000000D+00 0.158511899760243D+03
 0.158314963026827D+03 0.000000000000000D+00 0.000000000000000D+00 -.158314963026827D+03
 0.141358011191018D+03 -.253703013159232D+02 -.407281693367871D+02 -.453282622818613D+02
 0.849550959719120D+02 0.220644759051145D+02 -.921704759573011D+01 -.133550482543834D+02
 0.725509905996888D+02 0.174811955003464D+02 0.389143046370031D+02 0.586833105362447D+02
 0.179627650244513D+02 -.141753700895376D+02 0.110309122955141D+02 0.196936733416623D+00
0.882520412647D-05 0.000000000000D+00 0.000000000000D+00 0.271517992814D-06 0.000000000000D+00  6 2 21 25 24 1 21 2 0.79605414D-02 0.66152563D-01 0.16952118D+05 0.16952118D+05 0.16952118D+05 0.12418105D+01  1  2  2  2  6  2       21 0.295615370917D-01 0.100000000000D+01
-.102368041659D-05 0.465718816656D-06 -.178155444773D-07 0.271517992814D-06 0.000000000000D+00  6 2 21 25 24 1 21 4 0.79605414D-02 0.66152563D-01 0.16952118D+05 0.16952118D+05 0.16952118D+05 0.12418105D+01  1  2  3  2  6  2       21 -.528782750977D-02 0.100000000000D+01
0.852469224369D-06 0.000000000000D+00 0.000000000000D+00 0.271517992814D-06 0.000000000000D+00  6 2 21 25 24 1 21 4 0.79605414D-02 0.66152563D-01 0.16952118D+05 0.16952118D+05 0.16952118D+05 0.12418105D+01  1  2 15  2  6  2       21 0.440343503967D-02 0.100000000000D+01
0.148336185730D-04 0.000000000000D+00 0.000000000000D+00 0.268694956889D-06 0.000000000000D+00  6 2 21 25 24 1 21 4 0.79605414D-02 0.72160489D-01 0.19378636D+05 0.19378636D+05 0.19378636D+05 0.12353379D+01  1  2 12  2  6  2       21 0.620679713359D-01 0.100000000000D+01
-.782531996761D-05 0.000000000000D+00 0.000000000000D+00 0.271517992814D-06 0.000000000000D+00  6 2 21 25 24 1 21 4 0.79605414D-02 0.66152563D-01 0.16952118D+05 0.16952118D+05 0.16952118D+05 0.12418105D+01  1  2  4  2  6  2       21 -.404217385883D-01 0.100000000000D+01
0.323908461892D-06 0.000000000000D+00 0.000000000000D+00 0.268694956889D-06 0.000000000000D+00  6 2 -1 25 24 1 -1 4 0.79605414D-02 0.72160489D-01 0.19378636D+05 0.19378636D+05 0.19378636D+05 0.12353379D+01  1  2 12  5  6  2       21 0.144581889960D-03 0.100000000000D+01
0.323908461892D-06 0.000000000000D+00 0.000000000000D+00 0.268694956889D-06 0.000000000000D+00  6 2 1 25 24 1 1 4 0.79605414D-02 0.72160489D-01 0.19378636D+05 0.19378636D+05 0.19378636D+05 0.12353379D+01  1  2 12  6  6  2       21 0.416846709904D-03 0.100000000000D+01
0.323908461892D-06 0.000000000000D+00 0.000000000000D+00 0.268694956889D-06 0.000000000000D+00  6 2 -2 25 24 1 -2 4 0.79605414D-02 0.72160489D-01 0.19378636D+05 0.19378636D+05 0.19378636D+05 0.12353379D+01  1  2 12  7  6  2       21 0.111839689761D-03 0.100000000000D+01
0.323908461892D-06 0.000000000000D+00 0.000000000000D+00 0.268694956889D-06 0.000000000000D+00  6 2 2 25 24 1 2 4 0.79605414D-02 0.72160489D-01 0.19378636D+05 0.19378636D+05 0.19378636D+05 0.12353379D+01  1  2 12  8  6  2       21 0.640904336734D-03 0.100000000000D+01
0.323908461892D-06 0.000000000000D+00 0.000000000000D+00 0.268694956889D-06 0.000000000000D+00  6 2 -3 25 24 1 -3 4 0.79605414D-02 0.72160489D-01 0.19378636D+05 0.19378636D+05 0.19378636D+05 0.12353379D+01  1  2 12  9  6  2       21 0.697321558936D-04 0.100000000000D+01
0.323908461892D-06 0.000000000000D+00 0.000000000000D+00 0.268694956889D-06 0.000000000000D+00  6 2 -4 25 24 1 -4 4 0.79605414D-02 0.72160489D-01 0.19378636D+05 0.19378636D+05 0.19378636D+05 0.12353379D+01  1  2 12  9  6  2       21 0.564108148478D-04 0.100000000000D+01
0.323908461892D-06 0.000000000000D+00 0.000000000000D+00 0.268694956889D-06 0.000000000000D+00  6 2 3 25 24 1 3 4 0.79605414D-02 0.72160489D-01 0.19378636D+05 0.19378636D+05 0.19378636D+05 0.12353379D+01  1  2 12 10  6  2       21 0.698037566507D-04 0.100000000000D+01
0.323908461892D-06 0.000000000000D+00 0.000000000000D+00 0.268694956889D-06 0.000000000000D+00  6 2 4 25 24 1 4 4 0.79605414D-02 0.72160489D-01 0.19378636D+05 0.19378636D+05 0.19378636D+05 0.12353379D+01  1  2 12 10  6  2       21 0.564108148478D-04 0.100000000000D+01
  </mgrwgt>
  </event>
  <event>
  6     66 0.45638357E-03 0.17646051E+02 0.75467711E-02 0.12080102E+00
        2 -1    0    0  502    0 0.00000000E+00 0.00000000E+00 0.17550354E+04 0.17550355E+04 0.32000000E+00 0.0000E+00 0.9000E+01
       21 -1    0    0  501  502 0.00000000E+00 0.00000000E+00 -.12437500E+02 0.12460093E+02 0.75000000E+00 0.0000E+00 0.9000E+01
       25  1    1    2    0    0 0.86206320E+02 -.20085414E+02 0.76185134E+03 0.77709550E+03 0.12500000E+03 0.0000E+00 0.9000E+01
       24  1    1    2    0    0 -.54665924E+02 0.12384991E+02 0.67607893E+03 0.68314836E+03 0.80419002E+02 0.0000E+00 0.9000E+01
        1  1    1    2  503    0 -.20444326E+02 0.13375741E+02 0.14039621E+03 0.14250642E+03 0.32000000E+00 0.0000E+00 0.9000E+01
       21  1    1    2  501  503 -.11096069E+02 -.56753192E+01 0.16427146E+03 0.16474528E+03 0.75000000E+00 0.0000E+00 0.9000E+01
#aMCatNLO 2  0  0  5  2 0.11258944D+02 0.00000000D+00  -5  6  0 0.00000000D+00 0.00000000D+00 0.00000000D+00 0.00000000D+00 0.00000000D+00
  <mgrwgt>
 0.1985156494D+00    2    2    0
 0.147811519466659D+03 0.000000000000000D+00 0.000000000000000D+00 0.147811519466659D+03
 0.147811519466659D+03 -.000000000000000D+00 -.000000000000000D+00 -.147811519466659D+03
 0.157562259879679D+03 0.896778820281712D+02 -.209329772233963D+02 -.268431309257651D+02
 0.978433603531752D+02 -.524794718252786D+02 0.118511805133590D+02 0.145451630520366D+02
 0.402174187004632D+02 -.371984102028926D+02 0.908179671003736D+01 0.122979678737285D+02
 0.000000000000000D+00 0.000000000000000D+00 0.000000000000000D+00 0.000000000000000D+00
 0.147811519466659D+03 0.000000000000000D+00 0.000000000000000D+00 0.147811519466659D+03
 0.147811519466659D+03 -.000000000000000D+00 -.000000000000000D+00 -.147811519466659D+03
 0.155295748728176D+03 0.861890586250344D+02 -.200811992917135D+02 -.256897096398857D+02
 0.992142292903764D+02 -.546769515496218D+02 0.123876836601887D+02 0.152716600960162D+02
 0.240670960395355D+02 -.200116501054353D+02 0.133447034068143D+02 -.823324248407264D+00
 0.170459648752298D+02 -.115004569699774D+02 -.565118777528946D+01 0.112413737922768D+02
-.229191899734D-05 0.000000000000D+00 0.000000000000D+00 0.299878695387D-06 0.000000000000D+00  6 2 21 25 24 1 21 4 0.27000719D+00 0.19152017D-02 0.20743908D+05 0.20743908D+05 0.20743908D+05 0.12320837D+01  1  2 13  3  6  5        1 -.902212986572D-01 0.100000000000D+01
0.733487221286D-05 0.000000000000D+00 0.000000000000D+00 0.299518360877D-06 0.342942536852D-07  6 2 21 25 24 1 21 4 0.27000719D+00 0.19152017D-02 0.20743908D+05 0.20743908D+05 0.20743908D+05 0.12320837D+01  1  2  1  3  6  5        1 0.288736948076D+00 0.100000000000D+01
  </mgrwgt>
  </event>
  <event>
  6     66 0.45638357E-03 0.66111083E+02 0.75467711E-02 0.11265515E+00
        2 -1    0    0  502    0 0.00000000E+00 0.00000000E+00 0.33675851E+03 0.33675866E+03 0.32000000E+00 0.0000E+00 0.9000E+01
       21 -1    0    0  501  502 0.00000000E+00 0.00000000E+00 -.21639875E+03 0.21640005E+03 0.75000000E+00 0.0000E+00 0.9000E+01
       25  1    1    2    0    0 0.10762964E+03 0.14581400E+03 0.14518955E+03 0.26372498E+03 0.12500000E+03 0.0000E+00 0.9000E+01
       24  1    1    2    0    0 -.76723844E+02 -.82325331E+02 0.38341246E+02 0.14353144E+03 0.80419002E+02 0.0000E+00 0.9000E+01
        1  1    1    2  503    0 -.19593595E+02 0.13361160E+02 -.63960828E+02 0.68216710E+02 0.32000000E+00 0.0000E+00 0.9000E+01
       21  1    1    2  501  503 -.11312200E+02 -.76849829E+02 0.78979436E+00 0.77685574E+02 0.75000000E+00 0.0000E+00 0.9000E+01
#aMCatNLO 2  0  0  5  2 0.55452721D+02 0.00000000D+00  -5  6  0 0.00000000D+00 0.00000000D+00 0.00000000D+00 0.00000000D+00 0.00000000D+00
  <mgrwgt>
 0.1448807164D-01    1    2    0
 0.269952814018637D+03 0.000000000000000D+00 0.000000000000000D+00 0.269952814018637D+03
 0.269952814018637D+03 -.000000000000000D+00 -.000000000000000D+00 -.269952814018637D+03
 0.253554684313889D+03 0.112919671930810D+03 0.156681124515375D+03 0.106607461507867D+03
 0.134185627520881D+03 -.737881619013664D+02 -.762946639547788D+02 0.165226539650055D+02
 0.152165316202503D+03 -.391315100294441D+02 -.803864605605966D+02 -.123130115472872D+03
 0.000000000000000D+00 0.000000000000000D+00 -.000000000000000D+00 0.000000000000000D+00
 0.269952814018637D+03 0.000000000000000D+00 0.000000000000000D+00 0.269952814018637D+03
 0.269952814018637D+03 -.000000000000000D+00 -.000000000000000D+00 -.269952814018637D+03
 0.237828766994362D+03 0.107628553058768D+03 0.145811768382458D+03 0.899585747870362D+02
 0.138508419668278D+03 -.767244769431830D+02 -.823266308562571D+02 0.728332714394594D+01
 0.837519816363191D+02 -.194539507836055D+02 0.136689077797904D+02 -.803062836086129D+02
 0.798164597383145D+02 -.114501253319797D+02 -.771540453059913D+02 -.169356183223692D+02
0.700115898443D-05 0.000000000000D+00 0.000000000000D+00 0.209153315258D-06 0.195559371978D-08  6 2 21 25 24 1 21 4 0.51809113D-01 0.33292227D-01 0.52957692D+05 0.52957692D+05 0.52957692D+05 0.11898178D+01  1  2  1  3  6  5        1 0.144880716428D-01 0.100000000000D+01
  </mgrwgt>
  </event>
  <event>
  6     66 0.45638357E-03 0.51092937E+02 0.75467711E-02 0.11878560E+00
        2 -1    0    0  502    0 0.00000000E+00 0.00000000E+00 0.25584326E+04 0.25584326E+04 0.32000000E+00 0.0000E+00 0.9000E+01
       21 -1    0    0  503  502 0.00000000E+00 0.00000000E+00 -.59808821E+02 0.59813523E+02 0.75000000E+00 0.0000E+00 0.9000E+01
       25  1    1    2    0    0 0.41674337E+01 0.25430511E+01 0.11302147E+04 0.11371165E+04 0.12500000E+03 0.0000E+00 0.9000E+01
       24  1    1    2    0    0 -.30045836E+02 0.44956291E+02 0.11912879E+04 0.11952229E+04 0.80419002E+02 0.0000E+00 0.9000E+01
        1  1    1    2  501    0 0.25532166E+02 0.19725485E+02 0.20901807E+03 0.21149384E+03 0.32000000E+00 0.0000E+00 0.9000E+01
       21  1    1    2  503  501 0.34623591E+00 -.67224827E+02 -.31896849E+02 0.74412827E+02 0.75000000E+00 0.0000E+00 0.9000E+01
#aMCatNLO 2  0  0  2  1 0.57273367D+01 0.00000000D+00  -5  6  0 0.00000000D+00 0.00000000D+00 0.00000000D+00 0.00000000D+00 0.00000000D+00
  <mgrwgt>
 0.5836526731D+00    1    2    0
 0.125532856984527D+03 0.000000000000000D+00 0.000000000000000D+00 0.125532856984527D+03
 0.125532856984527D+03 0.000000000000000D+00 0.000000000000000D+00 -.125532856984527D+03
 0.129184922749102D+03 0.433926277831511D+01 -.309562677768591D+02 -.930723103611074D+01
 0.909595142929056D+02 -.299172557537249D+02 0.198947363356231D+02 0.227062669836547D+02
 0.309212769270472D+02 0.255779929754098D+02 0.110615314412359D+02 -.133990359475440D+02
 0.000000000000000D+00 0.000000000000000D+00 -.000000000000000D+00 -.000000000000000D+00
 0.131043786039829D+03 0.000000000000000D+00 0.000000000000000D+00 0.131043786039829D+03
 0.116772194284134D+04 0.000000000000000D+00 0.000000000000000D+00 -.116772194284134D+04
 0.125441028834358D+03 0.416672890343838D+01 0.254274176981232D+01 -.930723103611074D+01
 0.995320306275407D+02 -.300463323233833D+02 0.449561177155120D+02 0.227062669836547D+02
 0.349370980994795D+02 0.255333675137640D+02 0.197259677252129D+02 -.133990359475440D+02
 0.103885557131979D+04 0.346235906180846D+00 -.672248272105372D+02 -.103667815680151D+04
0.560762690958D-03 0.000000000000D+00 0.000000000000D+00 0.103600295391D-05 0.195288982991D-06  6 2 21 25 24 1 21 4 0.39360497D+00 0.92017109D-02 0.25839596D+05 0.25839596D+05 0.25839596D+05 0.12217626D+01  1  2  1  2  6  2       21 0.583652673112D+00 0.100000000000D+01
  </mgrwgt>
  </event>
  <event>
  5     66 -.45638357E-03 0.70617544E+02 0.75467711E-02 0.11552799E+00
        2 -1    0    0  502    0 0.00000000E+00 0.00000000E+00 0.69015103E+03 0.69015110E+03 0.32000000E+00 0.0000E+00 0.9000E+01
       21 -1    0    0  501  502 0.00000000E+00 0.00000000E+00 -.82142523E+02 0.82145947E+02 0.75000000E+00 0.0000E+00 0.9000E+01
       25  1    1    2    0    0 -.72334499E+02 -.52115403E+02 0.34101091E+03 0.37398093E+03 0.12500000E+03 0.0000E+00 0.9000E+01
       24  1    1    2    0    0 0.36001451E+02 -.84381870E+01 0.30537463E+03 0.31794369E+03 0.80419002E+02 0.0000E+00 0.9000E+01
        1  1    1    2  501    0 0.36333048E+02 0.60553590E+02 -.38377039E+02 0.80372428E+02 0.32000000E+00 0.0000E+00 0.9000E+01
#aMCatNLO 1  0  0  2  2 0.81339471D+02 0.00000000D+00  -5  6  0 0.00000000D+00 0.00000000D+00 0.00000000D+00 0.00000000D+00 0.00000000D+00
  <mgrwgt>
 -.2249135881D+00   12    2    0
 0.238101022789207D+03 0.000000000000000D+00 0.000000000000000D+00 0.238101022789207D+03
 0.238101022789207D+03 0.000000000000000D+00 0.000000000000000D+00 -.238101022789207D+03
 0.171118256364985D+03 -.723345196085678D+02 -.521154376217685D+02 0.755523401085760D+02
 0.125737848936414D+03 0.360014358301451D+02 -.843821240743516D+01 0.893055647220312D+02
 0.179345940277015D+03 0.363330837784227D+02 0.605536500292037D+02 -.164857904830607D+03
 0.000000000000000D+00 0.000000000000000D+00 0.000000000000000D+00 -.000000000000000D+00
 0.244249657639255D+03 0.000000000000000D+00 0.000000000000000D+00 0.244249657639255D+03
 0.854099232956617D+03 0.000000000000000D+00 0.000000000000000D+00 -.854099232956617D+03
 0.183246774299546D+03 -.741962568475610D+02 -.821044436380741D+02 0.755523401085760D+02
 0.128616430211128D+03 0.346651278076006D+02 -.299635643681646D+02 0.893055647220312D+02
 0.171235644251195D+03 0.344912237337184D+02 0.308848273806862D+02 -.164857904830607D+03
 0.615250041834004D+03 0.503990530624197D+01 0.811831806255525D+02 -.609849575317362D+03
0.434258587739D-05 0.000000000000D+00 0.000000000000D+00 0.158419938135D-05 0.000000000000D+00  6 2 21 25 24 1 21 2 0.10617735D+00 0.12637580D-01 0.24440066D+05 0.24440066D+05 0.24440066D+05 0.12243538D+01  1  2  2  2  6  2       21 0.188169754574D-01 0.100000000000D+01
0.165705991228D-06 0.229164552690D-06 -.876642973200D-08 0.158419938135D-05 0.000000000000D+00  6 2 21 25 24 1 21 4 0.10617735D+00 0.12637580D-01 0.24440066D+05 0.24440066D+05 0.24440066D+05 0.12243538D+01  1  2  3  2  6  2       21 0.107634985636D-02 0.100000000000D+01
0.362917525742D-06 0.000000000000D+00 0.000000000000D+00 0.158419938135D-05 0.000000000000D+00  6 2 21 25 24 1 21 4 0.10617735D+00 0.12637580D-01 0.24440066D+05 0.24440066D+05 0.24440066D+05 0.12243538D+01  1  2 15  2  6  2       21 0.235734522216D-02 0.100000000000D+01
-.335344648996D-03 0.000000000000D+00 -.147972480658D-04 0.158419938135D-05 0.000000000000D+00  6 2 21 25 24 1 21 4 0.10617735D+00 0.45817986D-01 0.24440066D+05 0.24440066D+05 0.24440066D+05 0.12243538D+01  1  2  5  2  6  2       21 -.188380505148D+00 0.100000000000D+01
-.120826608472D-03 0.000000000000D+00 -.566845915161D-05 0.158419938135D-05 0.000000000000D+00  6 2 -1 25 24 1 -1 4 0.10617735D+00 0.45817986D-01 0.24440066D+05 0.24440066D+05 0.24440066D+05 0.12243538D+01  1  2  5  5  6  2       21 -.655664523211D-02 0.100000000000D+01
-.120826608472D-03 0.000000000000D+00 -.566845915161D-05 0.158419938135D-05 0.000000000000D+00  6 2 1 25 24 1 1 4 0.10617735D+00 0.45817986D-01 0.24440066D+05 0.24440066D+05 0.24440066D+05 0.12243538D+01  1  2  5  6  6  2       21 -.142156844083D-01 0.100000000000D+01
-.120826608472D-03 0.000000000000D+00 -.566845915161D-05 0.158419938135D-05 0.000000000000D+00  6 2 -2 25 24 1 -2 4 0.10617735D+00 0.45817986D-01 0.24440066D+05 0.24440066D+05 0.24440066D+05 0.12243538D+01  1  2  5  7  6  2       21 -.543942413869D-02 0.100000000000D+01
-.120826608472D-03 0.000000000000D+00 -.566845915161D-05 0.158419938135D-05 0.000000000000D+00  6 2 2 25 24 1 2 4 0.10617735D+00 0.45817986D-01 0.24440066D+05 0.24440066D+05 0.24440066D+05 0.12243538D+01  1  2  5  8  6  2       21 -.200741837244D-01 0.100000000000D+01
-.120826608472D-03 0.000000000000D+00 -.566845915161D-05 0.158419938135D-05 0.000000000000D+00  6 2 -3 25 24 1 -3 4 0.10617735D+00 0.45817986D-01 0.24440066D+05 0.24440066D+05 0.24440066D+05 0.12243538D+01  1  2  5  9  6  2       21 -.342133060018D-02 0.100000000000D+01
-.120826608472D-03 0.000000000000D+00 -.566845915161D-05 0.158419938135D-05 0.000000000000D+00  6 2 -4 25 24 1 -4 4 0.10617735D+00 0.45817986D-01 0.24440066D+05 0.24440066D+05 0.24440066D+05 0.12243538D+01  1  2  5  9  6  2       21 -.282702921488D-02 0.100000000000D+01
-.120826608472D-03 0.000000000000D+00 -.566845915161D-05 0.158419938135D-05 0.000000000000D+00  6 2 3 25 24 1 3 4 0.10617735D+00 0.45817986D-01 0.24440066D+05 0.24440066D+05 0.24440066D+05 0.12243538D+01  1  2  5 10  6  2       21 -.342242691527D-02 0.100000000000D+01
-.120826608472D-03 0.000000000000D+00 -.566845915161D-05 0.158419938135D-05 0.000000000000D+00  6 2 4 25 24 1 4 4 0.10617735D+00 0.45817986D-01 0.24440066D+05 0.24440066D+05 0.24440066D+05 0.12243538D+01  1  2  5 10  6  2       21 -.282702921488D-02 0.100000000000D+01
  </mgrwgt>
  </event>
  <event>
  5     66 0.45638357E-03 0.49629712E+02 0.75467711E-02 0.11852603E+00
        2 -1    0    0  502    0 0.00000000E+00 0.00000000E+00 0.15911696E+03 0.15911728E+03 0.32000000E+00 0.0000E+00 0.9000E+01
       21 -1    0    0  501  502 0.00000000E+00 0.00000000E+00 -.18963720E+03 0.18963868E+03 0.75000000E+00 0.0000E+00 0.9000E+01
       25  1    1    2    0    0 -.58120208E+02 -.47351111E+02 0.79087538E+02 0.16583101E+03 0.12500000E+03 0.0000E+00 0.9000E+01
       24  1    1    2    0    0 0.87694721E+01 0.52600838E+02 -.66517010E+02 0.11719847E+03 0.80419002E+02 0.0000E+00 0.9000E+01
        1  1    1    2  501    0 0.49350736E+02 -.52497275E+01 -.43090764E+02 0.65726487E+02 0.32000000E+00 0.0000E+00 0.9000E+01
#aMCatNLO 1  0  0  2  2 0.32372828D+02 0.00000000D+00  -5  6  0 0.00000000D+00 0.00000000D+00 0.00000000D+00 0.00000000D+00 0.00000000D+00
  <mgrwgt>
 0.1253964192D+00    3    2    0
 0.173708980001562D+03 0.000000000000000D+00 0.000000000000000D+00 0.173708980001562D+03
 0.173708980001562D+03 0.000000000000000D+00 0.000000000000000D+00 -.173708980001562D+03
 0.173417651593810D+03 -.581205339830552D+02 -.473510759277011D+02 0.939604226380745D+02
 0.111806307258130D+03 0.876926184936879D+01 0.526008604741521D+02 -.564772866940756D+02
 0.621940011511852D+02 0.493512721336864D+02 -.524978454645097D+01 -.374831359439989D+02
 0.000000000000000D+00 -.000000000000000D+00 0.000000000000000D+00 0.000000000000000D+00
 0.859487302898558D+03 0.000000000000000D+00 0.000000000000000D+00 0.859487302898558D+03
 0.174843952297776D+03 0.000000000000000D+00 0.000000000000000D+00 -.174843952297776D+03
 0.168923691166060D+03 -.422164747497935D+02 -.479522853943452D+02 0.939604226380745D+02
 0.112922045703150D+03 0.192094062037611D+02 0.522061993673911D+02 -.564772866940756D+02
 0.670772330500742D+02 0.553567909218036D+02 -.547680676100446D+01 -.374831359439989D+02
 0.685408285277051D+03 -.323497223757712D+02 0.122289278795860D+01 0.684643350600783D+03
0.239062137448D-04 0.000000000000D+00 0.000000000000D+00 0.351460042367D-06 0.000000000000D+00  6 2 21 25 24 1 21 2 0.24479672D-01 0.29175092D-01 0.21298501D+05 0.21298501D+05 0.21298501D+05 0.12308297D+01  1  2  2  2  6  2       21 0.110298003660D+00 0.100000000000D+01
-.316310791822D-06 0.126156555887D-05 -.482597578654D-07 0.351460042367D-06 0.000000000000D+00  6 2 21 25 24 1 21 4 0.24479672D-01 0.29175092D-01 0.21298501D+05 0.21298501D+05 0.21298501D+05 0.12308297D+01  1  2  3  2  6  2       21 -.221088844945D-02 0.100000000000D+01
0.247643414332D-05 0.000000000000D+00 0.000000000000D+00 0.351460042367D-06 0.000000000000D+00  6 2 21 25 24 1 21 4 0.24479672D-01 0.29175092D-01 0.21298501D+05 0.21298501D+05 0.21298501D+05 0.12308297D+01  1  2 15  2  6  2       21 0.173093039657D-01 0.100000000000D+01
  </mgrwgt>
  </event>
  <event>
  6     66 -.45638357E-03 0.29430220E+02 0.75467711E-02 0.12039069E+00
        2 -1    0    0  502    0 0.00000000E+00 0.00000000E+00 0.48882282E+03 0.48882293E+03 0.32000000E+00 0.0000E+00 0.9000E+01
       21 -1    0    0  501  503 0.00000000E+00 0.00000000E+00 -.73023106E+02 0.73026958E+02 0.75000000E+00 0.0000E+00 0.9000E+01
       25  1    1    2    0    0 -.48463888E+02 -.30246889E+02 0.94108645E+02 0.16656848E+03 0.12500000E+03 0.0000E+00 0.9000E+01
       24  1    1    2    0    0 0.29206224E+02 0.66575758E+02 0.32647490E+03 0.34400351E+03 0.80419002E+02 0.0000E+00 0.9000E+01
        1  1    1    2  501    0 0.65022341E+01 -.35235828E+02 0.35128542E+01 0.36003960E+02 0.32000000E+00 0.0000E+00 0.9000E+01
       21  1    1    2  502  503 0.12755430E+02 -.10930412E+01 -.82966823E+01 0.15273937E+02 0.75000000E+00 0.0000E+00 0.9000E+01
#aMCatNLO 2  0  0  2  5 0.12802177D+02 0.00000000D+00  -5  6  0 0.00000000D+00 0.00000000D+00 0.00000000D+00 0.00000000D+00 0.00000000D+00
  <mgrwgt>
 -.8853694400D-01    3    2    0
 0.172281467711010D+03 0.000000000000000D+00 0.000000000000000D+00 0.172281467711010D+03
 0.172281467711010D+03 0.000000000000000D+00 0.000000000000000D+00 -.172281467711010D+03
 0.146696047582587D+03 -.430057283763934D+02 -.307143427476366D+02 -.556944059376631D+02
 0.144725618451245D+03 0.345439880886378D+02 0.661186167904452D+02 0.944104341816901D+02
 0.531412693881884D+02 0.846174028775561D+01 -.354042740428086D+02 -.387160282440270D+02
 0.000000000000000D+00 0.000000000000000D+00 -.000000000000000D+00 -.000000000000000D+00
 0.173635507451817D+03 0.000000000000000D+00 0.000000000000000D+00 0.173635507451817D+03
 0.205573179936084D+03 0.000000000000000D+00 0.000000000000000D+00 -.205573179936084D+03
 0.148291870366918D+03 -.484639473911094D+02 -.302466158014646D+02 -.556944059376631D+02
 0.143756435212047D+03 0.292061483504733D+02 0.665760281682510D+02 0.944104341816901D+02
 0.527523791504507D+02 0.650236944298024D+01 -.352363711903994D+02 -.387160282440270D+02
 0.344080026584859D+02 0.127554295976559D+02 -.109304117638698D+01 -.319376724842675D+02
-.936832662546D-05 0.000000000000D+00 0.000000000000D+00 0.529669631292D-06 0.000000000000D+00  6 2 21 25 24 1 21 4 0.74615619D-01 0.11266748D-01 0.21679420D+05 0.21679420D+05 0.21679420D+05 0.12299894D+01  1  2 13  2  6  2       21 -.113527771931D+00 0.100000000000D+01
-.637648382531D-05 0.000000000000D+00 0.000000000000D+00 0.529669631292D-06 0.000000000000D+00  6 2 21 25 24 1 21 4 0.74615619D-01 0.12117819D-01 0.21679420D+05 0.21679420D+05 0.21679420D+05 0.12299894D+01  1  2 13  2  6  2       21 -.679071713292D-01 0.100000000000D+01
0.769278983025D-05 0.000000000000D+00 0.000000000000D+00 0.533282898720D-06 0.564262968994D-07  6 2 21 25 24 1 21 4 0.75202058D-01 0.11234366D-01 0.21679420D+05 0.21679420D+05 0.21679420D+05 0.12299894D+01  1  2  1  2  6  2       21 0.928979992635D-01 0.100000000000D+01
  </mgrwgt>
  </event>
  <event>
  6     66 -.45638357E-03 0.51798235E+02 0.75467711E-02 0.11699080E+00
        2 -1    0    0  502    0 0.00000000E+00 0.00000000E+00 0.28289253E+04 0.28289253E+04 0.32000000E+00 0.0000E+00 0.9000E+01
       21 -1    0    0  501  503 0.00000000E+00 0.00000000E+00 -.32918271E+02 0.32926814E+02 0.75000000E+00 0.0000E+00 0.9000E+01
       25  1    1    2    0    0 0.27528440E+02 -.71941405E+02 0.17808353E+03 0.23080755E+03 0.12500000E+03 0.0000E+00 0.9000E+01
       24  1    1    2    0    0 -.56196013E+02 0.11319260E+03 0.11069439E+04 0.11170329E+04 0.80419002E+02 0.0000E+00 0.9000E+01
        1  1    1    2  501    0 0.33246564E+02 -.42830848E+02 0.15061663E+04 0.15071420E+04 0.32000000E+00 0.0000E+00 0.9000E+01
       21  1    1    2  502  503 -.45789909E+01 0.15796537E+01 0.48132796E+01 0.68696888E+01 0.75000000E+00 0.0000E+00 0.9000E+01
#aMCatNLO 2  0  0  2  1 0.48438067D+01 0.00000000D+00  -5  6  0 0.00000000D+00 0.00000000D+00 0.00000000D+00 0.00000000D+00 0.00000000D+00
  <mgrwgt>
 -.3619326946D-01    4    2    0
 0.300057803016013D+03 0.000000000000000D+00 0.000000000000000D+00 0.300057803016013D+03
 0.300057803016013D+03 0.000000000000000D+00 0.000000000000000D+00 -.300057803016013D+03
 0.269358474726311D+03 0.254717026669236D+02 -.712318479517426D+02 -.226287878834710D+03
 0.166385658151427D+03 -.574627684749163D+02 0.113629619122042D+03 0.707340878324640D+02
 0.164371473154288D+03 0.319910658079927D+02 -.423977711702997D+02 0.155553791002246D+03
 0.000000000000000D+00 -.000000000000000D+00 0.000000000000000D+00 -.000000000000000D+00
 0.300674817385462D+03 0.000000000000000D+00 0.000000000000000D+00 0.300674817385462D+03
 0.309727039872003D+03 0.000000000000000D+00 0.000000000000000D+00 -.309727039872003D+03
 0.269749102397110D+03 0.275284134683869D+02 -.719413691032329D+02 -.226287878834710D+03
 0.165653525138520D+03 -.561960295089656D+02 0.113192621324822D+03 0.707340878324640D+02
 0.164732526464709D+03 0.332466069644217D+02 -.428309059632026D+02 0.155553791002246D+03
 0.102667032571262D+02 -.457899092384304D+01 0.157965374161379D+01 -.905222248654189D+01
-.285802851047D-04 0.000000000000D+00 0.000000000000D+00 0.310682493733D-07 0.000000000000D+00  6 2 21 25 24 1 21 4 0.43430710D+00 0.50697327D-02 0.31627795D+05 0.31627795D+05 0.31627795D+05 0.12124973D+01  1  2 13  2  6  2       21 -.568365715836D-01 0.100000000000D+01
-.277956468488D-04 0.000000000000D+00 0.000000000000D+00 0.310682493733D-07 0.000000000000D+00  6 2 21 25 24 1 21 4 0.43430710D+00 0.50742081D-02 0.31627795D+05 0.31627795D+05 0.31627795D+05 0.12124973D+01  1  2 13  2  6  2       21 -.551936500463D-01 0.100000000000D+01
-.218536323149D-03 0.000000000000D+00 0.000000000000D+00 0.311455885592D-07 0.000000000000D+00  6 2 21 25 24 1 21 4 0.43430710D+00 0.49066628D-02 0.30594138D+05 0.30594138D+05 0.30594138D+05 0.12140055D+01  1  2  8  2  6  2       21 -.462344190070D+00 0.100000000000D+01
0.272228968465D-03 0.000000000000D+00 0.000000000000D+00 0.311455885592D-07 0.225535398456D-07  6 2 21 25 24 1 21 4 0.43520017D+00 0.50647779D-02 0.31627795D+05 0.31627795D+05 0.31627795D+05 0.12124973D+01  1  2  1  2  6  2       21 0.538181142242D+00 0.100000000000D+01
  </mgrwgt>
  </event>
  <event>
  6     66 0.45638357E-03 0.66510848E+02 0.75467711E-02 0.11678376E+00
        2 -1    0    0  502    0 0.00000000E+00 0.00000000E+00 0.34727186E+03 0.34727201E+03 0.32000000E+00 0.0000E+00 0.9000E+01
       21 -1    0    0  501  502 0.00000000E+00 0.00000000E+00 -.19383220E+03 0.19383365E+03 0.75000000E+00 0.0000E+00 0.9000E+01
       25  1    1    2    0    0 -.43059410E+01 0.35362068E+02 0.48190351E+02 0.13862297E+03 0.12500000E+03 0.0000E+00 0.9000E+01
       24  1    1    2    0    0 -.54291292E+02 0.47604518E+02 0.14538678E+03 0.18115813E+03 0.80419002E+02 0.0000E+00 0.9000E+01
        1  1    1    2  503    0 0.37406326E+02 -.15777665E+01 0.71998879E+02 0.81152102E+02 0.32000000E+00 0.0000E+00 0.9000E+01
       21  1    1    2  501  503 0.21190906E+02 -.81388820E+02 -.11213635E+03 0.14017246E+03 0.75000000E+00 0.0000E+00 0.9000E+01
#aMCatNLO 2  0  0  5  1 0.58804924D+02 0.00000000D+00  -5  6  0 0.00000000D+00 0.00000000D+00 0.00000000D+00 0.00000000D+00 0.00000000D+00
  <mgrwgt>
 0.5964869860D-01    1    2    0
 0.259447295929811D+03 0.000000000000000D+00 0.000000000000000D+00 0.259447295929811D+03
 0.259447295929811D+03 -.000000000000000D+00 -.000000000000000D+00 -.259447295929811D+03
 0.138728479785531D+03 -.150465357278024D+02 0.505694498950077D+02 0.289296319284025D+02
 0.173206114885117D+03 -.670316939864004D+02 0.656433844349118D+02 0.121370673395470D+03
 0.206959997188974D+03 0.820782297142028D+02 -.116212834329919D+03 -.150300305323872D+03
 0.000000000000000D+00 -.000000000000000D+00 0.000000000000000D+00 0.000000000000000D+00
 0.259447295929811D+03 0.000000000000000D+00 0.000000000000000D+00 0.259447295929811D+03
 0.259447295929811D+03 -.000000000000000D+00 -.000000000000000D+00 -.259447295929811D+03
 0.130371696561933D+03 -.442436458055415D+01 0.355297418011865D+02 0.947848669545921D+01
 0.146195010793183D+03 -.544239972259273D+02 0.477924125022997D+02 0.982836662910514D+02
 0.625961397446874D+02 0.367506185302922D+02 -.134988253657654D+01 0.506541860630968D+02
 0.179731744759819D+03 0.220977432761893D+02 -.819722717669097D+02 -.158416339049607D+03
0.221085356705D-04 0.000000000000D+00 0.000000000000D+00 0.445908737789D-06 0.188847756212D-08  6 2 21 25 24 1 21 4 0.53426563D-01 0.29820461D-01 0.32387157D+05 0.32387157D+05 0.32387157D+05 0.12114239D+01  1  2  1  3  6  5        1 0.596486985951D-01 0.100000000000D+01
  </mgrwgt>
  </event>
  <event>
  5     66 0.45638357E-03 0.30169857E+02 0.75467711E-02 0.11535458E+00
        2 -1    0    0  502    0 0.00000000E+00 0.00000000E+00 0.15568972E+04 0.15568972E+04 0.32000000E+00 0.0000E+00 0.9000E+01
       21 -1    0    0  501  502 0.00000000E+00 0.00000000E+00 -.32560556E+02 0.32569193E+02 0.75000000E+00 0.0000E+00 0.9000E+01
       25  1    1    2    0    0 -.12613753E+03 0.69065423E+02 0.80527453E+03 0.82750999E+03 0.12500000E+03 0.0000E+00 0.9000E+01
       24  1    1    2    0    0 0.10845945E+03 -.93513237E+02 0.71236123E+03 0.73104987E+03 0.80419002E+02 0.0000E+00 0.9000E+01
        1  1    1    2  501    0 0.17678082E+02 0.24447814E+02 0.67008536E+01 0.30906537E+02 0.32000000E+00 0.0000E+00 0.9000E+01
#aMCatNLO 1  0  0  5  1 0.11501370D+02 0.00000000D+00  -5  6  0 0.00000000D+00 0.00000000D+00 0.00000000D+00 0.00000000D+00 0.00000000D+00
  <mgrwgt>
 0.3041652203D+00    4    2    0
 0.225167332707506D+03 0.000000000000000D+00 0.000000000000000D+00 0.225167332707506D+03
 0.225167332707506D+03 -.000000000000000D+00 -.000000000000000D+00 -.225167332707506D+03
 0.194943668892577D+03 -.126137581782229D+03 0.690653501422962D+02 0.411985668822650D+02
 0.168987488945717D+03 0.108459401769621D+03 -.935132999079277D+02 0.397665232817004D+02
 0.864035075767185D+02 0.176781800126072D+02 0.244479497656315D+02 -.809650901639655D+02
 0.000000000000000D+00 -.000000000000000D+00 0.000000000000000D+00 0.000000000000000D+00
 0.225167332707506D+03 0.000000000000000D+00 0.000000000000000D+00 0.225167332707506D+03
 0.225167332707506D+03 -.000000000000000D+00 -.000000000000000D+00 -.225167332707506D+03
 0.192947747538717D+03 -.124159381620408D+03 0.718010920652802D+02 0.321385191652526D+02
 0.167125840597125D+03 0.110173539836942D+03 -.911427413248997D+02 0.319158654043008D+02
 0.136620911780996D+02 0.924269850881357D+01 -.600204214518976D+01 0.807469811951183D+01
 0.765989861010712D+02 0.474314327465313D+01 0.253436914048092D+02 -.721290826890652D+02
0.503134920812D-04 0.000000000000D+00 0.000000000000D+00 0.117301325590D-05 0.000000000000D+00  6 2 21 25 24 1 21 2 0.23952331D+00 0.50099832D-02 0.37047071D+05 0.37047071D+05 0.37047071D+05 0.12053972D+01  1  2  2  3  6  5        1 0.321015695929D+00 0.100000000000D+01
0.784564308995D-05 0.265511592232D-05 -.101568444552D-06 0.117301325590D-05 0.000000000000D+00  6 2 21 25 24 1 21 4 0.23952331D+00 0.50099832D-02 0.37047071D+05 0.37047071D+05 0.37047071D+05 0.12053972D+01  1  2  3  3  6  5        1 0.727328733557D-01 0.100000000000D+01
0.500280779159D-05 0.000000000000D+00 0.000000000000D+00 0.117301325590D-05 0.000000000000D+00  6 2 21 25 24 1 21 4 0.23952331D+00 0.50099832D-02 0.37047071D+05 0.37047071D+05 0.37047071D+05 0.12053972D+01  1  2 15  3  6  5        1 0.463784270272D-01 0.100000000000D+01
-.146660996496D-04 0.000000000000D+00 0.000000000000D+00 0.117301325590D-05 0.000000000000D+00  6 2 21 25 24 1 21 4 0.23952331D+00 0.50099832D-02 0.37047071D+05 0.37047071D+05 0.37047071D+05 0.12053972D+01  1  2  4  3  6  5        1 -.135961776008D+00 0.100000000000D+01
  </mgrwgt>
  </event>
  <event>
  5     66 0.45638357E-03 0.35778592E+02 0.75467711E-02 0.11736906E+00
        4 -1    0    0  502    0 0.00000000E+00 0.00000000E+00 0.22381495E+02 0.22435103E+02 0.15500000E+01 0.0000E+00 0.9000E+01
       21 -1    0    0  501  502 0.00000000E+00 0.00000000E+00 -.14969449E+04 0.14969451E+04 0.75000000E+00 0.0000E+00 0.9000E+01
       25  1    1    2    0    0 0.99454938E+02 -.88999135E+02 -.95851706E+03 0.97580331E+03 0.12500000E+03 0.0000E+00 0.9000E+01
       24  1    1    2    0    0 -.67969319E+02 0.72009497E+02 -.45760355E+03 0.47505096E+03 0.80419002E+02 0.0000E+00 0.9000E+01
        3  1    1    2  501    0 -.31485620E+02 0.16989638E+02 -.58442813E+02 0.68525940E+02 0.50000000E+00 0.0000E+00 0.9000E+01
#aMCatNLO 1  0  0  2  1 0.18966259D+01 0.00000000D+00  -5  6  0 0.00000000D+00 0.00000000D+00 0.00000000D+00 0.00000000D+00 0.00000000D+00
  <mgrwgt>
 0.7612328903D-01   41    2    0
 0.183152212390835D+03 0.000000000000000D+00 0.000000000000000D+00 0.183152212390835D+03
 0.183152212390835D+03 0.000000000000000D+00 0.000000000000000D+00 -.183152212390835D+03
 0.188974932898913D+03 0.994557851184690D+02 -.889995920764051D+02 -.476879930470031D+02
 0.128356025022061D+03 -.679687434626213D+02 0.720091871644957D+02 0.142471078157785D+02
 0.489734668606956D+02 -.314870416558477D+02 0.169904049119093D+02 0.334408852312246D+02
 0.000000000000000D+00 -.000000000000000D+00 -.000000000000000D+00 -.000000000000000D+00
 0.183708025317565D+03 0.000000000000000D+00 0.000000000000000D+00 0.183708025317565D+03
 0.184779831599400D+03 0.000000000000000D+00 0.000000000000000D+00 -.184779831599400D+03
 0.188833060825192D+03 0.999413109927011D+02 -.881505220450782D+02 -.476879930470031D+02
 0.128506712478976D+03 -.676386458806366D+02 0.725864498381277D+02 0.142471078157785D+02
 0.489695615540698D+02 -.313611738201059D+02 0.172105180158822D+02 0.334408852312246D+02
 0.217852205872792D+01 -.941491291958685D+00 -.164644580893160D+01 -.107180628183533D+01
0.338836109148D-04 0.000000000000D+00 0.000000000000D+00 0.142738113763D-06 0.000000000000D+00  6 4 21 25 24 3 21 2 0.34474451D-02 0.23030336D+00 0.29963676D+05 0.29963676D+05 0.29963676D+05 0.12149536D+01  1  2  2  2  6  2       21 0.798918754347D-02 0.100000000000D+01
-.176595421565D-05 0.178808727290D-05 -.684012481358D-07 0.142738113763D-06 0.000000000000D+00  6 4 21 25 24 3 21 4 0.34474451D-02 0.23030336D+00 0.29963676D+05 0.29963676D+05 0.29963676D+05 0.12149536D+01  1  2  3  2  6  2       21 -.614627194367D-03 0.100000000000D+01
0.352914902346D-05 0.000000000000D+00 0.000000000000D+00 0.142738113763D-06 0.000000000000D+00  6 4 21 25 24 3 21 4 0.34474451D-02 0.23030336D+00 0.29963676D+05 0.29963676D+05 0.29963676D+05 0.12149536D+01  1  2 15  2  6  2       21 0.122829399741D-02 0.100000000000D+01
0.130609587019D-07 0.000000000000D+00 0.000000000000D+00 0.142621188695D-06 0.000000000000D+00  6 4 21 25 24 3 21 4 0.34474451D-02 0.23269735D+00 0.30292822D+05 0.30292822D+05 0.30292822D+05 0.12144559D+01  1  2 12  2  6  2       21 0.438996925544D-05 0.100000000000D+01
0.865984185169D-08 0.000000000000D+00 0.000000000000D+00 0.142621188695D-06 0.000000000000D+00  6 4 21 25 24 3 21 4 0.34474451D-02 0.23389662D+00 0.30292822D+05 0.30292822D+05 0.30292822D+05 0.12144559D+01  1  2 12  2  6  2       21 0.286310065554D-05 0.100000000000D+01
-.651723326045D-03 0.000000000000D+00 0.000000000000D+00 0.142738113763D-06 0.000000000000D+00  6 4 21 25 24 3 21 4 0.34474451D-02 0.23030336D+00 0.29963676D+05 0.29963676D+05 0.29963676D+05 0.12149536D+01  1  2  4  2  6  2       21 -.226827443113D+00 0.100000000000D+01
-.772141822166D-02 0.000000000000D+00 -.750340371909D-03 0.142738113763D-06 0.000000000000D+00  6 4 21 25 24 3 21 4 0.34474451D-02 0.23270523D+00 0.29963676D+05 0.29963676D+05 0.29963676D+05 0.12149536D+01  1  2  5  2  6  2       21 -.259987967876D+01 0.100000000000D+01
0.772755084143D-02 0.000000000000D+00 0.750178857187D-03 0.142738113763D-06 0.000000000000D+00  6 4 21 25 24 3 21 4 0.34474451D-02 0.23030336D+00 0.29963676D+05 0.29963676D+05 0.29963676D+05 0.12149536D+01  1  2  6  2  6  2       21 0.268951643871D+01 0.100000000000D+01
0.647875658204D-03 0.000000000000D+00 0.000000000000D+00 0.142738113763D-06 0.678321864685D-06  6 4 21 25 24 3 21 4 0.34579071D-02 0.23234999D+00 0.30292822D+05 0.30292822D+05 0.30292822D+05 0.12144559D+01  1  2 11  2  6  2       21 0.217755378284D+00 0.100000000000D+01
0.173104830813D-08 0.000000000000D+00 0.000000000000D+00 0.142621188695D-06 0.000000000000D+00  6 4 -3 25 24 3 -3 4 0.34474451D-02 0.23269735D+00 0.30292822D+05 0.30292822D+05 0.30292822D+05 0.12144559D+01  1  2 12  5  6  2       21 0.347888209761D-07 0.100000000000D+01
0.173134568864D-08 0.000000000000D+00 0.000000000000D+00 0.142621188695D-06 0.000000000000D+00  6 4 -3 25 24 3 -3 4 0.34474451D-02 0.23389662D+00 0.30292822D+05 0.30292822D+05 0.30292822D+05 0.12144559D+01  1  2 12  5  6  2       21 0.342595256281D-07 0.100000000000D+01
-.163540433173D-04 0.000000000000D+00 -.175692955539D-05 0.142738113763D-06 0.000000000000D+00  6 4 -3 25 24 3 -3 4 0.34474451D-02 0.23270523D+00 0.29963676D+05 0.29963676D+05 0.29963676D+05 0.12149536D+01  1  2  5  5  6  2       21 -.328997153191D-03 0.100000000000D+01
0.607399679791D-04 0.000000000000D+00 0.000000000000D+00 0.142738113763D-06 0.592290171127D-07  6 4 -3 25 24 3 -3 4 0.34579071D-02 0.23234999D+00 0.30292822D+05 0.30292822D+05 0.30292822D+05 0.12144559D+01  1  2 11  5  6  2       21 0.122031619562D-02 0.100000000000D+01
0.173104830813D-08 0.000000000000D+00 0.000000000000D+00 0.142621188695D-06 0.000000000000D+00  6 4 3 25 24 3 3 4 0.34474451D-02 0.23269735D+00 0.30292822D+05 0.30292822D+05 0.30292822D+05 0.12144559D+01  1  2 12  6  6  2       21 0.350861713972D-07 0.100000000000D+01
0.173134568864D-08 0.000000000000D+00 0.000000000000D+00 0.142621188695D-06 0.000000000000D+00  6 4 3 25 24 3 3 4 0.34474451D-02 0.23389662D+00 0.30292822D+05 0.30292822D+05 0.30292822D+05 0.12144559D+01  1  2 12  6  6  2       21 0.345555677222D-07 0.100000000000D+01
-.163540433173D-04 0.000000000000D+00 -.175692955539D-05 0.142738113763D-06 0.000000000000D+00  6 4 3 25 24 3 3 4 0.34474451D-02 0.23270523D+00 0.29963676D+05 0.29963676D+05 0.29963676D+05 0.12149536D+01  1  2  5  6  6  2       21 -.331808703196D-03 0.100000000000D+01
0.383667639439D-05 0.000000000000D+00 0.000000000000D+00 0.142738113763D-06 0.683649994873D-09  6 4 3 25 24 3 3 4 0.34579071D-02 0.23234999D+00 0.30292822D+05 0.30292822D+05 0.30292822D+05 0.12144559D+01  1  2 11  6  6  2       21 0.777387653667D-04 0.100000000000D+01
0.173104830813D-08 0.000000000000D+00 0.000000000000D+00 0.142621188695D-06 0.000000000000D+00  6 4 -4 25 24 3 -4 4 0.34474451D-02 0.23269735D+00 0.30292822D+05 0.30292822D+05 0.30292822D+05 0.12144559D+01  1  2 12  7  6  2       21 0.262402184061D-07 0.100000000000D+01
0.173134568864D-08 0.000000000000D+00 0.000000000000D+00 0.142621188695D-06 0.000000000000D+00  6 4 -4 25 24 3 -4 4 0.34474451D-02 0.23389662D+00 0.30292822D+05 0.30292822D+05 0.30292822D+05 0.12144559D+01  1  2 12  7  6  2       21 0.258193376674D-07 0.100000000000D+01
-.163540433173D-04 0.000000000000D+00 -.175692955539D-05 0.142738113763D-06 0.000000000000D+00  6 4 -4 25 24 3 -4 4 0.34474451D-02 0.23270523D+00 0.29963676D+05 0.29963676D+05 0.29963676D+05 0.12149536D+01  1  2  5  7  6  2       21 -.248135596293D-03 0.100000000000D+01
0.384071411950D-05 0.000000000000D+00 0.000000000000D+00 0.142738113763D-06 0.136661214178D-08  6 4 -4 25 24 3 -4 4 0.34579071D-02 0.23234999D+00 0.30292822D+05 0.30292822D+05 0.30292822D+05 0.12144559D+01  1  2 11  7  6  2       21 0.582159819463D-04 0.100000000000D+01
0.173104830813D-08 0.000000000000D+00 0.000000000000D+00 0.142621188695D-06 0.000000000000D+00  6 4 4 25 24 3 4 4 0.34474451D-02 0.23269735D+00 0.30292822D+05 0.30292822D+05 0.30292822D+05 0.12144559D+01  1  2 12  8  6  2       21 0.262402184061D-07 0.100000000000D+01
0.173134568864D-08 0.000000000000D+00 0.000000000000D+00 0.142621188695D-06 0.000000000000D+00  6 4 4 25 24 3 4 4 0.34474451D-02 0.23389662D+00 0.30292822D+05 0.30292822D+05 0.30292822D+05 0.12144559D+01  1  2 12  8  6  2       21 0.258193376674D-07 0.100000000000D+01
-.163540433173D-04 0.000000000000D+00 -.175692955539D-05 0.142738113763D-06 0.000000000000D+00  6 4 4 25 24 3 4 4 0.34474451D-02 0.23270523D+00 0.29963676D+05 0.29963676D+05 0.29963676D+05 0.12149536D+01  1  2  5  8  6  2       21 -.248135596293D-03 0.100000000000D+01
0.630059701964D-05 0.000000000000D+00 0.000000000000D+00 0.142738113763D-06 0.269122622103D-08  6 4 4 25 24 3 4 4 0.34579071D-02 0.23234999D+00 0.30292822D+05 0.30292822D+05 0.30292822D+05 0.12144559D+01  1  2 11  8  6  2       21 0.955018860904D-04 0.100000000000D+01
0.173104830813D-08 0.000000000000D+00 0.000000000000D+00 0.142621188695D-06 0.000000000000D+00  6 4 -1 25 24 3 -1 4 0.34474451D-02 0.23269735D+00 0.30292822D+05 0.30292822D+05 0.30292822D+05 0.12144559D+01  1  2 12  9  6  2       21 0.668128349554D-07 0.100000000000D+01
0.173104830813D-08 0.000000000000D+00 0.000000000000D+00 0.142621188695D-06 0.000000000000D+00  6 4 -2 25 24 3 -2 4 0.34474451D-02 0.23269735D+00 0.30292822D+05 0.30292822D+05 0.30292822D+05 0.12144559D+01  1  2 12  9  6  2       21 0.517706996105D-07 0.100000000000D+01
0.173134568864D-08 0.000000000000D+00 0.000000000000D+00 0.142621188695D-06 0.000000000000D+00  6 4 -1 25 24 3 -1 4 0.34474451D-02 0.23389662D+00 0.30292822D+05 0.30292822D+05 0.30292822D+05 0.12144559D+01  1  2 12  9  6  2       21 0.656678697331D-07 0.100000000000D+01
0.173134568864D-08 0.000000000000D+00 0.000000000000D+00 0.142621188695D-06 0.000000000000D+00  6 4 -2 25 24 3 -2 4 0.34474451D-02 0.23389662D+00 0.30292822D+05 0.30292822D+05 0.30292822D+05 0.12144559D+01  1  2 12  9  6  2       21 0.509417473280D-07 0.100000000000D+01
-.163540433173D-04 0.000000000000D+00 -.175692955539D-05 0.142738113763D-06 0.000000000000D+00  6 4 -1 25 24 3 -1 4 0.34474451D-02 0.23270523D+00 0.29963676D+05 0.29963676D+05 0.29963676D+05 0.12149536D+01  1  2  5  9  6  2       21 -.631977268998D-03 0.100000000000D+01
-.163540433173D-04 0.000000000000D+00 -.175692955539D-05 0.142738113763D-06 0.000000000000D+00  6 4 -2 25 24 3 -2 4 0.34474451D-02 0.23270523D+00 0.29963676D+05 0.29963676D+05 0.29963676D+05 0.12149536D+01  1  2  5  9  6  2       21 -.489660991948D-03 0.100000000000D+01
0.383813758040D-05 0.000000000000D+00 0.000000000000D+00 0.142738113763D-06 0.136569535144D-08  6 4 -1 25 24 3 -1 4 0.34579071D-02 0.23234999D+00 0.30292822D+05 0.30292822D+05 0.30292822D+05 0.12144559D+01  1  2 11  9  6  2       21 0.148177914949D-03 0.100000000000D+01
0.383813758040D-05 0.000000000000D+00 0.000000000000D+00 0.142738113763D-06 0.136569535144D-08  6 4 -2 25 24 3 -2 4 0.34579071D-02 0.23234999D+00 0.30292822D+05 0.30292822D+05 0.30292822D+05 0.12144559D+01  1  2 11  9  6  2       21 0.114779413258D-03 0.100000000000D+01
0.173104830813D-08 0.000000000000D+00 0.000000000000D+00 0.142621188695D-06 0.000000000000D+00  6 4 1 25 24 3 1 4 0.34474451D-02 0.23269735D+00 0.30292822D+05 0.30292822D+05 0.30292822D+05 0.12144559D+01  1  2 12 10  6  2       21 0.544864248444D-06 0.100000000000D+01
0.173104830813D-08 0.000000000000D+00 0.000000000000D+00 0.142621188695D-06 0.000000000000D+00  6 4 2 25 24 3 2 4 0.34474451D-02 0.23269735D+00 0.30292822D+05 0.30292822D+05 0.30292822D+05 0.12144559D+01  1  2 12 10  6  2       21 0.117915227945D-05 0.100000000000D+01
0.173134568864D-08 0.000000000000D+00 0.000000000000D+00 0.142621188695D-06 0.000000000000D+00  6 4 1 25 24 3 1 4 0.34474451D-02 0.23389662D+00 0.30292822D+05 0.30292822D+05 0.30292822D+05 0.12144559D+01  1  2 12 10  6  2       21 0.538608963625D-06 0.100000000000D+01
0.173134568864D-08 0.000000000000D+00 0.000000000000D+00 0.142621188695D-06 0.000000000000D+00  6 4 2 25 24 3 2 4 0.34474451D-02 0.23389662D+00 0.30292822D+05 0.30292822D+05 0.30292822D+05 0.12144559D+01  1  2 12 10  6  2       21 0.116828255099D-05 0.100000000000D+01
-.163540433173D-04 0.000000000000D+00 -.175692955539D-05 0.142738113763D-06 0.000000000000D+00  6 4 1 25 24 3 1 4 0.34474451D-02 0.23270523D+00 0.29963676D+05 0.29963676D+05 0.29963676D+05 0.12149536D+01  1  2  5 10  6  2       21 -.515388371305D-02 0.100000000000D+01
-.163540433173D-04 0.000000000000D+00 -.175692955539D-05 0.142738113763D-06 0.000000000000D+00  6 4 2 25 24 3 2 4 0.34474451D-02 0.23270523D+00 0.29963676D+05 0.29963676D+05 0.29963676D+05 0.12149536D+01  1  2  5 10  6  2       21 -.111530007109D-01 0.100000000000D+01
0.383813758040D-05 0.000000000000D+00 0.000000000000D+00 0.142738113763D-06 0.136569535144D-08  6 4 1 25 24 3 1 4 0.34579071D-02 0.23234999D+00 0.30292822D+05 0.30292822D+05 0.30292822D+05 0.12144559D+01  1  2 11 10  6  2       21 0.120639362365D-02 0.100000000000D+01
0.383813758040D-05 0.000000000000D+00 0.000000000000D+00 0.142738113763D-06 0.136569535144D-08  6 4 2 25 24 3 2 4 0.34579071D-02 0.23234999D+00 0.30292822D+05 0.30292822D+05 0.30292822D+05 0.12144559D+01  1  2 11 10  6  2       21 0.260905353077D-02 0.100000000000D+01
  </mgrwgt>
  </event>
  <event>
  6     66 -.45638357E-03 0.12367208E+03 0.75467711E-02 0.11330663E+00
        2 -1    0    0  502    0 0.00000000E+00 0.00000000E+00 0.57071996E+03 0.57072005E+03 0.32000000E+00 0.0000E+00 0.9000E+01
       21 -1    0    0  503  502 0.00000000E+00 0.00000000E+00 -.77934977E+03 0.77935013E+03 0.75000000E+00 0.0000E+00 0.9000E+01
       25  1    1    2    0    0 0.68487304E+02 -.12744161E+03 0.33461698E+03 0.38538993E+03 0.12500000E+03 0.0000E+00 0.9000E+01
       24  1    1    2    0    0 -.85329648E+02 0.41457479E+01 0.18569806E+03 0.21965728E+03 0.80419002E+02 0.0000E+00 0.9000E+01
        1  1    1    2  501    0 0.11010656E+02 0.12652751E+03 -.49668121E+03 0.51266244E+03 0.32000000E+00 0.0000E+00 0.9000E+01
       21  1    1    2  503  501 0.58316883E+01 -.32316502E+01 -.23226364E+03 0.23236052E+03 0.75000000E+00 0.0000E+00 0.9000E+01
#aMCatNLO 2  0  0  2  1 0.66672447D+01 0.00000000D+00  -5  6  0 0.00000000D+00 0.00000000D+00 0.00000000D+00 0.00000000D+00 0.00000000D+00
  <mgrwgt>
 -.7496942379D-01    3    2    0
 0.558719934143105D+03 0.000000000000000D+00 0.000000000000000D+00 0.558719934143105D+03
 0.558719934143105D+03 0.000000000000000D+00 0.000000000000000D+00 -.558719934143105D+03
 0.379131849339327D+03 0.704639840297852D+02 -.128537003716876D+03 0.326541000203032D+03
 0.215325512779373D+03 -.842047358964964D+02 0.352236920051408D+01 0.181093942105047D+03
 0.522982506167509D+03 0.137407518667112D+02 0.125014634516362D+03 -.507634942308079D+03
 0.000000000000000D+00 0.000000000000000D+00 -.000000000000000D+00 -.000000000000000D+00
 0.558776714956439D+03 0.000000000000000D+00 0.000000000000000D+00 0.558776714956439D+03
 0.796006375473500D+03 0.000000000000000D+00 0.000000000000000D+00 -.796006375473500D+03
 0.378399130101622D+03 0.684873026162562D+02 -.127441618902214D+03 0.326541000203032D+03
 0.215778979383798D+03 -.853296486196390D+02 0.414574346118996D+01 0.181093942105047D+03
 0.523281648799752D+03 0.110106576990883D+02 0.126527525604093D+03 -.507634942308079D+03
 0.237323332144766D+03 0.583168830429443D+01 -.323165016306861D+01 -.237229660517061D+03
-.159636394833D-01 0.000000000000D+00 0.000000000000D+00 0.276288842853D-05 0.000000000000D+00  6 2 21 25 24 1 21 4 0.87794090D-01 0.11990276D+00 0.48884805D+05 0.48884805D+05 0.48884805D+05 0.11932531D+01  1  2 13  2  6  2       21 -.112850334986D+01 0.100000000000D+01
-.158221821636D-01 0.000000000000D+00 0.000000000000D+00 0.276288842853D-05 0.000000000000D+00  6 2 21 25 24 1 21 4 0.87794090D-01 0.12026252D+00 0.48884805D+05 0.48884805D+05 0.48884805D+05 0.11932531D+01  1  2 13  2  6  2       21 -.111018325001D+01 0.100000000000D+01
0.306093449529D-01 0.000000000000D+00 0.000000000000D+00 0.276954838466D-05 0.131542422093D-05  6 2 21 25 24 1 21 4 0.87803012D-01 0.11989987D+00 0.48884805D+05 0.48884805D+05 0.48884805D+05 0.11932531D+01  1  2  1  2  6  2       21 0.216371717608D+01 0.100000000000D+01
  </mgrwgt>
  </event>
  <event>
  5     66 0.45638357E-03 0.27482979E+02 0.75467711E-02 0.11605125E+00
        2 -1    0    0  502    0 0.00000000E+00 0.00000000E+00 0.79997455E+03 0.79997461E+03 0.32000000E+00 0.0000E+00 0.9000E+01
       21 -1    0    0  501  502 0.00000000E+00 0.00000000E+00 -.22254024E+02 0.22266658E+02 0.75000000E+00 0.0000E+00 0.9000E+01
       25  1    1    2    0    0 -.16474162E+02 -.31352198E+02 0.23690618E+03 0.27019233E+03 0.12500000E+03 0.0000E+00 0.9000E+01
       24  1    1    2    0    0 -.85063783E+01 0.19897118E+02 0.39991343E+03 0.40849262E+03 0.80419002E+02 0.0000E+00 0.9000E+01
        1  1    1    2  501    0 0.24980540E+02 0.11455080E+02 0.14090091E+03 0.14355632E+03 0.32000000E+00 0.0000E+00 0.9000E+01
#aMCatNLO 1  0  0  1  2 0.11120264D+03 0.00000000D+00  -5  6  0 0.00000000D+00 0.00000000D+00 0.00000000D+00 0.00000000D+00 0.00000000D+00
  <mgrwgt>
 0.3575268633D+00    6    2    0
 0.133446143722772D+03 0.000000000000000D+00 0.000000000000000D+00 0.133446143722772D+03
 0.133446143722772D+03 0.000000000000000D+00 0.000000000000000D+00 -.133446143722772D+03
 0.142066951420686D+03 -.164748398207066D+02 -.313525093039562D+02 -.574771128293257D+02
 0.931408510748050D+02 -.850682298911220D+01 0.198969144269146D+02 0.417102978110731D+02
 0.316844849500537D+02 0.249816628098188D+02 0.114555948770416D+02 0.157668150182526D+02
 0.000000000000000D+00 0.000000000000000D+00 0.000000000000000D+00 0.000000000000000D+00
 0.205435960354697D+03 0.000000000000000D+00 0.000000000000000D+00 0.205435960354697D+03
 0.195355036251879D+03 0.000000000000000D+00 0.000000000000000D+00 -.195355036251879D+03
 0.167844975091064D+03 -.257023980462952D+02 -.926428836921353D+02 -.574771128293257D+02
 0.932321317514408D+02 -.140560368256458D+02 -.169615247491240D+02 0.417102978110731D+02
 0.280552501594475D+02 0.232029255720854D+02 -.358957637681209D+00 0.157668150182526D+02
 0.111658639604625D+03 0.165555092998556D+02 0.109963366078940D+03 0.100809241028175D+02
0.401044837593D-05 0.000000000000D+00 0.000000000000D+00 0.369942964081D-06 0.000000000000D+00  6 2 21 25 24 1 21 2 0.12307398D+00 0.34246728D-02 0.14482099D+05 0.14482099D+05 0.14482099D+05 0.12495659D+01  1  2  2  1  6  1        2 0.140733486512D+00 0.100000000000D+01
-.137393456746D-06 0.211637175201D-06 -.809593980961D-08 0.369942964081D-06 0.000000000000D+00  6 2 21 25 24 1 21 4 0.12307398D+00 0.34246728D-02 0.14482099D+05 0.14482099D+05 0.14482099D+05 0.12495659D+01  1  2  3  1  6  1        2 -.752816121365D-02 0.100000000000D+01
0.459381970031D-06 0.000000000000D+00 0.000000000000D+00 0.369942964081D-06 0.000000000000D+00  6 2 21 25 24 1 21 4 0.12307398D+00 0.34246728D-02 0.14482099D+05 0.14482099D+05 0.14482099D+05 0.12495659D+01  1  2 15  1  6  1        2 0.251707876847D-01 0.100000000000D+01
-.246201295948D-05 0.000000000000D+00 -.357561234627D-05 0.369942964081D-06 0.000000000000D+00  6 2 21 25 24 1 21 4 0.24436174D+00 0.34246728D-02 0.14482099D+05 0.14482099D+05 0.14482099D+05 0.12495659D+01  1  2  5  1  6  1        2 -.484310729142D-01 0.100000000000D+01
0.451323546683D-05 0.000000000000D+00 0.287296838246D-05 0.369942964081D-06 0.000000000000D+00  6 2 21 25 24 1 21 4 0.12307398D+00 0.34246728D-02 0.14482099D+05 0.14482099D+05 0.14482099D+05 0.12495659D+01  1  2  6  1  6  1        2 0.247292447501D+00 0.100000000000D+01
0.304800974935D-07 0.000000000000D+00 -.265445910847D-06 0.369942964081D-06 0.000000000000D+00  6 21 21 25 24 1 -2 4 0.24436174D+00 0.34246728D-02 0.14482099D+05 0.14482099D+05 0.14482099D+05 0.12495659D+01  1  2  5  4  6  1        2 0.289375774963D-03 0.100000000000D+01
  </mgrwgt>
  </event>
  <event>
  6     66 -.45638357E-03 0.40042135E+02 0.75467711E-02 0.12208906E+00
        2 -1    0    0  502    0 0.00000000E+00 0.00000000E+00 0.13201617E+04 0.13201618E+04 0.32000000E+00 0.0000E+00 0.9000E+01
       21 -1    0    0  503  502 0.00000000E+00 0.00000000E+00 -.37286504E+02 0.37294047E+02 0.75000000E+00 0.0000E+00 0.9000E+01
       25  1    1    2    0    0 0.48169209E+02 -.94159236E+01 0.91026736E+03 0.92011988E+03 0.12500000E+03 0.0000E+00 0.9000E+01
       24  1    1    2    0    0 0.70015914E+00 -.11038649E+02 0.22088341E+03 0.23532751E+03 0.80419002E+02 0.0000E+00 0.9000E+01
        1  1    1    2  501    0 -.39857022E+02 0.19915005E+02 0.17312631E+03 0.17876804E+03 0.32000000E+00 0.0000E+00 0.9000E+01
       21  1    1    2  503  501 -.90123466E+01 0.53956704E+00 -.21401854E+02 0.23240382E+02 0.75000000E+00 0.0000E+00 0.9000E+01
#aMCatNLO 2  0  0  2  5 0.90284840D+01 0.00000000D+00  -5  6  0 0.00000000D+00 0.00000000D+00 0.00000000D+00 0.00000000D+00 0.00000000D+00
  <mgrwgt>
 -.2566533066D+00    3    2    0
 0.140455161975843D+03 0.000000000000000D+00 0.000000000000000D+00 0.140455161975843D+03
 0.140455161975843D+03 0.000000000000000D+00 0.000000000000000D+00 -.140455161975843D+03
 0.142245227627639D+03 0.435834007511480D+02 -.914158197675356D+01 0.512408376274814D+02
 0.921011394649195D+02 -.225354467938744D+01 -.108619467267736D+02 -.435010756884098D+02
 0.465639568591285D+02 -.413298560717605D+02 0.200035287035272D+02 -.773976193907160D+01
 0.000000000000000D+00 -.000000000000000D+00 0.000000000000000D+00 -.000000000000000D+00
 0.140624938141123D+03 0.000000000000000D+00 0.000000000000000D+00 0.140624938141123D+03
 0.350072276268210D+03 0.000000000000000D+00 0.000000000000000D+00 -.350072276268210D+03
 0.143734507109152D+03 0.481697100197351D+02 -.941616321861034D+01 0.512408376274814D+02
 0.920972604990783D+02 0.700478722974687D+00 -.110388034031976D+02 -.435010756884098D+02
 0.452236070541459D+02 -.398578421351649D+02 0.199153995802887D+02 -.773976193907160D+01
 0.209641839746957D+03 -.901234660754485D+01 0.539567041519170D+00 -.209447338127086D+03
-.117960036849D-03 0.000000000000D+00 0.000000000000D+00 0.414093602148D-06 0.000000000000D+00  6 2 21 25 24 1 21 4 0.20285622D+00 0.57359658D-02 0.18097198D+05 0.18097198D+05 0.18097198D+05 0.12386349D+01  1  2 13  2  6  2       21 -.130913316891D+01 0.100000000000D+01
-.117811577415D-03 0.000000000000D+00 0.000000000000D+00 0.414093602148D-06 0.000000000000D+00  6 2 21 25 24 1 21 4 0.20285622D+00 0.57483150D-02 0.18097198D+05 0.18097198D+05 0.18097198D+05 0.12386349D+01  1  2 13  2  6  2       21 -.130273301356D+01 0.100000000000D+01
0.212697071088D-03 0.000000000000D+00 0.000000000000D+00 0.416372634262D-06 0.271473063912D-06  6 2 21 25 24 1 21 4 0.20310142D+00 0.57369411D-02 0.18097198D+05 0.18097198D+05 0.18097198D+05 0.12386349D+01  1  2  1  2  6  2       21 0.235521287585D+01 0.100000000000D+01
  </mgrwgt>
  </event>
  <event>
  5     66 0.45638357E-03 0.62016524E+02 0.75467711E-02 0.11586362E+00
        2 -1    0    0  502    0 0.00000000E+00 0.00000000E+00 0.12085387E+03 0.12085430E+03 0.32000000E+00 0.0000E+00 0.9000E+01
       21 -1    0    0  501  502 0.00000000E+00 0.00000000E+00 -.67952759E+03 0.67952801E+03 0.75000000E+00 0.0000E+00 0.9000E+01
       25  1    1    2    0    0 -.92504156E+02 -.49016301E+02 0.18409325E+02 0.16408388E+03 0.12500000E+03 0.0000E+00 0.9000E+01
       24  1    1    2    0    0 0.69006063E+02 0.10882756E+03 -.18681247E+03 0.24077249E+03 0.80419002E+02 0.0000E+00 0.9000E+01
        1  1    1    2  501    0 0.23498093E+02 -.59811255E+02 -.39027057E+03 0.39552594E+03 0.32000000E+00 0.0000E+00 0.9000E+01
#aMCatNLO 1  0  0  2  1 0.33486974D+00 0.00000000D+00  -5  6  0 0.00000000D+00 0.00000000D+00 0.00000000D+00 0.00000000D+00 0.00000000D+00
  <mgrwgt>
 0.1505590904D+00   23    2    0
 0.286572638226991D+03 0.000000000000000D+00 0.000000000000000D+00 0.286572638226991D+03
 0.286572638226991D+03 0.000000000000000D+00 0.000000000000000D+00 -.286572638226991D+03
 0.247083411718065D+03 -.925041735013453D+02 -.490162565885727D+02 0.185649122866539D+03
 0.154136869775428D+03 0.690060517545371D+02 0.108827584356339D+03 -.261854993118455D+02
 0.171924994960488D+03 0.234981217468082D+02 -.598113277677668D+02 -.159463623554693D+03
 0.000000000000000D+00 0.000000000000000D+00 0.000000000000000D+00 -.000000000000000D+00
 0.286623272395485D+03 0.000000000000000D+00 0.000000000000000D+00 0.286623272395485D+03
 0.287126888863041D+03 0.000000000000000D+00 0.000000000000000D+00 -.287126888863041D+03
 0.247123331122056D+03 -.925360874155801D+02 -.491570594071937D+02 0.185649122866539D+03
 0.154065972384297D+03 0.689861492355730D+02 0.108739775297657D+03 -.261854993118455D+02
 0.171956070774251D+03 0.234759152694629D+02 -.599093017918515D+02 -.159463623554693D+03
 0.604786977922206D+00 0.740229105442021D-01 0.326585901387831D+00 -.503616467555955D+00
0.282154909355D-04 0.000000000000D+00 0.000000000000D+00 0.495995334971D-06 0.000000000000D+00  6 2 21 25 24 1 21 2 0.18592968D-01 0.10454277D+00 0.35949269D+05 0.35949269D+05 0.35949269D+05 0.12067378D+01  1  2  2  2  6  2       21 0.112158926886D-01 0.100000000000D+01
0.157490630894D-05 0.148897236387D-05 -.569589469555D-07 0.495995334971D-06 0.000000000000D+00  6 2 21 25 24 1 21 4 0.18592968D-01 0.10454277D+00 0.35949269D+05 0.35949269D+05 0.35949269D+05 0.12067378D+01  1  2  3  2  6  2       21 0.911647152719D-03 0.100000000000D+01
0.270503304141D-05 0.000000000000D+00 0.000000000000D+00 0.495995334971D-06 0.000000000000D+00  6 2 21 25 24 1 21 4 0.18592968D-01 0.10454277D+00 0.35949269D+05 0.35949269D+05 0.35949269D+05 0.12067378D+01  1  2 15  2  6  2       21 0.156583007904D-02 0.100000000000D+01
-.838617359097D-02 0.000000000000D+00 0.000000000000D+00 0.495995334971D-06 0.000000000000D+00  6 2 21 25 24 1 21 4 0.18592968D-01 0.10454277D+00 0.35949269D+05 0.35949269D+05 0.35949269D+05 0.12067378D+01  1  2  4  2  6  2       21 -.485440386709D+01 0.100000000000D+01
-.624045532068D-01 0.000000000000D+00 -.370335343771D-02 0.495995334971D-06 0.000000000000D+00  6 2 21 25 24 1 21 4 0.18592968D-01 0.10475496D+00 0.35949269D+05 0.35949269D+05 0.35949269D+05 0.12067378D+01  1  2  5  2  6  2       21 -.359481380812D+02 0.100000000000D+01
0.624115918776D-01 0.000000000000D+00 0.370332298795D-02 0.495995334971D-06 0.000000000000D+00  6 2 21 25 24 1 21 4 0.18592968D-01 0.10454277D+00 0.35949269D+05 0.35949269D+05 0.35949269D+05 0.12067378D+01  1  2  6  2  6  2       21 0.361274506991D+02 0.100000000000D+01
0.838064024194D-02 0.000000000000D+00 0.000000000000D+00 0.495995334971D-06 0.433156931394D-04  6 2 21 25 24 1 21 4 0.18596253D-01 0.10474496D+00 0.36026385D+05 0.36026385D+05 0.36026385D+05 0.12066421D+01  1  2 11  2  6  2       21 0.482587979661D+01 0.100000000000D+01
-.265175297197D-04 0.000000000000D+00 -.167371857294D-05 0.495995334971D-06 0.000000000000D+00  6 2 -1 25 24 1 -1 4 0.18592968D-01 0.10475496D+00 0.35949269D+05 0.35949269D+05 0.35949269D+05 0.12067378D+01  1  2  5  5  6  2       21 -.177096000862D-02 0.100000000000D+01
0.237078356267D-04 0.000000000000D+00 0.000000000000D+00 0.495995334971D-06 0.120380064000D-06  6 2 -1 25 24 1 -1 4 0.18596253D-01 0.10474496D+00 0.36026385D+05 0.36026385D+05 0.36026385D+05 0.12066421D+01  1  2 11  5  6  2       21 0.158281254759D-02 0.100000000000D+01
-.265175297197D-04 0.000000000000D+00 -.167371857294D-05 0.495995334971D-06 0.000000000000D+00  6 2 1 25 24 1 1 4 0.18592968D-01 0.10475496D+00 0.35949269D+05 0.35949269D+05 0.35949269D+05 0.12067378D+01  1  2  5  6  6  2       21 -.678651856191D-02 0.100000000000D+01
0.102161070581D-04 0.000000000000D+00 0.000000000000D+00 0.495995334971D-06 0.163729572056D-07  6 2 1 25 24 1 1 4 0.18596253D-01 0.10474496D+00 0.36026385D+05 0.36026385D+05 0.36026385D+05 0.12066421D+01  1  2 11  6  6  2       21 0.261354325811D-02 0.100000000000D+01
-.265175297197D-04 0.000000000000D+00 -.167371857294D-05 0.495995334971D-06 0.000000000000D+00  6 2 -2 25 24 1 -2 4 0.18592968D-01 0.10475496D+00 0.35949269D+05 0.35949269D+05 0.35949269D+05 0.12067378D+01  1  2  5  7  6  2       21 -.131217612523D-02 0.100000000000D+01
0.103173988822D-04 0.000000000000D+00 0.000000000000D+00 0.495995334971D-06 0.330465029788D-07  6 2 -2 25 24 1 -2 4 0.18596253D-01 0.10474496D+00 0.36026385D+05 0.36026385D+05 0.36026385D+05 0.12066421D+01  1  2 11  7  6  2       21 0.510388628608D-03 0.100000000000D+01
-.265175297197D-04 0.000000000000D+00 -.167371857294D-05 0.495995334971D-06 0.000000000000D+00  6 2 2 25 24 1 2 4 0.18592968D-01 0.10475496D+00 0.35949269D+05 0.35949269D+05 0.35949269D+05 0.12067378D+01  1  2  5  8  6  2       21 -.113540888853D-01 0.100000000000D+01
0.103550976939D-04 0.000000000000D+00 0.000000000000D+00 0.495995334971D-06 0.340842895796D-07  6 2 2 25 24 1 2 4 0.18596253D-01 0.10474496D+00 0.36026385D+05 0.36026385D+05 0.36026385D+05 0.12066421D+01  1  2 11  8  6  2       21 0.443198698775D-02 0.100000000000D+01
-.265175297197D-04 0.000000000000D+00 -.167371857294D-05 0.495995334971D-06 0.000000000000D+00  6 2 -3 25 24 1 -3 4 0.18592968D-01 0.10475496D+00 0.35949269D+05 0.35949269D+05 0.35949269D+05 0.12067378D+01  1  2  5  9  6  2       21 -.834098200617D-03 0.100000000000D+01
-.265175297197D-04 0.000000000000D+00 -.167371857294D-05 0.495995334971D-06 0.000000000000D+00  6 2 -4 25 24 1 -4 4 0.18592968D-01 0.10475496D+00 0.35949269D+05 0.35949269D+05 0.35949269D+05 0.12067378D+01  1  2  5  9  6  2       21 -.668874962548D-03 0.100000000000D+01
0.103170744851D-04 0.000000000000D+00 0.000000000000D+00 0.495995334971D-06 0.330454639388D-07  6 2 -3 25 24 1 -3 4 0.18596253D-01 0.10474496D+00 0.36026385D+05 0.36026385D+05 0.36026385D+05 0.12066421D+01  1  2 11  9  6  2       21 0.324434724952D-03 0.100000000000D+01
0.103170744851D-04 0.000000000000D+00 0.000000000000D+00 0.495995334971D-06 0.330454639388D-07  6 2 -4 25 24 1 -4 4 0.18596253D-01 0.10474496D+00 0.36026385D+05 0.36026385D+05 0.36026385D+05 0.12066421D+01  1  2 11  9  6  2       21 0.260175278613D-03 0.100000000000D+01
-.265175297197D-04 0.000000000000D+00 -.167371857294D-05 0.495995334971D-06 0.000000000000D+00  6 2 3 25 24 1 3 4 0.18592968D-01 0.10475496D+00 0.35949269D+05 0.35949269D+05 0.35949269D+05 0.12067378D+01  1  2  5 10  6  2       21 -.835879240615D-03 0.100000000000D+01
-.265175297197D-04 0.000000000000D+00 -.167371857294D-05 0.495995334971D-06 0.000000000000D+00  6 2 4 25 24 1 4 4 0.18592968D-01 0.10475496D+00 0.35949269D+05 0.35949269D+05 0.35949269D+05 0.12067378D+01  1  2  5 10  6  2       21 -.668874962548D-03 0.100000000000D+01
0.103170744851D-04 0.000000000000D+00 0.000000000000D+00 0.495995334971D-06 0.330454639388D-07  6 2 3 25 24 1 3 4 0.18596253D-01 0.10474496D+00 0.36026385D+05 0.36026385D+05 0.36026385D+05 0.12066421D+01  1  2 11 10  6  2       21 0.325127375185D-03 0.100000000000D+01
0.103170744851D-04 0.000000000000D+00 0.000000000000D+00 0.495995334971D-06 0.330454639388D-07  6 2 4 25 24 1 4 4 0.18596253D-01 0.10474496D+00 0.36026385D+05 0.36026385D+05 0.36026385D+05 0.12066421D+01  1  2 11 10  6  2       21 0.260175278613D-03 0.100000000000D+01
  </mgrwgt>
  </event>
  <event>
  5     66 0.45638357E-03 0.40386046E+02 0.75467711E-02 0.11525163E+00
        2 -1    0    0  502    0 0.00000000E+00 0.00000000E+00 0.12385220E+03 0.12385262E+03 0.32000000E+00 0.0000E+00 0.9000E+01
       21 -1    0    0  501  502 0.00000000E+00 0.00000000E+00 -.21952549E+03 0.21952677E+03 0.75000000E+00 0.0000E+00 0.9000E+01
       25  1    1    2    0    0 0.32539218E+02 -.64398351E+02 0.43555259E+02 0.15075811E+03 0.12500000E+03 0.0000E+00 0.9000E+01
       24  1    1    2    0    0 -.19505432E+02 0.26173722E+02 -.66153972E+02 0.10912878E+03 0.80419002E+02 0.0000E+00 0.9000E+01
        1  1    1    2  501    0 -.13033786E+02 0.38224628E+02 -.73074569E+02 0.83492496E+02 0.32000000E+00 0.0000E+00 0.9000E+01
#aMCatNLO 1  0  0  2  5 0.68116137D+01 0.00000000D+00  -5  6  0 0.00000000D+00 0.00000000D+00 0.00000000D+00 0.00000000D+00 0.00000000D+00
  <mgrwgt>
 0.1322946969D+00   14    2    0
 0.164890891869849D+03 0.000000000000000D+00 0.000000000000000D+00 0.164890891869849D+03
 0.164890891869849D+03 0.000000000000000D+00 0.000000000000000D+00 -.164890891869849D+03
 0.169610313892794D+03 0.325392972624834D+02 -.643985834637135D+02 0.890880191739781D+02
 0.944362845237313D+02 -.195053879308159D+02 0.261735927634984D+02 -.372220198779637D+02
 0.657351853231725D+02 -.130339093316675D+02 0.382249907002152D+02 -.518659992960144D+02
 0.000000000000000D+00 -.000000000000000D+00 -.000000000000000D+00 -.000000000000000D+00
 0.218499305335077D+03 0.000000000000000D+00 0.000000000000000D+00 0.218499305335077D+03
 0.230039176732976D+03 0.000000000000000D+00 0.000000000000000D+00 -.230039176732976D+03
 0.179697492352740D+03 0.819018588249585D+02 -.449621965492835D+02 0.890880191739781D+02
 0.962342254765838D+02 0.743928556274826D+01 0.367829915209165D+02 -.372220198779637D+02
 0.694228487645471D+02 0.606599813970604D+01 0.457455321772530D+02 -.518659992960144D+02
 0.103183915474183D+03 -.954071425274128D+02 -.375663271488860D+02 -.115398713978995D+02
0.163013956667D-04 0.000000000000D+00 0.000000000000D+00 0.698063432118D-06 0.000000000000D+00  6 2 21 25 24 1 21 2 0.19054316D-01 0.33773282D-01 0.18428984D+05 0.18428984D+05 0.18428984D+05 0.12377567D+01  1  2  2  2  6  2       21 0.757950553831D-01 0.100000000000D+01
0.337229469169D-06 0.860248283318D-06 -.329078212107D-07 0.698063432118D-06 0.000000000000D+00  6 2 21 25 24 1 21 4 0.19054316D-01 0.33773282D-01 0.18428984D+05 0.18428984D+05 0.18428984D+05 0.12377567D+01  1  2  3  2  6  2       21 0.240221671812D-02 0.100000000000D+01
0.152921906139D-05 0.000000000000D+00 0.000000000000D+00 0.698063432118D-06 0.000000000000D+00  6 2 21 25 24 1 21 4 0.19054316D-01 0.33773282D-01 0.18428984D+05 0.18428984D+05 0.18428984D+05 0.12377567D+01  1  2 15  2  6  2       21 0.108932223628D-01 0.100000000000D+01
-.199159760910D-05 0.000000000000D+00 0.000000000000D+00 0.698063432118D-06 0.000000000000D+00  6 2 21 25 24 1 21 4 0.19054316D-01 0.33773282D-01 0.18428984D+05 0.18428984D+05 0.18428984D+05 0.12377567D+01  1  2  4  2  6  2       21 -.141869246603D-01 0.100000000000D+01
-.249560321574D-04 0.000000000000D+00 -.193283100381D-04 0.698063432118D-06 0.000000000000D+00  6 2 21 25 24 1 21 4 0.19054316D-01 0.60761601D-01 0.18428984D+05 0.18428984D+05 0.18428984D+05 0.12377567D+01  1  2  5  2  6  2       21 -.536744882294D-01 0.100000000000D+01
0.172199653030D-04 0.000000000000D+00 0.105282641681D-04 0.698063432118D-06 0.000000000000D+00  6 2 21 25 24 1 21 4 0.19054316D-01 0.33773282D-01 0.18428984D+05 0.18428984D+05 0.18428984D+05 0.12377567D+01  1  2  6  2  6  2       21 0.122664512797D+00 0.100000000000D+01
-.526877229923D-05 0.000000000000D+00 -.402717188989D-05 0.698063432118D-06 0.000000000000D+00  6 2 -1 25 24 1 -1 4 0.19054316D-01 0.60761601D-01 0.18428984D+05 0.18428984D+05 0.18428984D+05 0.12377567D+01  1  2  5  5  6  2       21 -.116317753795D-02 0.100000000000D+01
-.526877229923D-05 0.000000000000D+00 -.402717188989D-05 0.698063432118D-06 0.000000000000D+00  6 2 1 25 24 1 1 4 0.19054316D-01 0.60761601D-01 0.18428984D+05 0.18428984D+05 0.18428984D+05 0.12377567D+01  1  2  5  6  6  2       21 -.298676473893D-02 0.100000000000D+01
-.526877229923D-05 0.000000000000D+00 -.402717188989D-05 0.698063432118D-06 0.000000000000D+00  6 2 -2 25 24 1 -2 4 0.19054316D-01 0.60761601D-01 0.18428984D+05 0.18428984D+05 0.18428984D+05 0.12377567D+01  1  2  5  7  6  2       21 -.923439051951D-03 0.100000000000D+01
-.526877229923D-05 0.000000000000D+00 -.402717188989D-05 0.698063432118D-06 0.000000000000D+00  6 2 2 25 24 1 2 4 0.19054316D-01 0.60761601D-01 0.18428984D+05 0.18428984D+05 0.18428984D+05 0.12377567D+01  1  2  5  8  6  2       21 -.443900063492D-02 0.100000000000D+01
-.526877229923D-05 0.000000000000D+00 -.402717188989D-05 0.698063432118D-06 0.000000000000D+00  6 2 -3 25 24 1 -3 4 0.19054316D-01 0.60761601D-01 0.18428984D+05 0.18428984D+05 0.18428984D+05 0.12377567D+01  1  2  5  9  6  2       21 -.574955891494D-03 0.100000000000D+01
-.526877229923D-05 0.000000000000D+00 -.402717188989D-05 0.698063432118D-06 0.000000000000D+00  6 2 -4 25 24 1 -4 4 0.19054316D-01 0.60761601D-01 0.18428984D+05 0.18428984D+05 0.18428984D+05 0.12377567D+01  1  2  5  9  6  2       21 -.468103098579D-03 0.100000000000D+01
-.526877229923D-05 0.000000000000D+00 -.402717188989D-05 0.698063432118D-06 0.000000000000D+00  6 2 3 25 24 1 3 4 0.19054316D-01 0.60761601D-01 0.18428984D+05 0.18428984D+05 0.18428984D+05 0.12377567D+01  1  2  5 10  6  2       21 -.575353372929D-03 0.100000000000D+01
-.526877229923D-05 0.000000000000D+00 -.402717188989D-05 0.698063432118D-06 0.000000000000D+00  6 2 4 25 24 1 4 4 0.19054316D-01 0.60761601D-01 0.18428984D+05 0.18428984D+05 0.18428984D+05 0.12377567D+01  1  2  5 10  6  2       21 -.468103098579D-03 0.100000000000D+01
  </mgrwgt>
  </event>
  <event>
  5     66 0.45638357E-03 0.74656173E+02 0.75467711E-02 0.11169721E+00
        2 -1    0    0  502    0 0.00000000E+00 0.00000000E+00 0.32447450E+04 0.32447450E+04 0.32000000E+00 0.0000E+00 0.9000E+01
       21 -1    0    0  501  502 0.00000000E+00 0.00000000E+00 -.20641648E+02 0.20655269E+02 0.75000000E+00 0.0000E+00 0.9000E+01
       25  1    1    2    0    0 -.54547738E+01 -.13625696E+03 0.23752221E+04 0.23824149E+04 0.12500000E+03 0.0000E+00 0.9000E+01
       24  1    1    2    0    0 0.79241533E+02 0.12489930E+03 0.59187959E+03 0.61535983E+03 0.80419002E+02 0.0000E+00 0.9000E+01
        1  1    1    2  501    0 -.73786759E+02 0.11357658E+02 0.25700163E+03 0.26762552E+03 0.32000000E+00 0.0000E+00 0.9000E+01
#aMCatNLO 1  0  0  1  2 0.57155871D+02 0.00000000D+00  -5  6  0 0.00000000D+00 0.00000000D+00 0.00000000D+00 0.00000000D+00 0.00000000D+00
  <mgrwgt>
 0.5352353515D+00    9    2    0
 0.258841937994616D+03 0.000000000000000D+00 0.000000000000000D+00 0.258841937994616D+03
 0.258841937994616D+03 0.000000000000000D+00 0.000000000000000D+00 -.258841937994616D+03
 0.234847567252491D+03 -.545455001405217D+01 -.136256992633470D+03 0.144681234743971D+03
 0.195322278203938D+03 0.792417188674189D+02 0.124899271545872D+03 -.990176669420847D+02
 0.875140305328031D+02 -.737871688533667D+02 0.113577210875975D+02 -.456635678018864D+02
 0.000000000000000D+00 -.000000000000000D+00 0.000000000000000D+00 0.000000000000000D+00
 0.306601686041972D+03 0.000000000000000D+00 0.000000000000000D+00 0.306601686041972D+03
 0.278097218484581D+03 0.000000000000000D+00 0.000000000000000D+00 -.278097218484581D+03
 0.235805362433255D+03 0.204474050525887D+02 -.136485943935095D+03 0.144681234743971D+03
 0.205135736451419D+03 0.101280560755867D+03 0.124704466886390D+03 -.990176669420847D+02
 0.798884212563180D+02 -.645743274774881D+02 0.112762873881238D+02 -.456635678018864D+02
 0.638693843855615D+02 -.571536383309680D+02 0.505189660581489D+00 0.285044675573910D+02
0.537683702663D-04 0.000000000000D+00 0.000000000000D+00 0.102793753900D-06 0.000000000000D+00  6 2 21 25 24 1 21 2 0.49919258D+00 0.31766872D-02 0.45797751D+05 0.45797751D+05 0.45797751D+05 0.11960761D+01  1  2  2  1  6  1        2 0.857273090289D-01 0.100000000000D+01
-.117205858839D-05 0.283743485307D-05 -.108542848214D-06 0.102793753900D-06 0.000000000000D+00  6 2 21 25 24 1 21 4 0.49919258D+00 0.31766872D-02 0.45797751D+05 0.45797751D+05 0.45797751D+05 0.11960761D+01  1  2  3  1  6  1        2 -.267337138308D-02 0.100000000000D+01
0.512332882646D-05 0.000000000000D+00 0.000000000000D+00 0.102793753900D-06 0.000000000000D+00  6 2 21 25 24 1 21 4 0.49919258D+00 0.31766872D-02 0.45797751D+05 0.45797751D+05 0.45797751D+05 0.11960761D+01  1  2 15  1  6  1        2 0.116859010347D-01 0.100000000000D+01
0.118988710117D-03 0.000000000000D+00 0.000000000000D+00 0.100855885545D-06 0.000000000000D+00  6 2 21 25 24 1 21 4 0.60727579D+00 0.31766872D-02 0.59674170D+05 0.59674170D+05 0.59674170D+05 0.11847483D+01  1  2 12  1  6  1        2 0.857473060800D-01 0.100000000000D+01
-.198517645460D-04 0.000000000000D+00 0.000000000000D+00 0.102793753900D-06 0.000000000000D+00  6 2 21 25 24 1 21 4 0.49919258D+00 0.31766872D-02 0.45797751D+05 0.45797751D+05 0.45797751D+05 0.11960761D+01  1  2  4  1  6  1        2 -.452802784492D-01 0.100000000000D+01
-.260473658114D-03 0.000000000000D+00 -.657047698086D-04 0.102793753900D-06 0.000000000000D+00  6 2 21 25 24 1 21 4 0.60073430D+00 0.31766872D-02 0.45797751D+05 0.45797751D+05 0.45797751D+05 0.11960761D+01  1  2  5  1  6  1        2 -.213682028773D+00 0.100000000000D+01
0.269123484410D-03 0.000000000000D+00 0.645943102879D-04 0.102793753900D-06 0.000000000000D+00  6 2 21 25 24 1 21 4 0.49919258D+00 0.31766872D-02 0.45797751D+05 0.45797751D+05 0.45797751D+05 0.11960761D+01  1  2  6  1  6  1        2 0.613849025011D+00 0.100000000000D+01
0.335250713085D-05 0.000000000000D+00 0.000000000000D+00 0.100855885545D-06 0.000000000000D+00  6 21 21 25 24 1 -2 4 0.60727579D+00 0.31766872D-02 0.59674170D+05 0.59674170D+05 0.59674170D+05 0.11847483D+01  1  2 12  4  6  1        2 0.105258259668D-03 0.100000000000D+01
-.636079464896D-05 0.000000000000D+00 -.177154032659D-05 0.102793753900D-06 0.000000000000D+00  6 21 21 25 24 1 -2 4 0.60073430D+00 0.31766872D-02 0.45797751D+05 0.45797751D+05 0.45797751D+05 0.11960761D+01  1  2  5  4  6  1        2 -.243769341673D-03 0.100000000000D+01
  </mgrwgt>
  </event>
  <event>
  5     66 0.45638357E-03 0.23545086E+02 0.75467711E-02 0.12222218E+00
        2 -1    0    0  502    0 0.00000000E+00 0.00000000E+00 0.38110268E+03 0.38110282E+03 0.32000000E+00 0.0000E+00 0.9000E+01
       21 -1    0    0  501  502 0.00000000E+00 0.00000000E+00 -.43159255E+02 0.43165771E+02 0.75000000E+00 0.0000E+00 0.9000E+01
       25  1    1    2    0    0 0.14735568E+02 0.52939673E+02 0.16249191E+03 0.21224601E+03 0.12500000E+03 0.0000E+00 0.9000E+01
       24  1    1    2    0    0 0.74224965E+01 -.44982165E+02 0.11775270E+03 0.14970438E+03 0.80419002E+02 0.0000E+00 0.9000E+01
        1  1    1    2  501    0 -.22158064E+02 -.79575080E+01 0.57698821E+02 0.62318200E+02 0.32000000E+00 0.0000E+00 0.9000E+01
#aMCatNLO 1  0  0  1  2 0.14314505D+02 0.00000000D+00  -5  6  0 0.00000000D+00 0.00000000D+00 0.00000000D+00 0.00000000D+00 0.00000000D+00
  <mgrwgt>
 0.3261260645D+00    9    2    0
 0.128255676606974D+03 0.000000000000000D+00 0.000000000000000D+00 0.128255676606974D+03
 0.128255676606974D+03 0.000000000000000D+00 0.000000000000000D+00 -.128255676606974D+03
 0.136977571759653D+03 0.147363950738626D+02 0.529399699558677D+02 -.108652384451391D+02
 0.924758513814549D+02 0.742305524451480D+01 -.449819640928944D+02 -.246744635946423D+01
 0.270579300728392D+02 -.221594503183774D+02 -.795800586297339D+01 0.133326848046034D+02
 0.000000000000000D+00 -.000000000000000D+00 -.000000000000000D+00 0.000000000000000D+00
 0.143731375716099D+03 0.000000000000000D+00 0.000000000000000D+00 0.143731375716099D+03
 0.131808574000245D+03 0.000000000000000D+00 0.000000000000000D+00 -.131808574000245D+03
 0.140192956828619D+03 0.152481515429024D+02 0.606506851767240D+02 -.108652384451391D+02
 0.901424752294863D+02 0.776023434679659D+01 -.399016335188671D+02 -.246744635946423D+01
 0.265750180641515D+02 -.220604246091775D+02 -.646596992522185D+01 0.133326848046034D+02
 0.186294995940865D+02 -.947961280521499D+00 -.142830817326351D+02 0.119228017158538D+02
0.903706489328D-06 0.000000000000D+00 0.000000000000D+00 0.517854827140D-06 0.000000000000D+00  6 2 21 25 24 1 21 2 0.58631694D-01 0.66403969D-02 0.15943353D+05 0.15943353D+05 0.15943353D+05 0.12448141D+01  1  2  2  1  6  1        2 0.239726478438D-01 0.100000000000D+01
-.970253701618D-08 0.476899016479D-07 -.182432303257D-08 0.517854827140D-06 0.000000000000D+00  6 2 21 25 24 1 21 4 0.58631694D-01 0.66403969D-02 0.15943353D+05 0.15943353D+05 0.15943353D+05 0.12448141D+01  1  2  3  1  6  1        2 -.398825486509D-03 0.100000000000D+01
0.928036482241D-07 0.000000000000D+00 0.000000000000D+00 0.517854827140D-06 0.000000000000D+00  6 2 21 25 24 1 21 4 0.58631694D-01 0.66403969D-02 0.15943353D+05 0.15943353D+05 0.15943353D+05 0.12448141D+01  1  2 15  1  6  1        2 0.381471980896D-02 0.100000000000D+01
0.780917846916D-05 0.000000000000D+00 0.000000000000D+00 0.513285431421D-06 0.000000000000D+00  6 2 21 25 24 1 21 4 0.66452303D-01 0.66403969D-02 0.17846687D+05 0.17846687D+05 0.17846687D+05 0.12393100D+01  1  2 12  1  6  1        2 0.276504892015D+00 0.100000000000D+01
-.154033429332D-05 0.000000000000D+00 0.000000000000D+00 0.517854827140D-06 0.000000000000D+00  6 2 21 25 24 1 21 4 0.58631694D-01 0.66403969D-02 0.15943353D+05 0.15943353D+05 0.15943353D+05 0.12448141D+01  1  2  4  1  6  1        2 -.633158701583D-01 0.100000000000D+01
-.162480850023D-04 0.000000000000D+00 -.276865542634D-05 0.517854827140D-06 0.000000000000D+00  6 2 21 25 24 1 21 4 0.67062390D-01 0.66403969D-02 0.15943353D+05 0.15943353D+05 0.15943353D+05 0.12448141D+01  1  2  5  1  6  1        2 -.578613813351D+00 0.100000000000D+01
0.164957548613D-04 0.000000000000D+00 0.274385571034D-05 0.517854827140D-06 0.000000000000D+00  6 2 21 25 24 1 21 4 0.58631694D-01 0.66403969D-02 0.15943353D+05 0.15943353D+05 0.15943353D+05 0.12448141D+01  1  2  6  1  6  1        2 0.678062598155D+00 0.100000000000D+01
0.153540527878D-06 0.000000000000D+00 0.000000000000D+00 0.513285431421D-06 0.000000000000D+00  6 21 21 25 24 1 -2 4 0.66452303D-01 0.66403969D-02 0.17846687D+05 0.17846687D+05 0.17846687D+05 0.12393100D+01  1  2 12  4  6  1        2 0.126162918547D-01 0.100000000000D+01
-.322960327938D-06 0.000000000000D+00 -.577149320315D-07 0.517854827140D-06 0.000000000000D+00  6 21 21 25 24 1 -2 4 0.67062390D-01 0.66403969D-02 0.15943353D+05 0.15943353D+05 0.15943353D+05 0.12448141D+01  1  2  5  4  6  1        2 -.265165761897D-01 0.100000000000D+01
  </mgrwgt>
  </event>
  <event>
  5     66 -.45638357E-03 0.20497777E+02 0.75467711E-02 0.10695185E+00
        2 -1    0    0  502    0 0.00000000E+00 0.00000000E+00 0.31780300E+04 0.31780300E+04 0.32000000E+00 0.0000E+00 0.9000E+01
       21 -1    0    0  501  502 0.00000000E+00 0.00000000E+00 -.93964810E+01 0.94263649E+01 0.75000000E+00 0.0000E+00 0.9000E+01
       25  1    1    2    0    0 -.15561524E+02 0.30118609E+02 0.24995472E+04 0.25029005E+04 0.12500000E+03 0.0000E+00 0.9000E+01
       24  1    1    2    0    0 0.12007330E+02 -.99314050E+01 0.65398230E+03 0.65909246E+03 0.80419002E+02 0.0000E+00 0.9000E+01
        1  1    1    2  501    0 0.35541938E+01 -.20187204E+02 0.15103988E+02 0.25463471E+02 0.32000000E+00 0.0000E+00 0.9000E+01
#aMCatNLO 1  0  0  2  1 0.11038968D+03 0.00000000D+00  -5  6  0 0.00000000D+00 0.00000000D+00 0.00000000D+00 0.00000000D+00 0.00000000D+00
  <mgrwgt>
 -.1936588375D+00   12    2    0
 0.172944935762948D+03 0.000000000000000D+00 0.000000000000000D+00 0.172944935762948D+03
 0.172944935762948D+03 0.000000000000000D+00 0.000000000000000D+00 -.172944935762948D+03
 0.166922850642707D+03 -.155615336591680D+02 0.301186632606347D+02 0.105304049590956D+03
 0.826801598858545D+02 0.120073257029764D+02 -.993137838844347D+01 -.112242922782744D+02
 0.962868609973345D+02 0.355420795619159D+01 -.201872848721913D+02 -.940797573126820D+02
 0.000000000000000D+00 0.000000000000000D+00 -.000000000000000D+00 -.000000000000000D+00
 0.254327238778993D+03 0.000000000000000D+00 0.000000000000000D+00 0.254327238778993D+03
 0.940226574127476D+03 0.000000000000000D+00 0.000000000000000D+00 -.940226574127476D+03
 0.235095123538991D+03 -.158315651766389D+03 0.590925431619108D+02 0.105304049590956D+03
 0.962064652137097D+02 -.515142182261106D+02 0.296117847329727D+01 -.112242922782744D+02
 0.119134676777998D+03 -.729406594910036D+02 -.466161645809767D+01 -.940797573126820D+02
 0.744117547375770D+03 0.282770529483503D+03 -.573921051771104D+02 -.685899335348483D+03
0.159033714483D-04 0.000000000000D+00 0.000000000000D+00 0.587560638843D-05 0.000000000000D+00  6 2 21 25 24 1 21 2 0.48892999D+00 0.14479125D-02 0.13447665D+05 0.13447665D+05 0.13447665D+05 0.12532678D+01  1  2  2  2  6  2       21 0.115200532164D+00 0.100000000000D+01
0.317940577140D-05 0.839243968255D-06 -.321043249898D-07 0.587560638843D-05 0.000000000000D+00  6 2 21 25 24 1 21 4 0.48892999D+00 0.14479125D-02 0.13447665D+05 0.13447665D+05 0.13447665D+05 0.12532678D+01  1  2  3  2  6  2       21 0.361742053582D-01 0.100000000000D+01
0.148792324917D-05 0.000000000000D+00 0.000000000000D+00 0.587560638843D-05 0.000000000000D+00  6 2 21 25 24 1 21 4 0.48892999D+00 0.14479125D-02 0.13447665D+05 0.13447665D+05 0.13447665D+05 0.12532678D+01  1  2 15  2  6  2       21 0.169290883400D-01 0.100000000000D+01
-.168055649688D-02 0.000000000000D+00 -.630664316795D-03 0.587560638843D-05 0.000000000000D+00  6 2 21 25 24 1 21 4 0.48892999D+00 0.17359598D-01 0.13447665D+05 0.13447665D+05 0.13447665D+05 0.12532678D+01  1  2  5  2  6  2       21 -.290866454647D+00 0.100000000000D+01
-.745803953649D-03 0.000000000000D+00 -.277136175314D-03 0.587560638843D-05 0.000000000000D+00  6 2 -1 25 24 1 -1 4 0.48892999D+00 0.17359598D-01 0.13447665D+05 0.13447665D+05 0.13447665D+05 0.12532678D+01  1  2  5  5  6  2       21 -.968218735617D-02 0.100000000000D+01
-.745803953649D-03 0.000000000000D+00 -.277136175314D-03 0.587560638843D-05 0.000000000000D+00  6 2 1 25 24 1 1 4 0.48892999D+00 0.17359598D-01 0.13447665D+05 0.13447665D+05 0.13447665D+05 0.12532678D+01  1  2  5  6  6  2       21 -.139266400890D-01 0.100000000000D+01
-.745803953649D-03 0.000000000000D+00 -.277136175314D-03 0.587560638843D-05 0.000000000000D+00  6 2 -2 25 24 1 -2 4 0.48892999D+00 0.17359598D-01 0.13447665D+05 0.13447665D+05 0.13447665D+05 0.12532678D+01  1  2  5  7  6  2       21 -.895388098600D-02 0.100000000000D+01
-.745803953649D-03 0.000000000000D+00 -.277136175314D-03 0.587560638843D-05 0.000000000000D+00  6 2 2 25 24 1 2 4 0.48892999D+00 0.17359598D-01 0.13447665D+05 0.13447665D+05 0.13447665D+05 0.12532678D+01  1  2  5  8  6  2       21 -.168676412222D-01 0.100000000000D+01
-.745803953649D-03 0.000000000000D+00 -.277136175314D-03 0.587560638843D-05 0.000000000000D+00  6 2 -3 25 24 1 -3 4 0.48892999D+00 0.17359598D-01 0.13447665D+05 0.13447665D+05 0.13447665D+05 0.12532678D+01  1  2  5  9  6  2       21 -.584603873727D-02 0.100000000000D+01
-.745803953649D-03 0.000000000000D+00 -.277136175314D-03 0.587560638843D-05 0.000000000000D+00  6 2 -4 25 24 1 -4 4 0.48892999D+00 0.17359598D-01 0.13447665D+05 0.13447665D+05 0.13447665D+05 0.12532678D+01  1  2  5  9  6  2       21 -.498723521277D-02 0.100000000000D+01
-.745803953649D-03 0.000000000000D+00 -.277136175314D-03 0.587560638843D-05 0.000000000000D+00  6 2 3 25 24 1 3 4 0.48892999D+00 0.17359598D-01 0.13447665D+05 0.13447665D+05 0.13447665D+05 0.12532678D+01  1  2  5 10  6  2       21 -.584534989375D-02 0.100000000000D+01
-.745803953649D-03 0.000000000000D+00 -.277136175314D-03 0.587560638843D-05 0.000000000000D+00  6 2 4 25 24 1 4 4 0.48892999D+00 0.17359598D-01 0.13447665D+05 0.13447665D+05 0.13447665D+05 0.12532678D+01  1  2  5 10  6  2       21 -.498723521277D-02 0.100000000000D+01
  </mgrwgt>
  </event>
  <event>
  6     66 -.45638357E-03 0.97988223E+01 0.75467711E-02 0.12501867E+00
        2 -1    0    0  502    0 0.00000000E+00 0.00000000E+00 0.88642858E+03 0.88642864E+03 0.32000000E+00 0.0000E+00 0.9000E+01
       21 -1    0    0  501  502 0.00000000E+00 0.00000000E+00 -.16030287E+02 0.16047823E+02 0.75000000E+00 0.0000E+00 0.9000E+01
       25  1    1    2    0    0 0.40574820E+01 0.81374870E+01 0.46809901E+03 0.48458680E+03 0.12500000E+03 0.0000E+00 0.9000E+01
       24  1    1    2    0    0 -.50141279E+01 -.26090099E+02 0.35535177E+03 0.36530526E+03 0.80419002E+02 0.0000E+00 0.9000E+01
        1  1    1    2  503    0 0.44744172E+01 0.56553929E+01 0.51501375E+01 0.88673668E+01 0.32000000E+00 0.0000E+00 0.9000E+01
       21  1    1    2  501  503 -.35177713E+01 0.12297219E+02 0.41797371E+02 0.43717034E+02 0.75000000E+00 0.0000E+00 0.9000E+01
#aMCatNLO 2  0  0  5  2 0.76925863D+01 0.00000000D+00  -5  6  0 0.00000000D+00 0.00000000D+00 0.00000000D+00 0.00000000D+00 0.00000000D+00
  <mgrwgt>
 -.3572206624D+00    1    2    0
 0.119237760089557D+03 0.000000000000000D+00 0.000000000000000D+00 0.119237760089557D+03
 0.119237760089557D+03 -.000000000000000D+00 -.000000000000000D+00 -.119237760089557D+03
 0.125290497389366D+03 0.395345806764665D+01 0.618535191376443D+01 0.433824009074037D+01
 0.860366055116306D+02 -.508530436895764D+01 -.274258108454540D+02 0.125318040416312D+02
 0.271484172781167D+02 0.113184630131099D+01 0.212404589316896D+02 -.168700441323716D+02
 0.000000000000000D+00 0.000000000000000D+00 0.000000000000000D+00 0.000000000000000D+00
 0.119237760089557D+03 0.000000000000000D+00 0.000000000000000D+00 0.119237760089557D+03
 0.119237760089557D+03 -.000000000000000D+00 -.000000000000000D+00 -.119237760089557D+03
 0.125360977884290D+03 0.405713993270430D+01 0.813106697610729D+01 0.279287334154211D+01
 0.854689616316002D+02 -.501436117163648D+01 -.260944763105109D+02 0.114744035197465D+02
 0.143053927419032D+02 0.446715806269450D+01 0.520799738060635D+01 -.125525106503280D+02
 0.133401879213199D+02 -.350993682376231D+01 0.127554119537973D+02 -.171476621096062D+01
-.428940313363D-05 0.000000000000D+00 0.000000000000D+00 0.188226604236D-05 0.000000000000D+00  6 2 21 25 24 1 21 4 0.13637498D+00 0.24675514D-02 0.13238344D+05 0.13238344D+05 0.13238344D+05 0.12540558D+01  1  2 13  3  6  5        1 -.357220662401D+00 0.100000000000D+01
  </mgrwgt>
  </event>
  <event>
  5     66 0.45638357E-03 0.61485571E+02 0.75467711E-02 0.10279495E+00
        2 -1    0    0  502    0 0.00000000E+00 0.00000000E+00 0.10519143E+03 0.10519192E+03 0.32000000E+00 0.0000E+00 0.9000E+01
       21 -1    0    0  501  502 0.00000000E+00 0.00000000E+00 -.53297127E+03 0.53297180E+03 0.75000000E+00 0.0000E+00 0.9000E+01
       25  1    1    2    0    0 -.72520149E+02 0.54750990E+02 0.13310834E+02 0.15510971E+03 0.12500000E+03 0.0000E+00 0.9000E+01
       24  1    1    2    0    0 0.30016147E+02 -.99178592E+02 -.34370250E+03 0.36788040E+03 0.80419002E+02 0.0000E+00 0.9000E+01
        1  1    1    2  501    0 0.42504001E+02 0.44427602E+02 -.97388166E+02 0.11517360E+03 0.32000000E+00 0.0000E+00 0.9000E+01
#aMCatNLO 1  0  0  2  5 0.90827453D+00 0.00000000D+00  -5  6  0 0.00000000D+00 0.00000000D+00 0.00000000D+00 0.00000000D+00 0.00000000D+00
  <mgrwgt>
 0.4158722427D-01   12    2    0
 0.236779083032215D+03 0.000000000000000D+00 0.000000000000000D+00 0.236779083032215D+03
 0.236779083032215D+03 0.000000000000000D+00 0.000000000000000D+00 -.236779083032215D+03
 0.221048978985957D+03 -.725203734225979D+02 0.547507547184145D+02 0.158053160066938D+03
 0.185275903496991D+03 0.300159588408723D+02 -.991787887644942D+02 -.130853179313025D+03
 0.672332835814827D+02 0.425044145817256D+02 0.444280340460797D+02 -.271999807539131D+02
 0.000000000000000D+00 -.000000000000000D+00 0.000000000000000D+00 -.000000000000000D+00
 0.417986156151679D+03 0.000000000000000D+00 0.000000000000000D+00 0.417986156151679D+03
 0.646523380843004D+03 0.000000000000000D+00 0.000000000000000D+00 -.646523380843004D+03
 0.214995775826003D+03 0.748896827698058D+02 0.298624019758564D+01 0.158053160066938D+03
 0.290153141366037D+03 0.190740337348722D+03 -.155618760636301D+03 -.130853179313025D+03
 0.107907416532402D+03 0.101712787484866D+03 0.236364221434368D+02 -.271999807539131D+02
 0.451453203270241D+03 -.367342807603393D+03 0.128996098295279D+03 -.228537224691325D+03
0.481655077051D-04 0.000000000000D+00 0.000000000000D+00 0.936470834335D-07 0.000000000000D+00  6 2 21 25 24 1 21 2 0.16183375D-01 0.81995658D-01 0.30135126D+05 0.30135126D+05 0.30135126D+05 0.12146936D+01  1  2  2  2  6  2       21 0.403251103715D-01 0.100000000000D+01
-.146098177918D-05 0.254176367261D-05 -.972322829586D-07 0.936470834335D-07 0.000000000000D+00  6 2 21 25 24 1 21 4 0.16183375D-01 0.81995658D-01 0.30135126D+05 0.30135126D+05 0.30135126D+05 0.12146936D+01  1  2  3  2  6  2       21 -.180475275844D-02 0.100000000000D+01
0.424390672850D-05 0.000000000000D+00 0.000000000000D+00 0.936470834335D-07 0.000000000000D+00  6 2 21 25 24 1 21 4 0.16183375D-01 0.81995658D-01 0.30135126D+05 0.30135126D+05 0.30135126D+05 0.12146936D+01  1  2 15  2  6  2       21 0.524250369442D-02 0.100000000000D+01
-.211651641226D-04 0.000000000000D+00 -.167540840557D-03 0.936470834335D-07 0.000000000000D+00  6 2 21 25 24 1 21 4 0.16183375D-01 0.31194232D+00 0.30135126D+05 0.30135126D+05 0.30135126D+05 0.12146936D+01  1  2  5  2  6  2       21 -.596288745115D-03 0.100000000000D+01
-.116417538299D-04 0.000000000000D+00 -.651640984700D-04 0.936470834335D-07 0.000000000000D+00  6 2 -1 25 24 1 -1 4 0.16183375D-01 0.31194232D+00 0.30135126D+05 0.30135126D+05 0.30135126D+05 0.12146936D+01  1  2  5  5  6  2       21 -.348507313399D-04 0.100000000000D+01
-.116417538299D-04 0.000000000000D+00 -.651640984700D-04 0.936470834335D-07 0.000000000000D+00  6 2 1 25 24 1 1 4 0.16183375D-01 0.31194232D+00 0.30135126D+05 0.30135126D+05 0.30135126D+05 0.12146936D+01  1  2  5  6  6  2       21 -.411121733562D-03 0.100000000000D+01
-.116417538299D-04 0.000000000000D+00 -.651640984700D-04 0.936470834335D-07 0.000000000000D+00  6 2 -2 25 24 1 -2 4 0.16183375D-01 0.31194232D+00 0.30135126D+05 0.30135126D+05 0.30135126D+05 0.12146936D+01  1  2  5  7  6  2       21 -.291356209329D-04 0.100000000000D+01
-.116417538299D-04 0.000000000000D+00 -.651640984700D-04 0.936470834335D-07 0.000000000000D+00  6 2 2 25 24 1 2 4 0.16183375D-01 0.31194232D+00 0.30135126D+05 0.30135126D+05 0.30135126D+05 0.12146936D+01  1  2  5  8  6  2       21 -.103238782002D-02 0.100000000000D+01
-.116417538299D-04 0.000000000000D+00 -.651640984700D-04 0.936470834335D-07 0.000000000000D+00  6 2 -3 25 24 1 -3 4 0.16183375D-01 0.31194232D+00 0.30135126D+05 0.30135126D+05 0.30135126D+05 0.12146936D+01  1  2  5  9  6  2       21 -.210770813212D-04 0.100000000000D+01
-.116417538299D-04 0.000000000000D+00 -.651640984700D-04 0.936470834335D-07 0.000000000000D+00  6 2 -4 25 24 1 -4 4 0.16183375D-01 0.31194232D+00 0.30135126D+05 0.30135126D+05 0.30135126D+05 0.12146936D+01  1  2  5  9  6  2       21 -.146565333443D-04 0.100000000000D+01
-.116417538299D-04 0.000000000000D+00 -.651640984700D-04 0.936470834335D-07 0.000000000000D+00  6 2 3 25 24 1 3 4 0.16183375D-01 0.31194232D+00 0.30135126D+05 0.30135126D+05 0.30135126D+05 0.12146936D+01  1  2  5 10  6  2       21 -.214622413274D-04 0.100000000000D+01
-.116417538299D-04 0.000000000000D+00 -.651640984700D-04 0.936470834335D-07 0.000000000000D+00  6 2 4 25 24 1 4 4 0.16183375D-01 0.31194232D+00 0.30135126D+05 0.30135126D+05 0.30135126D+05 0.12146936D+01  1  2  5 10  6  2       21 -.146565333443D-04 0.100000000000D+01
  </mgrwgt>
  </event>
  <event>
  5     66 0.45638357E-03 0.42943293E+02 0.75467711E-02 0.12144205E+00
        2 -1    0    0  502    0 0.00000000E+00 0.00000000E+00 0.48810632E+03 0.48810642E+03 0.32000000E+00 0.0000E+00 0.9000E+01
       21 -1    0    0  501  502 0.00000000E+00 0.00000000E+00 -.77615120E+02 0.77618744E+02 0.75000000E+00 0.0000E+00 0.9000E+01
       25  1    1    2    0    0 0.43834132E+01 -.28016192E+02 0.22435246E+03 0.25838566E+03 0.12500000E+03 0.0000E+00 0.9000E+01
       24  1    1    2    0    0 -.12315383E+02 -.14188118E+02 0.23095083E+03 0.24527224E+03 0.80419002E+02 0.0000E+00 0.9000E+01
        1  1    1    2  501    0 0.79319702E+01 0.42204310E+02 -.44812090E+02 0.62067268E+02 0.32000000E+00 0.0000E+00 0.9000E+01
#aMCatNLO 1  0  0  5  2 0.40328117D+02 0.00000000D+00  -5  6  0 0.00000000D+00 0.00000000D+00 0.00000000D+00 0.00000000D+00 0.00000000D+00
  <mgrwgt>
 0.1325278353D+00    3    2    0
 0.194641940473789D+03 0.000000000000000D+00 0.000000000000000D+00 0.194641940473789D+03
 0.194641940473789D+03 -.000000000000000D+00 -.000000000000000D+00 -.194641940473789D+03
 0.138923246715947D+03 0.438340553720878D+01 -.280162332683400D+02 0.535774664149972D+02
 0.112908416127994D+03 -.123153896155906D+02 -.141881510223303D+02 0.769942986677943D+02
 0.137452218103638D+03 0.793198407838179D+01 0.422043842906703D+02 -.130571765082791D+03
 0.000000000000000D+00 -.000000000000000D+00 0.000000000000000D+00 0.000000000000000D+00
 0.194641940473789D+03 0.000000000000000D+00 0.000000000000000D+00 0.194641940473789D+03
 0.194641940473789D+03 -.000000000000000D+00 -.000000000000000D+00 -.194641940473789D+03
 0.132751074755252D+03 0.533152022222771D+01 -.229715185887903D+02 0.379701471490346D+02
 0.104243299399241D+03 -.115575530661018D+02 -.101558654493791D+02 0.645192287567635D+02
 0.404900386128751D+02 0.333336037271620D+02 0.223331395095597D+02 0.543552840846119D+01
 0.111799468180211D+03 -.271075708832879D+02 0.107942445286097D+02 -.107924904314259D+03
0.139652998592D-04 0.000000000000D+00 0.000000000000D+00 0.357790991200D-05 0.000000000000D+00  6 2 21 25 24 1 21 2 0.75093566D-01 0.11941075D-01 0.16091413D+05 0.16091413D+05 0.16091413D+05 0.12443601D+01  1  2  2  3  6  5        1 0.102472710047D+00 0.100000000000D+01
0.122290677706D-05 0.736969120655D-06 -.281919168345D-07 0.357790991200D-05 0.000000000000D+00  6 2 21 25 24 1 21 4 0.75093566D-01 0.11941075D-01 0.16091413D+05 0.16091413D+05 0.16091413D+05 0.12443601D+01  1  2  3  3  6  5        1 0.138945171023D-01 0.100000000000D+01
0.142235365792D-05 0.000000000000D+00 0.000000000000D+00 0.357790991200D-05 0.000000000000D+00  6 2 21 25 24 1 21 4 0.75093566D-01 0.11941075D-01 0.16091413D+05 0.16091413D+05 0.16091413D+05 0.12443601D+01  1  2 15  3  6  5        1 0.161606081478D-01 0.100000000000D+01
  </mgrwgt>
  </event>
  <event>
  5     66 0.45638357E-03 0.28855123E+02 0.75467711E-02 0.92817741E-01
        2 -1    0    0  502    0 0.00000000E+00 0.00000000E+00 0.14927287E+04 0.14927287E+04 0.32000000E+00 0.0000E+00 0.9000E+01
       21 -1    0    0  501  502 0.00000000E+00 0.00000000E+00 -.10675757E+03 0.10676020E+03 0.75000000E+00 0.0000E+00 0.9000E+01
       25  1    1    2    0    0 0.15071074E+03 0.35899731E+01 0.12605969E+04 0.12757179E+04 0.12500000E+03 0.0000E+00 0.9000E+01
       24  1    1    2    0    0 -.12418007E+03 -.14936375E+02 0.19684406E+03 0.24669533E+03 0.80419002E+02 0.0000E+00 0.9000E+01
        1  1    1    2  501    0 -.26530673E+02 0.11346402E+02 -.71469858E+02 0.77075680E+02 0.32000000E+00 0.0000E+00 0.9000E+01
#aMCatNLO 1  0  0  2  5 0.90827453D+00 0.00000000D+00  -5  6  0 0.00000000D+00 0.00000000D+00 0.00000000D+00 0.00000000D+00 0.00000000D+00
  <mgrwgt>
 0.2971746616D+01   12    2    0
 0.399201979710465D+03 0.000000000000000D+00 0.000000000000000D+00 0.399201979710465D+03
 0.399201979710465D+03 0.000000000000000D+00 0.000000000000000D+00 -.399201979710465D+03
 0.367415288256877D+03 0.150710751613824D+03 0.358996965400623D+01 0.310873568369463D+03
 0.152512089268692D+03 -.124180067321167D+03 -.149363762272277D+02 -.338959726817209D+02
 0.278476581895361D+03 -.265306842926565D+02 0.113464065732215D+02 -.276977595687742D+03
 0.000000000000000D+00 0.000000000000000D+00 -.000000000000000D+00 -.000000000000000D+00
 0.896639049243942D+03 0.000000000000000D+00 0.000000000000000D+00 0.896639049243942D+03
 0.154874496672871D+04 0.000000000000000D+00 0.000000000000000D+00 -.154874496672871D+04
 0.507267138690100D+03 -.274131577841699D+02 0.379869837265843D+03 0.310873568369463D+03
 0.290623800245481D+03 -.214422073566031D+03 0.175696370817266D+03 -.338959726817209D+02
 0.468190318635737D+03 -.178584987938504D+03 0.332555240575569D+03 -.276977595687742D+03
 0.117930275840134D+04 0.420420219288705D+03 -.888121448658678D+03 -.652105917484772D+03
0.105324148096D-02 0.000000000000D+00 0.000000000000D+00 0.282387997740D-05 0.000000000000D+00  6 2 21 25 24 1 21 2 0.22965077D+00 0.16424447D-01 0.34854743D+05 0.34854743D+05 0.34854743D+05 0.12081205D+01  1  2  2  2  6  2       21 0.906978276400D+00 0.100000000000D+01
0.341305456646D-03 0.555810799544D-04 -.212619109774D-05 0.282387997740D-05 0.000000000000D+00  6 2 21 25 24 1 21 4 0.22965077D+00 0.16424447D-01 0.34854743D+05 0.34854743D+05 0.34854743D+05 0.12081205D+01  1  2  3  2  6  2       21 0.428975693245D+00 0.100000000000D+01
0.871640918496D-04 0.000000000000D+00 0.000000000000D+00 0.282387997740D-05 0.000000000000D+00  6 2 21 25 24 1 21 4 0.22965077D+00 0.16424447D-01 0.34854743D+05 0.34854743D+05 0.34854743D+05 0.12081205D+01  1  2 15  2  6  2       21 0.109553703286D+00 0.100000000000D+01
0.754292998177D-01 0.000000000000D+00 -.256528748269D-01 0.282387997740D-05 0.000000000000D+00  6 2 21 25 24 1 21 4 0.22965077D+00 0.15661906D+00 0.34854743D+05 0.34854743D+05 0.34854743D+05 0.12081205D+01  1  2  5  2  6  2       21 0.763697963305D+00 0.100000000000D+01
0.330258506698D-01 0.000000000000D+00 -.111945557384D-01 0.282387997740D-05 0.000000000000D+00  6 2 -1 25 24 1 -1 4 0.22965077D+00 0.15661906D+00 0.34854743D+05 0.34854743D+05 0.34854743D+05 0.12081205D+01  1  2  5  5  6  2       21 0.399693255417D-01 0.100000000000D+01
0.330258506698D-01 0.000000000000D+00 -.111945557384D-01 0.282387997740D-05 0.000000000000D+00  6 2 1 25 24 1 1 4 0.22965077D+00 0.15661906D+00 0.34854743D+05 0.34854743D+05 0.34854743D+05 0.12081205D+01  1  2  5  6  6  2       21 0.218094976475D+00 0.100000000000D+01
0.330258506698D-01 0.000000000000D+00 -.111945557384D-01 0.282387997740D-05 0.000000000000D+00  6 2 -2 25 24 1 -2 4 0.22965077D+00 0.15661906D+00 0.34854743D+05 0.34854743D+05 0.34854743D+05 0.12081205D+01  1  2  5  7  6  2       21 0.293269735824D-01 0.100000000000D+01
0.330258506698D-01 0.000000000000D+00 -.111945557384D-01 0.282387997740D-05 0.000000000000D+00  6 2 2 25 24 1 2 4 0.22965077D+00 0.15661906D+00 0.34854743D+05 0.34854743D+05 0.34854743D+05 0.12081205D+01  1  2  5  8  6  2       21 0.407277176572D+00 0.100000000000D+01
0.330258506698D-01 0.000000000000D+00 -.111945557384D-01 0.282387997740D-05 0.000000000000D+00  6 2 -3 25 24 1 -3 4 0.22965077D+00 0.15661906D+00 0.34854743D+05 0.34854743D+05 0.34854743D+05 0.12081205D+01  1  2  5  9  6  2       21 0.189829771426D-01 0.100000000000D+01
0.330258506698D-01 0.000000000000D+00 -.111945557384D-01 0.282387997740D-05 0.000000000000D+00  6 2 -4 25 24 1 -4 4 0.22965077D+00 0.15661906D+00 0.34854743D+05 0.34854743D+05 0.34854743D+05 0.12081205D+01  1  2  5  9  6  2       21 0.149134079473D-01 0.100000000000D+01
0.330258506698D-01 0.000000000000D+00 -.111945557384D-01 0.282387997740D-05 0.000000000000D+00  6 2 3 25 24 1 3 4 0.22965077D+00 0.15661906D+00 0.34854743D+05 0.34854743D+05 0.34854743D+05 0.12081205D+01  1  2  5 10  6  2       21 0.190627344314D-01 0.100000000000D+01
0.330258506698D-01 0.000000000000D+00 -.111945557384D-01 0.282387997740D-05 0.000000000000D+00  6 2 4 25 24 1 4 4 0.22965077D+00 0.15661906D+00 0.34854743D+05 0.34854743D+05 0.34854743D+05 0.12081205D+01  1  2  5 10  6  2       21 0.149134079473D-01 0.100000000000D+01
  </mgrwgt>
  </event>
  <event>
  5     66 -.45638357E-03 0.39971175E+02 0.75467711E-02 0.12213918E+00
        2 -1    0    0  502    0 0.00000000E+00 0.00000000E+00 0.18530105E+03 0.18530132E+03 0.32000000E+00 0.0000E+00 0.9000E+01
       21 -1    0    0  501  502 0.00000000E+00 0.00000000E+00 -.12526259E+03 0.12526484E+03 0.75000000E+00 0.0000E+00 0.9000E+01
       25  1    1    2    0    0 0.29096554E+01 0.63023790E+02 0.81745571E+02 0.16213514E+03 0.12500000E+03 0.0000E+00 0.9000E+01
       24  1    1    2    0    0 -.16115420E+02 -.25297453E+02 0.22601727E+02 0.88756532E+02 0.80419002E+02 0.0000E+00 0.9000E+01
        1  1    1    2  501    0 0.13205765E+02 -.37726337E+02 -.44308845E+02 0.59674491E+02 0.32000000E+00 0.0000E+00 0.9000E+01
#aMCatNLO 1  0  0  5  2 0.13478061D+02 0.00000000D+00  -5  6  0 0.00000000D+00 0.00000000D+00 0.00000000D+00 0.00000000D+00 0.00000000D+00
  <mgrwgt>
 -.7992267067D-01    6    2    0
 0.152353801515316D+03 0.000000000000000D+00 0.000000000000000D+00 0.152353801515316D+03
 0.152353801515316D+03 -.000000000000000D+00 -.000000000000000D+00 -.152353801515316D+03
 0.149145818240423D+03 0.290958701340217D+01 0.630239856122485D+02 0.513710681178025D+02
 0.860096618487826D+02 -.161154594227422D+02 -.252973404000013D+02 0.554819909986979D+01
 0.695521229414267D+02 0.132058724093400D+02 -.377266452122472D+02 -.569192672176723D+02
 0.000000000000000D+00 0.000000000000000D+00 0.000000000000000D+00 -.000000000000000D+00
 0.152353801515316D+03 0.000000000000000D+00 0.000000000000000D+00 0.152353801515316D+03
 0.152353801515316D+03 -.000000000000000D+00 -.000000000000000D+00 -.152353801515316D+03
 0.147521898444087D+03 0.352725269055365D+01 0.612594332116669D+02 0.487088375101447D+02
 0.861646150193360D+02 -.157569905522553D+02 -.263214172256208D+02 0.400314514235707D+01
 0.494860766807255D+02 0.763214322092452D+01 -.371486486880581D+02 -.317899367057750D+02
 0.215350128864845D+02 0.459759464077719D+01 0.221063270201204D+01 -.209220459467267D+02
0.329086711610D-05 0.000000000000D+00 0.000000000000D+00 0.115623316510D-05 0.000000000000D+00  6 2 21 25 24 1 21 2 0.28508047D-01 0.19271362D-01 0.17665241D+05 0.17665241D+05 0.17665241D+05 0.12398056D+01  1  2  2  3  6  5        1 0.284489133236D-01 0.100000000000D+01
0.113607572315D-06 0.173663828861D-06 -.664331256656D-08 0.115623316510D-05 0.000000000000D+00  6 2 21 25 24 1 21 4 0.28508047D-01 0.19271362D-01 0.17665241D+05 0.17665241D+05 0.17665241D+05 0.12398056D+01  1  2  3  3  6  5        1 0.150962759185D-02 0.100000000000D+01
0.310222459879D-06 0.000000000000D+00 0.000000000000D+00 0.115623316510D-05 0.000000000000D+00  6 2 21 25 24 1 21 4 0.28508047D-01 0.19271362D-01 0.17665241D+05 0.17665241D+05 0.17665241D+05 0.12398056D+01  1  2 15  3  6  5        1 0.412226382011D-02 0.100000000000D+01
-.101204486240D-04 0.000000000000D+00 0.000000000000D+00 0.115623316510D-05 0.000000000000D+00  6 2 21 25 24 1 21 4 0.28508047D-01 0.19271362D-01 0.17665241D+05 0.17665241D+05 0.17665241D+05 0.12398056D+01  1  2  4  3  6  5        1 -.134481427367D+00 0.100000000000D+01
-.392530161145D-05 0.000000000000D+00 0.000000000000D+00 0.115623316510D-05 0.000000000000D+00  6 2 21 25 24 1 21 4 0.28508047D-01 0.19271362D-01 0.17665241D+05 0.17665241D+05 0.17665241D+05 0.12398056D+01  1  2  5  3  6  5        1 -.521597592328D-01 0.100000000000D+01
0.546637731869D-05 0.000000000000D+00 -.000000000000D+00 0.115623316510D-05 0.000000000000D+00  6 2 21 25 24 1 21 4 0.28508047D-01 0.19271362D-01 0.17665241D+05 0.17665241D+05 0.17665241D+05 0.12398056D+01  1  2  6  3  6  5        1 0.726377111983D-01 0.100000000000D+01
  </mgrwgt>
  </event>
  <event>
  5     66 0.45638357E-03 0.52774386E+02 0.75467711E-02 0.11644068E+00
        2 -1    0    0  502    0 0.00000000E+00 0.00000000E+00 0.30152748E+04 0.30152748E+04 0.32000000E+00 0.0000E+00 0.9000E+01
       21 -1    0    0  501  502 0.00000000E+00 0.00000000E+00 -.17848085E+02 0.17863836E+02 0.75000000E+00 0.0000E+00 0.9000E+01
       25  1    1    2    0    0 -.92586226E+02 -.69886699E+02 0.21575924E+04 0.21643212E+04 0.12500000E+03 0.0000E+00 0.9000E+01
       24  1    1    2    0    0 0.11419656E+03 0.21739928E+02 0.76055197E+03 0.77357610E+03 0.80419002E+02 0.0000E+00 0.9000E+01
        1  1    1    2  501    0 -.21610331E+02 0.48146771E+02 0.79282326E+02 0.95241313E+02 0.32000000E+00 0.0000E+00 0.9000E+01
#aMCatNLO 1  0  0  1  2 0.22444828D+01 0.00000000D+00  -5  6  0 0.00000000D+00 0.00000000D+00 0.00000000D+00 0.00000000D+00 0.00000000D+00
  <mgrwgt>
 0.2434607057D-01   11    2    0
 0.232036194429458D+03 0.000000000000000D+00 0.000000000000000D+00 0.232036194429458D+03
 0.232036194429458D+03 0.000000000000000D+00 0.000000000000000D+00 -.232036194429458D+03
 0.210013130273950D+03 -.925861846537821D+02 -.698867901444172D+02 0.122573038887143D+03
 0.143651713888329D+03 0.114196584992330D+03 0.217398649165402D+02 -.255952573377132D+02
 0.110407544696638D+03 -.216104003385482D+02 0.481469252278769D+02 -.969777815494300D+02
 0.000000000000000D+00 0.000000000000000D+00 -.000000000000000D+00 0.000000000000000D+00
 0.242232651172447D+03 0.000000000000000D+00 0.000000000000000D+00 0.242232651172447D+03
 0.232162457172169D+03 0.000000000000000D+00 0.000000000000000D+00 -.232162457172169D+03
 0.209726569860770D+03 -.926929801956820D+02 -.688773959000940D+02 0.122573038887143D+03
 0.143699844056272D+03 0.114123473334470D+03 0.224308908275834D+02 -.255952573377132D+02
 0.110651402622606D+03 -.216666449827008D+02 0.486785300034284D+02 -.969777815494300D+02
 0.103172918049676D+02 0.236151843912326D+00 -.223202493091781D+01 0.100701940002777D+02
0.246297394709D-05 0.000000000000D+00 0.000000000000D+00 0.474802691214D-06 0.000000000000D+00  6 2 21 25 24 1 21 2 0.46388964D+00 0.27470722D-02 0.33244242D+05 0.33244242D+05 0.33244242D+05 0.12102456D+01  1  2  2  1  6  1        2 0.713728751335D-02 0.100000000000D+01
0.118722767331D-06 0.129974706041D-06 -.497203478492D-08 0.474802691214D-06 0.000000000000D+00  6 2 21 25 24 1 21 4 0.46388964D+00 0.27470722D-02 0.33244242D+05 0.33244242D+05 0.33244242D+05 0.12102456D+01  1  2  3  1  6  1        2 0.503911702278D-03 0.100000000000D+01
0.236539551048D-06 0.000000000000D+00 0.000000000000D+00 0.474802691214D-06 0.000000000000D+00  6 2 21 25 24 1 21 4 0.46388964D+00 0.27470722D-02 0.33244242D+05 0.33244242D+05 0.33244242D+05 0.12102456D+01  1  2 15  1  6  1        2 0.100397801116D-02 0.100000000000D+01
0.463952045588D-06 0.000000000000D+00 0.000000000000D+00 0.474330111816D-06 0.000000000000D+00  6 2 21 25 24 1 21 4 0.48439776D+00 0.27470722D-02 0.33692204D+05 0.33692204D+05 0.33692204D+05 0.12096432D+01  1  2 12  1  6  1        2 0.163660753593D-02 0.100000000000D+01
-.514053371301D-03 0.000000000000D+00 0.000000000000D+00 0.474802691214D-06 0.000000000000D+00  6 2 21 25 24 1 21 4 0.46388964D+00 0.27470722D-02 0.33244242D+05 0.33244242D+05 0.33244242D+05 0.12102456D+01  1  2  4  1  6  1        2 -.218186886321D+01 0.100000000000D+01
-.572235448030D-03 0.000000000000D+00 -.126910713103D-04 0.474802691214D-06 0.000000000000D+00  6 2 21 25 24 1 21 4 0.48434138D+00 0.27470722D-02 0.33244242D+05 0.33244242D+05 0.33244242D+05 0.12102456D+01  1  2  5  1  6  1        2 -.202487293104D+01 0.100000000000D+01
0.572262113861D-03 0.000000000000D+00 0.126792692416D-04 0.474802691214D-06 0.000000000000D+00  6 2 21 25 24 1 21 4 0.46388964D+00 0.27470722D-02 0.33244242D+05 0.33244242D+05 0.33244242D+05 0.12102456D+01  1  2  6  1  6  1        2 0.242893239794D+01 0.100000000000D+01
0.507917667757D-03 0.000000000000D+00 0.000000000000D+00 0.474802691214D-06 0.733948583788D-06  6 2 21 25 24 1 21 4 0.48427453D+00 0.27485670D-02 0.33692204D+05 0.33692204D+05 0.33692204D+05 0.12096432D+01  1  2 11  1  6  1        2 0.179208380390D+01 0.100000000000D+01
0.993295515797D-08 0.000000000000D+00 0.000000000000D+00 0.474330111816D-06 0.000000000000D+00  6 21 21 25 24 1 -2 4 0.48439776D+00 0.27470722D-02 0.33692204D+05 0.33692204D+05 0.33692204D+05 0.12096432D+01  1  2 12  4  6  1        2 0.384268444078D-05 0.100000000000D+01
-.434099728060D-05 0.000000000000D+00 -.963341863661D-07 0.474802691214D-06 0.000000000000D+00  6 21 21 25 24 1 -2 4 0.48434138D+00 0.27470722D-02 0.33244242D+05 0.33244242D+05 0.33244242D+05 0.12102456D+01  1  2  5  4  6  1        2 -.168762451790D-02 0.100000000000D+01
0.380521122759D-05 0.000000000000D+00 0.000000000000D+00 0.474802691214D-06 0.547486456356D-08  6 21 21 25 24 1 -2 4 0.48427453D+00 0.27485670D-02 0.33692204D+05 0.33692204D+05 0.33692204D+05 0.12096432D+01  1  2 11  4  6  1        2 0.147366004623D-02 0.100000000000D+01
  </mgrwgt>
  </event>
  <event>
  5     66 0.45638357E-03 0.54229804E+02 0.75467711E-02 0.10899769E+00
        2 -1    0    0  502    0 0.00000000E+00 0.00000000E+00 0.20790635E+04 0.20790635E+04 0.32000000E+00 0.0000E+00 0.9000E+01
       21 -1    0    0  501  502 0.00000000E+00 0.00000000E+00 -.58022160E+02 0.58027007E+02 0.75000000E+00 0.0000E+00 0.9000E+01
       25  1    1    2    0    0 -.17095424E+03 0.10677870E+02 0.10620448E+04 0.10830067E+04 0.12500000E+03 0.0000E+00 0.9000E+01
       24  1    1    2    0    0 0.13383281E+03 -.50210992E+02 0.98169002E+03 0.99529638E+03 0.80419002E+02 0.0000E+00 0.9000E+01
        1  1    1    2  501    0 0.37121432E+02 0.39533122E+02 -.22693475E+02 0.58787454E+02 0.32000000E+00 0.0000E+00 0.9000E+01
#aMCatNLO 1  0  0  2  2 0.17063753D+03 0.00000000D+00  -5  6  0 0.00000000D+00 0.00000000D+00 0.00000000D+00 0.00000000D+00 0.00000000D+00
  <mgrwgt>
 0.2928306611D+00   14    2    0
 0.347328315286519D+03 0.000000000000000D+00 0.000000000000000D+00 0.347328315286519D+03
 0.347328315286519D+03 0.000000000000000D+00 0.000000000000000D+00 -.347328315286519D+03
 0.241913701455532D+03 -.170954248850760D+03 0.106778584782860D+02 0.116438254410250D+03
 0.205860510841079D+03 0.133832796933880D+03 -.502110023140745D+02 0.124414515555260D+03
 0.246882418276429D+03 0.371214519168799D+02 0.395331438357885D+02 -.240852769965510D+03
 0.000000000000000D+00 0.000000000000000D+00 0.000000000000000D+00 -.000000000000000D+00
 0.408674819918289D+03 0.000000000000000D+00 0.000000000000000D+00 0.408674819918289D+03
 0.500326250914288D+03 0.000000000000000D+00 0.000000000000000D+00 -.500326250914288D+03
 0.274143840825098D+03 -.211176593688911D+03 -.371001974412371D+02 0.116438254410250D+03
 0.200243570451277D+03 0.102180399556382D+03 -.878092581585391D+02 0.124414515555260D+03
 0.240920214917700D+03 -.898660411258156D+00 -.562899328450553D+01 -.240852769965510D+03
 0.193693444638503D+03 0.109894854543788D+03 0.130538448884282D+03 -.916514309959986D+02
0.103682371245D-03 0.000000000000D+00 0.000000000000D+00 0.154166113451D-05 0.000000000000D+00  6 2 21 25 24 1 21 2 0.31985629D+00 0.89268609D-02 0.46287103D+05 0.46287103D+05 0.46287103D+05 0.11956148D+01  1  2  2  2  6  2       21 0.127454316118D+00 0.100000000000D+01
0.170715234508D-04 0.547146905074D-05 -.209304835329D-06 0.154166113451D-05 0.000000000000D+00  6 2 21 25 24 1 21 4 0.31985629D+00 0.89268609D-02 0.46287103D+05 0.46287103D+05 0.46287103D+05 0.11956148D+01  1  2  3  2  6  2       21 0.299988393351D-01 0.100000000000D+01
0.916234365717D-05 0.000000000000D+00 0.000000000000D+00 0.154166113451D-05 0.000000000000D+00  6 2 21 25 24 1 21 4 0.31985629D+00 0.89268609D-02 0.46287103D+05 0.46287103D+05 0.46287103D+05 0.11956148D+01  1  2 15  2  6  2       21 0.161004772712D-01 0.100000000000D+01
-.175124747364D-04 0.000000000000D+00 0.000000000000D+00 0.154166113451D-05 0.000000000000D+00  6 2 21 25 24 1 21 4 0.31985629D+00 0.89268609D-02 0.46287103D+05 0.46287103D+05 0.46287103D+05 0.11956148D+01  1  2  4  2  6  2       21 -.307736985214D-01 0.100000000000D+01
-.957944116114D-04 0.000000000000D+00 -.124165033852D-03 0.154166113451D-05 0.000000000000D+00  6 2 21 25 24 1 21 4 0.31985629D+00 0.15583588D-01 0.46287103D+05 0.46287103D+05 0.46287103D+05 0.11956148D+01  1  2  5  2  6  2       21 -.620017891187D-01 0.100000000000D+01
0.120853440313D-03 0.000000000000D+00 0.714195163443D-04 0.154166113451D-05 0.000000000000D+00  6 2 21 25 24 1 21 4 0.31985629D+00 0.89268609D-02 0.46287103D+05 0.46287103D+05 0.46287103D+05 0.11956148D+01  1  2  6  2  6  2       21 0.212369033700D+00 0.100000000000D+01
-.889260414023D-06 0.000000000000D+00 -.244300536864D-04 0.154166113451D-05 0.000000000000D+00  6 2 -1 25 24 1 -1 4 0.31985629D+00 0.15583588D-01 0.46287103D+05 0.46287103D+05 0.46287103D+05 0.11956148D+01  1  2  5  5  6  2       21 -.430837357750D-04 0.100000000000D+01
-.889260414023D-06 0.000000000000D+00 -.244300536864D-04 0.154166113451D-05 0.000000000000D+00  6 2 1 25 24 1 1 4 0.31985629D+00 0.15583588D-01 0.46287103D+05 0.46287103D+05 0.46287103D+05 0.11956148D+01  1  2  5  6  6  2       21 -.599756000266D-04 0.100000000000D+01
-.889260414023D-06 0.000000000000D+00 -.244300536864D-04 0.154166113451D-05 0.000000000000D+00  6 2 -2 25 24 1 -2 4 0.31985629D+00 0.15583588D-01 0.46287103D+05 0.46287103D+05 0.46287103D+05 0.11956148D+01  1  2  5  7  6  2       21 -.401961497449D-04 0.100000000000D+01
-.889260414023D-06 0.000000000000D+00 -.244300536864D-04 0.154166113451D-05 0.000000000000D+00  6 2 2 25 24 1 2 4 0.31985629D+00 0.15583588D-01 0.46287103D+05 0.46287103D+05 0.46287103D+05 0.11956148D+01  1  2  5  8  6  2       21 -.717096146359D-04 0.100000000000D+01
-.889260414023D-06 0.000000000000D+00 -.244300536864D-04 0.154166113451D-05 0.000000000000D+00  6 2 -3 25 24 1 -3 4 0.31985629D+00 0.15583588D-01 0.46287103D+05 0.46287103D+05 0.46287103D+05 0.11956148D+01  1  2  5  9  6  2       21 -.271899352288D-04 0.100000000000D+01
-.889260414023D-06 0.000000000000D+00 -.244300536864D-04 0.154166113451D-05 0.000000000000D+00  6 2 -4 25 24 1 -4 4 0.31985629D+00 0.15583588D-01 0.46287103D+05 0.46287103D+05 0.46287103D+05 0.11956148D+01  1  2  5  9  6  2       21 -.235878062914D-04 0.100000000000D+01
-.889260414023D-06 0.000000000000D+00 -.244300536864D-04 0.154166113451D-05 0.000000000000D+00  6 2 3 25 24 1 3 4 0.31985629D+00 0.15583588D-01 0.46287103D+05 0.46287103D+05 0.46287103D+05 0.11956148D+01  1  2  5 10  6  2       21 -.271870042647D-04 0.100000000000D+01
-.889260414023D-06 0.000000000000D+00 -.244300536864D-04 0.154166113451D-05 0.000000000000D+00  6 2 4 25 24 1 4 4 0.31985629D+00 0.15583588D-01 0.46287103D+05 0.46287103D+05 0.46287103D+05 0.11956148D+01  1  2  5 10  6  2       21 -.235878062914D-04 0.100000000000D+01
  </mgrwgt>
  </event>
  <event>
  5     66 0.45638357E-03 0.11663110E+03 0.75467711E-02 0.11120960E+00
        2 -1    0    0  502    0 0.00000000E+00 0.00000000E+00 0.82977272E+03 0.82977279E+03 0.32000000E+00 0.0000E+00 0.9000E+01
       21 -1    0    0  501  502 0.00000000E+00 0.00000000E+00 -.11153496E+03 0.11153749E+03 0.75000000E+00 0.0000E+00 0.9000E+01
       25  1    1    2    0    0 0.45381106E+02 0.69902051E+02 0.44694087E+03 0.47151552E+03 0.12500000E+03 0.0000E+00 0.9000E+01
       24  1    1    2    0    0 0.48655445E+02 -.90981340E+00 0.32721712E+03 0.34045035E+03 0.80419002E+02 0.0000E+00 0.9000E+01
        1  1    1    2  501    0 -.94036551E+02 -.68992237E+02 -.55920228E+02 0.12934441E+03 0.32000000E+00 0.0000E+00 0.9000E+01
#aMCatNLO 1  0  0  2  2 0.13387756D+03 0.00000000D+00  -5  6  0 0.00000000D+00 0.00000000D+00 0.00000000D+00 0.00000000D+00 0.00000000D+00
  <mgrwgt>
 0.5287485885D-01    4    2    0
 0.304220129219610D+03 0.000000000000000D+00 0.000000000000000D+00 0.304220129219610D+03
 0.304220129219610D+03 0.000000000000000D+00 0.000000000000000D+00 -.304220129219610D+03
 0.201881151796469D+03 0.453811284465948D+02 0.699020671536744D+02 0.134852710907960D+03
 0.140440640237719D+03 0.486554609428142D+02 -.909801884201794D+00 0.104346422348749D+03
 0.266118466405033D+03 -.940365893894089D+02 -.689922652694726D+02 -.239199133256709D+03
 0.000000000000000D+00 -.000000000000000D+00 0.000000000000000D+00 0.000000000000000D+00
 0.387458483640519D+03 0.000000000000000D+00 0.000000000000000D+00 0.387458483640519D+03
 0.370485662366381D+03 0.000000000000000D+00 0.000000000000000D+00 -.370485662366381D+03
 0.212390641114275D+03 0.888953664162490D+02 0.582850291535308D+02 0.134852710907960D+03
 0.154195397149845D+03 0.796034107301672D+02 -.917200583126247D+01 0.104346422348749D+03
 0.256408944195387D+03 -.391514089845902D+02 -.836450147178753D+02 -.239199133256709D+03
 0.134949163547393D+03 -.129347368161826D+03 0.345319913956069D+02 0.169728212741380D+02
0.308578672292D-04 0.000000000000D+00 0.000000000000D+00 0.174659554890D-05 0.000000000000D+00  6 2 21 25 24 1 21 2 0.12765754D+00 0.17159424D-01 0.32555621D+05 0.32555621D+05 0.32555621D+05 0.12111896D+01  1  2  2  2  6  2       21 0.596439750988D-01 0.100000000000D+01
0.158352933475D-06 0.162841439185D-05 -.622931433902D-07 0.174659554890D-05 0.000000000000D+00  6 2 21 25 24 1 21 4 0.12765754D+00 0.17159424D-01 0.32555621D+05 0.32555621D+05 0.32555621D+05 0.12111896D+01  1  2  3  2  6  2       21 0.449004883014D-03 0.100000000000D+01
0.291331526502D-05 0.000000000000D+00 0.000000000000D+00 0.174659554890D-05 0.000000000000D+00  6 2 21 25 24 1 21 4 0.12765754D+00 0.17159424D-01 0.32555621D+05 0.32555621D+05 0.32555621D+05 0.12111896D+01  1  2 15  2  6  2       21 0.826061602427D-02 0.100000000000D+01
-.545896832874D-05 0.000000000000D+00 0.000000000000D+00 0.174659554890D-05 0.000000000000D+00  6 2 21 25 24 1 21 4 0.12765754D+00 0.17159424D-01 0.32555621D+05 0.32555621D+05 0.32555621D+05 0.12111896D+01  1  2  4  2  6  2       21 -.154787371604D-01 0.100000000000D+01
  </mgrwgt>
  </event>
  <event>
  5     66 0.45638357E-03 0.21043104E+02 0.75467711E-02 0.12226216E+00
        2 -1    0    0  502    0 0.00000000E+00 0.00000000E+00 0.53014738E+03 0.53014748E+03 0.32000000E+00 0.0000E+00 0.9000E+01
       21 -1    0    0  501  502 0.00000000E+00 0.00000000E+00 -.12221783E+03 0.12222013E+03 0.75000000E+00 0.0000E+00 0.9000E+01
       25  1    1    2    0    0 -.59220633E+02 0.34456467E+02 0.21730368E+03 0.25988501E+03 0.12500000E+03 0.0000E+00 0.9000E+01
       24  1    1    2    0    0 0.62921173E+02 -.13741316E+02 0.28120790E+03 0.29948789E+03 0.80419002E+02 0.0000E+00 0.9000E+01
        1  1    1    2  501    0 -.37005394E+01 -.20715151E+02 -.90582024E+02 0.92994714E+02 0.32000000E+00 0.0000E+00 0.9000E+01
#aMCatNLO 1  0  0  5  2 0.37901706D+00 0.00000000D+00  -5  6  0 0.00000000D+00 0.00000000D+00 0.00000000D+00 0.00000000D+00 0.00000000D+00
  <mgrwgt>
 0.4142498183D+01    7    2    0
 0.254547140370638D+03 0.000000000000000D+00 0.000000000000000D+00 0.254547140370638D+03
 0.254547140370638D+03 -.000000000000000D+00 -.000000000000000D+00 -.254547140370638D+03
 0.158901791656637D+03 -.592206315314633D+02 0.344564764149081D+02 0.702171448135909D+02
 0.158444562117343D+03 0.629211741709081D+02 -.137413073361957D+02 0.120372611601777D+03
 0.191747926967296D+03 -.370054263944476D+01 -.207151690787124D+02 -.190589756415368D+03
 0.000000000000000D+00 -.000000000000000D+00 0.000000000000000D+00 0.000000000000000D+00
 0.254547140370638D+03 0.000000000000000D+00 0.000000000000000D+00 0.254547140370638D+03
 0.254547140370638D+03 -.000000000000000D+00 -.000000000000000D+00 -.254547140370638D+03
 0.158901525221306D+03 -.592206428211709D+02 0.344564132165548D+02 0.702165633576193D+02
 0.158444122643409D+03 0.629211629136921D+02 -.137413703526653D+02 0.120372031819225D+03
 0.138807312841777D+03 -.239055679276510D+01 -.147517944023578D+02 -.138000506877642D+03
 0.529413200347839D+02 -.130996329975609D+01 -.596324846153168D+01 -.525880882992027D+02
0.130988080683D-05 0.000000000000D+00 0.000000000000D+00 0.168951912092D-04 0.000000000000D+00  6 2 21 25 24 1 21 2 0.81561321D-01 0.18802928D-01 0.17771379D+05 0.17771379D+05 0.17771379D+05 0.12395150D+01  1  2  2  3  6  5        1 0.383912091969D-02 0.100000000000D+01
0.438563133016D-06 0.691243092596D-07 -.264427195560D-08 0.168951912092D-04 0.000000000000D+00  6 2 21 25 24 1 21 4 0.81561321D-01 0.18802928D-01 0.17771379D+05 0.17771379D+05 0.17771379D+05 0.12395150D+01  1  2  3  3  6  5        1 0.197485728212D-02 0.100000000000D+01
0.146883459219D-06 0.000000000000D+00 0.000000000000D+00 0.168951912092D-04 0.000000000000D+00  6 2 21 25 24 1 21 4 0.81561321D-01 0.18802928D-01 0.17771379D+05 0.17771379D+05 0.17771379D+05 0.12395150D+01  1  2 15  3  6  5        1 0.661418726803D-03 0.100000000000D+01
-.176019457456D-01 0.000000000000D+00 0.000000000000D+00 0.168951912092D-04 0.000000000000D+00  6 2 21 25 24 1 21 4 0.81561321D-01 0.18802928D-01 0.17771379D+05 0.17771379D+05 0.17771379D+05 0.12395150D+01  1  2  4  3  6  5        1 -.792618624737D+02 0.100000000000D+01
-.155316731393D-01 0.000000000000D+00 0.000000000000D+00 0.168951912092D-04 0.000000000000D+00  6 2 21 25 24 1 21 4 0.81561321D-01 0.18802928D-01 0.17771379D+05 0.17771379D+05 0.17771379D+05 0.12395150D+01  1  2  5  3  6  5        1 -.699393895506D+02 0.100000000000D+01
0.203823272011D-01 0.000000000000D+00 -.000000000000D+00 0.168951912092D-04 0.000000000000D+00  6 2 21 25 24 1 21 4 0.81561321D-01 0.18802928D-01 0.17771379D+05 0.17771379D+05 0.17771379D+05 0.12395150D+01  1  2  6  3  6  5        1 0.917819676788D+02 0.100000000000D+01
0.136699038693D-01 0.000000000000D+00 0.000000000000D+00 0.168951912092D-04 0.468028074727D-03  6 2 21 25 24 1 21 4 0.81561321D-01 0.18802928D-01 0.17772253D+05 0.17772253D+05 0.17772253D+05 0.12395126D+01  1  2 11  3  6  5        1 0.615553071312D+02 0.100000000000D+01
  </mgrwgt>
  </event>
  <event>
  5     66 0.45638357E-03 0.52544766E+02 0.75467711E-02 0.11928238E+00
        2 -1    0    0  502    0 0.00000000E+00 0.00000000E+00 0.16908583E+04 0.16908584E+04 0.32000000E+00 0.0000E+00 0.9000E+01
       21 -1    0    0  501  502 0.00000000E+00 0.00000000E+00 -.14383674E+02 0.14403214E+02 0.75000000E+00 0.0000E+00 0.9000E+01
       25  1    1    2    0    0 -.52435404E+02 0.58707249E+01 0.72112940E+03 0.73378236E+03 0.12500000E+03 0.0000E+00 0.9000E+01
       24  1    1    2    0    0 0.25218651E+02 0.39075439E+02 0.83514206E+03 0.84029301E+03 0.80419002E+02 0.0000E+00 0.9000E+01
        1  1    1    2  501    0 0.27216753E+02 -.44946164E+02 0.12020319E+03 0.13118620E+03 0.32000000E+00 0.0000E+00 0.9000E+01
#aMCatNLO 1  0  0  2  1 0.29478467D+02 0.00000000D+00  -5  6  0 0.00000000D+00 0.00000000D+00 0.00000000D+00 0.00000000D+00 0.00000000D+00
  <mgrwgt>
 0.1332449149D+00   32    2    0
 0.156004618091050D+03 0.000000000000000D+00 0.000000000000000D+00 0.156004618091050D+03
 0.156004618091050D+03 0.000000000000000D+00 0.000000000000000D+00 -.156004618091050D+03
 0.135687367654014D+03 -.524355237602428D+02 0.587092274824053D+01 -.145253397510811D+01
 0.105204968608865D+03 0.252185581388763D+02 0.390755921454076D+02 0.493760254526788D+02
 0.711168999192201D+02 0.272169656213666D+02 -.449465148936481D+02 -.479234914775706D+02
 0.000000000000000D+00 0.000000000000000D+00 0.000000000000000D+00 -.000000000000000D+00
 0.159093790623866D+03 0.000000000000000D+00 0.000000000000000D+00 0.159093790623866D+03
 0.247428217641479D+03 0.000000000000000D+00 0.000000000000000D+00 -.247428217641479D+03
 0.136659539699996D+03 -.548015440437242D+02 -.674616235275412D+01 -.145253397510811D+01
 0.101605733785392D+03 0.234218852063292D+02 0.294946196377482D+02 0.493760254526788D+02
 0.751334238665379D+02 0.259464124290990D+02 -.517218911928707D+02 -.479234914775706D+02
 0.931233109134192D+02 0.543324640829598D+01 0.289734339078766D+02 -.883344270176130D+02
0.119383186631D-05 0.000000000000D+00 0.000000000000D+00 0.631753862549D-06 0.000000000000D+00  6 2 21 25 24 1 21 2 0.26013356D+00 0.22143783D-02 0.19757487D+05 0.19757487D+05 0.19757487D+05 0.12344098D+01  1  2  2  2  6  2       21 0.265014273400D-01 0.100000000000D+01
-.934338435630D-08 0.630002384190D-07 -.241000257987D-08 0.631753862549D-06 0.000000000000D+00  6 2 21 25 24 1 21 4 0.26013356D+00 0.22143783D-02 0.19757487D+05 0.19757487D+05 0.19757487D+05 0.12344098D+01  1  2  3  2  6  2       21 -.316045064165D-03 0.100000000000D+01
0.120151803636D-06 0.000000000000D+00 0.000000000000D+00 0.631753862549D-06 0.000000000000D+00  6 2 21 25 24 1 21 4 0.26013356D+00 0.22143783D-02 0.19757487D+05 0.19757487D+05 0.19757487D+05 0.12344098D+01  1  2 15  2  6  2       21 0.406420019143D-02 0.100000000000D+01
0.866864779067D-05 0.000000000000D+00 0.000000000000D+00 0.621463138829D-06 0.000000000000D+00  6 2 21 25 24 1 21 4 0.26013356D+00 0.35232506D-02 0.24460498D+05 0.24460498D+05 0.24460498D+05 0.12243148D+01  1  2 12  2  6  2       21 0.132298295270D+00 0.100000000000D+01
0.749102923064D-05 0.000000000000D+00 0.000000000000D+00 0.621463138829D-06 0.000000000000D+00  6 2 21 25 24 1 21 4 0.26013356D+00 0.38277087D-02 0.24460498D+05 0.24460498D+05 0.24460498D+05 0.12243148D+01  1  2 12  2  6  2       21 0.996130389541D-01 0.100000000000D+01
-.794471101306D-05 0.000000000000D+00 0.000000000000D+00 0.631753862549D-06 0.000000000000D+00  6 2 21 25 24 1 21 4 0.26013356D+00 0.22143783D-02 0.19757487D+05 0.19757487D+05 0.19757487D+05 0.12344098D+01  1  2  4  2  6  2       21 -.268734176626D+00 0.100000000000D+01
-.186841909224D-04 0.000000000000D+00 -.141462060727D-05 0.631753862549D-06 0.000000000000D+00  6 2 21 25 24 1 21 4 0.26013356D+00 0.35833148D-02 0.19757487D+05 0.19757487D+05 0.19757487D+05 0.12344098D+01  1  2  5  2  6  2       21 -.287132619178D+00 0.100000000000D+01
0.126868488356D-04 0.000000000000D+00 0.925724224313D-06 0.631753862549D-06 0.000000000000D+00  6 2 21 25 24 1 21 4 0.26013356D+00 0.22143783D-02 0.19757487D+05 0.19757487D+05 0.19757487D+05 0.12344098D+01  1  2  6  2  6  2       21 0.429139570994D+00 0.100000000000D+01
0.138592294370D-05 0.000000000000D+00 0.000000000000D+00 0.621463138829D-06 0.000000000000D+00  6 2 -1 25 24 1 -1 4 0.26013356D+00 0.35232506D-02 0.24460498D+05 0.24460498D+05 0.24460498D+05 0.12243148D+01  1  2 12  5  6  2       21 0.113336854931D-02 0.100000000000D+01
0.144490743200D-05 0.000000000000D+00 0.000000000000D+00 0.621463138829D-06 0.000000000000D+00  6 2 -1 25 24 1 -1 4 0.26013356D+00 0.38277087D-02 0.24460498D+05 0.24460498D+05 0.24460498D+05 0.12243148D+01  1  2 12  5  6  2       21 0.104609008263D-02 0.100000000000D+01
-.303011980318D-05 0.000000000000D+00 -.235829692030D-06 0.631753862549D-06 0.000000000000D+00  6 2 -1 25 24 1 -1 4 0.26013356D+00 0.35833148D-02 0.19757487D+05 0.19757487D+05 0.19757487D+05 0.12344098D+01  1  2  5  5  6  2       21 -.249547756591D-02 0.100000000000D+01
0.138592294370D-05 0.000000000000D+00 0.000000000000D+00 0.621463138829D-06 0.000000000000D+00  6 2 1 25 24 1 1 4 0.26013356D+00 0.35232506D-02 0.24460498D+05 0.24460498D+05 0.24460498D+05 0.12243148D+01  1  2 12  6  6  2       21 0.123458286256D-02 0.100000000000D+01
0.144490743200D-05 0.000000000000D+00 0.000000000000D+00 0.621463138829D-06 0.000000000000D+00  6 2 1 25 24 1 1 4 0.26013356D+00 0.38277087D-02 0.24460498D+05 0.24460498D+05 0.24460498D+05 0.12243148D+01  1  2 12  6  6  2       21 0.114758473570D-02 0.100000000000D+01
-.303011980318D-05 0.000000000000D+00 -.235829692030D-06 0.631753862549D-06 0.000000000000D+00  6 2 1 25 24 1 1 4 0.26013356D+00 0.35833148D-02 0.19757487D+05 0.19757487D+05 0.19757487D+05 0.12344098D+01  1  2  5  6  6  2       21 -.272295597303D-02 0.100000000000D+01
0.138592294370D-05 0.000000000000D+00 0.000000000000D+00 0.621463138829D-06 0.000000000000D+00  6 2 -2 25 24 1 -2 4 0.26013356D+00 0.35232506D-02 0.24460498D+05 0.24460498D+05 0.24460498D+05 0.12243148D+01  1  2 12  7  6  2       21 0.111532655568D-02 0.100000000000D+01
0.144490743200D-05 0.000000000000D+00 0.000000000000D+00 0.621463138829D-06 0.000000000000D+00  6 2 -2 25 24 1 -2 4 0.26013356D+00 0.38277087D-02 0.24460498D+05 0.24460498D+05 0.24460498D+05 0.12243148D+01  1  2 12  7  6  2       21 0.102804312788D-02 0.100000000000D+01
-.303011980318D-05 0.000000000000D+00 -.235829692030D-06 0.631753862549D-06 0.000000000000D+00  6 2 -2 25 24 1 -2 4 0.26013356D+00 0.35833148D-02 0.19757487D+05 0.19757487D+05 0.19757487D+05 0.12344098D+01  1  2  5  7  6  2       21 -.245492323806D-02 0.100000000000D+01
0.138592294370D-05 0.000000000000D+00 0.000000000000D+00 0.621463138829D-06 0.000000000000D+00  6 2 2 25 24 1 2 4 0.26013356D+00 0.35232506D-02 0.24460498D+05 0.24460498D+05 0.24460498D+05 0.12243148D+01  1  2 12  8  6  2       21 0.130311898768D-02 0.100000000000D+01
0.144490743200D-05 0.000000000000D+00 0.000000000000D+00 0.621463138829D-06 0.000000000000D+00  6 2 2 25 24 1 2 4 0.26013356D+00 0.38277087D-02 0.24460498D+05 0.24460498D+05 0.24460498D+05 0.12243148D+01  1  2 12  8  6  2       21 0.121617213374D-02 0.100000000000D+01
-.303011980318D-05 0.000000000000D+00 -.235829692030D-06 0.631753862549D-06 0.000000000000D+00  6 2 2 25 24 1 2 4 0.26013356D+00 0.35833148D-02 0.19757487D+05 0.19757487D+05 0.19757487D+05 0.12344098D+01  1  2  5  8  6  2       21 -.287682336930D-02 0.100000000000D+01
0.138592294370D-05 0.000000000000D+00 0.000000000000D+00 0.621463138829D-06 0.000000000000D+00  6 2 -3 25 24 1 -3 4 0.26013356D+00 0.35232506D-02 0.24460498D+05 0.24460498D+05 0.24460498D+05 0.12243148D+01  1  2 12  9  6  2       21 0.838386689236D-03 0.100000000000D+01
0.138592294370D-05 0.000000000000D+00 0.000000000000D+00 0.621463138829D-06 0.000000000000D+00  6 2 -4 25 24 1 -4 4 0.26013356D+00 0.35232506D-02 0.24460498D+05 0.24460498D+05 0.24460498D+05 0.12243148D+01  1  2 12  9  6  2       21 0.755009922539D-03 0.100000000000D+01
0.144490743200D-05 0.000000000000D+00 0.000000000000D+00 0.621463138829D-06 0.000000000000D+00  6 2 -3 25 24 1 -3 4 0.26013356D+00 0.38277087D-02 0.24460498D+05 0.24460498D+05 0.24460498D+05 0.12243148D+01  1  2 12  9  6  2       21 0.767841248985D-03 0.100000000000D+01
0.144490743200D-05 0.000000000000D+00 0.000000000000D+00 0.621463138829D-06 0.000000000000D+00  6 2 -4 25 24 1 -4 4 0.26013356D+00 0.38277087D-02 0.24460498D+05 0.24460498D+05 0.24460498D+05 0.12243148D+01  1  2 12  9  6  2       21 0.690179375636D-03 0.100000000000D+01
-.303011980318D-05 0.000000000000D+00 -.235829692030D-06 0.631753862549D-06 0.000000000000D+00  6 2 -3 25 24 1 -3 4 0.26013356D+00 0.35833148D-02 0.19757487D+05 0.19757487D+05 0.19757487D+05 0.12344098D+01  1  2  5  9  6  2       21 -.183467614000D-02 0.100000000000D+01
-.303011980318D-05 0.000000000000D+00 -.235829692030D-06 0.631753862549D-06 0.000000000000D+00  6 2 -4 25 24 1 -4 4 0.26013356D+00 0.35833148D-02 0.19757487D+05 0.19757487D+05 0.19757487D+05 0.12344098D+01  1  2  5  9  6  2       21 -.164819272214D-02 0.100000000000D+01
0.138592294370D-05 0.000000000000D+00 0.000000000000D+00 0.621463138829D-06 0.000000000000D+00  6 2 3 25 24 1 3 4 0.26013356D+00 0.35232506D-02 0.24460498D+05 0.24460498D+05 0.24460498D+05 0.12243148D+01  1  2 12 10  6  2       21 0.838319454227D-03 0.100000000000D+01
0.138592294370D-05 0.000000000000D+00 0.000000000000D+00 0.621463138829D-06 0.000000000000D+00  6 2 4 25 24 1 4 4 0.26013356D+00 0.35232506D-02 0.24460498D+05 0.24460498D+05 0.24460498D+05 0.12243148D+01  1  2 12 10  6  2       21 0.755009922539D-03 0.100000000000D+01
0.144490743200D-05 0.000000000000D+00 0.000000000000D+00 0.621463138829D-06 0.000000000000D+00  6 2 3 25 24 1 3 4 0.26013356D+00 0.38277087D-02 0.24460498D+05 0.24460498D+05 0.24460498D+05 0.12243148D+01  1  2 12 10  6  2       21 0.767776659958D-03 0.100000000000D+01
0.144490743200D-05 0.000000000000D+00 0.000000000000D+00 0.621463138829D-06 0.000000000000D+00  6 2 4 25 24 1 4 4 0.26013356D+00 0.38277087D-02 0.24460498D+05 0.24460498D+05 0.24460498D+05 0.12243148D+01  1  2 12 10  6  2       21 0.690179375636D-03 0.100000000000D+01
-.303011980318D-05 0.000000000000D+00 -.235829692030D-06 0.631753862549D-06 0.000000000000D+00  6 2 3 25 24 1 3 4 0.26013356D+00 0.35833148D-02 0.19757487D+05 0.19757487D+05 0.19757487D+05 0.12344098D+01  1  2  5 10  6  2       21 -.183452493474D-02 0.100000000000D+01
-.303011980318D-05 0.000000000000D+00 -.235829692030D-06 0.631753862549D-06 0.000000000000D+00  6 2 4 25 24 1 4 4 0.26013356D+00 0.35833148D-02 0.19757487D+05 0.19757487D+05 0.19757487D+05 0.12344098D+01  1  2  5 10  6  2       21 -.164819272214D-02 0.100000000000D+01
  </mgrwgt>
  </event>
  <event>
  6     66 -.45638357E-03 0.30796073E+02 0.75467711E-02 0.12322164E+00
        2 -1    0    0  502    0 0.00000000E+00 0.00000000E+00 0.37332837E+03 0.37332851E+03 0.32000000E+00 0.0000E+00 0.9000E+01
       21 -1    0    0  501  503 0.00000000E+00 0.00000000E+00 -.77030324E+02 0.77033976E+02 0.75000000E+00 0.0000E+00 0.9000E+01
       25  1    1    2    0    0 -.17133574E+02 0.10070216E+02 0.10860563E+03 0.16677875E+03 0.12500000E+03 0.0000E+00 0.9000E+01
       24  1    1    2    0    0 -.18220398E+02 0.24863918E+01 0.21557507E+03 0.23082026E+03 0.80419002E+02 0.0000E+00 0.9000E+01
        1  1    1    2  501    0 0.35246432E+02 -.33402066E+01 -.20358089E+02 0.40841427E+02 0.32000000E+00 0.0000E+00 0.9000E+01
       21  1    1    2  502  503 0.10753999E+00 -.92164015E+01 -.75245650E+01 0.11922047E+02 0.75000000E+00 0.0000E+00 0.9000E+01
#aMCatNLO 2  0  0  2  1 0.92170289D+01 0.00000000D+00  -5  6  0 0.00000000D+00 0.00000000D+00 0.00000000D+00 0.00000000D+00 0.00000000D+00
  <mgrwgt>
 -.6600552154D-01    2    2    0
 0.157984875707833D+03 0.000000000000000D+00 0.000000000000000D+00 0.157984875707833D+03
 0.157984875707833D+03 0.000000000000000D+00 0.000000000000000D+00 -.157984875707833D+03
 0.126692659650088D+03 -.170905457012870D+02 0.637199102482857D+01 -.966131394918204D+01
 0.112920717764758D+03 -.181820796628541D+02 -.807074456602886D+00 0.771533094305921D+02
 0.763563740008196D+02 0.352726253641411D+02 -.556491656822569D+01 -.674919954814101D+02
 0.000000000000000D+00 0.000000000000000D+00 -.000000000000000D+00 -.000000000000000D+00
 0.158982559450976D+03 0.000000000000000D+00 0.000000000000000D+00 0.158982559450976D+03
 0.180877256409730D+03 0.000000000000000D+00 0.000000000000000D+00 -.180877256409730D+03
 0.126938230046309D+03 -.171336980345667D+02 0.100702359319567D+02 -.966131394918204D+01
 0.112951398039893D+03 -.182205091649997D+02 0.248641397825106D+01 0.771533094305921D+02
 0.762145278986548D+02 0.352466672073274D+02 -.334024842310705D+01 -.674919954814101D+02
 0.237556598758493D+02 0.107539992238959D+00 -.921640148710069D+01 -.218946969587540D+02
-.135806230051D-04 0.000000000000D+00 0.000000000000D+00 0.143901920830D-05 0.000000000000D+00  6 2 21 25 24 1 21 4 0.57072880D-01 0.11880429D-01 0.16089198D+05 0.16089198D+05 0.16089198D+05 0.12443668D+01  1  2 13  2  6  2       21 -.209036369984D+00 0.100000000000D+01
0.931329796854D-05 0.000000000000D+00 0.000000000000D+00 0.144745796832D-05 0.252060536152D-06  6 2 21 25 24 1 21 4 0.57433299D-01 0.11850672D-01 0.16089198D+05 0.16089198D+05 0.16089198D+05 0.12443668D+01  1  2  1  2  6  2       21 0.143030848448D+00 0.100000000000D+01
  </mgrwgt>
  </event>
  <event>
  6     66 0.45638357E-03 0.19283013E+03 0.75467711E-02 0.98442384E-01
        2 -1    0    0  502    0 0.00000000E+00 0.00000000E+00 0.92465713E+03 0.92465719E+03 0.32000000E+00 0.0000E+00 0.9000E+01
       21 -1    0    0  501  502 0.00000000E+00 0.00000000E+00 -.72448702E+03 0.72448741E+03 0.75000000E+00 0.0000E+00 0.9000E+01
       25  1    1    2    0    0 -.12064042E+03 0.21451447E+03 -.12383283E+03 0.30253948E+03 0.12500000E+03 0.0000E+00 0.9000E+01
       24  1    1    2    0    0 -.24912816E+03 0.14817971E+03 -.14035128E+03 0.33194542E+03 0.80419002E+02 0.0000E+00 0.9000E+01
        1  1    1    2  503    0 0.42676088E+02 -.35418442E+03 0.56860242E+03 0.67125008E+03 0.32000000E+00 0.0000E+00 0.9000E+01
       21  1    1    2  501  503 0.32709249E+03 -.85097546E+01 -.10424820E+03 0.34340961E+03 0.75000000E+00 0.0000E+00 0.9000E+01
#aMCatNLO 2  0  0  5  2 0.33882259D+03 0.00000000D+00  -5  6  0 0.00000000D+00 0.00000000D+00 0.00000000D+00 0.00000000D+00 0.00000000D+00
  <mgrwgt>
 0.1373270557D-01    1    2    0
 0.818475690096993D+03 0.000000000000000D+00 0.000000000000000D+00 0.818475690096993D+03
 0.818475690096993D+03 -.000000000000000D+00 -.000000000000000D+00 -.818475690096993D+03
 0.397005020040670D+03 -.170678225657807D+03 0.263594957911321D+03 -.208265761438419D+03
 0.441172532446038D+03 -.304457174472362D+03 0.202450173006492D+03 -.233421815159653D+03
 0.798773827707277D+03 0.475135400130169D+03 -.466045130917813D+03 0.441687576598072D+03
 0.000000000000000D+00 0.000000000000000D+00 0.000000000000000D+00 -.000000000000000D+00
 0.818475690096993D+03 0.000000000000000D+00 0.000000000000000D+00 0.818475690096993D+03
 0.818475690096993D+03 -.000000000000000D+00 -.000000000000000D+00 -.818475690096993D+03
 0.319908724933528D+03 -.120622573849232D+03 0.214496968593091D+03 -.161733847511759D+03
 0.351549024538718D+03 -.249108543600445D+03 0.148160469663492D+03 -.181969528861598D+03
 0.606554800642291D+03 0.423793800914449D+02 -.354035302716880D+03 0.490684948572341D+03
 0.358938830079448D+03 0.327351737358232D+03 -.862213553970324D+01 -.146981572198984D+03
0.457339078440D-03 0.000000000000D+00 0.000000000000D+00 0.100587702132D-06 0.187343684298D-10  6 2 21 25 24 1 21 4 0.14225498D+00 0.11145958D+00 0.39742353D+06 0.39742353D+06 0.39742353D+06 0.11122336D+01  1  2  1  3  6  5        1 0.137327055683D-01 0.100000000000D+01
  </mgrwgt>
  </event>
  <event>
  5     66 0.45638357E-03 0.57292582E+02 0.75467711E-02 0.95148686E-01
        2 -1    0    0  502    0 0.00000000E+00 0.00000000E+00 0.34540383E+03 0.34540398E+03 0.32000000E+00 0.0000E+00 0.9000E+01
       21 -1    0    0  501  502 0.00000000E+00 0.00000000E+00 -.30615091E+03 0.30615183E+03 0.75000000E+00 0.0000E+00 0.9000E+01
       25  1    1    2    0    0 0.12457165E+03 0.71657917E+02 0.86027234E+02 0.20899435E+03 0.12500000E+03 0.0000E+00 0.9000E+01
       24  1    1    2    0    0 -.99848116E+02 -.19974425E+02 0.17254171E+03 0.21588535E+03 0.80419002E+02 0.0000E+00 0.9000E+01
        1  1    1    2  501    0 -.24723530E+02 -.51683492E+02 -.21931603E+03 0.22667611E+03 0.32000000E+00 0.0000E+00 0.9000E+01
#aMCatNLO 1  0  0  2  5 0.22228748D+03 0.00000000D+00  -5  6  0 0.00000000D+00 0.00000000D+00 0.00000000D+00 0.00000000D+00 0.00000000D+00
  <mgrwgt>
 0.3058375489D+00    3    2    0
 0.325186168014591D+03 0.000000000000000D+00 0.000000000000000D+00 0.325186168014591D+03
 0.325186168014591D+03 0.000000000000000D+00 0.000000000000000D+00 -.325186168014591D+03
 0.204182548533608D+03 0.124571652620561D+03 0.716579310429489D+02 0.735700850054242D+02
 0.205864560329826D+03 -.998481090656481D+02 -.199744101896012D+02 0.159826090795634D+03
 0.240325227165748D+03 -.247235435549126D+02 -.516835208533477D+02 -.233396175801058D+03
 0.000000000000000D+00 0.000000000000000D+00 0.000000000000000D+00 0.000000000000000D+00
 0.132172573411250D+04 0.000000000000000D+00 0.000000000000000D+00 0.132172573411250D+04
 0.687845568942937D+03 0.000000000000000D+00 0.000000000000000D+00 -.687845568942937D+03
 0.146848430174425D+03 -.103374131458428D+02 -.204949244067845D+02 0.735700850054242D+02
 0.431073729954416D+03 -.344637757003154D+03 -.187183818347802D+03 0.159826090795634D+03
 0.432133299851173D+03 -.283164413874683D+03 -.228217722091675D+03 -.233396175801058D+03
 0.999515843075426D+03 0.638139584023679D+03 0.435896464846262D+03 0.633880165169566D+03
0.311580298457D-03 0.000000000000D+00 0.000000000000D+00 0.170520333889D-05 0.000000000000D+00  6 2 21 25 24 1 21 2 0.53139132D-01 0.47100222D-01 0.35629073D+05 0.35629073D+05 0.35629073D+05 0.12071374D+01  1  2  2  2  6  2       21 0.228619591196D+00 0.100000000000D+01
0.403373795640D-04 0.164425440830D-04 -.628990852322D-06 0.170520333889D-05 0.000000000000D+00  6 2 21 25 24 1 21 4 0.53139132D-01 0.47100222D-01 0.35629073D+05 0.35629073D+05 0.35629073D+05 0.12071374D+01  1  2  3  2  6  2       21 0.431285183553D-01 0.100000000000D+01
0.318832806111D-04 0.000000000000D+00 0.000000000000D+00 0.170520333889D-05 0.000000000000D+00  6 2 21 25 24 1 21 4 0.53139132D-01 0.47100222D-01 0.35629073D+05 0.35629073D+05 0.35629073D+05 0.12071374D+01  1  2 15  2  6  2       21 0.340894393221D-01 0.100000000000D+01
  </mgrwgt>
  </event>
  <event>
  5     66 0.45638357E-03 0.89238920E+02 0.75467711E-02 0.11560601E+00
        2 -1    0    0  502    0 0.00000000E+00 0.00000000E+00 0.14156621E+04 0.14156621E+04 0.32000000E+00 0.0000E+00 0.9000E+01
       21 -1    0    0  501  502 0.00000000E+00 0.00000000E+00 -.27261468E+02 0.27271783E+02 0.75000000E+00 0.0000E+00 0.9000E+01
       25  1    1    2    0    0 0.89570723E+02 -.84230406E+02 0.48511503E+03 0.51582872E+03 0.12500000E+03 0.0000E+00 0.9000E+01
       24  1    1    2    0    0 -.41917067E+01 0.43456296E+02 0.23554996E+03 0.25269947E+03 0.80419002E+02 0.0000E+00 0.9000E+01
        1  1    1    2  501    0 -.85379016E+02 0.40774110E+02 0.66773563E+03 0.67440572E+03 0.32000000E+00 0.0000E+00 0.9000E+01
#aMCatNLO 1  0  0  2  1 0.24105544D+02 0.00000000D+00  -5  6  0 0.00000000D+00 0.00000000D+00 0.00000000D+00 0.00000000D+00 0.00000000D+00
  <mgrwgt>
 0.5849966928D-01   32    2    0
 0.196470085442760D+03 0.000000000000000D+00 0.000000000000000D+00 0.196470085442760D+03
 0.196470085442760D+03 0.000000000000000D+00 0.000000000000000D+00 -.196470085442760D+03
 0.180110862514867D+03 0.895708687248604D+02 -.842304753583317D+02 -.411972000581665D+02
 0.956657470875045D+02 -.419162917130416D+01 0.434562585226402D+02 -.279052513255761D+02
 0.117163561283148D+03 -.853792395535562D+02 0.407742168356915D+02 0.691024513837426D+02
 0.000000000000000D+00 -.000000000000000D+00 -.000000000000000D+00 -.000000000000000D+00
 0.201240149203060D+03 0.000000000000000D+00 0.000000000000000D+00 0.201240149203060D+03
 0.229849842537655D+03 0.000000000000000D+00 0.000000000000000D+00 -.229849842537655D+03
 0.184549713349558D+03 0.100421688908324D+03 -.815590080958036D+02 -.411972000581665D+02
 0.962332172623043D+02 0.151850593342065D+01 0.448620913296507D+02 -.279052513255761D+02
 0.112895942506122D+03 -.785336015209923D+02 0.424596099751873D+02 0.691024513837426D+02
 0.374111186227314D+02 -.234065933207521D+02 -.576269320903439D+01 -.286096933345947D+02
0.201268706784D-05 0.000000000000D+00 0.000000000000D+00 0.143289072980D-06 0.000000000000D+00  6 2 21 25 24 1 21 2 0.21779496D+00 0.41948682D-02 0.32662823D+05 0.32662823D+05 0.32662823D+05 0.12110412D+01  1  2  2  2  6  2       21 0.208109425218D-01 0.100000000000D+01
-.235444965713D-06 0.106212414591D-06 -.406303530912D-08 0.143289072980D-06 0.000000000000D+00  6 2 21 25 24 1 21 4 0.21779496D+00 0.41948682D-02 0.32662823D+05 0.32662823D+05 0.32662823D+05 0.12110412D+01  1  2  3  2  6  2       21 -.357044825874D-02 0.100000000000D+01
0.220276711981D-06 0.000000000000D+00 0.000000000000D+00 0.143289072980D-06 0.000000000000D+00  6 2 21 25 24 1 21 4 0.21779496D+00 0.41948682D-02 0.32662823D+05 0.32662823D+05 0.32662823D+05 0.12110412D+01  1  2 15  2  6  2       21 0.334042649990D-02 0.100000000000D+01
0.756370871002D-05 0.000000000000D+00 0.000000000000D+00 0.141933696607D-06 0.000000000000D+00  6 2 21 25 24 1 21 4 0.21779496D+00 0.49527156D-02 0.37128187D+05 0.37128187D+05 0.37128187D+05 0.12053000D+01  1  2 12  2  6  2       21 0.849184092954D-01 0.100000000000D+01
0.699318463743D-05 0.000000000000D+00 0.000000000000D+00 0.141933696607D-06 0.000000000000D+00  6 2 21 25 24 1 21 4 0.21779496D+00 0.50116810D-02 0.37128187D+05 0.37128187D+05 0.37128187D+05 0.12053000D+01  1  2 12  2  6  2       21 0.769536369835D-01 0.100000000000D+01
-.136526196103D-04 0.000000000000D+00 0.000000000000D+00 0.143289072980D-06 0.000000000000D+00  6 2 21 25 24 1 21 4 0.21779496D+00 0.41948682D-02 0.32662823D+05 0.32662823D+05 0.32662823D+05 0.12110412D+01  1  2  4  2  6  2       21 -.207037647917D+00 0.100000000000D+01
-.241165021861D-04 0.000000000000D+00 -.382444019204D-05 0.143289072980D-06 0.000000000000D+00  6 2 21 25 24 1 21 4 0.21779496D+00 0.50301109D-02 0.32662823D+05 0.32662823D+05 0.32662823D+05 0.12110412D+01  1  2  5  2  6  2       21 -.269279146643D+00 0.100000000000D+01
0.233451648315D-04 0.000000000000D+00 0.358356329662D-05 0.143289072980D-06 0.000000000000D+00  6 2 21 25 24 1 21 4 0.21779496D+00 0.41948682D-02 0.32662823D+05 0.32662823D+05 0.32662823D+05 0.12110412D+01  1  2  6  2  6  2       21 0.354022023237D+00 0.100000000000D+01
0.347437538998D-06 0.000000000000D+00 0.000000000000D+00 0.141933696607D-06 0.000000000000D+00  6 2 -1 25 24 1 -1 4 0.21779496D+00 0.49527156D-02 0.37128187D+05 0.37128187D+05 0.37128187D+05 0.12053000D+01  1  2 12  5  6  2       21 0.225158732545D-03 0.100000000000D+01
0.348642870768D-06 0.000000000000D+00 0.000000000000D+00 0.141933696607D-06 0.000000000000D+00  6 2 -1 25 24 1 -1 4 0.21779496D+00 0.50116810D-02 0.37128187D+05 0.37128187D+05 0.37128187D+05 0.12053000D+01  1  2 12  5  6  2       21 0.221984726733D-03 0.100000000000D+01
-.105910006477D-05 0.000000000000D+00 -.195374756679D-06 0.143289072980D-06 0.000000000000D+00  6 2 -1 25 24 1 -1 4 0.21779496D+00 0.50301109D-02 0.32662823D+05 0.32662823D+05 0.32662823D+05 0.12110412D+01  1  2  5  5  6  2       21 -.683174331144D-03 0.100000000000D+01
0.347437538998D-06 0.000000000000D+00 0.000000000000D+00 0.141933696607D-06 0.000000000000D+00  6 2 1 25 24 1 1 4 0.21779496D+00 0.49527156D-02 0.37128187D+05 0.37128187D+05 0.37128187D+05 0.12053000D+01  1  2 12  6  6  2       21 0.253272246251D-03 0.100000000000D+01
0.348642870768D-06 0.000000000000D+00 0.000000000000D+00 0.141933696607D-06 0.000000000000D+00  6 2 1 25 24 1 1 4 0.21779496D+00 0.50116810D-02 0.37128187D+05 0.37128187D+05 0.37128187D+05 0.12053000D+01  1  2 12  6  6  2       21 0.250033012977D-03 0.100000000000D+01
-.105910006477D-05 0.000000000000D+00 -.195374756679D-06 0.143289072980D-06 0.000000000000D+00  6 2 1 25 24 1 1 4 0.21779496D+00 0.50301109D-02 0.32662823D+05 0.32662823D+05 0.32662823D+05 0.12110412D+01  1  2  5  6  6  2       21 -.769954858108D-03 0.100000000000D+01
0.347437538998D-06 0.000000000000D+00 0.000000000000D+00 0.141933696607D-06 0.000000000000D+00  6 2 -2 25 24 1 -2 4 0.21779496D+00 0.49527156D-02 0.37128187D+05 0.37128187D+05 0.37128187D+05 0.12053000D+01  1  2 12  7  6  2       21 0.220207360155D-03 0.100000000000D+01
0.348642870768D-06 0.000000000000D+00 0.000000000000D+00 0.141933696607D-06 0.000000000000D+00  6 2 -2 25 24 1 -2 4 0.21779496D+00 0.50116810D-02 0.37128187D+05 0.37128187D+05 0.37128187D+05 0.12053000D+01  1  2 12  7  6  2       21 0.217046715152D-03 0.100000000000D+01
-.105910006477D-05 0.000000000000D+00 -.195374756679D-06 0.143289072980D-06 0.000000000000D+00  6 2 -2 25 24 1 -2 4 0.21779496D+00 0.50301109D-02 0.32662823D+05 0.32662823D+05 0.32662823D+05 0.12110412D+01  1  2  5  7  6  2       21 -.667892255014D-03 0.100000000000D+01
0.347437538998D-06 0.000000000000D+00 0.000000000000D+00 0.141933696607D-06 0.000000000000D+00  6 2 2 25 24 1 2 4 0.21779496D+00 0.49527156D-02 0.37128187D+05 0.37128187D+05 0.37128187D+05 0.12053000D+01  1  2 12  8  6  2       21 0.272214038267D-03 0.100000000000D+01
0.348642870768D-06 0.000000000000D+00 0.000000000000D+00 0.141933696607D-06 0.000000000000D+00  6 2 2 25 24 1 2 4 0.21779496D+00 0.50116810D-02 0.37128187D+05 0.37128187D+05 0.37128187D+05 0.12053000D+01  1  2 12  8  6  2       21 0.268928422856D-03 0.100000000000D+01
-.105910006477D-05 0.000000000000D+00 -.195374756679D-06 0.143289072980D-06 0.000000000000D+00  6 2 2 25 24 1 2 4 0.21779496D+00 0.50301109D-02 0.32662823D+05 0.32662823D+05 0.32662823D+05 0.12110412D+01  1  2  5  8  6  2       21 -.828382420482D-03 0.100000000000D+01
0.347437538998D-06 0.000000000000D+00 0.000000000000D+00 0.141933696607D-06 0.000000000000D+00  6 2 -3 25 24 1 -3 4 0.21779496D+00 0.49527156D-02 0.37128187D+05 0.37128187D+05 0.37128187D+05 0.12053000D+01  1  2 12  9  6  2       21 0.162540520474D-03 0.100000000000D+01
0.347437538998D-06 0.000000000000D+00 0.000000000000D+00 0.141933696607D-06 0.000000000000D+00  6 2 -4 25 24 1 -4 4 0.21779496D+00 0.49527156D-02 0.37128187D+05 0.37128187D+05 0.37128187D+05 0.12053000D+01  1  2 12  9  6  2       21 0.145743545125D-03 0.100000000000D+01
0.348642870768D-06 0.000000000000D+00 0.000000000000D+00 0.141933696607D-06 0.000000000000D+00  6 2 -3 25 24 1 -3 4 0.21779496D+00 0.50116810D-02 0.37128187D+05 0.37128187D+05 0.37128187D+05 0.12053000D+01  1  2 12  9  6  2       21 0.160057216827D-03 0.100000000000D+01
0.348642870768D-06 0.000000000000D+00 0.000000000000D+00 0.141933696607D-06 0.000000000000D+00  6 2 -4 25 24 1 -4 4 0.21779496D+00 0.50116810D-02 0.37128187D+05 0.37128187D+05 0.37128187D+05 0.12053000D+01  1  2 12  9  6  2       21 0.143473795054D-03 0.100000000000D+01
-.105910006477D-05 0.000000000000D+00 -.195374756679D-06 0.143289072980D-06 0.000000000000D+00  6 2 -3 25 24 1 -3 4 0.21779496D+00 0.50301109D-02 0.32662823D+05 0.32662823D+05 0.32662823D+05 0.12110412D+01  1  2  5  9  6  2       21 -.491118845566D-03 0.100000000000D+01
-.105910006477D-05 0.000000000000D+00 -.195374756679D-06 0.143289072980D-06 0.000000000000D+00  6 2 -4 25 24 1 -4 4 0.21779496D+00 0.50301109D-02 0.32662823D+05 0.32662823D+05 0.32662823D+05 0.12110412D+01  1  2  5  9  6  2       21 -.439688392174D-03 0.100000000000D+01
0.347437538998D-06 0.000000000000D+00 0.000000000000D+00 0.141933696607D-06 0.000000000000D+00  6 2 3 25 24 1 3 4 0.21779496D+00 0.49527156D-02 0.37128187D+05 0.37128187D+05 0.37128187D+05 0.12053000D+01  1  2 12 10  6  2       21 0.162525337215D-03 0.100000000000D+01
0.347437538998D-06 0.000000000000D+00 0.000000000000D+00 0.141933696607D-06 0.000000000000D+00  6 2 4 25 24 1 4 4 0.21779496D+00 0.49527156D-02 0.37128187D+05 0.37128187D+05 0.37128187D+05 0.12053000D+01  1  2 12 10  6  2       21 0.145743545125D-03 0.100000000000D+01
0.348642870768D-06 0.000000000000D+00 0.000000000000D+00 0.141933696607D-06 0.000000000000D+00  6 2 3 25 24 1 3 4 0.21779496D+00 0.50116810D-02 0.37128187D+05 0.37128187D+05 0.37128187D+05 0.12053000D+01  1  2 12 10  6  2       21 0.160042177011D-03 0.100000000000D+01
0.348642870768D-06 0.000000000000D+00 0.000000000000D+00 0.141933696607D-06 0.000000000000D+00  6 2 4 25 24 1 4 4 0.21779496D+00 0.50116810D-02 0.37128187D+05 0.37128187D+05 0.37128187D+05 0.12053000D+01  1  2 12 10  6  2       21 0.143473795054D-03 0.100000000000D+01
-.105910006477D-05 0.000000000000D+00 -.195374756679D-06 0.143289072980D-06 0.000000000000D+00  6 2 3 25 24 1 3 4 0.21779496D+00 0.50301109D-02 0.32662823D+05 0.32662823D+05 0.32662823D+05 0.12110412D+01  1  2  5 10  6  2       21 -.491072135732D-03 0.100000000000D+01
-.105910006477D-05 0.000000000000D+00 -.195374756679D-06 0.143289072980D-06 0.000000000000D+00  6 2 4 25 24 1 4 4 0.21779496D+00 0.50301109D-02 0.32662823D+05 0.32662823D+05 0.32662823D+05 0.12110412D+01  1  2  5 10  6  2       21 -.439688392174D-03 0.100000000000D+01
  </mgrwgt>
  </event>
  <event>
  5     66 0.45638357E-03 0.11016889E+03 0.75467711E-02 0.11094845E+00
        2 -1    0    0  502    0 0.00000000E+00 0.00000000E+00 0.13853513E+04 0.13853513E+04 0.32000000E+00 0.0000E+00 0.9000E+01
       21 -1    0    0  501  502 0.00000000E+00 0.00000000E+00 -.49849411E+02 0.49855053E+02 0.75000000E+00 0.0000E+00 0.9000E+01
       25  1    1    2    0    0 0.45530561E+02 0.22258369E+03 0.81695582E+03 0.85712212E+03 0.12500000E+03 0.0000E+00 0.9000E+01
       24  1    1    2    0    0 -.25049202E+02 -.11433575E+03 0.24493551E+03 0.28312673E+03 0.80419002E+02 0.0000E+00 0.9000E+01
        1  1    1    2  501    0 -.20481358E+02 -.10824794E+03 0.27361057E+03 0.29495754E+03 0.32000000E+00 0.0000E+00 0.9000E+01
#aMCatNLO 1  0  0  1  2 0.79016245D+00 0.00000000D+00  -5  6  0 0.00000000D+00 0.00000000D+00 0.00000000D+00 0.00000000D+00 0.00000000D+00
  <mgrwgt>
 0.3084486493D+00   10    2    0
 0.262798443374747D+03 0.000000000000000D+00 0.000000000000000D+00 0.262798443374747D+03
 0.262798443374747D+03 0.000000000000000D+00 0.000000000000000D+00 -.262798443374747D+03
 0.264653817158037D+03 0.455306040710394D+02 0.222583924216825D+03 0.529150612726158D+02
 0.150749383595568D+03 -.250491775729372D+02 -.114335623852400D+03 -.505773123176298D+02
 0.110193685995888D+03 -.204814264981022D+02 -.108248300364425D+03 -.233774895498601D+01
 0.000000000000000D+00 -.000000000000000D+00 0.000000000000000D+00 0.000000000000000D+00
 0.263198965277254D+03 0.000000000000000D+00 0.000000000000000D+00 0.263198965277254D+03
 0.263188743979462D+03 0.000000000000000D+00 0.000000000000000D+00 -.263188743979462D+03
 0.264668615778029D+03 0.459234473186489D+02 0.222520806790611D+03 0.529150612726158D+02
 0.150739640024646D+03 -.248254237325782D+02 -.114371573984151D+03 -.505773123176298D+02
 0.110189224896632D+03 -.203178665712114D+02 -.108274579247109D+03 -.233774895498601D+01
 0.790228557409814D+00 -.780157014859308D+00 0.125346440648511D+00 0.102212977922309D-01
0.882921516690D-05 0.000000000000D+00 0.000000000000D+00 0.623776145698D-07 0.000000000000D+00  6 2 21 25 24 1 21 2 0.21313141D+00 0.76695770D-02 0.65405627D+05 0.65405627D+05 0.65405627D+05 0.11808996D+01  1  2  2  1  6  1        2 0.316654051785D-01 0.100000000000D+01
-.544278773744D-06 0.465930485075D-06 -.178236416123D-07 0.623776145698D-07 0.000000000000D+00  6 2 21 25 24 1 21 4 0.21313141D+00 0.76695770D-02 0.65405627D+05 0.65405627D+05 0.65405627D+05 0.11808996D+01  1  2  3  1  6  1        2 -.272213901012D-02 0.100000000000D+01
0.102326089477D-05 0.000000000000D+00 0.000000000000D+00 0.623776145698D-07 0.000000000000D+00  6 2 21 25 24 1 21 4 0.21313141D+00 0.76695770D-02 0.65405627D+05 0.65405627D+05 0.65405627D+05 0.11808996D+01  1  2 15  1  6  1        2 0.511770536266D-02 0.100000000000D+01
-.642158593096D-03 0.000000000000D+00 0.000000000000D+00 0.623776145698D-07 0.000000000000D+00  6 2 21 25 24 1 21 4 0.21313141D+00 0.76695770D-02 0.65405627D+05 0.65405627D+05 0.65405627D+05 0.11808996D+01  1  2  4  1  6  1        2 -.321167210862D+01 0.100000000000D+01
-.139427712127D-01 0.000000000000D+00 -.113690164910D-02 0.623776145698D-07 0.000000000000D+00  6 2 21 25 24 1 21 4 0.21366081D+00 0.76695770D-02 0.65405627D+05 0.65405627D+05 0.65405627D+05 0.11808996D+01  1  2  5  1  6  1        2 -.694328591631D+02 0.100000000000D+01
0.139455522762D-01 0.000000000000D+00 0.113689815051D-02 0.623776145698D-07 0.000000000000D+00  6 2 21 25 24 1 21 4 0.21313141D+00 0.76695770D-02 0.65405627D+05 0.65405627D+05 0.65405627D+05 0.11808996D+01  1  2  6  1  6  1        2 0.697468534508D+02 0.100000000000D+01
0.641017066801D-03 0.000000000000D+00 0.000000000000D+00 0.623776145698D-07 0.119920834276D-05  6 2 21 25 24 1 21 4 0.21345623D+00 0.76809676D-02 0.65607940D+05 0.65607940D+05 0.65607940D+05 0.11807707D+01  1  2 11  1  6  1        2 0.318756066722D+01 0.100000000000D+01
0.636469565811D-12 0.000000000000D+00 0.000000000000D+00 0.623639936444D-07 0.000000000000D+00  6 21 21 25 24 1 -2 4 0.21361426D+00 0.76695770D-02 0.65607940D+05 0.65607940D+05 0.65607940D+05 0.11807707D+01  1  2 12  4  6  1        2 0.167931621557D-08 0.100000000000D+01
-.645892019080D-05 0.000000000000D+00 -.526877392316D-06 0.623776145698D-07 0.000000000000D+00  6 21 21 25 24 1 -2 4 0.21366081D+00 0.76695770D-02 0.65405627D+05 0.65405627D+05 0.65405627D+05 0.11808996D+01  1  2  5  4  6  1        2 -.170420218299D-01 0.100000000000D+01
0.586438724538D-06 0.000000000000D+00 0.000000000000D+00 0.623776145698D-07 0.376003073390D-09  6 21 21 25 24 1 -2 4 0.21345623D+00 0.76809676D-02 0.65607940D+05 0.65607940D+05 0.65607940D+05 0.11807707D+01  1  2 11  4  6  1        2 0.154685150992D-02 0.100000000000D+01
  </mgrwgt>
  </event>
  <event>
  6     66 -.45638357E-03 0.15581164E+02 0.75467711E-02 0.11891560E+00
        2 -1    0    0  502    0 0.00000000E+00 0.00000000E+00 0.14626014E+04 0.14626014E+04 0.32000000E+00 0.0000E+00 0.9000E+01
       21 -1    0    0  501  503 0.00000000E+00 0.00000000E+00 -.23677848E+02 0.23689723E+02 0.75000000E+00 0.0000E+00 0.9000E+01
       25  1    1    2    0    0 -.84863103E+02 0.34363847E+02 0.61220580E+03 0.63150896E+03 0.12500000E+03 0.0000E+00 0.9000E+01
       24  1    1    2    0    0 0.10337044E+03 -.10009019E+02 0.79673289E+03 0.80748755E+03 0.80419002E+02 0.0000E+00 0.9000E+01
        1  1    1    2  501    0 -.78844320E+01 -.19842122E+02 0.28531888E+02 0.35637692E+02 0.32000000E+00 0.0000E+00 0.9000E+01
       21  1    1    2  502  503 -.10622909E+02 -.45127059E+01 0.14529556E+01 0.11656941E+02 0.75000000E+00 0.0000E+00 0.9000E+01
#aMCatNLO 2  0  0  2  5 0.11541694D+02 0.00000000D+00  -5  6  0 0.00000000D+00 0.00000000D+00 0.00000000D+00 0.00000000D+00 0.00000000D+00
  <mgrwgt>
 -.5213094805D+00    3    2    0
 0.164386088472402D+03 0.000000000000000D+00 0.000000000000000D+00 0.164386088472402D+03
 0.164386088472402D+03 0.000000000000000D+00 0.000000000000000D+00 -.164386088472402D+03
 0.158052527638592D+03 -.899299536896671D+02 0.322117238233094D+02 -.151858411243216D+02
 0.135096026938479D+03 0.989565286393854D+02 -.118838163265353D+02 0.430127991341107D+02
 0.356236223677330D+02 -.902657494971830D+01 -.203279074967741D+02 -.278269580097891D+02
 0.000000000000000D+00 -.000000000000000D+00 -.000000000000000D+00 -.000000000000000D+00
 0.165224800389395D+03 0.000000000000000D+00 0.000000000000000D+00 0.165224800389395D+03
 0.209646642945792D+03 0.000000000000000D+00 0.000000000000000D+00 -.209646642945792D+03
 0.155686311805348D+03 -.848629300015928D+02 0.343642404898434D+02 -.151858411243216D+02
 0.138213500048092D+03 0.103370600706050D+03 -.100086793081037D+02 0.430127991341107D+02
 0.350748908749697D+02 -.788476209050289D+01 -.198428552529276D+02 -.278269580097891D+02
 0.458967406067759D+02 -.106229086139545D+02 -.451270592881217D+01 -.444218425563968D+02
-.291840812755D-04 0.000000000000D+00 0.000000000000D+00 0.122517202013D-05 0.000000000000D+00  6 2 21 25 24 1 21 4 0.22387015D+00 0.36495061D-02 0.25470214D+05 0.25470214D+05 0.25470214D+05 0.12224310D+01  1  2 13  2  6  2       21 -.553737481310D+00 0.100000000000D+01
-.212708584380D-04 0.000000000000D+00 0.000000000000D+00 0.122517202013D-05 0.000000000000D+00  6 2 21 25 24 1 21 4 0.22387015D+00 0.39583801D-02 0.25470214D+05 0.25470214D+05 0.25470214D+05 0.12224310D+01  1  2 13  2  6  2       21 -.352516703332D+00 0.100000000000D+01
0.204167397410D-04 0.000000000000D+00 0.000000000000D+00 0.123208175839D-05 0.193061214278D-06  6 2 21 25 24 1 21 4 0.22501236D+00 0.36435947D-02 0.25470214D+05 0.25470214D+05 0.25470214D+05 0.12224310D+01  1  2  1  2  6  2       21 0.384944704092D+00 0.100000000000D+01
  </mgrwgt>
  </event>
  <event>
  5     66 -.45638357E-03 0.29406663E+02 0.75467711E-02 0.12258968E+00
        2 -1    0    0  502    0 0.00000000E+00 0.00000000E+00 0.12043073E+03 0.12043115E+03 0.32000000E+00 0.0000E+00 0.9000E+01
       21 -1    0    0  501  502 -.00000000E+00 -.00000000E+00 -.27987156E+03 0.27987257E+03 0.75000000E+00 0.0000E+00 0.9000E+01
       25  1    1    2    0    0 -.23972979E+02 0.15400468E+02 0.15281197E+02 0.12911388E+03 0.12500000E+03 0.0000E+00 0.9000E+01
       24  1    1    2    0    0 0.47561991E+02 0.21581774E+01 0.56027064E+00 0.93457640E+02 0.80419002E+02 0.0000E+00 0.9000E+01
        1  1    1    2  501    0 -.23589012E+02 -.17558645E+02 -.17528230E+03 0.17773220E+03 0.32000000E+00 0.0000E+00 0.9000E+01
#aMCatNLO 1  0  0  5  2 0.10144715D+02 0.00000000D+00  -5  6  0 0.00000000D+00 0.00000000D+00 0.00000000D+00 0.00000000D+00 0.00000000D+00
  <mgrwgt>
 -.1408318866D+00    6    2    0
 0.183590364701246D+03 0.000000000000000D+00 0.000000000000000D+00 0.183590364701246D+03
 0.183590364701246D+03 -.000000000000000D+00 -.000000000000000D+00 -.183590364701246D+03
 0.147396737179855D+03 -.239729441850975D+02 0.154004939535196D+02 0.727249672695221D+02
 0.102131702052752D+03 0.475620151467486D+02 0.215819544147735D+01 0.411930275342616D+02
 0.117652290169884D+03 -.235890709616511D+02 -.175586893949969D+02 -.113917994803784D+03
 0.000000000000000D+00 0.000000000000000D+00 0.000000000000000D+00 -.000000000000000D+00
 0.183590364701246D+03 0.000000000000000D+00 0.000000000000000D+00 0.183590364701246D+03
 0.183590364701246D+03 -.000000000000000D+00 -.000000000000000D+00 -.183590364701246D+03
 0.146726866621632D+03 -.242669741921972D+02 0.151816306682352D+02 0.713050169511991D+02
 0.101640724278085D+03 0.473583075653564D+02 0.200656428334959D+01 0.402092686047021D+02
 0.100815801794315D+03 -.298173877589104D+02 -.125127496153767D+02 -.954891636560311D+02
 0.179973367084591D+02 0.672605438575132D+01 -.467544533620817D+01 -.160251218998700D+02
0.754616822698D-05 0.000000000000D+00 0.000000000000D+00 0.517860387477D-05 0.000000000000D+00  6 2 21 25 24 1 21 2 0.18527914D-01 0.43057274D-01 0.15758914D+05 0.15758914D+05 0.15758914D+05 0.12453863D+01  1  2  2  3  6  5        1 0.226346081508D-01 0.100000000000D+01
0.117358057267D-05 0.398222237876D-06 -.152335395028D-07 0.517860387477D-05 0.000000000000D+00  6 2 21 25 24 1 21 4 0.18527914D-01 0.43057274D-01 0.15758914D+05 0.15758914D+05 0.15758914D+05 0.12453863D+01  1  2  3  3  6  5        1 0.545968488851D-02 0.100000000000D+01
0.723558665765D-06 0.000000000000D+00 0.000000000000D+00 0.517860387477D-05 0.000000000000D+00  6 2 21 25 24 1 21 4 0.18527914D-01 0.43057274D-01 0.15758914D+05 0.15758914D+05 0.15758914D+05 0.12453863D+01  1  2 15  3  6  5        1 0.336611086229D-02 0.100000000000D+01
-.432676236800D-04 0.000000000000D+00 0.000000000000D+00 0.517860387477D-05 0.000000000000D+00  6 2 21 25 24 1 21 4 0.18527914D-01 0.43057274D-01 0.15758914D+05 0.15758914D+05 0.15758914D+05 0.12453863D+01  1  2  4  3  6  5        1 -.201287918929D+00 0.100000000000D+01
-.378863293991D-04 0.000000000000D+00 0.000000000000D+00 0.517860387477D-05 0.000000000000D+00  6 2 21 25 24 1 21 4 0.18527914D-01 0.43057274D-01 0.15758914D+05 0.15758914D+05 0.15758914D+05 0.12453863D+01  1  2  5  3  6  5        1 -.176253275590D+00 0.100000000000D+01
0.441190528757D-04 0.000000000000D+00 -.000000000000D+00 0.517860387477D-05 0.000000000000D+00  6 2 21 25 24 1 21 4 0.18527914D-01 0.43057274D-01 0.15758914D+05 0.15758914D+05 0.15758914D+05 0.12453863D+01  1  2  6  3  6  5        1 0.205248903988D+00 0.100000000000D+01
  </mgrwgt>
  </event>
  <event>
  6     66 -.45638357E-03 0.18021304E+02 0.75467711E-02 0.11820440E+00
        2 -1    0    0  502    0 0.00000000E+00 0.00000000E+00 0.66635903E+03 0.66635911E+03 0.32000000E+00 0.0000E+00 0.9000E+01
       21 -1    0    0  503  502 0.00000000E+00 0.00000000E+00 -.46325949E+02 0.46332020E+02 0.75000000E+00 0.0000E+00 0.9000E+01
       25  1    1    2    0    0 0.10560502E+02 -.92073292E+02 0.33078041E+03 0.36555396E+03 0.12500000E+03 0.0000E+00 0.9000E+01
       24  1    1    2    0    0 0.41219314E+02 0.82902705E+02 0.14892189E+03 0.19291666E+03 0.80419002E+02 0.0000E+00 0.9000E+01
        1  1    1    2  501    0 -.27958516E+02 0.10759780E+02 0.11720643E+03 0.12097479E+03 0.32000000E+00 0.0000E+00 0.9000E+01
       21  1    1    2  503  501 -.23821300E+02 -.15891928E+01 0.23124348E+02 0.33245719E+02 0.75000000E+00 0.0000E+00 0.9000E+01
#aMCatNLO 2  0  0  2  1 0.23874251D+02 0.00000000D+00  -5  6  0 0.00000000D+00 0.00000000D+00 0.00000000D+00 0.00000000D+00 0.00000000D+00
  <mgrwgt>
 -.6585017391D-01    2    2    0
 0.161845642103784D+03 0.000000000000000D+00 0.000000000000000D+00 0.161845642103784D+03
 0.161845642103784D+03 0.000000000000000D+00 0.000000000000000D+00 -.161845642103784D+03
 0.157010761131458D+03 -.974463242856913D+00 -.928430234871543D+02 0.201643874747474D+02
 0.126879991960304D+03 0.317814897194731D+02 0.822729184641834D+02 -.430397514406532D+02
 0.398005311158058D+02 -.308070264766162D+02 0.105701050229709D+02 0.228753639659058D+02
 0.000000000000000D+00 -.000000000000000D+00 -.000000000000000D+00 -.000000000000000D+00
 0.169447483061377D+03 0.000000000000000D+00 0.000000000000000D+00 0.169447483061377D+03
 0.182180628772672D+03 0.000000000000000D+00 0.000000000000000D+00 -.182180628772672D+03
 0.156909714913574D+03 0.105609900408042D+02 -.920734576378309D+02 0.201643874747474D+02
 0.129967447087194D+03 0.412197132832504D+02 0.829025716173239D+02 -.430397514406532D+02
 0.376933655285315D+02 -.279594032958289D+02 0.107600787932067D+02 0.228753639659058D+02
 0.270575843047489D+02 -.238213000282257D+02 -.158919277269963D+01 -.127331457112941D+02
-.521478982351D-05 0.000000000000D+00 0.000000000000D+00 0.222370042259D-06 0.000000000000D+00  6 2 21 25 24 1 21 4 0.97915121D-01 0.72623726D-02 0.27568522D+05 0.27568522D+05 0.27568522D+05 0.12187700D+01  1  2 13  2  6  2       21 -.966636607904D-01 0.100000000000D+01
0.169832101585D-05 0.000000000000D+00 0.000000000000D+00 0.224968681273D-06 0.877441984692D-08  6 2 21 25 24 1 21 4 0.10251416D+00 0.71273277D-02 0.27568522D+05 0.27568522D+05 0.27568522D+05 0.12187700D+01  1  2  1  2  6  2       21 0.308134868758D-01 0.100000000000D+01
  </mgrwgt>
  </event>
  <event>
  6     66 0.45638357E-03 0.47771407E+02 0.75467711E-02 0.12027917E+00
        2 -1    0    0  502    0 0.00000000E+00 0.00000000E+00 0.38746623E+04 0.38746623E+04 0.32000000E+00 0.0000E+00 0.9000E+01
       21 -1    0    0  501  502 0.00000000E+00 0.00000000E+00 -.46070694E+02 0.46076799E+02 0.75000000E+00 0.0000E+00 0.9000E+01
       25  1    1    2    0    0 0.57392947E+02 0.39882644E+02 0.29821972E+04 0.29856339E+04 0.12500000E+03 0.0000E+00 0.9000E+01
       24  1    1    2    0    0 -.24545018E+01 -.47193274E+02 0.86685172E+03 0.87185569E+03 0.80419002E+02 0.0000E+00 0.9000E+01
        1  1    1    2  503    0 -.51733029E+02 -.23960211E-01 -.18777825E+02 0.55036497E+02 0.32000000E+00 0.0000E+00 0.9000E+01
       21  1    1    2  501  503 -.32054158E+01 0.73345905E+01 -.16794805E+01 0.82130423E+01 0.75000000E+00 0.0000E+00 0.9000E+01
#aMCatNLO 2  0  0  5  2 0.72612340D+01 0.00000000D+00  -5  6  0 0.00000000D+00 0.00000000D+00 0.00000000D+00 0.00000000D+00 0.00000000D+00
  <mgrwgt>
 0.8142459058D+00    1    2    0
 0.422516715090178D+03 0.000000000000000D+00 0.000000000000000D+00 0.422516715090178D+03
 0.422516715090178D+03 -.000000000000000D+00 -.000000000000000D+00 -.422516715090178D+03
 0.341387815172419D+03 0.574310263446947D+02 0.398775763181551D+02 0.309890458820827D+03
 0.117799997423081D+03 -.244136046841793D+01 -.471950225627790D+02 0.719464595575719D+02
 0.385845617584856D+03 -.549896658762766D+02 0.731744624462384D+01 -.381836918378399D+03
 0.000000000000000D+00 0.000000000000000D+00 0.000000000000000D+00 -.000000000000000D+00
 0.422516715090178D+03 0.000000000000000D+00 0.000000000000000D+00 0.422516715090178D+03
 0.422516715090178D+03 -.000000000000000D+00 -.000000000000000D+00 -.422516715090178D+03
 0.341142300386033D+03 0.573929939017626D+02 0.398826372755600D+02 0.309626369367360D+03
 0.117743929526603D+03 -.245448561960981D+01 -.471932760057347D+02 0.718553212099479D+02
 0.340647411830081D+03 -.517706325948644D+02 -.337570305865063D-01 -.336690450781907D+03
 0.454997884376391D+02 -.316787568728823D+01 0.734439576076120D+01 -.447912397954010D+02
0.310307436765D-02 0.000000000000D+00 0.000000000000D+00 0.100698437546D-04 0.214112792061D-05  6 2 21 25 24 1 21 4 0.59610236D+00 0.70882697D-02 0.21942047D+05 0.21942047D+05 0.21942047D+05 0.12294196D+01  1  2  1  3  6  5        1 0.814245905814D+00 0.100000000000D+01
  </mgrwgt>
  </event>
  <event>
  5     66 0.45638357E-03 0.13185375E+03 0.75467711E-02 0.11179635E+00
        2 -1    0    0  502    0 0.00000000E+00 0.00000000E+00 0.32543887E+04 0.32543888E+04 0.32000000E+00 0.0000E+00 0.9000E+01
       21 -1    0    0  501  502 0.00000000E+00 0.00000000E+00 -.18185208E+02 0.18200667E+02 0.75000000E+00 0.0000E+00 0.9000E+01
       25  1    1    2    0    0 0.12754928E+03 -.25023552E+02 0.12712658E+04 0.12839924E+04 0.12500000E+03 0.0000E+00 0.9000E+01
       24  1    1    2    0    0 0.59650984E+02 0.49708995E+02 0.91643559E+03 0.92322838E+03 0.80419002E+02 0.0000E+00 0.9000E+01
        1  1    1    2  501    0 -.18720026E+03 -.24685443E+02 0.10485022E+04 0.10653686E+04 0.32000000E+00 0.0000E+00 0.9000E+01
#aMCatNLO 1  0  0  2  5 0.45607522D+01 0.00000000D+00  -5  6  0 0.00000000D+00 0.00000000D+00 0.00000000D+00 0.00000000D+00 0.00000000D+00
  <mgrwgt>
 0.2011427752D-01   41    2    0
 0.243325001648295D+03 0.000000000000000D+00 0.000000000000000D+00 0.243325001648295D+03
 0.243325001648295D+03 0.000000000000000D+00 0.000000000000000D+00 -.243325001648295D+03
 0.180633763265441D+03 0.127549372067041D+03 -.250235388227899D+02 0.104180910690559D+02
 0.114199806606830D+03 0.596510448865373D+02 0.497090027272296D+02 0.233483996555534D+02
 0.191816433424319D+03 -.187200416953578D+03 -.246854639044398D+02 -.337664907246093D+02
 0.000000000000000D+00 0.000000000000000D+00 0.000000000000000D+00 -.000000000000000D+00
 0.243612026953474D+03 0.000000000000000D+00 0.000000000000000D+00 0.243612026953474D+03
 0.262153501706562D+03 0.000000000000000D+00 0.000000000000000D+00 -.262153501706562D+03
 0.179702299208160D+03 0.126064709150201D+03 -.258276755835848D+02 0.104180910690559D+02
 0.113491391128911D+03 0.587129076502905D+02 0.492008802236094D+02 0.233483996555534D+02
 0.193477683557826D+03 -.188787912481039D+03 -.255452978079810D+02 -.337664907246093D+02
 0.190941547651393D+02 0.401029568054742D+01 0.217209316795639D+01 -.185414747530878D+02
0.109319914414D-05 0.000000000000D+00 0.000000000000D+00 0.231057634295D-06 0.000000000000D+00  6 2 21 25 24 1 21 2 0.50067638D+00 0.27989146D-02 0.57826203D+05 0.57826203D+05 0.57826203D+05 0.11860774D+01  1  2  2  2  6  2       21 0.206054844112D-02 0.100000000000D+01
-.985931612865D-07 0.576897037714D-07 -.220685410738D-08 0.231057634295D-06 0.000000000000D+00  6 2 21 25 24 1 21 4 0.50067638D+00 0.27989146D-02 0.57826203D+05 0.57826203D+05 0.57826203D+05 0.11860774D+01  1  2  3  2  6  2       21 -.261430573046D-03 0.100000000000D+01
0.130848751601D-06 0.000000000000D+00 0.000000000000D+00 0.231057634295D-06 0.000000000000D+00  6 2 21 25 24 1 21 4 0.50067638D+00 0.27989146D-02 0.57826203D+05 0.57826203D+05 0.57826203D+05 0.11860774D+01  1  2 15  2  6  2       21 0.346959806004D-03 0.100000000000D+01
0.150810707018D-04 0.000000000000D+00 0.000000000000D+00 0.230744718429D-06 0.000000000000D+00  6 2 21 25 24 1 21 4 0.50067638D+00 0.30170737D-02 0.58935546D+05 0.58935546D+05 0.58935546D+05 0.11852740D+01  1  2 12  2  6  2       21 0.351731331040D-01 0.100000000000D+01
0.148268263481D-04 0.000000000000D+00 0.000000000000D+00 0.230744718429D-06 0.000000000000D+00  6 2 21 25 24 1 21 4 0.50067638D+00 0.30206256D-02 0.58935546D+05 0.58935546D+05 0.58935546D+05 0.11852740D+01  1  2 12  2  6  2       21 0.345125395359D-01 0.100000000000D+01
-.122806686580D-03 0.000000000000D+00 0.000000000000D+00 0.231057634295D-06 0.000000000000D+00  6 2 21 25 24 1 21 4 0.50067638D+00 0.27989146D-02 0.57826203D+05 0.57826203D+05 0.57826203D+05 0.11860774D+01  1  2  4  2  6  2       21 -.325635389185D+00 0.100000000000D+01
-.160223467852D-03 0.000000000000D+00 -.447885507047D-05 0.231057634295D-06 0.000000000000D+00  6 2 21 25 24 1 21 4 0.50067638D+00 0.30196457D-02 0.57826203D+05 0.57826203D+05 0.57826203D+05 0.11860774D+01  1  2  5  2  6  2       21 -.374537948374D+00 0.100000000000D+01
0.158900711350D-03 0.000000000000D+00 0.442765915324D-05 0.231057634295D-06 0.000000000000D+00  6 2 21 25 24 1 21 4 0.50067638D+00 0.27989146D-02 0.57826203D+05 0.57826203D+05 0.57826203D+05 0.11860774D+01  1  2  6  2  6  2       21 0.421342651800D+00 0.100000000000D+01
0.979300357769D-04 0.000000000000D+00 0.000000000000D+00 0.231057634295D-06 0.167615267625D-06  6 2 21 25 24 1 21 4 0.50126698D+00 0.30154948D-02 0.58935546D+05 0.58935546D+05 0.58935546D+05 0.11852740D+01  1  2 11  2  6  2       21 0.227343571419D+00 0.100000000000D+01
0.311125227097D-06 0.000000000000D+00 0.000000000000D+00 0.230744718429D-06 0.000000000000D+00  6 2 -1 25 24 1 -1 4 0.50067638D+00 0.30170737D-02 0.58935546D+05 0.58935546D+05 0.58935546D+05 0.11852740D+01  1  2 12  5  6  2       21 0.384005947414D-04 0.100000000000D+01
0.311060338376D-06 0.000000000000D+00 0.000000000000D+00 0.230744718429D-06 0.000000000000D+00  6 2 -1 25 24 1 -1 4 0.50067638D+00 0.30206256D-02 0.58935546D+05 0.58935546D+05 0.58935546D+05 0.11852740D+01  1  2 12  5  6  2       21 0.383259082369D-04 0.100000000000D+01
-.292717832565D-05 0.000000000000D+00 -.841620210758D-07 0.231057634295D-06 0.000000000000D+00  6 2 -1 25 24 1 -1 4 0.50067638D+00 0.30196457D-02 0.57826203D+05 0.57826203D+05 0.57826203D+05 0.11860774D+01  1  2  5  5  6  2       21 -.362028624992D-03 0.100000000000D+01
0.221230545790D-05 0.000000000000D+00 0.000000000000D+00 0.231057634295D-06 0.377832610201D-08  6 2 -1 25 24 1 -1 4 0.50126698D+00 0.30154948D-02 0.58935546D+05 0.58935546D+05 0.58935546D+05 0.11852740D+01  1  2 11  5  6  2       21 0.271764876182D-03 0.100000000000D+01
0.311125227097D-06 0.000000000000D+00 0.000000000000D+00 0.230744718429D-06 0.000000000000D+00  6 2 1 25 24 1 1 4 0.50067638D+00 0.30170737D-02 0.58935546D+05 0.58935546D+05 0.58935546D+05 0.11852740D+01  1  2 12  6  6  2       21 0.412930655519D-04 0.100000000000D+01
0.311060338376D-06 0.000000000000D+00 0.000000000000D+00 0.230744718429D-06 0.000000000000D+00  6 2 1 25 24 1 1 4 0.50067638D+00 0.30206256D-02 0.58935546D+05 0.58935546D+05 0.58935546D+05 0.11852740D+01  1  2 12  6  6  2       21 0.412161830980D-04 0.100000000000D+01
-.292717832565D-05 0.000000000000D+00 -.841620210758D-07 0.231057634295D-06 0.000000000000D+00  6 2 1 25 24 1 1 4 0.50067638D+00 0.30196457D-02 0.57826203D+05 0.57826203D+05 0.57826203D+05 0.11860774D+01  1  2  5  6  6  2       21 -.389329574443D-03 0.100000000000D+01
0.197669003513D-05 0.000000000000D+00 0.000000000000D+00 0.231057634295D-06 0.167621477031D-08  6 2 1 25 24 1 1 4 0.50126698D+00 0.30154948D-02 0.58935546D+05 0.58935546D+05 0.58935546D+05 0.11852740D+01  1  2 11  6  6  2       21 0.261101830679D-03 0.100000000000D+01
0.311125227097D-06 0.000000000000D+00 0.000000000000D+00 0.230744718429D-06 0.000000000000D+00  6 2 -2 25 24 1 -2 4 0.50067638D+00 0.30170737D-02 0.58935546D+05 0.58935546D+05 0.58935546D+05 0.11852740D+01  1  2 12  7  6  2       21 0.378841567513D-04 0.100000000000D+01
0.311060338376D-06 0.000000000000D+00 0.000000000000D+00 0.230744718429D-06 0.000000000000D+00  6 2 -2 25 24 1 -2 4 0.50067638D+00 0.30206256D-02 0.58935546D+05 0.58935546D+05 0.58935546D+05 0.11852740D+01  1  2 12  7  6  2       21 0.378098765057D-04 0.100000000000D+01
-.292717832565D-05 0.000000000000D+00 -.841620210758D-07 0.231057634295D-06 0.000000000000D+00  6 2 -2 25 24 1 -2 4 0.50067638D+00 0.30196457D-02 0.57826203D+05 0.57826203D+05 0.57826203D+05 0.11860774D+01  1  2  5  7  6  2       21 -.357153998973D-03 0.100000000000D+01
0.202065543996D-05 0.000000000000D+00 0.000000000000D+00 0.231057634295D-06 0.342629656833D-08  6 2 -2 25 24 1 -2 4 0.50126698D+00 0.30154948D-02 0.58935546D+05 0.58935546D+05 0.58935546D+05 0.11852740D+01  1  2 11  7  6  2       21 0.244885589028D-03 0.100000000000D+01
0.311125227097D-06 0.000000000000D+00 0.000000000000D+00 0.230744718429D-06 0.000000000000D+00  6 2 2 25 24 1 2 4 0.50067638D+00 0.30170737D-02 0.58935546D+05 0.58935546D+05 0.58935546D+05 0.11852740D+01  1  2 12  8  6  2       21 0.432645368686D-04 0.100000000000D+01
0.311060338376D-06 0.000000000000D+00 0.000000000000D+00 0.230744718429D-06 0.000000000000D+00  6 2 2 25 24 1 2 4 0.50067638D+00 0.30206256D-02 0.58935546D+05 0.58935546D+05 0.58935546D+05 0.11852740D+01  1  2 12  8  6  2       21 0.431860958644D-04 0.100000000000D+01
-.292717832565D-05 0.000000000000D+00 -.841620210758D-07 0.231057634295D-06 0.000000000000D+00  6 2 2 25 24 1 2 4 0.50067638D+00 0.30196457D-02 0.57826203D+05 0.57826203D+05 0.57826203D+05 0.11860774D+01  1  2  5  8  6  2       21 -.407936195622D-03 0.100000000000D+01
0.212647278705D-05 0.000000000000D+00 0.000000000000D+00 0.231057634295D-06 0.361288721037D-08  6 2 2 25 24 1 2 4 0.50126698D+00 0.30154948D-02 0.58935546D+05 0.58935546D+05 0.58935546D+05 0.11852740D+01  1  2 11  8  6  2       21 0.294290784792D-03 0.100000000000D+01
0.311125227097D-06 0.000000000000D+00 0.000000000000D+00 0.230744718429D-06 0.000000000000D+00  6 2 -3 25 24 1 -3 4 0.50067638D+00 0.30170737D-02 0.58935546D+05 0.58935546D+05 0.58935546D+05 0.11852740D+01  1  2 12  9  6  2       21 0.292930318401D-04 0.100000000000D+01
0.311125227097D-06 0.000000000000D+00 0.000000000000D+00 0.230744718429D-06 0.000000000000D+00  6 2 -4 25 24 1 -4 4 0.50067638D+00 0.30170737D-02 0.58935546D+05 0.58935546D+05 0.58935546D+05 0.11852740D+01  1  2 12  9  6  2       21 0.266659438458D-04 0.100000000000D+01
0.311060338376D-06 0.000000000000D+00 0.000000000000D+00 0.230744718429D-06 0.000000000000D+00  6 2 -3 25 24 1 -3 4 0.50067638D+00 0.30206256D-02 0.58935546D+05 0.58935546D+05 0.58935546D+05 0.11852740D+01  1  2 12  9  6  2       21 0.292330653735D-04 0.100000000000D+01
0.311060338376D-06 0.000000000000D+00 0.000000000000D+00 0.230744718429D-06 0.000000000000D+00  6 2 -4 25 24 1 -4 4 0.50067638D+00 0.30206256D-02 0.58935546D+05 0.58935546D+05 0.58935546D+05 0.11852740D+01  1  2 12  9  6  2       21 0.266107119060D-04 0.100000000000D+01
-.292717832565D-05 0.000000000000D+00 -.841620210758D-07 0.231057634295D-06 0.000000000000D+00  6 2 -3 25 24 1 -3 4 0.50067638D+00 0.30196457D-02 0.57826203D+05 0.57826203D+05 0.57826203D+05 0.11860774D+01  1  2  5  9  6  2       21 -.276053734052D-03 0.100000000000D+01
-.292717832565D-05 0.000000000000D+00 -.841620210758D-07 0.231057634295D-06 0.000000000000D+00  6 2 -4 25 24 1 -4 4 0.50067638D+00 0.30196457D-02 0.57826203D+05 0.57826203D+05 0.57826203D+05 0.11860774D+01  1  2  5  9  6  2       21 -.251255558857D-03 0.100000000000D+01
0.202121758106D-05 0.000000000000D+00 0.000000000000D+00 0.231057634295D-06 0.342724975514D-08  6 2 -3 25 24 1 -3 4 0.50126698D+00 0.30154948D-02 0.58935546D+05 0.58935546D+05 0.58935546D+05 0.11852740D+01  1  2 11  9  6  2       21 0.189411985550D-03 0.100000000000D+01
0.202121758106D-05 0.000000000000D+00 0.000000000000D+00 0.231057634295D-06 0.342724975514D-08  6 2 -4 25 24 1 -4 4 0.50126698D+00 0.30154948D-02 0.58935546D+05 0.58935546D+05 0.58935546D+05 0.11852740D+01  1  2 11  9  6  2       21 0.172426798142D-03 0.100000000000D+01
0.311125227097D-06 0.000000000000D+00 0.000000000000D+00 0.230744718429D-06 0.000000000000D+00  6 2 3 25 24 1 3 4 0.50067638D+00 0.30170737D-02 0.58935546D+05 0.58935546D+05 0.58935546D+05 0.11852740D+01  1  2 12 10  6  2       21 0.292910301458D-04 0.100000000000D+01
0.311125227097D-06 0.000000000000D+00 0.000000000000D+00 0.230744718429D-06 0.000000000000D+00  6 2 4 25 24 1 4 4 0.50067638D+00 0.30170737D-02 0.58935546D+05 0.58935546D+05 0.58935546D+05 0.11852740D+01  1  2 12 10  6  2       21 0.266659438458D-04 0.100000000000D+01
0.311060338376D-06 0.000000000000D+00 0.000000000000D+00 0.230744718429D-06 0.000000000000D+00  6 2 3 25 24 1 3 4 0.50067638D+00 0.30206256D-02 0.58935546D+05 0.58935546D+05 0.58935546D+05 0.11852740D+01  1  2 12 10  6  2       21 0.292310663381D-04 0.100000000000D+01
0.311060338376D-06 0.000000000000D+00 0.000000000000D+00 0.230744718429D-06 0.000000000000D+00  6 2 4 25 24 1 4 4 0.50067638D+00 0.30206256D-02 0.58935546D+05 0.58935546D+05 0.58935546D+05 0.11852740D+01  1  2 12 10  6  2       21 0.266107119060D-04 0.100000000000D+01
-.292717832565D-05 0.000000000000D+00 -.841620210758D-07 0.231057634295D-06 0.000000000000D+00  6 2 3 25 24 1 3 4 0.50067638D+00 0.30196457D-02 0.57826203D+05 0.57826203D+05 0.57826203D+05 0.11860774D+01  1  2  5 10  6  2       21 -.276034834744D-03 0.100000000000D+01
-.292717832565D-05 0.000000000000D+00 -.841620210758D-07 0.231057634295D-06 0.000000000000D+00  6 2 4 25 24 1 4 4 0.50067638D+00 0.30196457D-02 0.57826203D+05 0.57826203D+05 0.57826203D+05 0.11860774D+01  1  2  5 10  6  2       21 -.251255558857D-03 0.100000000000D+01
0.202121758106D-05 0.000000000000D+00 0.000000000000D+00 0.231057634295D-06 0.342724975514D-08  6 2 3 25 24 1 3 4 0.50126698D+00 0.30154948D-02 0.58935546D+05 0.58935546D+05 0.58935546D+05 0.11852740D+01  1  2 11 10  6  2       21 0.189399046520D-03 0.100000000000D+01
0.202121758106D-05 0.000000000000D+00 0.000000000000D+00 0.231057634295D-06 0.342724975514D-08  6 2 4 25 24 1 4 4 0.50126698D+00 0.30154948D-02 0.58935546D+05 0.58935546D+05 0.58935546D+05 0.11852740D+01  1  2 11 10  6  2       21 0.172426798142D-03 0.100000000000D+01
  </mgrwgt>
  </event>
  <event>
  5     66 -.45638357E-03 0.25564356E+02 0.75467711E-02 0.11117893E+00
        2 -1    0    0  502    0 0.00000000E+00 0.00000000E+00 0.13035524E+04 0.13035524E+04 0.32000000E+00 0.0000E+00 0.9000E+01
       21 -1    0    0  501  502 0.00000000E+00 0.00000000E+00 -.60494995E+02 0.60499644E+02 0.75000000E+00 0.0000E+00 0.9000E+01
       25  1    1    2    0    0 -.15808541E+03 0.11139279E+03 0.62762866E+03 0.66853728E+03 0.12500000E+03 0.0000E+00 0.9000E+01
       24  1    1    2    0    0 0.17547826E+03 -.92657262E+02 0.63048103E+03 0.66584648E+03 0.80419002E+02 0.0000E+00 0.9000E+01
        1  1    1    2  501    0 -.17392850E+02 -.18735533E+02 -.15052339E+02 0.29668278E+02 0.32000000E+00 0.0000E+00 0.9000E+01
#aMCatNLO 1  0  0  1  2 0.32799190D+02 0.00000000D+00  -5  6  0 0.00000000D+00 0.00000000D+00 0.00000000D+00 0.00000000D+00 0.00000000D+00
  <mgrwgt>
 -.1225210806D+01    7    2    0
 0.280823060214290D+03 0.000000000000000D+00 0.000000000000000D+00 0.280823060214290D+03
 0.280823060214290D+03 0.000000000000000D+00 0.000000000000000D+00 -.280823060214290D+03
 0.234562689840016D+03 -.158085377912611D+03 0.111392830536410D+03 0.446688488803731D+02
 0.221714690735405D+03 0.175478292797464D+03 -.926572277601044D+02 0.575516727317736D+02
 0.105368739853159D+03 -.173929148848536D+02 -.187356027763052D+02 -.102220521612147D+03
 0.000000000000000D+00 0.000000000000000D+00 0.000000000000000D+00 0.000000000000000D+00
 0.398078863717071D+03 0.000000000000000D+00 0.000000000000000D+00 0.398078863717071D+03
 0.283171067453092D+03 0.000000000000000D+00 0.000000000000000D+00 -.283171067453092D+03
 0.232209387315108D+03 -.162395714833321D+03 0.996419856322373D+02 0.446688488803731D+02
 0.223459166785165D+03 0.171367401405029D+03 -.103864344061917D+03 0.575516727317736D+02
 0.106785837897430D+03 -.193520245962775D+02 -.240765296673300D+02 -.102220521612147D+03
 0.118795539172460D+03 0.103803380245699D+02 0.282988880970100D+02 0.114907796263979D+03
0.264217746145D-04 0.000000000000D+00 0.000000000000D+00 0.144759379814D-05 0.000000000000D+00  6 2 21 25 24 1 21 2 0.20054688D+00 0.93072830D-02 0.55213125D+05 0.55213125D+05 0.55213125D+05 0.11880395D+01  1  2  2  1  6  1        2 0.760334050049D-01 0.100000000000D+01
0.667273419586D-05 0.139431535306D-05 -.533379504960D-07 0.144759379814D-05 0.000000000000D+00  6 2 21 25 24 1 21 4 0.20054688D+00 0.93072830D-02 0.55213125D+05 0.55213125D+05 0.55213125D+05 0.11880395D+01  1  2  3  1  6  1        2 0.271024166051D-01 0.100000000000D+01
0.249187703234D-05 0.000000000000D+00 0.000000000000D+00 0.144759379814D-05 0.000000000000D+00  6 2 21 25 24 1 21 4 0.20054688D+00 0.93072830D-02 0.55213125D+05 0.55213125D+05 0.55213125D+05 0.11880395D+01  1  2 15  1  6  1        2 0.101211718430D-01 0.100000000000D+01
-.638193270571D-03 0.000000000000D+00 0.000000000000D+00 0.144759379814D-05 0.000000000000D+00  6 2 21 25 24 1 21 4 0.20054688D+00 0.93072830D-02 0.55213125D+05 0.55213125D+05 0.55213125D+05 0.11880395D+01  1  2  4  1  6  1        2 -.259212781236D+01 0.100000000000D+01
-.701664122512D-03 0.000000000000D+00 -.307034317797D-04 0.144759379814D-05 0.000000000000D+00  6 2 21 25 24 1 21 4 0.28501334D+00 0.93072830D-02 0.55213125D+05 0.55213125D+05 0.55213125D+05 0.11880395D+01  1  2  5  1  6  1        2 -.145543937817D+01 0.100000000000D+01
0.672301025540D-03 0.000000000000D+00 0.288997823247D-04 0.144759379814D-05 0.000000000000D+00  6 2 21 25 24 1 21 4 0.20054688D+00 0.93072830D-02 0.55213125D+05 0.55213125D+05 0.55213125D+05 0.11880395D+01  1  2  6  1  6  1        2 0.273066211591D+01 0.100000000000D+01
-.295302312921D-04 0.000000000000D+00 -.133041518641D-05 0.144759379814D-05 0.000000000000D+00  6 21 21 25 24 1 -2 4 0.28501334D+00 0.93072830D-02 0.55213125D+05 0.55213125D+05 0.55213125D+05 0.11880395D+01  1  2  5  4  6  1        2 -.215627249652D-01 0.100000000000D+01
  </mgrwgt>
  </event>
  <event>
  6     66 0.45638357E-03 0.26780734E+02 0.75467711E-02 0.12366759E+00
        2 -1    0    0  502    0 0.00000000E+00 0.00000000E+00 0.10278447E+04 0.10278448E+04 0.32000000E+00 0.0000E+00 0.9000E+01
       21 -1    0    0  501  502 0.00000000E+00 0.00000000E+00 -.26837689E+02 0.26848166E+02 0.75000000E+00 0.0000E+00 0.9000E+01
       25  1    1    2    0    0 0.12837181E+02 0.33181500E+02 0.51334972E+03 0.52954578E+03 0.12500000E+03 0.0000E+00 0.9000E+01
       24  1    1    2    0    0 -.26348100E+02 -.27790777E+01 0.44969111E+03 0.45759290E+03 0.80419002E+02 0.0000E+00 0.9000E+01
        1  1    1    2  503    0 0.11109629E+02 -.26794697E+02 -.32615093E+00 0.29010144E+02 0.32000000E+00 0.0000E+00 0.9000E+01
       21  1    1    2  501  503 0.24012895E+01 -.36077251E+01 0.38292352E+02 0.38544112E+02 0.75000000E+00 0.0000E+00 0.9000E+01
#aMCatNLO 2  0  0  5  1 0.60764055D+01 0.00000000D+00  -5  6  0 0.00000000D+00 0.00000000D+00 0.00000000D+00 0.00000000D+00 0.00000000D+00
  <mgrwgt>
 0.6653660652D-01    2    2    0
 0.166103968425461D+03 0.000000000000000D+00 0.000000000000000D+00 0.166103968425461D+03
 0.166103968425461D+03 -.000000000000000D+00 -.000000000000000D+00 -.166103968425461D+03
 0.135785026613561D+03 0.121733330028269D+02 0.346752992000652D+02 0.382362006668243D+02
 0.993845421783268D+02 -.268325213071325D+02 -.168902749221585D+01 0.518385402577841D+02
 0.970383680590337D+02 0.146591883043055D+02 -.329862717078493D+02 -.900747409246085D+02
 0.000000000000000D+00 0.000000000000000D+00 0.000000000000000D+00 0.000000000000000D+00
 0.166103968425461D+03 0.000000000000000D+00 0.000000000000000D+00 0.166103968425461D+03
 0.166103968425461D+03 -.000000000000000D+00 -.000000000000000D+00 -.166103968425461D+03
 0.134369385430458D+03 0.128415671463238D+02 0.331716311548586D+02 0.341301740504133D+02
 0.977476853057424D+02 -.263449094847241D+02 -.278625714286428D+01 0.488423642306086D+02
 0.930809059354109D+02 0.110859980215770D+02 -.267555124472995D+02 -.884607158647543D+02
 0.700996017930982D+01 0.241734431682324D+01 -.362986156469485D+01 0.548817758373240D+01
-.217824862251D-05 0.000000000000D+00 0.000000000000D+00 0.262208023000D-05 0.000000000000D+00  6 2 21 25 24 1 21 4 0.15813077D+00 0.41296850D-02 0.15773023D+05 0.15773023D+05 0.15773023D+05 0.12453423D+01  1  2  8  3  6  5        1 -.623089865796D-01 0.100000000000D+01
0.448680869539D-05 0.000000000000D+00 0.000000000000D+00 0.262208023000D-05 0.154969277952D-05  6 2 21 25 24 1 21 4 0.15813077D+00 0.41296850D-02 0.15370435D+05 0.15370435D+05 0.15370435D+05 0.12466165D+01  1  2  1  3  6  5        1 0.128845593100D+00 0.100000000000D+01
  </mgrwgt>
  </event>
  <event>
  6     66 0.45638357E-03 0.23527755E+02 0.75467711E-02 0.12292270E+00
        2 -1    0    0  502    0 0.00000000E+00 0.00000000E+00 0.94078309E+03 0.94078315E+03 0.32000000E+00 0.0000E+00 0.9000E+01
       21 -1    0    0  501  502 0.00000000E+00 0.00000000E+00 -.34788148E+02 0.34796232E+02 0.75000000E+00 0.0000E+00 0.9000E+01
       25  1    1    2    0    0 0.39421454E+02 0.44007667E+01 0.29726563E+03 0.32490810E+03 0.12500000E+03 0.0000E+00 0.9000E+01
       24  1    1    2    0    0 -.33273803E+01 -.47783373E+01 0.47094660E+03 0.47779894E+03 0.80419002E+02 0.0000E+00 0.9000E+01
        1  1    1    2  503    0 -.28994298E+02 0.13040443E+02 0.15033869E+03 0.15366375E+03 0.32000000E+00 0.0000E+00 0.9000E+01
       21  1    1    2  501  503 -.70997758E+01 -.12662872E+02 -.12555980E+02 0.19208599E+02 0.75000000E+00 0.0000E+00 0.9000E+01
#aMCatNLO 2  0  0  5  1 0.37029276D+02 0.00000000D+00  -5  6  0 0.00000000D+00 0.00000000D+00 0.00000000D+00 0.00000000D+00 0.00000000D+00
  <mgrwgt>
 0.5014161579D-01    1    2    0
 0.180920069698091D+03 0.000000000000000D+00 0.000000000000000D+00 0.180920069698091D+03
 0.180920069698091D+03 -.000000000000000D+00 -.000000000000000D+00 -.180920069698091D+03
 0.134575391534562D+03 0.494219140443732D+02 0.429615451701913D+01 0.495514633860940D+01
 0.119423390636802D+03 0.525319847699657D+01 -.486809648841423D+01 0.879967943686613D+02
 0.107841357224819D+03 -.546751125213697D+02 0.571941971395100D+00 -.929519407072707D+02
 0.000000000000000D+00 0.000000000000000D+00 -.000000000000000D+00 0.000000000000000D+00
 0.180920069698091D+03 0.000000000000000D+00 0.000000000000000D+00 0.180920069698091D+03
 0.180920069698091D+03 -.000000000000000D+00 -.000000000000000D+00 -.180920069698091D+03
 0.131716741553075D+03 0.395717093692194D+02 0.439919491731736D+01 -.117909671798861D+02
 0.109180294359658D+03 -.320290219935514D+01 -.477963944336915D+01 0.736207659997075D+02
 0.371845646108079D+02 -.281926513794091D+02 0.127863108360471D+02 0.206004006926669D+02
 0.837585388726420D+02 -.817615579045517D+01 -.124058663099954D+02 -.824301995124882D+02
0.241755315902D-05 0.000000000000D+00 0.000000000000D+00 0.101641844773D-05 0.641152113073D-07  6 2 21 25 24 1 21 4 0.14473649D+00 0.53526489D-02 0.16592916D+05 0.16592916D+05 0.16592916D+05 0.12428565D+01  1  2  1  3  6  5        1 0.501416157945D-01 0.100000000000D+01
  </mgrwgt>
  </event>
  <event>
  5     66 0.45638357E-03 0.51485357E+02 0.75467711E-02 0.10871473E+00
        2 -1    0    0  502    0 0.00000000E+00 0.00000000E+00 0.73732621E+03 0.73732628E+03 0.32000000E+00 0.0000E+00 0.9000E+01
       21 -1    0    0  501  502 0.00000000E+00 0.00000000E+00 -.56616421E+02 0.56621389E+02 0.75000000E+00 0.0000E+00 0.9000E+01
       25  1    1    2    0    0 0.38398365E+02 0.99962874E+02 0.36524752E+03 0.40062172E+03 0.12500000E+03 0.0000E+00 0.9000E+01
       24  1    1    2    0    0 -.27951138E+02 -.49548887E+02 0.29590924E+02 0.10285522E+03 0.80419002E+02 0.0000E+00 0.9000E+01
        1  1    1    2  501    0 -.10447227E+02 -.50413987E+02 0.28587134E+03 0.29047072E+03 0.32000000E+00 0.0000E+00 0.9000E+01
#aMCatNLO 1  0  0  2  1 0.24092876D+03 0.00000000D+00  -5  6  0 0.00000000D+00 0.00000000D+00 0.00000000D+00 0.00000000D+00 0.00000000D+00
  <mgrwgt>
 0.3242576195D-01   12    2    0
 0.204320265163482D+03 0.000000000000000D+00 0.000000000000000D+00 0.204320265163482D+03
 0.204320265163482D+03 0.000000000000000D+00 0.000000000000000D+00 -.204320265163482D+03
 0.169941863266315D+03 0.383983933720302D+02 0.999630121434561D+02 0.422870722571429D+02
 0.150545195419420D+03 -.279511124456676D+02 -.495487650017042D+02 -.113843291894412D+03
 0.881534716412293D+02 -.104472809263626D+02 -.504142471417519D+02 0.715562196372688D+02
 0.000000000000000D+00 -.000000000000000D+00 -.000000000000000D+00 -.000000000000000D+00
 0.289501256508980D+03 0.000000000000000D+00 0.000000000000000D+00 0.289501256508980D+03
 0.514591272435211D+03 0.000000000000000D+00 0.000000000000000D+00 -.514591272435211D+03
 0.260400038246322D+03 0.780853519112362D+02 0.210470095869944D+03 0.422870722571429D+02
 0.141698879721084D+03 -.999801284327710D+00 0.254963104757376D+02 -.113843291894412D+03
 0.722783056723907D+02 0.434804639881032D+01 -.921712507283590D+01 0.715562196372688D+02
 0.329715305304394D+03 -.814335970257188D+02 -.226749281272846D+03 -.225090015926231D+03
0.779762198395D-05 0.000000000000D+00 0.000000000000D+00 0.898524814160D-07 0.000000000000D+00  6 2 21 25 24 1 21 2 0.11343519D+00 0.87106061D-02 0.24741498D+05 0.24741498D+05 0.24741498D+05 0.12237819D+01  1  2  2  2  6  2       21 0.601043526761D-01 0.100000000000D+01
-.830109416632D-06 0.411491817192D-06 -.157411521911D-07 0.898524814160D-07 0.000000000000D+00  6 2 21 25 24 1 21 4 0.11343519D+00 0.87106061D-02 0.24741498D+05 0.24741498D+05 0.24741498D+05 0.12237819D+01  1  2  3  2  6  2       21 -.958268332110D-02 0.100000000000D+01
0.687369839391D-06 0.000000000000D+00 0.000000000000D+00 0.898524814160D-07 0.000000000000D+00  6 2 21 25 24 1 21 4 0.11343519D+00 0.87106061D-02 0.24741498D+05 0.24741498D+05 0.24741498D+05 0.12237819D+01  1  2 15  2  6  2       21 0.793491479965D-02 0.100000000000D+01
-.177168285805D-04 0.000000000000D+00 -.253278410895D-04 0.898524814160D-07 0.000000000000D+00  6 2 21 25 24 1 21 4 0.11343519D+00 0.30739335D-01 0.24741498D+05 0.24741498D+05 0.24741498D+05 0.12237819D+01  1  2  5  2  6  2       21 -.203241250016D-01 0.100000000000D+01
-.706700273153D-05 0.000000000000D+00 -.961260456725D-05 0.898524814160D-07 0.000000000000D+00  6 2 -1 25 24 1 -1 4 0.11343519D+00 0.30739335D-01 0.24741498D+05 0.24741498D+05 0.24741498D+05 0.12237819D+01  1  2  5  5  6  2       21 -.708685042811D-03 0.100000000000D+01
-.706700273153D-05 0.000000000000D+00 -.961260456725D-05 0.898524814160D-07 0.000000000000D+00  6 2 1 25 24 1 1 4 0.11343519D+00 0.30739335D-01 0.24741498D+05 0.24741498D+05 0.24741498D+05 0.12237819D+01  1  2  5  6  6  2       21 -.125883402741D-02 0.100000000000D+01
-.706700273153D-05 0.000000000000D+00 -.961260456725D-05 0.898524814160D-07 0.000000000000D+00  6 2 -2 25 24 1 -2 4 0.11343519D+00 0.30739335D-01 0.24741498D+05 0.24741498D+05 0.24741498D+05 0.12237819D+01  1  2  5  7  6  2       21 -.620272627719D-03 0.100000000000D+01
-.706700273153D-05 0.000000000000D+00 -.961260456725D-05 0.898524814160D-07 0.000000000000D+00  6 2 2 25 24 1 2 4 0.11343519D+00 0.30739335D-01 0.24741498D+05 0.24741498D+05 0.24741498D+05 0.12237819D+01  1  2  5  8  6  2       21 -.166055274911D-02 0.100000000000D+01
-.706700273153D-05 0.000000000000D+00 -.961260456725D-05 0.898524814160D-07 0.000000000000D+00  6 2 -3 25 24 1 -3 4 0.11343519D+00 0.30739335D-01 0.24741498D+05 0.24741498D+05 0.24741498D+05 0.12237819D+01  1  2  5  9  6  2       21 -.396273655567D-03 0.100000000000D+01
-.706700273153D-05 0.000000000000D+00 -.961260456725D-05 0.898524814160D-07 0.000000000000D+00  6 2 -4 25 24 1 -4 4 0.11343519D+00 0.30739335D-01 0.24741498D+05 0.24741498D+05 0.24741498D+05 0.12237819D+01  1  2  5  9  6  2       21 -.332895739335D-03 0.100000000000D+01
-.706700273153D-05 0.000000000000D+00 -.961260456725D-05 0.898524814160D-07 0.000000000000D+00  6 2 3 25 24 1 3 4 0.11343519D+00 0.30739335D-01 0.24741498D+05 0.24741498D+05 0.24741498D+05 0.12237819D+01  1  2  5 10  6  2       21 -.396287626413D-03 0.100000000000D+01
-.706700273153D-05 0.000000000000D+00 -.961260456725D-05 0.898524814160D-07 0.000000000000D+00  6 2 4 25 24 1 4 4 0.11343519D+00 0.30739335D-01 0.24741498D+05 0.24741498D+05 0.24741498D+05 0.12237819D+01  1  2  5 10  6  2       21 -.332895739335D-03 0.100000000000D+01
  </mgrwgt>
  </event>
  <event>
  6     66 0.45638357E-03 0.19696706E+03 0.75467711E-02 0.10261082E+00
        2 -1    0    0  502    0 0.00000000E+00 0.00000000E+00 0.66181041E+03 0.66181049E+03 0.32000000E+00 0.0000E+00 0.9000E+01
        2 -1    0    0  501    0 0.00000000E+00 0.00000000E+00 -.74969426E+03 0.74969433E+03 0.32000000E+00 0.0000E+00 0.9000E+01
       25  1    1    2    0    0 -.10770586E+03 -.14175958E+03 -.54287867E+02 0.22420638E+03 0.12500000E+03 0.0000E+00 0.9000E+01
       24  1    1    2    0    0 -.56792970E+02 0.27581466E+01 -.47505314E+02 0.10934816E+03 0.80419002E+02 0.0000E+00 0.9000E+01
        1  1    1    2  501    0 -.15639736E+03 0.21426958E+03 -.44192656E+03 0.51543261E+03 0.32000000E+00 0.0000E+00 0.9000E+01
        2  1    1    2  502    0 0.32089619E+03 -.75268149E+02 0.45583590E+03 0.56251767E+03 0.32000000E+00 0.0000E+00 0.9000E+01
#aMCatNLO 2  0  0  2  1 0.29611889D+02 0.00000000D+00  -5  6  0 0.00000000D+00 0.00000000D+00 0.00000000D+00 0.00000000D+00 0.00000000D+00
  <mgrwgt>
 0.7750250282D-03    1    2    0
 0.281295383745896D+03 0.000000000000000D+00 0.000000000000000D+00 0.281295383745896D+03
 0.281295383745896D+03 0.000000000000000D+00 0.000000000000000D+00 -.281295383745896D+03
 0.243407093134847D+03 0.217669067614261D+02 -.172128275522426D+03 0.116275842392439D+03
 0.863387108985913D+02 -.683321732104137D+01 -.896024255959688D+01 0.293287953993446D+02
 0.232844963458353D+03 -.149336894403847D+02 0.181088518082023D+03 -.145604637791783D+03
 0.000000000000000D+00 0.000000000000000D+00 -.000000000000000D+00 0.000000000000000D+00
 0.141358933999967D+04 0.000000000000000D+00 0.000000000000000D+00 0.141358933999967D+04
 0.350989850911449D+03 0.000000000000000D+00 0.000000000000000D+00 -.350989850911449D+03
 0.246660551027309D+03 -.107705892073422D+03 -.141759644192883D+03 0.116275842392439D+03
 0.102764016689958D+03 -.567929722647730D+02 0.275812139680311D+01 0.293287953993446D+02
 0.302609194866331D+03 -.156397320740874D+03 0.214269671993610D+03 -.145604637791783D+03
 0.111254542832752D+04 0.320896185079068D+03 -.752681491975296D+02 0.106259948908822D+04
0.178409186258D-04 0.000000000000D+00 0.000000000000D+00 0.293824672019D-06 0.137362238139D-09  6 2 2 25 24 1 2 4 0.10181699D+00 0.11533758D+00 0.20743763D+06 0.20743763D+06 0.20743763D+06 0.11355376D+01  1  2  1  8  6  2       21 0.775025028195D-03 0.100000000000D+01
  </mgrwgt>
  </event>
  <event>
  6     66 0.45638357E-03 0.23281713E+03 0.75467711E-02 0.10796887E+00
        2 -1    0    0  502    0 0.00000000E+00 0.00000000E+00 0.25953712E+04 0.25953712E+04 0.32000000E+00 0.0000E+00 0.9000E+01
       21 -1    0    0  501  502 0.00000000E+00 0.00000000E+00 -.44190846E+02 0.44197210E+02 0.75000000E+00 0.0000E+00 0.9000E+01
       25  1    1    2    0    0 0.34108927E+00 0.16976048E+02 0.29034870E+03 0.31656859E+03 0.12500000E+03 0.0000E+00 0.9000E+01
       24  1    1    2    0    0 -.23571363E+03 0.42016278E+02 0.15351616E+04 0.15558003E+04 0.80419002E+02 0.0000E+00 0.9000E+01
        1  1    1    2  503    0 0.20802531E+03 -.60504714E+02 0.68257999E+03 0.71613609E+03 0.32000000E+00 0.0000E+00 0.9000E+01
       21  1    1    2  501  503 0.27347226E+02 0.15123879E+01 0.43090047E+02 0.51063419E+02 0.75000000E+00 0.0000E+00 0.9000E+01
#aMCatNLO 2  0  0  5  2 0.19069299D+02 0.00000000D+00  -5  6  0 0.00000000D+00 0.00000000D+00 0.00000000D+00 0.00000000D+00 0.00000000D+00
  <mgrwgt>
 0.1318306600D+00    2    2    0
 0.338673992188467D+03 0.000000000000000D+00 0.000000000000000D+00 0.338673992188467D+03
 0.338673992188467D+03 -.000000000000000D+00 -.000000000000000D+00 -.338673992188467D+03
 0.139967220950790D+03 -.859538688086610D+00 0.172769662812976D+02 -.605523787315238D+02
 0.283151653007014D+03 -.238131347748241D+03 0.426222407048970D+02 0.123225194108730D+03
 0.254229110419130D+03 0.238990886436328D+03 -.598992069861945D+02 -.626728153772062D+02
 0.000000000000000D+00 0.000000000000000D+00 0.000000000000000D+00 -.000000000000000D+00
 0.338673992188467D+03 0.000000000000000D+00 0.000000000000000D+00 0.338673992188467D+03
 0.338673992188467D+03 -.000000000000000D+00 -.000000000000000D+00 -.338673992188467D+03
 0.140064894754584D+03 0.343264549094566D+00 0.169755030701187D+02 -.608678010739530D+02
 0.280748401132183D+03 -.235709265520791D+03 0.420151849010420D+02 0.122590028833046D+03
 0.219773347057900D+03 0.207967700722523D+03 -.605101831619655D+02 -.372595929516754D+02
 0.367613414322681D+02 0.273983002491733D+02 0.151949519080489D+01 -.244626348074173D+02
-.561906212805D-04 0.000000000000D+00 0.000000000000D+00 0.566901014516D-07 0.000000000000D+00  6 2 21 25 24 1 21 4 0.39928837D+00 0.67990827D-02 0.96954285D+05 0.96954285D+05 0.96954285D+05 0.11648077D+01  1  2 13  3  6  5        1 -.728275203591D-01 0.100000000000D+01
0.157905558856D-03 0.000000000000D+00 0.000000000000D+00 0.566308727576D-07 0.277173761053D-08  6 2 21 25 24 1 21 4 0.39928837D+00 0.67990827D-02 0.96954285D+05 0.96954285D+05 0.96954285D+05 0.11648077D+01  1  2  1  3  6  5        1 0.204658180322D+00 0.100000000000D+01
  </mgrwgt>
  </event>
  <event>
  5     66 0.45638357E-03 0.36177473E+02 0.75467711E-02 0.12079447E+00
        4 -1    0    0  502    0 0.00000000E+00 0.00000000E+00 0.25470344E+04 0.25470348E+04 0.15500000E+01 0.0000E+00 0.9000E+01
       21 -1    0    0  501  502 0.00000000E+00 0.00000000E+00 -.83614370E+01 0.83950061E+01 0.75000000E+00 0.0000E+00 0.9000E+01
       25  1    1    2    0    0 0.51176349E+02 -.15440676E+02 0.11419670E+04 0.11500309E+04 0.12500000E+03 0.0000E+00 0.9000E+01
       24  1    1    2    0    0 -.53895521E+02 0.51513868E+02 0.78481748E+03 0.79244186E+03 0.80419002E+02 0.0000E+00 0.9000E+01
        3  1    1    2  501    0 0.27191720E+01 -.36073192E+02 0.61188847E+03 0.61295711E+03 0.50000000E+00 0.0000E+00 0.9000E+01
#aMCatNLO 1  0  0  2  1 0.62038213D+01 0.00000000D+00  -5  6  0 0.00000000D+00 0.00000000D+00 0.00000000D+00 0.00000000D+00 0.00000000D+00
  <mgrwgt>
 0.1998211093D-03   41    2    0
 0.146083405599261D+03 0.000000000000000D+00 0.000000000000000D+00 0.146083405599261D+03
 0.146083405599261D+03 0.000000000000000D+00 0.000000000000000D+00 -.146083405599261D+03
 0.136026840083706D+03 0.511762690156774D+02 -.154396129027684D+02 -.457264324061189D+01
 0.111699356438656D+03 -.538955869619004D+02 0.515147409739521D+02 -.212374066886293D+02
 0.444406146761595D+02 0.271931794622305D+01 -.360751280711837D+02 0.258100499292412D+02
 0.000000000000000D+00 0.000000000000000D+00 0.000000000000000D+00 -.000000000000000D+00
 0.146303428917901D+03 0.000000000000000D+00 0.000000000000000D+00 0.146303428917901D+03
 0.197544141862640D+03 0.000000000000000D+00 0.000000000000000D+00 -.197544141862640D+03
 0.135358772835384D+03 0.488225902293066D+02 -.171009649024995D+02 -.457264324061189D+01
 0.112028703035008D+03 -.558359403278544D+02 0.501451360969488D+02 -.212374066886293D+02
 0.448451933590390D+02 0.194495813386605D+01 -.366217125202684D+02 0.258100499292412D+02
 0.516149015511100D+02 0.506839196468176D+01 0.357754132581909D+01 -.512407129447394D+02
0.347644317457D-06 0.000000000000D+00 0.000000000000D+00 0.278299608975D-06 0.000000000000D+00  6 4 21 25 24 3 21 2 0.39185406D+00 0.12889934D-02 0.19851299D+05 0.19851299D+05 0.19851299D+05 0.12341830D+01  1  2  2  2  6  2       21 0.566449310099D-04 0.100000000000D+01
-.208109071193D-07 0.183456946517D-07 -.701793716179D-09 0.278299608975D-06 0.000000000000D+00  6 4 21 25 24 3 21 4 0.39185406D+00 0.12889934D-02 0.19851299D+05 0.19851299D+05 0.19851299D+05 0.12341830D+01  1  2  3  2  6  2       21 -.516506821380D-05 0.100000000000D+01
0.376699396186D-07 0.000000000000D+00 0.000000000000D+00 0.278299608975D-06 0.000000000000D+00  6 4 21 25 24 3 21 4 0.39185406D+00 0.12889934D-02 0.19851299D+05 0.19851299D+05 0.19851299D+05 0.12341830D+01  1  2 15  2  6  2       21 0.934931892325D-05 0.100000000000D+01
0.200997392582D-04 0.000000000000D+00 0.000000000000D+00 0.277338640912D-06 0.000000000000D+00  6 4 21 25 24 3 21 4 0.39185406D+00 0.17437893D-02 0.20758462D+05 0.20758462D+05 0.20758462D+05 0.12320504D+01  1  2 12  2  6  2       21 0.305257439718D-02 0.100000000000D+01
0.199504031583D-04 0.000000000000D+00 0.000000000000D+00 0.277338640912D-06 0.000000000000D+00  6 4 21 25 24 3 21 4 0.39185406D+00 0.17473037D-02 0.20758462D+05 0.20758462D+05 0.20758462D+05 0.12320504D+01  1  2 12  2  6  2       21 0.302009234040D-02 0.100000000000D+01
-.396425684786D-04 0.000000000000D+00 0.000000000000D+00 0.278299608975D-06 0.000000000000D+00  6 4 21 25 24 3 21 4 0.39185406D+00 0.12889934D-02 0.19851299D+05 0.19851299D+05 0.19851299D+05 0.12341830D+01  1  2  4  2  6  2       21 -.983890654977D-02 0.100000000000D+01
-.488105952336D-04 0.000000000000D+00 -.470556519508D-06 0.278299608975D-06 0.000000000000D+00  6 4 21 25 24 3 21 4 0.39185406D+00 0.17454456D-02 0.19851299D+05 0.19851299D+05 0.19851299D+05 0.12341830D+01  1  2  5  2  6  2       21 -.745810998433D-02 0.100000000000D+01
0.410748212387D-04 0.000000000000D+00 0.394171829880D-06 0.278299608975D-06 0.000000000000D+00  6 4 21 25 24 3 21 4 0.39185406D+00 0.12889934D-02 0.19851299D+05 0.19851299D+05 0.19851299D+05 0.12341830D+01  1  2  6  2  6  2       21 0.101943779938D-01 0.100000000000D+01
0.778855147344D-05 0.000000000000D+00 0.000000000000D+00 0.278299608975D-06 0.154363297842D-06  6 4 21 25 24 3 21 4 0.39244425D+00 0.17430666D-02 0.20758462D+05 0.20758462D+05 0.20758462D+05 0.12320504D+01  1  2 11  2  6  2       21 0.117324043706D-02 0.100000000000D+01
0.189762783052D-05 0.000000000000D+00 0.000000000000D+00 0.277338640912D-06 0.000000000000D+00  6 4 -3 25 24 3 -3 4 0.39185406D+00 0.17437893D-02 0.20758462D+05 0.20758462D+05 0.20758462D+05 0.12320504D+01  1  2 12  5  6  2       21 0.106228898302D-04 0.100000000000D+01
0.189894757107D-05 0.000000000000D+00 0.000000000000D+00 0.277338640912D-06 0.000000000000D+00  6 4 -3 25 24 3 -3 4 0.39185406D+00 0.17473037D-02 0.20758462D+05 0.20758462D+05 0.20758462D+05 0.12320504D+01  1  2 12  5  6  2       21 0.105978362627D-04 0.100000000000D+01
-.460355928457D-05 0.000000000000D+00 -.448747580050D-07 0.278299608975D-06 0.000000000000D+00  6 4 -3 25 24 3 -3 4 0.39185406D+00 0.17454456D-02 0.19851299D+05 0.19851299D+05 0.19851299D+05 0.12341830D+01  1  2  5  5  6  2       21 -.258899360805D-04 0.100000000000D+01
0.788429817442D-06 0.000000000000D+00 0.000000000000D+00 0.278299608975D-06 0.156147301478D-07  6 4 -3 25 24 3 -3 4 0.39244425D+00 0.17430666D-02 0.20758462D+05 0.20758462D+05 0.20758462D+05 0.12320504D+01  1  2 11  5  6  2       21 0.437756625169D-05 0.100000000000D+01
0.189762783052D-05 0.000000000000D+00 0.000000000000D+00 0.277338640912D-06 0.000000000000D+00  6 4 3 25 24 3 3 4 0.39185406D+00 0.17437893D-02 0.20758462D+05 0.20758462D+05 0.20758462D+05 0.12320504D+01  1  2 12  6  6  2       21 0.106223389230D-04 0.100000000000D+01
0.189894757107D-05 0.000000000000D+00 0.000000000000D+00 0.277338640912D-06 0.000000000000D+00  6 4 3 25 24 3 3 4 0.39185406D+00 0.17473037D-02 0.20758462D+05 0.20758462D+05 0.20758462D+05 0.12320504D+01  1  2 12  6  6  2       21 0.105972859001D-04 0.100000000000D+01
-.460355928457D-05 0.000000000000D+00 -.448747580050D-07 0.278299608975D-06 0.000000000000D+00  6 4 3 25 24 3 3 4 0.39185406D+00 0.17454456D-02 0.19851299D+05 0.19851299D+05 0.19851299D+05 0.12341830D+01  1  2  5  6  6  2       21 -.258885876407D-04 0.100000000000D+01
0.754034097078D-06 0.000000000000D+00 0.000000000000D+00 0.278299608975D-06 0.744909538301D-08  6 4 3 25 24 3 3 4 0.39244425D+00 0.17430666D-02 0.20758462D+05 0.20758462D+05 0.20758462D+05 0.12320504D+01  1  2 11  6  6  2       21 0.418637525980D-05 0.100000000000D+01
0.189762783052D-05 0.000000000000D+00 0.000000000000D+00 0.277338640912D-06 0.000000000000D+00  6 4 -4 25 24 3 -4 4 0.39185406D+00 0.17437893D-02 0.20758462D+05 0.20758462D+05 0.20758462D+05 0.12320504D+01  1  2 12  7  6  2       21 0.968225645586D-05 0.100000000000D+01
0.189894757107D-05 0.000000000000D+00 0.000000000000D+00 0.277338640912D-06 0.000000000000D+00  6 4 -4 25 24 3 -4 4 0.39185406D+00 0.17473037D-02 0.20758462D+05 0.20758462D+05 0.20758462D+05 0.12320504D+01  1  2 12  7  6  2       21 0.965910034570D-05 0.100000000000D+01
-.460355928457D-05 0.000000000000D+00 -.448747580050D-07 0.278299608975D-06 0.000000000000D+00  6 4 -4 25 24 3 -4 4 0.39185406D+00 0.17454456D-02 0.19851299D+05 0.19851299D+05 0.19851299D+05 0.12341830D+01  1  2  5  7  6  2       21 -.235870703267D-04 0.100000000000D+01
0.754768810520D-06 0.000000000000D+00 0.000000000000D+00 0.278299608975D-06 0.149069619769D-07  6 4 -4 25 24 3 -4 4 0.39244425D+00 0.17430666D-02 0.20758462D+05 0.20758462D+05 0.20758462D+05 0.12320504D+01  1  2 11  7  6  2       21 0.381962305838D-05 0.100000000000D+01
0.189762783052D-05 0.000000000000D+00 0.000000000000D+00 0.277338640912D-06 0.000000000000D+00  6 4 4 25 24 3 4 4 0.39185406D+00 0.17437893D-02 0.20758462D+05 0.20758462D+05 0.20758462D+05 0.12320504D+01  1  2 12  8  6  2       21 0.968225645586D-05 0.100000000000D+01
0.189894757107D-05 0.000000000000D+00 0.000000000000D+00 0.277338640912D-06 0.000000000000D+00  6 4 4 25 24 3 4 4 0.39185406D+00 0.17473037D-02 0.20758462D+05 0.20758462D+05 0.20758462D+05 0.12320504D+01  1  2 12  8  6  2       21 0.965910034570D-05 0.100000000000D+01
-.460355928457D-05 0.000000000000D+00 -.448747580050D-07 0.278299608975D-06 0.000000000000D+00  6 4 4 25 24 3 4 4 0.39185406D+00 0.17454456D-02 0.19851299D+05 0.19851299D+05 0.19851299D+05 0.12341830D+01  1  2  5  8  6  2       21 -.235870703267D-04 0.100000000000D+01
0.755463110987D-06 0.000000000000D+00 0.000000000000D+00 0.278299608975D-06 0.149258115154D-07  6 4 4 25 24 3 4 4 0.39244425D+00 0.17430666D-02 0.20758462D+05 0.20758462D+05 0.20758462D+05 0.12320504D+01  1  2 11  8  6  2       21 0.382313667214D-05 0.100000000000D+01
0.189762783052D-05 0.000000000000D+00 0.000000000000D+00 0.277338640912D-06 0.000000000000D+00  6 4 -1 25 24 3 -1 4 0.39185406D+00 0.17437893D-02 0.20758462D+05 0.20758462D+05 0.20758462D+05 0.12320504D+01  1  2 12  9  6  2       21 0.135761552750D-04 0.100000000000D+01
0.189762783052D-05 0.000000000000D+00 0.000000000000D+00 0.277338640912D-06 0.000000000000D+00  6 4 -2 25 24 3 -2 4 0.39185406D+00 0.17437893D-02 0.20758462D+05 0.20758462D+05 0.20758462D+05 0.12320504D+01  1  2 12  9  6  2       21 0.134683483685D-04 0.100000000000D+01
0.189894757107D-05 0.000000000000D+00 0.000000000000D+00 0.277338640912D-06 0.000000000000D+00  6 4 -1 25 24 3 -1 4 0.39185406D+00 0.17473037D-02 0.20758462D+05 0.20758462D+05 0.20758462D+05 0.12320504D+01  1  2 12  9  6  2       21 0.135462438537D-04 0.100000000000D+01
0.189894757107D-05 0.000000000000D+00 0.000000000000D+00 0.277338640912D-06 0.000000000000D+00  6 4 -2 25 24 3 -2 4 0.39185406D+00 0.17473037D-02 0.20758462D+05 0.20758462D+05 0.20758462D+05 0.12320504D+01  1  2 12  9  6  2       21 0.134384520928D-04 0.100000000000D+01
-.460355928457D-05 0.000000000000D+00 -.448747580050D-07 0.278299608975D-06 0.000000000000D+00  6 4 -1 25 24 3 -1 4 0.39185406D+00 0.17454456D-02 0.19851299D+05 0.19851299D+05 0.19851299D+05 0.12341830D+01  1  2  5  9  6  2       21 -.331195049818D-04 0.100000000000D+01
-.460355928457D-05 0.000000000000D+00 -.448747580050D-07 0.278299608975D-06 0.000000000000D+00  6 4 -2 25 24 3 -2 4 0.39185406D+00 0.17454456D-02 0.19851299D+05 0.19851299D+05 0.19851299D+05 0.12341830D+01  1  2  5  9  6  2       21 -.328559435901D-04 0.100000000000D+01
0.754386489494D-06 0.000000000000D+00 0.000000000000D+00 0.278299608975D-06 0.148994109958D-07  6 4 -1 25 24 3 -1 4 0.39244425D+00 0.17430666D-02 0.20758462D+05 0.20758462D+05 0.20758462D+05 0.12320504D+01  1  2 11  9  6  2       21 0.535283433049D-05 0.100000000000D+01
0.754386489494D-06 0.000000000000D+00 0.000000000000D+00 0.278299608975D-06 0.148994109958D-07  6 4 -2 25 24 3 -2 4 0.39244425D+00 0.17430666D-02 0.20758462D+05 0.20758462D+05 0.20758462D+05 0.12320504D+01  1  2 11  9  6  2       21 0.531034607353D-05 0.100000000000D+01
0.189762783052D-05 0.000000000000D+00 0.000000000000D+00 0.277338640912D-06 0.000000000000D+00  6 4 1 25 24 3 1 4 0.39185406D+00 0.17437893D-02 0.20758462D+05 0.20758462D+05 0.20758462D+05 0.12320504D+01  1  2 12 10  6  2       21 0.141795939716D-04 0.100000000000D+01
0.189762783052D-05 0.000000000000D+00 0.000000000000D+00 0.277338640912D-06 0.000000000000D+00  6 4 2 25 24 3 2 4 0.39185406D+00 0.17437893D-02 0.20758462D+05 0.20758462D+05 0.20758462D+05 0.12320504D+01  1  2 12 10  6  2       21 0.145962139326D-04 0.100000000000D+01
0.189894757107D-05 0.000000000000D+00 0.000000000000D+00 0.277338640912D-06 0.000000000000D+00  6 4 1 25 24 3 1 4 0.39185406D+00 0.17473037D-02 0.20758462D+05 0.20758462D+05 0.20758462D+05 0.12320504D+01  1  2 12 10  6  2       21 0.141495565061D-04 0.100000000000D+01
0.189894757107D-05 0.000000000000D+00 0.000000000000D+00 0.277338640912D-06 0.000000000000D+00  6 4 2 25 24 3 2 4 0.39185406D+00 0.17473037D-02 0.20758462D+05 0.20758462D+05 0.20758462D+05 0.12320504D+01  1  2 12 10  6  2       21 0.145660681909D-04 0.100000000000D+01
-.460355928457D-05 0.000000000000D+00 -.448747580050D-07 0.278299608975D-06 0.000000000000D+00  6 4 1 25 24 3 1 4 0.39185406D+00 0.17454456D-02 0.19851299D+05 0.19851299D+05 0.19851299D+05 0.12341830D+01  1  2  5 10  6  2       21 -.345946596447D-04 0.100000000000D+01
-.460355928457D-05 0.000000000000D+00 -.448747580050D-07 0.278299608975D-06 0.000000000000D+00  6 4 2 25 24 3 2 4 0.39185406D+00 0.17454456D-02 0.19851299D+05 0.19851299D+05 0.19851299D+05 0.12341830D+01  1  2  5 10  6  2       21 -.356130357097D-04 0.100000000000D+01
0.754386489494D-06 0.000000000000D+00 0.000000000000D+00 0.278299608975D-06 0.148994109958D-07  6 4 1 25 24 3 1 4 0.39244425D+00 0.17430666D-02 0.20758462D+05 0.20758462D+05 0.20758462D+05 0.12320504D+01  1  2 11 10  6  2       21 0.559066158877D-05 0.100000000000D+01
0.754386489494D-06 0.000000000000D+00 0.000000000000D+00 0.278299608975D-06 0.148994109958D-07  6 4 2 25 24 3 2 4 0.39244425D+00 0.17430666D-02 0.20758462D+05 0.20758462D+05 0.20758462D+05 0.12320504D+01  1  2 11 10  6  2       21 0.575486157106D-05 0.100000000000D+01
  </mgrwgt>
  </event>
  <event>
  5     66 0.45638357E-03 0.23332244E+03 0.75467711E-02 0.99544400E-01
        2 -1    0    0  502    0 0.00000000E+00 0.00000000E+00 0.32447319E+03 0.32447334E+03 0.32000000E+00 0.0000E+00 0.9000E+01
       21 -1    0    0  501  502 0.00000000E+00 0.00000000E+00 -.34379590E+03 0.34379672E+03 0.75000000E+00 0.0000E+00 0.9000E+01
       25  1    1    2    0    0 -.44599046E+02 -.79032009E+02 0.60878206E+02 0.16603099E+03 0.12500000E+03 0.0000E+00 0.9000E+01
       24  1    1    2    0    0 0.22542112E+03 -.68421971E+02 -.99600615E+02 0.26811144E+03 0.80419002E+02 0.0000E+00 0.9000E+01
        1  1    1    2  501    0 -.18082207E+03 0.14745398E+03 0.19399697E+02 0.23412763E+03 0.32000000E+00 0.0000E+00 0.9000E+01
#aMCatNLO 1  0  0  1  2 0.40013932D+03 0.00000000D+00  -5  6  0 0.00000000D+00 0.00000000D+00 0.00000000D+00 0.00000000D+00 0.00000000D+00
  <mgrwgt>
 0.7181570476D-01    3    2    0
 0.333995324187613D+03 0.000000000000000D+00 0.000000000000000D+00 0.333995324187613D+03
 0.333995324187613D+03 0.000000000000000D+00 0.000000000000000D+00 -.333995324187613D+03
 0.167861440812084D+03 -.445990035844934D+02 -.790320430768438D+02 0.657063798871855D+02
 0.265342552234392D+03 0.225421182663098D+03 -.684220257798752D+02 -.918867284586774D+02
 0.234786655328751D+03 -.180822179078604D+03 0.147454068856719D+03 0.261803485714919D+02
 0.000000000000000D+00 -.000000000000000D+00 0.000000000000000D+00 -.000000000000000D+00
 0.569073183492480D+03 0.000000000000000D+00 0.000000000000000D+00 0.569073183492480D+03
 0.612033109026060D+03 0.000000000000000D+00 0.000000000000000D+00 -.612033109026060D+03
 0.169723321185458D+03 0.487633807239813D+02 -.805345273575939D+02 0.657063798871855D+02
 0.444979807444417D+03 0.421867813532409D+03 -.715834486277776D+02 -.918867284586774D+02
 0.163964310953224D+03 -.705436797260050D+02 0.145679352915077D+03 0.261803485714919D+02
 0.402438852935441D+03 -.400087514530386D+03 0.643862307029487D+01 -.429599255335798D+02
0.132327645697D-03 0.000000000000D+00 0.000000000000D+00 0.381657339516D-07 0.000000000000D+00  6 2 21 25 24 1 21 2 0.49919027D-01 0.52891752D-01 0.10135130D+06 0.10135130D+06 0.10135130D+06 0.11630365D+01  1  2  2  1  6  1        2 0.730607543660D-01 0.100000000000D+01
-.138069866508D-04 0.698312171388D-05 -.267131391378D-06 0.381657339516D-07 0.000000000000D+00  6 2 21 25 24 1 21 4 0.49919027D-01 0.52891752D-01 0.10135130D+06 0.10135130D+06 0.10135130D+06 0.11630365D+01  1  2  3  1  6  1        2 -.103114369125D-01 0.100000000000D+01
0.121398685370D-04 0.000000000000D+00 0.000000000000D+00 0.381657339516D-07 0.000000000000D+00  6 2 21 25 24 1 21 4 0.49919027D-01 0.52891752D-01 0.10135130D+06 0.10135130D+06 0.10135130D+06 0.11630365D+01  1  2 15  1  6  1        2 0.906638730900D-02 0.100000000000D+01
  </mgrwgt>
  </event>
  <event>
  5     66 0.45638357E-03 0.28039675E+02 0.75467711E-02 0.12080366E+00
        4 -1    0    0  502    0 0.00000000E+00 0.00000000E+00 0.59585302E+03 0.59585504E+03 0.15500000E+01 0.0000E+00 0.9000E+01
       21 -1    0    0  501  502 0.00000000E+00 0.00000000E+00 -.34541689E+02 0.34549830E+02 0.75000000E+00 0.0000E+00 0.9000E+01
       25  1    1    2    0    0 -.14300353E+02 0.60630503E+02 0.18153790E+03 0.22904490E+03 0.12500000E+03 0.0000E+00 0.9000E+01
       24  1    1    2    0    0 0.15224845E+02 -.29934930E+02 0.34064833E+03 0.35161967E+03 0.80419002E+02 0.0000E+00 0.9000E+01
        3  1    1    2  501    0 -.92449220E+00 -.30695573E+02 0.39125110E+02 0.49740297E+02 0.50000000E+00 0.0000E+00 0.9000E+01
#aMCatNLO 1  0  0  2  1 0.29422597D+02 0.00000000D+00  -5  6  0 0.00000000D+00 0.00000000D+00 0.00000000D+00 0.00000000D+00 0.00000000D+00
  <mgrwgt>
 0.1837483105D-01   23    2    0
 0.143474636856207D+03 0.000000000000000D+00 0.000000000000000D+00 0.143474636856207D+03
 0.143474636856207D+03 0.000000000000000D+00 0.000000000000000D+00 -.143474636856207D+03
 0.148081543191969D+03 -.143002970694525D+02 0.606323501070074D+02 -.492175076404888D+02
 0.106126638874335D+03 0.152248847872297D+02 -.299336060082420D+02 0.605626092482146D+02
 0.327410916461100D+02 -.924587717777165D+00 -.306987440987655D+02 -.113451016077259D+02
 0.000000000000000D+00 0.000000000000000D+00 -.000000000000000D+00 -.000000000000000D+00
 0.151408863089390D+03 0.000000000000000D+00 0.000000000000000D+00 0.151408863089390D+03
 0.174360953720337D+03 0.000000000000000D+00 0.000000000000000D+00 -.174360953720337D+03
 0.155004482330325D+03 -.218282146315122D+02 0.741792122508137D+02 -.492175076404888D+02
 0.103241921180460D+03 0.100246804641712D+02 -.205755796346344D+02 0.605626092482146D+02
 0.302073621027479D+02 -.248807375994599D+01 -.278851731872329D+02 -.113451016077259D+02
 0.373160511961927D+02 0.142916079272870D+02 -.257184594289463D+02 -.229520906309473D+02
0.208581262230D-05 0.000000000000D+00 0.000000000000D+00 0.543220501687D-06 0.000000000000D+00  6 4 21 25 24 3 21 2 0.91670477D-01 0.53148873D-02 0.16579814D+05 0.16579814D+05 0.16579814D+05 0.12428951D+01  1  2  2  2  6  2       21 0.332217774640D-02 0.100000000000D+01
0.264254033995D-07 0.110071356119D-06 -.421065473517D-08 0.543220501687D-06 0.000000000000D+00  6 4 21 25 24 3 21 4 0.91670477D-01 0.53148873D-02 0.16579814D+05 0.16579814D+05 0.16579814D+05 0.12428951D+01  1  2  3  2  6  2       21 0.650186787637D-04 0.100000000000D+01
0.236812683210D-06 0.000000000000D+00 0.000000000000D+00 0.543220501687D-06 0.000000000000D+00  6 4 21 25 24 3 21 4 0.91670477D-01 0.53148873D-02 0.16579814D+05 0.16579814D+05 0.16579814D+05 0.12428951D+01  1  2 15  2  6  2       21 0.582668409789D-03 0.100000000000D+01
0.377751617662D-05 0.000000000000D+00 0.000000000000D+00 0.533822839395D-06 0.000000000000D+00  6 4 21 25 24 3 21 4 0.91670477D-01 0.65831413D-02 0.20738048D+05 0.20738048D+05 0.20738048D+05 0.12320972D+01  1  2 12  2  6  2       21 0.630337309459D-02 0.100000000000D+01
-.363568867337D-06 0.000000000000D+00 0.000000000000D+00 0.543220501687D-06 0.000000000000D+00  6 4 21 25 24 3 21 4 0.91670477D-01 0.53148873D-02 0.16579814D+05 0.16579814D+05 0.16579814D+05 0.12428951D+01  1  2  4  2  6  2       21 -.894547077921D-03 0.100000000000D+01
-.131727905564D-04 0.000000000000D+00 -.316234232749D-05 0.543220501687D-06 0.000000000000D+00  6 4 21 25 24 3 21 4 0.91670477D-01 0.68104651D-02 0.16579814D+05 0.16579814D+05 0.16579814D+05 0.12428951D+01  1  2  5  2  6  2       21 -.212845195378D-01 0.100000000000D+01
0.124655961670D-04 0.000000000000D+00 0.280497017698D-05 0.543220501687D-06 0.000000000000D+00  6 4 21 25 24 3 21 4 0.91670477D-01 0.53148873D-02 0.16579814D+05 0.16579814D+05 0.16579814D+05 0.12428951D+01  1  2  6  2  6  2       21 0.306711152343D-01 0.100000000000D+01
0.235197387729D-06 0.000000000000D+00 0.000000000000D+00 0.533822839395D-06 0.000000000000D+00  6 4 -3 25 24 3 -3 4 0.91670477D-01 0.65831413D-02 0.20738048D+05 0.20738048D+05 0.20738048D+05 0.12320972D+01  1  2 12  5  6  2       21 0.164587885954D-04 0.100000000000D+01
-.808645066292D-06 0.000000000000D+00 -.235595793717D-06 0.543220501687D-06 0.000000000000D+00  6 4 -3 25 24 3 -3 4 0.91670477D-01 0.68104651D-02 0.16579814D+05 0.16579814D+05 0.16579814D+05 0.12428951D+01  1  2  5  5  6  2       21 -.545127366890D-04 0.100000000000D+01
0.235197387729D-06 0.000000000000D+00 0.000000000000D+00 0.533822839395D-06 0.000000000000D+00  6 4 3 25 24 3 3 4 0.91670477D-01 0.65831413D-02 0.20738048D+05 0.20738048D+05 0.20738048D+05 0.12320972D+01  1  2 12  6  6  2       21 0.164569520404D-04 0.100000000000D+01
-.808645066292D-06 0.000000000000D+00 -.235595793717D-06 0.543220501687D-06 0.000000000000D+00  6 4 3 25 24 3 3 4 0.91670477D-01 0.68104651D-02 0.16579814D+05 0.16579814D+05 0.16579814D+05 0.12428951D+01  1  2  5  6  6  2       21 -.545064489937D-04 0.100000000000D+01
0.235197387729D-06 0.000000000000D+00 0.000000000000D+00 0.533822839395D-06 0.000000000000D+00  6 4 -4 25 24 3 -4 4 0.91670477D-01 0.65831413D-02 0.20738048D+05 0.20738048D+05 0.20738048D+05 0.12320972D+01  1  2 12  7  6  2       21 0.145654862322D-04 0.100000000000D+01
-.808645066292D-06 0.000000000000D+00 -.235595793717D-06 0.543220501687D-06 0.000000000000D+00  6 4 -4 25 24 3 -4 4 0.91670477D-01 0.68104651D-02 0.16579814D+05 0.16579814D+05 0.16579814D+05 0.12428951D+01  1  2  5  7  6  2       21 -.480836322977D-04 0.100000000000D+01
0.235197387729D-06 0.000000000000D+00 0.000000000000D+00 0.533822839395D-06 0.000000000000D+00  6 4 4 25 24 3 4 4 0.91670477D-01 0.65831413D-02 0.20738048D+05 0.20738048D+05 0.20738048D+05 0.12320972D+01  1  2 12  8  6  2       21 0.145654862322D-04 0.100000000000D+01
-.808645066292D-06 0.000000000000D+00 -.235595793717D-06 0.543220501687D-06 0.000000000000D+00  6 4 4 25 24 3 4 4 0.91670477D-01 0.68104651D-02 0.16579814D+05 0.16579814D+05 0.16579814D+05 0.12428951D+01  1  2  5  8  6  2       21 -.480836322977D-04 0.100000000000D+01
0.235197387729D-06 0.000000000000D+00 0.000000000000D+00 0.533822839395D-06 0.000000000000D+00  6 4 -1 25 24 3 -1 4 0.91670477D-01 0.65831413D-02 0.20738048D+05 0.20738048D+05 0.20738048D+05 0.12320972D+01  1  2 12  9  6  2       21 0.237909972577D-04 0.100000000000D+01
0.235197387729D-06 0.000000000000D+00 0.000000000000D+00 0.533822839395D-06 0.000000000000D+00  6 4 -2 25 24 3 -2 4 0.91670477D-01 0.65831413D-02 0.20738048D+05 0.20738048D+05 0.20738048D+05 0.12320972D+01  1  2 12  9  6  2       21 0.230952314139D-04 0.100000000000D+01
-.808645066292D-06 0.000000000000D+00 -.235595793717D-06 0.543220501687D-06 0.000000000000D+00  6 4 -1 25 24 3 -1 4 0.91670477D-01 0.68104651D-02 0.16579814D+05 0.16579814D+05 0.16579814D+05 0.12428951D+01  1  2  5  9  6  2       21 -.795065938581D-04 0.100000000000D+01
-.808645066292D-06 0.000000000000D+00 -.235595793717D-06 0.543220501687D-06 0.000000000000D+00  6 4 -2 25 24 3 -2 4 0.91670477D-01 0.68104651D-02 0.16579814D+05 0.16579814D+05 0.16579814D+05 0.12428951D+01  1  2  5  9  6  2       21 -.770955127424D-04 0.100000000000D+01
0.235197387729D-06 0.000000000000D+00 0.000000000000D+00 0.533822839395D-06 0.000000000000D+00  6 4 1 25 24 3 1 4 0.91670477D-01 0.65831413D-02 0.20738048D+05 0.20738048D+05 0.20738048D+05 0.12320972D+01  1  2 12 10  6  2       21 0.277662594818D-04 0.100000000000D+01
0.235197387729D-06 0.000000000000D+00 0.000000000000D+00 0.533822839395D-06 0.000000000000D+00  6 4 2 25 24 3 2 4 0.91670477D-01 0.65831413D-02 0.20738048D+05 0.20738048D+05 0.20738048D+05 0.12320972D+01  1  2 12 10  6  2       21 0.304342759673D-04 0.100000000000D+01
-.808645066292D-06 0.000000000000D+00 -.235595793717D-06 0.543220501687D-06 0.000000000000D+00  6 4 1 25 24 3 1 4 0.91670477D-01 0.68104651D-02 0.16579814D+05 0.16579814D+05 0.16579814D+05 0.12428951D+01  1  2  5 10  6  2       21 -.932822871265D-04 0.100000000000D+01
-.808645066292D-06 0.000000000000D+00 -.235595793717D-06 0.543220501687D-06 0.000000000000D+00  6 4 2 25 24 3 2 4 0.91670477D-01 0.68104651D-02 0.16579814D+05 0.16579814D+05 0.16579814D+05 0.12428951D+01  1  2  5 10  6  2       21 -.102518127507D-03 0.100000000000D+01
  </mgrwgt>
  </event>
  <event>
  5     66 0.45638357E-03 0.12326894E+03 0.75467711E-02 0.11147536E+00
        2 -1    0    0  502    0 0.00000000E+00 0.00000000E+00 0.38311129E+03 0.38311142E+03 0.32000000E+00 0.0000E+00 0.9000E+01
       21 -1    0    0  501  502 0.00000000E+00 0.00000000E+00 -.27624195E+03 0.27624297E+03 0.75000000E+00 0.0000E+00 0.9000E+01
       25  1    1    2    0    0 -.87299225E+02 -.15770659E+03 0.10623038E+03 0.24372611E+03 0.12500000E+03 0.0000E+00 0.9000E+01
       24  1    1    2    0    0 -.24902925E+02 0.10665866E+03 0.16272244E+03 0.21199536E+03 0.80419002E+02 0.0000E+00 0.9000E+01
        1  1    1    2  501    0 0.11220215E+03 0.51047923E+02 -.16208347E+03 0.20363292E+03 0.32000000E+00 0.0000E+00 0.9000E+01
#aMCatNLO 1  0  0  5  1 0.62482374D+02 0.00000000D+00  -5  6  0 0.00000000D+00 0.00000000D+00 0.00000000D+00 0.00000000D+00 0.00000000D+00
  <mgrwgt>
 0.2183555600D-01    6    2    0
 0.325317982490732D+03 0.000000000000000D+00 0.000000000000000D+00 0.325317982490732D+03
 0.325317982490732D+03 -.000000000000000D+00 -.000000000000000D+00 -.325317982490732D+03
 0.229543317642481D+03 -.872992621752622D+02 -.157706604185055D+03 0.676210063100955D+02
 0.188108347434669D+03 -.249029560020022D+02 0.106658650095486D+03 0.130081934035449D+03
 0.232984299904313D+03 0.112202218177264D+03 0.510479540895691D+02 -.197702940345544D+03
 0.000000000000000D+00 0.000000000000000D+00 0.000000000000000D+00 0.000000000000000D+00
 0.325317982490732D+03 0.000000000000000D+00 0.000000000000000D+00 0.325317982490732D+03
 0.325317982490732D+03 -.000000000000000D+00 -.000000000000000D+00 -.325317982490732D+03
 0.221785120258928D+03 -.806650661987536D+02 -.154688284786993D+03 0.559313973817571D+02
 0.182409648566959D+03 -.194566140658998D+02 0.109136538836250D+03 0.120485351789690D+03
 0.157415331146538D+03 0.175999229658791D+02 0.578224942023941D+02 -.145349194548107D+03
 0.890258650090381D+02 0.825217572987744D+02 -.122707482516514D+02 -.310675546233403D+02
0.600584602751D-04 0.000000000000D+00 0.000000000000D+00 0.298225422555D-06 0.000000000000D+00  6 2 21 25 24 1 21 2 0.58940287D-01 0.42498850D-01 0.57242064D+05 0.57242064D+05 0.57242064D+05 0.11865073D+01  1  2  2  3  6  5        1 0.463421035302D-01 0.100000000000D+01
-.404949863229D-07 0.316937202230D-05 -.121240727686D-06 0.298225422555D-06 0.000000000000D+00  6 2 21 25 24 1 21 4 0.58940287D-01 0.42498850D-01 0.57242064D+05 0.57242064D+05 0.57242064D+05 0.11865073D+01  1  2  3  3  6  5        1 -.439889553695D-04 0.100000000000D+01
0.536615115688D-05 0.000000000000D+00 0.000000000000D+00 0.298225422555D-06 0.000000000000D+00  6 2 21 25 24 1 21 4 0.58940287D-01 0.42498850D-01 0.57242064D+05 0.57242064D+05 0.57242064D+05 0.11865073D+01  1  2 15  3  6  5        1 0.582915084510D-02 0.100000000000D+01
-.442237029649D-04 0.000000000000D+00 0.000000000000D+00 0.298225422555D-06 0.000000000000D+00  6 2 21 25 24 1 21 4 0.58940287D-01 0.42498850D-01 0.57242064D+05 0.57242064D+05 0.57242064D+05 0.11865073D+01  1  2  4  3  6  5        1 -.480393913579D-01 0.100000000000D+01
-.365175826508D-04 0.000000000000D+00 0.000000000000D+00 0.298225422555D-06 0.000000000000D+00  6 2 21 25 24 1 21 4 0.58940287D-01 0.42498850D-01 0.57242064D+05 0.57242064D+05 0.57242064D+05 0.11865073D+01  1  2  5  3  6  5        1 -.396683752556D-01 0.100000000000D+01
0.528555959371D-04 0.000000000000D+00 -.000000000000D+00 0.298225422555D-06 0.000000000000D+00  6 2 21 25 24 1 21 4 0.58940287D-01 0.42498850D-01 0.57242064D+05 0.57242064D+05 0.57242064D+05 0.11865073D+01  1  2  6  3  6  5        1 0.574160571921D-01 0.100000000000D+01
  </mgrwgt>
  </event>
  <event>
  5     66 -.45638357E-03 0.21088788E+02 0.75467711E-02 0.11836312E+00
        2 -1    0    0  502    0 0.00000000E+00 0.00000000E+00 0.19840505E+04 0.19840506E+04 0.32000000E+00 0.0000E+00 0.9000E+01
       21 -1    0    0  501  502 0.00000000E+00 0.00000000E+00 -.88937787E+01 0.89253459E+01 0.75000000E+00 0.0000E+00 0.9000E+01
       25  1    1    2    0    0 0.46977392E+02 -.42386306E+02 0.12221101E+04 0.12301145E+04 0.12500000E+03 0.0000E+00 0.9000E+01
       24  1    1    2    0    0 -.53697095E+02 0.22398512E+02 0.66228543E+03 0.66968223E+03 0.80419002E+02 0.0000E+00 0.9000E+01
        1  1    1    2  501    0 0.67197034E+01 0.19987794E+02 0.90761202E+02 0.93179206E+02 0.32000000E+00 0.0000E+00 0.9000E+01
#aMCatNLO 1  0  0  2  1 0.61716338D+02 0.00000000D+00  -5  6  0 0.00000000D+00 0.00000000D+00 0.00000000D+00 0.00000000D+00 0.00000000D+00
  <mgrwgt>
 -.1886539173D+01   12    2    0
 0.132955587180361D+03 0.000000000000000D+00 0.000000000000000D+00 0.132955587180361D+03
 0.132955587180361D+03 0.000000000000000D+00 0.000000000000000D+00 -.132955587180361D+03
 0.141887677333430D+03 0.469770785276312D+02 -.423872385575719D+02 0.224407905285837D+02
 0.998189449292720D+02 -.536973157906780D+02 0.223978566051817D+02 -.105612550765724D+02
 0.242045520980203D+02 0.672023726304677D+01 0.199893819523902D+02 -.118795354520114D+02
 0.000000000000000D+00 -.000000000000000D+00 0.000000000000000D+00 -.000000000000000D+00
 0.137560702282727D+03 0.000000000000000D+00 0.000000000000000D+00 0.137560702282727D+03
 0.102551685682530D+04 0.000000000000000D+00 0.000000000000000D+00 -.102551685682530D+04
 0.160331984525461D+03 0.716958132645839D+02 -.666143118455399D+02 0.224407905285837D+02
 0.899328499019029D+02 -.381773980810140D+02 0.718663370981371D+01 -.105612550765724D+02
 0.227143937367189D+02 0.105577671216034D+02 0.162281814654968D+02 -.118795354520114D+02
 0.890098330943939D+03 -.440761823051733D+02 0.431994966702294D+02 -.887956154542569D+03
0.855897677771D-06 0.000000000000D+00 0.000000000000D+00 0.123124053596D-05 0.000000000000D+00  6 2 21 25 24 1 21 2 0.30524097D+00 0.13707039D-02 0.16958457D+05 0.16958457D+05 0.16958457D+05 0.12417922D+01  1  2  2  2  6  2       21 0.294372073886D-01 0.100000000000D+01
0.633626604218D-07 0.451669613482D-07 -.172781081637D-08 0.123124053596D-05 0.000000000000D+00  6 2 21 25 24 1 21 4 0.30524097D+00 0.13707039D-02 0.16958457D+05 0.16958457D+05 0.16958457D+05 0.12417922D+01  1  2  3  2  6  2       21 0.336051656895D-02 0.100000000000D+01
0.888167695760D-07 0.000000000000D+00 0.000000000000D+00 0.123124053596D-05 0.000000000000D+00  6 2 21 25 24 1 21 4 0.30524097D+00 0.13707039D-02 0.16958457D+05 0.16958457D+05 0.16958457D+05 0.12417922D+01  1  2 15  2  6  2       21 0.471050653135D-02 0.100000000000D+01
-.947441068446D-03 0.000000000000D+00 -.145538414208D-04 0.123124053596D-05 0.000000000000D+00  6 2 21 25 24 1 21 4 0.30524097D+00 0.10904625D-01 0.16958457D+05 0.16958457D+05 0.16958457D+05 0.12417922D+01  1  2  5  2  6  2       21 -.159168270145D+01 0.100000000000D+01
-.411846590213D-03 0.000000000000D+00 -.629716143154D-05 0.123124053596D-05 0.000000000000D+00  6 2 -1 25 24 1 -1 4 0.30524097D+00 0.10904625D-01 0.16958457D+05 0.16958457D+05 0.16958457D+05 0.12417922D+01  1  2  5  5  6  2       21 -.467154203939D-01 0.100000000000D+01
-.411846590213D-03 0.000000000000D+00 -.629716143154D-05 0.123124053596D-05 0.000000000000D+00  6 2 1 25 24 1 1 4 0.30524097D+00 0.10904625D-01 0.16958457D+05 0.16958457D+05 0.16958457D+05 0.12417922D+01  1  2  5  6  6  2       21 -.596204544724D-01 0.100000000000D+01
-.411846590213D-03 0.000000000000D+00 -.629716143154D-05 0.123124053596D-05 0.000000000000D+00  6 2 -2 25 24 1 -2 4 0.30524097D+00 0.10904625D-01 0.16958457D+05 0.16958457D+05 0.16958457D+05 0.12417922D+01  1  2  5  7  6  2       21 -.444743852427D-01 0.100000000000D+01
-.411846590213D-03 0.000000000000D+00 -.629716143154D-05 0.123124053596D-05 0.000000000000D+00  6 2 2 25 24 1 2 4 0.30524097D+00 0.10904625D-01 0.16958457D+05 0.16958457D+05 0.16958457D+05 0.12417922D+01  1  2  5  8  6  2       21 -.683632771917D-01 0.100000000000D+01
-.411846590213D-03 0.000000000000D+00 -.629716143154D-05 0.123124053596D-05 0.000000000000D+00  6 2 -3 25 24 1 -3 4 0.30524097D+00 0.10904625D-01 0.16958457D+05 0.16958457D+05 0.16958457D+05 0.12417922D+01  1  2  5  9  6  2       21 -.302742396538D-01 0.100000000000D+01
-.411846590213D-03 0.000000000000D+00 -.629716143154D-05 0.123124053596D-05 0.000000000000D+00  6 2 -4 25 24 1 -4 4 0.30524097D+00 0.10904625D-01 0.16958457D+05 0.16958457D+05 0.16958457D+05 0.12417922D+01  1  2  5  9  6  2       21 -.263233097746D-01 0.100000000000D+01
-.411846590213D-03 0.000000000000D+00 -.629716143154D-05 0.123124053596D-05 0.000000000000D+00  6 2 3 25 24 1 3 4 0.30524097D+00 0.10904625D-01 0.16958457D+05 0.16958457D+05 0.16958457D+05 0.12417922D+01  1  2  5 10  6  2       21 -.302703052687D-01 0.100000000000D+01
-.411846590213D-03 0.000000000000D+00 -.629716143154D-05 0.123124053596D-05 0.000000000000D+00  6 2 4 25 24 1 4 4 0.30524097D+00 0.10904625D-01 0.16958457D+05 0.16958457D+05 0.16958457D+05 0.12417922D+01  1  2  5 10  6  2       21 -.263233097746D-01 0.100000000000D+01
  </mgrwgt>
  </event>
  <event>
  6     66 -.45638357E-03 0.16581311E+02 0.75467711E-02 0.12158363E+00
        4 -1    0    0  502    0 0.00000000E+00 0.00000000E+00 0.24070528E+03 0.24071027E+03 0.15500000E+01 0.0000E+00 0.9000E+01
       21 -1    0    0  503  502 0.00000000E+00 0.00000000E+00 -.26834230E+03 0.26834334E+03 0.75000000E+00 0.0000E+00 0.9000E+01
       25  1    1    2    0    0 0.73159128E+02 -.30874600E+01 0.10773897E+03 0.18053940E+03 0.12500000E+03 0.0000E+00 0.9000E+01
       24  1    1    2    0    0 -.34956536E+02 -.11362898E+02 0.55737433E+02 0.10452250E+03 0.80419002E+02 0.0000E+00 0.9000E+01
        3  1    1    2  501    0 -.20584444E+02 0.14862296E+02 0.59978899E+01 0.26092755E+02 0.50000000E+00 0.0000E+00 0.9000E+01
       21  1    1    2  503  501 -.17618148E+02 -.41193743E+00 -.19711131E+03 0.19789896E+03 0.75000000E+00 0.0000E+00 0.9000E+01
#aMCatNLO 2  0  0  2  1 0.17622963D+02 0.00000000D+00  -5  6  0 0.00000000D+00 0.00000000D+00 0.00000000D+00 0.00000000D+00 0.00000000D+00
  <mgrwgt>
 -.4308855881D-01    3    2    0
 0.130177872544851D+03 0.000000000000000D+00 0.000000000000000D+00 0.130177872544851D+03
 0.130177872544851D+03 0.000000000000000D+00 0.000000000000000D+00 -.130177872544851D+03
 0.140689328036741D+03 0.634956305405836D+02 -.331466933666888D+01 0.112162780311452D+02
 0.910178987455319D+02 -.410200776457638D+02 -.115054897551174D+02 -.142087054715283D+01
 0.286485183074300D+02 -.224755528948198D+02 0.148201590917863D+02 -.979540748399241D+01
 0.000000000000000D+00 -.000000000000000D+00 -.000000000000000D+00 -.000000000000000D+00
 0.130689185273380D+03 0.000000000000000D+00 0.000000000000000D+00 0.130689185273380D+03
 0.494245662401554D+03 0.000000000000000D+00 0.000000000000000D+00 -.494245662401554D+03
 0.145302729839281D+03 0.731610447784596D+02 -.308867816377261D+01 0.112162780311452D+02
 0.884321542966207D+02 -.349553669312686D+02 -.113636881671136D+02 -.142087054715283D+01
 0.272166110410099D+02 -.205875297776210D+02 0.148643037655902D+02 -.979540748399241D+01
 0.363983352498022D+03 -.176181480695700D+02 -.411937434704004D+00 -.363556477128174D+03
-.160005991131D-03 0.000000000000D+00 0.000000000000D+00 0.887840254705D-06 0.000000000000D+00  6 4 21 25 24 3 21 4 0.36887052D-01 0.41223339D-01 0.19086206D+05 0.19086206D+05 0.19086206D+05 0.12360683D+01  1  2 13  2  6  2       21 -.629281172077D-01 0.100000000000D+01
-.159905275665D-03 0.000000000000D+00 0.000000000000D+00 0.887840254705D-06 0.000000000000D+00  6 4 21 25 24 3 21 4 0.36887052D-01 0.41651713D-01 0.19086206D+05 0.19086206D+05 0.19086206D+05 0.12360683D+01  1  2 13  2  6  2       21 -.615934583029D-01 0.100000000000D+01
0.209259102131D-03 0.000000000000D+00 0.000000000000D+00 0.897321080817D-06 0.302377146092D-06  6 4 21 25 24 3 21 4 0.37031937D-01 0.41283773D-01 0.19086206D+05 0.19086206D+05 0.19086206D+05 0.12360683D+01  1  2  1  2  6  2       21 0.814330167050D-01 0.100000000000D+01
  </mgrwgt>
  </event>
  <event>
  5     66 -.45638357E-03 0.82420747E+02 0.75467711E-02 0.11867494E+00
        2 -1    0    0  502    0 0.00000000E+00 0.00000000E+00 0.24913827E+02 0.24915882E+02 0.32000000E+00 0.0000E+00 0.9000E+01
       21 -1    0    0  501  502 0.00000000E+00 0.00000000E+00 -.16269780E+04 0.16269782E+04 0.75000000E+00 0.0000E+00 0.9000E+01
       25  1    1    2    0    0 0.39148266E+02 0.45594152E+02 -.62225121E+03 0.63752096E+03 0.12500000E+03 0.0000E+00 0.9000E+01
       24  1    1    2    0    0 0.13265057E+02 0.18014015E+02 -.88423122E+03 0.88816244E+03 0.80419002E+02 0.0000E+00 0.9000E+01
        1  1    1    2  501    0 -.52413323E+02 -.63608167E+02 -.95581761E+02 0.12621066E+03 0.32000000E+00 0.0000E+00 0.9000E+01
#aMCatNLO 1  0  0  1  2 0.16763783D+02 0.00000000D+00  -5  6  0 0.00000000D+00 0.00000000D+00 0.00000000D+00 0.00000000D+00 0.00000000D+00
  <mgrwgt>
 -.1150927442D+00    4    2    0
 0.201335761966998D+03 0.000000000000000D+00 0.000000000000000D+00 0.201335761966998D+03
 0.201335761966998D+03 0.000000000000000D+00 0.000000000000000D+00 -.201335761966998D+03
 0.139644196938643D+03 0.391483154682008D+02 0.455942113138473D+02 -.162505085861599D+02
 0.125549333329927D+03 0.132651008122380D+02 0.180140686841441D+02 -.937813924779468D+02
 0.137477993665426D+03 -.524134162804388D+02 -.636082799979914D+02 0.110031901064107D+03
 0.000000000000000D+00 0.000000000000000D+00 0.000000000000000D+00 -.000000000000000D+00
 0.207920748086952D+03 0.000000000000000D+00 0.000000000000000D+00 0.207920748086952D+03
 0.212469548507676D+03 0.000000000000000D+00 0.000000000000000D+00 -.212469548507676D+03
 0.137323356676073D+03 0.364364387056372D+02 0.405093963658498D+02 -.162505085861599D+02
 0.124736484735503D+03 0.108144733464842D+02 0.134191006008384D+02 -.937813924779468D+02
 0.140960481390645D+03 -.551396952992389D+02 -.687200994208263D+02 0.110031901064107D+03
 0.173699737924052D+02 0.788878324711760D+01 0.147916024541381D+02 -.454880042072384D+01
0.841082945353D-04 0.000000000000D+00 0.000000000000D+00 0.170282130658D-06 0.000000000000D+00  6 2 21 25 24 1 21 2 0.38330679D-02 0.25030448D+00 0.23193591D+05 0.23193591D+05 0.23193591D+05 0.12268053D+01  1  2  2  1  6  1        2 0.231506727861D-01 0.100000000000D+01
-.107762169032D-04 0.443851664399D-05 -.169790413993D-06 0.170282130658D-06 0.000000000000D+00  6 2 21 25 24 1 21 4 0.38330679D-02 0.25030448D+00 0.23193591D+05 0.23193591D+05 0.23193591D+05 0.12268053D+01  1  2  3  1  6  1        2 -.446418688474D-02 0.100000000000D+01
0.978718773903D-05 0.000000000000D+00 0.000000000000D+00 0.170282130658D-06 0.000000000000D+00  6 2 21 25 24 1 21 4 0.38330679D-02 0.25030448D+00 0.23193591D+05 0.23193591D+05 0.23193591D+05 0.12268053D+01  1  2 15  1  6  1        2 0.405446879323D-02 0.100000000000D+01
-.332720352911D-03 0.000000000000D+00 0.000000000000D+00 0.170282130658D-06 0.000000000000D+00  6 2 21 25 24 1 21 4 0.38330679D-02 0.25030448D+00 0.23193591D+05 0.23193591D+05 0.23193591D+05 0.12268053D+01  1  2  4  1  6  1        2 -.137833698885D+00 0.100000000000D+01
  </mgrwgt>
  </event>
  <event>
  6     66 0.45638357E-03 0.16084341E+02 0.75467711E-02 0.11920078E+00
        2 -1    0    0  502    0 0.00000000E+00 0.00000000E+00 0.10050860E+04 0.10050861E+04 0.32000000E+00 0.0000E+00 0.9000E+01
       21 -1    0    0  501  502 0.00000000E+00 0.00000000E+00 -.46621815E+02 0.46627847E+02 0.75000000E+00 0.0000E+00 0.9000E+01
       25  1    1    2    0    0 0.17123921E+02 0.69706376E+02 0.60441214E+03 0.62136240E+03 0.12500000E+03 0.0000E+00 0.9000E+01
       24  1    1    2    0    0 -.15639484E+02 -.75884265E+02 0.53384876E+02 0.12377470E+03 0.80419002E+02 0.0000E+00 0.9000E+01
        1  1    1    2  503    0 0.24038687E+02 0.18538624E+02 0.12500152E+03 0.12863522E+03 0.32000000E+00 0.0000E+00 0.9000E+01
       21  1    1    2  501  503 -.25523123E+02 -.12360735E+02 0.17566568E+03 0.17794159E+03 0.75000000E+00 0.0000E+00 0.9000E+01
#aMCatNLO 2  0  0  5  2 0.10796354D+02 0.00000000D+00  -5  6  0 0.00000000D+00 0.00000000D+00 0.00000000D+00 0.00000000D+00 0.00000000D+00
  <mgrwgt>
 0.3607622178D+00    1    2    0
 0.216476634400746D+03 0.000000000000000D+00 0.000000000000000D+00 0.216476634400746D+03
 0.216476634400746D+03 -.000000000000000D+00 -.000000000000000D+00 -.216476634400746D+03
 0.165271043078260D+03 0.174333974779529D+02 0.684184040482222D+02 0.818811108867371D+02
 0.192666613555711D+03 -.152945865562403D+02 -.773196522236114D+02 -.156336032400558D+03
 0.750156121675214D+02 -.213881092171257D+01 0.890124817538918D+01 0.744549215138212D+02
 0.000000000000000D+00 0.000000000000000D+00 -.000000000000000D+00 0.000000000000000D+00
 0.216476634400746D+03 0.000000000000000D+00 0.000000000000000D+00 0.216476634400746D+03
 0.216476634400746D+03 -.000000000000000D+00 -.000000000000000D+00 -.216476634400746D+03
 0.171327247019212D+03 0.171252106362335D+02 0.697010081039082D+02 0.926095146361624D+02
 0.182526483640066D+03 -.156381105106437D+02 -.758899830830184D+02 -.144377495625021D+03
 0.352324491270477D+02 0.239461232168894D+02 0.183790004975544D+02 0.181692320994160D+02
 0.438670890151666D+02 -.254332233424792D+02 -.121900255184442D+02 0.335987488894423D+02
0.333195225388D-04 0.000000000000D+00 0.000000000000D+00 0.510304839628D-07 0.117441972125D-08  6 2 21 25 24 1 21 4 0.15462909D+00 0.71730548D-02 0.24681079D+05 0.24681079D+05 0.24681079D+05 0.12238959D+01  1  2  1  3  6  5        1 0.360762217823D+00 0.100000000000D+01
  </mgrwgt>
  </event>
  <event>
  5     66 0.45638357E-03 0.33389357E+02 0.75467711E-02 0.11788245E+00
        2 -1    0    0  502    0 0.00000000E+00 0.00000000E+00 0.72132261E+03 0.72132268E+03 0.32000000E+00 0.0000E+00 0.9000E+01
       21 -1    0    0  501  502 0.00000000E+00 0.00000000E+00 -.32254437E+02 0.32263156E+02 0.75000000E+00 0.0000E+00 0.9000E+01
       25  1    1    2    0    0 -.19157058E+02 0.12978699E+02 0.38839229E+03 0.40866736E+03 0.12500000E+03 0.0000E+00 0.9000E+01
       24  1    1    2    0    0 -.46196081E+01 0.10462869E+02 0.30075151E+03 0.31152768E+03 0.80419002E+02 0.0000E+00 0.9000E+01
        1  1    1    2  501    0 0.23776666E+02 -.23441568E+02 -.75625119E-01 0.33390794E+02 0.32000000E+00 0.0000E+00 0.9000E+01
#aMCatNLO 1  0  0  1  1 0.86868331D+02 0.00000000D+00  -5  6  0 0.00000000D+00 0.00000000D+00 0.00000000D+00 0.00000000D+00 0.00000000D+00
  <mgrwgt>
 0.1167717964D+00    7    2    0
 0.152542343794253D+03 0.000000000000000D+00 0.000000000000000D+00 0.152542343794253D+03
 0.152542343794253D+03 0.000000000000000D+00 0.000000000000000D+00 -.152542343794253D+03
 0.132216384929038D+03 -.191571352936096D+02 0.129787752678064D+02 0.363418216878782D+02
 0.902194846387078D+02 -.461966084516031D+01 0.104629211826673D+02 0.392622651932422D+02
 0.826488180207605D+02 0.237767961387699D+02 -.234416964504737D+02 -.756040868811205D+02
 0.000000000000000D+00 0.000000000000000D+00 0.000000000000000D+00 0.000000000000000D+00
 0.215657346463991D+03 0.000000000000000D+00 0.000000000000000D+00 0.215657346463991D+03
 0.191672327218459D+03 0.000000000000000D+00 0.000000000000000D+00 -.191672327218459D+03
 0.142102779593139D+03 -.567180289339913D+02 0.552604364310388D+01 0.363418216878782D+02
 0.945158637646319D+02 -.299143747055030D+02 0.544401200202676D+01 0.392622651932422D+02
 0.805922857881375D+02 0.142516150695446D+01 -.278766477559250D+02 -.756040868811205D+02
 0.901187445365423D+02 0.852072421325399D+02 0.169065921107943D+02 0.239850192455317D+02
0.266444508736D-05 0.000000000000D+00 0.000000000000D+00 0.266851081823D-05 0.000000000000D+00  6 2 21 25 24 1 21 2 0.11097339D+00 0.49628972D-02 0.14609720D+05 0.14609720D+05 0.14609720D+05 0.12491299D+01  1  2  2  1  6  1        2 0.572163976419D-01 0.100000000000D+01
0.209343001551D-06 0.140606630209D-06 -.537874697072D-08 0.266851081823D-05 0.000000000000D+00  6 2 21 25 24 1 21 4 0.11097339D+00 0.49628972D-02 0.14609720D+05 0.14609720D+05 0.14609720D+05 0.12491299D+01  1  2  3  1  6  1        2 0.701434920493D-02 0.100000000000D+01
0.252546554969D-06 0.000000000000D+00 0.000000000000D+00 0.266851081823D-05 0.000000000000D+00  6 2 21 25 24 1 21 4 0.11097339D+00 0.49628972D-02 0.14609720D+05 0.14609720D+05 0.14609720D+05 0.12491299D+01  1  2 15  1  6  1        2 0.846194863900D-02 0.100000000000D+01
-.153074612911D-05 0.000000000000D+00 0.000000000000D+00 0.266851081823D-05 0.000000000000D+00  6 2 21 25 24 1 21 4 0.11097339D+00 0.49628972D-02 0.14609720D+05 0.14609720D+05 0.14609720D+05 0.12491299D+01  1  2  4  1  6  1        2 -.512899299911D-01 0.100000000000D+01
-.367882368525D-05 0.000000000000D+00 -.274064070579D-05 0.266851081823D-05 0.000000000000D+00  6 2 21 25 24 1 21 4 0.18370688D+00 0.49628972D-02 0.14609720D+05 0.14609720D+05 0.14609720D+05 0.12491299D+01  1  2  5  1  6  1        2 -.630389130322D-01 0.100000000000D+01
0.475770274662D-05 0.000000000000D+00 0.242589058802D-05 0.266851081823D-05 0.000000000000D+00  6 2 21 25 24 1 21 4 0.11097339D+00 0.49628972D-02 0.14609720D+05 0.14609720D+05 0.14609720D+05 0.12491299D+01  1  2  6  1  6  1        2 0.159413919887D+00 0.100000000000D+01
-.840149267726D-07 0.000000000000D+00 -.155517604819D-06 0.266851081823D-05 0.000000000000D+00  6 21 21 25 24 1 -2 4 0.18370688D+00 0.49628972D-02 0.14609720D+05 0.14609720D+05 0.14609720D+05 0.12491299D+01  1  2  5  4  6  1        2 -.100597596232D-02 0.100000000000D+01
  </mgrwgt>
  </event>
  <event>
  5     66 0.45638357E-03 0.76876107E+02 0.75467711E-02 0.94718474E-01
        2 -1    0    0  502    0 0.00000000E+00 0.00000000E+00 0.29910903E+03 0.29910920E+03 0.32000000E+00 0.0000E+00 0.9000E+01
       21 -1    0    0  501  502 0.00000000E+00 0.00000000E+00 -.16321055E+04 0.16321057E+04 0.75000000E+00 0.0000E+00 0.9000E+01
       25  1    1    2    0    0 -.43353820E+03 -.43127014E+03 -.74615211E+03 0.97278841E+03 0.12500000E+03 0.0000E+00 0.9000E+01
       24  1    1    2    0    0 0.51033485E+03 0.42778537E+03 -.56881185E+03 0.87946354E+03 0.80419002E+02 0.0000E+00 0.9000E+01
        1  1    1    2  501    0 -.76796649E+02 0.34847723E+01 -.18032508E+02 0.78962919E+02 0.32000000E+00 0.0000E+00 0.9000E+01
#aMCatNLO 1  0  0  2  1 0.69767316D+01 0.00000000D+00  -5  6  0 0.00000000D+00 0.00000000D+00 0.00000000D+00 0.00000000D+00 0.00000000D+00
  <mgrwgt>
 0.6044136138D+00    4    2    0
 0.698697228408409D+03 0.000000000000000D+00 0.000000000000000D+00 0.698697228408409D+03
 0.698697228408409D+03 0.000000000000000D+00 0.000000000000000D+00 -.698697228408409D+03
 0.632638217212321D+03 -.433537991892475D+03 -.431270151266153D+03 -.103232650311292D+03
 0.672830125359175D+03 0.510335075207582D+03 0.427785359238798D+03 0.528295283934713D+02
 0.919261142453227D+02 -.767970833151071D+02 0.348479202735451D+01 0.504031219178205D+02
 0.000000000000000D+00 -.000000000000000D+00 -.000000000000000D+00 0.000000000000000D+00
 0.938290672225962D+03 0.000000000000000D+00 0.000000000000000D+00 0.938290672225962D+03
 0.832915554146967D+03 0.000000000000000D+00 0.000000000000000D+00 -.832915554146967D+03
 0.540082461417300D+03 -.419378125753185D+03 -.299214091713646D+03 -.103232650311292D+03
 0.800392565791683D+03 0.528123314538740D+03 0.593679921330140D+03 0.528295283934713D+02
 0.932312157886916D+02 -.745614247684754D+02 0.243347248776281D+02 0.504031219178205D+02
 0.337499983375255D+03 -.341837640170796D+02 -.318800554494122D+03 0.105375118078995D+03
0.625817541564D-01 0.000000000000D+00 0.000000000000D+00 0.129020612911D-07 0.000000000000D+00  6 2 21 25 24 1 21 2 0.46016800D-01 0.25109318D+00 0.47045039D+06 0.47045039D+06 0.47045039D+06 0.11064238D+01  1  2  2  2  6  2       21 0.529609705828D+00 0.100000000000D+01
0.350043981500D-02 0.330252989872D-02 -.126334531039D-03 0.129020612911D-07 0.000000000000D+00  6 2 21 25 24 1 21 4 0.46016800D-01 0.25109318D+00 0.47045039D+06 0.47045039D+06 0.47045039D+06 0.11064238D+01  1  2  3  2  6  2       21 0.362638438762D-01 0.100000000000D+01
0.566473025521D-02 0.000000000000D+00 0.000000000000D+00 0.129020612911D-07 0.000000000000D+00  6 2 21 25 24 1 21 4 0.46016800D-01 0.25109318D+00 0.47045039D+06 0.47045039D+06 0.47045039D+06 0.11064238D+01  1  2 15  2  6  2       21 0.586854522383D-01 0.100000000000D+01
-.194457374197D-02 0.000000000000D+00 0.000000000000D+00 0.129020612911D-07 0.000000000000D+00  6 2 21 25 24 1 21 4 0.46016800D-01 0.25109318D+00 0.47045039D+06 0.47045039D+06 0.47045039D+06 0.11064238D+01  1  2  4  2  6  2       21 -.201453880973D-01 0.100000000000D+01
  </mgrwgt>
  </event>
  <event>
  6     66 0.45638357E-03 0.12965353E+03 0.75467711E-02 0.10759668E+00
        2 -1    0    0  502    0 0.00000000E+00 0.00000000E+00 0.45935520E+03 0.45935532E+03 0.32000000E+00 0.0000E+00 0.9000E+01
       21 -1    0    0  503  502 0.00000000E+00 0.00000000E+00 -.47286753E+03 0.47286813E+03 0.75000000E+00 0.0000E+00 0.9000E+01
       25  1    1    2    0    0 -.84877175E+02 0.11526662E+02 0.14106460E+03 0.20702951E+03 0.12500000E+03 0.0000E+00 0.9000E+01
       24  1    1    2    0    0 -.80060448E+02 0.76500359E+02 0.15867936E+03 0.20954316E+03 0.80419002E+02 0.0000E+00 0.9000E+01
        1  1    1    2  501    0 -.85879428E+02 -.49680906E+01 0.22003281E+02 0.88793045E+02 0.32000000E+00 0.0000E+00 0.9000E+01
       21  1    1    2  503  501 0.25081705E+03 -.83058930E+02 -.33525957E+03 0.42685773E+03 0.75000000E+00 0.0000E+00 0.9000E+01
#aMCatNLO 2  0  0  2  1 0.75436856D+01 0.00000000D+00  -5  6  0 0.00000000D+00 0.00000000D+00 0.00000000D+00 0.00000000D+00 0.00000000D+00
  <mgrwgt>
 0.2309312927D-02    1    2    0
 0.143235159853465D+03 0.000000000000000D+00 0.000000000000000D+00 0.143235159853465D+03
 0.143235159853465D+03 0.000000000000000D+00 0.000000000000000D+00 -.143235159853465D+03
 0.129131866491948D+03 0.194065526508280D+02 -.230070255151665D+02 0.120042257080348D+02
 0.991612766955940D+02 0.892078822545934D+01 0.470340907870421D+02 0.327712783211522D+02
 0.581771765193886D+02 -.283273408762874D+02 -.240270652718756D+02 -.447755040291870D+02
 0.000000000000000D+00 0.000000000000000D+00 -.000000000000000D+00 -.000000000000000D+00
 0.216433481610400D+03 0.000000000000000D+00 0.000000000000000D+00 0.216433481610400D+03
 0.100360711177221D+04 0.000000000000000D+00 0.000000000000000D+00 -.100360711177221D+04
 0.152006801155284D+03 -.848769615184089D+02 0.115268194232089D+02 0.120042257080348D+02
 0.140723732038266D+03 -.800603964569505D+02 0.765005166045348D+02 0.327712783211522D+02
 0.969786185797490D+02 -.858796928599808D+02 -.496840566420035D+01 -.447755040291870D+02
 0.830331441609313D+03 0.250817050835340D+03 -.830589303635434D+02 -.787173630161813D+03
0.910791960354D-05 0.000000000000D+00 0.000000000000D+00 0.114943872646D-05 0.151894983686D-08  6 2 21 25 24 1 21 4 0.70670035D-01 0.72748854D-01 0.10195953D+06 0.10195953D+06 0.10195953D+06 0.11627982D+01  1  2  1  2  6  2       21 0.230931292746D-02 0.100000000000D+01
  </mgrwgt>
  </event>
  <event>
  5     66 0.45638357E-03 0.20573716E+02 0.75467711E-02 0.11684716E+00
        2 -1    0    0  502    0 0.00000000E+00 0.00000000E+00 0.11145263E+04 0.11145264E+04 0.32000000E+00 0.0000E+00 0.9000E+01
       21 -1    0    0  501  502 0.00000000E+00 0.00000000E+00 -.45169208E+02 0.45175434E+02 0.75000000E+00 0.0000E+00 0.9000E+01
       25  1    1    2    0    0 -.47362179E+02 -.31181282E+02 0.52490263E+03 0.54255250E+03 0.12500000E+03 0.0000E+00 0.9000E+01
       24  1    1    2    0    0 0.27199198E+02 0.27090927E+02 0.57414862E+03 0.58102286E+03 0.80419002E+02 0.0000E+00 0.9000E+01
        1  1    1    2  501    0 0.20162980E+02 0.40903550E+01 -.29694123E+02 0.36126447E+02 0.32000000E+00 0.0000E+00 0.9000E+01
#aMCatNLO 1  0  0  5  2 0.10176117D+02 0.00000000D+00  -5  6  0 0.00000000D+00 0.00000000D+00 0.00000000D+00 0.00000000D+00 0.00000000D+00
  <mgrwgt>
 0.7478982936D+00    4    2    0
 0.224378939856862D+03 0.000000000000000D+00 0.000000000000000D+00 0.224378939856862D+03
 0.224378939856862D+03 -.000000000000000D+00 -.000000000000000D+00 -.224378939856862D+03
 0.151285982536638D+03 -.473621916285638D+02 -.311812848256289D+02 0.636160262264005D+02
 0.133353381184847D+03 0.271991868556894D+02 0.270909248710452D+02 0.992078340811913D+02
 0.164118515992240D+03 0.201630047728744D+02 0.409035995458372D+01 -.162823860307592D+03
 0.000000000000000D+00 0.000000000000000D+00 0.000000000000000D+00 0.000000000000000D+00
 0.224378939856862D+03 0.000000000000000D+00 0.000000000000000D+00 0.224378939856862D+03
 0.224378939856862D+03 -.000000000000000D+00 -.000000000000000D+00 -.224378939856862D+03
 0.142906428905767D+03 -.448094135022682D+02 -.306634165049913D+02 0.430013810525115D+02
 0.121287677233089D+03 0.294087684040338D+02 0.275391707542130D+02 0.813646305796049D+02
 0.967715646594707D+02 -.569972578561081D+02 -.124405575368942D+02 -.772093313770924D+02
 0.877922089153980D+02 0.723979029543424D+02 0.155648032876724D+02 -.471566802550240D+02
0.982138876481D-04 0.000000000000D+00 0.000000000000D+00 0.167672149917D-04 0.000000000000D+00  6 2 21 25 24 1 21 2 0.17146607D+00 0.69495914D-02 0.15245598D+05 0.15245598D+05 0.15245598D+05 0.12470193D+01  1  2  2  3  6  5        1 0.673643830696D+00 0.100000000000D+01
0.298130119366D-04 0.518288924303D-05 -.198265542486D-06 0.167672149917D-04 0.000000000000D+00  6 2 21 25 24 1 21 4 0.17146607D+00 0.69495914D-02 0.15245598D+05 0.15245598D+05 0.15245598D+05 0.12470193D+01  1  2  3  3  6  5        1 0.317987181152D+00 0.100000000000D+01
0.875544418557D-05 0.000000000000D+00 0.000000000000D+00 0.167672149917D-04 0.000000000000D+00  6 2 21 25 24 1 21 4 0.17146607D+00 0.69495914D-02 0.15245598D+05 0.15245598D+05 0.15245598D+05 0.12470193D+01  1  2 15  3  6  5        1 0.933860363464D-01 0.100000000000D+01
-.316067000534D-04 0.000000000000D+00 0.000000000000D+00 0.167672149917D-04 0.000000000000D+00  6 2 21 25 24 1 21 4 0.17146607D+00 0.69495914D-02 0.15245598D+05 0.15245598D+05 0.15245598D+05 0.12470193D+01  1  2  4  3  6  5        1 -.337118754619D+00 0.100000000000D+01
  </mgrwgt>
  </event>
  <event>
  6     66 -.45638357E-03 0.26804172E+02 0.75467711E-02 0.11852488E+00
        2 -1    0    0  502    0 0.00000000E+00 0.00000000E+00 0.46562431E+03 0.46562442E+03 0.32000000E+00 0.0000E+00 0.9000E+01
       21 -1    0    0  501  503 0.00000000E+00 0.00000000E+00 -.36862994E+03 0.36863070E+03 0.75000000E+00 0.0000E+00 0.9000E+01
       25  1    1    2    0    0 0.21719356E+02 -.70328393E+02 0.14299281E+03 0.20369035E+03 0.12500000E+03 0.0000E+00 0.9000E+01
       24  1    1    2    0    0 -.68448149E+02 0.80607997E+02 0.27401487E+03 0.30452285E+03 0.80419002E+02 0.0000E+00 0.9000E+01
        1  1    1    2  501    0 0.32418873E+02 -.10112939E+02 -.29697295E+03 0.29890850E+03 0.32000000E+00 0.0000E+00 0.9000E+01
       21  1    1    2  502  503 0.14309919E+02 -.16666492E+00 -.23040362E+02 0.27133418E+02 0.75000000E+00 0.0000E+00 0.9000E+01
#aMCatNLO 2  0  0  2  1 0.14310890D+02 0.00000000D+00  -5  6  0 0.00000000D+00 0.00000000D+00 0.00000000D+00 0.00000000D+00 0.00000000D+00
  <mgrwgt>
 -.9059994440D+00    3    2    0
 0.399008863518883D+03 0.000000000000000D+00 0.000000000000000D+00 0.399008863518883D+03
 0.399008863518883D+03 0.000000000000000D+00 0.000000000000000D+00 -.399008863518883D+03
 0.184909846159158D+03 0.250309682974316D+02 -.703669618561517D+02 0.113967506385948D+03
 0.265536465886079D+03 -.636762121466578D+02 0.805524207087871D+02 0.231298608481562D+03
 0.347571414992530D+03 0.386452438492262D+02 -.101854588526354D+02 -.345266114867510D+03
 0.000000000000000D+00 0.000000000000000D+00 -.000000000000000D+00 -.000000000000000D+00
 0.400830245326873D+03 0.000000000000000D+00 0.000000000000000D+00 0.400830245326873D+03
 0.428210048964774D+03 0.000000000000000D+00 0.000000000000000D+00 -.428210048964774D+03
 0.184476029586809D+03 0.217193518966666D+02 -.703283920864876D+02 0.113967506385948D+03
 0.266737814313539D+03 -.684481548541441D+02 0.806079986226529D+02 0.231298608481562D+03
 0.346932191757179D+03 0.324188835969342D+02 -.101129416128001D+02 -.345266114867510D+03
 0.308942586341205D+02 0.143099193605434D+02 -.166664923365212D+00 -.273798036379005D+02
-.185980967267D-02 0.000000000000D+00 0.000000000000D+00 0.105085570063D-04 0.000000000000D+00  6 2 21 25 24 1 21 4 0.71308260D-01 0.56827211D-01 0.26599209D+05 0.26599209D+05 0.26599209D+05 0.12204210D+01  1  2 13  2  6  2       21 -.103123610105D+01 0.100000000000D+01
-.690728039246D-04 0.000000000000D+00 0.000000000000D+00 0.105593009140D-04 0.000000000000D+00  6 2 21 25 24 1 21 4 0.71308260D-01 0.52844347D-01 0.24964353D+05 0.24964353D+05 0.24964353D+05 0.12233641D+01  1  2  8  2  6  2       21 -.451648936243D-01 0.100000000000D+01
0.307522244344D-03 0.000000000000D+00 0.000000000000D+00 0.105593009140D-04 0.431061265932D-06  6 2 21 25 24 1 21 4 0.71633765D-01 0.56711723D-01 0.26599209D+05 0.26599209D+05 0.26599209D+05 0.12204210D+01  1  2  1  2  6  2       21 0.170401550668D+00 0.100000000000D+01
  </mgrwgt>
  </event>
  <event>
  5     66 0.45638357E-03 0.24617758E+02 0.75467711E-02 0.11357355E+00
        2 -1    0    0  502    0 0.00000000E+00 0.00000000E+00 0.21164167E+04 0.21164167E+04 0.32000000E+00 0.0000E+00 0.9000E+01
       21 -1    0    0  501  502 0.00000000E+00 0.00000000E+00 -.17401885E+02 0.17418039E+02 0.75000000E+00 0.0000E+00 0.9000E+01
       25  1    1    2    0    0 -.12400772E+03 -.28712112E+02 0.79586759E+03 0.81561788E+03 0.12500000E+03 0.0000E+00 0.9000E+01
       24  1    1    2    0    0 0.14240263E+03 0.12353735E+02 0.12333175E+04 0.12441746E+04 0.80419002E+02 0.0000E+00 0.9000E+01
        1  1    1    2  501    0 -.18394914E+02 0.16358376E+02 0.69829682E+02 0.74042259E+02 0.32000000E+00 0.0000E+00 0.9000E+01
#aMCatNLO 1  0  0  2  2 0.62730743D+02 0.00000000D+00  -5  6  0 0.00000000D+00 0.00000000D+00 0.00000000D+00 0.00000000D+00 0.00000000D+00
  <mgrwgt>
 0.3401968610D+00   14    2    0
 0.191955463702963D+03 0.000000000000000D+00 0.000000000000000D+00 0.191955463702963D+03
 0.191955463702963D+03 0.000000000000000D+00 0.000000000000000D+00 -.191955463702963D+03
 0.181958289583441D+03 -.124007213684364D+03 -.287125602084970D+02 -.357997065441261D+02
 0.172205219094403D+03 0.142403109198718D+03 0.123533107189669D+02 0.524992546023238D+02
 0.297474187280809D+02 -.183958955143541D+02 0.163592494895301D+02 -.166995480581977D+02
 0.000000000000000D+00 -.000000000000000D+00 -.000000000000000D+00 -.000000000000000D+00
 0.211219676399807D+03 0.000000000000000D+00 0.000000000000000D+00 0.211219676399807D+03
 0.253345119158823D+03 0.000000000000000D+00 0.000000000000000D+00 -.253345119158823D+03
 0.163590475575588D+03 -.964462496141683D+02 -.235233000610709D+02 -.357997065441261D+02
 0.197729213207778D+03 0.171909073696424D+03 0.179087813218583D+02 0.524992546023238D+02
 0.276825558785973D+02 -.138152816436652D+02 0.172217010695754D+02 -.166995480581977D+02
 0.755625508966665D+02 -.616475424385906D+02 -.116071823303628D+02 -.421254427590168D+02
0.130885699270D-04 0.000000000000D+00 0.000000000000D+00 0.587738620596D-06 0.000000000000D+00  6 2 21 25 24 1 21 2 0.32560381D+00 0.26784576D-02 0.33677217D+05 0.33677217D+05 0.33677217D+05 0.12096632D+01  1  2  2  2  6  2       21 0.122702542232D+00 0.100000000000D+01
0.134331825413D-05 0.690702811034D-06 -.264220516984D-07 0.587738620596D-06 0.000000000000D+00  6 2 21 25 24 1 21 4 0.32560381D+00 0.26784576D-02 0.33677217D+05 0.33677217D+05 0.33677217D+05 0.12096632D+01  1  2  3  2  6  2       21 0.184276192534D-01 0.100000000000D+01
0.112565975422D-05 0.000000000000D+00 0.000000000000D+00 0.587738620596D-06 0.000000000000D+00  6 2 21 25 24 1 21 4 0.32560381D+00 0.26784576D-02 0.33677217D+05 0.33677217D+05 0.33677217D+05 0.12096632D+01  1  2 15  2  6  2       21 0.154417832826D-01 0.100000000000D+01
-.778334512344D-06 0.000000000000D+00 0.000000000000D+00 0.587738620596D-06 0.000000000000D+00  6 2 21 25 24 1 21 4 0.32560381D+00 0.26784576D-02 0.33677217D+05 0.33677217D+05 0.33677217D+05 0.12096632D+01  1  2  4  2  6  2       21 -.106771809296D-01 0.100000000000D+01
-.495063293885D-04 0.000000000000D+00 -.159736815414D-04 0.587738620596D-06 0.000000000000D+00  6 2 21 25 24 1 21 4 0.32560381D+00 0.39590719D-02 0.33677217D+05 0.33677217D+05 0.33677217D+05 0.12096632D+01  1  2  5  2  6  2       21 -.355101906437D+00 0.100000000000D+01
0.412330078459D-04 0.000000000000D+00 0.119812459226D-04 0.587738620596D-06 0.000000000000D+00  6 2 21 25 24 1 21 4 0.32560381D+00 0.26784576D-02 0.33677217D+05 0.33677217D+05 0.33677217D+05 0.12096632D+01  1  2  6  2  6  2       21 0.565633770644D+00 0.100000000000D+01
-.582429009109D-05 0.000000000000D+00 -.207848998565D-05 0.587738620596D-06 0.000000000000D+00  6 2 -1 25 24 1 -1 4 0.32560381D+00 0.39590719D-02 0.33677217D+05 0.33677217D+05 0.33677217D+05 0.12096632D+01  1  2  5  5  6  2       21 -.230237048546D-02 0.100000000000D+01
-.582429009109D-05 0.000000000000D+00 -.207848998565D-05 0.587738620596D-06 0.000000000000D+00  6 2 1 25 24 1 1 4 0.32560381D+00 0.39590719D-02 0.33677217D+05 0.33677217D+05 0.33677217D+05 0.12096632D+01  1  2  5  6  6  2       21 -.253229806163D-02 0.100000000000D+01
-.582429009109D-05 0.000000000000D+00 -.207848998565D-05 0.587738620596D-06 0.000000000000D+00  6 2 -2 25 24 1 -2 4 0.32560381D+00 0.39590719D-02 0.33677217D+05 0.33677217D+05 0.33677217D+05 0.12096632D+01  1  2  5  7  6  2       21 -.226156820829D-02 0.100000000000D+01
-.582429009109D-05 0.000000000000D+00 -.207848998565D-05 0.587738620596D-06 0.000000000000D+00  6 2 2 25 24 1 2 4 0.32560381D+00 0.39590719D-02 0.33677217D+05 0.33677217D+05 0.33677217D+05 0.12096632D+01  1  2  5  8  6  2       21 -.268773063758D-02 0.100000000000D+01
-.582429009109D-05 0.000000000000D+00 -.207848998565D-05 0.587738620596D-06 0.000000000000D+00  6 2 -3 25 24 1 -3 4 0.32560381D+00 0.39590719D-02 0.33677217D+05 0.33677217D+05 0.33677217D+05 0.12096632D+01  1  2  5  9  6  2       21 -.169561469191D-02 0.100000000000D+01
-.582429009109D-05 0.000000000000D+00 -.207848998565D-05 0.587738620596D-06 0.000000000000D+00  6 2 -4 25 24 1 -4 4 0.32560381D+00 0.39590719D-02 0.33677217D+05 0.33677217D+05 0.33677217D+05 0.12096632D+01  1  2  5  9  6  2       21 -.152735598188D-02 0.100000000000D+01
-.582429009109D-05 0.000000000000D+00 -.207848998565D-05 0.587738620596D-06 0.000000000000D+00  6 2 3 25 24 1 3 4 0.32560381D+00 0.39590719D-02 0.33677217D+05 0.33677217D+05 0.33677217D+05 0.12096632D+01  1  2  5 10  6  2       21 -.169547297324D-02 0.100000000000D+01
-.582429009109D-05 0.000000000000D+00 -.207848998565D-05 0.587738620596D-06 0.000000000000D+00  6 2 4 25 24 1 4 4 0.32560381D+00 0.39590719D-02 0.33677217D+05 0.33677217D+05 0.33677217D+05 0.12096632D+01  1  2  5 10  6  2       21 -.152735598188D-02 0.100000000000D+01
  </mgrwgt>
  </event>
  <event>
  5     66 0.45638357E-03 0.37467111E+02 0.75467711E-02 0.12089526E+00
        2 -1    0    0  502    0 0.00000000E+00 0.00000000E+00 0.64838666E+03 0.64838674E+03 0.32000000E+00 0.0000E+00 0.9000E+01
       21 -1    0    0  501  502 0.00000000E+00 0.00000000E+00 -.34931621E+02 0.34939671E+02 0.75000000E+00 0.0000E+00 0.9000E+01
       25  1    1    2    0    0 -.15077670E+02 0.60719430E+02 0.20098156E+03 0.24481171E+03 0.12500000E+03 0.0000E+00 0.9000E+01
       24  1    1    2    0    0 -.20844337E+02 -.71363871E+02 0.33517974E+03 0.35261872E+03 0.80419002E+02 0.0000E+00 0.9000E+01
        1  1    1    2  501    0 0.35922007E+02 0.10644441E+02 0.77293738E+02 0.85895979E+02 0.32000000E+00 0.0000E+00 0.9000E+01
#aMCatNLO 1  0  0  5  2 0.31689750D+01 0.00000000D+00  -5  6  0 0.00000000D+00 0.00000000D+00 0.00000000D+00 0.00000000D+00 0.00000000D+00
  <mgrwgt>
 0.3068730035D+00    6    2    0
 0.150505728200148D+03 0.000000000000000D+00 0.000000000000000D+00 0.150505728200148D+03
 0.150505728200148D+03 -.000000000000000D+00 -.000000000000000D+00 -.150505728200148D+03
 0.146151088763517D+03 -.150783061861933D+02 0.607192413833351D+02 -.426726980064434D+02
 0.117391009160806D+03 -.208448482673351D+02 -.713640226743635D+02 0.422622957950297D+02
 0.374693584759737D+02 0.359231544535284D+02 0.106447812910284D+02 0.410402211413668D+00
 0.000000000000000D+00 -.000000000000000D+00 0.000000000000000D+00 0.000000000000000D+00
 0.150505728200148D+03 0.000000000000000D+00 0.000000000000000D+00 0.150505728200148D+03
 0.150505728200148D+03 -.000000000000000D+00 -.000000000000000D+00 -.150505728200148D+03
 0.146214161153923D+03 -.126263738347674D+02 0.614458001730174D+02 -.426446860327020D+02
 0.116712694335009D+03 -.188815286034827D+02 -.707822500337364D+02 0.422847256385113D+02
 0.352687788372684D+01 -.605454471820828D+00 -.337385270728999D+01 -.830307412218690D+00
 0.345577230276376D+02 0.321133569100710D+02 0.127103025680090D+02 0.119026780640935D+01
0.154538676045D-04 0.000000000000D+00 0.000000000000D+00 0.356907014894D-06 0.000000000000D+00  6 2 21 25 24 1 21 2 0.99752419D-01 0.53747208D-02 0.20559166D+05 0.20559166D+05 0.20559166D+05 0.12325098D+01  1  2  2  3  6  5        1 0.321807323057D+00 0.100000000000D+01
-.204838986356D-06 0.815522998720D-06 -.311969062369D-07 0.356907014894D-06 0.000000000000D+00  6 2 21 25 24 1 21 4 0.99752419D-01 0.53747208D-02 0.20559166D+05 0.20559166D+05 0.20559166D+05 0.12325098D+01  1  2  3  3  6  5        1 -.647965872107D-02 0.100000000000D+01
0.170015315815D-05 0.000000000000D+00 0.000000000000D+00 0.356907014894D-06 0.000000000000D+00  6 2 21 25 24 1 21 4 0.99752419D-01 0.53747208D-02 0.20559166D+05 0.20559166D+05 0.20559166D+05 0.12325098D+01  1  2 15  3  6  5        1 0.537808374975D-01 0.100000000000D+01
0.340344916839D-07 0.000000000000D+00 0.000000000000D+00 0.356938546506D-06 0.000000000000D+00  6 2 21 25 24 1 21 4 0.99752419D-01 0.53747208D-02 0.20535693D+05 0.20535693D+05 0.20535693D+05 0.12325643D+01  1  2 12  3  6  5        1 0.107678515240D-02 0.100000000000D+01
-.110148594547D-04 0.000000000000D+00 0.000000000000D+00 0.356907014894D-06 0.000000000000D+00  6 2 21 25 24 1 21 4 0.99752419D-01 0.53747208D-02 0.20559166D+05 0.20559166D+05 0.20559166D+05 0.12325098D+01  1  2  4  3  6  5        1 -.348432353610D+00 0.100000000000D+01
0.901193393555D-05 0.000000000000D+00 0.000000000000D+00 0.356907014894D-06 0.367696163400D-07  6 2 21 25 24 1 21 4 0.99752419D-01 0.53747208D-02 0.20535693D+05 0.20535693D+05 0.20535693D+05 0.12325643D+01  1  2 11  3  6  5        1 0.285120070143D+00 0.100000000000D+01
  </mgrwgt>
  </event>
  <event>
  5     66 0.45638357E-03 0.26643277E+02 0.75467711E-02 0.12290121E+00
        2 -1    0    0  502    0 0.00000000E+00 0.00000000E+00 0.20425039E+04 0.20425039E+04 0.32000000E+00 0.0000E+00 0.9000E+01
       21 -1    0    0  501  502 0.00000000E+00 0.00000000E+00 -.14007611E+02 0.14027675E+02 0.75000000E+00 0.0000E+00 0.9000E+01
       25  1    1    2    0    0 0.50871005E+02 0.22842481E+02 0.16414551E+04 0.16471520E+04 0.12500000E+03 0.0000E+00 0.9000E+01
       24  1    1    2    0    0 -.49274258E+02 0.37526326E+01 0.35680446E+03 0.36907814E+03 0.80419002E+02 0.0000E+00 0.9000E+01
        1  1    1    2  501    0 -.15967467E+01 -.26595114E+02 0.30236654E+02 0.40301456E+02 0.32000000E+00 0.0000E+00 0.9000E+01
#aMCatNLO 1  0  0  5  1 0.89756094D-02 0.00000000D+00  -5  6  0 0.00000000D+00 0.00000000D+00 0.00000000D+00 0.00000000D+00 0.00000000D+00
  <mgrwgt>
 0.1308848299D-01    7    2    0
 0.169207734109730D+03 0.000000000000000D+00 0.000000000000000D+00 0.169207734109730D+03
 0.169207734109730D+03 -.000000000000000D+00 -.000000000000000D+00 -.169207734109730D+03
 0.170602432577693D+03 0.508710146691727D+02 0.228426503069266D+02 0.101835863991575D+03
 0.104145069770731D+03 -.492742515478234D+02 0.375273597007378D+01 -.440107340352404D+02
 0.636679658710367D+02 -.159676312134933D+01 -.265953862770003D+02 -.578251299563342D+02
 0.000000000000000D+00 0.000000000000000D+00 0.000000000000000D+00 -.000000000000000D+00
 0.169207734109730D+03 0.000000000000000D+00 0.000000000000000D+00 0.169207734109730D+03
 0.169207734109730D+03 -.000000000000000D+00 -.000000000000000D+00 -.169207734109730D+03
 0.170600652912767D+03 0.508709409614585D+02 0.228414226450997D+02 0.101833194742708D+03
 0.104145752666315D+03 -.492742965434317D+02 0.375198653168222D+01 -.440123635048008D+02
 0.636592378748160D+02 -.160539047945040D+01 -.265930119639564D+02 -.578163731385477D+02
 0.982476556227048D-02 0.874606142362823D-02 -.397212825605880D-03 -.445809935946613D-02
0.488648446232D-06 0.000000000000D+00 0.000000000000D+00 0.139426443658D-05 0.000000000000D+00  6 2 21 25 24 1 21 2 0.31423291D+00 0.21565625D-02 0.16628963D+05 0.16628963D+05 0.16628963D+05 0.12427503D+01  1  2  2  3  6  5        1 0.759292755072D-02 0.100000000000D+01
0.417745195184D-07 0.257866869569D-07 -.986440427085D-09 0.139426443658D-05 0.000000000000D+00  6 2 21 25 24 1 21 4 0.31423291D+00 0.21565625D-02 0.16628963D+05 0.16628963D+05 0.16628963D+05 0.12427503D+01  1  2  3  3  6  5        1 0.100251754373D-02 0.100000000000D+01
0.466529050048D-07 0.000000000000D+00 0.000000000000D+00 0.139426443658D-05 0.000000000000D+00  6 2 21 25 24 1 21 4 0.31423291D+00 0.21565625D-02 0.16628963D+05 0.16628963D+05 0.16628963D+05 0.12427503D+01  1  2 15  3  6  5        1 0.111959051288D-02 0.100000000000D+01
-.144745957423D-02 0.000000000000D+00 0.000000000000D+00 0.139426443658D-05 0.000000000000D+00  6 2 21 25 24 1 21 4 0.31423291D+00 0.21565625D-02 0.16628963D+05 0.16628963D+05 0.16628963D+05 0.12427503D+01  1  2  4  3  6  5        1 -.347365722869D+02 0.100000000000D+01
-.112091446553D-02 0.000000000000D+00 0.000000000000D+00 0.139426443658D-05 0.000000000000D+00  6 2 21 25 24 1 21 4 0.31423291D+00 0.21565625D-02 0.16628963D+05 0.16628963D+05 0.16628963D+05 0.12427503D+01  1  2  5  3  6  5        1 -.269000440859D+02 0.100000000000D+01
0.112113663305D-02 0.000000000000D+00 -.000000000000D+00 0.139426443658D-05 0.000000000000D+00  6 2 21 25 24 1 21 4 0.31423291D+00 0.21565625D-02 0.16628963D+05 0.16628963D+05 0.16628963D+05 0.12427503D+01  1  2  6  3  6  5        1 0.269053757292D+02 0.100000000000D+01
0.144739036354D-02 0.000000000000D+00 0.000000000000D+00 0.139426443658D-05 0.171048521762D+00  6 2 21 25 24 1 21 4 0.31423291D+00 0.21565625D-02 0.16629822D+05 0.16629822D+05 0.16629822D+05 0.12427478D+01  1  2 11  3  6  5        1 0.347346140909D+02 0.100000000000D+01
  </mgrwgt>
  </event>
  <event>
  5     66 0.45638357E-03 0.44788109E+02 0.75467711E-02 0.12244646E+00
        2 -1    0    0  502    0 0.00000000E+00 0.00000000E+00 0.68773186E+02 0.68773930E+02 0.32000000E+00 0.0000E+00 0.9000E+01
       21 -1    0    0  501  502 0.00000000E+00 0.00000000E+00 -.38288354E+03 0.38288428E+03 0.75000000E+00 0.0000E+00 0.9000E+01
       25  1    1    2    0    0 -.45892732E+02 -.12949008E+00 -.89166104E+02 0.16025528E+03 0.12500000E+03 0.0000E+00 0.9000E+01
       24  1    1    2    0    0 0.11847592E+01 0.28043666E+01 -.21796167E+02 0.83375998E+02 0.80419002E+02 0.0000E+00 0.9000E+01
        1  1    1    2  501    0 0.44707972E+02 -.26748765E+01 -.20314809E+03 0.20802693E+03 0.32000000E+00 0.0000E+00 0.9000E+01
#aMCatNLO 1  0  0  1  2 0.65055592D+01 0.00000000D+00  -5  6  0 0.00000000D+00 0.00000000D+00 0.00000000D+00 0.00000000D+00 0.00000000D+00
  <mgrwgt>
 0.4439331492D-01   11    2    0
 0.162272779463833D+03 0.000000000000000D+00 0.000000000000000D+00 0.162272779463833D+03
 0.162272779463833D+03 0.000000000000000D+00 0.000000000000000D+00 -.162272779463833D+03
 0.136722380235844D+03 -.458928433006022D+02 -.129483397749629D+00 0.310135361606969D+02
 0.949360573756227D+02 0.118468156265863D+01 0.280437120366265D+01 0.503623973556082D+02
 0.928871213161999D+02 0.447081617379436D+02 -.267488780591302D+01 -.813759335163050D+02
 0.000000000000000D+00 0.000000000000000D+00 -.000000000000000D+00 0.000000000000000D+00
 0.173702545935831D+03 0.000000000000000D+00 0.000000000000000D+00 0.173702545935831D+03
 0.163233728603650D+03 0.000000000000000D+00 0.000000000000000D+00 -.163233728603650D+03
 0.137630911335924D+03 -.485283509868767D+02 0.653819899321742D+00 0.310135361606969D+02
 0.949483805445919D+02 -.639396773619451D+00 0.334650833434308D+01 0.503623973556082D+02
 0.920314629022099D+02 0.429317866587507D+02 -.214692863371494D+01 -.813759335163050D+02
 0.123255197567545D+02 0.623596110174550D+01 -.185339959994988D+01 0.104688173321808D+02
0.369626550479D-05 0.000000000000D+00 0.000000000000D+00 0.161328232617D-05 0.000000000000D+00  6 2 21 25 24 1 21 2 0.10580604D-01 0.58905274D-01 0.16695632D+05 0.16695632D+05 0.16695632D+05 0.12425548D+01  1  2  2  1  6  1        2 0.111763666167D-01 0.100000000000D+01
0.143200135759D-06 0.195057289584D-06 -.746169511288D-08 0.161328232617D-05 0.000000000000D+00  6 2 21 25 24 1 21 4 0.10580604D-01 0.58905274D-01 0.16695632D+05 0.16695632D+05 0.16695632D+05 0.12425548D+01  1  2  3  1  6  1        2 0.668516290637D-03 0.100000000000D+01
0.361486169838D-06 0.000000000000D+00 0.000000000000D+00 0.161328232617D-05 0.000000000000D+00  6 2 21 25 24 1 21 4 0.10580604D-01 0.58905274D-01 0.16695632D+05 0.16695632D+05 0.16695632D+05 0.12425548D+01  1  2 15  1  6  1        2 0.168756399633D-02 0.100000000000D+01
0.105769394934D-03 0.000000000000D+00 0.000000000000D+00 0.160781250995D-05 0.000000000000D+00  6 2 21 25 24 1 21 4 0.11355884D-01 0.58905274D-01 0.17433671D+05 0.17433671D+05 0.17433671D+05 0.12404466D+01  1  2 12  1  6  1        2 0.450046375914D+00 0.100000000000D+01
-.111527990072D-03 0.000000000000D+00 0.000000000000D+00 0.161328232617D-05 0.000000000000D+00  6 2 21 25 24 1 21 4 0.10580604D-01 0.58905274D-01 0.16695632D+05 0.16695632D+05 0.16695632D+05 0.12425548D+01  1  2  4  1  6  1        2 -.520657873889D+00 0.100000000000D+01
-.217738577501D-03 0.000000000000D+00 -.210494628921D-04 0.161328232617D-05 0.000000000000D+00  6 2 21 25 24 1 21 4 0.11384778D-01 0.58905274D-01 0.16695632D+05 0.16695632D+05 0.16695632D+05 0.12425548D+01  1  2  5  1  6  1        2 -.930093779239D+00 0.100000000000D+01
0.218749706456D-03 0.000000000000D+00 0.209931105570D-04 0.161328232617D-05 0.000000000000D+00  6 2 21 25 24 1 21 4 0.10580604D-01 0.58905274D-01 0.16695632D+05 0.16695632D+05 0.16695632D+05 0.12425548D+01  1  2  6  1  6  1        2 0.102121231634D+01 0.100000000000D+01
0.126516730519D-04 0.000000000000D+00 0.000000000000D+00 0.161328232617D-05 0.318343848962D-06  6 2 21 25 24 1 21 4 0.11325854D-01 0.59254100D-01 0.17433671D+05 0.17433671D+05 0.17433671D+05 0.12404466D+01  1  2 11  1  6  1        2 0.533334111207D-01 0.100000000000D+01
0.147008646466D-05 0.000000000000D+00 0.000000000000D+00 0.160781250995D-05 0.000000000000D+00  6 21 21 25 24 1 -2 4 0.11355884D-01 0.58905274D-01 0.17433671D+05 0.17433671D+05 0.17433671D+05 0.12404466D+01  1  2 12  4  6  1        2 0.618822961789D-01 0.100000000000D+01
-.264976429327D-05 0.000000000000D+00 -.259890872971D-06 0.161328232617D-05 0.000000000000D+00  6 21 21 25 24 1 -2 4 0.11384778D-01 0.58905274D-01 0.16695632D+05 0.16695632D+05 0.16695632D+05 0.12425548D+01  1  2  5  4  6  1        2 -.111889426066D+00 0.100000000000D+01
0.168262007983D-06 0.000000000000D+00 0.000000000000D+00 0.161328232617D-05 0.394678677966D-08  6 21 21 25 24 1 -2 4 0.11325854D-01 0.59254100D-01 0.17433671D+05 0.17433671D+05 0.17433671D+05 0.12404466D+01  1  2 11  4  6  1        2 0.702754765479D-02 0.100000000000D+01
  </mgrwgt>
  </event>
  <event>
  5     66 0.45638357E-03 0.30065853E+02 0.75467711E-02 0.12011125E+00
        2 -1    0    0  502    0 0.00000000E+00 0.00000000E+00 0.35104648E+04 0.35104648E+04 0.32000000E+00 0.0000E+00 0.9000E+01
       21 -1    0    0  501  502 0.00000000E+00 0.00000000E+00 -.11593765E+02 0.11617998E+02 0.75000000E+00 0.0000E+00 0.9000E+01
       25  1    1    2    0    0 -.77714231E+02 0.36328223E+02 0.13450973E+04 0.13536141E+04 0.12500000E+03 0.0000E+00 0.9000E+01
       24  1    1    2    0    0 0.49581185E+02 -.46933943E+02 0.21223763E+04 0.21249964E+04 0.80419002E+02 0.0000E+00 0.9000E+01
        1  1    1    2  501    0 0.28133046E+02 0.10605720E+02 0.31397411E+02 0.43472398E+02 0.32000000E+00 0.0000E+00 0.9000E+01
#aMCatNLO 1  0  0  2  1 0.13071112D+02 0.00000000D+00  -5  6  0 0.00000000D+00 0.00000000D+00 0.00000000D+00 0.00000000D+00 0.00000000D+00
  <mgrwgt>
 0.5196597210D+00   23    2    0
 0.201846985840868D+03 0.000000000000000D+00 0.000000000000000D+00 0.201846985840868D+03
 0.201846985840868D+03 0.000000000000000D+00 0.000000000000000D+00 -.201846985840868D+03
 0.151646548669165D+03 -.777142778236718D+02 0.363282052114748D+02 0.352537256577153D+01
 0.144892385538370D+03 0.495811397057035D+02 -.469339599072506D+02 0.993252305586911D+02
 0.107155037474201D+03 0.281331381179683D+02 0.106057546957758D+02 -.102850603124463D+03
 0.000000000000000D+00 0.000000000000000D+00 0.000000000000000D+00 -.000000000000000D+00
 0.202744920186140D+03 0.000000000000000D+00 0.000000000000000D+00 0.202744920186140D+03
 0.255873362193246D+03 0.000000000000000D+00 0.000000000000000D+00 -.255873362193246D+03
 0.151767590127257D+03 -.798602236038789D+02 0.319110928557150D+02 0.352537256577153D+01
 0.145633682134979D+03 0.475263469019242D+02 -.511634473275823D+02 0.993252305586911D+02
 0.106504257225812D+03 0.266219980515156D+02 0.749529611831461D+01 -.102850603124463D+03
 0.547127528913383D+02 0.571187865043903D+01 0.117570583535527D+02 -.531284420071063D+02
0.646764467220D-05 0.000000000000D+00 0.000000000000D+00 0.215488800445D-05 0.000000000000D+00  6 2 21 25 24 1 21 2 0.54007338D+00 0.17855214D-02 0.20615530D+05 0.20615530D+05 0.20615530D+05 0.12323794D+01  1  2  2  2  6  2       21 0.198126295441D-01 0.100000000000D+01
0.920153780185D-06 0.341306986232D-06 -.130563111821D-07 0.215488800445D-05 0.000000000000D+00  6 2 21 25 24 1 21 4 0.54007338D+00 0.17855214D-02 0.20615530D+05 0.20615530D+05 0.20615530D+05 0.12323794D+01  1  2  3  2  6  2       21 0.428099997175D-02 0.100000000000D+01
0.720231437942D-06 0.000000000000D+00 0.000000000000D+00 0.215488800445D-05 0.000000000000D+00  6 2 21 25 24 1 21 4 0.54007338D+00 0.17855214D-02 0.20615530D+05 0.20615530D+05 0.20615530D+05 0.12323794D+01  1  2 15  2  6  2       21 0.335086464011D-02 0.100000000000D+01
0.137325379219D-03 0.000000000000D+00 0.000000000000D+00 0.214155594590D-05 0.000000000000D+00  6 2 21 25 24 1 21 4 0.54007338D+00 0.22666814D-02 0.22344483D+05 0.22344483D+05 0.22344483D+05 0.12285612D+01  1  2 12  2  6  2       21 0.427309646465D+00 0.100000000000D+01
-.478239716496D-04 0.000000000000D+00 0.000000000000D+00 0.215488800445D-05 0.000000000000D+00  6 2 21 25 24 1 21 4 0.54007338D+00 0.17855214D-02 0.20615530D+05 0.20615530D+05 0.20615530D+05 0.12323794D+01  1  2  4  2  6  2       21 -.222500222995D+00 0.100000000000D+01
-.288336460526D-03 0.000000000000D+00 -.996484376238D-05 0.215488800445D-05 0.000000000000D+00  6 2 21 25 24 1 21 4 0.54007338D+00 0.22771707D-02 0.20615530D+05 0.20615530D+05 0.20615530D+05 0.12323794D+01  1  2  5  2  6  2       21 -.905040169150D+00 0.100000000000D+01
0.258869386912D-03 0.000000000000D+00 0.887788981890D-05 0.215488800445D-05 0.000000000000D+00  6 2 21 25 24 1 21 4 0.54007338D+00 0.17855214D-02 0.20615530D+05 0.20615530D+05 0.20615530D+05 0.12323794D+01  1  2  6  2  6  2       21 0.120438546460D+01 0.100000000000D+01
0.978804333591D-05 0.000000000000D+00 0.000000000000D+00 0.214155594590D-05 0.000000000000D+00  6 2 -1 25 24 1 -1 4 0.54007338D+00 0.22666814D-02 0.22344483D+05 0.22344483D+05 0.22344483D+05 0.12285612D+01  1  2 12  5  6  2       21 0.150284814226D-02 0.100000000000D+01
-.206284161464D-04 0.000000000000D+00 -.725111520788D-06 0.215488800445D-05 0.000000000000D+00  6 2 -1 25 24 1 -1 4 0.54007338D+00 0.22771707D-02 0.20615530D+05 0.20615530D+05 0.20615530D+05 0.12323794D+01  1  2  5  5  6  2       21 -.319381810944D-02 0.100000000000D+01
0.978804333591D-05 0.000000000000D+00 0.000000000000D+00 0.214155594590D-05 0.000000000000D+00  6 2 1 25 24 1 1 4 0.54007338D+00 0.22666814D-02 0.22344483D+05 0.22344483D+05 0.22344483D+05 0.12285612D+01  1  2 12  6  6  2       21 0.158939410546D-02 0.100000000000D+01
-.206284161464D-04 0.000000000000D+00 -.725111520788D-06 0.215488800445D-05 0.000000000000D+00  6 2 1 25 24 1 1 4 0.54007338D+00 0.22771707D-02 0.20615530D+05 0.20615530D+05 0.20615530D+05 0.12323794D+01  1  2  5  6  6  2       21 -.337891771022D-02 0.100000000000D+01
0.978804333591D-05 0.000000000000D+00 0.000000000000D+00 0.214155594590D-05 0.000000000000D+00  6 2 -2 25 24 1 -2 4 0.54007338D+00 0.22666814D-02 0.22344483D+05 0.22344483D+05 0.22344483D+05 0.12285612D+01  1  2 12  7  6  2       21 0.148731427535D-02 0.100000000000D+01
-.206284161464D-04 0.000000000000D+00 -.725111520788D-06 0.215488800445D-05 0.000000000000D+00  6 2 -2 25 24 1 -2 4 0.54007338D+00 0.22771707D-02 0.20615530D+05 0.20615530D+05 0.20615530D+05 0.12323794D+01  1  2  5  7  6  2       21 -.316058927429D-02 0.100000000000D+01
0.978804333591D-05 0.000000000000D+00 0.000000000000D+00 0.214155594590D-05 0.000000000000D+00  6 2 2 25 24 1 2 4 0.54007338D+00 0.22666814D-02 0.22344483D+05 0.22344483D+05 0.22344483D+05 0.12285612D+01  1  2 12  8  6  2       21 0.164872468477D-02 0.100000000000D+01
-.206284161464D-04 0.000000000000D+00 -.725111520788D-06 0.215488800445D-05 0.000000000000D+00  6 2 2 25 24 1 2 4 0.54007338D+00 0.22771707D-02 0.20615530D+05 0.20615530D+05 0.20615530D+05 0.12323794D+01  1  2  5  8  6  2       21 -.350577544905D-02 0.100000000000D+01
0.978804333591D-05 0.000000000000D+00 0.000000000000D+00 0.214155594590D-05 0.000000000000D+00  6 2 -3 25 24 1 -3 4 0.54007338D+00 0.22666814D-02 0.22344483D+05 0.22344483D+05 0.22344483D+05 0.12285612D+01  1  2 12  9  6  2       21 0.115325813564D-02 0.100000000000D+01
0.978804333591D-05 0.000000000000D+00 0.000000000000D+00 0.214155594590D-05 0.000000000000D+00  6 2 -4 25 24 1 -4 4 0.54007338D+00 0.22666814D-02 0.22344483D+05 0.22344483D+05 0.22344483D+05 0.12285612D+01  1  2 12  9  6  2       21 0.104705451041D-02 0.100000000000D+01
-.206284161464D-04 0.000000000000D+00 -.725111520788D-06 0.215488800445D-05 0.000000000000D+00  6 2 -3 25 24 1 -3 4 0.54007338D+00 0.22771707D-02 0.20615530D+05 0.20615530D+05 0.20615530D+05 0.12323794D+01  1  2  5  9  6  2       21 -.244590949810D-02 0.100000000000D+01
-.206284161464D-04 0.000000000000D+00 -.725111520788D-06 0.215488800445D-05 0.000000000000D+00  6 2 -4 25 24 1 -4 4 0.54007338D+00 0.22771707D-02 0.20615530D+05 0.20615530D+05 0.20615530D+05 0.12323794D+01  1  2  5  9  6  2       21 -.221877992951D-02 0.100000000000D+01
0.978804333591D-05 0.000000000000D+00 0.000000000000D+00 0.214155594590D-05 0.000000000000D+00  6 2 3 25 24 1 3 4 0.54007338D+00 0.22666814D-02 0.22344483D+05 0.22344483D+05 0.22344483D+05 0.12285612D+01  1  2 12 10  6  2       21 0.115318730531D-02 0.100000000000D+01
0.978804333591D-05 0.000000000000D+00 0.000000000000D+00 0.214155594590D-05 0.000000000000D+00  6 2 4 25 24 1 4 4 0.54007338D+00 0.22666814D-02 0.22344483D+05 0.22344483D+05 0.22344483D+05 0.12285612D+01  1  2 12 10  6  2       21 0.104705451041D-02 0.100000000000D+01
-.206284161464D-04 0.000000000000D+00 -.725111520788D-06 0.215488800445D-05 0.000000000000D+00  6 2 3 25 24 1 3 4 0.54007338D+00 0.22771707D-02 0.20615530D+05 0.20615530D+05 0.20615530D+05 0.12323794D+01  1  2  5 10  6  2       21 -.244575782207D-02 0.100000000000D+01
-.206284161464D-04 0.000000000000D+00 -.725111520788D-06 0.215488800445D-05 0.000000000000D+00  6 2 4 25 24 1 4 4 0.54007338D+00 0.22771707D-02 0.20615530D+05 0.20615530D+05 0.20615530D+05 0.12323794D+01  1  2  5 10  6  2       21 -.221877992951D-02 0.100000000000D+01
  </mgrwgt>
  </event>
  <event>
  6     66 0.45638357E-03 0.37199925E+02 0.75467711E-02 0.11862919E+00
        2 -1    0    0  502    0 0.00000000E+00 0.00000000E+00 0.52523850E+03 0.52523860E+03 0.32000000E+00 0.0000E+00 0.9000E+01
       21 -1    0    0  501  503 0.00000000E+00 0.00000000E+00 -.33739554E+03 0.33739638E+03 0.75000000E+00 0.0000E+00 0.9000E+01
       25  1    1    2    0    0 -.45057062E+02 -.35370409E+02 0.30733230E+03 0.33668880E+03 0.12500000E+03 0.0000E+00 0.9000E+01
       24  1    1    2    0    0 0.68893932E+02 0.49051840E+02 0.17528142E+03 0.21057837E+03 0.80419002E+02 0.0000E+00 0.9000E+01
        1  1    1    2  501    0 0.12313863E+02 0.18145710E+02 -.61819353E+01 0.22786328E+02 0.32000000E+00 0.0000E+00 0.9000E+01
       21  1    1    2  502  503 -.36150733E+02 -.31827141E+02 -.28858883E+03 0.29258148E+03 0.75000000E+00 0.0000E+00 0.9000E+01
#aMCatNLO 2  0  0  2  5 0.73819717D+01 0.00000000D+00  -5  6  0 0.00000000D+00 0.00000000D+00 0.00000000D+00 0.00000000D+00 0.00000000D+00
  <mgrwgt>
 0.5301246704D+00    1    2    0
 0.154639822936786D+03 0.000000000000000D+00 0.000000000000000D+00 0.154639822936786D+03
 0.154639822936786D+03 0.000000000000000D+00 0.000000000000000D+00 -.154639822936786D+03
 0.156047794411727D+03 -.625685666684756D+02 -.507876360073525D+02 0.472409211870567D+02
 0.105016702468279D+03 0.560130042621475D+02 0.377114038219708D+02 -.129815956084901D+01
 0.482151489935665D+02 0.655556240632810D+01 0.130762321853817D+02 -.459427616262076D+02
 0.000000000000000D+00 -.000000000000000D+00 -.000000000000000D+00 -.000000000000000D+00
 0.157100750085071D+03 0.000000000000000D+00 0.000000000000000D+00 0.157100750085071D+03
 0.112802266591850D+04 0.000000000000000D+00 0.000000000000000D+00 -.112802266591850D+04
 0.145388865503857D+03 -.450571089655770D+02 -.353705316550520D+02 0.472409211870567D+02
 0.116710495375498D+03 0.688938743185995D+02 0.490517343174654D+02 -.129815956084901D+01
 0.509082137427534D+02 0.123139680840325D+02 0.181459381311838D+02 -.459427616262076D+02
 0.972115841381466D+03 -.361507334370551D+02 -.318271407935972D+02 -.970921915833432D+03
0.905250596109D-03 0.000000000000D+00 0.000000000000D+00 0.482189346639D-05 0.861175532481D-06  6 2 21 25 24 1 21 4 0.80805921D-01 0.51907031D-01 0.26292223D+05 0.26292223D+05 0.26292223D+05 0.12209580D+01  1  2  1  2  6  2       21 0.530124670438D+00 0.100000000000D+01
  </mgrwgt>
  </event>
  <event>
  6     66 0.45638357E-03 0.16961605E+02 0.75467711E-02 0.12310382E+00
        2 -1    0    0  502    0 0.00000000E+00 0.00000000E+00 0.44188217E+03 0.44188228E+03 0.32000000E+00 0.0000E+00 0.9000E+01
       21 -1    0    0  503  502 0.00000000E+00 0.00000000E+00 -.12504195E+03 0.12504420E+03 0.75000000E+00 0.0000E+00 0.9000E+01
       25  1    1    2    0    0 0.80767380E+01 0.28357464E+02 0.16268437E+03 0.20726935E+03 0.12500000E+03 0.0000E+00 0.9000E+01
       24  1    1    2    0    0 0.92219816E+01 -.37488488E+02 0.12415395E+03 0.15287855E+03 0.80419002E+02 0.0000E+00 0.9000E+01
        1  1    1    2  501    0 -.64997476E+01 -.12121777E+02 0.11636860E+03 0.11717908E+03 0.32000000E+00 0.0000E+00 0.9000E+01
       21  1    1    2  503  501 -.10798972E+02 0.21252802E+02 -.86366704E+02 0.89599495E+02 0.75000000E+00 0.0000E+00 0.9000E+01
#aMCatNLO 2  0  0  2  1 0.16796049D+03 0.00000000D+00  -5  6  0 0.00000000D+00 0.00000000D+00 0.00000000D+00 0.00000000D+00 0.00000000D+00
  <mgrwgt>
 0.5897794463D+00    1    2    0
 0.127177955562839D+03 0.000000000000000D+00 0.000000000000000D+00 0.127177955562839D+03
 0.127177955562839D+03 0.000000000000000D+00 0.000000000000000D+00 -.127177955562839D+03
 0.133102050825532D+03 0.249331795982043D+01 0.393464085635263D+02 -.231689324886943D+02
 0.865598314164965D+02 0.548881950959762D+01 -.301411176199369D+02 -.931527506271049D+01
 0.346940288836503D+02 -.798213746941806D+01 -.920529094358944D+01 0.324842075514048D+02
 0.000000000000000D+00 -.000000000000000D+00 0.000000000000000D+00 -.000000000000000D+00
 0.128203807242720D+03 0.000000000000000D+00 0.000000000000000D+00 0.128203807242720D+03
 0.430986264043516D+03 0.000000000000000D+00 0.000000000000000D+00 -.430986264043516D+03
 0.130503611501982D+03 0.807692351989259D+01 0.283576530913341D+02 -.231689324886943D+02
 0.896906583288424D+02 0.922209748935822D+01 -.374883555986845D+02 -.931527506271049D+01
 0.352763329877870D+02 -.650004904181739D+01 -.121220992932930D+02 0.324842075514048D+02
 0.303719468467625D+03 -.107989719674334D+02 0.212528018006434D+02 -.302782456800796D+03
0.110381712237D-03 0.000000000000D+00 0.000000000000D+00 0.391943349312D-06 0.938500736420D-07  6 2 21 25 24 1 21 4 0.67981809D-01 0.19237336D-01 0.16285586D+05 0.16285586D+05 0.16285586D+05 0.12437718D+01  1  2  1  2  6  2       21 0.589779446330D+00 0.100000000000D+01
  </mgrwgt>
  </event>
  <event>
  5     66 0.45638357E-03 0.14218415E+03 0.75467711E-02 0.11317255E+00
        2 -1    0    0  502    0 0.00000000E+00 0.00000000E+00 0.30722507E+04 0.30722507E+04 0.32000000E+00 0.0000E+00 0.9000E+01
       21 -1    0    0  501  502 0.00000000E+00 0.00000000E+00 -.25025358E+02 0.25036594E+02 0.75000000E+00 0.0000E+00 0.9000E+01
       25  1    1    2    0    0 0.28012404E+02 -.93895199E+02 0.19224957E+04 0.19290453E+04 0.12500000E+03 0.0000E+00 0.9000E+01
       24  1    1    2    0    0 -.87034903E+02 -.48764290E+02 0.78086328E+03 0.79130759E+03 0.80419002E+02 0.0000E+00 0.9000E+01
        1  1    1    2  501    0 0.59022499E+02 0.14265949E+03 0.34386633E+03 0.37693440E+03 0.32000000E+00 0.0000E+00 0.9000E+01
#aMCatNLO 1  0  0  1  2 0.44556341D+01 0.00000000D+00  -5  6  0 0.00000000D+00 0.00000000D+00 0.00000000D+00 0.00000000D+00 0.00000000D+00
  <mgrwgt>
 0.8059755259D-01   11    2    0
 0.277311376608932D+03 0.000000000000000D+00 0.000000000000000D+00 0.277311376608932D+03
 0.277311376608932D+03 0.000000000000000D+00 0.000000000000000D+00 -.277311376608932D+03
 0.210106613234021D+03 0.280123789436074D+02 -.938952580893856D+02 0.137545541763147D+03
 0.128809373907558D+03 -.870349179293500D+02 -.487643262723659D+02 0.130997097799997D+02
 0.215706766076285D+03 0.590225389857426D+02 0.142659584361752D+03 -.150645251543147D+03
 0.000000000000000D+00 -.000000000000000D+00 0.000000000000000D+00 0.000000000000000D+00
 0.285350001688369D+03 0.000000000000000D+00 0.000000000000000D+00 0.285350001688369D+03
 0.277938428389654D+03 0.000000000000000D+00 0.000000000000000D+00 -.277938428389654D+03
 0.210835276606987D+03 0.291017478565415D+02 -.951883715309875D+02 0.137545541763147D+03
 0.128662650542667D+03 -.863685978833877D+02 -.495552680714318D+02 0.130997097799997D+02
 0.215142723237409D+03 0.601375480906553D+02 0.141336035246340D+03 -.150645251543147D+03
 0.864777969095842D+01 -.287069806380916D+01 0.340760435607963D+01 0.741157329871481D+01
0.564094630688D-05 0.000000000000D+00 0.000000000000D+00 0.321045088048D-06 0.000000000000D+00  6 2 21 25 24 1 21 2 0.47265481D+00 0.38509207D-02 0.48698725D+05 0.48698725D+05 0.48698725D+05 0.11934176D+01  1  2  2  1  6  1        2 0.823611351521D-02 0.100000000000D+01
-.257868017587D-06 0.297680914935D-06 -.113874453649D-07 0.321045088048D-06 0.000000000000D+00  6 2 21 25 24 1 21 4 0.47265481D+00 0.38509207D-02 0.48698725D+05 0.48698725D+05 0.48698725D+05 0.11934176D+01  1  2  3  1  6  1        2 -.536232008682D-03 0.100000000000D+01
0.535043755214D-06 0.000000000000D+00 0.000000000000D+00 0.321045088048D-06 0.000000000000D+00  6 2 21 25 24 1 21 4 0.47265481D+00 0.38509207D-02 0.48698725D+05 0.48698725D+05 0.48698725D+05 0.11934176D+01  1  2 15  1  6  1        2 0.111261408172D-02 0.100000000000D+01
0.976756316873D-05 0.000000000000D+00 0.000000000000D+00 0.320576810061D-06 0.000000000000D+00  6 2 21 25 24 1 21 4 0.48688172D+00 0.38509207D-02 0.49692774D+05 0.49692774D+05 0.49692774D+05 0.11925469D+01  1  2 12  1  6  1        2 0.177932849730D-01 0.100000000000D+01
-.239889938689D-03 0.000000000000D+00 0.000000000000D+00 0.321045088048D-06 0.000000000000D+00  6 2 21 25 24 1 21 4 0.47265481D+00 0.38509207D-02 0.48698725D+05 0.48698725D+05 0.48698725D+05 0.11934176D+01  1  2  4  1  6  1        2 -.498846909709D+00 0.100000000000D+01
-.535042868573D-03 0.000000000000D+00 -.419784075746D-04 0.321045088048D-06 0.000000000000D+00  6 2 21 25 24 1 21 4 0.48664345D+00 0.38509207D-02 0.48698725D+05 0.48698725D+05 0.48698725D+05 0.11934176D+01  1  2  5  1  6  1        2 -.980743126282D+00 0.100000000000D+01
0.536057053205D-03 0.000000000000D+00 0.419605588627D-04 0.321045088048D-06 0.000000000000D+00  6 2 21 25 24 1 21 4 0.47265481D+00 0.38509207D-02 0.48698725D+05 0.48698725D+05 0.48698725D+05 0.11934176D+01  1  2  6  1  6  1        2 0.111472121707D+01 0.100000000000D+01
0.229828204352D-03 0.000000000000D+00 0.000000000000D+00 0.321045088048D-06 0.123043522183D-06  6 2 21 25 24 1 21 4 0.48635600D+00 0.38596283D-02 0.49692774D+05 0.49692774D+05 0.49692774D+05 0.11925469D+01  1  2 11  1  6  1        2 0.419088253294D+00 0.100000000000D+01
0.325352692839D-06 0.000000000000D+00 0.000000000000D+00 0.320576810061D-06 0.000000000000D+00  6 21 21 25 24 1 -2 4 0.48688172D+00 0.38509207D-02 0.49692774D+05 0.49692774D+05 0.49692774D+05 0.11925469D+01  1  2 12  4  6  1        2 0.614156809997D-04 0.100000000000D+01
-.278918773339D-05 0.000000000000D+00 -.219846921769D-06 0.321045088048D-06 0.000000000000D+00  6 21 21 25 24 1 -2 4 0.48664345D+00 0.38509207D-02 0.48698725D+05 0.48698725D+05 0.48698725D+05 0.11934176D+01  1  2  5  4  6  1        2 -.531771048310D-03 0.100000000000D+01
0.127973617176D-05 0.000000000000D+00 0.000000000000D+00 0.321045088048D-06 0.654564922140D-09  6 21 21 25 24 1 -2 4 0.48635600D+00 0.38596283D-02 0.49692774D+05 0.49692774D+05 0.49692774D+05 0.11925469D+01  1  2 11  4  6  1        2 0.242693020155D-03 0.100000000000D+01
  </mgrwgt>
  </event>
  <event>
  5     66 -.45638357E-03 0.23038807E+02 0.75467711E-02 0.12116848E+00
        2 -1    0    0  502    0 0.00000000E+00 0.00000000E+00 0.94407422E+03 0.94407428E+03 0.32000000E+00 0.0000E+00 0.9000E+01
       21 -1    0    0  501  502 0.00000000E+00 0.00000000E+00 -.50531597E+02 0.50537162E+02 0.75000000E+00 0.0000E+00 0.9000E+01
       25  1    1    2    0    0 0.78233568E+02 0.23059245E+02 0.59465204E+03 0.61309728E+03 0.12500000E+03 0.0000E+00 0.9000E+01
       24  1    1    2    0    0 -.75291038E+02 -.20916169E+00 0.32706406E+03 0.34511867E+03 0.80419002E+02 0.0000E+00 0.9000E+01
        1  1    1    2  501    0 -.29425309E+01 -.22850083E+02 -.28173473E+02 0.36395491E+02 0.32000000E+00 0.0000E+00 0.9000E+01
#aMCatNLO 1  0  0  5  2 0.49525645D+01 0.00000000D+00  -5  6  0 0.00000000D+00 0.00000000D+00 0.00000000D+00 0.00000000D+00 0.00000000D+00
  <mgrwgt>
 -.1323342488D+01    7    2    0
 0.218422464293310D+03 0.000000000000000D+00 0.000000000000000D+00 0.218422464293310D+03
 0.218422464293310D+03 -.000000000000000D+00 -.000000000000000D+00 -.218422464293310D+03
 0.179575521982383D+03 0.782335715275089D+02 0.230592689276910D+02 0.998506209185303D+02
 0.116776715004076D+03 -.752910354696487D+02 -.209145842493303D+00 0.387401787385816D+02
 0.140492691600162D+03 -.294253605786019D+01 -.228501230851977D+02 -.138590799657112D+03
 0.000000000000000D+00 0.000000000000000D+00 0.000000000000000D+00 -.000000000000000D+00
 0.218422464293310D+03 0.000000000000000D+00 0.000000000000000D+00 0.218422464293310D+03
 0.218422464293310D+03 -.000000000000000D+00 -.000000000000000D+00 -.218422464293310D+03
 0.179489811172808D+03 0.782304670241321D+02 0.230351610551338D+02 0.997044016039439D+02
 0.116746533117952D+03 -.752930545275900D+02 -.224824740412508D+00 0.386450829269633D+02
 0.826583895854617D+02 0.290368774275964D+01 -.151627687330750D+02 -.812038694318306D+02
 0.579501947103997D+02 -.584110023930176D+01 -.764756758164634D+01 -.571456150990766D+02
0.476227685757D-05 0.000000000000D+00 0.000000000000D+00 0.715284882150D-05 0.000000000000D+00  6 2 21 25 24 1 21 2 0.14524262D+00 0.77745241D-02 0.19945613D+05 0.19945613D+05 0.19945613D+05 0.12339563D+01  1  2  2  3  6  5        1 0.332041392189D-01 0.100000000000D+01
0.125611431647D-05 0.251312254188D-06 -.961366490266D-08 0.715284882150D-05 0.000000000000D+00  6 2 21 25 24 1 21 4 0.14524262D+00 0.77745241D-02 0.19945613D+05 0.19945613D+05 0.19945613D+05 0.12339563D+01  1  2  3  3  6  5        1 0.133354072573D-01 0.100000000000D+01
0.439696875968D-06 0.000000000000D+00 0.000000000000D+00 0.715284882150D-05 0.000000000000D+00  6 2 21 25 24 1 21 4 0.14524262D+00 0.77745241D-02 0.19945613D+05 0.19945613D+05 0.19945613D+05 0.12339563D+01  1  2 15  3  6  5        1 0.466799624359D-02 0.100000000000D+01
0.490131088383D-04 0.000000000000D+00 0.000000000000D+00 0.714496051193D-05 0.000000000000D+00  6 2 21 25 24 1 21 4 0.14524262D+00 0.77745241D-02 0.20231721D+05 0.20231721D+05 0.20231721D+05 0.12332757D+01  1  2 12  3  6  5        1 0.519162771035D+00 0.100000000000D+01
-.253519290562D-03 0.000000000000D+00 0.000000000000D+00 0.715284882150D-05 0.000000000000D+00  6 2 21 25 24 1 21 4 0.14524262D+00 0.77745241D-02 0.19945613D+05 0.19945613D+05 0.19945613D+05 0.12339563D+01  1  2  4  3  6  5        1 -.269146123318D+01 0.100000000000D+01
-.154365045096D-03 0.000000000000D+00 0.000000000000D+00 0.715284882150D-05 0.000000000000D+00  6 2 21 25 24 1 21 4 0.14524262D+00 0.77745241D-02 0.19945613D+05 0.19945613D+05 0.19945613D+05 0.12339563D+01  1  2  5  3  6  5        1 -.163880047832D+01 0.100000000000D+01
0.229508098990D-03 0.000000000000D+00 -.000000000000D+00 0.715284882150D-05 0.000000000000D+00  6 2 21 25 24 1 21 4 0.14524262D+00 0.77745241D-02 0.19945613D+05 0.19945613D+05 0.19945613D+05 0.12339563D+01  1  2  6  3  6  5        1 0.243654891020D+01 0.100000000000D+01
  </mgrwgt>
  </event>
  <event>
  6     66 0.45638357E-03 0.56819820E+02 0.75467711E-02 0.11991516E+00
        2 -1    0    0  502    0 0.00000000E+00 0.00000000E+00 0.11783916E+04 0.11783917E+04 0.32000000E+00 0.0000E+00 0.9000E+01
       21 -1    0    0  501  502 0.00000000E+00 0.00000000E+00 -.57895409E+02 0.57900267E+02 0.75000000E+00 0.0000E+00 0.9000E+01
       25  1    1    2    0    0 -.88291138E+00 0.24253771E+02 0.44350281E+03 0.46142038E+03 0.12500000E+03 0.0000E+00 0.9000E+01
       24  1    1    2    0    0 0.60975817E+02 -.44723309E+02 0.69618941E+03 0.70488662E+03 0.80419002E+02 0.0000E+00 0.9000E+01
        1  1    1    2  503    0 -.46075840E+02 0.10551055E+02 -.47039986E+01 0.47503029E+02 0.32000000E+00 0.0000E+00 0.9000E+01
       21  1    1    2  501  503 -.14017066E+02 0.99184838E+01 -.14492023E+02 0.22481897E+02 0.75000000E+00 0.0000E+00 0.9000E+01
#aMCatNLO 2  0  0  5  2 0.10967449D+02 0.00000000D+00  -5  6  0 0.00000000D+00 0.00000000D+00 0.00000000D+00 0.00000000D+00 0.00000000D+00
  <mgrwgt>
 0.2553525839D+00    2    2    0
 0.261202018260193D+03 0.000000000000000D+00 0.000000000000000D+00 0.261202018260193D+03
 0.261202018260193D+03 -.000000000000000D+00 -.000000000000000D+00 -.261202018260193D+03
 0.140835545792853D+03 -.787442836922449D+00 0.242212514181284D+02 0.601860604483232D+02
 0.175250700038711D+03 0.610945488756964D+02 -.447637531971284D+02 0.136048720710889D+03
 0.206317790688821D+03 -.603071060387739D+02 0.205425017790000D+02 -.196234781159213D+03
 0.000000000000000D+00 0.000000000000000D+00 0.000000000000000D+00 -.000000000000000D+00
 0.261202018260193D+03 0.000000000000000D+00 0.000000000000000D+00 0.261202018260193D+03
 0.261202018260193D+03 -.000000000000000D+00 -.000000000000000D+00 -.261202018260193D+03
 0.140709601984690D+03 -.882636541514309D+00 0.242536773953370D+02 0.598763073028761D+02
 0.174900185088404D+03 0.609761587695820D+02 -.447234257941868D+02 0.135663488221872D+03
 0.122206711205554D+03 -.459945520943802D+02 0.105198732240395D+02 -.112731156778705D+03
 0.845875382417381D+02 -.140989701336875D+02 0.994987517481029D+01 -.828086387460426D+02
-.187386882715D-04 0.000000000000D+00 0.000000000000D+00 0.221588011626D-05 0.000000000000D+00  6 2 21 25 24 1 21 4 0.18129139D+00 0.89073631D-02 0.22825288D+05 0.22825288D+05 0.22825288D+05 0.12275579D+01  1  2 13  3  6  5        1 -.112131102765D+00 0.100000000000D+01
0.614117053942D-04 0.000000000000D+00 0.000000000000D+00 0.221661646901D-05 0.241988756795D-06  6 2 21 25 24 1 21 4 0.18129139D+00 0.89073631D-02 0.22825288D+05 0.22825288D+05 0.22825288D+05 0.12275579D+01  1  2  1  3  6  5        1 0.367483686624D+00 0.100000000000D+01
  </mgrwgt>
  </event>
  <event>
  5     66 0.45638357E-03 0.27146911E+02 0.75467711E-02 0.12097119E+00
        2 -1    0    0  502    0 0.00000000E+00 0.00000000E+00 0.68075023E+02 0.68075775E+02 0.32000000E+00 0.0000E+00 0.9000E+01
       21 -1    0    0  501  502 0.00000000E+00 0.00000000E+00 -.35375868E+03 0.35375947E+03 0.75000000E+00 0.0000E+00 0.9000E+01
       25  1    1    2    0    0 -.33121805E+02 -.43405026E+02 -.23143820E+03 0.26864417E+03 0.12500000E+03 0.0000E+00 0.9000E+01
       24  1    1    2    0    0 0.58543609E+02 0.52923074E+02 -.29532201E+02 0.11647992E+03 0.80419002E+02 0.0000E+00 0.9000E+01
        1  1    1    2  501    0 -.25421804E+02 -.95180481E+01 -.24713249E+02 0.36711149E+02 0.32000000E+00 0.0000E+00 0.9000E+01
#aMCatNLO 1  0  0  2  1 0.90639337D+01 0.00000000D+00  -5  6  0 0.00000000D+00 0.00000000D+00 0.00000000D+00 0.00000000D+00 0.00000000D+00
  <mgrwgt>
 0.2522175815D+00   32    2    0
 0.155185232822260D+03 0.000000000000000D+00 0.000000000000000D+00 0.155185232822260D+03
 0.155185232822260D+03 0.000000000000000D+00 0.000000000000000D+00 -.155185232822260D+03
 0.152093672071797D+03 -.331209396851725D+02 -.434047014603799D+02 -.672794198086599D+02
 0.131129126650181D+03 0.585443555264142D+02 0.529233530237869D+02 0.670768890332966D+02
 0.271476669225409D+02 -.254234158412417D+02 -.951865156340701D+01 0.202530775363243D+00
 0.000000000000000D+00 0.000000000000000D+00 -.000000000000000D+00 -.000000000000000D+00
 0.157353784765990D+03 0.000000000000000D+00 0.000000000000000D+00 0.157353784765990D+03
 0.165020614427355D+03 0.000000000000000D+00 0.000000000000000D+00 -.165020614427355D+03
 0.151550839904976D+03 -.353541377014657D+02 -.395755188658297D+02 -.672794198086599D+02
 0.131658791874082D+03 0.566116433079925D+02 0.562373036600762D+02 0.670768890332966D+02
 0.272931553894440D+02 -.258238088389646D+02 -.883211239998555D+01 0.202530775363243D+00
 0.118716120248431D+02 0.456630323243776D+01 -.782967239426094D+01 -.766682966136435D+01
0.730060464729D-05 0.000000000000D+00 0.000000000000D+00 0.390453262214D-06 0.000000000000D+00  6 2 21 25 24 1 21 2 0.10473199D-01 0.54424531D-01 0.19075073D+05 0.19075073D+05 0.19075073D+05 0.12360964D+01  1  2  2  2  6  2       21 0.261206549877D-01 0.100000000000D+01
0.167391952917D-06 0.385263491754D-06 -.147378173854D-07 0.390453262214D-06 0.000000000000D+00  6 2 21 25 24 1 21 4 0.10473199D-01 0.54424531D-01 0.19075073D+05 0.19075073D+05 0.19075073D+05 0.12360964D+01  1  2  3  2  6  2       21 0.915091409989D-03 0.100000000000D+01
0.853715371242D-06 0.000000000000D+00 0.000000000000D+00 0.390453262214D-06 0.000000000000D+00  6 2 21 25 24 1 21 4 0.10473199D-01 0.54424531D-01 0.19075073D+05 0.19075073D+05 0.19075073D+05 0.12360964D+01  1  2 15  2  6  2       21 0.466705590792D-02 0.100000000000D+01
0.386542551503D-04 0.000000000000D+00 0.000000000000D+00 0.388468852899D-06 0.000000000000D+00  6 2 21 25 24 1 21 4 0.10473199D-01 0.58238609D-01 0.20369704D+05 0.20369704D+05 0.20369704D+05 0.12329513D+01  1  2 12  2  6  2       21 0.181334959872D+00 0.100000000000D+01
-.201780118601D-04 0.000000000000D+00 0.000000000000D+00 0.390453262214D-06 0.000000000000D+00  6 2 21 25 24 1 21 4 0.10473199D-01 0.54424531D-01 0.19075073D+05 0.19075073D+05 0.19075073D+05 0.12360964D+01  1  2  4  2  6  2       21 -.110308321291D+00 0.100000000000D+01
-.210155265007D-03 0.000000000000D+00 -.298057008191D-04 0.390453262214D-06 0.000000000000D+00  6 2 21 25 24 1 21 4 0.10473199D-01 0.58488195D-01 0.19075073D+05 0.19075073D+05 0.19075073D+05 0.12360964D+01  1  2  5  2  6  2       21 -.987214267285D+00 0.100000000000D+01
0.210109898662D-03 0.000000000000D+00 0.294988461721D-04 0.390453262214D-06 0.000000000000D+00  6 2 21 25 24 1 21 4 0.10473199D-01 0.54424531D-01 0.19075073D+05 0.19075073D+05 0.19075073D+05 0.12360964D+01  1  2  6  2  6  2       21 0.114862011028D+01 0.100000000000D+01
0.308863535119D-08 0.000000000000D+00 0.000000000000D+00 0.390453262214D-06 0.701742918760D-07  6 2 21 25 24 1 21 4 0.10619552D-01 0.57873867D-01 0.20369704D+05 0.20369704D+05 0.20369704D+05 0.12329513D+01  1  2 11  2  6  2       21 0.144367555245D-04 0.100000000000D+01
0.732695126413D-06 0.000000000000D+00 0.000000000000D+00 0.388468852899D-06 0.000000000000D+00  6 2 -1 25 24 1 -1 4 0.10473199D-01 0.58238609D-01 0.20369704D+05 0.20369704D+05 0.20369704D+05 0.12329513D+01  1  2 12  5  6  2       21 0.350223114778D-03 0.100000000000D+01
-.327380708296D-05 0.000000000000D+00 -.528543243294D-06 0.390453262214D-06 0.000000000000D+00  6 2 -1 25 24 1 -1 4 0.10473199D-01 0.58488195D-01 0.19075073D+05 0.19075073D+05 0.19075073D+05 0.12360964D+01  1  2  5  5  6  2       21 -.156616513345D-02 0.100000000000D+01
0.110007568633D-08 0.000000000000D+00 0.000000000000D+00 0.390453262214D-06 0.238628073937D-07  6 2 -1 25 24 1 -1 4 0.10619552D-01 0.57873867D-01 0.20369704D+05 0.20369704D+05 0.20369704D+05 0.12329513D+01  1  2 11  5  6  2       21 0.523158778602D-06 0.100000000000D+01
0.732695126413D-06 0.000000000000D+00 0.000000000000D+00 0.388468852899D-06 0.000000000000D+00  6 2 1 25 24 1 1 4 0.10473199D-01 0.58238609D-01 0.20369704D+05 0.20369704D+05 0.20369704D+05 0.12329513D+01  1  2 12  6  6  2       21 0.875379999441D-03 0.100000000000D+01
-.327380708296D-05 0.000000000000D+00 -.528543243294D-06 0.390453262214D-06 0.000000000000D+00  6 2 1 25 24 1 1 4 0.10473199D-01 0.58488195D-01 0.19075073D+05 0.19075073D+05 0.19075073D+05 0.12360964D+01  1  2  5  6  6  2       21 -.392476955730D-02 0.100000000000D+01
0.162002343966D-09 0.000000000000D+00 0.000000000000D+00 0.390453262214D-06 0.528467505053D-09  6 2 1 25 24 1 1 4 0.10619552D-01 0.57873867D-01 0.20369704D+05 0.20369704D+05 0.20369704D+05 0.12329513D+01  1  2 11  6  6  2       21 0.191804434396D-06 0.100000000000D+01
0.732695126413D-06 0.000000000000D+00 0.000000000000D+00 0.388468852899D-06 0.000000000000D+00  6 2 -2 25 24 1 -2 4 0.10473199D-01 0.58238609D-01 0.20369704D+05 0.20369704D+05 0.20369704D+05 0.12329513D+01  1  2 12  7  6  2       21 0.279964889949D-03 0.100000000000D+01
-.327380708296D-05 0.000000000000D+00 -.528543243294D-06 0.390453262214D-06 0.000000000000D+00  6 2 -2 25 24 1 -2 4 0.10473199D-01 0.58488195D-01 0.19075073D+05 0.19075073D+05 0.19075073D+05 0.12360964D+01  1  2  5  7  6  2       21 -.125084512719D-02 0.100000000000D+01
0.166697030435D-09 0.000000000000D+00 0.000000000000D+00 0.390453262214D-06 0.102619515520D-08  6 2 -2 25 24 1 -2 4 0.10619552D-01 0.57873867D-01 0.20369704D+05 0.20369704D+05 0.20369704D+05 0.12329513D+01  1  2 11  7  6  2       21 0.634330599969D-07 0.100000000000D+01
0.732695126413D-06 0.000000000000D+00 0.000000000000D+00 0.388468852899D-06 0.000000000000D+00  6 2 2 25 24 1 2 4 0.10473199D-01 0.58238609D-01 0.20369704D+05 0.20369704D+05 0.20369704D+05 0.12329513D+01  1  2 12  8  6  2       21 0.129103336393D-02 0.100000000000D+01
-.327380708296D-05 0.000000000000D+00 -.528543243294D-06 0.390453262214D-06 0.000000000000D+00  6 2 2 25 24 1 2 4 0.10473199D-01 0.58488195D-01 0.19075073D+05 0.19075073D+05 0.19075073D+05 0.12360964D+01  1  2  5  8  6  2       21 -.579164191561D-02 0.100000000000D+01
0.164896834470D-09 0.000000000000D+00 0.000000000000D+00 0.390453262214D-06 0.112395250611D-08  6 2 2 25 24 1 2 4 0.10619552D-01 0.57873867D-01 0.20369704D+05 0.20369704D+05 0.20369704D+05 0.12329513D+01  1  2 11  8  6  2       21 0.287590220825D-06 0.100000000000D+01
0.732695126413D-06 0.000000000000D+00 0.000000000000D+00 0.388468852899D-06 0.000000000000D+00  6 2 -3 25 24 1 -3 4 0.10473199D-01 0.58238609D-01 0.20369704D+05 0.20369704D+05 0.20369704D+05 0.12329513D+01  1  2 12  9  6  2       21 0.174727002183D-03 0.100000000000D+01
0.732695126413D-06 0.000000000000D+00 0.000000000000D+00 0.388468852899D-06 0.000000000000D+00  6 2 -4 25 24 1 -4 4 0.10473199D-01 0.58238609D-01 0.20369704D+05 0.20369704D+05 0.20369704D+05 0.12329513D+01  1  2 12  9  6  2       21 0.142663186920D-03 0.100000000000D+01
-.327380708296D-05 0.000000000000D+00 -.528543243294D-06 0.390453262214D-06 0.000000000000D+00  6 2 -3 25 24 1 -3 4 0.10473199D-01 0.58488195D-01 0.19075073D+05 0.19075073D+05 0.19075073D+05 0.12360964D+01  1  2  5  9  6  2       21 -.779550984591D-03 0.100000000000D+01
-.327380708296D-05 0.000000000000D+00 -.528543243294D-06 0.390453262214D-06 0.000000000000D+00  6 2 -4 25 24 1 -4 4 0.10473199D-01 0.58488195D-01 0.19075073D+05 0.19075073D+05 0.19075073D+05 0.12360964D+01  1  2  5  9  6  2       21 -.635912523334D-03 0.100000000000D+01
0.166429435979D-09 0.000000000000D+00 0.000000000000D+00 0.390453262214D-06 0.102454783051D-08  6 2 -3 25 24 1 -3 4 0.10619552D-01 0.57873867D-01 0.20369704D+05 0.20369704D+05 0.20369704D+05 0.12329513D+01  1  2 11  9  6  2       21 0.395272991131D-07 0.100000000000D+01
0.166429435979D-09 0.000000000000D+00 0.000000000000D+00 0.390453262214D-06 0.102454783051D-08  6 2 -4 25 24 1 -4 4 0.10619552D-01 0.57873867D-01 0.20369704D+05 0.20369704D+05 0.20369704D+05 0.12329513D+01  1  2 11  9  6  2       21 0.322820181589D-07 0.100000000000D+01
0.732695126413D-06 0.000000000000D+00 0.000000000000D+00 0.388468852899D-06 0.000000000000D+00  6 2 3 25 24 1 3 4 0.10473199D-01 0.58238609D-01 0.20369704D+05 0.20369704D+05 0.20369704D+05 0.12329513D+01  1  2 12 10  6  2       21 0.174836029302D-03 0.100000000000D+01
0.732695126413D-06 0.000000000000D+00 0.000000000000D+00 0.388468852899D-06 0.000000000000D+00  6 2 4 25 24 1 4 4 0.10473199D-01 0.58238609D-01 0.20369704D+05 0.20369704D+05 0.20369704D+05 0.12329513D+01  1  2 12 10  6  2       21 0.142663186920D-03 0.100000000000D+01
-.327380708296D-05 0.000000000000D+00 -.528543243294D-06 0.390453262214D-06 0.000000000000D+00  6 2 3 25 24 1 3 4 0.10473199D-01 0.58488195D-01 0.19075073D+05 0.19075073D+05 0.19075073D+05 0.12360964D+01  1  2  5 10  6  2       21 -.780041739265D-03 0.100000000000D+01
-.327380708296D-05 0.000000000000D+00 -.528543243294D-06 0.390453262214D-06 0.000000000000D+00  6 2 4 25 24 1 4 4 0.10473199D-01 0.58488195D-01 0.19075073D+05 0.19075073D+05 0.19075073D+05 0.12360964D+01  1  2  5 10  6  2       21 -.635912523334D-03 0.100000000000D+01
0.166429435979D-09 0.000000000000D+00 0.000000000000D+00 0.390453262214D-06 0.102454783051D-08  6 2 3 25 24 1 3 4 0.10619552D-01 0.57873867D-01 0.20369704D+05 0.20369704D+05 0.20369704D+05 0.12329513D+01  1  2 11 10  6  2       21 0.395515750179D-07 0.100000000000D+01
0.166429435979D-09 0.000000000000D+00 0.000000000000D+00 0.390453262214D-06 0.102454783051D-08  6 2 4 25 24 1 4 4 0.10619552D-01 0.57873867D-01 0.20369704D+05 0.20369704D+05 0.20369704D+05 0.12329513D+01  1  2 11 10  6  2       21 0.322820181589D-07 0.100000000000D+01
  </mgrwgt>
  </event>
  <event>
  6     66 0.45638357E-03 0.53676429E+02 0.75467711E-02 0.12139002E+00
        2 -1    0    0  502    0 0.00000000E+00 0.00000000E+00 0.11569214E+04 0.11569215E+04 0.32000000E+00 0.0000E+00 0.9000E+01
       -1 -1    0    0    0  502 0.00000000E+00 0.00000000E+00 -.15795668E+03 0.15795701E+03 0.32000000E+00 0.0000E+00 0.9000E+01
       25  1    1    2    0    0 0.42695601E+02 -.35085751E+02 0.22565871E+03 0.26381959E+03 0.12500000E+03 0.0000E+00 0.9000E+01
       24  1    1    2    0    0 -.37835457E+01 0.85981732E+00 0.66758206E+03 0.67241957E+03 0.80419002E+02 0.0000E+00 0.9000E+01
        1  1    1    2  501    0 -.44406796E+02 0.34835344E+02 0.23883488E+03 0.24541325E+03 0.32000000E+00 0.0000E+00 0.9000E+01
       -1  1    1    2    0  501 0.54947407E+01 -.60941055E+00 -.13311091E+03 0.13322605E+03 0.32000000E+00 0.0000E+00 0.9000E+01
#aMCatNLO 2  0  0  2  1 0.55284317D+01 0.00000000D+00  -5  6  0 0.00000000D+00 0.00000000D+00 0.00000000D+00 0.00000000D+00 0.00000000D+00
  <mgrwgt>
 0.3923615494D-02    3    2    0
 0.169319669476127D+03 0.000000000000000D+00 0.000000000000000D+00 0.169319669476127D+03
 0.169319669476127D+03 0.000000000000000D+00 0.000000000000000D+00 -.169319669476127D+03
 0.166951608943828D+03 0.453983877556290D+02 -.353857426203349D+02 -.945234115832150D+02
 0.114551031632483D+03 -.192435344685354D+01 0.653459391852682D+00 0.815511664437139D+02
 0.571366983759423D+02 -.434740343087755D+02 0.347322832284822D+02 0.129722451395011D+02
 0.000000000000000D+00 0.000000000000000D+00 -.000000000000000D+00 -.000000000000000D+00
 0.169350630433994D+03 0.000000000000000D+00 0.000000000000000D+00 0.169350630433994D+03
 0.107908456550442D+04 0.000000000000000D+00 0.000000000000000D+00 -.107908456550442D+04
 0.166173544317028D+03 0.426959338653598D+02 -.350860189380056D+02 -.945234115832150D+02
 0.114598696055262D+03 -.378331416171425D+01 0.859632956097264D+00 0.815511664437139D+02
 0.579122225763182D+02 -.444073604204644D+02 0.348357965354129D+02 0.129722451395011D+02
 0.909750732989807D+03 0.549474071681883D+01 -.609410553504490D+00 -.909733935070427D+03
-.621854466852D-03 0.000000000000D+00 0.000000000000D+00 0.138997241610D-06 0.000000000000D+00  6 2 -1 25 24 1 -1 4 0.17795537D+00 0.24298418D-01 0.19481550D+05 0.19481550D+05 0.19481550D+05 0.12350838D+01  1  2 13  5  6  2       21 -.525791813350D-01 0.100000000000D+01
-.621863386427D-03 0.000000000000D+00 0.000000000000D+00 0.138997241610D-06 0.000000000000D+00  6 2 -1 25 24 1 -1 4 0.17795537D+00 0.24300726D-01 0.19481550D+05 0.19481550D+05 0.19481550D+05 0.12350838D+01  1  2 13  5  6  2       21 -.525717518295D-01 0.100000000000D+01
0.129060792089D-02 0.000000000000D+00 0.000000000000D+00 0.139424070259D-06 0.101846295519D-05  6 2 -1 25 24 1 -1 4 0.17798791D+00 0.24301053D-01 0.19481550D+05 0.19481550D+05 0.19481550D+05 0.12350838D+01  1  2  1  5  6  2       21 0.109074548659D+00 0.100000000000D+01
  </mgrwgt>
  </event>
  <event>
  5     66 0.45638357E-03 0.55740701E+02 0.75467711E-02 0.11526360E+00
        2 -1    0    0  502    0 0.00000000E+00 0.00000000E+00 0.50324558E+03 0.50324568E+03 0.32000000E+00 0.0000E+00 0.9000E+01
       21 -1    0    0  501  502 0.00000000E+00 0.00000000E+00 -.48118001E+02 0.48123846E+02 0.75000000E+00 0.0000E+00 0.9000E+01
       25  1    1    2    0    0 -.16980902E+02 -.43936135E+02 0.24528165E+03 0.27929702E+03 0.12500000E+03 0.0000E+00 0.9000E+01
       24  1    1    2    0    0 0.72720367E+02 0.43703965E+02 0.13191146E+03 0.17625589E+03 0.80419002E+02 0.0000E+00 0.9000E+01
        1  1    1    2  501    0 -.55739465E+02 0.23217070E+00 0.77934466E+02 0.95816622E+02 0.32000000E+00 0.0000E+00 0.9000E+01
#aMCatNLO 1  0  0  2  1 0.55284317D+01 0.00000000D+00  -5  6  0 0.00000000D+00 0.00000000D+00 0.00000000D+00 0.00000000D+00 0.00000000D+00
  <mgrwgt>
 0.1116798703D+00   14    2    0
 0.155617513622191D+03 0.000000000000000D+00 0.000000000000000D+00 0.155617513622191D+03
 0.155617513622191D+03 0.000000000000000D+00 0.000000000000000D+00 -.155617513622191D+03
 0.136107447953140D+03 -.169805009643595D+02 -.439361368888412D+02 0.261058585493975D+02
 0.119349185231018D+03 0.727207185287952D+02 0.437039630492105D+02 -.240556182914978D+02
 0.557783940602232D+02 -.557402175644357D+02 0.232173839630707D+00 -.205024025789973D+01
 0.000000000000000D+00 0.000000000000000D+00 0.000000000000000D+00 -.000000000000000D+00
 0.188798770717899D+03 0.000000000000000D+00 0.000000000000000D+00 0.188798770717899D+03
 0.213441225991246D+03 0.000000000000000D+00 0.000000000000000D+00 -.213441225991246D+03
 0.149004018417377D+03 -.482445719202613D+02 -.597339345276672D+02 0.261058585493975D+02
 0.101897122409966D+03 0.484598203303695D+02 0.314448826237761D+02 -.240556182914978D+02
 0.698737804208328D+02 -.695186830493486D+02 -.673011235180059D+01 -.205024025789973D+01
 0.814650754609696D+02 0.693034346392403D+02 0.350191642556917D+02 -.246424552733468D+02
0.399962108776D-05 0.000000000000D+00 0.000000000000D+00 0.276588732511D-06 0.000000000000D+00  6 2 21 25 24 1 21 2 0.77422854D-01 0.74032268D-02 0.23442804D+05 0.23442804D+05 0.23442804D+05 0.12263035D+01  1  2  2  2  6  2       21 0.636864866443D-01 0.100000000000D+01
-.181710608251D-06 0.211065803507D-06 -.807408263428D-08 0.276588732511D-06 0.000000000000D+00  6 2 21 25 24 1 21 4 0.77422854D-01 0.74032268D-02 0.23442804D+05 0.23442804D+05 0.23442804D+05 0.12263035D+01  1  2  3  2  6  2       21 -.435115613444D-02 0.100000000000D+01
0.347464893883D-06 0.000000000000D+00 0.000000000000D+00 0.276588732511D-06 0.000000000000D+00  6 2 21 25 24 1 21 4 0.77422854D-01 0.74032268D-02 0.23442804D+05 0.23442804D+05 0.23442804D+05 0.12263035D+01  1  2 15  2  6  2       21 0.832022972720D-02 0.100000000000D+01
-.153066660945D-05 0.000000000000D+00 0.000000000000D+00 0.276588732511D-06 0.000000000000D+00  6 2 21 25 24 1 21 4 0.77422854D-01 0.74032268D-02 0.23442804D+05 0.23442804D+05 0.23442804D+05 0.12263035D+01  1  2  4  2  6  2       21 -.366526174316D-01 0.100000000000D+01
-.882166035108D-05 0.000000000000D+00 -.472444165126D-05 0.276588732511D-06 0.000000000000D+00  6 2 21 25 24 1 21 4 0.77422854D-01 0.12288378D-01 0.23442804D+05 0.23442804D+05 0.23442804D+05 0.12263035D+01  1  2  5  2  6  2       21 -.869502145958D-01 0.100000000000D+01
0.724960250747D-05 0.000000000000D+00 0.296488499180D-05 0.276588732511D-06 0.000000000000D+00  6 2 21 25 24 1 21 4 0.77422854D-01 0.74032268D-02 0.23442804D+05 0.23442804D+05 0.23442804D+05 0.12263035D+01  1  2  6  2  6  2       21 0.173595546932D+00 0.100000000000D+01
-.120854834909D-05 0.000000000000D+00 -.835697835146D-06 0.276588732511D-06 0.000000000000D+00  6 2 -1 25 24 1 -1 4 0.77422854D-01 0.12288378D-01 0.23442804D+05 0.23442804D+05 0.23442804D+05 0.12263035D+01  1  2  5  5  6  2       21 -.831097875878D-03 0.100000000000D+01
-.120854834909D-05 0.000000000000D+00 -.835697835146D-06 0.276588732511D-06 0.000000000000D+00  6 2 1 25 24 1 1 4 0.77422854D-01 0.12288378D-01 0.23442804D+05 0.23442804D+05 0.23442804D+05 0.12263035D+01  1  2  5  6  6  2       21 -.108901586219D-02 0.100000000000D+01
-.120854834909D-05 0.000000000000D+00 -.835697835146D-06 0.276588732511D-06 0.000000000000D+00  6 2 -2 25 24 1 -2 4 0.77422854D-01 0.12288378D-01 0.23442804D+05 0.23442804D+05 0.23442804D+05 0.12263035D+01  1  2  5  7  6  2       21 -.786488793392D-03 0.100000000000D+01
-.120854834909D-05 0.000000000000D+00 -.835697835146D-06 0.276588732511D-06 0.000000000000D+00  6 2 2 25 24 1 2 4 0.77422854D-01 0.12288378D-01 0.23442804D+05 0.23442804D+05 0.23442804D+05 0.12263035D+01  1  2  5  8  6  2       21 -.126503328330D-02 0.100000000000D+01
-.120854834909D-05 0.000000000000D+00 -.835697835146D-06 0.276588732511D-06 0.000000000000D+00  6 2 -3 25 24 1 -3 4 0.77422854D-01 0.12288378D-01 0.23442804D+05 0.23442804D+05 0.23442804D+05 0.12263035D+01  1  2  5  9  6  2       21 -.534201578903D-03 0.100000000000D+01
-.120854834909D-05 0.000000000000D+00 -.835697835146D-06 0.276588732511D-06 0.000000000000D+00  6 2 -4 25 24 1 -4 4 0.77422854D-01 0.12288378D-01 0.23442804D+05 0.23442804D+05 0.23442804D+05 0.12263035D+01  1  2  5  9  6  2       21 -.464216534321D-03 0.100000000000D+01
-.120854834909D-05 0.000000000000D+00 -.835697835146D-06 0.276588732511D-06 0.000000000000D+00  6 2 3 25 24 1 3 4 0.77422854D-01 0.12288378D-01 0.23442804D+05 0.23442804D+05 0.23442804D+05 0.12263035D+01  1  2  5 10  6  2       21 -.534134411790D-03 0.100000000000D+01
-.120854834909D-05 0.000000000000D+00 -.835697835146D-06 0.276588732511D-06 0.000000000000D+00  6 2 4 25 24 1 4 4 0.77422854D-01 0.12288378D-01 0.23442804D+05 0.23442804D+05 0.23442804D+05 0.12263035D+01  1  2  5 10  6  2       21 -.464216534321D-03 0.100000000000D+01
  </mgrwgt>
  </event>
  <event>
  5     66 0.45638357E-03 0.35351286E+02 0.75467711E-02 0.11887265E+00
        2 -1    0    0  502    0 0.00000000E+00 0.00000000E+00 0.18825828E+04 0.18825828E+04 0.32000000E+00 0.0000E+00 0.9000E+01
       21 -1    0    0  501  502 0.00000000E+00 0.00000000E+00 -.10836678E+02 0.10862601E+02 0.75000000E+00 0.0000E+00 0.9000E+01
       25  1    1    2    0    0 0.41386880E+02 -.22185919E+02 0.12473166E+04 0.12544436E+04 0.12500000E+03 0.0000E+00 0.9000E+01
       24  1    1    2    0    0 -.38444870E+02 -.13042218E+02 0.54011077E+03 0.54757189E+03 0.80419002E+02 0.0000E+00 0.9000E+01
        1  1    1    2  501    0 -.29420107E+01 0.35228137E+02 0.84318732E+02 0.91429907E+02 0.32000000E+00 0.0000E+00 0.9000E+01
#aMCatNLO 1  0  0  1  2 0.56909987D+02 0.00000000D+00  -5  6  0 0.00000000D+00 0.00000000D+00 0.00000000D+00 0.00000000D+00 0.00000000D+00
  <mgrwgt>
 0.4728603319D-01    5    2    0
 0.142917847835970D+03 0.000000000000000D+00 0.000000000000000D+00 0.142917847835970D+03
 0.142917847835970D+03 0.000000000000000D+00 0.000000000000000D+00 -.142917847835970D+03
 0.141901712096116D+03 0.413869063677953D+02 -.221862320453804D+02 0.480207349458646D+02
 0.904269153825247D+02 -.384448528701149D+02 -.130424170313369D+02 -.785491674072049D+01
 0.535070681932994D+02 -.294205349768042D+01 0.352286490767173D+02 -.401658182051441D+02
 0.000000000000000D+00 -.000000000000000D+00 0.000000000000000D+00 0.000000000000000D+00
 0.318993525538201D+03 0.000000000000000D+00 0.000000000000000D+00 0.318993525538201D+03
 0.150395980716505D+03 0.000000000000000D+00 0.000000000000000D+00 -.150395980716505D+03
 0.153900724667843D+03 0.643763523461766D+02 -.401263919029237D+02 0.480207349458646D+02
 0.877649186839825D+02 -.245959759376725D+02 -.238495963887298D+02 -.785491674072049D+01
 0.497803921225264D+02 0.508533638846062D+01 0.289643546725972D+02 -.401658182051441D+02
 0.177943470780354D+03 -.448657127969647D+02 0.350116336190564D+02 0.168597544821696D+03
0.198378967210D-05 0.000000000000D+00 0.000000000000D+00 0.108631038829D-05 0.000000000000D+00  6 2 21 25 24 1 21 2 0.28963012D+00 0.16691774D-02 0.16765823D+05 0.16765823D+05 0.16765823D+05 0.12423498D+01  1  2  2  1  6  1        2 0.561571338067D-01 0.100000000000D+01
0.599524548817D-07 0.104687457122D-06 -.400469979282D-08 0.108631038829D-05 0.000000000000D+00  6 2 21 25 24 1 21 4 0.28963012D+00 0.16691774D-02 0.16765823D+05 0.16765823D+05 0.16765823D+05 0.12423498D+01  1  2  3  1  6  1        2 0.261941360745D-02 0.100000000000D+01
0.178336296944D-06 0.000000000000D+00 0.000000000000D+00 0.108631038829D-05 0.000000000000D+00  6 2 21 25 24 1 21 4 0.28963012D+00 0.16691774D-02 0.16765823D+05 0.16765823D+05 0.16765823D+05 0.12423498D+01  1  2 15  1  6  1        2 0.779178306941D-02 0.100000000000D+01
-.117297492096D-04 0.000000000000D+00 -.138598661228D-05 0.108631038829D-05 0.000000000000D+00  6 2 21 25 24 1 21 4 0.65043458D+00 0.16691774D-02 0.16765823D+05 0.16765823D+05 0.16765823D+05 0.12423498D+01  1  2  5  1  6  1        2 -.192263033384D-01 0.100000000000D+01
-.942714139695D-06 0.000000000000D+00 -.121741715239D-06 0.108631038829D-05 0.000000000000D+00  6 21 21 25 24 1 -2 4 0.65043458D+00 0.16691774D-02 0.16765823D+05 0.16765823D+05 0.16765823D+05 0.12423498D+01  1  2  5  4  6  1        2 -.559939573521D-04 0.100000000000D+01
  </mgrwgt>
  </event>
  <event>
  5     66 0.45638357E-03 0.63439963E+02 0.75467711E-02 0.11702814E+00
        2 -1    0    0  502    0 0.00000000E+00 0.00000000E+00 0.11317771E+04 0.11317771E+04 0.32000000E+00 0.0000E+00 0.9000E+01
       21 -1    0    0  501  502 0.00000000E+00 0.00000000E+00 -.38541720E+02 0.38549017E+02 0.75000000E+00 0.0000E+00 0.9000E+01
       25  1    1    2    0    0 -.11147534E+03 0.17227449E+02 0.21092612E+03 0.26988584E+03 0.12500000E+03 0.0000E+00 0.9000E+01
       24  1    1    2    0    0 0.47748943E+02 -.20202823E+02 0.71511694E+03 0.72148983E+03 0.80419002E+02 0.0000E+00 0.9000E+01
        1  1    1    2  501    0 0.63726400E+02 0.29753739E+01 0.16719232E+03 0.17895050E+03 0.32000000E+00 0.0000E+00 0.9000E+01
#aMCatNLO 1  0  0  1  2 0.26542861D+02 0.00000000D+00  -5  6  0 0.00000000D+00 0.00000000D+00 0.00000000D+00 0.00000000D+00 0.00000000D+00
  <mgrwgt>
 0.9230026848D-01    9    2    0
 0.208865824683231D+03 0.000000000000000D+00 0.000000000000000D+00 0.208865824683231D+03
 0.208865824683231D+03 0.000000000000000D+00 0.000000000000000D+00 -.208865824683231D+03
 0.204108662268184D+03 -.111475734367695D+03 0.172274307240491D+02 -.115376437329027D+03
 0.149826431705013D+03 0.477486552803072D+02 -.202028362931296D+02 0.115293776968759D+03
 0.637965553932647D+02 0.637270790873881D+02 0.297540556908056D+01 0.826603602685339D-01
 0.000000000000000D+00 0.000000000000000D+00 -.000000000000000D+00 0.000000000000000D+00
 0.273503377537354D+03 0.000000000000000D+00 0.000000000000000D+00 0.273503377537354D+03
 0.212029809627365D+03 0.000000000000000D+00 0.000000000000000D+00 -.212029809627365D+03
 0.207345656374195D+03 -.114730249384828D+03 0.298742163512654D+02 -.115376437329027D+03
 0.148129263071024D+03 0.453918899259216D+02 -.110446342096657D+02 0.115293776968759D+03
 0.630991532589776D+02 0.627233613702402D+02 0.687577251536474D+01 0.826603602685339D-01
 0.669591144605226D+02 0.661499808866575D+01 -.257053546569644D+02 0.614735679099887D+02
0.242472481958D-05 0.000000000000D+00 0.000000000000D+00 0.794189888040D-07 0.000000000000D+00  6 2 21 25 24 1 21 2 0.17412012D+00 0.59300602D-02 0.26871464D+05 0.26871464D+05 0.26871464D+05 0.12199506D+01  1  2  2  1  6  1        2 0.203310899353D-01 0.100000000000D+01
-.127697448731D-06 0.127956244129D-06 -.489482081655D-08 0.794189888040D-07 0.000000000000D+00  6 2 21 25 24 1 21 4 0.17412012D+00 0.59300602D-02 0.26871464D+05 0.26871464D+05 0.26871464D+05 0.12199506D+01  1  2  3  1  6  1        2 -.159354713777D-02 0.100000000000D+01
0.293475012155D-06 0.000000000000D+00 0.000000000000D+00 0.794189888040D-07 0.000000000000D+00  6 2 21 25 24 1 21 4 0.17412012D+00 0.59300602D-02 0.26871464D+05 0.26871464D+05 0.26871464D+05 0.12199506D+01  1  2 15  1  6  1        2 0.366229921015D-02 0.100000000000D+01
0.340257907565D-04 0.000000000000D+00 0.000000000000D+00 0.784765705229D-07 0.000000000000D+00  6 2 21 25 24 1 21 4 0.22903339D+00 0.59300602D-02 0.31493046D+05 0.31493046D+05 0.31493046D+05 0.12126908D+01  1  2 12  1  6  1        2 0.264251421833D+00 0.100000000000D+01
-.290460991132D-04 0.000000000000D+00 0.000000000000D+00 0.794189888040D-07 0.000000000000D+00  6 2 21 25 24 1 21 4 0.17412012D+00 0.59300602D-02 0.26871464D+05 0.26871464D+05 0.26871464D+05 0.12199506D+01  1  2  4  1  6  1        2 -.362468698984D+00 0.100000000000D+01
-.383197104843D-04 0.000000000000D+00 -.350417225709D-05 0.794189888040D-07 0.000000000000D+00  6 2 21 25 24 1 21 4 0.22926857D+00 0.59300602D-02 0.26871464D+05 0.26871464D+05 0.26871464D+05 0.12199506D+01  1  2  5  1  6  1        2 -.305138535795D+00 0.100000000000D+01
0.379662238829D-04 0.000000000000D+00 0.337558662516D-05 0.794189888040D-07 0.000000000000D+00  6 2 21 25 24 1 21 4 0.17412012D+00 0.59300602D-02 0.26871464D+05 0.26871464D+05 0.26871464D+05 0.12199506D+01  1  2  6  1  6  1        2 0.473783681676D+00 0.100000000000D+01
0.123197411721D-05 0.000000000000D+00 0.000000000000D+00 0.784765705229D-07 0.000000000000D+00  6 21 21 25 24 1 -2 4 0.22903339D+00 0.59300602D-02 0.31493046D+05 0.31493046D+05 0.31493046D+05 0.12126908D+01  1  2 12  4  6  1        2 0.481345201939D-02 0.100000000000D+01
-.132265322086D-05 0.000000000000D+00 -.127221660897D-06 0.794189888040D-07 0.000000000000D+00  6 21 21 25 24 1 -2 4 0.22926857D+00 0.59300602D-02 0.26871464D+05 0.26871464D+05 0.26871464D+05 0.12199506D+01  1  2  5  4  6  1        2 -.534089427417D-02 0.100000000000D+01
  </mgrwgt>
  </event>
  <event>
  5     66 0.45638357E-03 0.13216680E+03 0.75467711E-02 0.10291905E+00
        2 -1    0    0  502    0 0.00000000E+00 0.00000000E+00 0.16640418E+04 0.16640418E+04 0.32000000E+00 0.0000E+00 0.9000E+01
       21 -1    0    0  501  502 0.00000000E+00 0.00000000E+00 -.65340718E+02 0.65345022E+02 0.75000000E+00 0.0000E+00 0.9000E+01
       25  1    1    2    0    0 -.18007613E+03 -.73949181E+02 0.53763019E+03 0.58529233E+03 0.12500000E+03 0.0000E+00 0.9000E+01
       24  1    1    2    0    0 0.26958148E+03 -.23296832E+02 0.57767444E+03 0.64295559E+03 0.80419002E+02 0.0000E+00 0.9000E+01
        1  1    1    2  501    0 -.89505348E+02 0.97246013E+02 0.48339646E+03 0.50113893E+03 0.32000000E+00 0.0000E+00 0.9000E+01
#aMCatNLO 1  0  0  1  2 0.57572348D+02 0.00000000D+00  -5  6  0 0.00000000D+00 0.00000000D+00 0.00000000D+00 0.00000000D+00 0.00000000D+00
  <mgrwgt>
 0.1717476468D+00    7    2    0
 0.329747531929796D+03 0.000000000000000D+00 0.000000000000000D+00 0.329747531929796D+03
 0.329747531929796D+03 0.000000000000000D+00 0.000000000000000D+00 -.329747531929796D+03
 0.231520882419750D+03 -.180076051971503D+03 -.739492670975137D+02 -.900224408228089D+01
 0.285658340585096D+03 0.269581577469100D+03 -.232969386520575D+02 -.437778177868006D+02
 0.142315840854745D+03 -.895055254975972D+02 0.972462057495711D+02 0.527800618690815D+02
 0.000000000000000D+00 0.000000000000000D+00 0.000000000000000D+00 0.000000000000000D+00
 0.457659267292445D+03 0.000000000000000D+00 0.000000000000000D+00 0.457659267292445D+03
 0.445817103930956D+03 0.000000000000000D+00 0.000000000000000D+00 -.445817103930956D+03
 0.304098103712000D+03 -.262013229446517D+03 -.901037395324074D+02 -.900224408228089D+01
 0.216799784009309D+03 0.192717236221630D+03 -.384512668846495D+02 -.437778177868006D+02
 0.171462806829575D+03 -.137506319735418D+03 0.877825223366988D+02 0.527800618690815D+02
 0.211115676672518D+03 0.206802312960305D+03 0.407724840803581D+02 0.118421633614888D+02
0.587639599108D-04 0.000000000000D+00 0.000000000000D+00 0.327000039150D-07 0.000000000000D+00  6 2 21 25 24 1 21 2 0.25600676D+00 0.10052752D-01 0.10426327D+06 0.10426327D+06 0.10426327D+06 0.11619097D+01  1  2  2  1  6  1        2 0.882943235848D-01 0.100000000000D+01
-.484990189187D-05 0.310105936129D-05 -.118627504413D-06 0.327000039150D-07 0.000000000000D+00  6 2 21 25 24 1 21 4 0.25600676D+00 0.10052752D-01 0.10426327D+06 0.10426327D+06 0.10426327D+06 0.11619097D+01  1  2  3  1  6  1        2 -.983783341080D-02 0.100000000000D+01
0.509481034541D-05 0.000000000000D+00 0.000000000000D+00 0.327000039150D-07 0.000000000000D+00  6 2 21 25 24 1 21 4 0.25600676D+00 0.10052752D-01 0.10426327D+06 0.10426327D+06 0.10426327D+06 0.11619097D+01  1  2 15  1  6  1        2 0.103346204841D-01 0.100000000000D+01
-.406916446770D-04 0.000000000000D+00 0.000000000000D+00 0.327000039150D-07 0.000000000000D+00  6 2 21 25 24 1 21 4 0.25600676D+00 0.10052752D-01 0.10426327D+06 0.10426327D+06 0.10426327D+06 0.11619097D+01  1  2  4  1  6  1        2 -.825413854691D-01 0.100000000000D+01
-.900500115029D-04 0.000000000000D+00 -.527036969876D-04 0.327000039150D-07 0.000000000000D+00  6 2 21 25 24 1 21 4 0.40889736D+00 0.10052752D-01 0.10426327D+06 0.10426327D+06 0.10426327D+06 0.11619097D+01  1  2  5  1  6  1        2 -.532591467738D-01 0.100000000000D+01
0.107967710521D-03 0.000000000000D+00 0.474102558619D-04 0.327000039150D-07 0.000000000000D+00  6 2 21 25 24 1 21 4 0.25600676D+00 0.10052752D-01 0.10426327D+06 0.10426327D+06 0.10426327D+06 0.11619097D+01  1  2  6  1  6  1        2 0.219008213677D+00 0.100000000000D+01
-.262176086880D-05 0.000000000000D+00 -.282324978927D-05 0.327000039150D-07 0.000000000000D+00  6 21 21 25 24 1 -2 4 0.40889736D+00 0.10052752D-01 0.10426327D+06 0.10426327D+06 0.10426327D+06 0.11619097D+01  1  2  5  4  6  1        2 -.251145336582D-03 0.100000000000D+01
  </mgrwgt>
  </event>
  <event>
  5     66 -.45638357E-03 0.29534633E+02 0.75467711E-02 0.11991505E+00
        2 -1    0    0  502    0 0.00000000E+00 0.00000000E+00 0.89716735E+03 0.89716740E+03 0.32000000E+00 0.0000E+00 0.9000E+01
       21 -1    0    0  501  502 0.00000000E+00 0.00000000E+00 -.73867906E+02 0.73871714E+02 0.75000000E+00 0.0000E+00 0.9000E+01
       25  1    1    2    0    0 -.27243415E+02 -.92189345E+02 0.22790879E+03 0.27714346E+03 0.12500000E+03 0.0000E+00 0.9000E+01
       24  1    1    2    0    0 0.38370470E+02 0.64830971E+02 0.63499778E+03 0.64448797E+03 0.80419002E+02 0.0000E+00 0.9000E+01
        1  1    1    2  501    0 -.11127055E+02 0.27358375E+02 -.39607134E+02 0.49407686E+02 0.32000000E+00 0.0000E+00 0.9000E+01
#aMCatNLO 1  0  0  1  2 0.45465388D+01 0.00000000D+00  -5  6  0 0.00000000D+00 0.00000000D+00 0.00000000D+00 0.00000000D+00 0.00000000D+00
  <mgrwgt>
 -.2956295160D+00   11    2    0
 0.257436884683610D+03 0.000000000000000D+00 0.000000000000000D+00 0.257436884683610D+03
 0.257436884683610D+03 0.000000000000000D+00 0.000000000000000D+00 -.257436884683610D+03
 0.158252300569593D+03 -.272434078892416D+02 -.921893629071922D+02 -.133307437495163D+02
 0.200106841552778D+03 0.383704788399756D+02 0.648309484939306D+02 0.167033489315246D+03
 0.156514627244848D+03 -.111270709507340D+02 0.273584144132615D+02 -.153702745565729D+03
 0.000000000000000D+00 0.000000000000000D+00 -.000000000000000D+00 0.000000000000000D+00
 0.299275736416540D+03 0.000000000000000D+00 0.000000000000000D+00 0.299275736416540D+03
 0.257570466730121D+03 0.000000000000000D+00 0.000000000000000D+00 -.257570466730121D+03
 0.158496336689861D+03 -.286418807382443D+02 -.921847204419846D+02 -.133307437495163D+02
 0.199777718973073D+03 0.366049536416061D+02 0.648368094509828D+02 0.167033489315246D+03
 0.156619787180252D+03 -.125095866908196D+02 0.273630039061694D+02 -.153702745565729D+03
 0.419523603034743D+02 0.454651378745773D+01 -.150929151675261D-01 0.417052696864185D+02
0.339073009823D-05 0.000000000000D+00 0.000000000000D+00 0.249102599099D-05 0.000000000000D+00  6 2 21 25 24 1 21 2 0.13802604D+00 0.11364591D-01 0.22114330D+05 0.22114330D+05 0.22114330D+05 0.12290500D+01  1  2  2  1  6  1        2 0.129137131941D-01 0.100000000000D+01
0.656270268696D-06 0.178933743210D-06 -.684490715567D-08 0.249102599099D-05 0.000000000000D+00  6 2 21 25 24 1 21 4 0.13802604D+00 0.11364591D-01 0.22114330D+05 0.22114330D+05 0.22114330D+05 0.12290500D+01  1  2  3  1  6  1        2 0.377554575615D-02 0.100000000000D+01
0.358254143283D-06 0.000000000000D+00 0.000000000000D+00 0.249102599099D-05 0.000000000000D+00  6 2 21 25 24 1 21 4 0.13802604D+00 0.11364591D-01 0.22114330D+05 0.22114330D+05 0.22114330D+05 0.12290500D+01  1  2 15  1  6  1        2 0.206104858747D-02 0.100000000000D+01
0.291635281250D-03 0.000000000000D+00 0.000000000000D+00 0.248497900190D-05 0.000000000000D+00  6 2 21 25 24 1 21 4 0.16049038D+00 0.11364591D-01 0.22825573D+05 0.22825573D+05 0.22825573D+05 0.12275573D+01  1  2 12  1  6  1        2 0.135960935363D+01 0.100000000000D+01
-.124190648451D-02 0.000000000000D+00 0.000000000000D+00 0.249102599099D-05 0.000000000000D+00  6 2 21 25 24 1 21 4 0.13802604D+00 0.11364591D-01 0.22114330D+05 0.22114330D+05 0.22114330D+05 0.12290500D+01  1  2  4  1  6  1        2 -.714473134133D+01 0.100000000000D+01
-.126878755391D-02 0.000000000000D+00 -.856278990988D-05 0.249102599099D-05 0.000000000000D+00  6 2 21 25 24 1 21 4 0.16049069D+00 0.11364591D-01 0.22114330D+05 0.22114330D+05 0.22114330D+05 0.12290500D+01  1  2  5  1  6  1        2 -.594688203540D+01 0.100000000000D+01
0.125586970532D-02 0.000000000000D+00 0.846635045337D-05 0.249102599099D-05 0.000000000000D+00  6 2 21 25 24 1 21 4 0.13802604D+00 0.11364591D-01 0.22114330D+05 0.22114330D+05 0.22114330D+05 0.12290500D+01  1  2  6  1  6  1        2 0.722506223788D+01 0.100000000000D+01
0.901414242450D-03 0.000000000000D+00 0.000000000000D+00 0.249102599099D-05 0.942572651933D-06  6 2 21 25 24 1 21 4 0.16045815D+00 0.11370488D-01 0.22825573D+05 0.22825573D+05 0.22825573D+05 0.12275573D+01  1  2 11  1  6  1        2 0.419974239589D+01 0.100000000000D+01
0.668087602255D-05 0.000000000000D+00 0.000000000000D+00 0.248497900190D-05 0.000000000000D+00  6 21 21 25 24 1 -2 4 0.16049038D+00 0.11364591D-01 0.22825573D+05 0.22825573D+05 0.22825573D+05 0.12275573D+01  1  2 12  4  6  1        2 0.252748034498D-01 0.100000000000D+01
-.290061038344D-04 0.000000000000D+00 -.196161213490D-06 0.249102599099D-05 0.000000000000D+00  6 21 21 25 24 1 -2 4 0.16049069D+00 0.11364591D-01 0.22114330D+05 0.22114330D+05 0.22114330D+05 0.12290500D+01  1  2  5  4  6  1        2 -.110477815666D+00 0.100000000000D+01
0.206315556083D-04 0.000000000000D+00 0.000000000000D+00 0.249102599099D-05 0.215651250561D-07  6 21 21 25 24 1 -2 4 0.16045815D+00 0.11370488D-01 0.22825573D+05 0.22825573D+05 0.22825573D+05 0.12275573D+01  1  2 11  4  6  1        2 0.780225780020D-01 0.100000000000D+01
  </mgrwgt>
  </event>
  <event>
  5     66 0.45638357E-03 0.22295567E+02 0.75467711E-02 0.10446813E+00
        2 -1    0    0  502    0 0.00000000E+00 0.00000000E+00 0.27975113E+03 0.27975131E+03 0.32000000E+00 0.0000E+00 0.9000E+01
       21 -1    0    0  501  502 0.00000000E+00 0.00000000E+00 -.11435463E+03 0.11435709E+03 0.75000000E+00 0.0000E+00 0.9000E+01
       25  1    1    2    0    0 -.88790164E+01 -.19988961E+02 0.18473381E+03 0.22412045E+03 0.12500000E+03 0.0000E+00 0.9000E+01
       24  1    1    2    0    0 0.39600405E+01 -.17571506E+01 0.51587068E+02 0.95641053E+02 0.80419002E+02 0.0000E+00 0.9000E+01
        1  1    1    2  501    0 0.49189759E+01 0.21746111E+02 -.70924384E+02 0.74346891E+02 0.32000000E+00 0.0000E+00 0.9000E+01
#aMCatNLO 1  0  0  1  2 0.45465388D+01 0.00000000D+00  -5  6  0 0.00000000D+00 0.00000000D+00 0.00000000D+00 0.00000000D+00 0.00000000D+00
  <mgrwgt>
 0.4772325500D+00    3    2    0
 0.178861277986343D+03 0.000000000000000D+00 0.000000000000000D+00 0.178861277986343D+03
 0.178861277986343D+03 0.000000000000000D+00 0.000000000000000D+00 -.178861277986343D+03
 0.161503576177040D+03 -.887902502330309D+01 -.199889989934223D+02 0.998999897489952D+02
 0.815174410183493D+02 0.396003609220851D+01 -.175716987209772D+01 0.126137902312717D+02
 0.114701538777297D+03 0.491898893109459D+01 0.217461688655200D+02 -.112513779980267D+03
 0.000000000000000D+00 0.000000000000000D+00 0.000000000000000D+00 -.000000000000000D+00
 0.397097239876868D+03 0.000000000000000D+00 0.000000000000000D+00 0.397097239876868D+03
 0.485814815641201D+03 0.000000000000000D+00 0.000000000000000D+00 -.485814815641201D+03
 0.250711041630438D+03 -.175763171661985D+02 -.192203255743609D+03 0.998999897489952D+02
 0.117673774097851D+03 -.242687720397835D+00 -.849749054411558D+02 0.126137902312717D+02
 0.141081733606228D+03 -.477767392147435D+00 -.851144911881040D+02 -.112513779980267D+03
 0.373445506183551D+03 0.182967722787437D+02 0.362292652372869D+03 -.887175757643326D+02
0.481165579056D-04 0.000000000000D+00 0.000000000000D+00 0.886853170969D-05 0.000000000000D+00  6 2 21 25 24 1 21 2 0.43038838D-01 0.17593223D-01 0.13194008D+05 0.13194008D+05 0.13194008D+05 0.12542245D+01  1  2  2  1  6  1        2 0.323148370080D+00 0.100000000000D+01
0.101081831135D-04 0.253918052072D-05 -.971334674165D-07 0.886853170969D-05 0.000000000000D+00  6 2 21 25 24 1 21 4 0.43038838D-01 0.17593223D-01 0.13194008D+05 0.13194008D+05 0.13194008D+05 0.12542245D+01  1  2  3  1  6  1        2 0.106790124120D+00 0.100000000000D+01
0.447660287196D-05 0.000000000000D+00 0.000000000000D+00 0.886853170969D-05 0.000000000000D+00  6 2 21 25 24 1 21 4 0.43038838D-01 0.17593223D-01 0.13194008D+05 0.13194008D+05 0.13194008D+05 0.12542245D+01  1  2 15  1  6  1        2 0.472940558124D-01 0.100000000000D+01
  </mgrwgt>
  </event>
  <event>
  5     66 0.45638357E-03 0.28956148E+02 0.75467711E-02 0.12121126E+00
        2 -1    0    0  502    0 0.00000000E+00 0.00000000E+00 0.13461147E+04 0.13461148E+04 0.32000000E+00 0.0000E+00 0.9000E+01
       21 -1    0    0  501  502 0.00000000E+00 0.00000000E+00 -.15744354E+02 0.15762207E+02 0.75000000E+00 0.0000E+00 0.9000E+01
       25  1    1    2    0    0 0.66778144E+02 -.24741396E+02 0.84204606E+03 0.85424705E+03 0.12500000E+03 0.0000E+00 0.9000E+01
       24  1    1    2    0    0 -.53727949E+02 0.50588532E+02 0.40337659E+03 0.41788250E+03 0.80419002E+02 0.0000E+00 0.9000E+01
        1  1    1    2  501    0 -.13050195E+02 -.25847136E+02 0.84947718E+02 0.89747419E+02 0.32000000E+00 0.0000E+00 0.9000E+01
#aMCatNLO 1  0  0  5  2 0.14320225D+01 0.00000000D+00  -5  6  0 0.00000000D+00 0.00000000D+00 0.00000000D+00 0.00000000D+00 0.00000000D+00
  <mgrwgt>
 0.3641988746D+00    8    2    0
 0.145622421047282D+03 0.000000000000000D+00 0.000000000000000D+00 0.145622421047282D+03
 0.145622421047282D+03 -.000000000000000D+00 -.000000000000000D+00 -.145622421047282D+03
 0.148144397042103D+03 0.667784837685744D+02 -.247407227757148D+02 0.353594841177533D+02
 0.111467387699063D+03 -.537276939104978D+02 0.505890379577778D+02 -.226240295183920D+02
 0.316330573533975D+02 -.130507898580766D+02 -.258483151820630D+02 -.127354545993613D+02
 0.000000000000000D+00 -.000000000000000D+00 0.000000000000000D+00 0.000000000000000D+00
 0.145622421047282D+03 0.000000000000000D+00 0.000000000000000D+00 0.145622421047282D+03
 0.145622421047282D+03 -.000000000000000D+00 -.000000000000000D+00 -.145622421047282D+03
 0.148119136409998D+03 0.667066224917820D+02 -.248830507843730D+02 0.352893591645517D+02
 0.111455632130489D+03 -.537817658127826D+02 0.504819434762981D+02 -.226767949267801D+02
 0.350558359302922D+01 -.342443169389612D+00 -.259281793916323D+01 -.233434019324675D+01
 0.281644899610471D+02 -.125824135096097D+02 -.230060747527619D+02 -.102782240445248D+02
0.329873512207D-05 0.000000000000D+00 0.000000000000D+00 0.684135654217D-06 0.000000000000D+00  6 2 21 25 24 1 21 2 0.20709595D+00 0.24235846D-02 0.19876223D+05 0.19876223D+05 0.19876223D+05 0.12341230D+01  1  2  2  3  6  5        1 0.956251353625D-01 0.100000000000D+01
0.122607928587D-06 0.174079034943D-06 -.665919580373D-08 0.684135654217D-06 0.000000000000D+00  6 2 21 25 24 1 21 4 0.20709595D+00 0.24235846D-02 0.19876223D+05 0.19876223D+05 0.19876223D+05 0.12341230D+01  1  2  3  3  6  5        1 0.541327449919D-02 0.100000000000D+01
0.359820258889D-06 0.000000000000D+00 0.000000000000D+00 0.684135654217D-06 0.000000000000D+00  6 2 21 25 24 1 21 4 0.20709595D+00 0.24235846D-02 0.19876223D+05 0.19876223D+05 0.19876223D+05 0.12341230D+01  1  2 15  3  6  5        1 0.158864590094D-01 0.100000000000D+01
0.512225931581D-09 0.000000000000D+00 0.000000000000D+00 0.684192303648D-06 0.000000000000D+00  6 2 21 25 24 1 21 4 0.20709595D+00 0.24235846D-02 0.19855011D+05 0.19855011D+05 0.19855011D+05 0.12341741D+01  1  2 12  3  6  5        1 0.226189125028D-04 0.100000000000D+01
-.944012592290D-05 0.000000000000D+00 0.000000000000D+00 0.684135654217D-06 0.000000000000D+00  6 2 21 25 24 1 21 4 0.20709595D+00 0.24235846D-02 0.19876223D+05 0.19876223D+05 0.19876223D+05 0.12341230D+01  1  2  4  3  6  5        1 -.416791911553D+00 0.100000000000D+01
-.360732582528D-05 0.000000000000D+00 0.000000000000D+00 0.684135654217D-06 0.000000000000D+00  6 2 21 25 24 1 21 4 0.20709595D+00 0.24235846D-02 0.19876223D+05 0.19876223D+05 0.19876223D+05 0.12341230D+01  1  2  5  3  6  5        1 -.159267390986D+00 0.100000000000D+01
0.124204343093D-04 0.000000000000D+00 -.000000000000D+00 0.684135654217D-06 0.000000000000D+00  6 2 21 25 24 1 21 4 0.20709595D+00 0.24235846D-02 0.19876223D+05 0.19876223D+05 0.19876223D+05 0.12341230D+01  1  2  6  3  6  5        1 0.548375795025D+00 0.100000000000D+01
0.622615178088D-05 0.000000000000D+00 0.000000000000D+00 0.684135654217D-06 0.254291337396D-06  6 2 21 25 24 1 21 4 0.20709595D+00 0.24235846D-02 0.19855011D+05 0.19855011D+05 0.19855011D+05 0.12341741D+01  1  2 11  3  6  5        1 0.274934894307D+00 0.100000000000D+01
  </mgrwgt>
  </event>
  <event>
  6     66 0.45638357E-03 0.47411231E+02 0.75467711E-02 0.11219187E+00
        2 -1    0    0  502    0 0.00000000E+00 0.00000000E+00 0.52987913E+03 0.52987922E+03 0.32000000E+00 0.0000E+00 0.9000E+01
       21 -1    0    0  503  502 0.00000000E+00 0.00000000E+00 -.14648847E+03 0.14649039E+03 0.75000000E+00 0.0000E+00 0.9000E+01
       25  1    1    2    0    0 0.93999007E+01 0.12895897E+03 0.16692249E+03 0.24537093E+03 0.12500000E+03 0.0000E+00 0.9000E+01
       24  1    1    2    0    0 0.14824334E+02 -.17413964E+03 0.15339559E+03 0.24605242E+03 0.80419002E+02 0.0000E+00 0.9000E+01
        1  1    1    2  501    0 -.29966276E+02 -.19989082E+02 0.10243995E+03 0.10858907E+03 0.32000000E+00 0.0000E+00 0.9000E+01
       21  1    1    2  503  501 0.57420410E+01 0.65169753E+02 -.39367373E+02 0.76357189E+02 0.75000000E+00 0.0000E+00 0.9000E+01
#aMCatNLO 2  0  0  2  1 0.70819126D+01 0.00000000D+00  -5  6  0 0.00000000D+00 0.00000000D+00 0.00000000D+00 0.00000000D+00 0.00000000D+00
  <mgrwgt>
 0.1040238482D+00    1    2    0
 0.210363073832866D+03 0.000000000000000D+00 0.000000000000000D+00 0.210363073832866D+03
 0.210363073832866D+03 0.000000000000000D+00 0.000000000000000D+00 -.210363073832866D+03
 0.202307454854402D+03 0.119937478683523D+02 0.158394679620193D+03 -.840129571867692D+01
 0.169996032056162D+03 0.172965766181431D+02 -.146083548814981D+03 -.281400100103579D+02
 0.484226607551674D+02 -.292903244864954D+02 -.123111308052120D+02 0.365413057290349D+02
 0.000000000000000D+00 0.000000000000000D+00 0.000000000000000D+00 -.000000000000000D+00
 0.220589699246448D+03 0.000000000000000D+00 0.000000000000000D+00 0.220589699246448D+03
 0.351880485630900D+03 0.000000000000000D+00 0.000000000000000D+00 -.351880485630900D+03
 0.180039964847429D+03 0.940020660053073D+01 0.128959076021729D+03 -.840129571867692D+01
 0.194431012910300D+03 0.148245929417059D+02 -.174139524829041D+03 -.281400100103579D+02
 0.513113129113917D+02 -.299668405637054D+02 -.199893040133323D+02 0.365413057290349D+02
 0.146687894208228D+03 0.574204102146876D+01 0.651697528206451D+02 -.131290786384453D+03
0.391913547435D-04 0.000000000000D+00 0.000000000000D+00 0.115685073611D-06 0.615084374774D-09  6 2 21 25 24 1 21 4 0.81519677D-01 0.22536748D-01 0.56091277D+05 0.56091277D+05 0.56091277D+05 0.11873688D+01  1  2  1  2  6  2       21 0.104023848234D+00 0.100000000000D+01
  </mgrwgt>
  </event>
  <event>
  5     66 -.45638357E-03 0.24142400E+02 0.75467711E-02 0.11611107E+00
        2 -1    0    0  502    0 0.00000000E+00 0.00000000E+00 0.10926662E+03 0.10926709E+03 0.32000000E+00 0.0000E+00 0.9000E+01
       21 -1    0    0  501  502 -.00000000E+00 -.00000000E+00 -.34516841E+03 0.34516922E+03 0.75000000E+00 0.0000E+00 0.9000E+01
       25  1    1    2    0    0 0.13349534E+03 -.67039276E+02 -.17413347E+03 0.26127139E+03 0.12500000E+03 0.0000E+00 0.9000E+01
       24  1    1    2    0    0 -.11034970E+03 0.73898208E+02 -.39232502E+02 0.16013871E+03 0.80419002E+02 0.0000E+00 0.9000E+01
        1  1    1    2  501    0 -.23145643E+02 -.68589324E+01 -.22535808E+02 0.33026214E+02 0.32000000E+00 0.0000E+00 0.9000E+01
#aMCatNLO 1  0  0  5  2 0.32208562D+01 0.00000000D+00  -5  6  0 0.00000000D+00 0.00000000D+00 0.00000000D+00 0.00000000D+00 0.00000000D+00
  <mgrwgt>
 -.2785141778D+00    6    2    0
 0.194205246038332D+03 0.000000000000000D+00 0.000000000000000D+00 0.194205246038332D+03
 0.194205246038332D+03 -.000000000000000D+00 -.000000000000000D+00 -.194205246038332D+03
 0.199925087752297D+03 0.133496323818586D+03 -.670389853133829D+02 -.450504904283965D+02
 0.163532364785992D+03 -.110348899302489D+03 0.738984455811533D+02 0.513591135198655D+02
 0.249530395383749D+02 -.231474245160961D+02 -.685946026777044D+01 -.630862309146892D+01
 0.000000000000000D+00 0.000000000000000D+00 0.000000000000000D+00 0.000000000000000D+00
 0.194205246038332D+03 0.000000000000000D+00 0.000000000000000D+00 0.194205246038332D+03
 0.194205246038332D+03 -.000000000000000D+00 -.000000000000000D+00 -.194205246038332D+03
 0.195926436916483D+03 0.125302650216983D+03 -.694670817298197D+02 -.472836027321471D+02
 0.166778987741232D+03 -.117185966336086D+03 0.718723631704545D+02 0.494957321775448D+02
 0.170692077584728D+02 -.164793570332342D+02 -.152475751147161D+01 -.417896635596803D+01
 0.863585966047641D+01 0.836267315233788D+01 -.880523929163198D+00 0.196683691057035D+01
0.103259025364D-03 0.000000000000D+00 0.000000000000D+00 0.405136269871D-06 0.000000000000D+00  6 2 21 25 24 1 21 2 0.16810348D-01 0.53102930D-01 0.35003359D+05 0.35003359D+05 0.35003359D+05 0.12079300D+01  1  2  2  3  6  5        1 0.210222709897D+00 0.100000000000D+01
0.102014575592D-04 0.544912847480D-05 -.208450221966D-06 0.405136269871D-06 0.000000000000D+00  6 2 21 25 24 1 21 4 0.16810348D-01 0.53102930D-01 0.35003359D+05 0.35003359D+05 0.35003359D+05 0.12079300D+01  1  2  3  3  6  5        1 0.303038172087D-01 0.100000000000D+01
0.115526880055D-04 0.000000000000D+00 0.000000000000D+00 0.405136269871D-06 0.000000000000D+00  6 2 21 25 24 1 21 4 0.16810348D-01 0.53102930D-01 0.35003359D+05 0.35003359D+05 0.35003359D+05 0.12079300D+01  1  2 15  3  6  5        1 0.343176985795D-01 0.100000000000D+01
-.186149478665D-03 0.000000000000D+00 0.000000000000D+00 0.405136269871D-06 0.000000000000D+00  6 2 21 25 24 1 21 4 0.16810348D-01 0.53102930D-01 0.35003359D+05 0.35003359D+05 0.35003359D+05 0.12079300D+01  1  2  4  3  6  5        1 -.552964097751D+00 0.100000000000D+01
0.331063052903D-06 0.000000000000D+00 0.000000000000D+00 0.405136269871D-06 0.000000000000D+00  6 2 21 25 24 1 21 4 0.16810348D-01 0.53102930D-01 0.35003359D+05 0.35003359D+05 0.35003359D+05 0.12079300D+01  1  2  5  3  6  5        1 0.983435374947D-03 0.100000000000D+01
-.463801870435D-06 0.000000000000D+00 0.000000000000D+00 0.405136269871D-06 0.000000000000D+00  6 2 21 25 24 1 21 4 0.16810348D-01 0.53102930D-01 0.35003359D+05 0.35003359D+05 0.35003359D+05 0.12079300D+01  1  2  6  3  6  5        1 -.137774107486D-02 0.100000000000D+01
  </mgrwgt>
  </event>
  <event>
  5     66 0.45638357E-03 0.51097774E+02 0.75467711E-02 0.11506725E+00
        2 -1    0    0  502    0 0.00000000E+00 0.00000000E+00 0.28918577E+04 0.28918577E+04 0.32000000E+00 0.0000E+00 0.9000E+01
       21 -1    0    0  501  502 0.00000000E+00 0.00000000E+00 -.18233055E+02 0.18248473E+02 0.75000000E+00 0.0000E+00 0.9000E+01
       25  1    1    2    0    0 0.91397941E+02 0.28168560E+02 0.21041966E+04 0.21100748E+04 0.12500000E+03 0.0000E+00 0.9000E+01
       24  1    1    2    0    0 -.10635319E+03 -.77171926E+02 0.67744718E+03 0.69474341E+03 0.80419002E+02 0.0000E+00 0.9000E+01
        1  1    1    2  501    0 0.14955251E+02 0.49003366E+02 0.91980805E+02 0.10528799E+03 0.32000000E+00 0.0000E+00 0.9000E+01
#aMCatNLO 1  0  0  2  1 0.30562280D+02 0.00000000D+00  -5  6  0 0.00000000D+00 0.00000000D+00 0.00000000D+00 0.00000000D+00 0.00000000D+00
  <mgrwgt>
 0.1347688901D+00   23    2    0
 0.229673377008194D+03 0.000000000000000D+00 0.000000000000000D+00 0.229673377008194D+03
 0.229673377008194D+03 0.000000000000000D+00 0.000000000000000D+00 -.229673377008194D+03
 0.204356257266708D+03 0.913979003722891D+02 0.281684274647081D+02 0.130343559049765D+03
 0.163380260992541D+03 -.106353224214838D+03 -.771720326995773D+02 -.544000256961720D+02
 0.916102357571393D+02 0.149553238425486D+02 0.490036052348691D+02 -.759435333535926D+02
 0.000000000000000D+00 -.000000000000000D+00 -.000000000000000D+00 -.000000000000000D+00
 0.237544989144539D+03 0.000000000000000D+00 0.000000000000000D+00 0.237544989144539D+03
 0.261892085025084D+03 0.000000000000000D+00 0.000000000000000D+00 -.261892085025084D+03
 0.210473175843348D+03 0.101276808158537D+03 0.377825686401069D+02 0.130343559049765D+03
 0.155089362139196D+03 -.987690660319130D+02 -.697911390780482D+02 -.544000256961720D+02
 0.947998121365757D+02 0.193945644715605D+02 0.533238688755823D+02 -.759435333535926D+02
 0.390747240505041D+02 -.219023065981849D+02 -.213152984376410D+02 -.243470958805450D+02
0.790274904947D-05 0.000000000000D+00 0.000000000000D+00 0.332794327606D-06 0.000000000000D+00  6 2 21 25 24 1 21 2 0.44490237D+00 0.28062728D-02 0.32884895D+05 0.32884895D+05 0.32884895D+05 0.12107355D+01  1  2  2  2  6  2       21 0.261023596058D-01 0.100000000000D+01
0.240308727535D-06 0.417039524854D-06 -.159533734479D-07 0.332794327606D-06 0.000000000000D+00  6 2 21 25 24 1 21 4 0.44490237D+00 0.28062728D-02 0.32884895D+05 0.32884895D+05 0.32884895D+05 0.12107355D+01  1  2  3  2  6  2       21 0.116350879372D-02 0.100000000000D+01
0.756027891973D-06 0.000000000000D+00 0.000000000000D+00 0.332794327606D-06 0.000000000000D+00  6 2 21 25 24 1 21 4 0.44490237D+00 0.28062728D-02 0.32884895D+05 0.32884895D+05 0.32884895D+05 0.12107355D+01  1  2 15  2  6  2       21 0.366047920783D-02 0.100000000000D+01
0.201027596796D-04 0.000000000000D+00 0.000000000000D+00 0.328275870033D-06 0.000000000000D+00  6 2 21 25 24 1 21 4 0.44490237D+00 0.32433786D-02 0.39560226D+05 0.39560226D+05 0.39560226D+05 0.12024881D+01  1  2 12  2  6  2       21 0.739553610528D-01 0.100000000000D+01
-.105615518667D-04 0.000000000000D+00 0.000000000000D+00 0.332794327606D-06 0.000000000000D+00  6 2 21 25 24 1 21 4 0.44490237D+00 0.28062728D-02 0.32884895D+05 0.32884895D+05 0.32884895D+05 0.12107355D+01  1  2  4  2  6  2       21 -.511361305857D-01 0.100000000000D+01
-.724090775377D-04 0.000000000000D+00 -.153881620820D-04 0.332794327606D-06 0.000000000000D+00  6 2 21 25 24 1 21 4 0.44490237D+00 0.33474699D-02 0.32884895D+05 0.32884895D+05 0.32884895D+05 0.12107355D+01  1  2  5  2  6  2       21 -.261870210028D+00 0.100000000000D+01
0.713691190956D-04 0.000000000000D+00 0.144716649341D-04 0.332794327606D-06 0.000000000000D+00  6 2 21 25 24 1 21 4 0.44490237D+00 0.28062728D-02 0.32884895D+05 0.32884895D+05 0.32884895D+05 0.12107355D+01  1  2  6  2  6  2       21 0.345549654060D+00 0.100000000000D+01
0.785489638550D-06 0.000000000000D+00 0.000000000000D+00 0.328275870033D-06 0.000000000000D+00  6 2 -1 25 24 1 -1 4 0.44490237D+00 0.32433786D-02 0.39560226D+05 0.39560226D+05 0.39560226D+05 0.12024881D+01  1  2 12  5  6  2       21 0.153747652974D-03 0.100000000000D+01
-.274948691531D-05 0.000000000000D+00 -.759144199072D-06 0.332794327606D-06 0.000000000000D+00  6 2 -1 25 24 1 -1 4 0.44490237D+00 0.33474699D-02 0.32884895D+05 0.32884895D+05 0.32884895D+05 0.12107355D+01  1  2  5  5  6  2       21 -.530380977775D-03 0.100000000000D+01
0.785489638550D-06 0.000000000000D+00 0.000000000000D+00 0.328275870033D-06 0.000000000000D+00  6 2 1 25 24 1 1 4 0.44490237D+00 0.32433786D-02 0.39560226D+05 0.39560226D+05 0.39560226D+05 0.12024881D+01  1  2 12  6  6  2       21 0.166284009140D-03 0.100000000000D+01
-.274948691531D-05 0.000000000000D+00 -.759144199072D-06 0.332794327606D-06 0.000000000000D+00  6 2 1 25 24 1 1 4 0.44490237D+00 0.33474699D-02 0.32884895D+05 0.32884895D+05 0.32884895D+05 0.12107355D+01  1  2  5  6  6  2       21 -.575157687899D-03 0.100000000000D+01
0.785489638550D-06 0.000000000000D+00 0.000000000000D+00 0.328275870033D-06 0.000000000000D+00  6 2 -2 25 24 1 -2 4 0.44490237D+00 0.32433786D-02 0.39560226D+05 0.39560226D+05 0.39560226D+05 0.12024881D+01  1  2 12  7  6  2       21 0.151510902891D-03 0.100000000000D+01
-.274948691531D-05 0.000000000000D+00 -.759144199072D-06 0.332794327606D-06 0.000000000000D+00  6 2 -2 25 24 1 -2 4 0.44490237D+00 0.33474699D-02 0.32884895D+05 0.32884895D+05 0.32884895D+05 0.12107355D+01  1  2  5  7  6  2       21 -.522394513771D-03 0.100000000000D+01
0.785489638550D-06 0.000000000000D+00 0.000000000000D+00 0.328275870033D-06 0.000000000000D+00  6 2 2 25 24 1 2 4 0.44490237D+00 0.32433786D-02 0.39560226D+05 0.39560226D+05 0.39560226D+05 0.12024881D+01  1  2 12  8  6  2       21 0.174803064118D-03 0.100000000000D+01
-.274948691531D-05 0.000000000000D+00 -.759144199072D-06 0.332794327606D-06 0.000000000000D+00  6 2 2 25 24 1 2 4 0.44490237D+00 0.33474699D-02 0.32884895D+05 0.32884895D+05 0.32884895D+05 0.12107355D+01  1  2  5  8  6  2       21 -.605544536673D-03 0.100000000000D+01
0.785489638550D-06 0.000000000000D+00 0.000000000000D+00 0.328275870033D-06 0.000000000000D+00  6 2 -3 25 24 1 -3 4 0.44490237D+00 0.32433786D-02 0.39560226D+05 0.39560226D+05 0.39560226D+05 0.12024881D+01  1  2 12  9  6  2       21 0.115693948139D-03 0.100000000000D+01
0.785489638550D-06 0.000000000000D+00 0.000000000000D+00 0.328275870033D-06 0.000000000000D+00  6 2 -4 25 24 1 -4 4 0.44490237D+00 0.32433786D-02 0.39560226D+05 0.39560226D+05 0.39560226D+05 0.12024881D+01  1  2 12  9  6  2       21 0.104822967768D-03 0.100000000000D+01
-.274948691531D-05 0.000000000000D+00 -.759144199072D-06 0.332794327606D-06 0.000000000000D+00  6 2 -3 25 24 1 -3 4 0.44490237D+00 0.33474699D-02 0.32884895D+05 0.32884895D+05 0.32884895D+05 0.12107355D+01  1  2  5  9  6  2       21 -.396551631507D-03 0.100000000000D+01
-.274948691531D-05 0.000000000000D+00 -.759144199072D-06 0.332794327606D-06 0.000000000000D+00  6 2 -4 25 24 1 -4 4 0.44490237D+00 0.33474699D-02 0.32884895D+05 0.32884895D+05 0.32884895D+05 0.12107355D+01  1  2  5  9  6  2       21 -.358476075743D-03 0.100000000000D+01
0.785489638550D-06 0.000000000000D+00 0.000000000000D+00 0.328275870033D-06 0.000000000000D+00  6 2 3 25 24 1 3 4 0.44490237D+00 0.32433786D-02 0.39560226D+05 0.39560226D+05 0.39560226D+05 0.12024881D+01  1  2 12 10  6  2       21 0.115685439972D-03 0.100000000000D+01
0.785489638550D-06 0.000000000000D+00 0.000000000000D+00 0.328275870033D-06 0.000000000000D+00  6 2 4 25 24 1 4 4 0.44490237D+00 0.32433786D-02 0.39560226D+05 0.39560226D+05 0.39560226D+05 0.12024881D+01  1  2 12 10  6  2       21 0.104822967768D-03 0.100000000000D+01
-.274948691531D-05 0.000000000000D+00 -.759144199072D-06 0.332794327606D-06 0.000000000000D+00  6 2 3 25 24 1 3 4 0.44490237D+00 0.33474699D-02 0.32884895D+05 0.32884895D+05 0.32884895D+05 0.12107355D+01  1  2  5 10  6  2       21 -.396521487910D-03 0.100000000000D+01
-.274948691531D-05 0.000000000000D+00 -.759144199072D-06 0.332794327606D-06 0.000000000000D+00  6 2 4 25 24 1 4 4 0.44490237D+00 0.33474699D-02 0.32884895D+05 0.32884895D+05 0.32884895D+05 0.12107355D+01  1  2  5 10  6  2       21 -.358476075743D-03 0.100000000000D+01
  </mgrwgt>
  </event>
  <event>
  5     66 0.45638357E-03 0.78555061E+02 0.75467711E-02 0.99284764E-01
        2 -1    0    0  502    0 0.00000000E+00 0.00000000E+00 0.61954304E+03 0.61954312E+03 0.32000000E+00 0.0000E+00 0.9000E+01
       21 -1    0    0  501  502 0.00000000E+00 0.00000000E+00 -.57374997E+03 0.57375046E+03 0.75000000E+00 0.0000E+00 0.9000E+01
       25  1    1    2    0    0 0.36965856E+03 0.32273116E+03 0.14681638E+03 0.52724084E+03 0.12500000E+03 0.0000E+00 0.9000E+01
       24  1    1    2    0    0 -.41707702E+03 -.38535939E+03 -.11836923E+03 0.58560532E+03 0.80419002E+02 0.0000E+00 0.9000E+01
        1  1    1    2  501    0 0.47418457E+02 0.62628229E+02 0.17345911E+02 0.80447425E+02 0.32000000E+00 0.0000E+00 0.9000E+01
#aMCatNLO 1  0  0  1  2 0.19411015D+02 0.00000000D+00  -5  6  0 0.00000000D+00 0.00000000D+00 0.00000000D+00 0.00000000D+00 0.00000000D+00
  <mgrwgt>
 0.2667865128D+00    9    2    0
 0.596207297347372D+03 0.000000000000000D+00 0.000000000000000D+00 0.596207297347372D+03
 0.596207297347372D+03 0.000000000000000D+00 0.000000000000000D+00 -.596207297347372D+03
 0.521990943503054D+03 0.369658391071916D+03 0.322730942244204D+03 0.126676587921759D+03
 0.590583113718492D+03 -.417077203864408D+03 -.385359640433852D+03 -.140945917984159D+03
 0.798405374731981D+02 0.474188127924915D+02 0.626286981896484D+02 0.142693300623995D+02
 0.000000000000000D+00 -.000000000000000D+00 -.000000000000000D+00 0.000000000000000D+00
 0.673810201465896D+03 0.000000000000000D+00 0.000000000000000D+00 0.673810201465896D+03
 0.597501357548869D+03 0.000000000000000D+00 0.000000000000000D+00 -.597501357548869D+03
 0.530035740034078D+03 0.376414481286516D+03 0.327990954240779D+03 0.126676587921759D+03
 0.581450322825342D+03 -.409550433150576D+03 -.379499608522989D+03 -.140945917984159D+03
 0.810865148710771D+02 0.484522824759333D+02 0.634333148777522D+02 0.142693300623995D+02
 0.787389812842683D+02 -.153163306118728D+02 -.119246605955427D+02 0.763088439170275D+02
0.428133542732D-03 0.000000000000D+00 0.000000000000D+00 0.201328449476D-07 0.000000000000D+00  6 2 21 25 24 1 21 2 0.95314358D-01 0.88269270D-01 0.33550719D+06 0.33550719D+06 0.33550719D+06 0.11181619D+01  1  2  2  1  6  1        2 0.315301373948D-01 0.100000000000D+01
0.289930609840D-04 0.225932277639D-04 -.864278272035D-06 0.201328449476D-07 0.000000000000D+00  6 2 21 25 24 1 21 4 0.95314358D-01 0.88269270D-01 0.33550719D+06 0.33550719D+06 0.33550719D+06 0.11181619D+01  1  2  3  1  6  1        2 0.266962362351D-02 0.100000000000D+01
0.406978291147D-04 0.000000000000D+00 0.000000000000D+00 0.201328449476D-07 0.000000000000D+00  6 2 21 25 24 1 21 4 0.95314358D-01 0.88269270D-01 0.33550719D+06 0.33550719D+06 0.33550719D+06 0.11181619D+01  1  2 15  1  6  1        2 0.374737548719D-02 0.100000000000D+01
0.395701898065D-01 0.000000000000D+00 0.000000000000D+00 0.200903850757D-07 0.000000000000D+00  6 2 21 25 24 1 21 4 0.10781595D+00 0.88269270D-01 0.34693070D+06 0.34693070D+06 0.34693070D+06 0.11169822D+01  1  2 12  1  6  1        2 0.311168424672D+01 0.100000000000D+01
-.372495696256D-01 0.000000000000D+00 0.000000000000D+00 0.201328449476D-07 0.000000000000D+00  6 2 21 25 24 1 21 4 0.95314358D-01 0.88269270D-01 0.33550719D+06 0.33550719D+06 0.33550719D+06 0.11181619D+01  1  2  4  1  6  1        2 -.342986658404D+01 0.100000000000D+01
-.439406776671D-01 0.000000000000D+00 -.136400182222D-02 0.201328449476D-07 0.000000000000D+00  6 2 21 25 24 1 21 4 0.10782351D+00 0.88269270D-01 0.33550719D+06 0.33550719D+06 0.33550719D+06 0.11181619D+01  1  2  5  1  6  1        2 -.347675687893D+01 0.100000000000D+01
0.437858452800D-01 0.000000000000D+00 0.135369617449D-02 0.201328449476D-07 0.000000000000D+00  6 2 21 25 24 1 21 4 0.95314358D-01 0.88269270D-01 0.33550719D+06 0.33550719D+06 0.33550719D+06 0.11181619D+01  1  2  6  1  6  1        2 0.403171389869D+01 0.100000000000D+01
0.767794180408D-03 0.000000000000D+00 0.000000000000D+00 0.200903850757D-07 0.000000000000D+00  6 21 21 25 24 1 -2 4 0.10781595D+00 0.88269270D-01 0.34693070D+06 0.34693070D+06 0.34693070D+06 0.11169822D+01  1  2 12  4  6  1        2 0.718417284080D-01 0.100000000000D+01
-.846369990500D-03 0.000000000000D+00 -.264788112108D-04 0.201328449476D-07 0.000000000000D+00  6 21 21 25 24 1 -2 4 0.10782351D+00 0.88269270D-01 0.33550719D+06 0.33550719D+06 0.33550719D+06 0.11181619D+01  1  2  5  4  6  1        2 -.797770345530D-01 0.100000000000D+01
  </mgrwgt>
  </event>
  <event>
  5     66 0.45638357E-03 0.71937570E+02 0.75467711E-02 0.11907599E+00
        2 -1    0    0  502    0 0.00000000E+00 0.00000000E+00 0.16480760E+04 0.16480760E+04 0.32000000E+00 0.0000E+00 0.9000E+01
       21 -1    0    0  501  502 0.00000000E+00 0.00000000E+00 -.14887030E+02 0.14905910E+02 0.75000000E+00 0.0000E+00 0.9000E+01
       25  1    1    2    0    0 -.44606154E+02 0.58496760E+02 0.91070362E+03 0.92218093E+03 0.12500000E+03 0.0000E+00 0.9000E+01
       24  1    1    2    0    0 0.36860786E+02 0.13022080E+02 0.33701700E+03 0.34867745E+03 0.80419002E+02 0.0000E+00 0.9000E+01
        1  1    1    2  501    0 0.77453672E+01 -.71518840E+02 0.38546833E+03 0.39212354E+03 0.32000000E+00 0.0000E+00 0.9000E+01
#aMCatNLO 1  0  0  2  1 0.98732365D+01 0.00000000D+00  -5  6  0 0.00000000D+00 0.00000000D+00 0.00000000D+00 0.00000000D+00 0.00000000D+00
  <mgrwgt>
 0.1371577652D+00   32    2    0
 0.156686569888451D+03 0.000000000000000D+00 0.000000000000000D+00 0.156686569888451D+03
 0.156686569888451D+03 0.000000000000000D+00 0.000000000000000D+00 -.156686569888451D+03
 0.147489240574170D+03 -.446061896244620D+02 0.584970929433138D+02 0.267666592893718D+02
 0.939195611951619D+02 0.368607634498546D+02 0.130222918581995D+02 -.287292891205987D+02
 0.719643380075691D+02 0.774542617460742D+01 -.715193848015134D+02 0.196262983122693D+01
 0.000000000000000D+00 0.000000000000000D+00 0.000000000000000D+00 -.000000000000000D+00
 0.161226387254591D+03 0.000000000000000D+00 0.000000000000000D+00 0.161226387254591D+03
 0.162225954278207D+03 0.000000000000000D+00 0.000000000000000D+00 -.162225954278207D+03
 0.147957891990128D+03 -.487334195233459D+02 0.563483591084117D+02 0.267666592893718D+02
 0.927465959485295D+02 0.342531424579483D+02 0.116647024844102D+02 -.287292891205987D+02
 0.728241479668619D+02 0.572281264256460D+01 -.725724054079997D+02 0.196262983122693D+01
 0.992370562727894D+01 0.875746442283300D+01 0.455934381517785D+01 -.999567023616529D+00
0.990838003752D-06 0.000000000000D+00 0.000000000000D+00 0.274153491510D-06 0.000000000000D+00  6 2 21 25 24 1 21 2 0.25355161D+00 0.22917670D-02 0.23469515D+05 0.23469515D+05 0.23469515D+05 0.12262501D+01  1  2  2  2  6  2       21 0.215921733996D-01 0.100000000000D+01
-.706508558156D-07 0.522879579885D-07 -.200021645649D-08 0.274153491510D-06 0.000000000000D+00  6 2 21 25 24 1 21 4 0.25355161D+00 0.22917670D-02 0.23469515D+05 0.23469515D+05 0.23469515D+05 0.12262501D+01  1  2  3  2  6  2       21 -.231509722273D-02 0.100000000000D+01
0.105830636509D-06 0.000000000000D+00 0.000000000000D+00 0.274153491510D-06 0.000000000000D+00  6 2 21 25 24 1 21 4 0.25355161D+00 0.22917670D-02 0.23469515D+05 0.23469515D+05 0.23469515D+05 0.12262501D+01  1  2 15  2  6  2       21 0.346787324561D-02 0.100000000000D+01
0.229231116347D-05 0.000000000000D+00 0.000000000000D+00 0.272815934920D-06 0.000000000000D+00  6 2 21 25 24 1 21 4 0.25355161D+00 0.24049294D-02 0.25022865D+05 0.25022865D+05 0.25022865D+05 0.12232551D+01  1  2 12  2  6  2       21 0.687561916316D-01 0.100000000000D+01
-.130030539745D-05 0.000000000000D+00 0.000000000000D+00 0.274153491510D-06 0.000000000000D+00  6 2 21 25 24 1 21 4 0.25355161D+00 0.22917670D-02 0.23469515D+05 0.23469515D+05 0.23469515D+05 0.12262501D+01  1  2  4  2  6  2       21 -.426085909305D-01 0.100000000000D+01
-.264595355680D-04 0.000000000000D+00 -.457765584756D-05 0.274153491510D-06 0.000000000000D+00  6 2 21 25 24 1 21 4 0.25355161D+00 0.24502766D-02 0.23469515D+05 0.23469515D+05 0.23469515D+05 0.12262501D+01  1  2  5  2  6  2       21 -.777452255566D+00 0.100000000000D+01
0.265246182909D-04 0.000000000000D+00 0.453696551801D-05 0.274153491510D-06 0.000000000000D+00  6 2 21 25 24 1 21 4 0.25355161D+00 0.22917670D-02 0.23469515D+05 0.23469515D+05 0.23469515D+05 0.12262501D+01  1  2  6  2  6  2       21 0.869162438735D+00 0.100000000000D+01
0.591813664676D-13 0.000000000000D+00 0.000000000000D+00 0.274153491510D-06 0.341058709230D-07  6 2 21 25 24 1 21 4 0.26089798D+00 0.23727885D-02 0.25022865D+05 0.25022865D+05 0.25022865D+05 0.12232551D+01  1  2 11  2  6  2       21 0.171433548787D-08 0.100000000000D+01
0.367881468127D-07 0.000000000000D+00 0.000000000000D+00 0.272815934920D-06 0.000000000000D+00  6 2 -1 25 24 1 -1 4 0.25355161D+00 0.24049294D-02 0.25022865D+05 0.25022865D+05 0.25022865D+05 0.12232551D+01  1  2 12  5  6  2       21 0.551126469350D-04 0.100000000000D+01
-.368883964390D-06 0.000000000000D+00 -.748679963602D-07 0.274153491510D-06 0.000000000000D+00  6 2 -1 25 24 1 -1 4 0.25355161D+00 0.24502766D-02 0.23469515D+05 0.23469515D+05 0.23469515D+05 0.12262501D+01  1  2  5  5  6  2       21 -.542676608719D-03 0.100000000000D+01
0.845898704828D-14 0.000000000000D+00 0.000000000000D+00 0.274153491510D-06 0.378384427007D-08  6 2 -1 25 24 1 -1 4 0.26089798D+00 0.23727885D-02 0.25022865D+05 0.25022865D+05 0.25022865D+05 0.12232551D+01  1  2 11  5  6  2       21 0.122093033156D-10 0.100000000000D+01
0.367881468127D-07 0.000000000000D+00 0.000000000000D+00 0.272815934920D-06 0.000000000000D+00  6 2 1 25 24 1 1 4 0.25355161D+00 0.24049294D-02 0.25022865D+05 0.25022865D+05 0.25022865D+05 0.12232551D+01  1  2 12  6  6  2       21 0.584713399338D-04 0.100000000000D+01
-.368883964390D-06 0.000000000000D+00 -.748679963602D-07 0.274153491510D-06 0.000000000000D+00  6 2 1 25 24 1 1 4 0.25355161D+00 0.24502766D-02 0.23469515D+05 0.23469515D+05 0.23469515D+05 0.12262501D+01  1  2  5  6  6  2       21 -.576416038887D-03 0.100000000000D+01
0.227016640883D-14 0.000000000000D+00 0.000000000000D+00 0.274153491510D-06 0.193802770465D-09  6 2 1 25 24 1 1 4 0.26089798D+00 0.23727885D-02 0.25022865D+05 0.25022865D+05 0.25022865D+05 0.12232551D+01  1  2 11  6  6  2       21 0.347367445328D-11 0.100000000000D+01
0.367881468127D-07 0.000000000000D+00 0.000000000000D+00 0.272815934920D-06 0.000000000000D+00  6 2 -2 25 24 1 -2 4 0.25355161D+00 0.24049294D-02 0.25022865D+05 0.25022865D+05 0.25022865D+05 0.12232551D+01  1  2 12  7  6  2       21 0.545099371629D-04 0.100000000000D+01
-.368883964390D-06 0.000000000000D+00 -.748679963602D-07 0.274153491510D-06 0.000000000000D+00  6 2 -2 25 24 1 -2 4 0.25355161D+00 0.24502766D-02 0.23469515D+05 0.23469515D+05 0.23469515D+05 0.12262501D+01  1  2  5  7  6  2       21 -.536621649647D-03 0.100000000000D+01
0.230035296202D-14 0.000000000000D+00 0.000000000000D+00 0.274153491510D-06 0.377210777453D-09  6 2 -2 25 24 1 -2 4 0.26089798D+00 0.23727885D-02 0.25022865D+05 0.25022865D+05 0.25022865D+05 0.12232551D+01  1  2 11  7  6  2       21 0.328439465764D-11 0.100000000000D+01
0.367881468127D-07 0.000000000000D+00 0.000000000000D+00 0.272815934920D-06 0.000000000000D+00  6 2 2 25 24 1 2 4 0.25355161D+00 0.24049294D-02 0.25022865D+05 0.25022865D+05 0.25022865D+05 0.12232551D+01  1  2 12  8  6  2       21 0.607703794451D-04 0.100000000000D+01
-.368883964390D-06 0.000000000000D+00 -.748679963602D-07 0.274153491510D-06 0.000000000000D+00  6 2 2 25 24 1 2 4 0.25355161D+00 0.24502766D-02 0.23469515D+05 0.23469515D+05 0.23469515D+05 0.12262501D+01  1  2  5  8  6  2       21 -.599495549609D-03 0.100000000000D+01
0.240662134977D-14 0.000000000000D+00 0.000000000000D+00 0.274153491510D-06 0.688769785154D-09  6 2 2 25 24 1 2 4 0.26089798D+00 0.23727885D-02 0.25022865D+05 0.25022865D+05 0.25022865D+05 0.12232551D+01  1  2 11  8  6  2       21 0.382549481117D-11 0.100000000000D+01
0.367881468127D-07 0.000000000000D+00 0.000000000000D+00 0.272815934920D-06 0.000000000000D+00  6 2 -3 25 24 1 -3 4 0.25355161D+00 0.24049294D-02 0.25022865D+05 0.25022865D+05 0.25022865D+05 0.12232551D+01  1  2 12  9  6  2       21 0.421815470717D-04 0.100000000000D+01
0.367881468127D-07 0.000000000000D+00 0.000000000000D+00 0.272815934920D-06 0.000000000000D+00  6 2 -4 25 24 1 -4 4 0.25355161D+00 0.24049294D-02 0.25022865D+05 0.25022865D+05 0.25022865D+05 0.12232551D+01  1  2 12  9  6  2       21 0.382950703618D-04 0.100000000000D+01
-.368883964390D-06 0.000000000000D+00 -.748679963602D-07 0.274153491510D-06 0.000000000000D+00  6 2 -3 25 24 1 -3 4 0.25355161D+00 0.24502766D-02 0.23469515D+05 0.23469515D+05 0.23469515D+05 0.12262501D+01  1  2  5  9  6  2       21 -.414159217415D-03 0.100000000000D+01
-.368883964390D-06 0.000000000000D+00 -.748679963602D-07 0.274153491510D-06 0.000000000000D+00  6 2 -4 25 24 1 -4 4 0.25355161D+00 0.24502766D-02 0.23469515D+05 0.23469515D+05 0.23469515D+05 0.12262501D+01  1  2  5  9  6  2       21 -.375641534671D-03 0.100000000000D+01
0.228176319136D-14 0.000000000000D+00 0.000000000000D+00 0.274153491510D-06 0.374162435760D-09  6 2 -3 25 24 1 -3 4 0.26089798D+00 0.23727885D-02 0.25022865D+05 0.25022865D+05 0.25022865D+05 0.12232551D+01  1  2 11  9  6  2       21 0.252349166155D-11 0.100000000000D+01
0.228176319136D-14 0.000000000000D+00 0.000000000000D+00 0.274153491510D-06 0.374162435760D-09  6 2 -4 25 24 1 -4 4 0.26089798D+00 0.23727885D-02 0.25022865D+05 0.25022865D+05 0.25022865D+05 0.12232551D+01  1  2 11  9  6  2       21 0.229156782541D-11 0.100000000000D+01
0.367881468127D-07 0.000000000000D+00 0.000000000000D+00 0.272815934920D-06 0.000000000000D+00  6 2 3 25 24 1 3 4 0.25355161D+00 0.24049294D-02 0.25022865D+05 0.25022865D+05 0.25022865D+05 0.12232551D+01  1  2 12 10  6  2       21 0.421788795446D-04 0.100000000000D+01
0.367881468127D-07 0.000000000000D+00 0.000000000000D+00 0.272815934920D-06 0.000000000000D+00  6 2 4 25 24 1 4 4 0.25355161D+00 0.24049294D-02 0.25022865D+05 0.25022865D+05 0.25022865D+05 0.12232551D+01  1  2 12 10  6  2       21 0.382950703618D-04 0.100000000000D+01
-.368883964390D-06 0.000000000000D+00 -.748679963602D-07 0.274153491510D-06 0.000000000000D+00  6 2 3 25 24 1 3 4 0.25355161D+00 0.24502766D-02 0.23469515D+05 0.23469515D+05 0.23469515D+05 0.12262501D+01  1  2  5 10  6  2       21 -.414132570522D-03 0.100000000000D+01
-.368883964390D-06 0.000000000000D+00 -.748679963602D-07 0.274153491510D-06 0.000000000000D+00  6 2 4 25 24 1 4 4 0.25355161D+00 0.24502766D-02 0.23469515D+05 0.23469515D+05 0.23469515D+05 0.12262501D+01  1  2  5 10  6  2       21 -.375641534671D-03 0.100000000000D+01
0.228176319136D-14 0.000000000000D+00 0.000000000000D+00 0.274153491510D-06 0.374162435760D-09  6 2 3 25 24 1 3 4 0.26089798D+00 0.23727885D-02 0.25022865D+05 0.25022865D+05 0.25022865D+05 0.12232551D+01  1  2 11 10  6  2       21 0.252333346057D-11 0.100000000000D+01
0.228176319136D-14 0.000000000000D+00 0.000000000000D+00 0.274153491510D-06 0.374162435760D-09  6 2 4 25 24 1 4 4 0.26089798D+00 0.23727885D-02 0.25022865D+05 0.25022865D+05 0.25022865D+05 0.12232551D+01  1  2 11 10  6  2       21 0.229156782541D-11 0.100000000000D+01
  </mgrwgt>
  </event>
  <event>
  6     66 0.45638357E-03 0.35265523E+02 0.75467711E-02 0.11444627E+00
        2 -1    0    0  502    0 0.00000000E+00 0.00000000E+00 0.15885478E+04 0.15885478E+04 0.32000000E+00 0.0000E+00 0.9000E+01
       21 -1    0    0  501  502 0.00000000E+00 0.00000000E+00 -.39999019E+02 0.40006050E+02 0.75000000E+00 0.0000E+00 0.9000E+01
       25  1    1    2    0    0 0.83662303E+02 0.69720649E+02 0.85851480E+03 0.87437579E+03 0.12500000E+03 0.0000E+00 0.9000E+01
       24  1    1    2    0    0 -.12672405E+03 -.52355350E+02 0.62436760E+03 0.64428424E+03 0.80419002E+02 0.0000E+00 0.9000E+01
        1  1    1    2  503    0 -.68375351E+01 -.34637535E+02 0.26385783E+02 0.44077462E+02 0.32000000E+00 0.0000E+00 0.9000E+01
       21  1    1    2  501  503 0.49899281E+02 0.17272235E+02 0.39280565E+02 0.65816363E+02 0.75000000E+00 0.0000E+00 0.9000E+01
#aMCatNLO 2  0  0  5  2 0.36330112D+02 0.00000000D+00  -5  6  0 0.00000000D+00 0.00000000D+00 0.00000000D+00 0.00000000D+00 0.00000000D+00
  <mgrwgt>
 0.4271465900D-01    1    2    0
 0.252083526695242D+03 0.000000000000000D+00 0.000000000000000D+00 0.252083526695242D+03
 0.252083526695242D+03 -.000000000000000D+00 -.000000000000000D+00 -.252083526695242D+03
 0.190154257518168D+03 0.812595032103252D+02 0.706896147355710D+02 0.945172638137253D+02
 0.166291693344889D+03 -.128821947058919D+03 -.515093409420849D+02 0.440159638404192D+02
 0.147721102527428D+03 0.475624438485940D+02 -.191802737934861D+02 -.138533227654144D+03
 0.000000000000000D+00 0.000000000000000D+00 0.000000000000000D+00 0.000000000000000D+00
 0.252083526695242D+03 0.000000000000000D+00 0.000000000000000D+00 0.252083526695242D+03
 0.252083526695242D+03 -.000000000000000D+00 -.000000000000000D+00 -.252083526695242D+03
 0.187478378369613D+03 0.836541155745641D+02 0.697239511350719D+02 0.875425721672120D+02
 0.163423357966175D+03 -.126731185658785D+03 -.523524720524014D+02 0.379262867427216D+02
 0.608568597758745D+02 -.692727686975866D+01 -.344806842933987D+02 -.496654067496595D+02
 0.924084572788212D+02 0.500043469539794D+02 0.171092052107282D+02 -.758034521602741D+02
0.696345620079D-05 0.000000000000D+00 0.000000000000D+00 0.921939429505D-06 0.356487190646D-08  6 2 21 25 24 1 21 4 0.24439251D+00 0.61542386D-02 0.42593928D+05 0.42593928D+05 0.42593928D+05 0.11992390D+01  1  2  1  3  6  5        1 0.427146589993D-01 0.100000000000D+01
  </mgrwgt>
  </event>
  <event>
  6     66 0.45638357E-03 0.15850575E+02 0.75467711E-02 0.11930668E+00
        2 -1    0    0  502    0 0.00000000E+00 0.00000000E+00 0.94149138E+03 0.94149144E+03 0.32000000E+00 0.0000E+00 0.9000E+01
       21 -1    0    0  501  502 0.00000000E+00 0.00000000E+00 -.32232988E+02 0.32241713E+02 0.75000000E+00 0.0000E+00 0.9000E+01
       25  1    1    2    0    0 0.80460628E+02 -.62424556E+02 0.27923962E+03 0.32244457E+03 0.12500000E+03 0.0000E+00 0.9000E+01
       24  1    1    2    0    0 -.69356516E+02 0.43726006E+02 0.34211316E+03 0.36087522E+03 0.80419002E+02 0.0000E+00 0.9000E+01
        1  1    1    2  503    0 -.20695669E+02 0.92436757E+01 0.22113525E+03 0.22229408E+03 0.32000000E+00 0.0000E+00 0.9000E+01
       21  1    1    2  501  503 0.95915581E+01 0.94548745E+01 0.66770363E+02 0.68119281E+02 0.75000000E+00 0.0000E+00 0.9000E+01
#aMCatNLO 2  0  0  5  2 0.13253030D+02 0.00000000D+00  -5  6  0 0.00000000D+00 0.00000000D+00 0.00000000D+00 0.00000000D+00 0.00000000D+00
  <mgrwgt>
 0.1626775218D+00    3    2    0
 0.174216402692084D+03 0.000000000000000D+00 0.000000000000000D+00 0.174216402692084D+03
 0.174216402692084D+03 -.000000000000000D+00 -.000000000000000D+00 -.174216402692084D+03
 0.174890179307432D+03 0.814109208344015D+02 -.640247842794362D+02 -.650742943492455D+02
 0.114662261483371D+03 -.687260917500046D+02 0.426644154908876D+02 0.116914591775872D+02
 0.588803645933651D+02 -.126848290843969D+02 0.213603687885486D+02 0.533828351716583D+02
 0.000000000000000D+00 0.000000000000000D+00 0.000000000000000D+00 0.000000000000000D+00
 0.174216402692084D+03 0.000000000000000D+00 0.000000000000000D+00 0.174216402692084D+03
 0.174216402692084D+03 -.000000000000000D+00 -.000000000000000D+00 -.174216402692084D+03
 0.172389617009063D+03 0.804519010384138D+02 -.624098617304982D+02 -.610383554055712D+02
 0.115748240421684D+03 -.693623747554491D+02 0.437358717604008D+02 0.143691926004168D+02
 0.439427120845587D+02 -.207735275418769D+02 0.907360997866065D+01 0.376442837728181D+02
 0.163522358688619D+02 0.968400125891223D+01 0.960037999143677D+01 0.902487903233623D+01
-.548857232309D-05 0.000000000000D+00 0.000000000000D+00 0.142248754452D-06 0.000000000000D+00  6 2 21 25 24 1 21 4 0.14484550D+00 0.49595966D-02 0.24395270D+05 0.24395270D+05 0.24395270D+05 0.12244394D+01  1  2 13  3  6  5        1 -.122035152442D+00 0.100000000000D+01
-.582168532206D-07 0.000000000000D+00 0.000000000000D+00 0.143041186139D-06 0.000000000000D+00  6 2 21 25 24 1 21 4 0.14484550D+00 0.49595966D-02 0.22686426D+05 0.22686426D+05 0.22686426D+05 0.12278452D+01  1  2  8  3  6  5        1 -.130843160958D-02 0.100000000000D+01
0.128638961324D-04 0.000000000000D+00 0.000000000000D+00 0.143041186139D-06 0.127383201953D-07  6 2 21 25 24 1 21 4 0.14484550D+00 0.49595966D-02 0.24395270D+05 0.24395270D+05 0.24395270D+05 0.12244394D+01  1  2  1  3  6  5        1 0.286021105875D+00 0.100000000000D+01
  </mgrwgt>
  </event>
  <event>
  5     66 0.45638357E-03 0.56380699E+02 0.75467711E-02 0.11822139E+00
        2 -1    0    0  502    0 0.00000000E+00 0.00000000E+00 0.15478523E+04 0.15478523E+04 0.32000000E+00 0.0000E+00 0.9000E+01
       21 -1    0    0  501  502 0.00000000E+00 0.00000000E+00 -.17211964E+02 0.17228296E+02 0.75000000E+00 0.0000E+00 0.9000E+01
       25  1    1    2    0    0 0.73255241E+01 0.15750702E+02 0.29907764E+03 0.32461389E+03 0.12500000E+03 0.0000E+00 0.9000E+01
       24  1    1    2    0    0 0.14569857E+02 0.36204389E+02 0.63785343E+03 0.64408637E+03 0.80419002E+02 0.0000E+00 0.9000E+01
        1  1    1    2  501    0 -.21895381E+02 -.51955091E+02 0.59370923E+03 0.59638032E+03 0.32000000E+00 0.0000E+00 0.9000E+01
#aMCatNLO 1  0  0  1  2 0.54492802D+02 0.00000000D+00  -5  6  0 0.00000000D+00 0.00000000D+00 0.00000000D+00 0.00000000D+00 0.00000000D+00
  <mgrwgt>
 0.4475593335D+00    8    2    0
 0.163261702735829D+03 0.000000000000000D+00 0.000000000000000D+00 0.163261702735829D+03
 0.163261702735829D+03 0.000000000000000D+00 0.000000000000000D+00 -.163261702735829D+03
 0.153945080147909D+03 0.732561701283996D+01 0.157509227005214D+02 -.881608273056092D+02
 0.971535738624289D+02 0.145699153031478D+02 0.362045281817355D+02 0.380598300977411D+02
 0.754247514613199D+02 -.218955323159877D+02 -.519554508822569D+02 0.501009972078681D+02
 0.000000000000000D+00 -.000000000000000D+00 0.000000000000000D+00 0.000000000000000D+00
 0.313021957004988D+03 0.000000000000000D+00 0.000000000000000D+00 0.313021957004988D+03
 0.170552549165195D+03 0.000000000000000D+00 0.000000000000000D+00 -.170552549165195D+03
 0.156407201037918D+03 0.317375476154500D+02 0.765566043287134D+01 -.881608273056092D+02
 0.989033892724990D+02 0.299915160721867D+02 0.310905572777294D+02 0.380598300977411D+02
 0.757286819042855D+02 -.100059882418522D+02 -.558981532882936D+02 0.501009972078681D+02
 0.152535233955480D+03 -.517230754457845D+02 0.171519355776928D+02 0.142469407839793D+03
0.241083085218D-05 0.000000000000D+00 0.000000000000D+00 0.175779035624D-06 0.000000000000D+00  6 2 21 25 24 1 21 2 0.23813238D+00 0.26492533D-02 0.18491953D+05 0.18491953D+05 0.18491953D+05 0.12375920D+01  1  2  2  1  6  1        2 0.476039745840D-01 0.100000000000D+01
-.253732373156D-06 0.127223039325D-06 -.486677289940D-08 0.175779035624D-06 0.000000000000D+00  6 2 21 25 24 1 21 4 0.23813238D+00 0.26492533D-02 0.18491953D+05 0.18491953D+05 0.18491953D+05 0.12375920D+01  1  2  3  1  6  1        2 -.767374520991D-02 0.100000000000D+01
0.278813342303D-06 0.000000000000D+00 0.000000000000D+00 0.175779035624D-06 0.000000000000D+00  6 2 21 25 24 1 21 4 0.23813238D+00 0.26492533D-02 0.18491953D+05 0.18491953D+05 0.18491953D+05 0.12375920D+01  1  2 15  1  6  1        2 0.843228052988D-02 0.100000000000D+01
0.129246095700D-04 0.000000000000D+00 0.000000000000D+00 0.170497483730D-06 0.000000000000D+00  6 2 21 25 24 1 21 4 0.45727408D+00 0.26492533D-02 0.27516127D+05 0.27516127D+05 0.27516127D+05 0.12188576D+01  1  2 12  1  6  1        2 0.639541589282D-01 0.100000000000D+01
-.151841754044D-04 0.000000000000D+00 -.188950708020D-05 0.175779035624D-06 0.000000000000D+00  6 2 21 25 24 1 21 4 0.46074322D+00 0.26492533D-02 0.18491953D+05 0.18491953D+05 0.18491953D+05 0.12375920D+01  1  2  5  1  6  1        2 -.786509071991D-01 0.100000000000D+01
0.136881543083D-04 0.000000000000D+00 0.154140801255D-05 0.175779035624D-06 0.000000000000D+00  6 2 21 25 24 1 21 4 0.23813238D+00 0.26492533D-02 0.18491953D+05 0.18491953D+05 0.18491953D+05 0.12375920D+01  1  2  6  1  6  1        2 0.413977165189D+00 0.100000000000D+01
0.915172486456D-06 0.000000000000D+00 0.000000000000D+00 0.170497483730D-06 0.000000000000D+00  6 21 21 25 24 1 -2 4 0.45727408D+00 0.26492533D-02 0.27516127D+05 0.27516127D+05 0.27516127D+05 0.12188576D+01  1  2 12  4  6  1        2 0.609420740814D-03 0.100000000000D+01
-.976786523849D-06 0.000000000000D+00 -.135241307172D-06 0.175779035624D-06 0.000000000000D+00  6 21 21 25 24 1 -2 4 0.46074322D+00 0.26492533D-02 0.18491953D+05 0.18491953D+05 0.18491953D+05 0.12375920D+01  1  2  5  4  6  1        2 -.693014080784D-03 0.100000000000D+01
  </mgrwgt>
  </event>
  <event>
  5     66 0.45638357E-03 0.90746878E+02 0.75467711E-02 0.11094880E+00
        2 -1    0    0  502    0 0.00000000E+00 0.00000000E+00 0.13977365E+04 0.13977365E+04 0.32000000E+00 0.0000E+00 0.9000E+01
       21 -1    0    0  501  502 0.00000000E+00 0.00000000E+00 -.37964574E+02 0.37971981E+02 0.75000000E+00 0.0000E+00 0.9000E+01
       25  1    1    2    0    0 0.27618829E+02 -.87074235E+02 0.45746803E+03 0.48295623E+03 0.12500000E+03 0.0000E+00 0.9000E+01
       24  1    1    2    0    0 -.10002249E+03 0.14177934E+03 0.41331936E+03 0.45541848E+03 0.80419002E+02 0.0000E+00 0.9000E+01
        1  1    1    2  501    0 0.72403662E+02 -.54705107E+02 0.48898450E+03 0.49733377E+03 0.32000000E+00 0.0000E+00 0.9000E+01
#aMCatNLO 1  0  0  1  2 0.69314397D+02 0.00000000D+00  -5  6  0 0.00000000D+00 0.00000000D+00 0.00000000D+00 0.00000000D+00 0.00000000D+00
  <mgrwgt>
 0.1687980668D+00    9    2    0
 0.230368862727966D+03 0.000000000000000D+00 0.000000000000000D+00 0.230368862727966D+03
 0.230368862727966D+03 0.000000000000000D+00 0.000000000000000D+00 -.230368862727966D+03
 0.154821613924470D+03 0.276187195053905D+02 -.870741524852599D+02 0.174470725154325D+00
 0.199306894529988D+03 -.100022631854946D+03 0.141779448668388D+03 -.561256029358735D+02
 0.106609217001473D+03 0.724039123495559D+02 -.547052961831276D+02 0.559511322107192D+02
 0.000000000000000D+00 -.000000000000000D+00 -.000000000000000D+00 0.000000000000000D+00
 0.297835870865018D+03 0.000000000000000D+00 0.000000000000000D+00 0.297835870865018D+03
 0.251475727302856D+03 0.000000000000000D+00 0.000000000000000D+00 -.251475727302856D+03
 0.152233677204585D+03 0.462084714822986D+02 -.735855909704167D+02 0.174470725154325D+00
 0.201896906410710D+03 -.757329375648529D+02 0.159403838494333D+03 -.561256029358735D+02
 0.111791874909341D+03 0.856263587538470D+02 -.451112046684832D+02 0.559511322107192D+02
 0.833891396432387D+02 -.561018926712927D+02 -.407070428554327D+02 0.463601435621621D+02
0.898791149292D-05 0.000000000000D+00 0.000000000000D+00 0.676355088200D-07 0.000000000000D+00  6 2 21 25 24 1 21 2 0.21503695D+00 0.58412763D-02 0.47700632D+05 0.47700632D+05 0.47700632D+05 0.11943120D+01  1  2  2  1  6  1        2 0.523904138027D-01 0.100000000000D+01
-.867316438686D-06 0.474305120279D-06 -.181440037721D-07 0.676355088200D-07 0.000000000000D+00  6 2 21 25 24 1 21 4 0.21503695D+00 0.58412763D-02 0.47700632D+05 0.47700632D+05 0.47700632D+05 0.11943120D+01  1  2  3  1  6  1        2 -.721117739152D-02 0.100000000000D+01
0.947460401487D-06 0.000000000000D+00 0.000000000000D+00 0.676355088200D-07 0.000000000000D+00  6 2 21 25 24 1 21 4 0.21503695D+00 0.58412763D-02 0.47700632D+05 0.47700632D+05 0.47700632D+05 0.11943120D+01  1  2 15  1  6  1        2 0.787752280692D-02 0.100000000000D+01
0.228137755751D-04 0.000000000000D+00 0.000000000000D+00 0.661106880422D-07 0.000000000000D+00  6 2 21 25 24 1 21 4 0.28567145D+00 0.58412763D-02 0.65605021D+05 0.65605021D+05 0.65605021D+05 0.11807725D+01  1  2 12  1  6  1        2 0.102777158126D+00 0.100000000000D+01
-.187328475749D-04 0.000000000000D+00 0.000000000000D+00 0.676355088200D-07 0.000000000000D+00  6 2 21 25 24 1 21 4 0.21503695D+00 0.58412763D-02 0.47700632D+05 0.47700632D+05 0.47700632D+05 0.11943120D+01  1  2  4  1  6  1        2 -.155751558353D+00 0.100000000000D+01
-.415233611546D-04 0.000000000000D+00 -.116525375893D-04 0.676355088200D-07 0.000000000000D+00  6 2 21 25 24 1 21 4 0.28916166D+00 0.58412763D-02 0.47700632D+05 0.47700632D+05 0.47700632D+05 0.11943120D+01  1  2  5  1  6  1        2 -.192495217210D+00 0.100000000000D+01
0.435437716662D-04 0.000000000000D+00 0.111594925358D-04 0.676355088200D-07 0.000000000000D+00  6 2 21 25 24 1 21 4 0.21503695D+00 0.58412763D-02 0.47700632D+05 0.47700632D+05 0.47700632D+05 0.11943120D+01  1  2  6  1  6  1        2 0.362038406947D+00 0.100000000000D+01
0.847629932565D-06 0.000000000000D+00 0.000000000000D+00 0.661106880422D-07 0.000000000000D+00  6 21 21 25 24 1 -2 4 0.28567145D+00 0.58412763D-02 0.65605021D+05 0.65605021D+05 0.65605021D+05 0.11807725D+01  1  2 12  4  6  1        2 0.132320066089D-02 0.100000000000D+01
-.133417102431D-05 0.000000000000D+00 -.446274105773D-06 0.676355088200D-07 0.000000000000D+00  6 21 21 25 24 1 -2 4 0.28916166D+00 0.58412763D-02 0.47700632D+05 0.47700632D+05 0.47700632D+05 0.11943120D+01  1  2  5  4  6  1        2 -.215068263131D-02 0.100000000000D+01
  </mgrwgt>
  </event>
  <event>
  5     66 0.45638357E-03 0.26080792E+02 0.75467711E-02 0.12161470E+00
        2 -1    0    0  502    0 0.00000000E+00 0.00000000E+00 0.32402724E+04 0.32402724E+04 0.32000000E+00 0.0000E+00 0.9000E+01
       21 -1    0    0  501  502 0.00000000E+00 0.00000000E+00 -.12723869E+02 0.12745954E+02 0.75000000E+00 0.0000E+00 0.9000E+01
       25  1    1    2    0    0 -.60115819E+02 -.10374318E+02 0.22440023E+04 0.22483089E+04 0.12500000E+03 0.0000E+00 0.9000E+01
       24  1    1    2    0    0 0.53326633E+02 0.35555893E+02 0.96977946E+03 0.97521657E+03 0.80419002E+02 0.0000E+00 0.9000E+01
        1  1    1    2  501    0 0.67891862E+01 -.25181574E+02 0.13766760E+02 0.29492895E+02 0.32000000E+00 0.0000E+00 0.9000E+01
#aMCatNLO 1  0  0  2  2 0.95325140D+01 0.00000000D+00  -5  6  0 0.00000000D+00 0.00000000D+00 0.00000000D+00 0.00000000D+00 0.00000000D+00
  <mgrwgt>
 0.1405628422D+00   13    2    0
 0.203137263174555D+03 0.000000000000000D+00 0.000000000000000D+00 0.203137263174555D+03
 0.203137263174555D+03 0.000000000000000D+00 0.000000000000000D+00 -.203137263174555D+03
 0.175161933885839D+03 -.601158286182805D+02 -.103742836415501D+02 0.106466729409188D+03
 0.104331350033886D+03 0.533266275047179D+02 0.355559131909380D+02 0.176029111698652D+02
 0.126781242429385D+03 0.678920111356267D+01 -.251816295493878D+02 -.124069640579053D+03
 0.000000000000000D+00 -.000000000000000D+00 -.000000000000000D+00 0.000000000000000D+00
 0.213115611023751D+03 0.000000000000000D+00 0.000000000000000D+00 0.213115611023751D+03
 0.205482649241204D+03 0.000000000000000D+00 0.000000000000000D+00 -.205482649241204D+03
 0.174284308472399D+03 -.580347386518885D+02 -.684286622843006D+01 0.106466729409188D+03
 0.105714051482998D+03 0.545775305753408D+02 0.376785801380963D+02 0.176029111698652D+02
 0.126387982806895D+03 0.829692353427868D+01 -.226231638911737D+02 -.124069640579053D+03
 0.122119175026638D+02 -.483971545773108D+01 -.821255001849256D+01 0.763296178254701D+01
0.324475915800D-04 0.000000000000D+00 0.000000000000D+00 0.509505733986D-05 0.000000000000D+00  6 2 21 25 24 1 21 2 0.49850515D+00 0.19592183D-02 0.17957107D+05 0.17957107D+05 0.17957107D+05 0.12390111D+01  1  2  2  2  6  2       21 0.128570876747D+00 0.100000000000D+01
0.653489962027D-05 0.171230645064D-05 -.655023388346D-07 0.509505733986D-05 0.000000000000D+00  6 2 21 25 24 1 21 4 0.49850515D+00 0.19592183D-02 0.17957107D+05 0.17957107D+05 0.17957107D+05 0.12390111D+01  1  2  3  2  6  2       21 0.397511288055D-01 0.100000000000D+01
0.302454270651D-05 0.000000000000D+00 0.000000000000D+00 0.509505733986D-05 0.000000000000D+00  6 2 21 25 24 1 21 4 0.49850515D+00 0.19592183D-02 0.17957107D+05 0.17957107D+05 0.17957107D+05 0.12390111D+01  1  2 15  2  6  2       21 0.183979852317D-01 0.100000000000D+01
-.758804236713D-05 0.000000000000D+00 0.000000000000D+00 0.509505733986D-05 0.000000000000D+00  6 2 21 25 24 1 21 4 0.49850515D+00 0.19592183D-02 0.17957107D+05 0.17957107D+05 0.17957107D+05 0.12390111D+01  1  2  4  2  6  2       21 -.461572888712D-01 0.100000000000D+01
0.295270103694D-10 0.000000000000D+00 0.000000000000D+00 0.509505733986D-05 0.497063471746D-06  6 2 21 25 24 1 21 4 0.52299232D+00 0.19818391D-02 0.19023621D+05 0.19023621D+05 0.19023621D+05 0.12362263D+01  1  2 11  2  6  2       21 0.138941086441D-06 0.100000000000D+01
0.932928237805D-12 0.000000000000D+00 0.000000000000D+00 0.507217947934D-05 0.140246908736D-08  6 2 -1 25 24 1 -1 4 0.52299232D+00 0.19818391D-02 0.19023621D+05 0.19023621D+05 0.19023621D+05 0.12362263D+01  1  2 11  5  6  2       21 0.211092819106D-09 0.100000000000D+01
0.189024938547D-11 0.000000000000D+00 0.000000000000D+00 0.507217947934D-05 0.112358476219D-07  6 2 1 25 24 1 1 4 0.52299232D+00 0.19818391D-02 0.19023621D+05 0.19023621D+05 0.19023621D+05 0.12362263D+01  1  2 11  6  6  2       21 0.449335161430D-09 0.100000000000D+01
0.716444422702D-12 0.000000000000D+00 0.000000000000D+00 0.507217947934D-05 0.327031039532D-09  6 2 -2 25 24 1 -2 4 0.52299232D+00 0.19818391D-02 0.19023621D+05 0.19023621D+05 0.19023621D+05 0.12362263D+01  1  2 11  7  6  2       21 0.160639383353D-09 0.100000000000D+01
0.128286076528D-12 0.000000000000D+00 0.000000000000D+00 0.507217947934D-05 0.558763921684D-09  6 2 2 25 24 1 2 4 0.52299232D+00 0.19818391D-02 0.19023621D+05 0.19023621D+05 0.19023621D+05 0.12362263D+01  1  2 11  8  6  2       21 0.315051361192D-10 0.100000000000D+01
0.715966406487D-12 0.000000000000D+00 0.000000000000D+00 0.507217947934D-05 0.326812842370D-09  6 2 -3 25 24 1 -3 4 0.52299232D+00 0.19818391D-02 0.19023621D+05 0.19023621D+05 0.19023621D+05 0.12362263D+01  1  2 11  9  6  2       21 0.125270377496D-09 0.100000000000D+01
0.715966406487D-12 0.000000000000D+00 0.000000000000D+00 0.507217947934D-05 0.326812842370D-09  6 2 -4 25 24 1 -4 4 0.52299232D+00 0.19818391D-02 0.19023621D+05 0.19023621D+05 0.19023621D+05 0.12362263D+01  1  2 11  9  6  2       21 0.113835094121D-09 0.100000000000D+01
0.715966406487D-12 0.000000000000D+00 0.000000000000D+00 0.507217947934D-05 0.326812842370D-09  6 2 3 25 24 1 3 4 0.52299232D+00 0.19818391D-02 0.19023621D+05 0.19023621D+05 0.19023621D+05 0.12362263D+01  1  2 11 10  6  2       21 0.125263243589D-09 0.100000000000D+01
0.715966406487D-12 0.000000000000D+00 0.000000000000D+00 0.507217947934D-05 0.326812842370D-09  6 2 4 25 24 1 4 4 0.52299232D+00 0.19818391D-02 0.19023621D+05 0.19023621D+05 0.19023621D+05 0.12362263D+01  1  2 11 10  6  2       21 0.113835094121D-09 0.100000000000D+01
  </mgrwgt>
  </event>
  <event>
  5     66 0.45638357E-03 0.24144345E+02 0.75467711E-02 0.11964629E+00
        4 -1    0    0  502    0 0.00000000E+00 0.00000000E+00 0.29104923E+03 0.29105336E+03 0.15500000E+01 0.0000E+00 0.9000E+01
       21 -1    0    0  501  502 0.00000000E+00 0.00000000E+00 -.56380099E+02 0.56385087E+02 0.75000000E+00 0.0000E+00 0.9000E+01
       25  1    1    2    0    0 -.38393588E+02 -.17325554E+02 0.12577543E+03 0.18225999E+03 0.12500000E+03 0.0000E+00 0.9000E+01
       24  1    1    2    0    0 0.52114910E+02 -.25366500E+01 0.10219736E+03 0.14012107E+03 0.80419002E+02 0.0000E+00 0.9000E+01
        3  1    1    2  501    0 -.13721323E+02 0.19862204E+02 0.66963430E+01 0.25057392E+02 0.50000000E+00 0.0000E+00 0.9000E+01
#aMCatNLO 1  0  0  2  2 0.75078108D+02 0.00000000D+00  -5  6  0 0.00000000D+00 0.00000000D+00 0.00000000D+00 0.00000000D+00 0.00000000D+00
  <mgrwgt>
 0.4176910115D-01    3    2    0
 0.128105300072775D+03 0.000000000000000D+00 0.000000000000000D+00 0.128105300072775D+03
 0.128105300072775D+03 0.000000000000000D+00 0.000000000000000D+00 -.128105300072775D+03
 0.131955869772217D+03 -.383924481084332D+02 -.173272038107662D+02 0.362484533237863D+01
 0.964090785667377D+02 0.521157428924516D+02 -.253785516588935D+01 0.102471024998159D+02
 0.278456518065962D+02 -.137232947840184D+02 0.198650589766555D+02 -.138719478321945D+02
 0.000000000000000D+00 0.000000000000000D+00 -.000000000000000D+00 0.000000000000000D+00
 0.247533247185553D+03 0.000000000000000D+00 0.000000000000000D+00 0.247533247185553D+03
 0.135669680799568D+03 0.000000000000000D+00 0.000000000000000D+00 -.135669680799568D+03
 0.136625837748062D+03 -.549865807255836D+02 0.222620232345246D+01 0.362484533237863D+01
 0.913112242633211D+02 0.405175755084780D+02 0.111286426561841D+02 0.102471024998159D+02
 0.329885253923830D+02 -.174818917987420D+02 0.242939360755282D+02 -.138719478321945D+02
 0.122277340581355D+03 0.319508970158476D+02 -.376487810551647D+02 0.111863566385985D+03
0.106685857735D-04 0.000000000000D+00 0.000000000000D+00 0.120851719244D-05 0.000000000000D+00  6 4 21 25 24 3 21 2 0.44777506D-01 0.86745625D-02 0.15865088D+05 0.15865088D+05 0.15865088D+05 0.12450560D+01  1  2  2  2  6  2       21 0.337762726050D-01 0.100000000000D+01
0.553836251591D-06 0.562996738732D-06 -.215368009210D-07 0.120851719244D-05 0.000000000000D+00  6 4 21 25 24 3 21 4 0.44777506D-01 0.86745625D-02 0.15865088D+05 0.15865088D+05 0.15865088D+05 0.12450560D+01  1  2  3  2  6  2       21 0.271809112107D-02 0.100000000000D+01
0.107477662634D-05 0.000000000000D+00 0.000000000000D+00 0.120851719244D-05 0.000000000000D+00  6 4 21 25 24 3 21 4 0.44777506D-01 0.86745625D-02 0.15865088D+05 0.15865088D+05 0.15865088D+05 0.12450560D+01  1  2 15  2  6  2       21 0.527473742788D-02 0.100000000000D+01
  </mgrwgt>
  </event>
  <event>
  6     66 0.45638357E-03 0.19950229E+02 0.75467711E-02 0.11818994E+00
        2 -1    0    0  502    0 0.00000000E+00 0.00000000E+00 0.51986811E+03 0.51986820E+03 0.32000000E+00 0.0000E+00 0.9000E+01
       21 -1    0    0  503  502 0.00000000E+00 0.00000000E+00 -.28158081E+03 0.28158181E+03 0.75000000E+00 0.0000E+00 0.9000E+01
       25  1    1    2    0    0 0.44292907E+02 -.84076257E+02 0.20921126E+03 0.26158179E+03 0.12500000E+03 0.0000E+00 0.9000E+01
       24  1    1    2    0    0 -.32872959E+02 0.11390420E+03 0.25650807E+03 0.29379994E+03 0.80419002E+02 0.0000E+00 0.9000E+01
        1  1    1    2  501    0 -.39912672E+01 -.70177823E+01 0.68301384E+01 0.10579824E+02 0.32000000E+00 0.0000E+00 0.9000E+01
       21  1    1    2  503  501 -.74286806E+01 -.22810160E+02 -.23426217E+03 0.23548847E+03 0.75000000E+00 0.0000E+00 0.9000E+01
#aMCatNLO 2  0  0  2  1 0.10923480D+02 0.00000000D+00  -5  6  0 0.00000000D+00 0.00000000D+00 0.00000000D+00 0.00000000D+00 0.00000000D+00
  <mgrwgt>
 0.6433399923D+00    1    2    0
 0.155269108176148D+03 0.000000000000000D+00 0.000000000000000D+00 0.155269108176148D+03
 0.155269108176148D+03 0.000000000000000D+00 0.000000000000000D+00 -.155269108176148D+03
 0.163493436453791D+03 0.404555953470565D+02 -.958604924548006D+02 -.167097143873910D+02
 0.137545560679440D+03 -.362427165495724D+02 0.103555861569757D+03 0.203522563835989D+02
 0.949921921906491D+01 -.421287879748414D+01 -.769536911495624D+01 -.364254199620794D+01
 0.000000000000000D+00 -.000000000000000D+00 -.000000000000000D+00 -.000000000000000D+00
 0.155915429809213D+03 0.000000000000000D+00 0.000000000000000D+00 0.155915429809213D+03
 0.938874269275674D+03 0.000000000000000D+00 0.000000000000000D+00 -.938874269275674D+03
 0.157907025709081D+03 0.442941404290580D+02 -.840740348563758D+02 -.167097143873910D+02
 0.144694923029872D+03 -.328718663230563D+02 0.113906237146108D+03 0.203522563835989D+02
 0.886148816999091D+01 -.399359347792970D+01 -.702204183452276D+01 -.364254199620794D+01
 0.783326262175943D+03 -.742868062807199D+01 -.228101604552098D+02 -.782958839466461D+03
0.755118001970D-03 0.000000000000D+00 0.000000000000D+00 0.173501713500D-05 0.493788962696D-06  6 2 21 25 24 1 21 4 0.79979701D-01 0.43320159D-01 0.27613207D+05 0.27613207D+05 0.27613207D+05 0.12186954D+01  1  2  1  2  6  2       21 0.643339992297D+00 0.100000000000D+01
  </mgrwgt>
  </event>
  <event>
  6     66 0.45638357E-03 0.29315125E+02 0.75467711E-02 0.11785711E+00
        2 -1    0    0  502    0 0.00000000E+00 0.00000000E+00 0.35116324E+04 0.35116324E+04 0.32000000E+00 0.0000E+00 0.9000E+01
       21 -1    0    0  501  502 0.00000000E+00 0.00000000E+00 -.10231456E+02 0.10258908E+02 0.75000000E+00 0.0000E+00 0.9000E+01
       25  1    1    2    0    0 0.52284302E+02 0.44524490E+02 0.23013990E+04 0.23058140E+04 0.12500000E+03 0.0000E+00 0.9000E+01
       24  1    1    2    0    0 -.39762565E+02 -.53826342E+02 0.62306758E+03 0.63179012E+03 0.80419002E+02 0.0000E+00 0.9000E+01
        1  1    1    2  503    0 -.45549476E+01 0.49951482E+02 0.35397500E+03 0.35751126E+03 0.32000000E+00 0.0000E+00 0.9000E+01
       21  1    1    2  501  503 -.79667894E+01 -.40649631E+02 0.22295936E+03 0.22677588E+03 0.75000000E+00 0.0000E+00 0.9000E+01
#aMCatNLO 2  0  0  5  1 0.10918917D+00 0.00000000D+00  -5  6  0 0.00000000D+00 0.00000000D+00 0.00000000D+00 0.00000000D+00 0.00000000D+00
  <mgrwgt>
 0.3060466042D-01    1    2    0
 0.189677300848212D+03 0.000000000000000D+00 0.000000000000000D+00 0.189677300848212D+03
 0.189677300848212D+03 -.000000000000000D+00 -.000000000000000D+00 -.189677300848212D+03
 0.181940548326985D+03 0.615696454764218D+02 0.376268142908483D+02 0.110773483865741D+03
 0.108922021785225D+03 -.337845401944281D+02 -.582671554589880D+02 -.293314560494300D+02
 0.884920315842136D+02 -.277851052819937D+02 0.206403411681397D+02 -.814420278163111D+02
 0.000000000000000D+00 0.000000000000000D+00 -.000000000000000D+00 0.000000000000000D+00
 0.189677300848212D+03 0.000000000000000D+00 0.000000000000000D+00 0.189677300848212D+03
 0.189677300848212D+03 -.000000000000000D+00 -.000000000000000D+00 -.189677300848212D+03
 0.165277836778169D+03 0.522728251168690D+02 0.445330160868311D+02 0.835232037375380D+02
 0.114643021803122D+03 -.397705252058122D+02 -.538204286386866D+02 -.468772149320174D+02
 0.515502878554695D+02 -.422064863071138D+01 0.498232750818017D+02 -.125403175095755D+02
 0.478834552596624D+02 -.828165128034541D+01 -.405358625299461D+02 -.241056712959451D+02
0.574999872302D-05 0.000000000000D+00 0.000000000000D+00 0.116141884400D-05 0.201128765482D-08  6 2 21 25 24 1 21 4 0.54025325D+00 0.15761829D-02 0.28665286D+05 0.28665286D+05 0.28665286D+05 0.12169783D+01  1  2  1  3  6  5        1 0.306046604244D-01 0.100000000000D+01
  </mgrwgt>
  </event>
  <event>
  6     66 0.45638357E-03 0.14865800E+02 0.75467711E-02 0.11683070E+00
        2 -1    0    0  502    0 0.00000000E+00 0.00000000E+00 0.55343366E+03 0.55343375E+03 0.32000000E+00 0.0000E+00 0.9000E+01
       21 -1    0    0  501  502 0.00000000E+00 0.00000000E+00 -.88506278E+02 0.88509456E+02 0.75000000E+00 0.0000E+00 0.9000E+01
       25  1    1    2    0    0 -.48856133E+02 0.12101520E+03 0.62438360E+02 0.19119401E+03 0.12500000E+03 0.0000E+00 0.9000E+01
       24  1    1    2    0    0 0.59846215E+02 -.68453368E+02 0.17287612E+03 0.21123636E+03 0.80419002E+02 0.0000E+00 0.9000E+01
        1  1    1    2  503    0 -.14870682E+02 -.25293749E+02 0.51428079E+02 0.59210309E+02 0.32000000E+00 0.0000E+00 0.9000E+01
       21  1    1    2  501  503 0.38806000E+01 -.27268081E+02 0.17818482E+03 0.18030253E+03 0.75000000E+00 0.0000E+00 0.9000E+01
#aMCatNLO 2  0  0  5  2 0.18648726D+02 0.00000000D+00  -5  6  0 0.00000000D+00 0.00000000D+00 0.00000000D+00 0.00000000D+00 0.00000000D+00
  <mgrwgt>
 0.8890061806D-01    2    2    0
 0.221321944258444D+03 0.000000000000000D+00 0.000000000000000D+00 0.221321944258444D+03
 0.221321944258444D+03 -.000000000000000D+00 -.000000000000000D+00 -.221321944258444D+03
 0.214731035605409D+03 -.483824072306032D+02 0.123280867075357D+03 -.113777801595441D+03
 0.123720925461471D+03 0.601222631939833D+02 -.671331238182512D+02 0.267975483488510D+02
 0.104191927450008D+03 -.117398559633801D+02 -.561477432571062D+02 0.869802532465896D+02
 0.000000000000000D+00 0.000000000000000D+00 0.000000000000000D+00 0.000000000000000D+00
 0.221321944258444D+03 0.000000000000000D+00 0.000000000000000D+00 0.221321944258444D+03
 0.221321944258444D+03 -.000000000000000D+00 -.000000000000000D+00 -.221321944258444D+03
 0.211737501978921D+03 -.488497705257798D+02 0.121045627189346D+03 -.110315120460389D+03
 0.124751543508034D+03 0.598499642982287D+02 -.684354369416584D+02 0.288150029910012D+02
 0.312756762677871D+02 -.146620337942442D+02 -.248596501625616D+02 0.120495014344541D+02
 0.748791667621452D+02 0.366184002179522D+01 -.277505400851263D+02 0.694506160349332D+02
-.315432708696D-05 0.000000000000D+00 0.000000000000D+00 0.685590219181D-07 0.000000000000D+00  6 2 21 25 24 1 21 4 0.85143891D-01 0.13616602D-01 0.32213174D+05 0.32213174D+05 0.32213174D+05 0.12116674D+01  1  2 13  3  6  5        1 -.221371554498D-01 0.100000000000D+01
0.158217914427D-04 0.000000000000D+00 0.000000000000D+00 0.685221892240D-07 0.200208527741D-08  6 2 21 25 24 1 21 4 0.85143891D-01 0.13616602D-01 0.32213174D+05 0.32213174D+05 0.32213174D+05 0.12116674D+01  1  2  1  3  6  5        1 0.111037773511D+00 0.100000000000D+01
  </mgrwgt>
  </event>
  <event>
  6     66 0.45638357E-03 0.63282965E+02 0.75467711E-02 0.11629582E+00
        2 -1    0    0  503    0 0.00000000E+00 0.00000000E+00 0.83987511E+03 0.83987517E+03 0.32000000E+00 0.0000E+00 0.9000E+01
       21 -1    0    0  501  502 0.00000000E+00 0.00000000E+00 -.43063175E+02 0.43069706E+02 0.75000000E+00 0.0000E+00 0.9000E+01
       25  1    1    2    0    0 0.53915757E+02 -.61068222E+02 0.40348945E+03 0.43019179E+03 0.12500000E+03 0.0000E+00 0.9000E+01
       24  1    1    2    0    0 -.26756091E+02 -.34764899E+01 0.12708088E+03 0.15278986E+03 0.80419002E+02 0.0000E+00 0.9000E+01
        1  1    1    2  501    0 -.72989897E+02 0.48398416E+02 0.19454146E+03 0.21334576E+03 0.32000000E+00 0.0000E+00 0.9000E+01
       21  1    1    2  503  502 0.45830231E+02 0.16146296E+02 0.71700135E+02 0.86617463E+02 0.75000000E+00 0.0000E+00 0.9000E+01
#aMCatNLO 2  0  0  1  1 0.48591285D+02 0.00000000D+00  -5  6  0 0.00000000D+00 0.00000000D+00 0.00000000D+00 0.00000000D+00 0.00000000D+00
  <mgrwgt>
 0.4469638968D-01    1    2    0
 0.162779847026036D+03 0.000000000000000D+00 0.000000000000000D+00 0.162779847026036D+03
 0.162779847026036D+03 0.000000000000000D+00 0.000000000000000D+00 -.162779847026036D+03
 0.158138604250772D+03 0.756180395999372D+02 -.534226465381379D+02 0.284736909849389D+02
 0.867445483921706D+02 -.144056924826268D+02 0.874482376994852D+00 -.291395268674596D+02
 0.806765414091295D+02 -.612123471173104D+02 0.525481641611431D+02 0.665835882520724D+00
 0.000000000000000D+00 0.000000000000000D+00 0.000000000000000D+00 -.000000000000000D+00
 0.181706477549969D+03 0.000000000000000D+00 0.000000000000000D+00 0.181706477549969D+03
 0.199054802728853D+03 0.000000000000000D+00 0.000000000000000D+00 -.199054802728853D+03
 0.151894818457529D+03 0.539159671452845D+02 -.610684311467768D+02 0.284736909849389D+02
 0.896899997306987D+02 -.267559588294554D+02 -.347659867964075D+01 -.291395268674596D+02
 0.875811389973040D+02 -.729902397694449D+02 0.483987341677608D+02 0.665835882520724D+00
 0.515953230932906D+02 0.458302314536158D+02 0.161462956586567D+02 -.173483251788838D+02
0.298271029925D-05 0.000000000000D+00 0.000000000000D+00 0.250942448286D-06 0.136023024480D-08  6 2 21 25 24 1 21 4 0.12921018D+00 0.66255146D-02 0.34261359D+05 0.34261359D+05 0.34261359D+05 0.12088905D+01  1  2  1  1  6  1        2 0.446963896765D-01 0.100000000000D+01
  </mgrwgt>
  </event>
  <event>
  5     66 0.45638357E-03 0.57441181E+02 0.75467711E-02 0.86396156E-01
        2 -1    0    0  502    0 0.00000000E+00 0.00000000E+00 0.20323490E+03 0.20323515E+03 0.32000000E+00 0.0000E+00 0.9000E+01
       21 -1    0    0  501  502 0.00000000E+00 0.00000000E+00 -.13217571E+03 0.13217784E+03 0.75000000E+00 0.0000E+00 0.9000E+01
       25  1    1    2    0    0 -.32098172E+02 0.71322231E+02 0.10277228E+03 0.17973396E+03 0.12500000E+03 0.0000E+00 0.9000E+01
       24  1    1    2    0    0 0.46143523E+02 -.15625218E+02 -.11220623E+02 0.94691555E+02 0.80419002E+02 0.0000E+00 0.9000E+01
        1  1    1    2  501    0 -.14045351E+02 -.55697013E+02 -.20492474E+02 0.60987482E+02 0.32000000E+00 0.0000E+00 0.9000E+01
#aMCatNLO 1  0  0  1  2 0.80743708D+01 0.00000000D+00  -5  6  0 0.00000000D+00 0.00000000D+00 0.00000000D+00 0.00000000D+00 0.00000000D+00
  <mgrwgt>
 0.1470097655D+00    3    2    0
 0.163899716970412D+03 0.000000000000000D+00 0.000000000000000D+00 0.163899716970412D+03
 0.163899716970412D+03 0.000000000000000D+00 0.000000000000000D+00 -.163899716970412D+03
 0.161630103281034D+03 -.320980925906090D+02 0.713225456180097D+02 0.661974110162118D+02
 0.993232073922993D+02 0.461435719299231D+02 -.156250248921332D+02 -.320080136683205D+02
 0.668461232674905D+02 -.140454793393141D+02 -.556975207258765D+02 -.341893973478913D+02
 0.000000000000000D+00 -.000000000000000D+00 0.000000000000000D+00 -.000000000000000D+00
 0.115436086490983D+04 0.000000000000000D+00 0.000000000000000D+00 0.115436086490983D+04
 0.607781836139315D+04 0.000000000000000D+00 0.000000000000000D+00 -.607781836139315D+04
 0.553463743208680D+03 0.440603043308903D+03 -.303618141829910D+03 0.661974110162118D+02
 0.858740749218887D+03 0.679456140311817D+03 -.517960711703331D+03 -.320080136683205D+02
 0.535440486289548D+03 0.384086270601249D+03 -.371490694637968D+03 -.341893973478913D+02
 0.528453424758587D+04 -.150414545422197D+04 0.119306954817121D+04 -.492345749648333D+04
0.188237613968D-04 0.000000000000D+00 0.000000000000D+00 0.373984564708D-06 0.000000000000D+00  6 2 21 25 24 1 21 2 0.31267091D-01 0.20334908D-01 0.22337980D+05 0.22337980D+05 0.22337980D+05 0.12285749D+01  1  2  2  1  6  1        2 0.131088980369D+00 0.100000000000D+01
-.483375082699D-06 0.993357179858D-06 -.379997508941D-07 0.373984564708D-06 0.000000000000D+00  6 2 21 25 24 1 21 4 0.31267091D-01 0.20334908D-01 0.22337980D+05 0.22337980D+05 0.22337980D+05 0.12285749D+01  1  2  3  1  6  1        2 -.508097793339D-02 0.100000000000D+01
0.199798721476D-05 0.000000000000D+00 0.000000000000D+00 0.373984564708D-06 0.000000000000D+00  6 2 21 25 24 1 21 4 0.31267091D-01 0.20334908D-01 0.22337980D+05 0.22337980D+05 0.22337980D+05 0.12285749D+01  1  2 15  1  6  1        2 0.210017630464D-01 0.100000000000D+01
  </mgrwgt>
  </event>
  <event>
  5     66 0.45638357E-03 0.10624010E+03 0.75467711E-02 0.11363009E+00
        2 -1    0    0  502    0 0.00000000E+00 0.00000000E+00 0.32544892E+04 0.32544892E+04 0.32000000E+00 0.0000E+00 0.9000E+01
       21 -1    0    0  501  502 0.00000000E+00 0.00000000E+00 -.20114142E+02 0.20128120E+02 0.75000000E+00 0.0000E+00 0.9000E+01
       25  1    1    2    0    0 0.20031837E+02 0.58043647E+02 0.12256559E+04 0.12335427E+04 0.12500000E+03 0.0000E+00 0.9000E+01
       24  1    1    2    0    0 0.72623068E+02 -.12075489E+03 0.17701886E+04 0.17776082E+04 0.80419002E+02 0.0000E+00 0.9000E+01
        1  1    1    2  501    0 -.92654905E+02 0.62711245E+02 0.23853060E+03 0.26346647E+03 0.32000000E+00 0.0000E+00 0.9000E+01
#aMCatNLO 1  0  0  2  1 0.21168849D+02 0.00000000D+00  -5  6  0 0.00000000D+00 0.00000000D+00 0.00000000D+00 0.00000000D+00 0.00000000D+00
  <mgrwgt>
 0.1072320578D+00   23    2    0
 0.255898751320278D+03 0.000000000000000D+00 0.000000000000000D+00 0.255898751320278D+03
 0.255898751320278D+03 0.000000000000000D+00 0.000000000000000D+00 -.255898751320278D+03
 0.146834674875686D+03 0.200318795531382D+02 0.580436184163967D+02 0.465304621570512D+02
 0.186661063805095D+03 0.726231226575782D+02 -.120754928783419D+03 0.922998700782016D+02
 0.178301763959776D+03 -.926550022107164D+02 0.627113103670222D+02 -.138830332235253D+03
 0.000000000000000D+00 -.000000000000000D+00 0.000000000000000D+00 -.000000000000000D+00
 0.263015556637126D+03 0.000000000000000D+00 0.000000000000000D+00 0.263015556637126D+03
 0.272358489405177D+03 0.000000000000000D+00 0.000000000000000D+00 -.272358489405177D+03
 0.144933023768083D+03 0.218958716233548D+02 0.523074399666487D+02 0.465304621570512D+02
 0.192499119168954D+03 0.750454318360469D+02 -.128209251111381D+03 0.922998700782016D+02
 0.174802963103917D+03 -.903991513599807D+02 0.557692405789615D+02 -.138830332235253D+03
 0.231389400013482D+02 -.654215209942092D+01 0.201325705657705D+02 -.934293276805034D+01
0.907736518053D-05 0.000000000000D+00 0.000000000000D+00 0.318604628006D-06 0.000000000000D+00  6 2 21 25 24 1 21 2 0.50069172D+00 0.30955599D-02 0.42723525D+05 0.42723525D+05 0.42723525D+05 0.11991060D+01  1  2  2  2  6  2       21 0.150310760703D-01 0.100000000000D+01
-.161639445607D-06 0.479025721065D-06 -.183245849947D-07 0.318604628006D-06 0.000000000000D+00  6 2 21 25 24 1 21 4 0.50069172D+00 0.30955599D-02 0.42723525D+05 0.42723525D+05 0.42723525D+05 0.11991060D+01  1  2  3  2  6  2       21 -.384851146159D-03 0.100000000000D+01
0.865143875212D-06 0.000000000000D+00 0.000000000000D+00 0.318604628006D-06 0.000000000000D+00  6 2 21 25 24 1 21 4 0.50069172D+00 0.30955599D-02 0.42723525D+05 0.42723525D+05 0.42723525D+05 0.11991060D+01  1  2 15  2  6  2       21 0.205984133834D-02 0.100000000000D+01
0.253791274845D-04 0.000000000000D+00 0.000000000000D+00 0.316402658529D-06 0.000000000000D+00  6 2 21 25 24 1 21 4 0.50069172D+00 0.33356778D-02 0.46996872D+05 0.46996872D+05 0.46996872D+05 0.11949552D+01  1  2 12  2  6  2       21 0.523601892768D-01 0.100000000000D+01
-.524260167992D-05 0.000000000000D+00 0.000000000000D+00 0.318604628006D-06 0.000000000000D+00  6 2 21 25 24 1 21 4 0.50069172D+00 0.30955599D-02 0.42723525D+05 0.42723525D+05 0.42723525D+05 0.11991060D+01  1  2  4  2  6  2       21 -.124822332680D-01 0.100000000000D+01
-.139474076509D-03 0.000000000000D+00 -.277067519236D-04 0.318604628006D-06 0.000000000000D+00  6 2 21 25 24 1 21 4 0.50069172D+00 0.34360484D-02 0.42723525D+05 0.42723525D+05 0.42723525D+05 0.11991060D+01  1  2  5  2  6  2       21 -.279151044381D+00 0.100000000000D+01
0.139358893580D-03 0.000000000000D+00 0.271125054858D-04 0.318604628006D-06 0.000000000000D+00  6 2 21 25 24 1 21 4 0.50069172D+00 0.30955599D-02 0.42723525D+05 0.42723525D+05 0.42723525D+05 0.11991060D+01  1  2  6  2  6  2       21 0.331802857404D+00 0.100000000000D+01
0.481315148425D-06 0.000000000000D+00 0.000000000000D+00 0.316402658529D-06 0.000000000000D+00  6 2 -1 25 24 1 -1 4 0.50069172D+00 0.33356778D-02 0.46996872D+05 0.46996872D+05 0.46996872D+05 0.11949552D+01  1  2 12  5  6  2       21 0.533042425282D-04 0.100000000000D+01
-.312224766083D-05 0.000000000000D+00 -.742821133405D-06 0.318604628006D-06 0.000000000000D+00  6 2 -1 25 24 1 -1 4 0.50069172D+00 0.34360484D-02 0.42723525D+05 0.42723525D+05 0.42723525D+05 0.11991060D+01  1  2  5  5  6  2       21 -.336676396228D-03 0.100000000000D+01
0.481315148425D-06 0.000000000000D+00 0.000000000000D+00 0.316402658529D-06 0.000000000000D+00  6 2 1 25 24 1 1 4 0.50069172D+00 0.33356778D-02 0.46996872D+05 0.46996872D+05 0.46996872D+05 0.11949552D+01  1  2 12  6  6  2       21 0.577628156640D-04 0.100000000000D+01
-.312224766083D-05 0.000000000000D+00 -.742821133405D-06 0.318604628006D-06 0.000000000000D+00  6 2 1 25 24 1 1 4 0.50069172D+00 0.34360484D-02 0.42723525D+05 0.42723525D+05 0.42723525D+05 0.11991060D+01  1  2  5  6  6  2       21 -.365733299688D-03 0.100000000000D+01
0.481315148425D-06 0.000000000000D+00 0.000000000000D+00 0.316402658529D-06 0.000000000000D+00  6 2 -2 25 24 1 -2 4 0.50069172D+00 0.33356778D-02 0.46996872D+05 0.46996872D+05 0.46996872D+05 0.11949552D+01  1  2 12  7  6  2       21 0.525097281299D-04 0.100000000000D+01
-.312224766083D-05 0.000000000000D+00 -.742821133405D-06 0.318604628006D-06 0.000000000000D+00  6 2 -2 25 24 1 -2 4 0.50069172D+00 0.34360484D-02 0.42723525D+05 0.42723525D+05 0.42723525D+05 0.11991060D+01  1  2  5  7  6  2       21 -.331501397006D-03 0.100000000000D+01
0.481315148425D-06 0.000000000000D+00 0.000000000000D+00 0.316402658529D-06 0.000000000000D+00  6 2 2 25 24 1 2 4 0.50069172D+00 0.33356778D-02 0.46996872D+05 0.46996872D+05 0.46996872D+05 0.11949552D+01  1  2 12  8  6  2       21 0.607919303131D-04 0.100000000000D+01
-.312224766083D-05 0.000000000000D+00 -.742821133405D-06 0.318604628006D-06 0.000000000000D+00  6 2 2 25 24 1 2 4 0.50069172D+00 0.34360484D-02 0.42723525D+05 0.42723525D+05 0.42723525D+05 0.11991060D+01  1  2  5  8  6  2       21 -.385454249704D-03 0.100000000000D+01
0.481315148425D-06 0.000000000000D+00 0.000000000000D+00 0.316402658529D-06 0.000000000000D+00  6 2 -3 25 24 1 -3 4 0.50069172D+00 0.33356778D-02 0.46996872D+05 0.46996872D+05 0.46996872D+05 0.11949552D+01  1  2 12  9  6  2       21 0.401387041445D-04 0.100000000000D+01
0.481315148425D-06 0.000000000000D+00 0.000000000000D+00 0.316402658529D-06 0.000000000000D+00  6 2 -4 25 24 1 -4 4 0.50069172D+00 0.33356778D-02 0.46996872D+05 0.46996872D+05 0.46996872D+05 0.11949552D+01  1  2 12  9  6  2       21 0.363967300002D-04 0.100000000000D+01
-.312224766083D-05 0.000000000000D+00 -.742821133405D-06 0.318604628006D-06 0.000000000000D+00  6 2 -3 25 24 1 -3 4 0.50069172D+00 0.34360484D-02 0.42723525D+05 0.42723525D+05 0.42723525D+05 0.11991060D+01  1  2  5  9  6  2       21 -.252394569138D-03 0.100000000000D+01
-.312224766083D-05 0.000000000000D+00 -.742821133405D-06 0.318604628006D-06 0.000000000000D+00  6 2 -4 25 24 1 -4 4 0.50069172D+00 0.34360484D-02 0.42723525D+05 0.42723525D+05 0.42723525D+05 0.11991060D+01  1  2  5  9  6  2       21 -.228539352772D-03 0.100000000000D+01
0.481315148425D-06 0.000000000000D+00 0.000000000000D+00 0.316402658529D-06 0.000000000000D+00  6 2 3 25 24 1 3 4 0.50069172D+00 0.33356778D-02 0.46996872D+05 0.46996872D+05 0.46996872D+05 0.11949552D+01  1  2 12 10  6  2       21 0.401357411676D-04 0.100000000000D+01
0.481315148425D-06 0.000000000000D+00 0.000000000000D+00 0.316402658529D-06 0.000000000000D+00  6 2 4 25 24 1 4 4 0.50069172D+00 0.33356778D-02 0.46996872D+05 0.46996872D+05 0.46996872D+05 0.11949552D+01  1  2 12 10  6  2       21 0.363967300002D-04 0.100000000000D+01
-.312224766083D-05 0.000000000000D+00 -.742821133405D-06 0.318604628006D-06 0.000000000000D+00  6 2 3 25 24 1 3 4 0.50069172D+00 0.34360484D-02 0.42723525D+05 0.42723525D+05 0.42723525D+05 0.11991060D+01  1  2  5 10  6  2       21 -.252375472226D-03 0.100000000000D+01
-.312224766083D-05 0.000000000000D+00 -.742821133405D-06 0.318604628006D-06 0.000000000000D+00  6 2 4 25 24 1 4 4 0.50069172D+00 0.34360484D-02 0.42723525D+05 0.42723525D+05 0.42723525D+05 0.11991060D+01  1  2  5 10  6  2       21 -.228539352772D-03 0.100000000000D+01
  </mgrwgt>
  </event>
  <event>
  6     66 0.45638357E-03 0.14483913E+02 0.75467711E-02 0.12347213E+00
        2 -1    0    0  502    0 0.00000000E+00 0.00000000E+00 0.14962685E+04 0.14962685E+04 0.32000000E+00 0.0000E+00 0.9000E+01
       21 -1    0    0  501  503 0.00000000E+00 0.00000000E+00 -.34762156E+02 0.34770245E+02 0.75000000E+00 0.0000E+00 0.9000E+01
       25  1    1    2    0    0 0.20807696E+02 0.16490772E+02 0.51376585E+03 0.52941973E+03 0.12500000E+03 0.0000E+00 0.9000E+01
       24  1    1    2    0    0 -.27855137E+02 -.21787515E+02 0.74084152E+03 0.74603216E+03 0.80419002E+02 0.0000E+00 0.9000E+01
        1  1    1    2  501    0 0.10778529E+02 0.18321001E+02 0.22882038E+03 0.22980580E+03 0.32000000E+00 0.0000E+00 0.9000E+01
       21  1    1    2  502  503 -.37310884E+01 -.13024257E+02 -.21921425E+02 0.25781072E+02 0.75000000E+00 0.0000E+00 0.9000E+01
#aMCatNLO 2  0  0  2  1 0.21168849D+02 0.00000000D+00  -5  6  0 0.00000000D+00 0.00000000D+00 0.00000000D+00 0.00000000D+00 0.00000000D+00
  <mgrwgt>
 0.1857828980D+01    1    2    0
 0.127533587122144D+03 0.000000000000000D+00 0.000000000000000D+00 0.127533587122144D+03
 0.127533587122144D+03 0.000000000000000D+00 0.000000000000000D+00 -.127533587122144D+03
 0.135204441919730D+03 0.188238836748244D+02 0.956668559268401D+01 -.470040534953418D+02
 0.955571460692295D+02 -.292402092432938D+02 -.266218160057366D+02 0.331698852348125D+02
 0.243055862553285D+02 0.104163255684694D+02 0.170551304130526D+02 0.138341682605293D+02
 0.000000000000000D+00 -.000000000000000D+00 -.000000000000000D+00 -.000000000000000D+00
 0.127877794837889D+03 0.000000000000000D+00 0.000000000000000D+00 0.127877794837889D+03
 0.406789370020757D+03 0.000000000000000D+00 0.000000000000000D+00 -.406789370020757D+03
 0.136158882339545D+03 0.208072189308216D+02 0.164899919747084D+02 -.470040534953418D+02
 0.939047624338922D+02 -.278554735431823D+02 -.217880646361634D+02 0.331698852348125D+02
 0.253630877211336D+02 0.107793430561311D+02 0.183223298345904D+02 0.138341682605293D+02
 0.279240432364075D+03 -.373108844377041D+01 -.130242571731354D+02 -.278911575182867D+03
0.180203029863D-03 0.000000000000D+00 0.000000000000D+00 0.443414651980D-06 0.329890353281D-06  6 2 21 25 24 1 21 4 0.23019487D+00 0.53486278D-02 0.15680780D+05 0.15680780D+05 0.15680780D+05 0.12456310D+01  1  2  1  2  6  2       21 0.185782897970D+01 0.100000000000D+01
  </mgrwgt>
  </event>
  <event>
  6     66 0.45638357E-03 0.20867259E+02 0.75467711E-02 0.12399188E+00
        4 -1    0    0  502    0 0.00000000E+00 0.00000000E+00 0.80101590E+02 0.80116585E+02 0.15500000E+01 0.0000E+00 0.9000E+01
       21 -1    0    0  501  502 -.00000000E+00 -.00000000E+00 -.29809149E+03 0.29809243E+03 0.75000000E+00 0.0000E+00 0.9000E+01
       25  1    1    2    0    0 0.26618341E+02 -.12950094E+02 -.21810191E+03 0.25311990E+03 0.12500000E+03 0.0000E+00 0.9000E+01
       24  1    1    2    0    0 -.36704703E+02 -.68328456E+01 -.78429751E+00 0.88666533E+02 0.80419002E+02 0.0000E+00 0.9000E+01
        3  1    1    2  503    0 -.36918994E+01 0.28676683E+01 -.10712108E+02 0.11698415E+02 0.50000000E+00 0.0000E+00 0.9000E+01
       21  1    1    2  501  503 0.13778261E+02 0.16915271E+02 0.11608414E+02 0.24724171E+02 0.75000000E+00 0.0000E+00 0.9000E+01
#aMCatNLO 2  0  0  5  2 0.49476827D+01 0.00000000D+00  -5  6  0 0.00000000D+00 0.00000000D+00 0.00000000D+00 0.00000000D+00 0.00000000D+00
  <mgrwgt>
 0.8833748791D-01    2    2    0
 0.154533543370940D+03 0.000000000000000D+00 0.000000000000000D+00 0.154533543370940D+03
 0.154533543370940D+03 -.000000000000000D+00 -.000000000000000D+00 -.154533543370940D+03
 0.158325547080248D+03 0.250580447479168D+02 -.160103883851831D+02 -.925080575702839D+02
 0.106885737727316D+03 -.377714198551115D+02 -.892505726625869D+01 0.587452821089906D+02
 0.438558019343159D+02 0.127133751071947D+02 0.249354456514418D+02 0.337627754612932D+02
 0.000000000000000D+00 0.000000000000000D+00 -.000000000000000D+00 0.000000000000000D+00
 0.154533543370940D+03 0.000000000000000D+00 0.000000000000000D+00 0.154533543370940D+03
 0.154533543370940D+03 -.000000000000000D+00 -.000000000000000D+00 -.154533543370940D+03
 0.156284649988425D+03 0.263727491258418D+02 -.134317859851871D+02 -.890166110947730D+02
 0.107772233354128D+03 -.368743994248561D+02 -.716568149088270D+01 0.611274897537385D+02
 0.568055937675201D+01 -.311465939400486D+01 0.230431494157675D+01 -.415424895043235D+01
 0.393296440225754D+02 0.136163096930192D+02 0.182931525344930D+02 0.320433702914670D+02
-.147777751767D-05 0.000000000000D+00 0.000000000000D+00 0.180223785158D-06 0.000000000000D+00  6 4 21 25 24 3 21 4 0.12324548D-01 0.45861455D-01 0.14871134D+05 0.14871134D+05 0.14871134D+05 0.12482499D+01  1  2 13  3  6  5        3 -.354145994170D-02 0.100000000000D+01
0.383391724669D-04 0.000000000000D+00 0.000000000000D+00 0.180004510712D-06 0.102649442030D-06  6 4 21 25 24 3 21 4 0.12324548D-01 0.45861455D-01 0.14871134D+05 0.14871134D+05 0.14871134D+05 0.12482499D+01  1  2  1  3  6  5        3 0.918789478567D-01 0.100000000000D+01
  </mgrwgt>
  </event>
  <event>
  5     66 0.45638357E-03 0.72239795E+02 0.75467711E-02 0.11776386E+00
        2 -1    0    0  502    0 0.00000000E+00 0.00000000E+00 0.56699570E+03 0.56699579E+03 0.32000000E+00 0.0000E+00 0.9000E+01
       21 -1    0    0  501  502 0.00000000E+00 0.00000000E+00 -.18950908E+03 0.18951056E+03 0.75000000E+00 0.0000E+00 0.9000E+01
       25  1    1    2    0    0 0.12421752E+02 -.54658145E+01 0.32469841E+03 0.34819281E+03 0.12500000E+03 0.0000E+00 0.9000E+01
       24  1    1    2    0    0 -.26072922E+02 -.82490288E+02 0.20233122E+03 0.23428526E+03 0.80419002E+02 0.0000E+00 0.9000E+01
        1  1    1    2  501    0 0.13651170E+02 0.87956103E+02 -.14954301E+03 0.17402829E+03 0.32000000E+00 0.0000E+00 0.9000E+01
#aMCatNLO 1  0  0  2  1 0.10004830D+02 0.00000000D+00  -5  6  0 0.00000000D+00 0.00000000D+00 0.00000000D+00 0.00000000D+00 0.00000000D+00
  <mgrwgt>
 0.6264864415D-01   32    2    0
 0.327797849076758D+03 0.000000000000000D+00 0.000000000000000D+00 0.327797849076758D+03
 0.327797849076758D+03 0.000000000000000D+00 0.000000000000000D+00 -.327797849076758D+03
 0.214828740243591D+03 0.124217490478445D+02 -.546583243054734D+01 0.174190161780400D+03
 0.153846314899783D+03 -.260729235989285D+02 -.824903010959741D+02 0.985749741768806D+02
 0.286920643010142D+03 0.136511745510840D+02 0.879561335265214D+02 -.272765135957281D+03
 0.000000000000000D+00 -.000000000000000D+00 0.000000000000000D+00 -.000000000000000D+00
 0.328274814007880D+03 0.000000000000000D+00 0.000000000000000D+00 0.328274814007880D+03
 0.384865008636204D+03 0.000000000000000D+00 0.000000000000000D+00 -.384865008636204D+03
 0.214939461902617D+03 0.124615600114553D+02 -.874467517896428D+01 0.174190161780400D+03
 0.155118162075768D+03 -.260443031158670D+02 -.848474925535800D+02 0.985749741768806D+02
 0.285614409931358D+03 0.137042105180186D+02 0.835880755892962D+02 -.272765135957281D+03
 0.574677887343412D+02 -.121467413606859D+00 0.100040921432481D+02 -.565901946283250D+02
0.150673176183D-05 0.000000000000D+00 0.000000000000D+00 0.289313427432D-05 0.000000000000D+00  6 2 21 25 24 1 21 2 0.87230229D-01 0.29155364D-01 0.27699093D+05 0.27699093D+05 0.27699093D+05 0.12185526D+01  1  2  2  2  6  2       21 0.171865086804D-02 0.100000000000D+01
0.787936609826D-07 0.795124195519D-07 -.304165731846D-08 0.289313427432D-05 0.000000000000D+00  6 2 21 25 24 1 21 4 0.87230229D-01 0.29155364D-01 0.27699093D+05 0.27699093D+05 0.27699093D+05 0.12185526D+01  1  2  3  2  6  2       21 0.133453978207D-03 0.100000000000D+01
0.130559394999D-06 0.000000000000D+00 0.000000000000D+00 0.289313427432D-05 0.000000000000D+00  6 2 21 25 24 1 21 4 0.87230229D-01 0.29155364D-01 0.27699093D+05 0.27699093D+05 0.27699093D+05 0.12185526D+01  1  2 15  2  6  2       21 0.221130360458D-03 0.100000000000D+01
0.856076697810D-04 0.000000000000D+00 0.000000000000D+00 0.288338062555D-05 0.000000000000D+00  6 2 21 25 24 1 21 4 0.87230229D-01 0.34250006D-01 0.28968296D+05 0.28968296D+05 0.28968296D+05 0.12164968D+01  1  2 12  2  6  2       21 0.105001773352D+00 0.100000000000D+01
0.706879383134D-04 0.000000000000D+00 0.000000000000D+00 0.288338062555D-05 0.000000000000D+00  6 2 21 25 24 1 21 4 0.87230229D-01 0.35257215D-01 0.28968296D+05 0.28968296D+05 0.28968296D+05 0.12164968D+01  1  2 12  2  6  2       21 0.818738117036D-01 0.100000000000D+01
-.114663210767D-03 0.000000000000D+00 0.000000000000D+00 0.289313427432D-05 0.000000000000D+00  6 2 21 25 24 1 21 4 0.87230229D-01 0.29155364D-01 0.27699093D+05 0.27699093D+05 0.27699093D+05 0.12185526D+01  1  2  4  2  6  2       21 -.194206760290D+00 0.100000000000D+01
-.175434219787D-03 0.000000000000D+00 -.307103645319D-05 0.289313427432D-05 0.000000000000D+00  6 2 21 25 24 1 21 4 0.87230229D-01 0.34255208D-01 0.27699093D+05 0.27699093D+05 0.27699093D+05 0.12185526D+01  1  2  5  2  6  2       21 -.216861351973D+00 0.100000000000D+01
0.168285175038D-03 0.000000000000D+00 0.291712461933D-05 0.289313427432D-05 0.000000000000D+00  6 2 21 25 24 1 21 4 0.87230229D-01 0.29155364D-01 0.27699093D+05 0.27699093D+05 0.27699093D+05 0.12185526D+01  1  2  6  2  6  2       21 0.285027066923D+00 0.100000000000D+01
0.355556810036D-05 0.000000000000D+00 0.000000000000D+00 0.288338062555D-05 0.000000000000D+00  6 2 -1 25 24 1 -1 4 0.87230229D-01 0.34250006D-01 0.28968296D+05 0.28968296D+05 0.28968296D+05 0.12164968D+01  1  2 12  5  6  2       21 0.393195421333D-03 0.100000000000D+01
0.354491711440D-05 0.000000000000D+00 0.000000000000D+00 0.288338062555D-05 0.000000000000D+00  6 2 -1 25 24 1 -1 4 0.87230229D-01 0.35257215D-01 0.28968296D+05 0.28968296D+05 0.28968296D+05 0.12164968D+01  1  2 12  5  6  2       21 0.372912944641D-03 0.100000000000D+01
-.718868832586D-05 0.000000000000D+00 -.136178910093D-06 0.289313427432D-05 0.000000000000D+00  6 2 -1 25 24 1 -1 4 0.87230229D-01 0.34255208D-01 0.27699093D+05 0.27699093D+05 0.27699093D+05 0.12185526D+01  1  2  5  5  6  2       21 -.800383530072D-03 0.100000000000D+01
0.355556810036D-05 0.000000000000D+00 0.000000000000D+00 0.288338062555D-05 0.000000000000D+00  6 2 1 25 24 1 1 4 0.87230229D-01 0.34250006D-01 0.28968296D+05 0.28968296D+05 0.28968296D+05 0.12164968D+01  1  2 12  6  6  2       21 0.733942464925D-03 0.100000000000D+01
0.354491711440D-05 0.000000000000D+00 0.000000000000D+00 0.288338062555D-05 0.000000000000D+00  6 2 1 25 24 1 1 4 0.87230229D-01 0.35257215D-01 0.28968296D+05 0.28968296D+05 0.28968296D+05 0.12164968D+01  1  2 12  6  6  2       21 0.705769496041D-03 0.100000000000D+01
-.718868832586D-05 0.000000000000D+00 -.136178910093D-06 0.289313427432D-05 0.000000000000D+00  6 2 1 25 24 1 1 4 0.87230229D-01 0.34255208D-01 0.27699093D+05 0.27699093D+05 0.27699093D+05 0.12185526D+01  1  2  5  6  6  2       21 -.149407158230D-02 0.100000000000D+01
0.355556810036D-05 0.000000000000D+00 0.000000000000D+00 0.288338062555D-05 0.000000000000D+00  6 2 -2 25 24 1 -2 4 0.87230229D-01 0.34250006D-01 0.28968296D+05 0.28968296D+05 0.28968296D+05 0.12164968D+01  1  2 12  7  6  2       21 0.339663098550D-03 0.100000000000D+01
0.354491711440D-05 0.000000000000D+00 0.000000000000D+00 0.288338062555D-05 0.000000000000D+00  6 2 -2 25 24 1 -2 4 0.87230229D-01 0.35257215D-01 0.28968296D+05 0.28968296D+05 0.28968296D+05 0.12164968D+01  1  2 12  7  6  2       21 0.320941944671D-03 0.100000000000D+01
-.718868832586D-05 0.000000000000D+00 -.136178910093D-06 0.289313427432D-05 0.000000000000D+00  6 2 -2 25 24 1 -2 4 0.87230229D-01 0.34255208D-01 0.27699093D+05 0.27699093D+05 0.27699093D+05 0.12185526D+01  1  2  5  7  6  2       21 -.691342815957D-03 0.100000000000D+01
0.355556810036D-05 0.000000000000D+00 0.000000000000D+00 0.288338062555D-05 0.000000000000D+00  6 2 2 25 24 1 2 4 0.87230229D-01 0.34250006D-01 0.28968296D+05 0.28968296D+05 0.28968296D+05 0.12164968D+01  1  2 12  8  6  2       21 0.985934761995D-03 0.100000000000D+01
0.354491711440D-05 0.000000000000D+00 0.000000000000D+00 0.288338062555D-05 0.000000000000D+00  6 2 2 25 24 1 2 4 0.87230229D-01 0.35257215D-01 0.28968296D+05 0.28968296D+05 0.28968296D+05 0.12164968D+01  1  2 12  8  6  2       21 0.952715298327D-03 0.100000000000D+01
-.718868832586D-05 0.000000000000D+00 -.136178910093D-06 0.289313427432D-05 0.000000000000D+00  6 2 2 25 24 1 2 4 0.87230229D-01 0.34255208D-01 0.27699093D+05 0.27699093D+05 0.27699093D+05 0.12185526D+01  1  2  5  8  6  2       21 -.200688348199D-02 0.100000000000D+01
0.355556810036D-05 0.000000000000D+00 0.000000000000D+00 0.288338062555D-05 0.000000000000D+00  6 2 -3 25 24 1 -3 4 0.87230229D-01 0.34250006D-01 0.28968296D+05 0.28968296D+05 0.28968296D+05 0.12164968D+01  1  2 12  9  6  2       21 0.216618228968D-03 0.100000000000D+01
0.355556810036D-05 0.000000000000D+00 0.000000000000D+00 0.288338062555D-05 0.000000000000D+00  6 2 -4 25 24 1 -4 4 0.87230229D-01 0.34250006D-01 0.28968296D+05 0.28968296D+05 0.28968296D+05 0.12164968D+01  1  2 12  9  6  2       21 0.181475345896D-03 0.100000000000D+01
0.354491711440D-05 0.000000000000D+00 0.000000000000D+00 0.288338062555D-05 0.000000000000D+00  6 2 -3 25 24 1 -3 4 0.87230229D-01 0.35257215D-01 0.28968296D+05 0.28968296D+05 0.28968296D+05 0.12164968D+01  1  2 12  9  6  2       21 0.204420597960D-03 0.100000000000D+01
0.354491711440D-05 0.000000000000D+00 0.000000000000D+00 0.288338062555D-05 0.000000000000D+00  6 2 -4 25 24 1 -4 4 0.87230229D-01 0.35257215D-01 0.28968296D+05 0.28968296D+05 0.28968296D+05 0.12164968D+01  1  2 12  9  6  2       21 0.171053639230D-03 0.100000000000D+01
-.718868832586D-05 0.000000000000D+00 -.136178910093D-06 0.289313427432D-05 0.000000000000D+00  6 2 -3 25 24 1 -3 4 0.87230229D-01 0.34255208D-01 0.27699093D+05 0.27699093D+05 0.27699093D+05 0.12185526D+01  1  2  5  9  6  2       21 -.440483230024D-03 0.100000000000D+01
-.718868832586D-05 0.000000000000D+00 -.136178910093D-06 0.289313427432D-05 0.000000000000D+00  6 2 -4 25 24 1 -4 4 0.87230229D-01 0.34255208D-01 0.27699093D+05 0.27699093D+05 0.27699093D+05 0.12185526D+01  1  2  5  9  6  2       21 -.368847996493D-03 0.100000000000D+01
0.355556810036D-05 0.000000000000D+00 0.000000000000D+00 0.288338062555D-05 0.000000000000D+00  6 2 3 25 24 1 3 4 0.87230229D-01 0.34250006D-01 0.28968296D+05 0.28968296D+05 0.28968296D+05 0.12164968D+01  1  2 12 10  6  2       21 0.216638706136D-03 0.100000000000D+01
0.355556810036D-05 0.000000000000D+00 0.000000000000D+00 0.288338062555D-05 0.000000000000D+00  6 2 4 25 24 1 4 4 0.87230229D-01 0.34250006D-01 0.28968296D+05 0.28968296D+05 0.28968296D+05 0.12164968D+01  1  2 12 10  6  2       21 0.181475345896D-03 0.100000000000D+01
0.354491711440D-05 0.000000000000D+00 0.000000000000D+00 0.288338062555D-05 0.000000000000D+00  6 2 3 25 24 1 3 4 0.87230229D-01 0.35257215D-01 0.28968296D+05 0.28968296D+05 0.28968296D+05 0.12164968D+01  1  2 12 10  6  2       21 0.204443466597D-03 0.100000000000D+01
0.354491711440D-05 0.000000000000D+00 0.000000000000D+00 0.288338062555D-05 0.000000000000D+00  6 2 4 25 24 1 4 4 0.87230229D-01 0.35257215D-01 0.28968296D+05 0.28968296D+05 0.28968296D+05 0.12164968D+01  1  2 12 10  6  2       21 0.171053639230D-03 0.100000000000D+01
-.718868832586D-05 0.000000000000D+00 -.136178910093D-06 0.289313427432D-05 0.000000000000D+00  6 2 3 25 24 1 3 4 0.87230229D-01 0.34255208D-01 0.27699093D+05 0.27699093D+05 0.27699093D+05 0.12185526D+01  1  2  5 10  6  2       21 -.440524536219D-03 0.100000000000D+01
-.718868832586D-05 0.000000000000D+00 -.136178910093D-06 0.289313427432D-05 0.000000000000D+00  6 2 4 25 24 1 4 4 0.87230229D-01 0.34255208D-01 0.27699093D+05 0.27699093D+05 0.27699093D+05 0.12185526D+01  1  2  5 10  6  2       21 -.368847996493D-03 0.100000000000D+01
  </mgrwgt>
  </event>
  <event>
  6     66 0.45638357E-03 0.45320257E+02 0.75467711E-02 0.12103754E+00
        2 -1    0    0  502    0 0.00000000E+00 0.00000000E+00 0.15292118E+04 0.15292118E+04 0.32000000E+00 0.0000E+00 0.9000E+01
       21 -1    0    0  501  502 0.00000000E+00 0.00000000E+00 -.16158226E+02 0.16175623E+02 0.75000000E+00 0.0000E+00 0.9000E+01
       25  1    1    2    0    0 -.88575367E+01 -.22428804E+02 0.40080935E+03 0.42054089E+03 0.12500000E+03 0.0000E+00 0.9000E+01
       24  1    1    2    0    0 0.52595404E+02 0.46515252E+02 0.90201761E+03 0.90831323E+03 0.80419002E+02 0.0000E+00 0.9000E+01
        1  1    1    2  503    0 -.29398483E+02 -.19649992E+02 0.16881534E+03 0.17247932E+03 0.32000000E+00 0.0000E+00 0.9000E+01
       21  1    1    2  501  503 -.14339384E+02 -.44364564E+01 0.41411266E+02 0.44054007E+02 0.75000000E+00 0.0000E+00 0.9000E+01
#aMCatNLO 2  0  0  5  2 0.66063142D+01 0.00000000D+00  -5  6  0 0.00000000D+00 0.00000000D+00 0.00000000D+00 0.00000000D+00 0.00000000D+00
  <mgrwgt>
 0.2673111300D+00    2    2    0
 0.157234913894938D+03 0.000000000000000D+00 0.000000000000000D+00 0.157234913894938D+03
 0.157234913894938D+03 -.000000000000000D+00 -.000000000000000D+00 -.157234913894938D+03
 0.138011208527883D+03 -.812791837001128D+01 -.220270026179172D+02 -.535802368226141D+02
 0.124165477080599D+03 0.532501577467932D+02 0.468758246822436D+02 0.625853617436487D+02
 0.522931421813951D+02 -.451222393767819D+02 -.248488220643264D+02 -.900512492103456D+01
 0.000000000000000D+00 0.000000000000000D+00 0.000000000000000D+00 -.000000000000000D+00
 0.157234913894938D+03 0.000000000000000D+00 0.000000000000000D+00 0.157234913894938D+03
 0.157234913894938D+03 -.000000000000000D+00 -.000000000000000D+00 -.157234913894938D+03
 0.138177427008415D+03 -.885796580165213D+01 -.224290398168222D+02 -.537259336765604D+02
 0.123683789872815D+03 0.525950195640724D+02 0.465150400147532D+02 0.624546146606709D+02
 0.350888449625824D+02 -.291427842994445D+02 -.195421926407149D+02 -.166945731844534D+00
 0.175197659460636D+02 -.145942694629757D+02 -.454380755721603D+01 -.856173525226596D+01
-.559981661597D-05 0.000000000000D+00 0.000000000000D+00 0.292156662424D-06 0.000000000000D+00  6 2 21 25 24 1 21 4 0.23526469D+00 0.24872217D-02 0.20225925D+05 0.20225925D+05 0.20225925D+05 0.12332893D+01  1  2 13  3  6  5        1 -.189320285341D+00 0.100000000000D+01
0.135064881318D-04 0.000000000000D+00 0.000000000000D+00 0.291918764213D-06 0.660912355632D-07  6 2 21 25 24 1 21 4 0.23526469D+00 0.24872217D-02 0.20225925D+05 0.20225925D+05 0.20225925D+05 0.12332893D+01  1  2  1  3  6  5        1 0.456631415355D+00 0.100000000000D+01
  </mgrwgt>
  </event>
  <event>
  6     66 0.45638357E-03 0.23199492E+03 0.75467711E-02 0.87801305E-01
        2 -1    0    0  502    0 0.00000000E+00 0.00000000E+00 0.27711032E+04 0.27711032E+04 0.32000000E+00 0.0000E+00 0.9000E+01
        2 -1    0    0  501    0 0.00000000E+00 0.00000000E+00 -.21145657E+04 0.21145657E+04 0.32000000E+00 0.0000E+00 0.9000E+01
       25  1    1    2    0    0 -.29117264E+03 -.41809430E+03 0.84427918E+03 0.99399029E+03 0.12500000E+03 0.0000E+00 0.9000E+01
       24  1    1    2    0    0 -.18375284E+03 -.45345368E+03 0.11150619E+04 0.12203342E+04 0.80419002E+02 0.0000E+00 0.9000E+01
        1  1    1    2  501    0 -.86995783E+02 -.66903263E+03 -.23476611E+03 0.71434456E+03 0.32000000E+00 0.0000E+00 0.9000E+01
        2  1    1    2  502    0 0.56192127E+03 0.15405806E+04 -.10680375E+04 0.19569998E+04 0.32000000E+00 0.0000E+00 0.9000E+01
#aMCatNLO 2  0  0  2  2 0.12998223D+03 0.00000000D+00  -5  6  0 0.00000000D+00 0.00000000D+00 0.00000000D+00 0.00000000D+00 0.00000000D+00
  <mgrwgt>
 0.1203883283D-03    1    2    0
 0.853492759790489D+03 0.000000000000000D+00 0.000000000000000D+00 0.853492759790489D+03
 0.853492759790489D+03 0.000000000000000D+00 0.000000000000000D+00 -.853492759790489D+03
 0.379219270903778D+03 -.154082995904529D+03 -.422451138327680D+02 0.320399806733922D+03
 0.497432864442256D+03 -.189432205600084D+02 -.160654116689027D+01 0.490520959891778D+03
 0.830333384234944D+03 0.173026216464538D+03 0.438516549996583D+02 -.810920766625700D+03
 0.000000000000000D+00 0.000000000000000D+00 0.000000000000000D+00 -.000000000000000D+00
 0.140962955181564D+04 0.000000000000000D+00 0.000000000000000D+00 0.140962955181564D+04
 0.415689334108904D+04 0.000000000000000D+00 0.000000000000000D+00 -.415689334108904D+04
 0.614707577081943D+03 -.291172648594676D+03 -.418094316963506D+03 0.320399806733922D+03
 0.697469277855113D+03 -.183752854204809D+03 -.453453695624810D+03 0.490520959891778D+03
 0.105487694691008D+04 -.869957661072212D+02 -.669032600145111D+03 -.810920766625700D+03
 0.319946909105755D+04 0.561921268906706D+03 0.154058061273343D+04 -.274726378927339D+04
0.510356503475D-03 0.000000000000D+00 0.000000000000D+00 0.348213463513D-05 0.525050234453D-11  6 2 2 25 24 1 2 4 0.42632357D+00 0.32531780D+00 0.27804983D+07 0.27804983D+07 0.27804983D+07 0.10504017D+01  1  2  1  8  6  2       21 0.120388328252D-03 0.100000000000D+01
  </mgrwgt>
  </event>
  <event>
  6     66 0.45638357E-03 0.12041781E+03 0.75467711E-02 0.10641600E+00
        2 -1    0    0  502    0 0.00000000E+00 0.00000000E+00 0.52049277E+03 0.52049286E+03 0.32000000E+00 0.0000E+00 0.9000E+01
       21 -1    0    0  501  503 0.00000000E+00 0.00000000E+00 -.71208691E+03 0.71208730E+03 0.75000000E+00 0.0000E+00 0.9000E+01
       25  1    1    2    0    0 0.10074075E+03 0.46029708E+02 0.21503918E+03 0.27227611E+03 0.12500000E+03 0.0000E+00 0.9000E+01
       24  1    1    2    0    0 -.10334337E+02 -.10963373E+02 0.19441820E+03 0.21093280E+03 0.80419002E+02 0.0000E+00 0.9000E+01
        1  1    1    2  501    0 -.95818202E+02 0.19304627E+03 -.24309961E+03 0.32487769E+03 0.32000000E+00 0.0000E+00 0.9000E+01
       21  1    1    2  502  503 0.54117912E+01 -.22811261E+03 -.35795191E+03 0.42449356E+03 0.75000000E+00 0.0000E+00 0.9000E+01
#aMCatNLO 2  0  0  2  1 0.74339568D+01 0.00000000D+00  -5  6  0 0.00000000D+00 0.00000000D+00 0.00000000D+00 0.00000000D+00 0.00000000D+00
  <mgrwgt>
 0.1907878855D-01    1    2    0
 0.378571132036979D+03 0.000000000000000D+00 0.000000000000000D+00 0.378571132036979D+03
 0.378571132036979D+03 0.000000000000000D+00 0.000000000000000D+00 -.378571132036979D+03
 0.230200464834941D+03 0.102360179506539D+03 -.222304984448230D+02 0.162466773835473D+03
 0.185637468402062D+03 -.907470180513311D+01 -.640578788036540D+02 0.154299357324262D+03
 0.341304330836955D+03 -.932854777014055D+02 0.862883772484771D+02 -.316766131159735D+03
 0.000000000000000D+00 0.000000000000000D+00 -.000000000000000D+00 -.000000000000000D+00
 0.422388306070196D+03 0.000000000000000D+00 0.000000000000000D+00 0.422388306070196D+03
 0.877476777115149D+03 0.000000000000000D+00 0.000000000000000D+00 -.877476777115149D+03
 0.232997612149602D+03 0.100740760113906D+03 0.460297069139275D+02 0.162466773835473D+03
 0.174649653560936D+03 -.103343269659738D+02 -.109633731152635D+02 0.154299357324262D+03
 0.383130235988196D+03 -.958182243696291D+02 0.193046273616239D+03 -.316766131159735D+03
 0.509087581486610D+03 0.541179122169712D+01 -.228112607414903D+03 -.455088471044954D+03
0.233971674379D-03 0.000000000000D+00 0.000000000000D+00 0.183646980632D-05 0.132507154163D-08  6 2 21 25 24 1 21 4 0.80075799D-01 0.10955180D+00 0.11989710D+06 0.11989710D+06 0.11989710D+06 0.11564008D+01  1  2  1  2  6  2       21 0.190787885452D-01 0.100000000000D+01
  </mgrwgt>
  </event>
  <event>
  5     66 -.45638357E-03 0.33640125E+02 0.75467711E-02 0.12199267E+00
        2 -1    0    0  502    0 0.00000000E+00 0.00000000E+00 0.49735115E+03 0.49735125E+03 0.32000000E+00 0.0000E+00 0.9000E+01
       21 -1    0    0  501  502 0.00000000E+00 0.00000000E+00 -.38494834E+02 0.38502139E+02 0.75000000E+00 0.0000E+00 0.9000E+01
       25  1    1    2    0    0 -.58328370E+02 0.81014279E+00 0.19008151E+03 0.23485918E+03 0.12500000E+03 0.0000E+00 0.9000E+01
       24  1    1    2    0    0 0.51354521E+02 -.33718098E+02 0.21383952E+03 0.23657716E+03 0.80419002E+02 0.0000E+00 0.9000E+01
        1  1    1    2  501    0 0.69738482E+01 0.32907955E+02 0.54935284E+02 0.64417047E+02 0.32000000E+00 0.0000E+00 0.9000E+01
#aMCatNLO 1  0  0  5  2 0.60782620D+01 0.00000000D+00  -5  6  0 0.00000000D+00 0.00000000D+00 0.00000000D+00 0.00000000D+00 0.00000000D+00
  <mgrwgt>
 -.8041703034D+00    8    2    0
 0.138374255939431D+03 0.000000000000000D+00 0.000000000000000D+00 0.138374255939431D+03
 0.138374255939431D+03 -.000000000000000D+00 -.000000000000000D+00 -.138374255939431D+03
 0.139585230046345D+03 -.583285287514129D+02 0.809391919872324D+00 -.213579976942276D+02
 0.103520319572274D+03 0.513544034287532D+02 -.337186549310405D+02 0.217949115183662D+02
 0.336429622602430D+02 0.697412532265966D+01 0.329092630111683D+02 -.436913824138657D+00
 0.000000000000000D+00 0.000000000000000D+00 0.000000000000000D+00 -.000000000000000D+00
 0.138374255939431D+03 0.000000000000000D+00 0.000000000000000D+00 0.138374255939431D+03
 0.138374255939431D+03 -.000000000000000D+00 -.000000000000000D+00 -.138374255939431D+03
 0.139493127471110D+03 -.580724729889025D+02 0.201765905648363D+01 -.213740390323474D+02
 0.103324132676960D+03 0.515441842287151D+02 -.328231238111561D+02 0.217830221628954D+02
 0.126861521840751D+02 0.128431557557497D+01 0.111888326306144D+02 0.583943619743781D+01
 0.212450995467168D+02 0.524397318461244D+01 0.196166321240581D+02 -.624841932798573D+01
0.466395574217D-05 0.000000000000D+00 0.000000000000D+00 0.494222448608D-06 0.000000000000D+00  6 2 21 25 24 1 21 2 0.76516132D-01 0.59228520D-02 0.18602460D+05 0.18602460D+05 0.18602460D+05 0.12373046D+01  1  2  2  3  6  5        1 0.111791332644D+00 0.100000000000D+01
-.206800126760D-07 0.246123706381D-06 -.941518289822D-08 0.494222448608D-06 0.000000000000D+00  6 2 21 25 24 1 21 4 0.76516132D-01 0.59228520D-02 0.18602460D+05 0.18602460D+05 0.18602460D+05 0.12373046D+01  1  2  3  3  6  5        1 -.758853173634D-03 0.100000000000D+01
0.451817811470D-06 0.000000000000D+00 0.000000000000D+00 0.494222448608D-06 0.000000000000D+00  6 2 21 25 24 1 21 4 0.76516132D-01 0.59228520D-02 0.18602460D+05 0.18602460D+05 0.18602460D+05 0.12373046D+01  1  2 15  3  6  5        1 0.165794569622D-01 0.100000000000D+01
0.255788061977D-05 0.000000000000D+00 0.000000000000D+00 0.494894732149D-06 0.000000000000D+00  6 2 21 25 24 1 21 4 0.76516132D-01 0.59228520D-02 0.18281134D+05 0.18281134D+05 0.18281134D+05 0.12381458D+01  1  2 12  3  6  5        1 0.940891824447D-01 0.100000000000D+01
-.341904069170D-04 0.000000000000D+00 0.000000000000D+00 0.494222448608D-06 0.000000000000D+00  6 2 21 25 24 1 21 4 0.76516132D-01 0.59228520D-02 0.18602460D+05 0.18602460D+05 0.18602460D+05 0.12373046D+01  1  2  4  3  6  5        1 -.125461716118D+01 0.100000000000D+01
-.297689196644D-05 0.000000000000D+00 0.000000000000D+00 0.494222448608D-06 0.000000000000D+00  6 2 21 25 24 1 21 4 0.76516132D-01 0.59228520D-02 0.18602460D+05 0.18602460D+05 0.18602460D+05 0.12373046D+01  1  2  5  3  6  5        1 -.109237066325D+00 0.100000000000D+01
0.762861722001D-05 0.000000000000D+00 -.000000000000D+00 0.494222448608D-06 0.000000000000D+00  6 2 21 25 24 1 21 4 0.76516132D-01 0.59228520D-02 0.18602460D+05 0.18602460D+05 0.18602460D+05 0.12373046D+01  1  2  6  3  6  5        1 0.279932148908D+00 0.100000000000D+01
0.157814793404D-05 0.000000000000D+00 0.000000000000D+00 0.494222448608D-06 0.611432008282D-07  6 2 21 25 24 1 21 4 0.76516132D-01 0.59228520D-02 0.18281134D+05 0.18281134D+05 0.18281134D+05 0.12381458D+01  1  2 11  3  6  5        1 0.580506563688D-01 0.100000000000D+01
  </mgrwgt>
  </event>
  <event>
  5     66 0.45638357E-03 0.36502936E+02 0.75467711E-02 0.11388074E+00
        2 -1    0    0  502    0 0.00000000E+00 0.00000000E+00 0.23691455E+03 0.23691477E+03 0.32000000E+00 0.0000E+00 0.9000E+01
       21 -1    0    0  501  502 0.00000000E+00 0.00000000E+00 -.22934436E+03 0.22934558E+03 0.75000000E+00 0.0000E+00 0.9000E+01
       25  1    1    2    0    0 -.15856628E+02 -.65066480E+02 0.10566791E+03 0.17684962E+03 0.12500000E+03 0.0000E+00 0.9000E+01
       24  1    1    2    0    0 0.29978666E+02 0.31405975E+02 0.71432335E+02 0.11599504E+03 0.80419002E+02 0.0000E+00 0.9000E+01
        1  1    1    2  501    0 -.14122038E+02 0.33660505E+02 -.16953005E+03 0.17341569E+03 0.32000000E+00 0.0000E+00 0.9000E+01
#aMCatNLO 1  0  0  5  2 0.88171946D+01 0.00000000D+00  -5  6  0 0.00000000D+00 0.00000000D+00 0.00000000D+00 0.00000000D+00 0.00000000D+00
  <mgrwgt>
 0.3339314562D+00    3    2    0
 0.233099445660724D+03 0.000000000000000D+00 0.000000000000000D+00 0.233099445660724D+03
 0.233099445660724D+03 -.000000000000000D+00 -.000000000000000D+00 -.233099445660724D+03
 0.175157151230413D+03 -.158566193322573D+02 -.650665012100436D+02 0.102810241079326D+03
 0.114850448141611D+03 0.299786720203493D+02 0.314059612328657D+02 0.695582799305337D+02
 0.176191291949423D+03 -.141220526880919D+02 0.336605399771779D+02 -.172368521009860D+03
 0.000000000000000D+00 0.000000000000000D+00 0.000000000000000D+00 0.000000000000000D+00
 0.233099445660724D+03 0.000000000000000D+00 0.000000000000000D+00 0.233099445660724D+03
 0.233099445660724D+03 -.000000000000000D+00 -.000000000000000D+00 -.233099445660724D+03
 0.146716214370888D+03 -.201865765742283D+02 -.547458557584278D+02 0.499603939417488D+02
 0.992466071988335D+02 0.270985607892625D+02 0.382708343057770D+02 0.344047137874947D+02
 0.967872211288854D+02 -.830040892505557D+02 -.483340630800551D+02 -.119124173747733D+02
 0.123448848622841D+03 0.760921050355216D+02 0.648090845327059D+02 -.724526903544702D+02
0.115079937666D-03 0.000000000000D+00 0.000000000000D+00 0.643474381204D-05 0.000000000000D+00  6 2 21 25 24 1 21 2 0.36448503D-01 0.35283858D-01 0.18185024D+05 0.18185024D+05 0.18185024D+05 0.12384007D+01  1  2  2  3  6  5        1 0.241054065297D+00 0.100000000000D+01
0.189548544291D-04 0.607293515510D-05 -.232313238148D-06 0.643474381204D-05 0.000000000000D+00  6 2 21 25 24 1 21 4 0.36448503D-01 0.35283858D-01 0.18185024D+05 0.18185024D+05 0.18185024D+05 0.12384007D+01  1  2  3  3  6  5        1 0.608916388858D-01 0.100000000000D+01
0.995679021139D-05 0.000000000000D+00 0.000000000000D+00 0.643474381204D-05 0.000000000000D+00  6 2 21 25 24 1 21 4 0.36448503D-01 0.35283858D-01 0.18185024D+05 0.18185024D+05 0.18185024D+05 0.12384007D+01  1  2 15  3  6  5        1 0.319857520554D-01 0.100000000000D+01
  </mgrwgt>
  </event>
  <event>
  6     66 -.45638357E-03 0.35508885E+02 0.75467711E-02 0.12031540E+00
        2 -1    0    0  503    0 0.00000000E+00 0.00000000E+00 0.23431277E+03 0.23431299E+03 0.32000000E+00 0.0000E+00 0.9000E+01
       21 -1    0    0  501  502 0.00000000E+00 0.00000000E+00 -.96122169E+02 0.96125095E+02 0.75000000E+00 0.0000E+00 0.9000E+01
       25  1    1    2    0    0 0.33061467E+02 -.41188427E+02 0.78266144E+02 0.15665292E+03 0.12500000E+03 0.0000E+00 0.9000E+01
       24  1    1    2    0    0 0.10365599E+02 0.26368285E+02 0.36948641E+02 0.92925508E+02 0.80419002E+02 0.0000E+00 0.9000E+01
        1  1    1    2  501    0 -.30697714E+02 0.37647065E+02 0.43801634E+01 0.48774372E+02 0.32000000E+00 0.0000E+00 0.9000E+01
       21  1    1    2  503  502 -.12729352E+02 -.22826924E+02 0.18595654E+02 0.32085288E+02 0.75000000E+00 0.0000E+00 0.9000E+01
#aMCatNLO 2  0  0  1  2 0.26136274D+02 0.00000000D+00  -5  6  0 0.00000000D+00 0.00000000D+00 0.00000000D+00 0.00000000D+00 0.00000000D+00
  <mgrwgt>
 -.6923027680D-01    2    2    0
 0.136040743446069D+03 0.000000000000000D+00 0.000000000000000D+00 0.136040743446069D+03
 0.136040743446069D+03 0.000000000000000D+00 0.000000000000000D+00 -.136040743446069D+03
 0.139285532937234D+03 0.266195475389453D+02 -.527413842639479D+02 0.168880360123285D+02
 0.829598944342210D+02 0.643964439339889D+01 0.193274805531410D+02 -.328033109720489D+00
 0.498360595206827D+02 -.330591919323442D+02 0.334139037108069D+02 -.165600029026080D+02
 0.000000000000000D+00 -.000000000000000D+00 -.000000000000000D+00 0.000000000000000D+00
 0.153234033394011D+03 0.000000000000000D+00 0.000000000000000D+00 0.153234033394011D+03
 0.146975142677762D+03 0.000000000000000D+00 0.000000000000000D+00 -.146975142677762D+03
 0.136747227226079D+03 0.330618260289519D+02 -.411887612498678D+02 0.168880360123285D+02
 0.852645805817256D+02 0.103658048833592D+02 0.263680721859999D+02 -.328033109720489D+00
 0.513221277859814D+02 -.306982793588213D+02 0.376476127895777D+02 -.165600029026080D+02
 0.268752404779874D+02 -.127293515534897D+02 -.228269237257098D+02 0.625889071624900D+01
-.603986636314D-05 0.000000000000D+00 0.000000000000D+00 0.562973905850D-06 0.000000000000D+00  6 2 21 25 24 1 21 4 0.37199256D-01 0.13687597D-01 0.21856318D+05 0.21856318D+05 0.21856318D+05 0.12296048D+01  1  2 13  1  6  1        2 -.108840085230D+00 0.100000000000D+01
0.244280652267D-05 0.000000000000D+00 0.000000000000D+00 0.571549157187D-06 0.786379941408D-08  6 2 21 25 24 1 21 4 0.36047098D-01 0.14787750D-01 0.21856318D+05 0.21856318D+05 0.21856318D+05 0.12296048D+01  1  2  1  1  6  1        2 0.396098084316D-01 0.100000000000D+01
  </mgrwgt>
  </event>
  <event>
  5     66 -.45638357E-03 0.11874421E+03 0.75467711E-02 0.10932396E+00
        2 -1    0    0  502    0 0.00000000E+00 0.00000000E+00 0.32004560E+04 0.32004560E+04 0.32000000E+00 0.0000E+00 0.9000E+01
       21 -1    0    0  501  502 0.00000000E+00 0.00000000E+00 -.28015496E+02 0.28025533E+02 0.75000000E+00 0.0000E+00 0.9000E+01
       25  1    1    2    0    0 -.15535346E+03 -.80360234E+02 0.87323464E+03 0.89930874E+03 0.12500000E+03 0.0000E+00 0.9000E+01
       24  1    1    2    0    0 -.75392884E+02 -.53954438E+01 0.43490919E+03 0.44869413E+03 0.80419002E+02 0.0000E+00 0.9000E+01
        1  1    1    2  501    0 0.23074635E+03 0.85755678E+02 0.18642967E+04 0.18804787E+04 0.32000000E+00 0.0000E+00 0.9000E+01
#aMCatNLO 1  0  0  5  2 0.17410639D+02 0.00000000D+00  -5  6  0 0.00000000D+00 0.00000000D+00 0.00000000D+00 0.00000000D+00 0.00000000D+00
  <mgrwgt>
 -.3131069662D-01    7    2    0
 0.299463840053213D+03 0.000000000000000D+00 0.000000000000000D+00 0.299463840053213D+03
 0.299463840053213D+03 -.000000000000000D+00 -.000000000000000D+00 -.299463840053213D+03
 0.222258477645474D+03 -.155353525622115D+03 -.803602576831087D+02 -.564033859548071D+02
 0.115000842165493D+03 -.753929171190978D+02 -.539545610956828D+01 -.323229770603612D+02
 0.261668360295460D+03 0.230746442741213D+03 0.857557137926769D+02 0.887263630151683D+02
 0.000000000000000D+00 0.000000000000000D+00 0.000000000000000D+00 0.000000000000000D+00
 0.299463840053213D+03 0.000000000000000D+00 0.000000000000000D+00 0.299463840053213D+03
 0.299463840053213D+03 -.000000000000000D+00 -.000000000000000D+00 -.299463840053213D+03
 0.221296544811960D+03 -.154319133961762D+03 -.799758314093125D+02 -.560056428352772D+02
 0.114583486478854D+03 -.748575154149718D+02 -.519647685442702D+01 -.321171049983918D+02
 0.198556820157211D+03 0.166957406420017D+03 0.692930528645705D+02 0.821493036924359D+02
 0.644908286584029D+02 0.622192429567173D+02 0.158792553991690D+02 0.597344414123317D+01
0.413433705415D-05 0.000000000000D+00 0.000000000000D+00 0.202121175399D-06 0.000000000000D+00  6 2 21 25 24 1 21 2 0.49237862D+00 0.43108497D-02 0.81657064D+05 0.81657064D+05 0.81657064D+05 0.11717437D+01  1  2  2  3  6  5        1 0.390703182353D-02 0.100000000000D+01
-.509504062943D-06 0.218174960366D-06 -.834603535702D-08 0.202121175399D-06 0.000000000000D+00  6 2 21 25 24 1 21 4 0.49237862D+00 0.43108497D-02 0.81657064D+05 0.81657064D+05 0.81657064D+05 0.11717437D+01  1  2  3  3  6  5        1 -.661079980122D-03 0.100000000000D+01
0.449460437193D-06 0.000000000000D+00 0.000000000000D+00 0.202121175399D-06 0.000000000000D+00  6 2 21 25 24 1 21 4 0.49237862D+00 0.43108497D-02 0.81657064D+05 0.81657064D+05 0.81657064D+05 0.11717437D+01  1  2 15  3  6  5        1 0.583173557378D-03 0.100000000000D+01
0.435910074774D-04 0.000000000000D+00 0.000000000000D+00 0.202242181125D-06 0.000000000000D+00  6 2 21 25 24 1 21 4 0.49237862D+00 0.43108497D-02 0.80957921D+05 0.80957921D+05 0.80957921D+05 0.11720944D+01  1  2 12  3  6  5        1 0.566545682074D-01 0.100000000000D+01
-.825524184699D-04 0.000000000000D+00 0.000000000000D+00 0.202121175399D-06 0.000000000000D+00  6 2 21 25 24 1 21 4 0.49237862D+00 0.43108497D-02 0.81657064D+05 0.81657064D+05 0.81657064D+05 0.11717437D+01  1  2  4  3  6  5        1 -.107111513196D+00 0.100000000000D+01
-.428257814597D-04 0.000000000000D+00 0.000000000000D+00 0.202121175399D-06 0.000000000000D+00  6 2 21 25 24 1 21 4 0.49237862D+00 0.43108497D-02 0.81657064D+05 0.81657064D+05 0.81657064D+05 0.11717437D+01  1  2  5  3  6  5        1 -.555663218711D-01 0.100000000000D+01
0.546309133975D-04 0.000000000000D+00 -.000000000000D+00 0.202121175399D-06 0.000000000000D+00  6 2 21 25 24 1 21 4 0.49237862D+00 0.43108497D-02 0.81657064D+05 0.81657064D+05 0.81657064D+05 0.11717437D+01  1  2  6  3  6  5        1 0.708834448428D-01 0.100000000000D+01
  </mgrwgt>
  </event>
  <event>
  6     66 -.45638357E-03 0.12483563E+02 0.75467711E-02 0.12034562E+00
        2 -1    0    0  502    0 0.00000000E+00 0.00000000E+00 0.28066828E+03 0.28066846E+03 0.32000000E+00 0.0000E+00 0.9000E+01
       21 -1    0    0  501  502 0.00000000E+00 0.00000000E+00 -.13880209E+03 0.13880412E+03 0.75000000E+00 0.0000E+00 0.9000E+01
       25  1    1    2    0    0 0.40808135E+02 -.91027950E+02 0.95204642E+02 0.18611909E+03 0.12500000E+03 0.0000E+00 0.9000E+01
       24  1    1    2    0    0 -.27338572E+02 0.77401378E+02 0.10848076E+03 0.15803057E+03 0.80419002E+02 0.0000E+00 0.9000E+01
        1  1    1    2  503    0 -.12258605E+02 0.87378517E+01 -.66634555E+02 0.68314639E+02 0.32000000E+00 0.0000E+00 0.9000E+01
       21  1    1    2  501  503 -.12109580E+01 0.48887199E+01 0.48153384E+01 0.70082798E+01 0.75000000E+00 0.0000E+00 0.9000E+01
#aMCatNLO 2  0  0  5  2 0.54609745D+01 0.00000000D+00  -5  6  0 0.00000000D+00 0.00000000D+00 0.00000000D+00 0.00000000D+00 0.00000000D+00
  <mgrwgt>
 -.2103828118D+00    1    2    0
 0.197377324259064D+03 0.000000000000000D+00 0.000000000000000D+00 0.197377324259064D+03
 0.197377324259064D+03 -.000000000000000D+00 -.000000000000000D+00 -.197377324259064D+03
 0.164600737404571D+03 0.412579990216154D+02 -.914830573272871D+02 0.373768710958152D+02
 0.129778782039830D+03 -.269839021589684D+02 0.770425741670710D+02 0.609231245370572D+02
 0.100375129073727D+03 -.142740968626470D+02 0.144404831602161D+02 -.982999956328724D+02
 0.000000000000000D+00 0.000000000000000D+00 0.000000000000000D+00 0.000000000000000D+00
 0.197377324259064D+03 0.000000000000000D+00 0.000000000000000D+00 0.197377324259064D+03
 0.197377324259064D+03 -.000000000000000D+00 -.000000000000000D+00 -.197377324259064D+03
 0.163551608860493D+03 0.408050155897432D+02 -.910247936849179D+02 0.342573553882173D+02
 0.128934528910472D+03 -.273410315374389D+02 0.774038664313344D+02 0.584637173548144D+02
 0.965453634128411D+02 -.122471218835381D+02 0.869569927115361D+01 -.953698066280569D+02
 0.572314733432268D+01 -.121686216876623D+01 0.492522798242977D+01 0.264873388502528D+01
-.308669398937D-04 0.000000000000D+00 0.000000000000D+00 0.471384521511D-05 0.000000000000D+00  6 2 21 25 24 1 21 4 0.43179905D-01 0.21354338D-01 0.21785119D+05 0.21785119D+05 0.21785119D+05 0.12297592D+01  1  2  8  3  6  5        1 -.210382811836D+00 0.100000000000D+01
  </mgrwgt>
  </event>
  <event>
  6     66 0.45638357E-03 0.36636408E+02 0.75467711E-02 0.11653938E+00
        2 -1    0    0  502    0 0.00000000E+00 0.00000000E+00 0.14771474E+04 0.14771475E+04 0.32000000E+00 0.0000E+00 0.9000E+01
       21 -1    0    0  501  502 0.00000000E+00 0.00000000E+00 -.76904534E+02 0.76908191E+02 0.75000000E+00 0.0000E+00 0.9000E+01
       25  1    1    2    0    0 0.71127209E+02 -.85315146E+02 0.87567062E+03 0.89149413E+03 0.12500000E+03 0.0000E+00 0.9000E+01
       24  1    1    2    0    0 -.35996911E+02 0.98676132E+02 0.56574148E+03 0.58100206E+03 0.80419002E+02 0.0000E+00 0.9000E+01
        1  1    1    2  503    0 -.32940048E+02 -.32448549E+02 -.41785075E+02 0.62322147E+02 0.32000000E+00 0.0000E+00 0.9000E+01
       21  1    1    2  501  503 -.21902496E+01 0.19087562E+02 0.61586346E+00 0.19237308E+02 0.75000000E+00 0.0000E+00 0.9000E+01
#aMCatNLO 2  0  0  5  5 0.21234327D+02 0.00000000D+00  -5  6  0 0.00000000D+00 0.00000000D+00 0.00000000D+00 0.00000000D+00 0.00000000D+00
  <mgrwgt>
 0.2238620670D+00    1    2    0
 0.337049258343009D+03 0.000000000000000D+00 0.000000000000000D+00 0.337049258343009D+03
 0.337049258343009D+03 -.000000000000000D+00 -.000000000000000D+00 -.337049258343009D+03
 0.237962484875824D+03 0.714321992455240D+02 -.851991496339511D+02 0.169232650575698D+03
 0.165222169382280D+03 -.357850136284041D+02 0.987567224763211D+02 0.989832908442947D+02
 0.270913862427914D+03 -.356471856171202D+02 -.135575728423701D+02 -.268215941419993D+03
 0.000000000000000D+00 0.000000000000000D+00 0.000000000000000D+00 -.000000000000000D+00
 0.337049258343009D+03 0.000000000000000D+00 0.000000000000000D+00 0.337049258343009D+03
 0.337049258343009D+03 -.000000000000000D+00 -.000000000000000D+00 -.337049258343009D+03
 0.236283206363738D+03 0.711267280241574D+02 -.853153284644318D+02 0.166934229261444D+03
 0.164268337999572D+03 -.359972451142729D+02 0.986760051972625D+02 0.973864223455396D+02
 0.230401108372728D+03 -.329357821162964D+02 -.324883840491423D+02 -.225708683700129D+03
 0.431458639499807D+02 -.219370079358845D+01 0.191277073163115D+02 -.386119679068547D+02
0.957616127329D-04 0.000000000000D+00 0.000000000000D+00 0.679825679858D-05 0.992776316447D-07  6 2 21 25 24 1 21 4 0.22725373D+00 0.11831751D-01 0.33310642D+05 0.33310642D+05 0.33310642D+05 0.12101558D+01  1  2  1  3  6  5        1 0.223862066992D+00 0.100000000000D+01
  </mgrwgt>
  </event>
  <event>
  5     66 -.45638357E-03 0.27708824E+02 0.75467711E-02 0.12386404E+00
        4 -1    0    0  502    0 0.00000000E+00 0.00000000E+00 0.32332641E+02 0.32369773E+02 0.15500000E+01 0.0000E+00 0.9000E+01
       21 -1    0    0  501  502 -.00000000E+00 -.00000000E+00 -.46635421E+03 0.46635481E+03 0.75000000E+00 0.0000E+00 0.9000E+01
       25  1    1    2    0    0 -.46510290E+01 0.43510597E+02 -.23700255E+03 0.27149588E+03 0.12500000E+03 0.0000E+00 0.9000E+01
       24  1    1    2    0    0 0.19958322E+02 -.20418464E+02 -.15382462E+03 0.17591042E+03 0.80419002E+02 0.0000E+00 0.9000E+01
        3  1    1    2  501    0 -.15307293E+02 -.23092133E+02 -.43194406E+02 0.51318287E+02 0.50000000E+00 0.0000E+00 0.9000E+01
#aMCatNLO 1  0  0  5  2 0.65953679D+01 0.00000000D+00  -5  6  0 0.00000000D+00 0.00000000D+00 0.00000000D+00 0.00000000D+00 0.00000000D+00
  <mgrwgt>
 -.8970172650D+00    7    2    0
 0.122832701962020D+03 0.000000000000000D+00 0.000000000000000D+00 0.122832701962020D+03
 0.122832701962020D+03 -.000000000000000D+00 -.000000000000000D+00 -.122832701962020D+03
 0.132446825273374D+03 -.464970046826081D+01 0.435126013653209D+02 -.148166560797445D+01
 0.853503389383460D+02 0.199591780825214D+02 -.204171725441481D+02 -.149488397298270D+01
 0.278682397123195D+02 -.153094776142606D+02 -.230954288211728D+02 0.297654958095715D+01
 0.000000000000000D+00 -.000000000000000D+00 0.000000000000000D+00 0.000000000000000D+00
 0.122832701962020D+03 0.000000000000000D+00 0.000000000000000D+00 0.122832701962020D+03
 0.122832701962020D+03 -.000000000000000D+00 -.000000000000000D+00 -.122832701962020D+03
 0.132005413284971D+03 -.562802522108574D+01 0.420367293426326D+02 -.129145453700045D+01
 0.854361489763183D+02 0.193273639996239D+02 -.213703087351689D+02 -.137204333850280D+01
 0.133100154314685D+02 -.453971275573972D+01 -.996595354416586D+01 0.756487203043329D+01
 0.149138262312816D+02 -.915962602279841D+01 -.107004670632978D+02 -.490137415493004D+01
0.439202208967D-04 0.000000000000D+00 0.000000000000D+00 0.699381435509D-06 0.000000000000D+00  6 4 21 25 24 3 21 2 0.49771552D-02 0.71749704D-01 0.15065673D+05 0.15065673D+05 0.15065673D+05 0.12476063D+01  1  2  2  3  6  5        3 0.117709397313D+00 0.100000000000D+01
-.200783411997D-07 0.231773373286D-05 -.886622720139D-07 0.699381435509D-06 0.000000000000D+00  6 4 21 25 24 3 21 4 0.49771552D-02 0.71749704D-01 0.15065673D+05 0.15065673D+05 0.15065673D+05 0.12476063D+01  1  2  3  3  6  5        3 -.837586305698D-04 0.100000000000D+01
0.445451801986D-05 0.000000000000D+00 0.000000000000D+00 0.699381435509D-06 0.000000000000D+00  6 4 21 25 24 3 21 4 0.49771552D-02 0.71749704D-01 0.15065673D+05 0.15065673D+05 0.15065673D+05 0.12476063D+01  1  2 15  3  6  5        3 0.185824279745D-01 0.100000000000D+01
0.245885273234D-04 0.000000000000D+00 0.000000000000D+00 0.700759412604D-06 0.000000000000D+00  6 4 21 25 24 3 21 4 0.49771552D-02 0.71749704D-01 0.14696817D+05 0.14696817D+05 0.14696817D+05 0.12488348D+01  1  2 12  3  6  5        3 0.102870365951D+00 0.100000000000D+01
-.304266691148D-03 0.000000000000D+00 0.000000000000D+00 0.699381435509D-06 0.000000000000D+00  6 4 21 25 24 3 21 4 0.49771552D-02 0.71749704D-01 0.15065673D+05 0.15065673D+05 0.15065673D+05 0.12476063D+01  1  2  4  3  6  5        3 -.126927623777D+01 0.100000000000D+01
-.238233606230D-04 0.000000000000D+00 0.000000000000D+00 0.699381435509D-06 0.000000000000D+00  6 4 21 25 24 3 21 4 0.49771552D-02 0.71749704D-01 0.15065673D+05 0.15065673D+05 0.15065673D+05 0.12476063D+01  1  2  5  3  6  5        3 -.993813204738D-01 0.100000000000D+01
0.557489581097D-04 0.000000000000D+00 -.000000000000D+00 0.699381435509D-06 0.000000000000D+00  6 4 21 25 24 3 21 4 0.49771552D-02 0.71749704D-01 0.15065673D+05 0.15065673D+05 0.15065673D+05 0.12476063D+01  1  2  6  3  6  5        3 0.232561860590D+00 0.100000000000D+01
  </mgrwgt>
  </event>
  <event>
  5     66 0.45638357E-03 0.25855467E+02 0.75467711E-02 0.11310816E+00
        2 -1    0    0  502    0 0.00000000E+00 0.00000000E+00 0.40775627E+04 0.40775627E+04 0.32000000E+00 0.0000E+00 0.9000E+01
       21 -1    0    0  501  502 0.00000000E+00 0.00000000E+00 -.18120985E+02 0.18136499E+02 0.75000000E+00 0.0000E+00 0.9000E+01
       25  1    1    2    0    0 -.27367178E+02 -.32030304E+02 0.15702066E+04 0.15757375E+04 0.12500000E+03 0.0000E+00 0.9000E+01
       24  1    1    2    0    0 0.52535767E+02 0.26110300E+02 0.24919724E+04 0.24939598E+04 0.80419002E+02 0.0000E+00 0.9000E+01
        1  1    1    2  501    0 -.25168589E+02 0.59200033E+01 -.27372967E+01 0.26001914E+02 0.32000000E+00 0.0000E+00 0.9000E+01
#aMCatNLO 1  0  0  2  5 0.50223027D+02 0.00000000D+00  -5  6  0 0.00000000D+00 0.00000000D+00 0.00000000D+00 0.00000000D+00 0.00000000D+00
  <mgrwgt>
 0.1786851161D+01    4    2    0
 0.271884620844891D+03 0.000000000000000D+00 0.000000000000000D+00 0.271884620844891D+03
 0.271884620844891D+03 0.000000000000000D+00 0.000000000000000D+00 -.271884620844891D+03
 0.146357445609430D+03 -.273671709350884D+02 -.320303055727467D+02 0.634081963569647D+02
 0.181129131238582D+03 0.525357766239829D+02 0.261102983373034D+02 0.151323463891510D+03
 0.216282664841769D+03 -.251686056888946D+02 0.592000723544333D+01 -.214731660248474D+03
 0.000000000000000D+00 0.000000000000000D+00 -.000000000000000D+00 0.000000000000000D+00
 0.425201824646673D+03 0.000000000000000D+00 0.000000000000000D+00 0.425201824646673D+03
 0.311317096114440D+03 0.000000000000000D+00 0.000000000000000D+00 -.311317096114440D+03
 0.152865376399597D+03 -.592949084931623D+02 -.143644618184863D+02 0.634081963569647D+02
 0.178346575418782D+03 0.141789228800088D+02 0.473334176990669D+02 0.151323463891510D+03
 0.228974184745095D+03 -.726784972944061D+02 0.322075673971426D+02 -.214731660248474D+03
 0.176332784197639D+03 0.117794482907560D+03 -.651765232777232D+02 0.113884728532233D+03
0.193887181154D-02 0.000000000000D+00 0.000000000000D+00 0.143802093316D-04 0.000000000000D+00  6 2 21 25 24 1 21 2 0.62731853D+00 0.27890382D-02 0.16551848D+05 0.16551848D+05 0.16551848D+05 0.12429777D+01  1  2  2  2  6  2       21 0.118124696062D+01 0.100000000000D+01
0.544335550186D-03 0.102317076498D-03 -.391402357376D-05 0.143802093316D-04 0.000000000000D+00  6 2 21 25 24 1 21 4 0.62731853D+00 0.27890382D-02 0.16551848D+05 0.16551848D+05 0.16551848D+05 0.12429777D+01  1  2  3  2  6  2       21 0.512371481705D+00 0.100000000000D+01
0.195528101429D-03 0.000000000000D+00 0.000000000000D+00 0.143802093316D-04 0.000000000000D+00  6 2 21 25 24 1 21 4 0.62731853D+00 0.27890382D-02 0.16551848D+05 0.16551848D+05 0.16551848D+05 0.12429777D+01  1  2 15  2  6  2       21 0.184046445267D+00 0.100000000000D+01
-.964791012926D-04 0.000000000000D+00 0.000000000000D+00 0.143802093316D-04 0.000000000000D+00  6 2 21 25 24 1 21 4 0.62731853D+00 0.27890382D-02 0.16551848D+05 0.16551848D+05 0.16551848D+05 0.12429777D+01  1  2  4  2  6  2       21 -.908137270584D-01 0.100000000000D+01
  </mgrwgt>
  </event>
  <event>
  5     66 -.45638357E-03 0.31675657E+02 0.75467711E-02 0.12428010E+00
        2 -1    0    0  502    0 0.00000000E+00 0.00000000E+00 0.24111391E+04 0.24111392E+04 0.32000000E+00 0.0000E+00 0.9000E+01
       21 -1    0    0  501  502 0.00000000E+00 0.00000000E+00 -.81682476E+01 0.82026074E+01 0.75000000E+00 0.0000E+00 0.9000E+01
       25  1    1    2    0    0 -.97630034E+01 -.17832609E+02 0.88625773E+03 0.89526034E+03 0.12500000E+03 0.0000E+00 0.9000E+01
       24  1    1    2    0    0 -.17898313E+02 0.24000865E+01 0.14183656E+04 0.14207584E+04 0.80419002E+02 0.0000E+00 0.9000E+01
        1  1    1    2  501    0 0.27661317E+02 0.15432523E+02 0.98347521E+02 0.10332303E+03 0.32000000E+00 0.0000E+00 0.9000E+01
#aMCatNLO 1  0  0  5  2 0.24920285D+01 0.00000000D+00  -5  6  0 0.00000000D+00 0.00000000D+00 0.00000000D+00 0.00000000D+00 0.00000000D+00
  <mgrwgt>
 -.2184262512D+01    8    2    0
 0.140486194840938D+03 0.000000000000000D+00 0.000000000000000D+00 0.140486194840938D+03
 0.140486194840938D+03 -.000000000000000D+00 -.000000000000000D+00 -.140486194840938D+03
 0.129155770313775D+03 -.976327938900076D+01 -.178327630077630D+02 -.253551561704086D+02
 0.103244444287030D+03 -.178985338995422D+02 0.239996343801651D+01 0.621778254807144D+02
 0.485721750810722D+02 0.276618132885430D+02 0.154327995697465D+02 -.368226693103059D+02
 0.000000000000000D+00 0.000000000000000D+00 0.000000000000000D+00 -.000000000000000D+00
 0.140486194840938D+03 0.000000000000000D+00 0.000000000000000D+00 0.140486194840938D+03
 0.140486194840938D+03 -.000000000000000D+00 -.000000000000000D+00 -.140486194840938D+03
 0.129173555407273D+03 -.960249649155176D+01 -.177430606370366D+02 -.255691860823945D+02
 0.103121046963972D+03 -.177700930362209D+02 0.247162186761859D+01 0.620068484234016D+02
 0.601384665487644D+01 0.481479552570358D+01 0.257024066650881D+01 -.252546204688515D+01
 0.426639406557550D+02 0.225577940020691D+02 0.127011981029092D+02 -.339122002941221D+02
0.586324823751D-05 0.000000000000D+00 0.000000000000D+00 0.111252431554D-05 0.000000000000D+00  6 2 21 25 24 1 21 2 0.37094713D+00 0.12592982D-02 0.14488920D+05 0.14488920D+05 0.14488920D+05 0.12495425D+01  1  2  2  3  6  5        1 0.140615424620D+00 0.100000000000D+01
0.168901696023D-06 0.309412110111D-06 -.118362089148D-07 0.111252431554D-05 0.000000000000D+00  6 2 21 25 24 1 21 4 0.37094713D+00 0.12592982D-02 0.14488920D+05 0.14488920D+05 0.14488920D+05 0.12495425D+01  1  2  3  3  6  5        1 0.632456645960D-02 0.100000000000D+01
0.607872755184D-06 0.000000000000D+00 0.000000000000D+00 0.111252431554D-05 0.000000000000D+00  6 2 21 25 24 1 21 4 0.37094713D+00 0.12592982D-02 0.14488920D+05 0.14488920D+05 0.14488920D+05 0.12495425D+01  1  2 15  3  6  5        1 0.227619481016D-01 0.100000000000D+01
0.308137153260D-07 0.000000000000D+00 0.000000000000D+00 0.111280458080D-05 0.000000000000D+00  6 2 21 25 24 1 21 4 0.37094713D+00 0.12592982D-02 0.14443140D+05 0.14443140D+05 0.14443140D+05 0.12496999D+01  1  2 12  3  6  5        1 0.115443420648D-02 0.100000000000D+01
-.851320774163D-04 0.000000000000D+00 0.000000000000D+00 0.111252431554D-05 0.000000000000D+00  6 2 21 25 24 1 21 4 0.37094713D+00 0.12592982D-02 0.14488920D+05 0.14488920D+05 0.14488920D+05 0.12495425D+01  1  2  4  3  6  5        1 -.318779203609D+01 0.100000000000D+01
-.615283241698D-05 0.000000000000D+00 0.000000000000D+00 0.111252431554D-05 0.000000000000D+00  6 2 21 25 24 1 21 4 0.37094713D+00 0.12592982D-02 0.14488920D+05 0.14488920D+05 0.14488920D+05 0.12495425D+01  1  2  5  3  6  5        1 -.230394356317D+00 0.100000000000D+01
0.160556050792D-04 0.000000000000D+00 -.000000000000D+00 0.111252431554D-05 0.000000000000D+00  6 2 21 25 24 1 21 4 0.37094713D+00 0.12592982D-02 0.14488920D+05 0.14488920D+05 0.14488920D+05 0.12495425D+01  1  2  6  3  6  5        1 0.601206167633D+00 0.100000000000D+01
0.123278258264D-04 0.000000000000D+00 0.000000000000D+00 0.111252431554D-05 0.181822067175D-06  6 2 21 25 24 1 21 4 0.37094713D+00 0.12592982D-02 0.14443140D+05 0.14443140D+05 0.14443140D+05 0.12496999D+01  1  2 11  3  6  5        1 0.461861339177D+00 0.100000000000D+01
  </mgrwgt>
  </event>
  <event>
  5     66 -.45638357E-03 0.24299316E+02 0.75467711E-02 0.12228044E+00
        2 -1    0    0  502    0 0.00000000E+00 0.00000000E+00 0.16387530E+04 0.16387530E+04 0.32000000E+00 0.0000E+00 0.9000E+01
       21 -1    0    0  501  502 0.00000000E+00 0.00000000E+00 -.16285128E+02 0.16302389E+02 0.75000000E+00 0.0000E+00 0.9000E+01
       25  1    1    2    0    0 -.73491496E+02 0.20000035E+02 0.10147286E+04 0.10252318E+04 0.12500000E+03 0.0000E+00 0.9000E+01
       24  1    1    2    0    0 0.50131294E+02 -.13310544E+02 0.59449491E+03 0.60214760E+03 0.80419002E+02 0.0000E+00 0.9000E+01
        1  1    1    2  501    0 0.23360202E+02 -.66894903E+01 0.13244317E+02 0.27676030E+02 0.32000000E+00 0.0000E+00 0.9000E+01
#aMCatNLO 1  0  0  5  2 0.46013297D+01 0.00000000D+00  -5  6  0 0.00000000D+00 0.00000000D+00 0.00000000D+00 0.00000000D+00 0.00000000D+00
  <mgrwgt>
 -.9673517792D+00    7    2    0
 0.163406279050712D+03 0.000000000000000D+00 0.000000000000000D+00 0.163406279050712D+03
 0.163406279050712D+03 -.000000000000000D+00 -.000000000000000D+00 -.163406279050712D+03
 0.154372450765135D+03 -.734915980611511D+02 0.200000638516092D+02 0.490391273941929D+02
 0.980340492067489D+02 0.501312289628996D+02 -.133105257517062D+02 0.212872881406539D+02
 0.744060581295405D+02 0.233603690982515D+02 -.668953809990298D+01 -.703264155348469D+02
 0.000000000000000D+00 0.000000000000000D+00 0.000000000000000D+00 -.000000000000000D+00
 0.163406279050712D+03 0.000000000000000D+00 0.000000000000000D+00 0.163406279050712D+03
 0.163406279050712D+03 -.000000000000000D+00 -.000000000000000D+00 -.163406279050712D+03
 0.154239540056621D+03 -.734010076367575D+02 0.199741221341252D+02 0.487664048270711D+02
 0.980282660882024D+02 0.501887813875571D+02 -.133270066187622D+02 0.211140265061961D+02
 0.467548442881022D+02 0.159432320398465D+02 -.850269996260353D+01 -.431223017692033D+02
 0.277899076684988D+02 0.726899420935384D+01 0.185558444724055D+01 -.267581295640639D+02
0.135602226820D-05 0.000000000000D+00 0.000000000000D+00 0.298451389542D-05 0.000000000000D+00  6 2 21 25 24 1 21 2 0.25211718D+00 0.25067345D-02 0.17738320D+05 0.17738320D+05 0.17738320D+05 0.12396053D+01  1  2  2  3  6  5        1 0.263910960433D-01 0.100000000000D+01
0.199575336265D-06 0.715592610724D-07 -.273741827215D-08 0.298451389542D-05 0.000000000000D+00  6 2 21 25 24 1 21 4 0.25211718D+00 0.25067345D-02 0.17738320D+05 0.17738320D+05 0.17738320D+05 0.12396053D+01  1  2  3  3  6  5        1 0.596848822112D-02 0.100000000000D+01
0.131573290556D-06 0.000000000000D+00 0.000000000000D+00 0.298451389542D-05 0.000000000000D+00  6 2 21 25 24 1 21 4 0.25211718D+00 0.25067345D-02 0.17738320D+05 0.17738320D+05 0.17738320D+05 0.12396053D+01  1  2 15  3  6  5        1 0.393482305777D-02 0.100000000000D+01
0.347782341785D-05 0.000000000000D+00 0.000000000000D+00 0.298231960156D-05 0.000000000000D+00  6 2 21 25 24 1 21 4 0.25211718D+00 0.25067345D-02 0.17905869D+05 0.17905869D+05 0.17905869D+05 0.12391495D+01  1  2 12  3  6  5        1 0.103853625627D+00 0.100000000000D+01
-.444384861850D-04 0.000000000000D+00 0.000000000000D+00 0.298451389542D-05 0.000000000000D+00  6 2 21 25 24 1 21 4 0.25211718D+00 0.25067345D-02 0.17738320D+05 0.17738320D+05 0.17738320D+05 0.12396053D+01  1  2  4  3  6  5        1 -.132897474369D+01 0.100000000000D+01
-.152244568271D-04 0.000000000000D+00 0.000000000000D+00 0.298451389542D-05 0.000000000000D+00  6 2 21 25 24 1 21 4 0.25211718D+00 0.25067345D-02 0.17738320D+05 0.17738320D+05 0.17738320D+05 0.12396053D+01  1  2  5  3  6  5        1 -.455301706845D+00 0.100000000000D+01
0.226301737026D-04 0.000000000000D+00 -.000000000000D+00 0.298451389542D-05 0.000000000000D+00  6 2 21 25 24 1 21 4 0.25211718D+00 0.25067345D-02 0.17738320D+05 0.17738320D+05 0.17738320D+05 0.12396053D+01  1  2  6  3  6  5        1 0.676776638404D+00 0.100000000000D+01
  </mgrwgt>
  </event>
  <event>
  5     66 -.45638357E-03 0.75413286E+02 0.75467711E-02 0.11023112E+00
        2 -1    0    0  502    0 0.00000000E+00 0.00000000E+00 0.30328579E+03 0.30328596E+03 0.32000000E+00 0.0000E+00 0.9000E+01
       21 -1    0    0  501  502 0.00000000E+00 0.00000000E+00 -.45775184E+03 0.45775245E+03 0.75000000E+00 0.0000E+00 0.9000E+01
       25  1    1    2    0    0 0.37300646E+02 -.10385546E+03 0.22203288E+03 0.27767048E+03 0.12500000E+03 0.0000E+00 0.9000E+01
       24  1    1    2    0    0 -.86770928E+02 0.46935777E+02 -.32721048E+02 0.13141554E+03 0.80419002E+02 0.0000E+00 0.9000E+01
        1  1    1    2  501    0 0.49470283E+02 0.56919685E+02 -.34377787E+03 0.35195240E+03 0.32000000E+00 0.0000E+00 0.9000E+01
#aMCatNLO 1  0  0  2  1 0.33484955D+02 0.00000000D+00  -5  6  0 0.00000000D+00 0.00000000D+00 0.00000000D+00 0.00000000D+00 0.00000000D+00
  <mgrwgt>
 -.2472588033D+00   12    2    0
 0.372598880699447D+03 0.000000000000000D+00 0.000000000000000D+00 0.372598880699447D+03
 0.372598880699447D+03 0.000000000000000D+00 0.000000000000000D+00 -.372598880699447D+03
 0.329596386681153D+03 0.373006321341024D+02 -.103855478173255D+03 0.284308776876609D+03
 0.127426553901051D+03 -.867709335074730D+02 0.469357713747393D+02 -.617649969050127D+01
 0.288174820816689D+03 0.494703013733706D+02 0.569197067985152D+02 -.278132277186108D+03
 0.000000000000000D+00 0.000000000000000D+00 -.000000000000000D+00 -.000000000000000D+00
 0.383545775122183D+03 0.000000000000000D+00 0.000000000000000D+00 0.383545775122183D+03
 0.150546356179277D+04 0.000000000000000D+00 0.000000000000000D+00 -.150546356179277D+04
 0.315129002331856D+03 0.301894038842708D+02 -.440273482588950D+02 0.284308776876609D+03
 0.140390422445655D+03 -.897249162114840D+02 0.717881955652474D+02 -.617649969050127D+01
 0.302808340604770D+03 0.429518421591170D+02 0.111760756897147D+03 -.278132277186108D+03
 0.113068157153268D+04 0.165836701680962D+02 -.139521604203499D+03 -.112191778667059D+04
0.588474747869D-04 0.000000000000D+00 0.000000000000D+00 0.862536065877D-06 0.000000000000D+00  6 2 21 25 24 1 21 2 0.46659413D-01 0.70423420D-01 0.34119681D+05 0.34119681D+05 0.34119681D+05 0.12090766D+01  1  2  2  2  6  2       21 0.211516683302D-01 0.100000000000D+01
0.487709588049D-05 0.310546656238D-05 -.118796096886D-06 0.862536065877D-06 0.000000000000D+00  6 2 21 25 24 1 21 4 0.46659413D-01 0.70423420D-01 0.34119681D+05 0.34119681D+05 0.34119681D+05 0.12090766D+01  1  2  3  2  6  2       21 0.256262885772D-02 0.100000000000D+01
0.511178847827D-05 0.000000000000D+00 0.000000000000D+00 0.862536065877D-06 0.000000000000D+00  6 2 21 25 24 1 21 4 0.46659413D-01 0.70423420D-01 0.34119681D+05 0.34119681D+05 0.34119681D+05 0.12090766D+01  1  2 15  2  6  2       21 0.268594610194D-02 0.100000000000D+01
-.838725784209D-02 0.000000000000D+00 -.235641411123D-03 0.862536065877D-06 0.000000000000D+00  6 2 21 25 24 1 21 4 0.46659413D-01 0.28596846D+00 0.34119681D+05 0.34119681D+05 0.34119681D+05 0.12090766D+01  1  2  5  2  6  2       21 -.997753136397D-01 0.100000000000D+01
-.337828316528D-02 0.000000000000D+00 -.933214123700D-04 0.862536065877D-06 0.000000000000D+00  6 2 -1 25 24 1 -1 4 0.46659413D-01 0.28596846D+00 0.34119681D+05 0.34119681D+05 0.34119681D+05 0.12090766D+01  1  2  5  5  6  2       21 -.442376222131D-02 0.100000000000D+01
-.337828316528D-02 0.000000000000D+00 -.933214123700D-04 0.862536065877D-06 0.000000000000D+00  6 2 1 25 24 1 1 4 0.46659413D-01 0.28596846D+00 0.34119681D+05 0.34119681D+05 0.34119681D+05 0.12090766D+01  1  2  5  6  6  2       21 -.462686022062D-01 0.100000000000D+01
-.337828316528D-02 0.000000000000D+00 -.933214123700D-04 0.862536065877D-06 0.000000000000D+00  6 2 -2 25 24 1 -2 4 0.46659413D-01 0.28596846D+00 0.34119681D+05 0.34119681D+05 0.34119681D+05 0.12090766D+01  1  2  5  7  6  2       21 -.361219149475D-02 0.100000000000D+01
-.337828316528D-02 0.000000000000D+00 -.933214123700D-04 0.862536065877D-06 0.000000000000D+00  6 2 2 25 24 1 2 4 0.46659413D-01 0.28596846D+00 0.34119681D+05 0.34119681D+05 0.34119681D+05 0.12090766D+01  1  2  5  8  6  2       21 -.110805509725D+00 0.100000000000D+01
-.337828316528D-02 0.000000000000D+00 -.933214123700D-04 0.862536065877D-06 0.000000000000D+00  6 2 -3 25 24 1 -3 4 0.46659413D-01 0.28596846D+00 0.34119681D+05 0.34119681D+05 0.34119681D+05 0.12090766D+01  1  2  5  9  6  2       21 -.254098192196D-02 0.100000000000D+01
-.337828316528D-02 0.000000000000D+00 -.933214123700D-04 0.862536065877D-06 0.000000000000D+00  6 2 -4 25 24 1 -4 4 0.46659413D-01 0.28596846D+00 0.34119681D+05 0.34119681D+05 0.34119681D+05 0.12090766D+01  1  2  5  9  6  2       21 -.182784901846D-02 0.100000000000D+01
-.337828316528D-02 0.000000000000D+00 -.933214123700D-04 0.862536065877D-06 0.000000000000D+00  6 2 3 25 24 1 3 4 0.46659413D-01 0.28596846D+00 0.34119681D+05 0.34119681D+05 0.34119681D+05 0.12090766D+01  1  2  5 10  6  2       21 -.257698737453D-02 0.100000000000D+01
-.337828316528D-02 0.000000000000D+00 -.933214123700D-04 0.862536065877D-06 0.000000000000D+00  6 2 4 25 24 1 4 4 0.46659413D-01 0.28596846D+00 0.34119681D+05 0.34119681D+05 0.34119681D+05 0.12090766D+01  1  2  5 10  6  2       21 -.182784901846D-02 0.100000000000D+01
  </mgrwgt>
  </event>
  <event>
  5     66 -.45638357E-03 0.10465358E+03 0.75467711E-02 0.10475804E+00
        2 -1    0    0  502    0 0.00000000E+00 0.00000000E+00 0.93151098E+03 0.93151103E+03 0.32000000E+00 0.0000E+00 0.9000E+01
       21 -1    0    0  501  502 0.00000000E+00 0.00000000E+00 -.12723095E+03 0.12723316E+03 0.75000000E+00 0.0000E+00 0.9000E+01
       25  1    1    2    0    0 0.21679259E+03 0.19324095E+03 0.42812584E+03 0.53221972E+03 0.12500000E+03 0.0000E+00 0.9000E+01
       24  1    1    2    0    0 -.15484783E+03 -.10888951E+03 0.95058533E+02 0.22657916E+03 0.80419002E+02 0.0000E+00 0.9000E+01
        1  1    1    2  501    0 -.61944763E+02 -.84351445E+02 0.28109565E+03 0.29994531E+03 0.32000000E+00 0.0000E+00 0.9000E+01
#aMCatNLO 1  0  0  1  2 0.14871037D+03 0.00000000D+00  -5  6  0 0.00000000D+00 0.00000000D+00 0.00000000D+00 0.00000000D+00 0.00000000D+00
  <mgrwgt>
 -.3011547344D-01    5    2    0
 0.344264759598998D+03 0.000000000000000D+00 0.000000000000000D+00 0.344264759598998D+03
 0.344264759598998D+03 0.000000000000000D+00 0.000000000000000D+00 -.344264759598998D+03
 0.318289260352839D+03 0.216792677172626D+03 0.193241066129804D+03 0.366316630976469D+02
 0.237369147269371D+03 -.154847768962148D+03 -.108889423549458D+03 -.118499611845482D+03
 0.132871111575787D+03 -.619449082104773D+02 -.843516425803465D+02 0.818679487478351D+02
 0.000000000000000D+00 -.000000000000000D+00 -.000000000000000D+00 0.000000000000000D+00
 0.967563641711650D+03 0.000000000000000D+00 0.000000000000000D+00 0.967563641711650D+03
 0.361187426933713D+03 0.000000000000000D+00 0.000000000000000D+00 -.361187426933713D+03
 0.388144605701085D+03 0.276994378392400D+03 0.238670212914303D+03 0.366316630976469D+02
 0.201979900729098D+03 -.117406811797197D+03 -.806358907698882D+02 -.118499611845482D+03
 0.114281394553675D+03 -.408827790506211D+02 -.684578299835208D+02 0.818679487478351D+02
 0.624345167661506D+03 -.118704787544582D+03 -.895764921608943D+02 0.606376214777937D+03
0.437827627493D-04 0.000000000000D+00 0.000000000000D+00 0.290515834373D-07 0.000000000000D+00  6 2 21 25 24 1 21 2 0.14330956D+00 0.19574166D-01 0.98126266D+05 0.98126266D+05 0.98126266D+05 0.11643270D+01  1  2  2  1  6  1        2 0.508644660652D-01 0.100000000000D+01
-.383500789198D-05 0.231047986713D-05 -.883847836177D-07 0.290515834373D-07 0.000000000000D+00  6 2 21 25 24 1 21 4 0.14330956D+00 0.19574166D-01 0.98126266D+05 0.98126266D+05 0.98126266D+05 0.11643270D+01  1  2  3  1  6  1        2 -.603986944026D-02 0.100000000000D+01
0.420520470218D-05 0.000000000000D+00 0.000000000000D+00 0.290515834373D-07 0.000000000000D+00  6 2 21 25 24 1 21 4 0.14330956D+00 0.19574166D-01 0.98126266D+05 0.98126266D+05 0.98126266D+05 0.11643270D+01  1  2 15  1  6  1        2 0.662290354704D-02 0.100000000000D+01
-.444057104943D-03 0.000000000000D+00 -.374524329055D-04 0.290515834373D-07 0.000000000000D+00  6 2 21 25 24 1 21 4 0.40638339D+00 0.19574166D-01 0.98126266D+05 0.98126266D+05 0.98126266D+05 0.11643270D+01  1  2  5  1  6  1        2 -.800698518260D-01 0.100000000000D+01
-.500469978924D-04 0.000000000000D+00 -.439428809872D-05 0.290515834373D-07 0.000000000000D+00  6 21 21 25 24 1 -2 4 0.40638339D+00 0.19574166D-01 0.98126266D+05 0.98126266D+05 0.98126266D+05 0.11643270D+01  1  2  5  4  6  1        2 -.149312178163D-02 0.100000000000D+01
  </mgrwgt>
  </event>
  <event>
  5     66 0.45638357E-03 0.63465036E+02 0.75467711E-02 0.10920511E+00
        2 -1    0    0  502    0 0.00000000E+00 0.00000000E+00 0.88558026E+03 0.88558032E+03 0.32000000E+00 0.0000E+00 0.9000E+01
       21 -1    0    0  501  502 0.00000000E+00 0.00000000E+00 -.26188563E+02 0.26199300E+02 0.75000000E+00 0.0000E+00 0.9000E+01
       25  1    1    2    0    0 0.78727873E+00 -.21787938E+02 0.49302683E+03 0.50909310E+03 0.12500000E+03 0.0000E+00 0.9000E+01
       24  1    1    2    0    0 0.49544464E+02 -.16870144E+02 0.15782281E+03 0.18470114E+03 0.80419002E+02 0.0000E+00 0.9000E+01
        1  1    1    2  501    0 -.50331742E+02 0.38658082E+02 0.20854206E+03 0.21798538E+03 0.32000000E+00 0.0000E+00 0.9000E+01
#aMCatNLO 1  0  0  2  1 0.87728998D+01 0.00000000D+00  -5  6  0 0.00000000D+00 0.00000000D+00 0.00000000D+00 0.00000000D+00 0.00000000D+00
  <mgrwgt>
 0.1676686502D+00    3    2    0
 0.152305600889461D+03 0.000000000000000D+00 0.000000000000000D+00 0.152305600889461D+03
 0.152305600889461D+03 0.000000000000000D+00 0.000000000000000D+00 -.152305600889461D+03
 0.132882700640107D+03 0.787552064402700D+00 -.217881483454918D+02 0.394647752157407D+02
 0.107596722086265D+03 0.495446849891652D+02 -.168703135819948D+02 -.486883493076932D+02
 0.641317790525510D+02 -.503322370535679D+02 0.386584619274865D+02 0.922357409195251D+01
 0.000000000000000D+00 -.000000000000000D+00 -.000000000000000D+00 0.000000000000000D+00
 0.340236095469503D+03 0.000000000000000D+00 0.000000000000000D+00 0.340236095469503D+03
 0.261766183810951D+03 0.000000000000000D+00 0.000000000000000D+00 -.261766183810951D+03
 0.149647490126187D+03 0.456820652348036D+02 0.559021621596283D+02 0.394647752157407D+02
 0.138929835078254D+03 0.887181614146675D+02 0.509196975383128D+02 -.486883493076932D+02
 0.843757490007554D+02 -.267341459751958D+02 0.794951453825053D+02 0.922357409195251D+01
 0.229049205075258D+03 -.107666080674275D+03 -.186317005080447D+03 0.784699116585521D+02
0.705387407876D-05 0.000000000000D+00 0.000000000000D+00 0.248475975983D-06 0.000000000000D+00  6 2 21 25 24 1 21 2 0.13624395D+00 0.40298401D-02 0.20492305D+05 0.20492305D+05 0.20492305D+05 0.12326651D+01  1  2  2  2  6  2       21 0.162575862486D+00 0.100000000000D+01
-.519522658548D-06 0.372243161939D-06 -.142397394538D-07 0.248475975983D-06 0.000000000000D+00  6 2 21 25 24 1 21 4 0.13624395D+00 0.40298401D-02 0.20492305D+05 0.20492305D+05 0.20492305D+05 0.12326651D+01  1  2  3  2  6  2       21 -.181937845408D-01 0.100000000000D+01
0.664946971604D-06 0.000000000000D+00 0.000000000000D+00 0.248475975983D-06 0.000000000000D+00  6 2 21 25 24 1 21 4 0.13624395D+00 0.40298401D-02 0.20492305D+05 0.20492305D+05 0.20492305D+05 0.12326651D+01  1  2 15  2  6  2       21 0.232865722665D-01 0.100000000000D+01
  </mgrwgt>
  </event>
  <event>
  6     66 -.45638357E-03 0.25493410E+02 0.75467711E-02 0.11818476E+00
        2 -1    0    0  502    0 0.00000000E+00 0.00000000E+00 0.37805394E+03 0.37805407E+03 0.32000000E+00 0.0000E+00 0.9000E+01
       21 -1    0    0  501  503 0.00000000E+00 0.00000000E+00 -.59040748E+03 0.59040796E+03 0.75000000E+00 0.0000E+00 0.9000E+01
       25  1    1    2    0    0 0.94353956E+02 0.23507988E+02 0.24715719E+03 0.29354211E+03 0.12500000E+03 0.0000E+00 0.9000E+01
       24  1    1    2    0    0 -.14224780E+02 0.15917961E+02 0.39470491E+02 0.92091593E+02 0.80419002E+02 0.0000E+00 0.9000E+01
        1  1    1    2  501    0 -.45457188E+02 -.13017925E+02 0.27396499E+02 0.54648814E+02 0.32000000E+00 0.0000E+00 0.9000E+01
       21  1    1    2  502  503 -.34671988E+02 -.26408023E+02 -.52637772E+03 0.52817951E+03 0.75000000E+00 0.0000E+00 0.9000E+01
#aMCatNLO 2  0  0  2  1 0.43583603D+02 0.00000000D+00  -5  6  0 0.00000000D+00 0.00000000D+00 0.00000000D+00 0.00000000D+00 0.00000000D+00
  <mgrwgt>
 -.1606098370D+00    3    2    0
 0.152756325283549D+03 0.000000000000000D+00 0.000000000000000D+00 0.152756325283549D+03
 0.152756325283549D+03 0.000000000000000D+00 0.000000000000000D+00 -.152756325283549D+03
 0.156248737784895D+03 0.760877207461882D+02 0.959527955757579D+01 0.539189894307638D+02
 0.923838720796385D+02 -.245905855511373D+02 0.802271094973852D+01 -.373965650471486D+02
 0.568800407025650D+02 -.514971351950509D+02 -.176179905073143D+02 -.165224243836152D+02
 0.000000000000000D+00 -.000000000000000D+00 -.000000000000000D+00 -.000000000000000D+00
 0.154671346272357D+03 0.000000000000000D+00 0.000000000000000D+00 0.154671346272357D+03
 0.144309764003266D+04 0.000000000000000D+00 0.000000000000000D+00 -.144309764003266D+04
 0.167295082619975D+03 0.943544058234409D+02 0.235081549530138D+02 0.539189894307638D+02
 0.912219304442419D+02 -.142245418762401D+02 0.159180391596779D+02 -.373965650471486D+02
 0.500887388481320D+02 -.454578759481720D+02 -.130181706151322D+02 -.165224243836152D+02
 0.128916323439267D+04 -.346719879990288D+02 -.264080234975595D+02 -.128842629376030D+04
-.641178837385D-03 0.000000000000D+00 0.000000000000D+00 0.347417729302D-06 0.000000000000D+00  6 2 21 25 24 1 21 4 0.57442032D-01 0.90030928D-01 0.27629237D+05 0.27629237D+05 0.27629237D+05 0.12186687D+01  1  2 13  2  6  2       21 -.161511214543D+00 0.100000000000D+01
-.641469330568D-03 0.000000000000D+00 0.000000000000D+00 0.347417729302D-06 0.000000000000D+00  6 2 21 25 24 1 21 4 0.57442032D-01 0.90743308D-01 0.27629237D+05 0.27629237D+05 0.27629237D+05 0.12186687D+01  1  2 13  2  6  2       21 -.158673656457D+00 0.100000000000D+01
0.655257937687D-03 0.000000000000D+00 0.000000000000D+00 0.355587625399D-06 0.815451055360D-07  6 2 21 25 24 1 21 4 0.58162150D-01 0.90831903D-01 0.27629237D+05 0.27629237D+05 0.27629237D+05 0.12186687D+01  1  2  1  2  6  2       21 0.159575033963D+00 0.100000000000D+01
  </mgrwgt>
  </event>
  <event>
  6     66 -.45638357E-03 0.18065220E+02 0.75467711E-02 0.12367986E+00
        2 -1    0    0  502    0 0.00000000E+00 0.00000000E+00 0.77706962E+03 0.77706969E+03 0.32000000E+00 0.0000E+00 0.9000E+01
       21 -1    0    0  501  503 0.00000000E+00 0.00000000E+00 -.47663241E+02 0.47669142E+02 0.75000000E+00 0.0000E+00 0.9000E+01
       25  1    1    2    0    0 -.18515685E+02 -.28330007E+01 0.52665489E+03 0.54160985E+03 0.12500000E+03 0.0000E+00 0.9000E+01
       24  1    1    2    0    0 0.17231441E+02 -.29743141E+02 0.22127416E+03 0.23793076E+03 0.80419002E+02 0.0000E+00 0.9000E+01
        1  1    1    2  501    0 -.34453402E+01 0.23103524E+02 -.23795677E+02 0.33346361E+02 0.32000000E+00 0.0000E+00 0.9000E+01
       21  1    1    2  502  503 0.47295839E+01 0.94726180E+01 0.52730103E+01 0.11851860E+02 0.75000000E+00 0.0000E+00 0.9000E+01
#aMCatNLO 2  0  0  2  1 0.10587703D+02 0.00000000D+00  -5  6  0 0.00000000D+00 0.00000000D+00 0.00000000D+00 0.00000000D+00 0.00000000D+00
  <mgrwgt>
 -.3867836759D+00    3    2    0
 0.184596849555057D+03 0.000000000000000D+00 0.000000000000000D+00 0.184596849555057D+03
 0.184596849555057D+03 0.000000000000000D+00 0.000000000000000D+00 -.184596849555057D+03
 0.159224932012816D+03 -.164747745776459D+02 0.125457776812700D+01 0.972346996278871D+02
 0.893259417236658D+02 0.183787605894187D+02 -.274452642843048D+02 0.205155194428679D+02
 0.120642825373631D+03 -.190398601177277D+01 0.261906865161778D+02 -.117750219070755D+03
 0.000000000000000D+00 0.000000000000000D+00 0.000000000000000D+00 -.000000000000000D+00
 0.186721428877028D+03 0.000000000000000D+00 0.000000000000000D+00 0.186721428877028D+03
 0.198352171482388D+03 0.000000000000000D+00 0.000000000000000D+00 -.198352171482388D+03
 0.159469255549697D+03 -.185156830767937D+02 -.283304324869208D+01 0.972346996278871D+02
 0.898314026419115D+02 0.172314420593977D+02 -.297431641354045D+02 0.205155194428679D+02
 0.120044826304502D+03 -.344534287713283D+01 0.231035894121700D+02 -.117750219070755D+03
 0.157281158633063D+02 0.472958389452885D+01 0.947261797192658D+01 -.116307426053599D+02
-.281903628718D-04 0.000000000000D+00 0.000000000000D+00 0.685015278780D-05 0.000000000000D+00  6 2 21 25 24 1 21 4 0.11818375D+00 0.73703712D-02 0.15351185D+05 0.15351185D+05 0.15351185D+05 0.12466784D+01  1  2 13  2  6  2       21 -.444631623582D+00 0.100000000000D+01
-.345467291581D-06 0.000000000000D+00 0.000000000000D+00 0.688830946198D-05 0.000000000000D+00  6 2 21 25 24 1 21 4 0.11818375D+00 0.68243942D-02 0.14314348D+05 0.14314348D+05 0.14314348D+05 0.12501457D+01  1  2  8  2  6  2       21 -.628229102159D-02 0.100000000000D+01
0.408740984998D-05 0.000000000000D+00 0.000000000000D+00 0.688830946198D-05 0.548556211899D-06  6 2 21 25 24 1 21 4 0.11954396D+00 0.73329172D-02 0.15351185D+05 0.15351185D+05 0.15351185D+05 0.12466784D+01  1  2  1  2  6  2       21 0.641302387194D-01 0.100000000000D+01
  </mgrwgt>
  </event>
  <event>
  5     66 -.45638357E-03 0.91013840E+02 0.75467711E-02 0.11893838E+00
        2 -1    0    0  502    0 0.00000000E+00 0.00000000E+00 0.17772488E+03 0.17772517E+03 0.32000000E+00 0.0000E+00 0.9000E+01
       21 -1    0    0  501  502 -.00000000E+00 -.00000000E+00 -.28234960E+03 0.28235060E+03 0.75000000E+00 0.0000E+00 0.9000E+01
       25  1    1    2    0    0 0.26469690E+02 -.37879211E+02 0.16876781E+02 0.13433281E+03 0.12500000E+03 0.0000E+00 0.9000E+01
       24  1    1    2    0    0 0.16221883E+02 -.42500706E+02 0.68533629E+02 0.11503710E+03 0.80419002E+02 0.0000E+00 0.9000E+01
        1  1    1    2  501    0 -.42691573E+02 0.80379917E+02 -.19003514E+03 0.21070586E+03 0.32000000E+00 0.0000E+00 0.9000E+01
#aMCatNLO 1  0  0  5  2 0.54545004D+01 0.00000000D+00  -5  6  0 0.00000000D+00 0.00000000D+00 0.00000000D+00 0.00000000D+00 0.00000000D+00
  <mgrwgt>
 -.2119715886D-01    8    2    0
 0.224010812822892D+03 0.000000000000000D+00 0.000000000000000D+00 0.224010812822892D+03
 0.224010812822892D+03 -.000000000000000D+00 -.000000000000000D+00 -.224010812822892D+03
 0.141888285618252D+03 0.264697135115140D+02 -.378792548363698D+02 0.487011490146417D+02
 0.134136660272254D+03 0.162219055035084D+02 -.425007473910720D+02 0.972417807717393D+02
 0.171996679755279D+03 -.426916190150224D+02 0.803800022274417D+02 -.145942929786381D+03
 0.000000000000000D+00 0.000000000000000D+00 0.000000000000000D+00 -.000000000000000D+00
 0.224010812822892D+03 0.000000000000000D+00 0.000000000000000D+00 0.224010812822892D+03
 0.224010812822892D+03 -.000000000000000D+00 -.000000000000000D+00 -.224010812822892D+03
 0.141665867323954D+03 0.263499513943651D+02 -.376537660995805D+02 0.482917376440405D+02
 0.133775331628509D+03 0.161087500197086D+02 -.422876976578991D+02 0.968549544295170D+02
 0.161462583786122D+03 -.453103537921855D+02 0.752511333185496D+02 -.135478429044594D+03
 0.111178429071992D+02 0.285165237811177D+01 0.469033043892986D+01 -.966826302896319D+01
0.345869263212D-05 0.000000000000D+00 0.000000000000D+00 0.107458079392D-05 0.000000000000D+00  6 2 21 25 24 1 21 2 0.27342388D-01 0.43438500D-01 0.25070995D+05 0.25070995D+05 0.25070995D+05 0.12231656D+01  1  2  2  3  6  5        1 0.634133556502D-02 0.100000000000D+01
-.257544567399D-07 0.182520224657D-06 -.698210393073D-08 0.107458079392D-05 0.000000000000D+00  6 2 21 25 24 1 21 4 0.27342388D-01 0.43438500D-01 0.25070995D+05 0.25070995D+05 0.25070995D+05 0.12231656D+01  1  2  3  3  6  5        1 -.706466700376D-04 0.100000000000D+01
0.373913888738D-06 0.000000000000D+00 0.000000000000D+00 0.107458079392D-05 0.000000000000D+00  6 2 21 25 24 1 21 4 0.27342388D-01 0.43438500D-01 0.25070995D+05 0.25070995D+05 0.25070995D+05 0.12231656D+01  1  2 15  3  6  5        1 0.102567766763D-02 0.100000000000D+01
0.158302024343D-04 0.000000000000D+00 0.000000000000D+00 0.107349596346D-05 0.000000000000D+00  6 2 21 25 24 1 21 4 0.27342388D-01 0.43438500D-01 0.25406115D+05 0.25406115D+05 0.25406115D+05 0.12225481D+01  1  2 12  3  6  5        1 0.433293896850D-01 0.100000000000D+01
-.743918574427D-04 0.000000000000D+00 0.000000000000D+00 0.107458079392D-05 0.000000000000D+00  6 2 21 25 24 1 21 4 0.27342388D-01 0.43438500D-01 0.25070995D+05 0.25070995D+05 0.25070995D+05 0.12231656D+01  1  2  4  3  6  5        1 -.204063205810D+00 0.100000000000D+01
-.723359494805D-04 0.000000000000D+00 0.000000000000D+00 0.107458079392D-05 0.000000000000D+00  6 2 21 25 24 1 21 4 0.27342388D-01 0.43438500D-01 0.25070995D+05 0.25070995D+05 0.25070995D+05 0.12231656D+01  1  2  5  3  6  5        1 -.198423675033D+00 0.100000000000D+01
0.771625201309D-04 0.000000000000D+00 -.000000000000D+00 0.107458079392D-05 0.000000000000D+00  6 2 21 25 24 1 21 4 0.27342388D-01 0.43438500D-01 0.25070995D+05 0.25070995D+05 0.25070995D+05 0.12231656D+01  1  2  6  3  6  5        1 0.211663369723D+00 0.100000000000D+01
0.434763456944D-04 0.000000000000D+00 0.000000000000D+00 0.107458079392D-05 0.598118203635D-06  6 2 21 25 24 1 21 4 0.27342388D-01 0.43438500D-01 0.25406115D+05 0.25406115D+05 0.25406115D+05 0.12225481D+01  1  2 11  3  6  5        1 0.119000596012D+00 0.100000000000D+01
  </mgrwgt>
  </event>
  <event>
  5     66 0.45638357E-03 0.56760303E+02 0.75467711E-02 0.11736508E+00
        2 -1    0    0  502    0 0.00000000E+00 0.00000000E+00 0.79230593E+03 0.79230599E+03 0.32000000E+00 0.0000E+00 0.9000E+01
       21 -1    0    0  501  502 0.00000000E+00 0.00000000E+00 -.41105749E+02 0.41112590E+02 0.75000000E+00 0.0000E+00 0.9000E+01
       25  1    1    2    0    0 -.95936158E+02 0.13835143E+01 0.56487065E+03 0.58643799E+03 0.12500000E+03 0.0000E+00 0.9000E+01
       24  1    1    2    0    0 0.47539184E+02 0.28271615E+02 0.15202058E+03 0.18065639E+03 0.80419002E+02 0.0000E+00 0.9000E+01
        1  1    1    2  501    0 0.48396975E+02 -.29655129E+02 0.34308943E+02 0.66324202E+02 0.32000000E+00 0.0000E+00 0.9000E+01
#aMCatNLO 1  0  0  1  2 0.33502625D+02 0.00000000D+00  -5  6  0 0.00000000D+00 0.00000000D+00 0.00000000D+00 0.00000000D+00 0.00000000D+00
  <mgrwgt>
 0.8945592689D-02    7    2    0
 0.180474946773814D+03 0.000000000000000D+00 0.000000000000000D+00 0.180474946773814D+03
 0.180474946773814D+03 0.000000000000000D+00 0.000000000000000D+00 -.180474946773814D+03
 0.178466477416564D+03 -.959363416200852D+02 0.138362669515886D+01 0.837829785529247D+02
 0.100746621218874D+03 0.475390800375960D+02 0.282716783575738D+02 -.249682559397670D+02
 0.817367949121887D+02 0.483972615824893D+02 -.296553050527326D+02 -.588147226131577D+02
 0.000000000000000D+00 -.000000000000000D+00 0.000000000000000D+00 0.000000000000000D+00
 0.389024601443895D+03 0.000000000000000D+00 0.000000000000000D+00 0.389024601443895D+03
 0.182601228302028D+03 0.000000000000000D+00 0.000000000000000D+00 -.182601228302028D+03
 0.170672757590544D+03 -.804595934146481D+02 -.329492274726296D+01 0.837829785529247D+02
 0.104644053281666D+03 0.566436991530186D+02 0.255193940843852D+02 -.249682559397670D+02
 0.871845705731474D+02 0.558852582840973D+02 -.319188918429381D+02 -.588147226131577D+02
 0.209124448300565D+03 -.320693640224678D+02 0.969442050581587D+01 0.206423373141867D+03
0.108077044207D-05 0.000000000000D+00 0.000000000000D+00 0.431635502037D-06 0.000000000000D+00  6 2 21 25 24 1 21 2 0.12189375D+00 0.63244926D-02 0.24326878D+05 0.24326878D+05 0.24326878D+05 0.12245705D+01  1  2  2  1  6  1        2 0.132612694461D-01 0.100000000000D+01
-.296180497544D-08 0.570338231438D-07 -.218176413877D-08 0.431635502037D-06 0.000000000000D+00  6 2 21 25 24 1 21 4 0.12189375D+00 0.63244926D-02 0.24326878D+05 0.24326878D+05 0.24326878D+05 0.12245705D+01  1  2  3  1  6  1        2 -.544973916126D-04 0.100000000000D+01
0.902732406948D-07 0.000000000000D+00 0.000000000000D+00 0.431635502037D-06 0.000000000000D+00  6 2 21 25 24 1 21 4 0.12189375D+00 0.63244926D-02 0.24326878D+05 0.24326878D+05 0.24326878D+05 0.12245705D+01  1  2 15  1  6  1        2 0.166103311699D-02 0.100000000000D+01
0.337007612675D-04 0.000000000000D+00 0.000000000000D+00 0.424520139546D-06 0.000000000000D+00  6 2 21 25 24 1 21 4 0.26260420D+00 0.63244926D-02 0.30306541D+05 0.30306541D+05 0.30306541D+05 0.12144353D+01  1  2 12  1  6  1        2 0.181551735421D+00 0.100000000000D+01
-.336867116583D-04 0.000000000000D+00 -.939547419748D-06 0.431635502037D-06 0.000000000000D+00  6 2 21 25 24 1 21 4 0.26351272D+00 0.63244926D-02 0.24326878D+05 0.24326878D+05 0.24326878D+05 0.12245705D+01  1  2  5  1  6  1        2 -.187319697975D+00 0.100000000000D+01
0.279995050783D-05 0.000000000000D+00 0.000000000000D+00 0.424520139546D-06 0.000000000000D+00  6 21 21 25 24 1 -2 4 0.26260420D+00 0.63244926D-02 0.30306541D+05 0.30306541D+05 0.30306541D+05 0.12144353D+01  1  2 12  4  6  1        2 0.627509464589D-02 0.100000000000D+01
-.275299052440D-05 0.000000000000D+00 -.784255083522D-07 0.431635502037D-06 0.000000000000D+00  6 21 21 25 24 1 -2 4 0.26351272D+00 0.63244926D-02 0.24326878D+05 0.24326878D+05 0.24326878D+05 0.12245705D+01  1  2  5  4  6  1        2 -.642934457402D-02 0.100000000000D+01
  </mgrwgt>
  </event>
  <event>
  5     66 -.45638357E-03 0.65840357E+02 0.75467711E-02 0.12014296E+00
        2 -1    0    0  502    0 0.00000000E+00 0.00000000E+00 0.21764153E+03 0.21764177E+03 0.32000000E+00 0.0000E+00 0.9000E+01
       21 -1    0    0  501  502 0.00000000E+00 0.00000000E+00 -.11510803E+03 0.11511047E+03 0.75000000E+00 0.0000E+00 0.9000E+01
       25  1    1    2    0    0 0.55527702E+02 0.33846434E+02 0.10734553E+01 0.14090798E+03 0.12500000E+03 0.0000E+00 0.9000E+01
       24  1    1    2    0    0 0.86917527E+01 -.48363093E+02 0.76671864E+02 0.12149208E+03 0.80419002E+02 0.0000E+00 0.9000E+01
        1  1    1    2  501    0 -.64219455E+02 0.14516659E+02 0.24788183E+02 0.70352173E+02 0.32000000E+00 0.0000E+00 0.9000E+01
#aMCatNLO 1  0  0  5  2 0.73012655D+01 0.00000000D+00  -5  6  0 0.00000000D+00 0.00000000D+00 0.00000000D+00 0.00000000D+00 0.00000000D+00
  <mgrwgt>
 -.3036026247D+00    8    2    0
 0.158280550920373D+03 0.000000000000000D+00 0.000000000000000D+00 0.158280550920373D+03
 0.158280550920373D+03 -.000000000000000D+00 -.000000000000000D+00 -.158280550920373D+03
 0.147767423859453D+03 0.555280553301353D+02 0.338463542647552D+02 -.445114696263484D+02
 0.102872210848042D+03 0.869199860281465D+01 -.483631484082548D+02 0.412423428859611D+02
 0.659214671332522D+02 -.642200539329499D+02 0.145167941434996D+02 0.326912674038732D+01
 0.000000000000000D+00 0.000000000000000D+00 0.000000000000000D+00 0.000000000000000D+00
 0.158280550920373D+03 0.000000000000000D+00 0.000000000000000D+00 0.158280550920373D+03
 0.158280550920373D+03 -.000000000000000D+00 -.000000000000000D+00 -.158280550920373D+03
 0.147372594938636D+03 0.543515375142030D+02 0.341123033864716D+02 -.444515788972528D+02
 0.102735934097140D+03 0.787238204720862D+01 -.481778759881045D+02 0.412840655291964D+02
 0.525432448998598D+02 -.506003016434298D+02 0.102366882314379D+02 0.977815280372015D+01
 0.139093279051112D+02 -.116236179179818D+02 0.382888437019499D+01 -.661063943566377D+01
0.283088851510D-05 0.000000000000D+00 0.000000000000D+00 0.242885372143D-06 0.000000000000D+00  6 2 21 25 24 1 21 2 0.33483518D-01 0.17709133D-01 0.22648363D+05 0.22648363D+05 0.22648363D+05 0.12279243D+01  1  2  2  3  6  5        1 0.236122960910D-01 0.100000000000D+01
-.190215270546D-06 0.149390091203D-06 -.571474829684D-08 0.242885372143D-06 0.000000000000D+00  6 2 21 25 24 1 21 4 0.33483518D-01 0.17709133D-01 0.22648363D+05 0.22648363D+05 0.22648363D+05 0.12279243D+01  1  2  3  3  6  5        1 -.239223601470D-02 0.100000000000D+01
0.331796823503D-06 0.000000000000D+00 0.000000000000D+00 0.242885372143D-06 0.000000000000D+00  6 2 21 25 24 1 21 4 0.33483518D-01 0.17709133D-01 0.22648363D+05 0.22648363D+05 0.22648363D+05 0.12279243D+01  1  2 15  3  6  5        1 0.417283169995D-02 0.100000000000D+01
0.102811275754D-04 0.000000000000D+00 0.000000000000D+00 0.243201564147D-06 0.000000000000D+00  6 2 21 25 24 1 21 4 0.33483518D-01 0.17709133D-01 0.22267843D+05 0.22267843D+05 0.22267843D+05 0.12287233D+01  1  2 12  3  6  5        1 0.129619893569D+00 0.100000000000D+01
-.399719528254D-04 0.000000000000D+00 0.000000000000D+00 0.242885372143D-06 0.000000000000D+00  6 2 21 25 24 1 21 4 0.33483518D-01 0.17709133D-01 0.22648363D+05 0.22648363D+05 0.22648363D+05 0.12279243D+01  1  2  4  3  6  5        1 -.502705933401D+00 0.100000000000D+01
-.994065682347D-05 0.000000000000D+00 0.000000000000D+00 0.242885372143D-06 0.000000000000D+00  6 2 21 25 24 1 21 4 0.33483518D-01 0.17709133D-01 0.22648363D+05 0.22648363D+05 0.22648363D+05 0.12279243D+01  1  2  5  3  6  5        1 -.125018339456D+00 0.100000000000D+01
0.127258372099D-04 0.000000000000D+00 -.000000000000D+00 0.242885372143D-06 0.000000000000D+00  6 2 21 25 24 1 21 4 0.33483518D-01 0.17709133D-01 0.22648363D+05 0.22648363D+05 0.22648363D+05 0.12279243D+01  1  2  6  3  6  5        1 0.160046067823D+00 0.100000000000D+01
0.718838361239D-06 0.000000000000D+00 0.000000000000D+00 0.242885372143D-06 0.708653099741D-07  6 2 21 25 24 1 21 4 0.33483518D-01 0.17709133D-01 0.22267843D+05 0.22267843D+05 0.22267843D+05 0.12287233D+01  1  2 11  3  6  5        1 0.906279502839D-02 0.100000000000D+01
  </mgrwgt>
  </event>
  <event>
  5     66 -.45638357E-03 0.21389100E+02 0.75467711E-02 0.12002704E+00
        2 -1    0    0  502    0 0.00000000E+00 0.00000000E+00 0.15115631E+04 0.15115632E+04 0.32000000E+00 0.0000E+00 0.9000E+01
       21 -1    0    0  501  502 0.00000000E+00 0.00000000E+00 -.16441189E+02 0.16458286E+02 0.75000000E+00 0.0000E+00 0.9000E+01
       25  1    1    2    0    0 -.93743482E+02 -.21394553E+02 0.68528993E+03 0.70320186E+03 0.12500000E+03 0.0000E+00 0.9000E+01
       24  1    1    2    0    0 0.81757362E+02 0.39108446E+02 0.77120657E+03 0.78066671E+03 0.80419002E+02 0.0000E+00 0.9000E+01
        1  1    1    2  501    0 0.11986120E+02 -.17713892E+02 0.38625453E+02 0.44152883E+02 0.32000000E+00 0.0000E+00 0.9000E+01
#aMCatNLO 1  0  0  5  2 0.79949046D+00 0.00000000D+00  -5  6  0 0.00000000D+00 0.00000000D+00 0.00000000D+00 0.00000000D+00 0.00000000D+00
  <mgrwgt>
 -.1484348262D+00    7    2    0
 0.157686344780189D+03 0.000000000000000D+00 0.000000000000000D+00 0.157686344780189D+03
 0.157686344780189D+03 -.000000000000000D+00 -.000000000000000D+00 -.157686344780189D+03
 0.158274767549993D+03 -.937438062661355D+02 -.213940738709266D+02 -.134273762495507D+02
 0.126287584559284D+03 0.817571026500969D+02 0.391088283449796D+02 0.356035640237365D+02
 0.308103374511005D+02 0.119867036160386D+02 -.177147544740531D+02 -.221761877741858D+02
 0.000000000000000D+00 0.000000000000000D+00 0.000000000000000D+00 -.000000000000000D+00
 0.157686344780189D+03 0.000000000000000D+00 0.000000000000000D+00 0.157686344780189D+03
 0.157686344780189D+03 -.000000000000000D+00 -.000000000000000D+00 -.157686344780189D+03
 0.158261361723925D+03 -.936866106404456D+02 -.214786014023098D+02 -.135331919079493D+02
 0.126272493604557D+03 0.818027382991080D+02 0.390413849223848D+02 0.355191350802935D+02
 0.295645270188606D+02 0.121190754581829D+02 -.171639908937416D+02 -.207987183376132D+02
 0.127430721303536D+01 -.235203116845270D+00 -.398792626333505D+00 -.118722483473108D+01
0.277363412901D-05 0.000000000000D+00 0.000000000000D+00 0.120969787984D-05 0.000000000000D+00  6 2 21 25 24 1 21 2 0.23254949D+00 0.25307315D-02 0.22538748D+05 0.22538748D+05 0.22538748D+05 0.12281529D+01  1  2  2  3  6  5        1 0.607138860906D-01 0.100000000000D+01
0.286954086445D-06 0.146368694241D-06 -.559916818706D-08 0.120969787984D-05 0.000000000000D+00  6 2 21 25 24 1 21 4 0.23254949D+00 0.25307315D-02 0.22538748D+05 0.22538748D+05 0.22538748D+05 0.12281529D+01  1  2  3  3  6  5        1 0.947449705467D-02 0.100000000000D+01
0.275658668822D-06 0.000000000000D+00 0.000000000000D+00 0.120969787984D-05 0.000000000000D+00  6 2 21 25 24 1 21 4 0.23254949D+00 0.25307315D-02 0.22538748D+05 0.22538748D+05 0.22538748D+05 0.12281529D+01  1  2 15  3  6  5        1 0.910155097703D-02 0.100000000000D+01
-.335284049342D-03 0.000000000000D+00 0.000000000000D+00 0.120969787984D-05 0.000000000000D+00  6 2 21 25 24 1 21 4 0.23254949D+00 0.25307315D-02 0.22538748D+05 0.22538748D+05 0.22538748D+05 0.12281529D+01  1  2  4  3  6  5        1 -.110702300055D+02 0.100000000000D+01
-.566716328918D-04 0.000000000000D+00 0.000000000000D+00 0.120969787984D-05 0.000000000000D+00  6 2 21 25 24 1 21 4 0.23254949D+00 0.25307315D-02 0.22538748D+05 0.22538748D+05 0.22538748D+05 0.12281529D+01  1  2  5  3  6  5        1 -.187115376390D+01 0.100000000000D+01
0.613593316833D-04 0.000000000000D+00 -.000000000000D+00 0.120969787984D-05 0.000000000000D+00  6 2 21 25 24 1 21 4 0.23254949D+00 0.25307315D-02 0.22538748D+05 0.22538748D+05 0.22538748D+05 0.12281529D+01  1  2  6  3  6  5        1 0.202592970364D+01 0.100000000000D+01
0.323722790308D-03 0.000000000000D+00 0.000000000000D+00 0.120969787984D-05 0.109911389916D-03  6 2 21 25 24 1 21 4 0.23254949D+00 0.25307315D-02 0.22549518D+05 0.22549518D+05 0.22549518D+05 0.12281304D+01  1  2 11  3  6  5        1 0.106877293055D+02 0.100000000000D+01
  </mgrwgt>
  </event>
  <event>
  5     66 -.45638357E-03 0.34768362E+02 0.75467711E-02 0.11712839E+00
        2 -1    0    0  502    0 0.00000000E+00 0.00000000E+00 0.12112944E+04 0.12112944E+04 0.32000000E+00 0.0000E+00 0.9000E+01
       21 -1    0    0  501  502 0.00000000E+00 0.00000000E+00 -.37166657E+02 0.37174223E+02 0.75000000E+00 0.0000E+00 0.9000E+01
       25  1    1    2    0    0 -.67408047E+02 -.77894948E+02 0.38254059E+03 0.41541999E+03 0.12500000E+03 0.0000E+00 0.9000E+01
       24  1    1    2    0    0 0.76210871E+02 0.11153023E+03 0.78105482E+03 0.79671885E+03 0.80419002E+02 0.0000E+00 0.9000E+01
        1  1    1    2  501    0 -.88028241E+01 -.33635287E+02 0.10532319E+02 0.36329800E+02 0.32000000E+00 0.0000E+00 0.9000E+01
#aMCatNLO 1  0  0  5  2 0.98676002D+01 0.00000000D+00  -5  6  0 0.00000000D+00 0.00000000D+00 0.00000000D+00 0.00000000D+00 0.00000000D+00
  <mgrwgt>
 -.8193845152D-01    8    2    0
 0.212189801634684D+03 0.000000000000000D+00 0.000000000000000D+00 0.212189801634684D+03
 0.212189801634684D+03 -.000000000000000D+00 -.000000000000000D+00 -.212189801634684D+03
 0.163738507241032D+03 -.674080185524741D+02 -.778948377188333D+02 -.239552091434698D+02
 0.182903435607227D+03 0.762109035688402D+02 0.111530357577520D+03 0.934843747286567D+02
 0.777376604211101D+02 -.880288501636618D+01 -.336355198586870D+02 -.695291655851869D+02
 0.000000000000000D+00 0.000000000000000D+00 0.000000000000000D+00 -.000000000000000D+00
 0.212189801634684D+03 0.000000000000000D+00 0.000000000000000D+00 0.212189801634684D+03
 0.212189801634684D+03 -.000000000000000D+00 -.000000000000000D+00 -.212189801634684D+03
 0.164160870533130D+03 -.675318761686783D+02 -.783680933960051D+02 -.249334925914573D+02
 0.181970159872382D+03 0.760730796606074D+02 0.111003737180486D+03 0.923957791921588D+02
 0.270888519648568D+02 -.652998180092117D+01 -.189689841155011D+02 -.182028261563810D+02
 0.511597208990009D+02 -.201122169100796D+01 -.136666596689795D+02 -.492594604443205D+02
0.560048535135D-05 0.000000000000D+00 0.000000000000D+00 0.739020893394D-06 0.000000000000D+00  6 2 21 25 24 1 21 2 0.18635357D+00 0.57185324D-02 0.31320680D+05 0.31320680D+05 0.31320680D+05 0.12129396D+01  1  2  2  3  6  5        1 0.444716763948D-01 0.100000000000D+01
0.527742122559D-06 0.295545731651D-06 -.113057663530D-07 0.739020893394D-06 0.000000000000D+00  6 2 21 25 24 1 21 4 0.18635357D+00 0.57185324D-02 0.31320680D+05 0.31320680D+05 0.31320680D+05 0.12129396D+01  1  2  3  3  6  5        1 0.616535310981D-02 0.100000000000D+01
0.538011765523D-06 0.000000000000D+00 0.000000000000D+00 0.739020893394D-06 0.000000000000D+00  6 2 21 25 24 1 21 4 0.18635357D+00 0.57185324D-02 0.31320680D+05 0.31320680D+05 0.31320680D+05 0.12129396D+01  1  2 15  3  6  5        1 0.628532832588D-02 0.100000000000D+01
0.606502540352D-05 0.000000000000D+00 0.000000000000D+00 0.739350521022D-06 0.000000000000D+00  6 2 21 25 24 1 21 4 0.18635357D+00 0.57185324D-02 0.31134515D+05 0.31134515D+05 0.31134515D+05 0.12132101D+01  1  2 12  3  6  5        1 0.709225113842D-01 0.100000000000D+01
-.253421133842D-04 0.000000000000D+00 0.000000000000D+00 0.739020893394D-06 0.000000000000D+00  6 2 21 25 24 1 21 4 0.18635357D+00 0.57185324D-02 0.31320680D+05 0.31320680D+05 0.31320680D+05 0.12129396D+01  1  2  4  3  6  5        1 -.296059516350D+00 0.100000000000D+01
-.638195101226D-05 0.000000000000D+00 0.000000000000D+00 0.739020893394D-06 0.000000000000D+00  6 2 21 25 24 1 21 4 0.18635357D+00 0.57185324D-02 0.31320680D+05 0.31320680D+05 0.31320680D+05 0.12129396D+01  1  2  5  3  6  5        1 -.745572123925D-01 0.100000000000D+01
0.137670223290D-04 0.000000000000D+00 -.000000000000D+00 0.739020893394D-06 0.000000000000D+00  6 2 21 25 24 1 21 4 0.18635357D+00 0.57185324D-02 0.31320680D+05 0.31320680D+05 0.31320680D+05 0.12129396D+01  1  2  6  3  6  5        1 0.160833388696D+00 0.100000000000D+01
0.165151270319D-11 0.000000000000D+00 0.000000000000D+00 0.739020893394D-06 0.103645201642D-06  6 2 21 25 24 1 21 4 0.18635357D+00 0.57185324D-02 0.31134515D+05 0.31134515D+05 0.31134515D+05 0.12132101D+01  1  2 11  3  6  5        1 0.193122733542D-07 0.100000000000D+01
  </mgrwgt>
  </event>
  <event>
  5     66 -.45638357E-03 0.67255136E+02 0.75467711E-02 0.11481778E+00
        2 -1    0    0  502    0 0.00000000E+00 0.00000000E+00 0.23277221E+04 0.23277221E+04 0.32000000E+00 0.0000E+00 0.9000E+01
       21 -1    0    0  501  502 0.00000000E+00 0.00000000E+00 -.22936006E+02 0.22948265E+02 0.75000000E+00 0.0000E+00 0.9000E+01
       25  1    1    2    0    0 0.67777543E+01 -.95542318E+02 0.13072773E+04 0.13167282E+04 0.12500000E+03 0.0000E+00 0.9000E+01
       24  1    1    2    0    0 0.57522335E+02 0.66668309E+02 0.92559413E+03 0.93324444E+03 0.80419002E+02 0.0000E+00 0.9000E+01
        1  1    1    2  501    0 -.64300089E+02 0.28874009E+02 0.71914666E+02 0.10069772E+03 0.32000000E+00 0.0000E+00 0.9000E+01
#aMCatNLO 1  0  0  2  1 0.62659236D+02 0.00000000D+00  -5  6  0 0.00000000D+00 0.00000000D+00 0.00000000D+00 0.00000000D+00 0.00000000D+00
  <mgrwgt>
 -.4415336018D-01   21    2    0
 0.231091070163817D+03 0.000000000000000D+00 0.000000000000000D+00 0.231091070163817D+03
 0.231091070163817D+03 0.000000000000000D+00 0.000000000000000D+00 -.231091070163817D+03
 0.177850944069272D+03 0.677780803304674D+01 -.955423420976276D+02 0.826539804915547D+02
 0.130800420283826D+03 0.575223740730988D+02 0.666682909015412D+02 0.537405755581114D+02
 0.153530775974536D+03 -.643001821061456D+02 0.288740511960864D+02 -.136394556049666D+03
 0.000000000000000D+00 -.000000000000000D+00 0.000000000000000D+00 -.000000000000000D+00
 0.235522973321071D+03 0.000000000000000D+00 0.000000000000000D+00 0.235522973321071D+03
 0.656676558834699D+03 0.000000000000000D+00 0.000000000000000D+00 -.656676558834699D+03
 0.183273584064272D+03 0.305270310988856D+02 -.100998150958089D+03 0.826539804915547D+02
 0.137573840295657D+03 0.751719095742563D+02 0.626137375419091D+02 0.537405755581114D+02
 0.145562814286396D+03 -.446304010769192D+02 0.243553953510050D+02 -.136394556049666D+03
 0.425789293509445D+03 -.610685395962227D+02 0.140290180651751D+02 -.421153585513627D+03
0.313663423483D-05 0.000000000000D+00 0.000000000000D+00 0.826419329810D-06 0.000000000000D+00  6 2 21 25 24 1 21 2 0.35811204D+00 0.35295610D-02 0.30139403D+05 0.30139403D+05 0.30139403D+05 0.12146871D+01  1  2  2  2  6  2       21 0.145928531233D-01 0.100000000000D+01
0.100411511345D-06 0.165524736107D-06 -.633196081574D-08 0.826419329810D-06 0.000000000000D+00  6 2 21 25 24 1 21 4 0.35811204D+00 0.35295610D-02 0.30139403D+05 0.30139403D+05 0.30139403D+05 0.12146871D+01  1  2  3  2  6  2       21 0.689268935474D-03 0.100000000000D+01
0.279669853347D-06 0.000000000000D+00 0.000000000000D+00 0.826419329810D-06 0.000000000000D+00  6 2 21 25 24 1 21 4 0.35811204D+00 0.35295610D-02 0.30139403D+05 0.30139403D+05 0.30139403D+05 0.12146871D+01  1  2 15  2  6  2       21 0.191977731953D-02 0.100000000000D+01
0.555161261452D-04 0.000000000000D+00 0.000000000000D+00 0.808147440673D-06 0.000000000000D+00  6 2 21 25 24 1 21 4 0.35811204D+00 0.99888513D-02 0.40748111D+05 0.40748111D+05 0.40748111D+05 0.12011839D+01  1  2 12  2  6  2       21 0.606561893627D-01 0.100000000000D+01
-.104427465574D-03 0.000000000000D+00 -.709045374803D-05 0.826419329810D-06 0.000000000000D+00  6 2 21 25 24 1 21 4 0.35811204D+00 0.10197183D-01 0.30139403D+05 0.30139403D+05 0.30139403D+05 0.12146871D+01  1  2  5  2  6  2       21 -.116848252526D+00 0.100000000000D+01
0.148062735992D-04 0.000000000000D+00 0.000000000000D+00 0.808147440673D-06 0.000000000000D+00  6 2 -1 25 24 1 -1 4 0.35811204D+00 0.99888513D-02 0.40748111D+05 0.40748111D+05 0.40748111D+05 0.12011839D+01  1  2 12  5  6  2       21 0.108783819245D-02 0.100000000000D+01
-.241392527609D-04 0.000000000000D+00 -.245710717596D-05 0.826419329810D-06 0.000000000000D+00  6 2 -1 25 24 1 -1 4 0.35811204D+00 0.10197183D-01 0.30139403D+05 0.30139403D+05 0.30139403D+05 0.12146871D+01  1  2  5  5  6  2       21 -.181383018452D-02 0.100000000000D+01
0.148062735992D-04 0.000000000000D+00 0.000000000000D+00 0.808147440673D-06 0.000000000000D+00  6 2 1 25 24 1 1 4 0.35811204D+00 0.99888513D-02 0.40748111D+05 0.40748111D+05 0.40748111D+05 0.12011839D+01  1  2 12  6  6  2       21 0.136160489126D-02 0.100000000000D+01
-.241392527609D-04 0.000000000000D+00 -.245710717596D-05 0.826419329810D-06 0.000000000000D+00  6 2 1 25 24 1 1 4 0.35811204D+00 0.10197183D-01 0.30139403D+05 0.30139403D+05 0.30139403D+05 0.12146871D+01  1  2  5  6  6  2       21 -.228073335947D-02 0.100000000000D+01
0.148062735992D-04 0.000000000000D+00 0.000000000000D+00 0.808147440673D-06 0.000000000000D+00  6 2 -2 25 24 1 -2 4 0.35811204D+00 0.99888513D-02 0.40748111D+05 0.40748111D+05 0.40748111D+05 0.12011839D+01  1  2 12  7  6  2       21 0.104041503890D-02 0.100000000000D+01
-.241392527609D-04 0.000000000000D+00 -.245710717596D-05 0.826419329810D-06 0.000000000000D+00  6 2 -2 25 24 1 -2 4 0.35811204D+00 0.10197183D-01 0.30139403D+05 0.30139403D+05 0.30139403D+05 0.12146871D+01  1  2  5  7  6  2       21 -.173287374841D-02 0.100000000000D+01
0.148062735992D-04 0.000000000000D+00 0.000000000000D+00 0.808147440673D-06 0.000000000000D+00  6 2 2 25 24 1 2 4 0.35811204D+00 0.99888513D-02 0.40748111D+05 0.40748111D+05 0.40748111D+05 0.12011839D+01  1  2 12  8  6  2       21 0.154757209312D-02 0.100000000000D+01
-.241392527609D-04 0.000000000000D+00 -.245710717596D-05 0.826419329810D-06 0.000000000000D+00  6 2 2 25 24 1 2 4 0.35811204D+00 0.10197183D-01 0.30139403D+05 0.30139403D+05 0.30139403D+05 0.12146871D+01  1  2  5  8  6  2       21 -.259750546921D-02 0.100000000000D+01
0.148062735992D-04 0.000000000000D+00 0.000000000000D+00 0.808147440673D-06 0.000000000000D+00  6 2 -3 25 24 1 -3 4 0.35811204D+00 0.99888513D-02 0.40748111D+05 0.40748111D+05 0.40748111D+05 0.12011839D+01  1  2 12  9  6  2       21 0.726975356943D-03 0.100000000000D+01
0.148062735992D-04 0.000000000000D+00 0.000000000000D+00 0.808147440673D-06 0.000000000000D+00  6 2 -4 25 24 1 -4 4 0.35811204D+00 0.99888513D-02 0.40748111D+05 0.40748111D+05 0.40748111D+05 0.12011839D+01  1  2 12  9  6  2       21 0.639442924224D-03 0.100000000000D+01
-.241392527609D-04 0.000000000000D+00 -.245710717596D-05 0.826419329810D-06 0.000000000000D+00  6 2 -3 25 24 1 -3 4 0.35811204D+00 0.10197183D-01 0.30139403D+05 0.30139403D+05 0.30139403D+05 0.12146871D+01  1  2  5  9  6  2       21 -.120129637984D-02 0.100000000000D+01
-.241392527609D-04 0.000000000000D+00 -.245710717596D-05 0.826419329810D-06 0.000000000000D+00  6 2 -4 25 24 1 -4 4 0.35811204D+00 0.10197183D-01 0.30139403D+05 0.30139403D+05 0.30139403D+05 0.12146871D+01  1  2  5  9  6  2       21 -.105299410580D-02 0.100000000000D+01
0.148062735992D-04 0.000000000000D+00 0.000000000000D+00 0.808147440673D-06 0.000000000000D+00  6 2 3 25 24 1 3 4 0.35811204D+00 0.99888513D-02 0.40748111D+05 0.40748111D+05 0.40748111D+05 0.12011839D+01  1  2 12 10  6  2       21 0.726889299492D-03 0.100000000000D+01
0.148062735992D-04 0.000000000000D+00 0.000000000000D+00 0.808147440673D-06 0.000000000000D+00  6 2 4 25 24 1 4 4 0.35811204D+00 0.99888513D-02 0.40748111D+05 0.40748111D+05 0.40748111D+05 0.12011839D+01  1  2 12 10  6  2       21 0.639442924224D-03 0.100000000000D+01
-.241392527609D-04 0.000000000000D+00 -.245710717596D-05 0.826419329810D-06 0.000000000000D+00  6 2 3 25 24 1 3 4 0.35811204D+00 0.10197183D-01 0.30139403D+05 0.30139403D+05 0.30139403D+05 0.12146871D+01  1  2  5 10  6  2       21 -.120114976015D-02 0.100000000000D+01
-.241392527609D-04 0.000000000000D+00 -.245710717596D-05 0.826419329810D-06 0.000000000000D+00  6 2 4 25 24 1 4 4 0.35811204D+00 0.10197183D-01 0.30139403D+05 0.30139403D+05 0.30139403D+05 0.12146871D+01  1  2  5 10  6  2       21 -.105299410580D-02 0.100000000000D+01
  </mgrwgt>
  </event>
  <event>
  5     66 0.45638357E-03 0.34340745E+02 0.75467711E-02 0.11814407E+00
        2 -1    0    0  502    0 0.00000000E+00 0.00000000E+00 0.82445651E+02 0.82446272E+02 0.32000000E+00 0.0000E+00 0.9000E+01
       21 -1    0    0  501  502 0.00000000E+00 0.00000000E+00 -.59020109E+03 0.59020157E+03 0.75000000E+00 0.0000E+00 0.9000E+01
       25  1    1    2    0    0 -.79629415E+00 0.38726033E+02 -.20740160E+03 0.24523614E+03 0.12500000E+03 0.0000E+00 0.9000E+01
       24  1    1    2    0    0 0.21761855E+02 -.11528114E+02 0.34423724E+02 0.90877304E+02 0.80419002E+02 0.0000E+00 0.9000E+01
        1  1    1    2  501    0 -.20965561E+02 -.27197919E+02 -.33477756E+03 0.33653439E+03 0.32000000E+00 0.0000E+00 0.9000E+01
#aMCatNLO 1  0  0  2  1 0.99118671D+01 0.00000000D+00  -5  6  0 0.00000000D+00 0.00000000D+00 0.00000000D+00 0.00000000D+00 0.00000000D+00
  <mgrwgt>
 0.1357458196D+00   14    2    0
 0.220589850984990D+03 0.000000000000000D+00 0.000000000000000D+00 0.220589850984990D+03
 0.220589850984990D+03 0.000000000000000D+00 0.000000000000000D+00 -.220589850984990D+03
 0.135201728561114D+03 -.796274010790453D+00 0.387260596217064D+02 -.339730136989476D+02
 0.178175278912374D+03 0.217618812150581D+02 -.115280798518426D+02 0.157075580412879D+03
 0.127802694496492D+03 -.209656072042677D+02 -.271979797698638D+02 -.123102566713932D+03
 0.000000000000000D+00 -.000000000000000D+00 0.000000000000000D+00 -.000000000000000D+00
 0.244309981481283D+03 0.000000000000000D+00 0.000000000000000D+00 0.244309981481283D+03
 0.281526769571705D+03 0.000000000000000D+00 0.000000000000000D+00 -.281526769571705D+03
 0.133641518887811D+03 0.173824208033242D+02 0.279059376812240D+02 -.339730136989476D+02
 0.184290619756103D+03 0.462711706055974D+02 -.261162283736111D+02 0.157075580412879D+03
 0.128745207444795D+03 -.361830144581417D+01 -.375232514994690D+02 -.123102566713932D+03
 0.791594049642800D+02 -.600352899631074D+02 0.357335421918562D+02 -.372167880904212D+02
0.644715047027D-04 0.000000000000D+00 0.000000000000D+00 0.146728411188D-05 0.000000000000D+00  6 2 21 25 24 1 21 2 0.12684031D-01 0.90800252D-01 0.15538846D+05 0.15538846D+05 0.15538846D+05 0.12460790D+01  1  2  2  2  6  2       21 0.609099301526D-01 0.100000000000D+01
0.648174883860D-05 0.340225477483D-05 -.130149392931D-06 0.146728411188D-05 0.000000000000D+00  6 2 21 25 24 1 21 4 0.12684031D-01 0.90800252D-01 0.15538846D+05 0.15538846D+05 0.15538846D+05 0.12460790D+01  1  2  3  2  6  2       21 0.950831627187D-02 0.100000000000D+01
0.674265193128D-05 0.000000000000D+00 0.000000000000D+00 0.146728411188D-05 0.000000000000D+00  6 2 21 25 24 1 21 4 0.12684031D-01 0.90800252D-01 0.15538846D+05 0.15538846D+05 0.15538846D+05 0.12460790D+01  1  2 15  2  6  2       21 0.989104463473D-02 0.100000000000D+01
-.199635719719D-04 0.000000000000D+00 0.000000000000D+00 0.146728411188D-05 0.000000000000D+00  6 2 21 25 24 1 21 4 0.12684031D-01 0.90800252D-01 0.15538846D+05 0.15538846D+05 0.15538846D+05 0.12460790D+01  1  2  4  2  6  2       21 -.292852995313D-01 0.100000000000D+01
-.181100789775D-03 0.000000000000D+00 -.777841247259D-04 0.146728411188D-05 0.000000000000D+00  6 2 21 25 24 1 21 4 0.12684031D-01 0.12458048D+00 0.15538846D+05 0.15538846D+05 0.15538846D+05 0.12460790D+01  1  2  5  2  6  2       21 -.125510073054D+00 0.100000000000D+01
0.159134498260D-03 0.000000000000D+00 0.641821302947D-04 0.146728411188D-05 0.000000000000D+00  6 2 21 25 24 1 21 4 0.12684031D-01 0.90800252D-01 0.15538846D+05 0.15538846D+05 0.15538846D+05 0.12460790D+01  1  2  6  2  6  2       21 0.233440260784D+00 0.100000000000D+01
-.187466348593D-04 0.000000000000D+00 -.781540554568D-05 0.146728411188D-05 0.000000000000D+00  6 2 -1 25 24 1 -1 4 0.12684031D-01 0.12458048D+00 0.15538846D+05 0.15538846D+05 0.15538846D+05 0.12460790D+01  1  2  5  5  6  2       21 -.149714531349D-02 0.100000000000D+01
-.187466348593D-04 0.000000000000D+00 -.781540554568D-05 0.146728411188D-05 0.000000000000D+00  6 2 1 25 24 1 1 4 0.12684031D-01 0.12458048D+00 0.15538846D+05 0.15538846D+05 0.15538846D+05 0.12460790D+01  1  2  5  6  6  2       21 -.662829041509D-02 0.100000000000D+01
-.187466348593D-04 0.000000000000D+00 -.781540554568D-05 0.146728411188D-05 0.000000000000D+00  6 2 -2 25 24 1 -2 4 0.12684031D-01 0.12458048D+00 0.15538846D+05 0.15538846D+05 0.15538846D+05 0.12460790D+01  1  2  5  7  6  2       21 -.109009691635D-02 0.100000000000D+01
-.187466348593D-04 0.000000000000D+00 -.781540554568D-05 0.146728411188D-05 0.000000000000D+00  6 2 2 25 24 1 2 4 0.12684031D-01 0.12458048D+00 0.15538846D+05 0.15538846D+05 0.15538846D+05 0.12460790D+01  1  2  5  8  6  2       21 -.115313950237D-01 0.100000000000D+01
-.187466348593D-04 0.000000000000D+00 -.781540554568D-05 0.146728411188D-05 0.000000000000D+00  6 2 -3 25 24 1 -3 4 0.12684031D-01 0.12458048D+00 0.15538846D+05 0.15538846D+05 0.15538846D+05 0.12460790D+01  1  2  5  9  6  2       21 -.687382858661D-03 0.100000000000D+01
-.187466348593D-04 0.000000000000D+00 -.781540554568D-05 0.146728411188D-05 0.000000000000D+00  6 2 -4 25 24 1 -4 4 0.12684031D-01 0.12458048D+00 0.15538846D+05 0.15538846D+05 0.15538846D+05 0.12460790D+01  1  2  5  9  6  2       21 -.542345331200D-03 0.100000000000D+01
-.187466348593D-04 0.000000000000D+00 -.781540554568D-05 0.146728411188D-05 0.000000000000D+00  6 2 3 25 24 1 3 4 0.12684031D-01 0.12458048D+00 0.15538846D+05 0.15538846D+05 0.15538846D+05 0.12460790D+01  1  2  5 10  6  2       21 -.689358475243D-03 0.100000000000D+01
-.187466348593D-04 0.000000000000D+00 -.781540554568D-05 0.146728411188D-05 0.000000000000D+00  6 2 4 25 24 1 4 4 0.12684031D-01 0.12458048D+00 0.15538846D+05 0.15538846D+05 0.15538846D+05 0.12460790D+01  1  2  5 10  6  2       21 -.542345331200D-03 0.100000000000D+01
  </mgrwgt>
  </event>
  <event>
  5     66 -.45638357E-03 0.21952395E+02 0.75467711E-02 0.11776558E+00
        2 -1    0    0  502    0 0.00000000E+00 0.00000000E+00 0.15006622E+03 0.15006656E+03 0.32000000E+00 0.0000E+00 0.9000E+01
       21 -1    0    0  501  502 -.00000000E+00 -.00000000E+00 -.19469087E+03 0.19469232E+03 0.75000000E+00 0.0000E+00 0.9000E+01
       25  1    1    2    0    0 0.81653148E+01 -.10814025E+03 -.93541990E+01 0.16575128E+03 0.12500000E+03 0.0000E+00 0.9000E+01
       24  1    1    2    0    0 -.57019536E+01 0.12995198E+03 -.25759792E+02 0.15508324E+03 0.80419002E+02 0.0000E+00 0.9000E+01
        1  1    1    2  501    0 -.24633613E+01 -.21811730E+02 -.95106641E+01 0.23924357E+02 0.32000000E+00 0.0000E+00 0.9000E+01
#aMCatNLO 1  0  0  5  2 0.17699143D+01 0.00000000D+00  -5  6  0 0.00000000D+00 0.00000000D+00 0.00000000D+00 0.00000000D+00 0.00000000D+00
  <mgrwgt>
 -.1020007785D+01    5    2    0
 0.170929314881998D+03 0.000000000000000D+00 0.000000000000000D+00 0.170929314881998D+03
 0.170929314881998D+03 -.000000000000000D+00 -.000000000000000D+00 -.170929314881998D+03
 0.165935772286430D+03 0.816543173282013D+01 -.108139211887257D+03 0.122031594807939D+02
 0.153037160343706D+03 -.570184575737938D+01 0.129952931701363D+03 -.573419470147959D+01
 0.228856971338594D+02 -.246358597544075D+01 -.218137198141065D+02 -.646896477931426D+01
 0.000000000000000D+00 0.000000000000000D+00 0.000000000000000D+00 0.000000000000000D+00
 0.170929314881998D+03 0.000000000000000D+00 0.000000000000000D+00 0.170929314881998D+03
 0.170929314881998D+03 -.000000000000000D+00 -.000000000000000D+00 -.170929314881998D+03
 0.166752796758055D+03 0.801829078014960D+01 -.109442065348322D+03 0.118167919458634D+02
 0.152042846106560D+03 -.583677604043284D+01 0.128758197107844D+03 -.608849906001921D+01
 0.211261768688859D+02 -.159136463917707D+01 -.196711362326908D+02 -.753852153910479D+01
 0.193681003049409D+01 -.590150100539686D+00 0.355004473168483D+00 0.181022865326066D+01
0.226847181234D-04 0.000000000000D+00 0.000000000000D+00 0.597054440594D-06 0.000000000000D+00  6 2 21 25 24 1 21 2 0.23087248D-01 0.29952579D-01 0.28962685D+05 0.28962685D+05 0.28962685D+05 0.12165056D+01  1  2  2  3  6  5        1 0.103686903082D+00 0.100000000000D+01
0.230090547431D-05 0.119710546399D-05 -.457939101342D-07 0.597054440594D-06 0.000000000000D+00  6 2 21 25 24 1 21 4 0.23087248D-01 0.29952579D-01 0.28962685D+05 0.28962685D+05 0.28962685D+05 0.12165056D+01  1  2  3  3  6  5        1 0.155638678887D-01 0.100000000000D+01
0.229539096603D-05 0.000000000000D+00 0.000000000000D+00 0.597054440594D-06 0.000000000000D+00  6 2 21 25 24 1 21 4 0.23087248D-01 0.29952579D-01 0.28962685D+05 0.28962685D+05 0.28962685D+05 0.12165056D+01  1  2 15  3  6  5        1 0.155265664527D-01 0.100000000000D+01
0.852568687325D-09 0.000000000000D+00 0.000000000000D+00 0.597502007113D-06 0.000000000000D+00  6 2 21 25 24 1 21 4 0.23087248D-01 0.29952579D-01 0.28675793D+05 0.28675793D+05 0.28675793D+05 0.12169615D+01  1  2 12  3  6  5        1 0.577582599968D-05 0.100000000000D+01
-.170720075418D-03 0.000000000000D+00 0.000000000000D+00 0.597054440594D-06 0.000000000000D+00  6 2 21 25 24 1 21 4 0.23087248D-01 0.29952579D-01 0.28962685D+05 0.28962685D+05 0.28962685D+05 0.12165056D+01  1  2  4  3  6  5        1 -.115479089838D+01 0.100000000000D+01
  </mgrwgt>
  </event>
  <event>
  5     66 0.45638357E-03 0.21934055E+02 0.75467711E-02 0.12511597E+00
        2 -1    0    0  502    0 0.00000000E+00 0.00000000E+00 0.25010736E+02 0.25012783E+02 0.32000000E+00 0.0000E+00 0.9000E+01
       21 -1    0    0  501  502 0.00000000E+00 0.00000000E+00 -.70853985E+03 0.70854025E+03 0.75000000E+00 0.0000E+00 0.9000E+01
       25  1    1    2    0    0 0.10870572E+02 0.97270163E+01 -.20375095E+03 0.23948326E+03 0.12500000E+03 0.0000E+00 0.9000E+01
       24  1    1    2    0    0 0.67735757E+01 0.33025400E+01 -.23869500E+03 0.25199069E+03 0.80419002E+02 0.0000E+00 0.9000E+01
        1  1    1    2  501    0 -.17644148E+02 -.13029556E+02 -.24108317E+03 0.24207908E+03 0.32000000E+00 0.0000E+00 0.9000E+01
#aMCatNLO 1  0  0  2  1 0.17793434D+01 0.00000000D+00  -5  6  0 0.00000000D+00 0.00000000D+00 0.00000000D+00 0.00000000D+00 0.00000000D+00
  <mgrwgt>
 0.2865735539D+00   32    2    0
 0.133124001198922D+03 0.000000000000000D+00 0.000000000000000D+00 0.133124001198922D+03
 0.133124001198922D+03 0.000000000000000D+00 0.000000000000000D+00 -.133124001198922D+03
 0.136729761412693D+03 0.108707729739795D+02 0.972716471636870D+01 0.534531216815330D+02
 0.814787137561200D+02 0.677369549919993D+01 0.330262842922460D+01 -.107132878111160D+02
 0.480395272290311D+02 -.176444684731795D+02 -.130297931455933D+02 -.427398338704170D+02
 0.000000000000000D+00 0.000000000000000D+00 0.000000000000000D+00 -.000000000000000D+00
 0.133437138499603D+03 0.000000000000000D+00 0.000000000000000D+00 0.133437138499603D+03
 0.135678896467278D+03 0.000000000000000D+00 0.000000000000000D+00 -.135678896467278D+03
 0.136643565884045D+03 0.104926472743320D+02 0.889563000483931D+01 0.534531216815330D+02
 0.814417027271102D+02 0.654834653381706D+01 0.280706442207632D+01 -.107132878111160D+02
 0.481686794228006D+02 -.177775421560138D+02 -.133224349484937D+02 -.427398338704170D+02
 0.286208693292460D+01 0.736548347864795D+00 0.161974052157804D+01 -.224175796767482D+01
0.102082566842D-04 0.000000000000D+00 0.000000000000D+00 0.291484617497D-05 0.000000000000D+00  6 2 21 25 24 1 21 2 0.38479936D-02 0.10900632D+00 0.13059194D+05 0.13059194D+05 0.13059194D+05 0.12547415D+01  1  2  2  2  6  2       21 0.288528076665D-01 0.100000000000D+01
0.100035174651D-05 0.538704505296D-06 -.206075291163D-07 0.291484617497D-05 0.000000000000D+00  6 2 21 25 24 1 21 4 0.38479936D-02 0.10900632D+00 0.13059194D+05 0.13059194D+05 0.13059194D+05 0.12547415D+01  1  2  3  2  6  2       21 0.445141130383D-02 0.100000000000D+01
0.996729424734D-06 0.000000000000D+00 0.000000000000D+00 0.291484617497D-05 0.000000000000D+00  6 2 21 25 24 1 21 4 0.38479936D-02 0.10900632D+00 0.13059194D+05 0.13059194D+05 0.13059194D+05 0.12547415D+01  1  2 15  2  6  2       21 0.443529252947D-02 0.100000000000D+01
0.126757205435D-07 0.000000000000D+00 0.000000000000D+00 0.291091662030D-05 0.000000000000D+00  6 2 21 25 24 1 21 4 0.38479936D-02 0.11122514D+00 0.13280656D+05 0.13280656D+05 0.13280656D+05 0.12538954D+01  1  2 12  2  6  2       21 0.536157159347D-04 0.100000000000D+01
-.177412150400D-03 0.000000000000D+00 0.000000000000D+00 0.291484617497D-05 0.000000000000D+00  6 2 21 25 24 1 21 4 0.38479936D-02 0.10900632D+00 0.13059194D+05 0.13059194D+05 0.13059194D+05 0.12547415D+01  1  2  4  2  6  2       21 -.789456763071D+00 0.100000000000D+01
-.152353170327D-02 0.000000000000D+00 -.134362738445D-03 0.291484617497D-05 0.000000000000D+00  6 2 21 25 24 1 21 4 0.38479936D-02 0.11124392D+00 0.13059194D+05 0.13059194D+05 0.13059194D+05 0.12547415D+01  1  2  5  2  6  2       21 -.645957348474D+01 0.100000000000D+01
0.152510573519D-02 0.000000000000D+00 0.134251852758D-03 0.291484617497D-05 0.000000000000D+00  6 2 21 25 24 1 21 4 0.38479936D-02 0.10900632D+00 0.13059194D+05 0.13059194D+05 0.13059194D+05 0.12547415D+01  1  2  6  2  6  2       21 0.678648578650D+01 0.100000000000D+01
0.173273972312D-03 0.000000000000D+00 0.000000000000D+00 0.291484617497D-05 0.978518258397D-05  6 2 21 25 24 1 21 4 0.38570449D-02 0.11109835D+00 0.13280656D+05 0.13280656D+05 0.13280656D+05 0.12538954D+01  1  2 11  2  6  2       21 0.732631751512D+00 0.100000000000D+01
0.872945374939D-09 0.000000000000D+00 0.000000000000D+00 0.291091662030D-05 0.000000000000D+00  6 2 -1 25 24 1 -1 4 0.38479936D-02 0.11122514D+00 0.13280656D+05 0.13280656D+05 0.13280656D+05 0.12538954D+01  1  2 12  5  6  2       21 0.418996124771D-06 0.100000000000D+01
-.644380344230D-05 0.000000000000D+00 -.625227561166D-06 0.291484617497D-05 0.000000000000D+00  6 2 -1 25 24 1 -1 4 0.38479936D-02 0.11124392D+00 0.13059194D+05 0.13059194D+05 0.13059194D+05 0.12547415D+01  1  2  5  5  6  2       21 -.309881326412D-02 0.100000000000D+01
0.120529257930D-04 0.000000000000D+00 0.000000000000D+00 0.291484617497D-05 0.655618227800D-06  6 2 -1 25 24 1 -1 4 0.38570449D-02 0.11109835D+00 0.13280656D+05 0.13280656D+05 0.13280656D+05 0.12538954D+01  1  2 11  5  6  2       21 0.578220476982D-02 0.100000000000D+01
0.872945374939D-09 0.000000000000D+00 0.000000000000D+00 0.291091662030D-05 0.000000000000D+00  6 2 1 25 24 1 1 4 0.38479936D-02 0.11122514D+00 0.13280656D+05 0.13280656D+05 0.13280656D+05 0.12538954D+01  1  2 12  6  6  2       21 0.168320970339D-05 0.100000000000D+01
-.644380344230D-05 0.000000000000D+00 -.625227561166D-06 0.291484617497D-05 0.000000000000D+00  6 2 1 25 24 1 1 4 0.38479936D-02 0.11124392D+00 0.13059194D+05 0.13059194D+05 0.13059194D+05 0.12547415D+01  1  2  5  6  6  2       21 -.124499483468D-01 0.100000000000D+01
0.266240822387D-05 0.000000000000D+00 0.000000000000D+00 0.291484617497D-05 0.349970601223D-07  6 2 1 25 24 1 1 4 0.38570449D-02 0.11109835D+00 0.13280656D+05 0.13280656D+05 0.13280656D+05 0.12538954D+01  1  2 11  6  6  2       21 0.512613168251D-02 0.100000000000D+01
0.872945374939D-09 0.000000000000D+00 0.000000000000D+00 0.291091662030D-05 0.000000000000D+00  6 2 -2 25 24 1 -2 4 0.38479936D-02 0.11122514D+00 0.13280656D+05 0.13280656D+05 0.13280656D+05 0.12538954D+01  1  2 12  7  6  2       21 0.306756278077D-06 0.100000000000D+01
-.644380344230D-05 0.000000000000D+00 -.625227561166D-06 0.291484617497D-05 0.000000000000D+00  6 2 -2 25 24 1 -2 4 0.38479936D-02 0.11124392D+00 0.13059194D+05 0.13059194D+05 0.13059194D+05 0.12547415D+01  1  2  5  7  6  2       21 -.226839387702D-02 0.100000000000D+01
0.270466903881D-05 0.000000000000D+00 0.000000000000D+00 0.291484617497D-05 0.684608276939D-07  6 2 -2 25 24 1 -2 4 0.38570449D-02 0.11109835D+00 0.13280656D+05 0.13280656D+05 0.13280656D+05 0.12538954D+01  1  2 11  7  6  2       21 0.950028712520D-03 0.100000000000D+01
0.872945374939D-09 0.000000000000D+00 0.000000000000D+00 0.291091662030D-05 0.000000000000D+00  6 2 2 25 24 1 2 4 0.38479936D-02 0.11122514D+00 0.13280656D+05 0.13280656D+05 0.13280656D+05 0.12538954D+01  1  2 12  8  6  2       21 0.284239953557D-05 0.100000000000D+01
-.644380344230D-05 0.000000000000D+00 -.625227561166D-06 0.291484617497D-05 0.000000000000D+00  6 2 2 25 24 1 2 4 0.38479936D-02 0.11124392D+00 0.13059194D+05 0.13059194D+05 0.13059194D+05 0.12547415D+01  1  2  5  8  6  2       21 -.210228860598D-01 0.100000000000D+01
0.265330146383D-05 0.000000000000D+00 0.000000000000D+00 0.291484617497D-05 0.700784026457D-07  6 2 2 25 24 1 2 4 0.38570449D-02 0.11109835D+00 0.13280656D+05 0.13280656D+05 0.13280656D+05 0.12538954D+01  1  2 11  8  6  2       21 0.862436285746D-02 0.100000000000D+01
0.872945374939D-09 0.000000000000D+00 0.000000000000D+00 0.291091662030D-05 0.000000000000D+00  6 2 -3 25 24 1 -3 4 0.38479936D-02 0.11122514D+00 0.13280656D+05 0.13280656D+05 0.13280656D+05 0.12538954D+01  1  2 12  9  6  2       21 0.191876825913D-06 0.100000000000D+01
0.872945374939D-09 0.000000000000D+00 0.000000000000D+00 0.291091662030D-05 0.000000000000D+00  6 2 -4 25 24 1 -4 4 0.38479936D-02 0.11122514D+00 0.13280656D+05 0.13280656D+05 0.13280656D+05 0.12538954D+01  1  2 12  9  6  2       21 0.151866234425D-06 0.100000000000D+01
-.644380344230D-05 0.000000000000D+00 -.625227561166D-06 0.291484617497D-05 0.000000000000D+00  6 2 -3 25 24 1 -3 4 0.38479936D-02 0.11124392D+00 0.13059194D+05 0.13059194D+05 0.13059194D+05 0.12547415D+01  1  2  5  9  6  2       21 -.141843239360D-02 0.100000000000D+01
-.644380344230D-05 0.000000000000D+00 -.625227561166D-06 0.291484617497D-05 0.000000000000D+00  6 2 -4 25 24 1 -4 4 0.38479936D-02 0.11124392D+00 0.13059194D+05 0.13059194D+05 0.13059194D+05 0.12547415D+01  1  2  5  9  6  2       21 -.112243314491D-02 0.100000000000D+01
0.270352072235D-05 0.000000000000D+00 0.000000000000D+00 0.291484617497D-05 0.684317614036D-07  6 2 -3 25 24 1 -3 4 0.38570449D-02 0.11109835D+00 0.13280656D+05 0.13280656D+05 0.13280656D+05 0.12538954D+01  1  2 11  9  6  2       21 0.593965315789D-03 0.100000000000D+01
0.270352072235D-05 0.000000000000D+00 0.000000000000D+00 0.291484617497D-05 0.684317614036D-07  6 2 -4 25 24 1 -4 4 0.38570449D-02 0.11109835D+00 0.13280656D+05 0.13280656D+05 0.13280656D+05 0.12538954D+01  1  2 11  9  6  2       21 0.470132670427D-03 0.100000000000D+01
0.872945374939D-09 0.000000000000D+00 0.000000000000D+00 0.291091662030D-05 0.000000000000D+00  6 2 3 25 24 1 3 4 0.38479936D-02 0.11122514D+00 0.13280656D+05 0.13280656D+05 0.13280656D+05 0.12538954D+01  1  2 12 10  6  2       21 0.192330769865D-06 0.100000000000D+01
0.872945374939D-09 0.000000000000D+00 0.000000000000D+00 0.291091662030D-05 0.000000000000D+00  6 2 4 25 24 1 4 4 0.38479936D-02 0.11122514D+00 0.13280656D+05 0.13280656D+05 0.13280656D+05 0.12538954D+01  1  2 12 10  6  2       21 0.151866234425D-06 0.100000000000D+01
-.644380344230D-05 0.000000000000D+00 -.625227561166D-06 0.291484617497D-05 0.000000000000D+00  6 2 3 25 24 1 3 4 0.38479936D-02 0.11124392D+00 0.13059194D+05 0.13059194D+05 0.13059194D+05 0.12547415D+01  1  2  5 10  6  2       21 -.142178898779D-02 0.100000000000D+01
-.644380344230D-05 0.000000000000D+00 -.625227561166D-06 0.291484617497D-05 0.000000000000D+00  6 2 4 25 24 1 4 4 0.38479936D-02 0.11124392D+00 0.13059194D+05 0.13059194D+05 0.13059194D+05 0.12547415D+01  1  2  5 10  6  2       21 -.112243314491D-02 0.100000000000D+01
0.270352072235D-05 0.000000000000D+00 0.000000000000D+00 0.291484617497D-05 0.684317614036D-07  6 2 3 25 24 1 3 4 0.38570449D-02 0.11109835D+00 0.13280656D+05 0.13280656D+05 0.13280656D+05 0.12538954D+01  1  2 11 10  6  2       21 0.595367721518D-03 0.100000000000D+01
0.270352072235D-05 0.000000000000D+00 0.000000000000D+00 0.291484617497D-05 0.684317614036D-07  6 2 4 25 24 1 4 4 0.38570449D-02 0.11109835D+00 0.13280656D+05 0.13280656D+05 0.13280656D+05 0.12538954D+01  1  2 11 10  6  2       21 0.470132670427D-03 0.100000000000D+01
  </mgrwgt>
  </event>
  <event>
  5     66 0.45638357E-03 0.20799289E+02 0.75467711E-02 0.12503420E+00
        2 -1    0    0  502    0 0.00000000E+00 0.00000000E+00 0.34954233E+04 0.34954233E+04 0.32000000E+00 0.0000E+00 0.9000E+01
       21 -1    0    0  501  502 0.00000000E+00 0.00000000E+00 -.96616062E+01 0.96906726E+01 0.75000000E+00 0.0000E+00 0.9000E+01
       25  1    1    2    0    0 0.88147397E+01 0.40796515E+01 0.93140813E+03 0.93980873E+03 0.12500000E+03 0.0000E+00 0.9000E+01
       24  1    1    2    0    0 -.15148529E+02 -.23891001E+02 0.25363857E+04 0.25378179E+04 0.80419002E+02 0.0000E+00 0.9000E+01
        1  1    1    2  501    0 0.63337895E+01 0.19811350E+02 0.17967880E+02 0.27487335E+02 0.32000000E+00 0.0000E+00 0.9000E+01
#aMCatNLO 1  0  0  1  2 0.13009973D+02 0.00000000D+00  -5  6  0 0.00000000D+00 0.00000000D+00 0.00000000D+00 0.00000000D+00 0.00000000D+00
  <mgrwgt>
 0.4351633797D+00    9    2    0
 0.183908589001676D+03 0.000000000000000D+00 0.000000000000000D+00 0.183908589001676D+03
 0.183908589001676D+03 0.000000000000000D+00 0.000000000000000D+00 -.183908589001676D+03
 0.129058475246957D+03 0.881472613528286D+01 0.407960916618477D+01 -.306063298237575D+02
 0.147097834124026D+03 -.151485445700514D+02 -.238910493604247D+02 0.119876170307013D+03
 0.916608686323688D+02 0.633381843476852D+01 0.198114401942399D+02 -.892698404832551D+02
 0.000000000000000D+00 -.000000000000000D+00 0.000000000000000D+00 0.000000000000000D+00
 0.196837705827093D+03 0.000000000000000D+00 0.000000000000000D+00 0.196837705827093D+03
 0.187325803620083D+03 0.000000000000000D+00 0.000000000000000D+00 -.187325803620083D+03
 0.129200636025756D+03 0.114427864590123D+02 0.345777721581238D+00 -.306063298237575D+02
 0.147572455319471D+03 -.121499618968129D+02 -.281513025111944D+02 0.119876170307013D+03
 0.912741010448768D+02 0.819537574154538D+01 0.171666222099590D+02 -.892698404832551D+02
 0.161163170570724D+02 -.748820030374478D+01 0.106389025796542D+02 0.951190220700925D+01
0.105086942175D-04 0.000000000000D+00 0.000000000000D+00 0.327482488482D-05 0.000000000000D+00  6 2 21 25 24 1 21 2 0.53775966D+00 0.14886380D-02 0.13389451D+05 0.13389451D+05 0.13389451D+05 0.12534856D+01  1  2  2  1  6  1        2 0.463687890944D-01 0.100000000000D+01
0.179103130991D-05 0.554559029506D-06 -.212140259361D-07 0.327482488482D-05 0.000000000000D+00  6 2 21 25 24 1 21 4 0.53775966D+00 0.14886380D-02 0.13389451D+05 0.13389451D+05 0.13389451D+05 0.12534856D+01  1  2  3  1  6  1        2 0.124170618966D-01 0.100000000000D+01
0.103222731863D-05 0.000000000000D+00 0.000000000000D+00 0.327482488482D-05 0.000000000000D+00  6 2 21 25 24 1 21 4 0.53775966D+00 0.14886380D-02 0.13389451D+05 0.13389451D+05 0.13389451D+05 0.12534856D+01  1  2 15  1  6  1        2 0.715634083888D-02 0.100000000000D+01
0.707633006555D-04 0.000000000000D+00 0.000000000000D+00 0.324810290841D-05 0.000000000000D+00  6 2 21 25 24 1 21 4 0.58032720D+00 0.14886380D-02 0.14837861D+05 0.14837861D+05 0.14837861D+05 0.12483610D+01  1  2 12  1  6  1        2 0.313985695445D+00 0.100000000000D+01
-.504836023338D-04 0.000000000000D+00 0.000000000000D+00 0.327482488482D-05 0.000000000000D+00  6 2 21 25 24 1 21 4 0.53775966D+00 0.14886380D-02 0.13389451D+05 0.13389451D+05 0.13389451D+05 0.12534856D+01  1  2  4  1  6  1        2 -.349998356519D+00 0.100000000000D+01
-.169931390389D-03 0.000000000000D+00 -.283984007902D-04 0.327482488482D-05 0.000000000000D+00  6 2 21 25 24 1 21 4 0.57794771D+00 0.14886380D-02 0.13389451D+05 0.13389451D+05 0.13389451D+05 0.12534856D+01  1  2  5  1  6  1        2 -.789249591313D+00 0.100000000000D+01
0.172339062588D-03 0.000000000000D+00 0.286593887651D-04 0.327482488482D-05 0.000000000000D+00  6 2 21 25 24 1 21 4 0.53775966D+00 0.14886380D-02 0.13389451D+05 0.13389451D+05 0.13389451D+05 0.12534856D+01  1  2  6  1  6  1        2 0.119481150079D+01 0.100000000000D+01
0.944307759589D-06 0.000000000000D+00 0.000000000000D+00 0.324810290841D-05 0.000000000000D+00  6 21 21 25 24 1 -2 4 0.58032720D+00 0.14886380D-02 0.14837861D+05 0.14837861D+05 0.14837861D+05 0.12483610D+01  1  2 12  4  6  1        2 0.252528684237D-03 0.100000000000D+01
-.201717578979D-05 0.000000000000D+00 -.345537362960D-06 0.327482488482D-05 0.000000000000D+00  6 21 21 25 24 1 -2 4 0.57794771D+00 0.14886380D-02 0.13389451D+05 0.13389451D+05 0.13389451D+05 0.12534856D+01  1  2  5  4  6  1        2 -.580589223986D-03 0.100000000000D+01
  </mgrwgt>
  </event>
  <event>
  5     66 0.45638357E-03 0.39278174E+02 0.75467711E-02 0.10300882E+00
        2 -1    0    0  502    0 0.00000000E+00 0.00000000E+00 0.12711115E+04 0.12711115E+04 0.32000000E+00 0.0000E+00 0.9000E+01
       21 -1    0    0  501  502 0.00000000E+00 0.00000000E+00 -.13950085E+02 0.13970231E+02 0.75000000E+00 0.0000E+00 0.9000E+01
       25  1    1    2    0    0 -.35186568E+01 0.80000640E+01 0.55135576E+03 0.56541539E+03 0.12500000E+03 0.0000E+00 0.9000E+01
       24  1    1    2    0    0 0.42320704E+02 -.14091789E+02 0.59587189E+03 0.60292631E+03 0.80419002E+02 0.0000E+00 0.9000E+01
        1  1    1    2  501    0 -.38802048E+02 0.60917247E+01 0.10993372E+03 0.11674002E+03 0.32000000E+00 0.0000E+00 0.9000E+01
#aMCatNLO 1  0  0  2  5 0.40867963D+03 0.00000000D+00  -5  6  0 0.00000000D+00 0.00000000D+00 0.00000000D+00 0.00000000D+00 0.00000000D+00
  <mgrwgt>
 0.4572281079D+00   12    2    0
 0.133210672461666D+03 0.000000000000000D+00 0.000000000000000D+00 0.133210672461666D+03
 0.133210672461666D+03 0.000000000000000D+00 0.000000000000000D+00 -.133210672461666D+03
 0.125597313780329D+03 -.351818063073914D+01 0.799998925633165D+01 -.856199776819587D+01
 0.964732516702599D+02 0.423210701279453D+02 -.140918461108848D+02 0.291585189931767D+02
 0.443507794727425D+02 -.388028894972061D+02 0.609185685455315D+01 -.205965212249808D+02
 0.000000000000000D+00 -.000000000000000D+00 0.000000000000000D+00 -.000000000000000D+00
 0.318101076953980D+03 0.000000000000000D+00 0.000000000000000D+00 0.318101076953980D+03
 0.806846781805344D+03 0.000000000000000D+00 0.000000000000000D+00 -.806846781805344D+03
 0.218919419486949D+03 0.154969670775484D+03 -.906190132503004D+02 -.856199776819587D+01
 0.243194329604223D+03 0.198578168696152D+03 -.111322763551235D+03 0.291585189931767D+02
 0.257380412832815D+02 -.655996618874568D+01 -.139712893510704D+02 -.205965212249808D+02
 0.637096068384870D+03 -.346987873282890D+03 0.215913066152606D+03 -.488745704851364D+03
0.326845129662D-05 0.000000000000D+00 0.000000000000D+00 0.741008226045D-06 0.000000000000D+00  6 2 21 25 24 1 21 2 0.19555716D+00 0.21477197D-02 0.16453776D+05 0.16453776D+05 0.16453776D+05 0.12432685D+01  1  2  2  2  6  2       21 0.128147803001D+00 0.100000000000D+01
-.165654371005D-07 0.172480913568D-06 -.659806148531D-08 0.741008226045D-06 0.000000000000D+00  6 2 21 25 24 1 21 4 0.19555716D+00 0.21477197D-02 0.16453776D+05 0.16453776D+05 0.16453776D+05 0.12432685D+01  1  2  3  2  6  2       21 -.100392642096D-02 0.100000000000D+01
0.347870428325D-06 0.000000000000D+00 0.000000000000D+00 0.741008226045D-06 0.000000000000D+00  6 2 21 25 24 1 21 4 0.19555716D+00 0.21477197D-02 0.16453776D+05 0.16453776D+05 0.16453776D+05 0.12432685D+01  1  2 15  2  6  2       21 0.210822275288D-01 0.100000000000D+01
0.553010996428D-03 0.000000000000D+00 -.266596831960D-03 0.741008226045D-06 0.000000000000D+00  6 2 21 25 24 1 21 4 0.19555716D+00 0.36597189D-01 0.16453776D+05 0.16453776D+05 0.16453776D+05 0.12432685D+01  1  2  5  2  6  2       21 0.231349910157D+00 0.100000000000D+01
0.245035399371D-03 0.000000000000D+00 -.117840376124D-03 0.741008226045D-06 0.000000000000D+00  6 2 -1 25 24 1 -1 4 0.19555716D+00 0.36597189D-01 0.16453776D+05 0.16453776D+05 0.16453776D+05 0.12432685D+01  1  2  5  5  6  2       21 0.928654018600D-02 0.100000000000D+01
0.245035399371D-03 0.000000000000D+00 -.117840376124D-03 0.741008226045D-06 0.000000000000D+00  6 2 1 25 24 1 1 4 0.19555716D+00 0.36597189D-01 0.16453776D+05 0.16453776D+05 0.16453776D+05 0.12432685D+01  1  2  5  6  6  2       21 0.178902762467D-01 0.100000000000D+01
0.245035399371D-03 0.000000000000D+00 -.117840376124D-03 0.741008226045D-06 0.000000000000D+00  6 2 -2 25 24 1 -2 4 0.19555716D+00 0.36597189D-01 0.16453776D+05 0.16453776D+05 0.16453776D+05 0.12432685D+01  1  2  5  7  6  2       21 0.794376591540D-02 0.100000000000D+01
0.245035399371D-03 0.000000000000D+00 -.117840376124D-03 0.741008226045D-06 0.000000000000D+00  6 2 2 25 24 1 2 4 0.19555716D+00 0.36597189D-01 0.16453776D+05 0.16453776D+05 0.16453776D+05 0.12432685D+01  1  2  5  8  6  2       21 0.242677065406D-01 0.100000000000D+01
0.245035399371D-03 0.000000000000D+00 -.117840376124D-03 0.741008226045D-06 0.000000000000D+00  6 2 -3 25 24 1 -3 4 0.19555716D+00 0.36597189D-01 0.16453776D+05 0.16453776D+05 0.16453776D+05 0.12432685D+01  1  2  5  9  6  2       21 0.498926248696D-02 0.100000000000D+01
0.245035399371D-03 0.000000000000D+00 -.117840376124D-03 0.741008226045D-06 0.000000000000D+00  6 2 -4 25 24 1 -4 4 0.19555716D+00 0.36597189D-01 0.16453776D+05 0.16453776D+05 0.16453776D+05 0.12432685D+01  1  2  5  9  6  2       21 0.414232945634D-02 0.100000000000D+01
0.245035399371D-03 0.000000000000D+00 -.117840376124D-03 0.741008226045D-06 0.000000000000D+00  6 2 3 25 24 1 3 4 0.19555716D+00 0.36597189D-01 0.16453776D+05 0.16453776D+05 0.16453776D+05 0.12432685D+01  1  2  5 10  6  2       21 0.498988336028D-02 0.100000000000D+01
0.245035399371D-03 0.000000000000D+00 -.117840376124D-03 0.741008226045D-06 0.000000000000D+00  6 2 4 25 24 1 4 4 0.19555716D+00 0.36597189D-01 0.16453776D+05 0.16453776D+05 0.16453776D+05 0.12432685D+01  1  2  5 10  6  2       21 0.414232945634D-02 0.100000000000D+01
  </mgrwgt>
  </event>
  <event>
  5     66 0.45638357E-03 0.28152611E+02 0.75467711E-02 0.12241648E+00
        2 -1    0    0  502    0 0.00000000E+00 0.00000000E+00 0.13518843E+03 0.13518881E+03 0.32000000E+00 0.0000E+00 0.9000E+01
       21 -1    0    0  501  502 -.00000000E+00 -.00000000E+00 -.13662713E+03 0.13662919E+03 0.75000000E+00 0.0000E+00 0.9000E+01
       25  1    1    2    0    0 -.50697104E+02 0.48562597E+02 0.21642726E+02 0.14498941E+03 0.12500000E+03 0.0000E+00 0.9000E+01
       24  1    1    2    0    0 0.23850952E+02 -.40089647E+02 -.44639548E+01 0.93076262E+02 0.80419002E+02 0.0000E+00 0.9000E+01
        1  1    1    2  501    0 0.26846152E+02 -.84729501E+01 -.18617470E+02 0.33752323E+02 0.32000000E+00 0.0000E+00 0.9000E+01
#aMCatNLO 1  0  0  5  2 0.14263704D+00 0.00000000D+00  -5  6  0 0.00000000D+00 0.00000000D+00 0.00000000D+00 0.00000000D+00 0.00000000D+00
  <mgrwgt>
 0.6546934158D+00    7    2    0
 0.135907095171414D+03 0.000000000000000D+00 0.000000000000000D+00 0.135907095171414D+03
 0.135907095171414D+03 -.000000000000000D+00 -.000000000000000D+00 -.135907095171414D+03
 0.145106360907635D+03 -.506977516403580D+02 0.485628016655043D+02 0.224108957622499D+02
 0.930537632139461D+02 0.238505366556281D+02 -.400895159005155D+02 -.397108423575534D+01
 0.336540662212473D+02 0.268472149847298D+02 -.847328576498882D+01 -.184398115264945D+02
 0.000000000000000D+00 0.000000000000000D+00 0.000000000000000D+00 0.000000000000000D+00
 0.135907095171414D+03 0.000000000000000D+00 0.000000000000000D+00 0.135907095171414D+03
 0.135907095171414D+03 -.000000000000000D+00 -.000000000000000D+00 -.135907095171414D+03
 0.145105490144825D+03 -.506961997041689D+02 0.485623118568286D+02 0.224098298263290D+02
 0.930541828028656D+02 0.238515318860277D+02 -.400898300065254D+02 -.397176780241225D+01
 0.307357449172859D+01 0.236649870590893D+01 -.853956332718880D+00 -.176558846080993D+01
 0.305809429034099D+02 0.244781691122322D+02 -.761852551758422D+01 -.166724735631068D+02
0.201918470975D-05 0.000000000000D+00 0.000000000000D+00 0.985814182165D-06 0.000000000000D+00  6 2 21 25 24 1 21 2 0.20798408D-01 0.21019746D-01 0.17488330D+05 0.17488330D+05 0.17488330D+05 0.12402944D+01  1  2  2  3  6  5        1 0.210760633832D-01 0.100000000000D+01
0.828419257240D-07 0.106555304575D-06 -.407615217608D-08 0.985814182165D-06 0.000000000000D+00  6 2 21 25 24 1 21 4 0.20798408D-01 0.21019746D-01 0.17488330D+05 0.17488330D+05 0.17488330D+05 0.12402944D+01  1  2  3  3  6  5        1 0.133018856225D-02 0.100000000000D+01
0.191884028838D-06 0.000000000000D+00 0.000000000000D+00 0.985814182165D-06 0.000000000000D+00  6 2 21 25 24 1 21 4 0.20798408D-01 0.21019746D-01 0.17488330D+05 0.17488330D+05 0.17488330D+05 0.12402944D+01  1  2 15  3  6  5        1 0.308107203217D-02 0.100000000000D+01
-.545418094849D-03 0.000000000000D+00 0.000000000000D+00 0.985814182165D-06 0.000000000000D+00  6 2 21 25 24 1 21 4 0.20798408D-01 0.21019746D-01 0.17488330D+05 0.17488330D+05 0.17488330D+05 0.12402944D+01  1  2  4  3  6  5        1 -.875775043945D+01 0.100000000000D+01
-.180402954907D-03 0.000000000000D+00 0.000000000000D+00 0.985814182165D-06 0.000000000000D+00  6 2 21 25 24 1 21 4 0.20798408D-01 0.21019746D-01 0.17488330D+05 0.17488330D+05 0.17488330D+05 0.12402944D+01  1  2  5  3  6  5        1 -.289672101555D+01 0.100000000000D+01
0.586300395429D-03 0.000000000000D+00 -.000000000000D+00 0.985814182165D-06 0.000000000000D+00  6 2 21 25 24 1 21 4 0.20798408D-01 0.21019746D-01 0.17488330D+05 0.17488330D+05 0.17488330D+05 0.12402944D+01  1  2  6  3  6  5        1 0.941419544788D+01 0.100000000000D+01
0.178706421472D-03 0.000000000000D+00 0.000000000000D+00 0.985814182165D-06 0.181218088645D-04  6 2 21 25 24 1 21 4 0.20798408D-01 0.21019746D-01 0.17488235D+05 0.17488235D+05 0.17488235D+05 0.12402947D+01  1  2 11  3  6  5        1 0.286948209897D+01 0.100000000000D+01
  </mgrwgt>
  </event>
  <event>
  5     66 0.45638357E-03 0.10130480E+03 0.75467711E-02 0.10426608E+00
        2 -1    0    0  502    0 0.00000000E+00 0.00000000E+00 0.54845580E+03 0.54845589E+03 0.32000000E+00 0.0000E+00 0.9000E+01
       21 -1    0    0  501  502 0.00000000E+00 0.00000000E+00 -.87670604E+02 0.87673812E+02 0.75000000E+00 0.0000E+00 0.9000E+01
       25  1    1    2    0    0 0.15896189E+02 -.83420573E+02 0.26601366E+03 0.30594109E+03 0.12500000E+03 0.0000E+00 0.9000E+01
       24  1    1    2    0    0 -.59784057E+02 -.78836487E+01 -.10716604E+02 0.10108584E+03 0.80419002E+02 0.0000E+00 0.9000E+01
        1  1    1    2  501    0 0.43887869E+02 0.91304222E+02 0.20548813E+03 0.22910278E+03 0.32000000E+00 0.0000E+00 0.9000E+01
#aMCatNLO 1  0  0  1  2 0.15169596D+03 0.00000000D+00  -5  6  0 0.00000000D+00 0.00000000D+00 0.00000000D+00 0.00000000D+00 0.00000000D+00
  <mgrwgt>
 0.7008376455D-01    3    2    0
 0.219281784609695D+03 0.000000000000000D+00 0.000000000000000D+00 0.219281784609695D+03
 0.219281784609695D+03 0.000000000000000D+00 0.000000000000000D+00 -.219281784609695D+03
 0.164270527073238D+03 0.158961264393354D+02 -.834207021908538D+02 0.644057891429725D+02
 0.157883146134051D+03 -.597841167809709D+02 -.788377284370981D+01 -.121752114500256D+03
 0.116409896012101D+03 0.438879903416355D+02 0.913044750345636D+02 0.573463253572837D+02
 0.000000000000000D+00 0.000000000000000D+00 -.000000000000000D+00 -.000000000000000D+00
 0.425701169117488D+03 0.000000000000000D+00 0.000000000000000D+00 0.425701169117488D+03
 0.440522428629438D+03 0.000000000000000D+00 0.000000000000000D+00 -.440522428629438D+03
 0.162515393889686D+03 -.761979337774770D+02 -.288447996012098D+02 0.644057891429725D+02
 0.230639823938335D+03 -.169276770858686D+03 0.570027183063033D+02 -.121752114500256D+03
 0.150850774538113D+03 -.314308000600771D+02 0.135939177407945D+03 0.573463253572837D+02
 0.322217605380792D+03 0.276905504696240D+03 -.164097096113038D+03 -.148212595119494D+02
0.144515762957D-04 0.000000000000D+00 0.000000000000D+00 0.784143792827D-07 0.000000000000D+00  6 2 21 25 24 1 21 2 0.84378069D-01 0.13488039D-01 0.31141518D+05 0.31141518D+05 0.31141518D+05 0.12131999D+01  1  2  2  1  6  1        2 0.711917954626D-01 0.100000000000D+01
-.155995527255D-05 0.762630633217D-06 -.291735688573D-07 0.784143792827D-07 0.000000000000D+00  6 2 21 25 24 1 21 4 0.84378069D-01 0.13488039D-01 0.31141518D+05 0.31141518D+05 0.31141518D+05 0.12131999D+01  1  2  3  1  6  1        2 -.113107549070D-01 0.100000000000D+01
0.140713800464D-05 0.000000000000D+00 0.000000000000D+00 0.784143792827D-07 0.000000000000D+00  6 2 21 25 24 1 21 4 0.84378069D-01 0.13488039D-01 0.31141518D+05 0.31141518D+05 0.31141518D+05 0.12131999D+01  1  2 15  1  6  1        2 0.102027239952D-01 0.100000000000D+01
  </mgrwgt>
  </event>
  <event>
  5     66 -.45638357E-03 0.20159537E+02 0.75467711E-02 0.12193385E+00
        2 -1    0    0  502    0 0.00000000E+00 0.00000000E+00 0.33300757E+03 0.33300772E+03 0.32000000E+00 0.0000E+00 0.9000E+01
       21 -1    0    0  501  502 0.00000000E+00 0.00000000E+00 -.83690030E+02 0.83693391E+02 0.75000000E+00 0.0000E+00 0.9000E+01
       25  1    1    2    0    0 -.79876969E+02 -.10657551E+02 0.21309776E+03 0.25986452E+03 0.12500000E+03 0.0000E+00 0.9000E+01
       24  1    1    2    0    0 0.60836380E+02 0.17279878E+02 0.65358453E+02 0.12140265E+03 0.80419002E+02 0.0000E+00 0.9000E+01
        1  1    1    2  501    0 0.19040589E+02 -.66223263E+01 -.29138679E+02 0.35433943E+02 0.32000000E+00 0.0000E+00 0.9000E+01
#aMCatNLO 1  0  0  2  5 0.65710586D-01 0.00000000D+00  -5  6  0 0.00000000D+00 0.00000000D+00 0.00000000D+00 0.00000000D+00 0.00000000D+00
  <mgrwgt>
 -.2725511269D+00   23    2    0
 0.166943540482457D+03 0.000000000000000D+00 0.000000000000000D+00 0.166943540482457D+03
 0.166943540482457D+03 0.000000000000000D+00 0.000000000000000D+00 -.166943540482457D+03
 0.165196258438053D+03 -.798770797582962D+02 -.106575127383292D+02 0.719087849532391D+02
 0.102710144603993D+03 0.608363108206376D+02 0.172799015391155D+02 -.908328898229592D+01
 0.659806779228668D+02 0.190407689376586D+02 -.662238880078630D+01 -.628254959709432D+02
 0.000000000000000D+00 0.000000000000000D+00 -.000000000000000D+00 -.000000000000000D+00
 0.166943614278604D+03 0.000000000000000D+00 0.000000000000000D+00 0.166943614278604D+03
 0.182241484935671D+03 0.000000000000000D+00 0.000000000000000D+00 -.182241484935671D+03
 0.165198898999621D+03 -.798866786739171D+02 -.106264503803551D+02 0.719087849532391D+02
 0.102709860825414D+03 0.608303427873460D+02 0.172992142608671D+02 -.908328898229592D+01
 0.659783276059582D+02 0.190369351545932D+02 -.660998257213747D+01 -.628254959709432D+02
 0.152980117832816D+02 0.194007319779404D-01 -.627813083745005D-01 -.152978706570666D+02
0.283996095395D-07 0.000000000000D+00 0.000000000000D+00 0.312189188974D-05 0.000000000000D+00  6 2 21 25 24 1 21 2 0.51232204D-01 0.12875660D-01 0.18386220D+05 0.18386220D+05 0.18386220D+05 0.12378689D+01  1  2  2  2  6  2       21 0.271903727521D-03 0.100000000000D+01
0.493306099343D-08 0.149868856954D-08 -.573306293700D-10 0.312189188974D-05 0.000000000000D+00  6 2 21 25 24 1 21 4 0.51232204D-01 0.12875660D-01 0.18386220D+05 0.18386220D+05 0.18386220D+05 0.12378689D+01  1  2  3  2  6  2       21 0.723716682638D-04 0.100000000000D+01
0.258967866817D-08 0.000000000000D+00 0.000000000000D+00 0.312189188974D-05 0.000000000000D+00  6 2 21 25 24 1 21 4 0.51232204D-01 0.12875660D-01 0.18386220D+05 0.18386220D+05 0.18386220D+05 0.12378689D+01  1  2 15  2  6  2       21 0.379925092620D-04 0.100000000000D+01
-.992958760072D-02 0.000000000000D+00 0.000000000000D+00 0.312189188974D-05 0.000000000000D+00  6 2 21 25 24 1 21 4 0.51232204D-01 0.12875660D-01 0.18386220D+05 0.18386220D+05 0.18386220D+05 0.12378689D+01  1  2  4  2  6  2       21 -.145674424215D+03 0.100000000000D+01
-.100168497525D-01 0.000000000000D+00 -.100682219055D-06 0.312189188974D-05 0.000000000000D+00  6 2 21 25 24 1 21 4 0.51232204D-01 0.14055529D-01 0.18386220D+05 0.18386220D+05 0.18386220D+05 0.12378689D+01  1  2  5  2  6  2       21 -.125612555357D+03 0.100000000000D+01
0.984609089805D-02 0.000000000000D+00 0.991509712906D-07 0.312189188974D-05 0.000000000000D+00  6 2 21 25 24 1 21 4 0.51232204D-01 0.12875660D-01 0.18386220D+05 0.18386220D+05 0.18386220D+05 0.12378689D+01  1  2  6  2  6  2       21 0.144449465579D+03 0.100000000000D+01
0.100937242148D-01 0.000000000000D+00 0.000000000000D+00 0.312189188974D-05 0.136287258657D-01  6 2 21 25 24 1 21 4 0.51232227D-01 0.14055526D-01 0.18394447D+05 0.18394447D+05 0.18394447D+05 0.12378473D+01  1  2 11  2  6  2       21 0.126568056980D+03 0.100000000000D+01
-.228728888794D-03 0.000000000000D+00 -.221960778502D-08 0.312189188974D-05 0.000000000000D+00  6 2 -1 25 24 1 -1 4 0.51232204D-01 0.14055529D-01 0.18386220D+05 0.18386220D+05 0.18386220D+05 0.12378689D+01  1  2  5  5  6  2       21 -.205683328731D+00 0.100000000000D+01
0.227319814270D-03 0.000000000000D+00 0.000000000000D+00 0.312189188974D-05 0.306931158789D-03  6 2 -1 25 24 1 -1 4 0.51232227D-01 0.14055526D-01 0.18394447D+05 0.18394447D+05 0.18394447D+05 0.12378473D+01  1  2 11  5  6  2       21 0.204404022162D+00 0.100000000000D+01
-.228728888794D-03 0.000000000000D+00 -.221960778502D-08 0.312189188974D-05 0.000000000000D+00  6 2 1 25 24 1 1 4 0.51232204D-01 0.14055529D-01 0.18386220D+05 0.18386220D+05 0.18386220D+05 0.12378689D+01  1  2  5  6  6  2       21 -.278716567466D+00 0.100000000000D+01
0.228471952304D-03 0.000000000000D+00 0.000000000000D+00 0.312189188974D-05 0.154241497991D-03  6 2 1 25 24 1 1 4 0.51232227D-01 0.14055526D-01 0.18394447D+05 0.18394447D+05 0.18394447D+05 0.12378473D+01  1  2 11  6  6  2       21 0.278386685951D+00 0.100000000000D+01
-.228728888794D-03 0.000000000000D+00 -.221960778502D-08 0.312189188974D-05 0.000000000000D+00  6 2 -2 25 24 1 -2 4 0.51232204D-01 0.14055529D-01 0.18386220D+05 0.18386220D+05 0.18386220D+05 0.12378689D+01  1  2  5  7  6  2       21 -.193076767266D+00 0.100000000000D+01
0.228316587402D-03 0.000000000000D+00 0.000000000000D+00 0.312189188974D-05 0.308273129858D-03  6 2 -2 25 24 1 -2 4 0.51232227D-01 0.14055526D-01 0.18394447D+05 0.18394447D+05 0.18394447D+05 0.12378473D+01  1  2 11  7  6  2       21 0.192717290743D+00 0.100000000000D+01
-.228728888794D-03 0.000000000000D+00 -.221960778502D-08 0.312189188974D-05 0.000000000000D+00  6 2 2 25 24 1 2 4 0.51232204D-01 0.14055529D-01 0.18386220D+05 0.18386220D+05 0.18386220D+05 0.12378689D+01  1  2  5  8  6  2       21 -.328806606534D+00 0.100000000000D+01
0.228310769432D-03 0.000000000000D+00 0.000000000000D+00 0.312189188974D-05 0.308265277917D-03  6 2 2 25 24 1 2 4 0.51232227D-01 0.14055526D-01 0.18394447D+05 0.18394447D+05 0.18394447D+05 0.12378473D+01  1  2 11  8  6  2       21 0.328185826469D+00 0.100000000000D+01
-.228728888794D-03 0.000000000000D+00 -.221960778502D-08 0.312189188974D-05 0.000000000000D+00  6 2 -3 25 24 1 -3 4 0.51232204D-01 0.14055529D-01 0.18386220D+05 0.18386220D+05 0.18386220D+05 0.12378689D+01  1  2  5  9  6  2       21 -.129051726786D+00 0.100000000000D+01
-.228728888794D-03 0.000000000000D+00 -.221960778502D-08 0.312189188974D-05 0.000000000000D+00  6 2 -4 25 24 1 -4 4 0.51232204D-01 0.14055529D-01 0.18386220D+05 0.18386220D+05 0.18386220D+05 0.12378689D+01  1  2  5  9  6  2       21 -.111337627979D+00 0.100000000000D+01
0.228317614949D-03 0.000000000000D+00 0.000000000000D+00 0.312189188974D-05 0.308274517252D-03  6 2 -3 25 24 1 -3 4 0.51232227D-01 0.14055526D-01 0.18394447D+05 0.18394447D+05 0.18394447D+05 0.12378473D+01  1  2 11  9  6  2       21 0.128813356840D+00 0.100000000000D+01
0.228317614949D-03 0.000000000000D+00 0.000000000000D+00 0.312189188974D-05 0.308274517252D-03  6 2 -4 25 24 1 -4 4 0.51232227D-01 0.14055526D-01 0.18394447D+05 0.18394447D+05 0.18394447D+05 0.12378473D+01  1  2 11  9  6  2       21 0.111132513603D+00 0.100000000000D+01
-.228728888794D-03 0.000000000000D+00 -.221960778502D-08 0.312189188974D-05 0.000000000000D+00  6 2 3 25 24 1 3 4 0.51232204D-01 0.14055529D-01 0.18386220D+05 0.18386220D+05 0.18386220D+05 0.12378689D+01  1  2  5 10  6  2       21 -.129035449780D+00 0.100000000000D+01
-.228728888794D-03 0.000000000000D+00 -.221960778502D-08 0.312189188974D-05 0.000000000000D+00  6 2 4 25 24 1 4 4 0.51232204D-01 0.14055529D-01 0.18386220D+05 0.18386220D+05 0.18386220D+05 0.12378689D+01  1  2  5 10  6  2       21 -.111337627979D+00 0.100000000000D+01
0.228317614949D-03 0.000000000000D+00 0.000000000000D+00 0.312189188974D-05 0.308274517252D-03  6 2 3 25 24 1 3 4 0.51232227D-01 0.14055526D-01 0.18394447D+05 0.18394447D+05 0.18394447D+05 0.12378473D+01  1  2 11 10  6  2       21 0.128797110744D+00 0.100000000000D+01
0.228317614949D-03 0.000000000000D+00 0.000000000000D+00 0.312189188974D-05 0.308274517252D-03  6 2 4 25 24 1 4 4 0.51232227D-01 0.14055526D-01 0.18394447D+05 0.18394447D+05 0.18394447D+05 0.12378473D+01  1  2 11 10  6  2       21 0.111132513603D+00 0.100000000000D+01
  </mgrwgt>
  </event>
  <event>
  5     66 0.45638357E-03 0.12943481E+03 0.75467711E-02 0.11213684E+00
        2 -1    0    0  502    0 0.00000000E+00 0.00000000E+00 0.90354338E+02 0.90354904E+02 0.32000000E+00 0.0000E+00 0.9000E+01
       21 -1    0    0  501  502 0.00000000E+00 0.00000000E+00 -.77396869E+03 0.77396905E+03 0.75000000E+00 0.0000E+00 0.9000E+01
       25  1    1    2    0    0 0.91216069E+02 0.13062863E+03 -.42917203E+03 0.47455014E+03 0.12500000E+03 0.0000E+00 0.9000E+01
       24  1    1    2    0    0 0.29563181E+02 0.11306513E+02 -.17259818E+02 0.88130223E+02 0.80419002E+02 0.0000E+00 0.9000E+01
        1  1    1    2  501    0 -.12077925E+03 -.14193514E+03 -.23718251E+03 0.30164359E+03 0.32000000E+00 0.0000E+00 0.9000E+01
#aMCatNLO 1  0  0  2  5 0.65710586D-01 0.00000000D+00  -5  6  0 0.00000000D+00 0.00000000D+00 0.00000000D+00 0.00000000D+00 0.00000000D+00
  <mgrwgt>
 0.6486199111D-02    1    2    0
 0.264446271340593D+03 0.000000000000000D+00 0.000000000000000D+00 0.264446271340593D+03
 0.264446271340593D+03 0.000000000000000D+00 0.000000000000000D+00 -.264446271340593D+03
 0.220795219501801D+03 0.912161431617875D+02 0.130628717695969D+03 -.879845571372819D+02
 0.121714726429495D+03 0.295632221218011D+02 0.113065608123728D+02 0.857055205678697D+02
 0.186382596749889D+03 -.120779365283589D+03 -.141935278508342D+03 0.227903656941220D+01
 0.000000000000000D+00 -.000000000000000D+00 0.000000000000000D+00 -.000000000000000D+00
 0.275040200763901D+03 0.000000000000000D+00 0.000000000000000D+00 0.275040200763901D+03
 0.313845286718687D+03 0.000000000000000D+00 0.000000000000000D+00 -.313845286718687D+03
 0.213012543876516D+03 0.956269064794293D+02 0.113417619051343D+03 -.879845571372819D+02
 0.121827261742587D+03 0.320394481334554D+02 0.164415839270346D+01 0.857055205678697D+02
 0.195830093419542D+03 -.116893197594454D+03 -.157099369308619D+03 0.227903656941220D+01
 0.582155884439426D+02 -.107731570184305D+02 0.420375918645722D+02 -.388050859547868D+02
0.118781974942D-04 0.000000000000D+00 0.000000000000D+00 0.819665640063D-07 0.000000000000D+00  6 2 21 25 24 1 21 4 0.13900739D-01 0.11907218D+00 0.56477442D+05 0.56477442D+05 0.56477442D+05 0.11870775D+01  1  2 14  2  6  2       21 0.648619911119D-02 0.100000000000D+01
  </mgrwgt>
  </event>
  <event>
  5     66 0.45638357E-03 0.28012987E+02 0.75467711E-02 0.12352922E+00
        2 -1    0    0  502    0 0.00000000E+00 0.00000000E+00 0.13938873E+02 0.13942545E+02 0.32000000E+00 0.0000E+00 0.9000E+01
       21 -1    0    0  501  502 0.00000000E+00 0.00000000E+00 -.23786834E+04 0.23786835E+04 0.75000000E+00 0.0000E+00 0.9000E+01
       25  1    1    2    0    0 -.23286072E+02 0.41600890E+02 -.53786065E+03 0.55424900E+03 0.12500000E+03 0.0000E+00 0.9000E+01
       24  1    1    2    0    0 0.31310073E+02 -.14761763E+02 -.33567644E+03 0.34690650E+03 0.80419002E+02 0.0000E+00 0.9000E+01
        1  1    1    2  501    0 -.80240013E+01 -.26839127E+02 -.14912075E+04 0.14914706E+04 0.32000000E+00 0.0000E+00 0.9000E+01
#aMCatNLO 1  0  0  1  2 0.41057184D+00 0.00000000D+00  -5  6  0 0.00000000D+00 0.00000000D+00 0.00000000D+00 0.00000000D+00 0.00000000D+00
  <mgrwgt>
 0.3015952972D-01    6    2    0
 0.182100798518630D+03 0.000000000000000D+00 0.000000000000000D+00 0.182100798518630D+03
 0.182100798518630D+03 0.000000000000000D+00 0.000000000000000D+00 -.182100798518630D+03
 0.148839563849024D+03 -.232860595143753D+02 0.416009317996758D+02 0.652329492853058D+02
 0.994738237989830D+02 0.313100816276463D+02 -.147617347178713D+02 0.472185942549109D+02
 0.115888209389254D+03 -.802402211327103D+01 -.268391970818045D+02 -.112451543540217D+03
 0.000000000000000D+00 0.000000000000000D+00 -.000000000000000D+00 -.000000000000000D+00
 0.182172539411675D+03 0.000000000000000D+00 0.000000000000000D+00 0.182172539411675D+03
 0.182689287046155D+03 0.000000000000000D+00 0.000000000000000D+00 -.182689287046155D+03
 0.148891071661606D+03 -.234071356632355D+02 0.417171373433645D+02 0.652329492853058D+02
 0.994368985309720D+02 0.312291919194528D+02 -.146840990100302D+02 0.472185942549109D+02
 0.115873858267590D+03 -.811827126084580D+01 -.267487393530179D+02 -.112451543540217D+03
 0.659997997661349D+00 0.296215004628465D+00 -.284298980316440D+00 -.516747634480296D+00
0.165542430745D-03 0.000000000000D+00 0.000000000000D+00 0.559775231232D-05 0.000000000000D+00  6 2 21 25 24 1 21 2 0.21447336D-02 0.36595159D+00 0.15543665D+05 0.15543665D+05 0.15543665D+05 0.12460637D+01  1  2  2  1  6  1        2 0.231892387415D-01 0.100000000000D+01
0.273218962301D-04 0.873591407611D-05 -.334182472786D-06 0.559775231232D-05 0.000000000000D+00  6 2 21 25 24 1 21 4 0.21447336D-02 0.36595159D+00 0.15543665D+05 0.15543665D+05 0.15543665D+05 0.12460637D+01  1  2  3  1  6  1        2 0.594249018176D-02 0.100000000000D+01
0.175053468500D-04 0.000000000000D+00 0.000000000000D+00 0.559775231232D-05 0.000000000000D+00  6 2 21 25 24 1 21 4 0.21447336D-02 0.36595159D+00 0.15543665D+05 0.15543665D+05 0.15543665D+05 0.12460637D+01  1  2 15  1  6  1        2 0.380739868523D-02 0.100000000000D+01
-.829048750147D-03 0.000000000000D+00 0.000000000000D+00 0.559775231232D-05 0.000000000000D+00  6 2 21 25 24 1 21 4 0.21447336D-02 0.36595159D+00 0.15543665D+05 0.15543665D+05 0.15543665D+05 0.12460637D+01  1  2  4  1  6  1        2 -.180317428061D+00 0.100000000000D+01
0.825509364198D-03 0.000000000000D+00 0.000000000000D+00 0.559775231232D-05 0.313264562336D-03  6 2 21 25 24 1 21 4 0.21455785D-02 0.36713422D+00 0.15589390D+05 0.15589390D+05 0.15589390D+05 0.12459189D+01  1  2 11  1  6  1        2 0.176478682157D+00 0.100000000000D+01
0.263186274170D-06 0.000000000000D+00 0.000000000000D+00 0.559645165356D-05 0.272481898095D-07  6 21 21 25 24 1 -2 4 0.21455785D-02 0.36713422D+00 0.15589390D+05 0.15589390D+05 0.15589390D+05 0.12459189D+01  1  2 11  4  6  1        2 0.105914801473D-02 0.100000000000D+01
  </mgrwgt>
  </event>
  <event>
  6     66 -.45638357E-03 0.51893600E+02 0.75467711E-02 0.11070008E+00
        2 -1    0    0  502    0 0.00000000E+00 0.00000000E+00 0.16488117E+04 0.16488117E+04 0.32000000E+00 0.0000E+00 0.9000E+01
       21 -1    0    0  501  503 0.00000000E+00 0.00000000E+00 -.53949043E+02 0.53954256E+02 0.75000000E+00 0.0000E+00 0.9000E+01
       25  1    1    2    0    0 0.14448882E+03 0.13893683E+03 0.83941352E+03 0.87202093E+03 0.12500000E+03 0.0000E+00 0.9000E+01
       24  1    1    2    0    0 -.88161882E+02 -.97920531E+02 0.62448776E+03 0.64328309E+03 0.80419002E+02 0.0000E+00 0.9000E+01
        1  1    1    2  501    0 -.17726726E+02 -.75844481E+02 0.54764145E+02 0.95214684E+02 0.32000000E+00 0.0000E+00 0.9000E+01
       21  1    1    2  502  503 -.38600210E+02 0.34828186E+02 0.76197197E+02 0.92247244E+02 0.75000000E+00 0.0000E+00 0.9000E+01
#aMCatNLO 2  0  0  2  1 0.51990179D+02 0.00000000D+00  -5  6  0 0.00000000D+00 0.00000000D+00 0.00000000D+00 0.00000000D+00 0.00000000D+00
  <mgrwgt>
 -.6577639236D-01    2    2    0
 0.266797138718782D+03 0.000000000000000D+00 0.000000000000000D+00 0.266797138718782D+03
 0.266797138718782D+03 0.000000000000000D+00 0.000000000000000D+00 -.266797138718782D+03
 0.241530745178852D+03 0.127049181300876D+03 0.154672385531228D+03 0.514495826174307D+02
 0.164214906973661D+03 -.999856673158150D+02 -.872520805708236D+02 0.537518416937633D+02
 0.127848625285051D+03 -.270635139850608D+02 -.674203049604041D+02 -.105201424311194D+03
 0.000000000000000D+00 -.000000000000000D+00 0.000000000000000D+00 -.000000000000000D+00
 0.282488052730994D+03 0.000000000000000D+00 0.000000000000000D+00 0.282488052730994D+03
 0.314897804857256D+03 0.000000000000000D+00 0.000000000000000D+00 -.314897804857256D+03
 0.241769637012210D+03 0.144488863533165D+03 0.138936914261122D+03 0.514495826174307D+02
 0.163454601827193D+03 -.881618568632133D+02 -.979204647306917D+02 0.537518416937633D+02
 0.130896859100259D+03 -.177267967115049D+02 -.758446354303208D+02 -.105201424311194D+03
 0.612647596485872D+02 -.386002099584463D+02 0.348281858998901D+02 -.324097521262616D+02
-.267457725350D-04 0.000000000000D+00 0.000000000000D+00 0.240796166969D-06 0.000000000000D+00  6 2 21 25 24 1 21 4 0.23957199D+00 0.84797073D-02 0.67723407D+05 0.67723407D+05 0.67723407D+05 0.11794483D+01  1  2 13  2  6  2       21 -.901405200357D-01 0.100000000000D+01
0.778551661955D-05 0.000000000000D+00 0.000000000000D+00 0.244778312108D-06 0.752075892178D-09  6 2 21 25 24 1 21 4 0.25366173D+00 0.83001904D-02 0.67723407D+05 0.67723407D+05 0.67723407D+05 0.11794483D+01  1  2  1  2  6  2       21 0.243641276739D-01 0.100000000000D+01
  </mgrwgt>
  </event>
  <event>
  6     66 0.45638357E-03 0.49057348E+02 0.75467711E-02 0.11510438E+00
        2 -1    0    0  502    0 0.00000000E+00 0.00000000E+00 0.24661526E+04 0.24661526E+04 0.32000000E+00 0.0000E+00 0.9000E+01
       21 -1    0    0  503  502 0.00000000E+00 0.00000000E+00 -.30071890E+03 0.30071984E+03 0.75000000E+00 0.0000E+00 0.9000E+01
       25  1    1    2    0    0 -.85208360E+02 0.74250370E+01 0.12438709E+04 0.12530585E+04 0.12500000E+03 0.0000E+00 0.9000E+01
       24  1    1    2    0    0 0.10793797E+03 0.33963201E+02 0.97696371E+03 0.98677728E+03 0.80419002E+02 0.0000E+00 0.9000E+01
        1  1    1    2  501    0 -.60056788E+02 -.32425120E+02 0.22956481E+03 0.23949595E+03 0.32000000E+00 0.0000E+00 0.9000E+01
       21  1    1    2  503  501 0.37327174E+02 -.89631179E+01 -.28496575E+03 0.28754077E+03 0.75000000E+00 0.0000E+00 0.9000E+01
#aMCatNLO 2  0  0  2  1 0.38388219D+02 0.00000000D+00  -5  6  0 0.00000000D+00 0.00000000D+00 0.00000000D+00 0.00000000D+00 0.00000000D+00
  <mgrwgt>
 0.1221709028D+01    3    2    0
 0.187852674891398D+03 0.000000000000000D+00 0.000000000000000D+00 0.187852674891398D+03
 0.187852674891398D+03 0.000000000000000D+00 0.000000000000000D+00 -.187852674891398D+03
 0.147774671980451D+03 -.701764738588982D+02 0.381568829462285D+01 0.356799203824726D+02
 0.149908774783255D+03 0.122266116883740D+03 0.305228402522533D+02 0.111703933571399D+02
 0.780219030190897D+02 -.520896430248422D+02 -.343385285468762D+02 -.468503137396125D+02
 0.000000000000000D+00 0.000000000000000D+00 -.000000000000000D+00 -.000000000000000D+00
 0.188929318592383D+03 0.000000000000000D+00 0.000000000000000D+00 0.188929318592383D+03
 0.392538194741289D+04 0.000000000000000D+00 0.000000000000000D+00 -.392538194741289D+04
 0.155607274998482D+03 -.852081831147474D+02 0.742514944208062D+01 0.356799203824726D+02
 0.139270030158754D+03 0.107938132762971D+03 0.339633207142597D+02 0.111703933571399D+02
 0.827841374383502D+02 -.600571231956660D+02 -.324253522320444D+02 -.468503137396125D+02
 0.373664982340969D+04 0.373271735474423D+02 -.896311792429591D+01 -.373645262882051D+04
-.282141794082D-01 0.000000000000D+00 0.000000000000D+00 0.295457172564D-06 0.000000000000D+00  6 2 21 25 24 1 21 4 0.37724597D+00 0.46037023D-01 0.39386858D+05 0.39386858D+05 0.39386858D+05 0.12026821D+01  1  2 13  2  6  2       21 -.147780276524D+01 0.100000000000D+01
-.282178399703D-01 0.000000000000D+00 0.000000000000D+00 0.295457172564D-06 0.000000000000D+00  6 2 21 25 24 1 21 4 0.37724597D+00 0.46170759D-01 0.39386858D+05 0.39386858D+05 0.39386858D+05 0.12026821D+01  1  2 13  2  6  2       21 -.146917955115D+01 0.100000000000D+01
0.818171159906D-01 0.000000000000D+00 0.000000000000D+00 0.300349850133D-06 0.210864224240D-05  6 2 21 25 24 1 21 4 0.37940809D+00 0.46264511D-01 0.39386858D+05 0.39386858D+05 0.39386858D+05 0.12026821D+01  1  2  1  2  6  2       21 0.416869134486D+01 0.100000000000D+01
  </mgrwgt>
  </event>
  <event>
  5     66 0.45638357E-03 0.52791489E+02 0.75467711E-02 0.11373512E+00
        2 -1    0    0  502    0 0.00000000E+00 0.00000000E+00 0.65778637E+03 0.65778645E+03 0.32000000E+00 0.0000E+00 0.9000E+01
       21 -1    0    0  501  502 0.00000000E+00 0.00000000E+00 -.86087259E+02 0.86090526E+02 0.75000000E+00 0.0000E+00 0.9000E+01
       25  1    1    2    0    0 -.56836892E+02 -.11262652E+03 0.33090902E+03 0.37555418E+03 0.12500000E+03 0.0000E+00 0.9000E+01
       24  1    1    2    0    0 0.30753665E+02 0.15852408E+03 0.25618947E+03 0.31333039E+03 0.80419002E+02 0.0000E+00 0.9000E+01
        1  1    1    2  501    0 0.26083226E+02 -.45897562E+02 -.15399376E+02 0.54992400E+02 0.32000000E+00 0.0000E+00 0.9000E+01
#aMCatNLO 1  0  0  5  2 0.49820021D+02 0.00000000D+00  -5  6  0 0.00000000D+00 0.00000000D+00 0.00000000D+00 0.00000000D+00 0.00000000D+00
  <mgrwgt>
 0.9467844009D-01    4    2    0
 0.237966950259305D+03 0.000000000000000D+00 0.000000000000000D+00 0.237966950259305D+03
 0.237966950259305D+03 -.000000000000000D+00 -.000000000000000D+00 -.237966950259305D+03
 0.189492128129060D+03 -.568369403031254D+02 -.112626436764183D+03 0.660841477334946D+02
 0.181991682208555D+03 0.307536186176999D+02 0.158524167247487D+03 0.240428737703509D+02
 0.104450090180995D+03 0.260833216854255D+02 -.458977304833035D+02 -.901270215038455D+02
 0.000000000000000D+00 -.000000000000000D+00 0.000000000000000D+00 0.000000000000000D+00
 0.237966950259305D+03 0.000000000000000D+00 0.000000000000000D+00 0.237966950259305D+03
 0.237966950259305D+03 -.000000000000000D+00 -.000000000000000D+00 -.237966950259305D+03
 0.189652580132683D+03 -.456476046471107D+02 -.132315842830664D+03 0.274210699458646D+02
 0.167317352744670D+03 0.410624425432390D+02 0.140384160854106D+03 -.115777272720223D+02
 0.546122359249379D+02 0.399138978376164D+02 0.403309059268580D+00 0.372721667458722D+02
 0.643517317163188D+02 -.353287357337448D+02 -.847162708271072D+01 -.531155094197145D+02
0.264879319067D-04 0.000000000000D+00 0.000000000000D+00 0.441578345899D-06 0.000000000000D+00  6 2 21 25 24 1 21 2 0.10119816D+00 0.13244451D-01 0.42185772D+05 0.42185772D+05 0.42185772D+05 0.11996609D+01  1  2  2  3  6  5        1 0.106548149444D+00 0.100000000000D+01
0.163171563834D-05 0.139780656929D-05 -.534715030082D-07 0.441578345899D-06 0.000000000000D+00  6 2 21 25 24 1 21 4 0.10119816D+00 0.13244451D-01 0.42185772D+05 0.42185772D+05 0.42185772D+05 0.11996609D+01  1  2  3  3  6  5        1 0.944624809955D-02 0.100000000000D+01
0.234680981812D-05 0.000000000000D+00 0.000000000000D+00 0.441578345899D-06 0.000000000000D+00  6 2 21 25 24 1 21 4 0.10119816D+00 0.13244451D-01 0.42185772D+05 0.42185772D+05 0.42185772D+05 0.11996609D+01  1  2 15  3  6  5        1 0.135860362330D-01 0.100000000000D+01
-.602886228468D-05 0.000000000000D+00 0.000000000000D+00 0.441578345899D-06 0.000000000000D+00  6 2 21 25 24 1 21 4 0.10119816D+00 0.13244451D-01 0.42185772D+05 0.42185772D+05 0.42185772D+05 0.11996609D+01  1  2  4  3  6  5        1 -.349019936813D-01 0.100000000000D+01
  </mgrwgt>
  </event>
  <event>
  5     66 0.45638357E-03 0.32408601E+02 0.75467711E-02 0.11408652E+00
        2 -1    0    0  502    0 0.00000000E+00 0.00000000E+00 0.59369372E+03 0.59369381E+03 0.32000000E+00 0.0000E+00 0.9000E+01
       21 -1    0    0  501  502 0.00000000E+00 0.00000000E+00 -.83156454E+02 0.83159836E+02 0.75000000E+00 0.0000E+00 0.9000E+01
       25  1    1    2    0    0 0.75539688E+02 0.10023288E+03 0.31114263E+03 0.35803297E+03 0.12500000E+03 0.0000E+00 0.9000E+01
       24  1    1    2    0    0 -.47198798E+02 -.84513277E+02 0.23750881E+03 0.26878964E+03 0.80419002E+02 0.0000E+00 0.9000E+01
        1  1    1    2  501    0 -.28340890E+02 -.15719603E+02 -.38114168E+02 0.50031032E+02 0.32000000E+00 0.0000E+00 0.9000E+01
#aMCatNLO 1  0  0  2  1 0.95981803D+02 0.00000000D+00  -5  6  0 0.00000000D+00 0.00000000D+00 0.00000000D+00 0.00000000D+00 0.00000000D+00
  <mgrwgt>
 0.3600901771D+00   14    2    0
 0.222195046011398D+03 0.000000000000000D+00 0.000000000000000D+00 0.222195046011398D+03
 0.222195046011398D+03 0.000000000000000D+00 0.000000000000000D+00 -.222195046011398D+03
 0.187866596479026D+03 0.755397303586672D+02 0.100232903888855D+03 0.625777291690959D+02
 0.136533560404700D+03 -.471987667197763D+02 -.845132598173297D+02 0.529526439150498D+02
 0.119989935139070D+03 -.283409636388909D+02 -.157196440715253D+02 -.115530373084146D+03
 0.000000000000000D+00 -.000000000000000D+00 -.000000000000000D+00 -.000000000000000D+00
 0.242675332731560D+03 0.000000000000000D+00 0.000000000000000D+00 0.242675332731560D+03
 0.377294097409705D+03 0.000000000000000D+00 0.000000000000000D+00 -.377294097409705D+03
 0.215259123169673D+03 0.115643151718114D+03 0.115854129751671D+03 0.625777291690959D+02
 0.123557501890434D+03 -.213246015284866D+02 -.744346639079625D+02 0.529526439150498D+02
 0.115820659447450D+03 -.488224797082079D+01 -.658192256347791D+01 -.115530373084146D+03
 0.165332145633708D+03 -.894363022188071D+02 -.348375432802306D+02 -.134618764678145D+03
0.196334324696D-04 0.000000000000D+00 0.000000000000D+00 0.197168092005D-05 0.000000000000D+00  6 2 21 25 24 1 21 2 0.91337763D-01 0.12793567D-01 0.28122199D+05 0.28122199D+05 0.28122199D+05 0.12178557D+01  1  2  2  2  6  2       21 0.980292727060D-01 0.100000000000D+01
0.327252010373D-05 0.103608469624D-05 -.396342435134D-07 0.197168092005D-05 0.000000000000D+00  6 2 21 25 24 1 21 4 0.91337763D-01 0.12793567D-01 0.28122199D+05 0.28122199D+05 0.28122199D+05 0.12178557D+01  1  2  3  2  6  2       21 0.242344721190D-01 0.100000000000D+01
0.191947313126D-05 0.000000000000D+00 0.000000000000D+00 0.197168092005D-05 0.000000000000D+00  6 2 21 25 24 1 21 4 0.91337763D-01 0.12793567D-01 0.28122199D+05 0.28122199D+05 0.28122199D+05 0.12178557D+01  1  2 15  2  6  2       21 0.142145553299D-01 0.100000000000D+01
-.269144486275D-05 0.000000000000D+00 0.000000000000D+00 0.197168092005D-05 0.000000000000D+00  6 2 21 25 24 1 21 4 0.91337763D-01 0.12793567D-01 0.28122199D+05 0.28122199D+05 0.28122199D+05 0.12178557D+01  1  2  4  2  6  2       21 -.199313505856D-01 0.100000000000D+01
-.505726642245D-04 0.000000000000D+00 -.240952618334D-04 0.197168092005D-05 0.000000000000D+00  6 2 21 25 24 1 21 4 0.91337763D-01 0.23495924D-01 0.28122199D+05 0.28122199D+05 0.28122199D+05 0.12178557D+01  1  2  5  2  6  2       21 -.122486423452D+00 0.100000000000D+01
0.499971405851D-04 0.000000000000D+00 0.126333022286D-04 0.197168092005D-05 0.000000000000D+00  6 2 21 25 24 1 21 4 0.91337763D-01 0.12793567D-01 0.28122199D+05 0.28122199D+05 0.28122199D+05 0.12178557D+01  1  2  6  2  6  2       21 0.370251143197D+00 0.100000000000D+01
-.277141355770D-05 0.000000000000D+00 -.520801849434D-05 0.197168092005D-05 0.000000000000D+00  6 2 -1 25 24 1 -1 4 0.91337763D-01 0.23495924D-01 0.28122199D+05 0.28122199D+05 0.28122199D+05 0.12178557D+01  1  2  5  5  6  2       21 -.549863468076D-03 0.100000000000D+01
-.277141355770D-05 0.000000000000D+00 -.520801849434D-05 0.197168092005D-05 0.000000000000D+00  6 2 1 25 24 1 1 4 0.91337763D-01 0.23495924D-01 0.28122199D+05 0.28122199D+05 0.28122199D+05 0.12178557D+01  1  2  5  6  6  2       21 -.875388637035D-03 0.100000000000D+01
-.277141355770D-05 0.000000000000D+00 -.520801849434D-05 0.197168092005D-05 0.000000000000D+00  6 2 -2 25 24 1 -2 4 0.91337763D-01 0.23495924D-01 0.28122199D+05 0.28122199D+05 0.28122199D+05 0.12178557D+01  1  2  5  7  6  2       21 -.495632095439D-03 0.100000000000D+01
-.277141355770D-05 0.000000000000D+00 -.520801849434D-05 0.197168092005D-05 0.000000000000D+00  6 2 2 25 24 1 2 4 0.91337763D-01 0.23495924D-01 0.28122199D+05 0.28122199D+05 0.28122199D+05 0.12178557D+01  1  2  5  8  6  2       21 -.110751050408D-02 0.100000000000D+01
-.277141355770D-05 0.000000000000D+00 -.520801849434D-05 0.197168092005D-05 0.000000000000D+00  6 2 -3 25 24 1 -3 4 0.91337763D-01 0.23495924D-01 0.28122199D+05 0.28122199D+05 0.28122199D+05 0.12178557D+01  1  2  5  9  6  2       21 -.322423371638D-03 0.100000000000D+01
-.277141355770D-05 0.000000000000D+00 -.520801849434D-05 0.197168092005D-05 0.000000000000D+00  6 2 -4 25 24 1 -4 4 0.91337763D-01 0.23495924D-01 0.28122199D+05 0.28122199D+05 0.28122199D+05 0.12178557D+01  1  2  5  9  6  2       21 -.274134300128D-03 0.100000000000D+01
-.277141355770D-05 0.000000000000D+00 -.520801849434D-05 0.197168092005D-05 0.000000000000D+00  6 2 3 25 24 1 3 4 0.91337763D-01 0.23495924D-01 0.28122199D+05 0.28122199D+05 0.28122199D+05 0.12178557D+01  1  2  5 10  6  2       21 -.322405496389D-03 0.100000000000D+01
-.277141355770D-05 0.000000000000D+00 -.520801849434D-05 0.197168092005D-05 0.000000000000D+00  6 2 4 25 24 1 4 4 0.91337763D-01 0.23495924D-01 0.28122199D+05 0.28122199D+05 0.28122199D+05 0.12178557D+01  1  2  5 10  6  2       21 -.274134300128D-03 0.100000000000D+01
  </mgrwgt>
  </event>
  <event>
  5     66 -.45638357E-03 0.23716644E+02 0.75467711E-02 0.12335770E+00
        2 -1    0    0  502    0 0.00000000E+00 0.00000000E+00 0.19695714E+04 0.19695714E+04 0.32000000E+00 0.0000E+00 0.9000E+01
       21 -1    0    0  501  502 0.00000000E+00 0.00000000E+00 -.13979641E+02 0.13999745E+02 0.75000000E+00 0.0000E+00 0.9000E+01
       25  1    1    2    0    0 -.48296240E+02 0.28373443E+02 0.65551517E+03 0.66967359E+03 0.12500000E+03 0.0000E+00 0.9000E+01
       24  1    1    2    0    0 0.32705860E+02 -.10501431E+02 0.12795367E+04 0.12825215E+04 0.80419002E+02 0.0000E+00 0.9000E+01
        1  1    1    2  501    0 0.15590380E+02 -.17872013E+02 0.20539808E+02 0.31376024E+02 0.32000000E+00 0.0000E+00 0.9000E+01
#aMCatNLO 1  0  0  2  1 0.42090238D+01 0.00000000D+00  -5  6  0 0.00000000D+00 0.00000000D+00 0.00000000D+00 0.00000000D+00 0.00000000D+00
  <mgrwgt>
 -.6260373689D+00   41    2    0
 0.165993568891633D+03 0.000000000000000D+00 0.000000000000000D+00 0.165993568891633D+03
 0.165993568891633D+03 0.000000000000000D+00 0.000000000000000D+00 -.165993568891633D+03
 0.139840226086390D+03 -.482963157493193D+02 0.283735304327825D+02 -.281548839051900D+02
 0.125671306157752D+03 0.327057916910060D+02 -.105013522992421D+02 0.902558254451010D+02
 0.664756055391246D+02 0.155905240583133D+02 -.178721781335404D+02 -.621009415399110D+02
 0.000000000000000D+00 0.000000000000000D+00 0.000000000000000D+00 -.000000000000000D+00
 0.166061367386710D+03 0.000000000000000D+00 0.000000000000000D+00 0.166061367386710D+03
 0.247334731938399D+03 0.000000000000000D+00 0.000000000000000D+00 -.247334731938399D+03
 0.140417017594671D+03 -.500604047627322D+02 0.281637571616202D+02 -.281548839051900D+02
 0.125285375036520D+03 0.311261360920193D+02 -.106891940236617D+02 0.902558254451010D+02
 0.663114256575347D+02 0.147546914504528D+02 -.179715695695518D+02 -.621009415399110D+02
 0.813822810363834D+02 0.417957722026014D+01 0.497006431593335D+00 -.812733645516889D+02
0.559361055697D-06 0.000000000000D+00 0.000000000000D+00 0.203742010801D-05 0.000000000000D+00  6 2 21 25 24 1 21 2 0.30301253D+00 0.21522624D-02 0.15393528D+05 0.15393528D+05 0.15393528D+05 0.12465424D+01  1  2  2  2  6  2       21 0.956351867290D-02 0.100000000000D+01
0.626893988181D-07 0.295182938785D-07 -.112918881239D-08 0.203742010801D-05 0.000000000000D+00  6 2 21 25 24 1 21 4 0.30301253D+00 0.21522624D-02 0.15393528D+05 0.15393528D+05 0.15393528D+05 0.12465424D+01  1  2  3  2  6  2       21 0.166545808459D-02 0.100000000000D+01
0.601285498983D-07 0.000000000000D+00 0.000000000000D+00 0.203742010801D-05 0.000000000000D+00  6 2 21 25 24 1 21 4 0.30301253D+00 0.21522624D-02 0.15393528D+05 0.15393528D+05 0.15393528D+05 0.12465424D+01  1  2 15  2  6  2       21 0.159742446779D-02 0.100000000000D+01
0.258481704870D-04 0.000000000000D+00 0.000000000000D+00 0.203255629141D-05 0.000000000000D+00  6 2 21 25 24 1 21 4 0.30301253D+00 0.32071952D-02 0.15865852D+05 0.15865852D+05 0.15865852D+05 0.12450536D+01  1  2 12  2  6  2       21 0.356634953864D+00 0.100000000000D+01
0.251322465318D-04 0.000000000000D+00 0.000000000000D+00 0.203255629141D-05 0.000000000000D+00  6 2 21 25 24 1 21 4 0.30301253D+00 0.32461059D-02 0.15865852D+05 0.15865852D+05 0.15865852D+05 0.12450536D+01  1  2 12  2  6  2       21 0.339948825246D+00 0.100000000000D+01
-.269940129082D-03 0.000000000000D+00 0.000000000000D+00 0.203742010801D-05 0.000000000000D+00  6 2 21 25 24 1 21 4 0.30301253D+00 0.21522624D-02 0.15393528D+05 0.15393528D+05 0.15393528D+05 0.12465424D+01  1  2  4  2  6  2       21 -.717145129500D+01 0.100000000000D+01
-.359218075916D-03 0.000000000000D+00 -.679296009765D-06 0.203742010801D-05 0.000000000000D+00  6 2 21 25 24 1 21 4 0.30301253D+00 0.32075406D-02 0.15393528D+05 0.15393528D+05 0.15393528D+05 0.12465424D+01  1  2  5  2  6  2       21 -.498116332724D+01 0.100000000000D+01
0.253246192775D-03 0.000000000000D+00 0.503687630123D-06 0.203742010801D-05 0.000000000000D+00  6 2 21 25 24 1 21 4 0.30301253D+00 0.21522624D-02 0.15393528D+05 0.15393528D+05 0.15393528D+05 0.12465424D+01  1  2  6  2  6  2       21 0.672794646465D+01 0.100000000000D+01
0.298461237418D-03 0.000000000000D+00 0.000000000000D+00 0.203742010801D-05 0.303394007972D-05  6 2 21 25 24 1 21 4 0.30313629D+00 0.32069270D-02 0.15865852D+05 0.15865852D+05 0.15865852D+05 0.12450536D+01  1  2 11  2  6  2       21 0.411463887669D+01 0.100000000000D+01
0.384993035879D-05 0.000000000000D+00 0.000000000000D+00 0.203255629141D-05 0.000000000000D+00  6 2 -1 25 24 1 -1 4 0.30301253D+00 0.32071952D-02 0.15865852D+05 0.15865852D+05 0.15865852D+05 0.12450536D+01  1  2 12  5  6  2       21 0.277855643227D-02 0.100000000000D+01
0.388038212258D-05 0.000000000000D+00 0.000000000000D+00 0.203255629141D-05 0.000000000000D+00  6 2 -1 25 24 1 -1 4 0.30301253D+00 0.32461059D-02 0.15865852D+05 0.15865852D+05 0.15865852D+05 0.12450536D+01  1  2 12  5  6  2       21 0.275178348178D-02 0.100000000000D+01
-.534782648012D-04 0.000000000000D+00 -.906424041120D-07 0.203742010801D-05 0.000000000000D+00  6 2 -1 25 24 1 -1 4 0.30301253D+00 0.32075406D-02 0.15393528D+05 0.15393528D+05 0.15393528D+05 0.12465424D+01  1  2  5  5  6  2       21 -.387743524572D-01 0.100000000000D+01
0.427277414933D-04 0.000000000000D+00 0.000000000000D+00 0.203742010801D-05 0.432574130445D-06  6 2 -1 25 24 1 -1 4 0.30313629D+00 0.32069270D-02 0.15865852D+05 0.15865852D+05 0.15865852D+05 0.12450536D+01  1  2 11  5  6  2       21 0.308119476506D-01 0.100000000000D+01
0.384993035879D-05 0.000000000000D+00 0.000000000000D+00 0.203255629141D-05 0.000000000000D+00  6 2 1 25 24 1 1 4 0.30301253D+00 0.32071952D-02 0.15865852D+05 0.15865852D+05 0.15865852D+05 0.12450536D+01  1  2 12  6  6  2       21 0.300622888385D-02 0.100000000000D+01
0.388038212258D-05 0.000000000000D+00 0.000000000000D+00 0.203255629141D-05 0.000000000000D+00  6 2 1 25 24 1 1 4 0.30301253D+00 0.32461059D-02 0.15865852D+05 0.15865852D+05 0.15865852D+05 0.12450536D+01  1  2 12  6  6  2       21 0.297998635611D-02 0.100000000000D+01
-.534782648012D-04 0.000000000000D+00 -.906424041120D-07 0.203742010801D-05 0.000000000000D+00  6 2 1 25 24 1 1 4 0.30301253D+00 0.32075406D-02 0.15393528D+05 0.15393528D+05 0.15393528D+05 0.12465424D+01  1  2  5  6  6  2       21 -.419536658203D-01 0.100000000000D+01
0.416441579415D-04 0.000000000000D+00 0.000000000000D+00 0.203742010801D-05 0.206041643911D-06  6 2 1 25 24 1 1 4 0.30313629D+00 0.32069270D-02 0.15865852D+05 0.15865852D+05 0.15865852D+05 0.12450536D+01  1  2 11  6  6  2       21 0.324910226275D-01 0.100000000000D+01
0.384993035879D-05 0.000000000000D+00 0.000000000000D+00 0.203255629141D-05 0.000000000000D+00  6 2 -2 25 24 1 -2 4 0.30301253D+00 0.32071952D-02 0.15865852D+05 0.15865852D+05 0.15865852D+05 0.12450536D+01  1  2 12  7  6  2       21 0.273781873294D-02 0.100000000000D+01
0.388038212258D-05 0.000000000000D+00 0.000000000000D+00 0.203255629141D-05 0.000000000000D+00  6 2 -2 25 24 1 -2 4 0.30301253D+00 0.32461059D-02 0.15865852D+05 0.15865852D+05 0.15865852D+05 0.12450536D+01  1  2 12  7  6  2       21 0.271096329925D-02 0.100000000000D+01
-.534782648012D-04 0.000000000000D+00 -.906424041120D-07 0.203742010801D-05 0.000000000000D+00  6 2 -2 25 24 1 -2 4 0.30301253D+00 0.32075406D-02 0.15393528D+05 0.15393528D+05 0.15393528D+05 0.12465424D+01  1  2  5  7  6  2       21 -.382054275839D-01 0.100000000000D+01
0.405887001928D-04 0.000000000000D+00 0.000000000000D+00 0.203742010801D-05 0.399975085567D-06  6 2 -2 25 24 1 -2 4 0.30313629D+00 0.32069270D-02 0.15865852D+05 0.15865852D+05 0.15865852D+05 0.12450536D+01  1  2 11  7  6  2       21 0.288403383700D-01 0.100000000000D+01
0.384993035879D-05 0.000000000000D+00 0.000000000000D+00 0.203255629141D-05 0.000000000000D+00  6 2 2 25 24 1 2 4 0.30301253D+00 0.32071952D-02 0.15865852D+05 0.15865852D+05 0.15865852D+05 0.12450536D+01  1  2 12  8  6  2       21 0.316060583779D-02 0.100000000000D+01
0.388038212258D-05 0.000000000000D+00 0.000000000000D+00 0.203255629141D-05 0.000000000000D+00  6 2 2 25 24 1 2 4 0.30301253D+00 0.32461059D-02 0.15865852D+05 0.15865852D+05 0.15865852D+05 0.12450536D+01  1  2 12  8  6  2       21 0.313466811371D-02 0.100000000000D+01
-.534782648012D-04 0.000000000000D+00 -.906424041120D-07 0.203742010801D-05 0.000000000000D+00  6 2 2 25 24 1 2 4 0.30301253D+00 0.32075406D-02 0.15393528D+05 0.15393528D+05 0.15393528D+05 0.12465424D+01  1  2  5  8  6  2       21 -.441092709707D-01 0.100000000000D+01
0.405750489612D-04 0.000000000000D+00 0.000000000000D+00 0.203742010801D-05 0.399853155165D-06  6 2 2 25 24 1 2 4 0.30313629D+00 0.32069270D-02 0.15865852D+05 0.15865852D+05 0.15865852D+05 0.12450536D+01  1  2 11  8  6  2       21 0.332824326799D-01 0.100000000000D+01
0.384993035879D-05 0.000000000000D+00 0.000000000000D+00 0.203255629141D-05 0.000000000000D+00  6 2 -3 25 24 1 -3 4 0.30301253D+00 0.32071952D-02 0.15865852D+05 0.15865852D+05 0.15865852D+05 0.12450536D+01  1  2 12  9  6  2       21 0.205381520902D-02 0.100000000000D+01
0.384993035879D-05 0.000000000000D+00 0.000000000000D+00 0.203255629141D-05 0.000000000000D+00  6 2 -4 25 24 1 -4 4 0.30301253D+00 0.32071952D-02 0.15865852D+05 0.15865852D+05 0.15865852D+05 0.12450536D+01  1  2 12  9  6  2       21 0.184550772142D-02 0.100000000000D+01
0.388038212258D-05 0.000000000000D+00 0.000000000000D+00 0.203255629141D-05 0.000000000000D+00  6 2 -3 25 24 1 -3 4 0.30301253D+00 0.32461059D-02 0.15865852D+05 0.15865852D+05 0.15865852D+05 0.12450536D+01  1  2 12  9  6  2       21 0.203178529638D-02 0.100000000000D+01
0.388038212258D-05 0.000000000000D+00 0.000000000000D+00 0.203255629141D-05 0.000000000000D+00  6 2 -4 25 24 1 -4 4 0.30301253D+00 0.32461059D-02 0.15865852D+05 0.15865852D+05 0.15865852D+05 0.12450536D+01  1  2 12  9  6  2       21 0.182523342028D-02 0.100000000000D+01
-.534782648012D-04 0.000000000000D+00 -.906424041120D-07 0.203742010801D-05 0.000000000000D+00  6 2 -3 25 24 1 -3 4 0.30301253D+00 0.32075406D-02 0.15393528D+05 0.15393528D+05 0.15393528D+05 0.12465424D+01  1  2  5  9  6  2       21 -.286407531251D-01 0.100000000000D+01
-.534782648012D-04 0.000000000000D+00 -.906424041120D-07 0.203742010801D-05 0.000000000000D+00  6 2 -4 25 24 1 -4 4 0.30301253D+00 0.32075406D-02 0.15393528D+05 0.15393528D+05 0.15393528D+05 0.12465424D+01  1  2  5  9  6  2       21 -.257277188807D-01 0.100000000000D+01
0.405937124829D-04 0.000000000000D+00 0.000000000000D+00 0.203742010801D-05 0.400024478406D-06  6 2 -3 25 24 1 -3 4 0.30313629D+00 0.32069270D-02 0.15865852D+05 0.15865852D+05 0.15865852D+05 0.12450536D+01  1  2 11  9  6  2       21 0.216378170058D-01 0.100000000000D+01
0.405937124829D-04 0.000000000000D+00 0.000000000000D+00 0.203742010801D-05 0.400024478406D-06  6 2 -4 25 24 1 -4 4 0.30313629D+00 0.32069270D-02 0.15865852D+05 0.15865852D+05 0.15865852D+05 0.12450536D+01  1  2 11  9  6  2       21 0.194432442818D-01 0.100000000000D+01
0.384993035879D-05 0.000000000000D+00 0.000000000000D+00 0.203255629141D-05 0.000000000000D+00  6 2 3 25 24 1 3 4 0.30301253D+00 0.32071952D-02 0.15865852D+05 0.15865852D+05 0.15865852D+05 0.12450536D+01  1  2 12 10  6  2       21 0.205365377699D-02 0.100000000000D+01
0.384993035879D-05 0.000000000000D+00 0.000000000000D+00 0.203255629141D-05 0.000000000000D+00  6 2 4 25 24 1 4 4 0.30301253D+00 0.32071952D-02 0.15865852D+05 0.15865852D+05 0.15865852D+05 0.12450536D+01  1  2 12 10  6  2       21 0.184550772142D-02 0.100000000000D+01
0.388038212258D-05 0.000000000000D+00 0.000000000000D+00 0.203255629141D-05 0.000000000000D+00  6 2 3 25 24 1 3 4 0.30301253D+00 0.32461059D-02 0.15865852D+05 0.15865852D+05 0.15865852D+05 0.12450536D+01  1  2 12 10  6  2       21 0.203162443282D-02 0.100000000000D+01
0.388038212258D-05 0.000000000000D+00 0.000000000000D+00 0.203255629141D-05 0.000000000000D+00  6 2 4 25 24 1 4 4 0.30301253D+00 0.32461059D-02 0.15865852D+05 0.15865852D+05 0.15865852D+05 0.12450536D+01  1  2 12 10  6  2       21 0.182523342028D-02 0.100000000000D+01
-.534782648012D-04 0.000000000000D+00 -.906424041120D-07 0.203742010801D-05 0.000000000000D+00  6 2 3 25 24 1 3 4 0.30301253D+00 0.32075406D-02 0.15393528D+05 0.15393528D+05 0.15393528D+05 0.12465424D+01  1  2  5 10  6  2       21 -.286384959989D-01 0.100000000000D+01
-.534782648012D-04 0.000000000000D+00 -.906424041120D-07 0.203742010801D-05 0.000000000000D+00  6 2 4 25 24 1 4 4 0.30301253D+00 0.32075406D-02 0.15393528D+05 0.15393528D+05 0.15393528D+05 0.12465424D+01  1  2  5 10  6  2       21 -.257277188807D-01 0.100000000000D+01
0.405937124829D-04 0.000000000000D+00 0.000000000000D+00 0.203742010801D-05 0.400024478406D-06  6 2 3 25 24 1 3 4 0.30313629D+00 0.32069270D-02 0.15865852D+05 0.15865852D+05 0.15865852D+05 0.12450536D+01  1  2 11 10  6  2       21 0.216361163364D-01 0.100000000000D+01
0.405937124829D-04 0.000000000000D+00 0.000000000000D+00 0.203742010801D-05 0.400024478406D-06  6 2 4 25 24 1 4 4 0.30313629D+00 0.32069270D-02 0.15865852D+05 0.15865852D+05 0.15865852D+05 0.12450536D+01  1  2 11 10  6  2       21 0.194432442818D-01 0.100000000000D+01
  </mgrwgt>
  </event>
  <event>
  5     66 0.45638357E-03 0.46408915E+02 0.75467711E-02 0.11691499E+00
        2 -1    0    0  502    0 0.00000000E+00 0.00000000E+00 0.62398019E+03 0.62398027E+03 0.32000000E+00 0.0000E+00 0.9000E+01
       21 -1    0    0  501  502 0.00000000E+00 0.00000000E+00 -.27669102E+02 0.27679265E+02 0.75000000E+00 0.0000E+00 0.9000E+01
       25  1    1    2    0    0 -.10163385E+02 0.16458650E+02 0.29168837E+03 0.31793283E+03 0.12500000E+03 0.0000E+00 0.9000E+01
       24  1    1    2    0    0 -.19903417E+02 0.18892464E+02 0.15122889E+03 0.17346603E+03 0.80419002E+02 0.0000E+00 0.9000E+01
        1  1    1    2  501    0 0.30066802E+02 -.35351114E+02 0.15339383E+03 0.16026068E+03 0.32000000E+00 0.0000E+00 0.9000E+01
#aMCatNLO 1  0  0  2  1 0.11103440D+02 0.00000000D+00  -5  6  0 0.00000000D+00 0.00000000D+00 0.00000000D+00 0.00000000D+00 0.00000000D+00
  <mgrwgt>
 0.1422878596D+00   14    2    0
 0.131408940852379D+03 0.000000000000000D+00 0.000000000000000D+00 0.131408940852379D+03
 0.131408940852379D+03 0.000000000000000D+00 0.000000000000000D+00 -.131408940852379D+03
 0.126501940572511D+03 -.101636896334358D+02 0.164590078987635D+02 0.188187157765903D+01
 0.869855714602608D+02 -.199036259137478D+02 0.188927101942143D+02 -.186060437734791D+02
 0.493303696719853D+02 0.300673155471836D+02 -.353517180929779D+02 0.167241721958201D+02
 0.000000000000000D+00 -.000000000000000D+00 0.000000000000000D+00 -.000000000000000D+00
 0.171309500662725D+03 0.000000000000000D+00 0.000000000000000D+00 0.171309500662725D+03
 0.192884941231436D+03 0.000000000000000D+00 0.000000000000000D+00 -.192884941231436D+03
 0.127207085565327D+03 0.225185525938861D+02 -.678350694449073D+01 0.188187157765903D+01
 0.826343547703342D+02 0.194644225307019D+01 0.335367434223627D+01 -.186060437734791D+02
 0.664468656691919D+02 0.449814859550361D+02 -.459581760179958D+02 0.167241721958201D+02
 0.879061358893074D+02 -.694464808019924D+02 0.493880086202502D+02 -.215754405687109D+02
0.281430140719D-05 0.000000000000D+00 0.000000000000D+00 0.408690830961D-06 0.000000000000D+00  6 2 21 25 24 1 21 2 0.95997740D-01 0.42575730D-02 0.16624135D+05 0.16624135D+05 0.16624135D+05 0.12427645D+01  1  2  2  2  6  2       21 0.917627342949D-01 0.100000000000D+01
-.193635955828D-06 0.148514765470D-06 -.568126370494D-08 0.408690830961D-06 0.000000000000D+00  6 2 21 25 24 1 21 4 0.95997740D-01 0.42575730D-02 0.16624135D+05 0.16624135D+05 0.16624135D+05 0.12427645D+01  1  2  3  2  6  2       21 -.975123104774D-02 0.100000000000D+01
0.292144512302D-06 0.000000000000D+00 0.000000000000D+00 0.408690830961D-06 0.000000000000D+00  6 2 21 25 24 1 21 4 0.95997740D-01 0.42575730D-02 0.16624135D+05 0.16624135D+05 0.16624135D+05 0.12427645D+01  1  2 15  2  6  2       21 0.147119817009D-01 0.100000000000D+01
-.921962807073D-06 0.000000000000D+00 0.000000000000D+00 0.408690830961D-06 0.000000000000D+00  6 2 21 25 24 1 21 4 0.95997740D-01 0.42575730D-02 0.16624135D+05 0.16624135D+05 0.16624135D+05 0.12427645D+01  1  2  4  2  6  2       21 -.464287343264D-01 0.100000000000D+01
-.449710713444D-05 0.000000000000D+00 -.360002638827D-05 0.408690830961D-06 0.000000000000D+00  6 2 21 25 24 1 21 4 0.95997740D-01 0.81623512D-02 0.16624135D+05 0.16624135D+05 0.16624135D+05 0.12427645D+01  1  2  5  2  6  2       21 -.751541679171D-01 0.100000000000D+01
0.343734746219D-05 0.000000000000D+00 0.173914620829D-05 0.408690830961D-06 0.000000000000D+00  6 2 21 25 24 1 21 4 0.95997740D-01 0.42575730D-02 0.16624135D+05 0.16624135D+05 0.16624135D+05 0.12427645D+01  1  2  6  2  6  2       21 0.173099924298D+00 0.100000000000D+01
-.799775211802D-06 0.000000000000D+00 -.835049050763D-06 0.408690830961D-06 0.000000000000D+00  6 2 -1 25 24 1 -1 4 0.95997740D-01 0.81623512D-02 0.16624135D+05 0.16624135D+05 0.16624135D+05 0.12427645D+01  1  2  5  5  6  2       21 -.845663746515D-03 0.100000000000D+01
-.799775211802D-06 0.000000000000D+00 -.835049050763D-06 0.408690830961D-06 0.000000000000D+00  6 2 1 25 24 1 1 4 0.95997740D-01 0.81623512D-02 0.16624135D+05 0.16624135D+05 0.16624135D+05 0.12427645D+01  1  2  5  6  6  2       21 -.102101945379D-02 0.100000000000D+01
-.799775211802D-06 0.000000000000D+00 -.835049050763D-06 0.408690830961D-06 0.000000000000D+00  6 2 -2 25 24 1 -2 4 0.95997740D-01 0.81623512D-02 0.16624135D+05 0.16624135D+05 0.16624135D+05 0.12427645D+01  1  2  5  7  6  2       21 -.815078910546D-03 0.100000000000D+01
-.799775211802D-06 0.000000000000D+00 -.835049050763D-06 0.408690830961D-06 0.000000000000D+00  6 2 2 25 24 1 2 4 0.95997740D-01 0.81623512D-02 0.16624135D+05 0.16624135D+05 0.16624135D+05 0.12427645D+01  1  2  5  8  6  2       21 -.113883868924D-02 0.100000000000D+01
-.799775211802D-06 0.000000000000D+00 -.835049050763D-06 0.408690830961D-06 0.000000000000D+00  6 2 -3 25 24 1 -3 4 0.95997740D-01 0.81623512D-02 0.16624135D+05 0.16624135D+05 0.16624135D+05 0.12427645D+01  1  2  5  9  6  2       21 -.567849980654D-03 0.100000000000D+01
-.799775211802D-06 0.000000000000D+00 -.835049050763D-06 0.408690830961D-06 0.000000000000D+00  6 2 -4 25 24 1 -4 4 0.95997740D-01 0.81623512D-02 0.16624135D+05 0.16624135D+05 0.16624135D+05 0.12427645D+01  1  2  5  9  6  2       21 -.498208183545D-03 0.100000000000D+01
-.799775211802D-06 0.000000000000D+00 -.835049050763D-06 0.408690830961D-06 0.000000000000D+00  6 2 3 25 24 1 3 4 0.95997740D-01 0.81623512D-02 0.16624135D+05 0.16624135D+05 0.16624135D+05 0.12427645D+01  1  2  5 10  6  2       21 -.567780212781D-03 0.100000000000D+01
-.799775211802D-06 0.000000000000D+00 -.835049050763D-06 0.408690830961D-06 0.000000000000D+00  6 2 4 25 24 1 4 4 0.95997740D-01 0.81623512D-02 0.16624135D+05 0.16624135D+05 0.16624135D+05 0.12427645D+01  1  2  5 10  6  2       21 -.498208183545D-03 0.100000000000D+01
  </mgrwgt>
  </event>
  <event>
  6     66 0.45638357E-03 0.34850883E+02 0.75467711E-02 0.11432997E+00
        2 -1    0    0  503    0 0.00000000E+00 0.00000000E+00 0.26606890E+03 0.26606910E+03 0.32000000E+00 0.0000E+00 0.9000E+01
       21 -1    0    0  501  502 0.00000000E+00 0.00000000E+00 -.25605195E+03 0.25605304E+03 0.75000000E+00 0.0000E+00 0.9000E+01
       25  1    1    2    0    0 -.97715270E+02 -.13117499E+02 -.58608141E+01 0.15931005E+03 0.12500000E+03 0.0000E+00 0.9000E+01
       24  1    1    2    0    0 0.10643847E+03 0.14012901E+02 -.11993076E+03 0.17993363E+03 0.80419002E+02 0.0000E+00 0.9000E+01
        1  1    1    2  501    0 0.39900203E+02 -.42516758E+02 0.60078323E+02 0.83721014E+02 0.32000000E+00 0.0000E+00 0.9000E+01
       21  1    1    2  503  502 -.48623403E+02 0.41621356E+02 0.75730206E+02 0.99157447E+02 0.75000000E+00 0.0000E+00 0.9000E+01
#aMCatNLO 2  0  0  1  2 0.15365977D+02 0.00000000D+00  -5  6  0 0.00000000D+00 0.00000000D+00 0.00000000D+00 0.00000000D+00 0.00000000D+00
  <mgrwgt>
 0.1288826351D+00    1    2    0
 0.206448739909148D+03 0.000000000000000D+00 0.000000000000000D+00 0.206448739909148D+03
 0.206448739909148D+03 0.000000000000000D+00 0.000000000000000D+00 -.206448739909148D+03
 0.172446411658128D+03 -.117194120478609D+03 0.355631053653360D+01 0.191221252578682D+02
 0.154111876087158D+03 0.878608701458954D+02 0.299152415324632D+02 -.931063919287694D+02
 0.863391920730106D+02 0.293332503327132D+02 -.334715520689968D+02 0.739842666709012D+02
 0.000000000000000D+00 -.000000000000000D+00 0.000000000000000D+00 0.000000000000000D+00
 0.311183922110784D+03 0.000000000000000D+00 0.000000000000000D+00 0.311183922110784D+03
 0.218928554877465D+03 0.000000000000000D+00 0.000000000000000D+00 -.218928554877465D+03
 0.160346536719679D+03 -.977153510932113D+02 -.131174053969661D+02 0.191221252578682D+02
 0.163283536998138D+03 0.106438403370706D+03 0.140129786324331D+02 -.931063919287694D+02
 0.941987206847929D+02 0.399003503421098D+02 -.425169296445252D+02 0.739842666709012D+02
 0.112283682585639D+03 -.486234026196047D+02 0.416213564090581D+02 0.922553672333187D+02
0.653882590235D-04 0.000000000000D+00 0.000000000000D+00 0.923721816668D-07 0.226886096421D-09  6 2 21 25 24 1 21 4 0.40933551D-01 0.39392489D-01 0.43191402D+05 0.43191402D+05 0.43191402D+05 0.11986295D+01  1  2  1  1  6  1        2 0.128882635080D+00 0.100000000000D+01
  </mgrwgt>
  </event>
  <event>
  6     66 0.45638357E-03 0.33384155E+02 0.75467711E-02 0.12059289E+00
        2 -1    0    0  502    0 0.00000000E+00 0.00000000E+00 0.12661822E+04 0.12661823E+04 0.32000000E+00 0.0000E+00 0.9000E+01
        1 -1    0    0  501    0 0.00000000E+00 0.00000000E+00 -.16758099E+03 0.16758130E+03 0.32000000E+00 0.0000E+00 0.9000E+01
       25  1    1    2    0    0 -.32973483E+02 0.21942752E+02 0.79772993E+03 0.80843477E+03 0.12500000E+03 0.0000E+00 0.9000E+01
       24  1    1    2    0    0 0.48078454E+02 -.49860776E+01 0.44695361E+03 0.45669589E+03 0.80419002E+02 0.0000E+00 0.9000E+01
        1  1    1    2  501    0 0.18035829E+02 0.12543455E+02 -.76516682E+01 0.23265421E+02 0.32000000E+00 0.0000E+00 0.9000E+01
        1  1    1    2  502    0 -.33140801E+02 -.29500130E+02 -.13843062E+03 0.14536750E+03 0.32000000E+00 0.0000E+00 0.9000E+01
#aMCatNLO 2  0  0  2  1 0.15960041D+02 0.00000000D+00  -5  6  0 0.00000000D+00 0.00000000D+00 0.00000000D+00 0.00000000D+00 0.00000000D+00
  <mgrwgt>
 0.1024845962D+00    1    2    0
 0.178709303553050D+03 0.000000000000000D+00 0.000000000000000D+00 0.178709303553050D+03
 0.178709303553050D+03 0.000000000000000D+00 0.000000000000000D+00 -.178709303553050D+03
 0.154475277193570D+03 -.471306234108371D+02 0.934084588145041D+01 0.770004168765028D+02
 0.953030798253097D+02 0.391235463499055D+02 -.129572432158679D+02 0.302806710472284D+02
 0.107640250087221D+03 0.800707706093157D+01 0.361639733441744D+01 -.107281087923731D+03
 0.000000000000000D+00 -.000000000000000D+00 -.000000000000000D+00 -.000000000000000D+00
 0.180575598618279D+03 0.000000000000000D+00 0.000000000000000D+00 0.180575598618279D+03
 0.117506610586548D+04 0.000000000000000D+00 0.000000000000000D+00 -.117506610586548D+04
 0.152061828134199D+03 -.329734880301579D+02 0.219427542365257D+02 0.770004168765028D+02
 0.985927642578089D+02 0.480784482744233D+02 -.498607882794578D+01 0.302806710472284D+02
 0.109507358736650D+03 0.180358404382825D+02 0.125434545107294D+02 -.107281087923731D+03
 0.995479753355100D+03 -.331408006825478D+02 -.295001299193093D+02 -.994490507247200D+03
0.944913757339D-03 0.000000000000D+00 0.000000000000D+00 0.449932022018D-04 0.705829561979D-06  6 2 1 25 24 1 1 4 0.19479727D+00 0.25781714D-01 0.21212447D+05 0.21212447D+05 0.21212447D+05 0.12310219D+01  1  2  1  6  6  2       21 0.102484596156D+00 0.100000000000D+01
  </mgrwgt>
  </event>
  <event>
  5     66 0.45638357E-03 0.11450643E+03 0.75467711E-02 0.11268804E+00
        2 -1    0    0  502    0 0.00000000E+00 0.00000000E+00 0.16447445E+04 0.16447445E+04 0.32000000E+00 0.0000E+00 0.9000E+01
       21 -1    0    0  501  502 0.00000000E+00 0.00000000E+00 -.24994951E+02 0.25006200E+02 0.75000000E+00 0.0000E+00 0.9000E+01
       25  1    1    2    0    0 0.88662890E+02 -.10775283E+03 0.10013280E+04 0.10187024E+04 0.12500000E+03 0.0000E+00 0.9000E+01
       24  1    1    2    0    0 -.34808264E+02 0.67016914E+01 0.23510709E+03 0.25099619E+03 0.80419002E+02 0.0000E+00 0.9000E+01
        1  1    1    2  501    0 -.53854625E+02 0.10105114E+03 0.38331445E+03 0.40005215E+03 0.32000000E+00 0.0000E+00 0.9000E+01
#aMCatNLO 1  0  0  2  1 0.64232293D+02 0.00000000D+00  -5  6  0 0.00000000D+00 0.00000000D+00 0.00000000D+00 0.00000000D+00 0.00000000D+00
  <mgrwgt>
 0.1950998456D+00    3    2    0
 0.202779993957483D+03 0.000000000000000D+00 0.000000000000000D+00 0.202779993957483D+03
 0.202779993957483D+03 0.000000000000000D+00 0.000000000000000D+00 -.202779993957483D+03
 0.194986037369128D+03 0.886629877332331D+02 -.107753010920380D+03 0.540621680357354D+02
 0.944039327209464D+02 -.348082169158715D+02 0.670160214942069D+01 -.344726431040464D+02
 0.116170017824891D+03 -.538547708173617D+02 0.101051408770960D+03 -.195895249316890D+02
 0.000000000000000D+00 -.000000000000000D+00 0.000000000000000D+00 0.000000000000000D+00
 0.438135702839680D+03 0.000000000000000D+00 0.000000000000000D+00 0.438135702839680D+03
 0.209737585061200D+03 0.000000000000000D+00 0.000000000000000D+00 -.209737585061200D+03
 0.218485025483311D+03 0.115961241872929D+03 -.125463057236014D+03 0.540621680357354D+02
 0.903780690755469D+02 -.226085093699952D+02 -.121309395418356D+01 -.344726431040464D+02
 0.101751921297245D+03 -.394670929089456D+02 0.917172425334957D+02 -.195895249316890D+02
 0.237258272044777D+03 -.538856395939879D+02 0.349589086567015D+02 0.228398117778481D+03
0.209641013116D-04 0.000000000000D+00 0.000000000000D+00 0.153067417906D-06 0.000000000000D+00  6 2 21 25 24 1 21 2 0.25303848D+00 0.38462448D-02 0.37972902D+05 0.37972902D+05 0.37972902D+05 0.12043007D+01  1  2  2  2  6  2       21 0.187375381214D+00 0.100000000000D+01
-.160179410173D-05 0.110630602025D-05 -.423204805227D-07 0.153067417906D-06 0.000000000000D+00  6 2 21 25 24 1 21 4 0.25303848D+00 0.38462448D-02 0.37972902D+05 0.37972902D+05 0.37972902D+05 0.12043007D+01  1  2  3  2  6  2       21 -.207640859442D-01 0.100000000000D+01
0.219767881907D-05 0.000000000000D+00 0.000000000000D+00 0.153067417906D-06 0.000000000000D+00  6 2 21 25 24 1 21 4 0.25303848D+00 0.38462448D-02 0.37972902D+05 0.37972902D+05 0.37972902D+05 0.12043007D+01  1  2 15  2  6  2       21 0.284885503246D-01 0.100000000000D+01
  </mgrwgt>
  </event>
  <event>
  5     66 0.45638357E-03 0.21972130E+02 0.75467711E-02 0.11344720E+00
        2 -1    0    0  502    0 0.00000000E+00 0.00000000E+00 0.19659029E+04 0.19659029E+04 0.32000000E+00 0.0000E+00 0.9000E+01
       21 -1    0    0  501  502 0.00000000E+00 0.00000000E+00 -.13201804E+02 0.13223091E+02 0.75000000E+00 0.0000E+00 0.9000E+01
       25  1    1    2    0    0 0.10507827E+03 -.21415336E+02 0.97924851E+03 0.99300187E+03 0.12500000E+03 0.0000E+00 0.9000E+01
       24  1    1    2    0    0 -.10876015E+03 -.24395335E+00 0.85849646E+03 0.86908700E+03 0.80419002E+02 0.0000E+00 0.9000E+01
        1  1    1    2  501    0 0.36818874E+01 0.21659289E+02 0.11495610E+03 0.11703713E+03 0.32000000E+00 0.0000E+00 0.9000E+01
#aMCatNLO 1  0  0  2  1 0.64232293D+02 0.00000000D+00  -5  6  0 0.00000000D+00 0.00000000D+00 0.00000000D+00 0.00000000D+00 0.00000000D+00
  <mgrwgt>
 0.2881352309D+00    4    2    0
 0.161166234326596D+03 0.000000000000000D+00 0.000000000000000D+00 0.161166234326596D+03
 0.161166234326596D+03 0.000000000000000D+00 0.000000000000000D+00 -.161166234326596D+03
 0.164724928812719D+03 0.105078069709657D+03 -.214164860376640D+02 -.303900711523130D+01
 0.135406041558770D+03 -.108760313271827D+03 -.244898601958374D+00 0.622209112224055D+01
 0.222014982817037D+02 0.368224356217074D+01 0.216613846396224D+02 -.318308400700926D+01
 0.000000000000000D+00 -.000000000000000D+00 -.000000000000000D+00 0.000000000000000D+00
 0.253235363417048D+03 0.000000000000000D+00 0.000000000000000D+00 0.253235363417048D+03
 0.199125008774978D+03 0.000000000000000D+00 0.000000000000000D+00 -.199125008774978D+03
 0.185301766765681D+03 0.134785119197712D+03 0.231404590510802D+02 -.303900711523130D+01
 0.122929474134228D+03 -.868351685724129D+02 0.326401399754125D+02 0.622209112224055D+01
 0.295527638278002D+02 0.807466975459091D+01 0.282494873302217D+02 -.318308400700926D+01
 0.114576367464317D+03 -.560246203798904D+02 -.840300863567144D+02 0.541103546420695D+02
0.133275546897D-04 0.000000000000D+00 0.000000000000D+00 0.590476070501D-06 0.000000000000D+00  6 2 21 25 24 1 21 2 0.30244824D+00 0.20326862D-02 0.25910058D+05 0.25910058D+05 0.25910058D+05 0.12216363D+01  1  2  2  2  6  2       21 0.240288053896D+00 0.100000000000D+01
0.115279680353D-05 0.703314383445D-06 -.269044930797D-07 0.590476070501D-06 0.000000000000D+00  6 2 21 25 24 1 21 4 0.30244824D+00 0.20326862D-02 0.25910058D+05 0.25910058D+05 0.25910058D+05 0.12216363D+01  1  2  3  2  6  2       21 0.310183241008D-01 0.100000000000D+01
0.115967629608D-05 0.000000000000D+00 0.000000000000D+00 0.590476070501D-06 0.000000000000D+00  6 2 21 25 24 1 21 4 0.30244824D+00 0.20326862D-02 0.25910058D+05 0.25910058D+05 0.25910058D+05 0.12216363D+01  1  2 15  2  6  2       21 0.312034307291D-01 0.100000000000D+01
-.534231550251D-06 0.000000000000D+00 0.000000000000D+00 0.590476070501D-06 0.000000000000D+00  6 2 21 25 24 1 21 4 0.30244824D+00 0.20326862D-02 0.25910058D+05 0.25910058D+05 0.25910058D+05 0.12216363D+01  1  2  4  2  6  2       21 -.143745778266D-01 0.100000000000D+01
  </mgrwgt>
  </event>
  <event>
  5     66 0.45638357E-03 0.29340342E+02 0.75467711E-02 0.12179034E+00
        2 -1    0    0  502    0 0.00000000E+00 0.00000000E+00 0.42349642E+03 0.42349654E+03 0.32000000E+00 0.0000E+00 0.9000E+01
       21 -1    0    0  501  502 0.00000000E+00 0.00000000E+00 -.43702834E+02 0.43709269E+02 0.75000000E+00 0.0000E+00 0.9000E+01
       25  1    1    2    0    0 -.38500857E+02 0.29283593E+02 0.15401943E+03 0.20417353E+03 0.12500000E+03 0.0000E+00 0.9000E+01
       24  1    1    2    0    0 0.61132437E+02 -.10612647E+02 0.14452811E+03 0.17665049E+03 0.80419002E+02 0.0000E+00 0.9000E+01
        1  1    1    2  501    0 -.22631580E+02 -.18670946E+02 0.81246034E+02 0.86381787E+02 0.32000000E+00 0.0000E+00 0.9000E+01
#aMCatNLO 1  0  0  2  1 0.81366886D+01 0.00000000D+00  -5  6  0 0.00000000D+00 0.00000000D+00 0.00000000D+00 0.00000000D+00 0.00000000D+00
  <mgrwgt>
 0.1617250824D+00   32    2    0
 0.136049715178740D+03 0.000000000000000D+00 0.000000000000000D+00 0.136049715178740D+03
 0.136049715178740D+03 0.000000000000000D+00 0.000000000000000D+00 -.136049715178740D+03
 0.135595540472631D+03 -.385003832783463D+02 0.292839840111733D+02 -.205260654758424D+02
 0.101585408783064D+03 0.611327917930270D+02 -.106123545740502D+02 0.159343065014717D+01
 0.349184811017856D+02 -.226324085146806D+02 -.186716294371232D+02 0.189326348256952D+02
 0.000000000000000D+00 0.000000000000000D+00 -.000000000000000D+00 -.000000000000000D+00
 0.139166428117965D+03 0.000000000000000D+00 0.000000000000000D+00 0.139166428117965D+03
 0.141526753401338D+03 0.000000000000000D+00 0.000000000000000D+00 -.141526753401338D+03
 0.137033990970091D+03 -.423411438775817D+02 0.306467429331469D+02 -.205260654758424D+02
 0.998018583715402D+02 0.582956806525650D+02 -.960570539105627D+01 0.159343065014717D+01
 0.353852110162975D+02 -.236228355210251D+02 -.183202112207084D+02 0.189326348256952D+02
 0.847212116137416D+01 0.766829874604182D+01 -.272082632138232D+01 -.236032528337316D+01
0.953747581311D-06 0.000000000000D+00 0.000000000000D+00 0.379889327586D-06 0.000000000000D+00  6 2 21 25 24 1 21 2 0.65153799D-01 0.67240172D-02 0.17549122D+05 0.17549122D+05 0.17549122D+05 0.12401258D+01  1  2  2  2  6  2       21 0.220061558507D-01 0.100000000000D+01
-.366463045819D-07 0.503306426221D-07 -.192534157981D-08 0.379889327586D-06 0.000000000000D+00  6 2 21 25 24 1 21 4 0.65153799D-01 0.67240172D-02 0.17549122D+05 0.17549122D+05 0.17549122D+05 0.12401258D+01  1  2  3  2  6  2       21 -.130038642846D-02 0.100000000000D+01
0.993371309292D-07 0.000000000000D+00 0.000000000000D+00 0.379889327586D-06 0.000000000000D+00  6 2 21 25 24 1 21 4 0.65153799D-01 0.67240172D-02 0.17549122D+05 0.17549122D+05 0.17549122D+05 0.12401258D+01  1  2 15  2  6  2       21 0.352495724675D-02 0.100000000000D+01
0.270557394580D-05 0.000000000000D+00 0.000000000000D+00 0.378049173197D-06 0.000000000000D+00  6 2 21 25 24 1 21 4 0.65153799D-01 0.70692778D-02 0.18674330D+05 0.18674330D+05 0.18674330D+05 0.12371186D+01  1  2 12  2  6  2       21 0.873648078259D-01 0.100000000000D+01
-.146718809356D-05 0.000000000000D+00 0.000000000000D+00 0.379889327586D-06 0.000000000000D+00  6 2 21 25 24 1 21 4 0.65153799D-01 0.67240172D-02 0.17549122D+05 0.17549122D+05 0.17549122D+05 0.12401258D+01  1  2  4  2  6  2       21 -.520628616347D-01 0.100000000000D+01
-.292612321492D-04 0.000000000000D+00 -.472590786822D-05 0.379889327586D-06 0.000000000000D+00  6 2 21 25 24 1 21 4 0.65153799D-01 0.71529819D-02 0.17549122D+05 0.17549122D+05 0.17549122D+05 0.12401258D+01  1  2  5  2  6  2       21 -.934076588176D+00 0.100000000000D+01
0.293253550863D-04 0.000000000000D+00 0.468995316762D-05 0.379889327586D-06 0.000000000000D+00  6 2 21 25 24 1 21 4 0.65153799D-01 0.67240172D-02 0.17549122D+05 0.17549122D+05 0.17549122D+05 0.12401258D+01  1  2  6  2  6  2       21 0.104060407179D+01 0.100000000000D+01
0.714350446786D-08 0.000000000000D+00 0.000000000000D+00 0.379889327586D-06 0.822246630986D-07  6 2 21 25 24 1 21 4 0.66646384D-01 0.69947102D-02 0.18674330D+05 0.18674330D+05 0.18674330D+05 0.12371186D+01  1  2 11  2  6  2       21 0.229243213145D-03 0.100000000000D+01
0.464879787308D-07 0.000000000000D+00 0.000000000000D+00 0.378049173197D-06 0.000000000000D+00  6 2 -1 25 24 1 -1 4 0.65153799D-01 0.70692778D-02 0.18674330D+05 0.18674330D+05 0.18674330D+05 0.12371186D+01  1  2 12  5  6  2       21 0.922395162774D-04 0.100000000000D+01
-.378441702978D-06 0.000000000000D+00 -.709849295727D-07 0.379889327586D-06 0.000000000000D+00  6 2 -1 25 24 1 -1 4 0.65153799D-01 0.71529819D-02 0.17549122D+05 0.17549122D+05 0.17549122D+05 0.12401258D+01  1  2  5  5  6  2       21 -.743471373071D-03 0.100000000000D+01
0.266229236864D-08 0.000000000000D+00 0.000000000000D+00 0.379889327586D-06 0.269548779887D-07  6 2 -1 25 24 1 -1 4 0.66646384D-01 0.69947102D-02 0.18674330D+05 0.18674330D+05 0.18674330D+05 0.12371186D+01  1  2 11  5  6  2       21 0.523788574900D-05 0.100000000000D+01
0.464879787308D-07 0.000000000000D+00 0.000000000000D+00 0.378049173197D-06 0.000000000000D+00  6 2 1 25 24 1 1 4 0.65153799D-01 0.70692778D-02 0.18674330D+05 0.18674330D+05 0.18674330D+05 0.12371186D+01  1  2 12  6  6  2       21 0.108802895183D-03 0.100000000000D+01
-.378441702978D-06 0.000000000000D+00 -.709849295727D-07 0.379889327586D-06 0.000000000000D+00  6 2 1 25 24 1 1 4 0.65153799D-01 0.71529819D-02 0.17549122D+05 0.17549122D+05 0.17549122D+05 0.12401258D+01  1  2  5  6  6  2       21 -.878635563136D-03 0.100000000000D+01
0.285835714660D-09 0.000000000000D+00 0.000000000000D+00 0.379889327586D-06 0.435078349461D-09  6 2 1 25 24 1 1 4 0.66646384D-01 0.69947102D-02 0.18674330D+05 0.18674330D+05 0.18674330D+05 0.12371186D+01  1  2 11  6  6  2       21 0.662287342454D-06 0.100000000000D+01
0.464879787308D-07 0.000000000000D+00 0.000000000000D+00 0.378049173197D-06 0.000000000000D+00  6 2 -2 25 24 1 -2 4 0.65153799D-01 0.70692778D-02 0.18674330D+05 0.18674330D+05 0.18674330D+05 0.12371186D+01  1  2 12  7  6  2       21 0.893438769589D-04 0.100000000000D+01
-.378441702978D-06 0.000000000000D+00 -.709849295727D-07 0.379889327586D-06 0.000000000000D+00  6 2 -2 25 24 1 -2 4 0.65153799D-01 0.71529819D-02 0.17549122D+05 0.17549122D+05 0.17549122D+05 0.12401258D+01  1  2  5  7  6  2       21 -.719842385955D-03 0.100000000000D+01
0.291835813309D-09 0.000000000000D+00 0.000000000000D+00 0.379889327586D-06 0.856110136176D-09  6 2 -2 25 24 1 -2 4 0.66646384D-01 0.69947102D-02 0.18674330D+05 0.18674330D+05 0.18674330D+05 0.12371186D+01  1  2 11  7  6  2       21 0.556328345109D-06 0.100000000000D+01
0.464879787308D-07 0.000000000000D+00 0.000000000000D+00 0.378049173197D-06 0.000000000000D+00  6 2 2 25 24 1 2 4 0.65153799D-01 0.70692778D-02 0.18674330D+05 0.18674330D+05 0.18674330D+05 0.12371186D+01  1  2 12  8  6  2       21 0.119918050328D-03 0.100000000000D+01
-.378441702978D-06 0.000000000000D+00 -.709849295727D-07 0.379889327586D-06 0.000000000000D+00  6 2 2 25 24 1 2 4 0.65153799D-01 0.71529819D-02 0.17549122D+05 0.17549122D+05 0.17549122D+05 0.12401258D+01  1  2  5  8  6  2       21 -.969317322346D-03 0.100000000000D+01
0.364667220580D-09 0.000000000000D+00 0.000000000000D+00 0.379889327586D-06 0.153471464319D-08  6 2 2 25 24 1 2 4 0.66646384D-01 0.69947102D-02 0.18674330D+05 0.18674330D+05 0.18674330D+05 0.12371186D+01  1  2 11  8  6  2       21 0.930483787283D-06 0.100000000000D+01
0.464879787308D-07 0.000000000000D+00 0.000000000000D+00 0.378049173197D-06 0.000000000000D+00  6 2 -3 25 24 1 -3 4 0.65153799D-01 0.70692778D-02 0.18674330D+05 0.18674330D+05 0.18674330D+05 0.12371186D+01  1  2 12  9  6  2       21 0.631525817603D-04 0.100000000000D+01
0.464879787308D-07 0.000000000000D+00 0.000000000000D+00 0.378049173197D-06 0.000000000000D+00  6 2 -4 25 24 1 -4 4 0.65153799D-01 0.70692778D-02 0.18674330D+05 0.18674330D+05 0.18674330D+05 0.12371186D+01  1  2 12  9  6  2       21 0.557141337051D-04 0.100000000000D+01
-.378441702978D-06 0.000000000000D+00 -.709849295727D-07 0.379889327586D-06 0.000000000000D+00  6 2 -3 25 24 1 -3 4 0.65153799D-01 0.71529819D-02 0.17549122D+05 0.17549122D+05 0.17549122D+05 0.12401258D+01  1  2  5  9  6  2       21 -.507616103260D-03 0.100000000000D+01
-.378441702978D-06 0.000000000000D+00 -.709849295727D-07 0.379889327586D-06 0.000000000000D+00  6 2 -4 25 24 1 -4 4 0.65153799D-01 0.71529819D-02 0.17549122D+05 0.17549122D+05 0.17549122D+05 0.12401258D+01  1  2  5  9  6  2       21 -.447385086862D-03 0.100000000000D+01
0.290482948654D-09 0.000000000000D+00 0.000000000000D+00 0.379889327586D-06 0.852141462383D-09  6 2 -3 25 24 1 -3 4 0.66646384D-01 0.69947102D-02 0.18674330D+05 0.18674330D+05 0.18674330D+05 0.12371186D+01  1  2 11  9  6  2       21 0.391757395518D-06 0.100000000000D+01
0.290482948654D-09 0.000000000000D+00 0.000000000000D+00 0.379889327586D-06 0.852141462383D-09  6 2 -4 25 24 1 -4 4 0.66646384D-01 0.69947102D-02 0.18674330D+05 0.18674330D+05 0.18674330D+05 0.12371186D+01  1  2 11  9  6  2       21 0.345720606469D-06 0.100000000000D+01
0.464879787308D-07 0.000000000000D+00 0.000000000000D+00 0.378049173197D-06 0.000000000000D+00  6 2 3 25 24 1 3 4 0.65153799D-01 0.70692778D-02 0.18674330D+05 0.18674330D+05 0.18674330D+05 0.12371186D+01  1  2 12 10  6  2       21 0.631452698393D-04 0.100000000000D+01
0.464879787308D-07 0.000000000000D+00 0.000000000000D+00 0.378049173197D-06 0.000000000000D+00  6 2 4 25 24 1 4 4 0.65153799D-01 0.70692778D-02 0.18674330D+05 0.18674330D+05 0.18674330D+05 0.12371186D+01  1  2 12 10  6  2       21 0.557141337051D-04 0.100000000000D+01
-.378441702978D-06 0.000000000000D+00 -.709849295727D-07 0.379889327586D-06 0.000000000000D+00  6 2 3 25 24 1 3 4 0.65153799D-01 0.71529819D-02 0.17549122D+05 0.17549122D+05 0.17549122D+05 0.12401258D+01  1  2  5 10  6  2       21 -.507556749792D-03 0.100000000000D+01
-.378441702978D-06 0.000000000000D+00 -.709849295727D-07 0.379889327586D-06 0.000000000000D+00  6 2 4 25 24 1 4 4 0.65153799D-01 0.71529819D-02 0.17549122D+05 0.17549122D+05 0.17549122D+05 0.12401258D+01  1  2  5 10  6  2       21 -.447385086862D-03 0.100000000000D+01
0.290482948654D-09 0.000000000000D+00 0.000000000000D+00 0.379889327586D-06 0.852141462383D-09  6 2 3 25 24 1 3 4 0.66646384D-01 0.69947102D-02 0.18674330D+05 0.18674330D+05 0.18674330D+05 0.12371186D+01  1  2 11 10  6  2       21 0.391712218416D-06 0.100000000000D+01
0.290482948654D-09 0.000000000000D+00 0.000000000000D+00 0.379889327586D-06 0.852141462383D-09  6 2 4 25 24 1 4 4 0.66646384D-01 0.69947102D-02 0.18674330D+05 0.18674330D+05 0.18674330D+05 0.12371186D+01  1  2 11 10  6  2       21 0.345720606469D-06 0.100000000000D+01
  </mgrwgt>
  </event>
  <event>
  5     66 0.45638357E-03 0.53201834E+02 0.75467711E-02 0.11921714E+00
        2 -1    0    0  502    0 0.00000000E+00 0.00000000E+00 0.10330543E+04 0.10330543E+04 0.32000000E+00 0.0000E+00 0.9000E+01
       21 -1    0    0  501  502 0.00000000E+00 0.00000000E+00 -.27876498E+02 0.27886585E+02 0.75000000E+00 0.0000E+00 0.9000E+01
       25  1    1    2    0    0 0.40737549E+00 -.71240915E+01 0.33696721E+03 0.35947576E+03 0.12500000E+03 0.0000E+00 0.9000E+01
       24  1    1    2    0    0 -.29754594E+02 -.43800438E+02 0.61400716E+03 0.62151092E+03 0.80419002E+02 0.0000E+00 0.9000E+01
        1  1    1    2  501    0 0.29347219E+02 0.50924529E+02 0.54203389E+02 0.79954216E+02 0.32000000E+00 0.0000E+00 0.9000E+01
#aMCatNLO 1  0  0  2  1 0.30900167D+02 0.00000000D+00  -5  6  0 0.00000000D+00 0.00000000D+00 0.00000000D+00 0.00000000D+00 0.00000000D+00
  <mgrwgt>
 0.1080262081D+00   23    2    0
 0.169715385462832D+03 0.000000000000000D+00 0.000000000000000D+00 0.169715385462832D+03
 0.169715385462832D+03 0.000000000000000D+00 0.000000000000000D+00 -.169715385462832D+03
 0.125712178243093D+03 0.407305848413591D+00 -.712421236528465D+01 -.112974093819522D+02
 0.124325974721378D+03 -.297546629935427D+02 -.438005572339775D+02 0.786505133624952D+02
 0.893926179611915D+02 0.293473571451291D+02 0.509247695992622D+02 -.673531039805430D+02
 0.000000000000000D+00 -.000000000000000D+00 -.000000000000000D+00 -.000000000000000D+00
 0.177627999738469D+03 0.000000000000000D+00 0.000000000000000D+00 0.177627999738469D+03
 0.203520947811869D+03 0.000000000000000D+00 0.000000000000000D+00 -.203520947811869D+03
 0.125636632308412D+03 0.436925291507817D+01 0.358351057201181D+01 -.112974093819522D+02
 0.120160497304588D+03 -.259008852153345D+02 -.333851771149032D+02 0.786505133624952D+02
 0.950372415427469D+02 0.322544778880667D+02 0.587816750391549D+02 -.673531039805430D+02
 0.403145763945908D+02 -.107228455878104D+02 -.289800084962635D+02 -.258929480733995D+02
0.161120257903D-05 0.000000000000D+00 0.000000000000D+00 0.601820421229D-06 0.000000000000D+00  6 2 21 25 24 1 21 2 0.15893220D+00 0.42894717D-02 0.19637205D+05 0.19637205D+05 0.19637205D+05 0.12347023D+01  1  2  2  2  6  2       21 0.272669090617D-01 0.100000000000D+01
-.157140862684D-07 0.850254960389D-07 -.325255379902D-08 0.601820421229D-06 0.000000000000D+00  6 2 21 25 24 1 21 4 0.15893220D+00 0.42894717D-02 0.19637205D+05 0.19637205D+05 0.19637205D+05 0.12347023D+01  1  2  3  2  6  2       21 -.405414601561D-03 0.100000000000D+01
0.143375699127D-06 0.000000000000D+00 0.000000000000D+00 0.601820421229D-06 0.000000000000D+00  6 2 21 25 24 1 21 4 0.15893220D+00 0.42894717D-02 0.19637205D+05 0.19637205D+05 0.19637205D+05 0.12347023D+01  1  2 15  2  6  2       21 0.369901252560D-02 0.100000000000D+01
0.335118293994D-05 0.000000000000D+00 0.000000000000D+00 0.591413188011D-06 0.000000000000D+00  6 2 21 25 24 1 21 4 0.15893220D+00 0.52297467D-02 0.24636660D+05 0.24636660D+05 0.24636660D+05 0.12239799D+01  1  2 12  2  6  2       21 0.598785705357D-01 0.100000000000D+01
-.243542040405D-05 0.000000000000D+00 0.000000000000D+00 0.601820421229D-06 0.000000000000D+00  6 2 21 25 24 1 21 4 0.15893220D+00 0.42894717D-02 0.19637205D+05 0.19637205D+05 0.19637205D+05 0.12347023D+01  1  2  4  2  6  2       21 -.628324788268D-01 0.100000000000D+01
-.110891622791D-04 0.000000000000D+00 -.258834946005D-05 0.601820421229D-06 0.000000000000D+00  6 2 21 25 24 1 21 4 0.15893220D+00 0.53867110D-02 0.19637205D+05 0.19637205D+05 0.19637205D+05 0.12347023D+01  1  2  5  2  6  2       21 -.195143180149D+00 0.100000000000D+01
0.107784070255D-04 0.000000000000D+00 0.233832655543D-05 0.601820421229D-06 0.000000000000D+00  6 2 21 25 24 1 21 4 0.15893220D+00 0.42894717D-02 0.19637205D+05 0.19637205D+05 0.19637205D+05 0.12347023D+01  1  2  6  2  6  2       21 0.278076848699D+00 0.100000000000D+01
0.190175713651D-06 0.000000000000D+00 0.000000000000D+00 0.591413188011D-06 0.000000000000D+00  6 2 -1 25 24 1 -1 4 0.15893220D+00 0.52297467D-02 0.24636660D+05 0.24636660D+05 0.24636660D+05 0.12239799D+01  1  2 12  5  6  2       21 0.196876287794D-03 0.100000000000D+01
-.543822603579D-06 0.000000000000D+00 -.173846359246D-06 0.601820421229D-06 0.000000000000D+00  6 2 -1 25 24 1 -1 4 0.15893220D+00 0.53867110D-02 0.19637205D+05 0.19637205D+05 0.19637205D+05 0.12347023D+01  1  2  5  5  6  2       21 -.555949905068D-03 0.100000000000D+01
0.190175713651D-06 0.000000000000D+00 0.000000000000D+00 0.591413188011D-06 0.000000000000D+00  6 2 1 25 24 1 1 4 0.15893220D+00 0.52297467D-02 0.24636660D+05 0.24636660D+05 0.24636660D+05 0.12239799D+01  1  2 12  6  6  2       21 0.222971628495D-03 0.100000000000D+01
-.543822603579D-06 0.000000000000D+00 -.173846359246D-06 0.601820421229D-06 0.000000000000D+00  6 2 1 25 24 1 1 4 0.15893220D+00 0.53867110D-02 0.19637205D+05 0.19637205D+05 0.19637205D+05 0.12347023D+01  1  2  5  6  6  2       21 -.632072395913D-03 0.100000000000D+01
0.190175713651D-06 0.000000000000D+00 0.000000000000D+00 0.591413188011D-06 0.000000000000D+00  6 2 -2 25 24 1 -2 4 0.15893220D+00 0.52297467D-02 0.24636660D+05 0.24636660D+05 0.24636660D+05 0.12239799D+01  1  2 12  7  6  2       21 0.192282641122D-03 0.100000000000D+01
-.543822603579D-06 0.000000000000D+00 -.173846359246D-06 0.601820421229D-06 0.000000000000D+00  6 2 -2 25 24 1 -2 4 0.15893220D+00 0.53867110D-02 0.19637205D+05 0.19637205D+05 0.19637205D+05 0.12347023D+01  1  2  5  7  6  2       21 -.542552840590D-03 0.100000000000D+01
0.190175713651D-06 0.000000000000D+00 0.000000000000D+00 0.591413188011D-06 0.000000000000D+00  6 2 2 25 24 1 2 4 0.15893220D+00 0.52297467D-02 0.24636660D+05 0.24636660D+05 0.24636660D+05 0.12239799D+01  1  2 12  8  6  2       21 0.240512347152D-03 0.100000000000D+01
-.543822603579D-06 0.000000000000D+00 -.173846359246D-06 0.601820421229D-06 0.000000000000D+00  6 2 2 25 24 1 2 4 0.15893220D+00 0.53867110D-02 0.19637205D+05 0.19637205D+05 0.19637205D+05 0.12347023D+01  1  2  5  8  6  2       21 -.683173555042D-03 0.100000000000D+01
0.190175713651D-06 0.000000000000D+00 0.000000000000D+00 0.591413188011D-06 0.000000000000D+00  6 2 -3 25 24 1 -3 4 0.15893220D+00 0.52297467D-02 0.24636660D+05 0.24636660D+05 0.24636660D+05 0.12239799D+01  1  2 12  9  6  2       21 0.140135639577D-03 0.100000000000D+01
0.190175713651D-06 0.000000000000D+00 0.000000000000D+00 0.591413188011D-06 0.000000000000D+00  6 2 -4 25 24 1 -4 4 0.15893220D+00 0.52297467D-02 0.24636660D+05 0.24636660D+05 0.24636660D+05 0.12239799D+01  1  2 12  9  6  2       21 0.125007898029D-03 0.100000000000D+01
-.543822603579D-06 0.000000000000D+00 -.173846359246D-06 0.601820421229D-06 0.000000000000D+00  6 2 -3 25 24 1 -3 4 0.15893220D+00 0.53867110D-02 0.19637205D+05 0.19637205D+05 0.19637205D+05 0.12347023D+01  1  2  5  9  6  2       21 -.392531332252D-03 0.100000000000D+01
-.543822603579D-06 0.000000000000D+00 -.173846359246D-06 0.601820421229D-06 0.000000000000D+00  6 2 -4 25 24 1 -4 4 0.15893220D+00 0.53867110D-02 0.19637205D+05 0.19637205D+05 0.19637205D+05 0.12347023D+01  1  2  5  9  6  2       21 -.349102058431D-03 0.100000000000D+01
0.190175713651D-06 0.000000000000D+00 0.000000000000D+00 0.591413188011D-06 0.000000000000D+00  6 2 3 25 24 1 3 4 0.15893220D+00 0.52297467D-02 0.24636660D+05 0.24636660D+05 0.24636660D+05 0.12239799D+01  1  2 12 10  6  2       21 0.140121738876D-03 0.100000000000D+01
0.190175713651D-06 0.000000000000D+00 0.000000000000D+00 0.591413188011D-06 0.000000000000D+00  6 2 4 25 24 1 4 4 0.15893220D+00 0.52297467D-02 0.24636660D+05 0.24636660D+05 0.24636660D+05 0.12239799D+01  1  2 12 10  6  2       21 0.125007898029D-03 0.100000000000D+01
-.543822603579D-06 0.000000000000D+00 -.173846359246D-06 0.601820421229D-06 0.000000000000D+00  6 2 3 25 24 1 3 4 0.15893220D+00 0.53867110D-02 0.19637205D+05 0.19637205D+05 0.19637205D+05 0.12347023D+01  1  2  5 10  6  2       21 -.392491078592D-03 0.100000000000D+01
-.543822603579D-06 0.000000000000D+00 -.173846359246D-06 0.601820421229D-06 0.000000000000D+00  6 2 4 25 24 1 4 4 0.15893220D+00 0.53867110D-02 0.19637205D+05 0.19637205D+05 0.19637205D+05 0.12347023D+01  1  2  5 10  6  2       21 -.349102058431D-03 0.100000000000D+01
  </mgrwgt>
  </event>
  <event>
  5     66 -.45638357E-03 0.37690752E+02 0.75467711E-02 0.12014783E+00
        4 -1    0    0  502    0 0.00000000E+00 0.00000000E+00 0.28898886E+02 0.28940423E+02 0.15500000E+01 0.0000E+00 0.9000E+01
       21 -1    0    0  501  502 -.00000000E+00 -.00000000E+00 -.78196235E+03 0.78196271E+03 0.75000000E+00 0.0000E+00 0.9000E+01
       25  1    1    2    0    0 0.65783609E+02 0.74643155E+02 -.40753012E+03 0.43772695E+03 0.12500000E+03 0.0000E+00 0.9000E+01
       24  1    1    2    0    0 -.48038875E+02 -.41394028E+02 -.23347959E+03 0.25495320E+03 0.80419002E+02 0.0000E+00 0.9000E+01
        3  1    1    2  501    0 -.17744735E+02 -.33249127E+02 -.11205376E+03 0.11822298E+03 0.50000000E+00 0.0000E+00 0.9000E+01
#aMCatNLO 1  0  0  5  2 0.62881095D+01 0.00000000D+00  -5  6  0 0.00000000D+00 0.00000000D+00 0.00000000D+00 0.00000000D+00 0.00000000D+00
  <mgrwgt>
 -.1357291845D+00    8    2    0
 0.150382271475498D+03 0.000000000000000D+00 0.000000000000000D+00 0.150382271475498D+03
 0.150382271475498D+03 -.000000000000000D+00 -.000000000000000D+00 -.150382271475498D+03
 0.159787527384282D+03 0.657844177885369D+02 0.746446701104474D+02 -.276360415189581D+01
 0.102795404703566D+03 -.480383544337636D+02 -.413930535085967D+02 0.886627871939203D+01
 0.381816108631481D+02 -.177460633547732D+02 -.332516166018507D+02 -.610267456749622D+01
 0.000000000000000D+00 0.000000000000000D+00 0.000000000000000D+00 -.000000000000000D+00
 0.150382271475498D+03 0.000000000000000D+00 0.000000000000000D+00 0.150382271475498D+03
 0.150382271475498D+03 -.000000000000000D+00 -.000000000000000D+00 -.150382271475498D+03
 0.158939513487033D+03 0.651192140360534D+02 0.733982471885016D+02 -.299236035214864D+01
 0.103311097571694D+03 -.484685119075379D+02 -.421990593877831D+02 0.871835233015628D+01
 0.110719208853701D+02 -.979194616542017D+00 -.105383146499531D+02 0.325154337713855D+01
 0.274420110068988D+02 -.156715075119735D+02 -.206608731507653D+02 -.897753535514618D+01
0.382968694114D-04 0.000000000000D+00 0.000000000000D+00 0.419131636859D-06 0.000000000000D+00  6 4 21 25 24 3 21 2 0.44492053D-02 0.12030512D+00 0.22480010D+05 0.22480010D+05 0.22480010D+05 0.12282759D+01  1  2  2  3  6  5        3 0.365278064611D-01 0.100000000000D+01
0.590385096900D-07 0.202098132217D-05 -.773103455244D-07 0.419131636859D-06 0.000000000000D+00  6 4 21 25 24 3 21 4 0.44492053D-02 0.12030512D+00 0.22480010D+05 0.22480010D+05 0.22480010D+05 0.12282759D+01  1  2  3  3  6  5        3 0.849547361999D-04 0.100000000000D+01
0.416795491619D-05 0.000000000000D+00 0.000000000000D+00 0.419131636859D-06 0.000000000000D+00  6 4 21 25 24 3 21 4 0.44492053D-02 0.12030512D+00 0.22480010D+05 0.22480010D+05 0.22480010D+05 0.12282759D+01  1  2 15  3  6  5        3 0.599756857443D-02 0.100000000000D+01
0.167364542656D-04 0.000000000000D+00 0.000000000000D+00 0.419454000290D-06 0.000000000000D+00  6 4 21 25 24 3 21 4 0.44492053D-02 0.12030512D+00 0.22256106D+05 0.22256106D+05 0.22256106D+05 0.12287482D+01  1  2 12  3  6  5        3 0.241153813526D-01 0.100000000000D+01
-.179848774256D-03 0.000000000000D+00 0.000000000000D+00 0.419131636859D-06 0.000000000000D+00  6 4 21 25 24 3 21 4 0.44492053D-02 0.12030512D+00 0.22480010D+05 0.22480010D+05 0.22480010D+05 0.12282759D+01  1  2  4  3  6  5        3 -.258797270680D+00 0.100000000000D+01
-.183620212391D-04 0.000000000000D+00 0.000000000000D+00 0.419131636859D-06 0.000000000000D+00  6 4 21 25 24 3 21 4 0.44492053D-02 0.12030512D+00 0.22480010D+05 0.22480010D+05 0.22480010D+05 0.12282759D+01  1  2  5  3  6  5        3 -.264224262885D-01 0.100000000000D+01
0.506071323562D-04 0.000000000000D+00 -.000000000000D+00 0.419131636859D-06 0.000000000000D+00  6 4 21 25 24 3 21 4 0.44492053D-02 0.12030512D+00 0.22480010D+05 0.22480010D+05 0.22480010D+05 0.12282759D+01  1  2  6  3  6  5        3 0.728222240319D-01 0.100000000000D+01
0.690030519207D-05 0.000000000000D+00 0.000000000000D+00 0.419131636859D-06 0.325771373637D-07  6 4 21 25 24 3 21 4 0.44492053D-02 0.12030512D+00 0.22256106D+05 0.22256106D+05 0.22256106D+05 0.12287482D+01  1  2 11  3  6  5        3 0.994257735332D-02 0.100000000000D+01
  </mgrwgt>
  </event>
  <event>
  5     66 0.45638357E-03 0.10044166E+03 0.75467711E-02 0.94662541E-01
        2 -1    0    0  502    0 0.00000000E+00 0.00000000E+00 0.14034141E+04 0.14034141E+04 0.32000000E+00 0.0000E+00 0.9000E+01
       21 -1    0    0  501  502 0.00000000E+00 0.00000000E+00 -.12252935E+03 0.12253165E+03 0.75000000E+00 0.0000E+00 0.9000E+01
       25  1    1    2    0    0 -.50723210E+02 -.43911500E+02 0.67414814E+03 0.68891347E+03 0.12500000E+03 0.0000E+00 0.9000E+01
       24  1    1    2    0    0 -.38228250E+02 0.90560837E+02 0.69305491E+03 0.70459562E+03 0.80419002E+02 0.0000E+00 0.9000E+01
        1  1    1    2  501    0 0.88951460E+02 -.46649337E+02 -.86318305E+02 0.13243668E+03 0.32000000E+00 0.0000E+00 0.9000E+01
#aMCatNLO 1  0  0  2  5 0.17730409D+02 0.00000000D+00  -5  6  0 0.00000000D+00 0.00000000D+00 0.00000000D+00 0.00000000D+00 0.00000000D+00
  <mgrwgt>
 0.1982278649D+00   12    2    0
 0.414682044939776D+03 0.000000000000000D+00 0.000000000000000D+00 0.414682044939776D+03
 0.414682044939776D+03 0.000000000000000D+00 0.000000000000000D+00 -.414682044939776D+03
 0.226364476552051D+03 -.507232190006128D+02 -.439114955445717D+02 0.176393911056870D+03
 0.226018080446195D+03 -.382282588069522D+02 0.905608416382152D+02 0.186960666784699D+03
 0.376981532881306D+03 0.889514778075650D+02 -.466493460936434D+02 -.363354577841569D+03
 0.000000000000000D+00 0.000000000000000D+00 0.000000000000000D+00 -.000000000000000D+00
 0.946173578967458D+03 0.000000000000000D+00 0.000000000000000D+00 0.946173578967458D+03
 0.106596143143377D+04 0.000000000000000D+00 0.000000000000000D+00 -.106596143143377D+04
 0.377814707678465D+03 -.128481352280871D+03 -.281951562500199D+03 0.176393911056870D+03
 0.245500943681735D+03 -.989129696994880D+02 -.952125563930563D+02 0.186960666784699D+03
 0.550110321463557D+03 -.303656616351028D+02 -.411913514145597D+03 -.363354577841569D+03
 0.838709037577475D+03 0.257759983615462D+03 0.789077633038853D+03 -.119787852466316D+03
0.991767746629D-04 0.000000000000D+00 0.000000000000D+00 0.312845366886D-05 0.000000000000D+00  6 2 21 25 24 1 21 2 0.21591004D+00 0.18850849D-01 0.34097744D+05 0.34097744D+05 0.34097744D+05 0.12091055D+01  1  2  2  2  6  2       21 0.740890434004D-01 0.100000000000D+01
0.693349023064D-05 0.523370218681D-05 -.200209333949D-06 0.312845366886D-05 0.000000000000D+00  6 2 21 25 24 1 21 4 0.21591004D+00 0.18850849D-01 0.34097744D+05 0.34097744D+05 0.34097744D+05 0.12091055D+01  1  2  3  2  6  2       21 0.757223855113D-02 0.100000000000D+01
0.951120500272D-05 0.000000000000D+00 0.000000000000D+00 0.312845366886D-05 0.000000000000D+00  6 2 21 25 24 1 21 4 0.21591004D+00 0.18850849D-01 0.34097744D+05 0.34097744D+05 0.34097744D+05 0.12091055D+01  1  2 15  2  6  2       21 0.103874254947D-01 0.100000000000D+01
0.286027801691D-02 0.000000000000D+00 -.111429462392D-02 0.312845366886D-05 0.000000000000D+00  6 2 21 25 24 1 21 4 0.21591004D+00 0.12376970D+00 0.34097744D+05 0.34097744D+05 0.34097744D+05 0.12091055D+01  1  2  5  2  6  2       21 0.595371193526D-01 0.100000000000D+01
0.122331447988D-02 0.000000000000D+00 -.475630823498D-03 0.312845366886D-05 0.000000000000D+00  6 2 -1 25 24 1 -1 4 0.21591004D+00 0.12376970D+00 0.34097744D+05 0.34097744D+05 0.34097744D+05 0.12091055D+01  1  2  5  5  6  2       21 0.300538340082D-02 0.100000000000D+01
0.122331447988D-02 0.000000000000D+00 -.475630823498D-03 0.312845366886D-05 0.000000000000D+00  6 2 1 25 24 1 1 4 0.21591004D+00 0.12376970D+00 0.34097744D+05 0.34097744D+05 0.34097744D+05 0.12091055D+01  1  2  5  6  6  2       21 0.132553445843D-01 0.100000000000D+01
0.122331447988D-02 0.000000000000D+00 -.475630823498D-03 0.312845366886D-05 0.000000000000D+00  6 2 -2 25 24 1 -2 4 0.21591004D+00 0.12376970D+00 0.34097744D+05 0.34097744D+05 0.34097744D+05 0.12091055D+01  1  2  5  7  6  2       21 0.220192229825D-02 0.100000000000D+01
0.122331447988D-02 0.000000000000D+00 -.475630823498D-03 0.312845366886D-05 0.000000000000D+00  6 2 2 25 24 1 2 4 0.21591004D+00 0.12376970D+00 0.34097744D+05 0.34097744D+05 0.34097744D+05 0.12091055D+01  1  2  5  8  6  2       21 0.231222483062D-01 0.100000000000D+01
0.122331447988D-02 0.000000000000D+00 -.475630823498D-03 0.312845366886D-05 0.000000000000D+00  6 2 -3 25 24 1 -3 4 0.21591004D+00 0.12376970D+00 0.34097744D+05 0.34097744D+05 0.34097744D+05 0.12091055D+01  1  2  5  9  6  2       21 0.140714785153D-02 0.100000000000D+01
0.122331447988D-02 0.000000000000D+00 -.475630823498D-03 0.312845366886D-05 0.000000000000D+00  6 2 -4 25 24 1 -4 4 0.21591004D+00 0.12376970D+00 0.34097744D+05 0.34097744D+05 0.34097744D+05 0.12091055D+01  1  2  5  9  6  2       21 0.111941688899D-02 0.100000000000D+01
0.122331447988D-02 0.000000000000D+00 -.475630823498D-03 0.312845366886D-05 0.000000000000D+00  6 2 3 25 24 1 3 4 0.21591004D+00 0.12376970D+00 0.34097744D+05 0.34097744D+05 0.34097744D+05 0.12091055D+01  1  2  5 10  6  2       21 0.141115783854D-02 0.100000000000D+01
0.122331447988D-02 0.000000000000D+00 -.475630823498D-03 0.312845366886D-05 0.000000000000D+00  6 2 4 25 24 1 4 4 0.21591004D+00 0.12376970D+00 0.34097744D+05 0.34097744D+05 0.34097744D+05 0.12091055D+01  1  2  5 10  6  2       21 0.111941688899D-02 0.100000000000D+01
  </mgrwgt>
  </event>
  <event>
  5     66 0.45638357E-03 0.75195969E+02 0.75467711E-02 0.11020262E+00
        4 -1    0    0  502    0 0.00000000E+00 0.00000000E+00 0.13978617E+03 0.13979476E+03 0.15500000E+01 0.0000E+00 0.9000E+01
       21 -1    0    0  501  502 -.00000000E+00 -.00000000E+00 -.11539251E+04 0.11539254E+04 0.75000000E+00 0.0000E+00 0.9000E+01
       25  1    1    2    0    0 0.66201460E+01 0.12075132E+02 0.15680721E+02 0.12673011E+03 0.12500000E+03 0.0000E+00 0.9000E+01
       24  1    1    2    0    0 0.29688426E+02 0.53774059E+02 0.29185144E+02 0.10531876E+03 0.80419002E+02 0.0000E+00 0.9000E+01
        3  1    1    2  501    0 -.36308572E+02 -.65849191E+02 -.10590048E+04 0.10616713E+04 0.50000000E+00 0.0000E+00 0.9000E+01
#aMCatNLO 1  0  0  5  2 0.46794524D+02 0.00000000D+00  -5  6  0 0.00000000D+00 0.00000000D+00 0.00000000D+00 0.00000000D+00 0.00000000D+00
  <mgrwgt>
 0.5487027072D-01    3    2    0
 0.401632285124926D+03 0.000000000000000D+00 0.000000000000000D+00 0.401632285124926D+03
 0.401632285124926D+03 -.000000000000000D+00 -.000000000000000D+00 -.401632285124926D+03
 0.223906033457533D+03 0.662015512127111D+01 0.120751482376870D+02 0.185254625205133D+03
 0.206471015995423D+03 0.296884341161947D+02 0.537740745649935D+02 0.179972248628000D+03
 0.372887520796896D+03 -.363085892374658D+02 -.658492228026804D+02 -.365226873833133D+03
 0.000000000000000D+00 0.000000000000000D+00 0.000000000000000D+00 0.000000000000000D+00
 0.401632285124926D+03 0.000000000000000D+00 0.000000000000000D+00 0.401632285124926D+03
 0.401632285124926D+03 -.000000000000000D+00 -.000000000000000D+00 -.401632285124926D+03
 0.167510301209668D+03 -.711871189625017D+00 -.122220768500247D+01 0.111502019977837D+03
 0.146962794688493D+03 0.230678979515555D+02 0.417670764927940D+02 0.113376498771232D+03
 0.187649582103227D+03 -.763633783636082D+02 -.165766951585950D+03 0.436155691274763D+02
 0.301141892248464D+03 0.540073516016777D+02 0.125222082778158D+03 -.268494087876546D+03
0.172333042529D-02 0.000000000000D+00 0.000000000000D+00 0.891766703959D-05 0.000000000000D+00  6 4 21 25 24 3 21 2 0.21506245D-01 0.17752762D+00 0.22823118D+05 0.22823118D+05 0.22823118D+05 0.12275624D+01  1  2  2  3  6  5        3 0.414779329504D-01 0.100000000000D+01
0.193371369688D-03 0.909426450504D-04 -.347890761515D-05 0.891766703959D-05 0.000000000000D+00  6 4 21 25 24 3 21 4 0.21506245D-01 0.17752762D+00 0.22823118D+05 0.22823118D+05 0.22823118D+05 0.12275624D+01  1  2  3  3  6  5        3 0.701338792811D-02 0.100000000000D+01
0.175878802316D-03 0.000000000000D+00 0.000000000000D+00 0.891766703959D-05 0.000000000000D+00  6 4 21 25 24 3 21 4 0.21506245D-01 0.17752762D+00 0.22823118D+05 0.22823118D+05 0.22823118D+05 0.12275624D+01  1  2 15  3  6  5        3 0.637894984640D-02 0.100000000000D+01
  </mgrwgt>
  </event>
  <event>
  5     66 -.45638357E-03 0.29006882E+02 0.75467711E-02 0.11305736E+00
        2 -1    0    0  502    0 0.00000000E+00 0.00000000E+00 0.65277348E+03 0.65277356E+03 0.32000000E+00 0.0000E+00 0.9000E+01
       21 -1    0    0  501  502 0.00000000E+00 0.00000000E+00 -.11298490E+03 0.11298739E+03 0.75000000E+00 0.0000E+00 0.9000E+01
       25  1    1    2    0    0 0.33214330E+02 0.74419368E+02 0.50651350E+03 0.52803633E+03 0.12500000E+03 0.0000E+00 0.9000E+01
       24  1    1    2    0    0 -.62214773E+02 -.73809746E+02 0.10283383E+03 0.16235938E+03 0.80419002E+02 0.0000E+00 0.9000E+01
        1  1    1    2  501    0 0.29000443E+02 -.60962170E+00 -.69558748E+02 0.75365238E+02 0.32000000E+00 0.0000E+00 0.9000E+01
#aMCatNLO 1  0  0  2  2 0.12405401D+03 0.00000000D+00  -5  6  0 0.00000000D+00 0.00000000D+00 0.00000000D+00 0.00000000D+00 0.00000000D+00
  <mgrwgt>
 -.1164767889D+00   12    2    0
 0.271577849550216D+03 0.000000000000000D+00 0.000000000000000D+00 0.271577849550216D+03
 0.271577849550216D+03 0.000000000000000D+00 0.000000000000000D+00 -.271577849550216D+03
 0.241071657823887D+03 0.332143087717047D+02 0.744193685732602D+02 0.189338615923779D+03
 0.126703900686344D+03 -.622147844622897D+02 -.738097461899208D+02 -.163738955796918D+02
 0.175380140590201D+03 0.290004756905851D+02 -.609622383339399D+00 -.172964720344087D+03
 0.000000000000000D+00 0.000000000000000D+00 -.000000000000000D+00 -.000000000000000D+00
 0.293590459655843D+03 0.000000000000000D+00 0.000000000000000D+00 0.293590459655843D+03
 0.534731090774838D+03 0.000000000000000D+00 0.000000000000000D+00 -.534731090774838D+03
 0.254627839317328D+03 -.468286023604970D+01 0.115495869603587D+03 0.189338615923779D+03
 0.127211862033180D+03 -.816271272808932D+02 -.527688309799678D+02 -.163738955796918D+02
 0.175302570220718D+03 0.219011571171905D+01 0.284499566862733D+02 -.172964720344087D+03
 0.271179278859456D+03 0.841198718052239D+02 -.911769953098921D+02 -.241140631118995D+03
0.424619038014D-04 0.000000000000D+00 0.000000000000D+00 0.319791397584D-05 0.000000000000D+00  6 2 21 25 24 1 21 2 0.10042689D+00 0.17382490D-01 0.23083901D+05 0.23083901D+05 0.23083901D+05 0.12270280D+01  1  2  2  2  6  2       21 0.110896104491D+00 0.100000000000D+01
0.944704314235D-05 0.224077622545D-05 -.857183499582D-07 0.319791397584D-05 0.000000000000D+00  6 2 21 25 24 1 21 4 0.10042689D+00 0.17382490D-01 0.23083901D+05 0.23083901D+05 0.23083901D+05 0.12270280D+01  1  2  3  2  6  2       21 0.371468229597D-01 0.100000000000D+01
0.392299205487D-05 0.000000000000D+00 0.000000000000D+00 0.319791397584D-05 0.000000000000D+00  6 2 21 25 24 1 21 4 0.10042689D+00 0.17382490D-01 0.23083901D+05 0.23083901D+05 0.23083901D+05 0.12270280D+01  1  2 15  2  6  2       21 0.154256405035D-01 0.100000000000D+01
-.242050960695D-03 0.000000000000D+00 -.585575854224D-04 0.319791397584D-05 0.000000000000D+00  6 2 21 25 24 1 21 4 0.10042689D+00 0.36397551D-01 0.23083901D+05 0.23083901D+05 0.23083901D+05 0.12270280D+01  1  2  5  2  6  2       21 -.233334065031D+00 0.100000000000D+01
-.633846598285D-04 0.000000000000D+00 -.153637023911D-04 0.319791397584D-05 0.000000000000D+00  6 2 -1 25 24 1 -1 4 0.10042689D+00 0.36397551D-01 0.23083901D+05 0.23083901D+05 0.23083901D+05 0.12270280D+01  1  2  5  5  6  2       21 -.556635125643D-02 0.100000000000D+01
-.633846598285D-04 0.000000000000D+00 -.153637023911D-04 0.319791397584D-05 0.000000000000D+00  6 2 1 25 24 1 1 4 0.10042689D+00 0.36397551D-01 0.23083901D+05 0.23083901D+05 0.23083901D+05 0.12270280D+01  1  2  5  6  6  2       21 -.106970645679D-01 0.100000000000D+01
-.633846598285D-04 0.000000000000D+00 -.153637023911D-04 0.319791397584D-05 0.000000000000D+00  6 2 -2 25 24 1 -2 4 0.10042689D+00 0.36397551D-01 0.23083901D+05 0.23083901D+05 0.23083901D+05 0.12270280D+01  1  2  5  7  6  2       21 -.476843183343D-02 0.100000000000D+01
-.633846598285D-04 0.000000000000D+00 -.153637023911D-04 0.319791397584D-05 0.000000000000D+00  6 2 2 25 24 1 2 4 0.10042689D+00 0.36397551D-01 0.23083901D+05 0.23083901D+05 0.23083901D+05 0.12270280D+01  1  2  5  8  6  2       21 -.145095352619D-01 0.100000000000D+01
-.633846598285D-04 0.000000000000D+00 -.153637023911D-04 0.319791397584D-05 0.000000000000D+00  6 2 -3 25 24 1 -3 4 0.10042689D+00 0.36397551D-01 0.23083901D+05 0.23083901D+05 0.23083901D+05 0.12270280D+01  1  2  5  9  6  2       21 -.301844507823D-02 0.100000000000D+01
-.633846598285D-04 0.000000000000D+00 -.153637023911D-04 0.319791397584D-05 0.000000000000D+00  6 2 -4 25 24 1 -4 4 0.10042689D+00 0.36397551D-01 0.23083901D+05 0.23083901D+05 0.23083901D+05 0.12270280D+01  1  2  5  9  6  2       21 -.251631664099D-02 0.100000000000D+01
-.633846598285D-04 0.000000000000D+00 -.153637023911D-04 0.319791397584D-05 0.000000000000D+00  6 2 3 25 24 1 3 4 0.10042689D+00 0.36397551D-01 0.23083901D+05 0.23083901D+05 0.23083901D+05 0.12270280D+01  1  2  5 10  6  2       21 -.301883050979D-02 0.100000000000D+01
-.633846598285D-04 0.000000000000D+00 -.153637023911D-04 0.319791397584D-05 0.000000000000D+00  6 2 4 25 24 1 4 4 0.10042689D+00 0.36397551D-01 0.23083901D+05 0.23083901D+05 0.23083901D+05 0.12270280D+01  1  2  5 10  6  2       21 -.251631664099D-02 0.100000000000D+01
  </mgrwgt>
  </event>
  <event>
  5     66 0.45638357E-03 0.49564785E+02 0.75467711E-02 0.11158452E+00
        2 -1    0    0  502    0 0.00000000E+00 0.00000000E+00 0.16163080E+04 0.16163080E+04 0.32000000E+00 0.0000E+00 0.9000E+01
       21 -1    0    0  501  502 0.00000000E+00 0.00000000E+00 -.28305083E+02 0.28315018E+02 0.75000000E+00 0.0000E+00 0.9000E+01
       25  1    1    2    0    0 -.80106551E+02 -.19843087E+02 0.94975774E+03 0.96149653E+03 0.12500000E+03 0.0000E+00 0.9000E+01
       24  1    1    2    0    0 0.12178511E+03 -.69807042E+01 0.23410191E+03 0.27595518E+03 0.80419002E+02 0.0000E+00 0.9000E+01
        1  1    1    2  501    0 -.41678554E+02 0.26823791E+02 0.40414326E+03 0.40717133E+03 0.32000000E+00 0.0000E+00 0.9000E+01
#aMCatNLO 1  0  0  2  1 0.24312704D+02 0.00000000D+00  -5  6  0 0.00000000D+00 0.00000000D+00 0.00000000D+00 0.00000000D+00 0.00000000D+00
  <mgrwgt>
 0.1259335788D+00   14    2    0
 0.213911027113187D+03 0.000000000000000D+00 0.000000000000000D+00 0.213911027113187D+03
 0.213911027113187D+03 0.000000000000000D+00 0.000000000000000D+00 -.213911027113187D+03
 0.170821520660164D+03 -.801063501459090D+02 -.198432160473388D+02 0.821231475520170D+02
 0.191873847149820D+03 0.121785331021906D+03 -.698084940394158D+01 -.124370246261661D+03
 0.651266864163896D+02 -.416789808759973D+02 0.268240654512804D+02 0.422470987096443D+02
 0.000000000000000D+00 -.000000000000000D+00 -.000000000000000D+00 -.000000000000000D+00
 0.268879804515730D+03 0.000000000000000D+00 0.000000000000000D+00 0.268879804515730D+03
 0.304903615282702D+03 0.000000000000000D+00 0.000000000000000D+00 -.304903615282702D+03
 0.161867702407058D+03 -.579951142688313D+02 0.216450557780472D+02 0.821231475520170D+02
 0.214434436704032D+03 0.148789446815846D+03 0.436881454316040D+02 -.124370246261661D+03
 0.689541983370907D+02 -.327676790849187D+02 0.435447278819858D+02 0.422470987096443D+02
 0.128527082350252D+03 -.580266534620962D+02 -.108877929091637D+03 -.360238107669723D+02
0.114439353043D-04 0.000000000000D+00 0.000000000000D+00 0.626385303505D-07 0.000000000000D+00  6 2 21 25 24 1 21 2 0.24866353D+00 0.43553948D-02 0.29835445D+05 0.29835445D+05 0.29835445D+05 0.12151492D+01  1  2  2  2  6  2       21 0.878162118347D-01 0.100000000000D+01
-.820010544068D-06 0.603913057580D-06 -.231020082354D-07 0.626385303505D-07 0.000000000000D+00  6 2 21 25 24 1 21 4 0.24866353D+00 0.43553948D-02 0.29835445D+05 0.29835445D+05 0.29835445D+05 0.12151492D+01  1  2  3  2  6  2       21 -.929133119699D-02 0.100000000000D+01
0.103321918207D-05 0.000000000000D+00 0.000000000000D+00 0.626385303505D-07 0.000000000000D+00  6 2 21 25 24 1 21 4 0.24866353D+00 0.43553948D-02 0.29835445D+05 0.29835445D+05 0.29835445D+05 0.12151492D+01  1  2 15  2  6  2       21 0.117071441205D-01 0.100000000000D+01
-.307220574026D-05 0.000000000000D+00 0.000000000000D+00 0.626385303505D-07 0.000000000000D+00  6 2 21 25 24 1 21 4 0.24866353D+00 0.43553948D-02 0.29835445D+05 0.29835445D+05 0.29835445D+05 0.12151492D+01  1  2  4  2  6  2       21 -.348103829208D-01 0.100000000000D+01
-.170111769921D-04 0.000000000000D+00 -.142220017975D-04 0.626385303505D-07 0.000000000000D+00  6 2 21 25 24 1 21 4 0.24866353D+00 0.80459256D-02 0.29835445D+05 0.29835445D+05 0.29835445D+05 0.12151492D+01  1  2  5  2  6  2       21 -.676056214112D-01 0.100000000000D+01
0.127022692575D-04 0.000000000000D+00 0.737507572678D-05 0.626385303505D-07 0.000000000000D+00  6 2 21 25 24 1 21 4 0.24866353D+00 0.43553948D-02 0.29835445D+05 0.29835445D+05 0.29835445D+05 0.12151492D+01  1  2  6  2  6  2       21 0.143926186655D+00 0.100000000000D+01
-.324395355469D-05 0.000000000000D+00 -.310519713385D-05 0.626385303505D-07 0.000000000000D+00  6 2 -1 25 24 1 -1 4 0.24866353D+00 0.80459256D-02 0.29835445D+05 0.29835445D+05 0.29835445D+05 0.12151492D+01  1  2  5  5  6  2       21 -.821013454954D-03 0.100000000000D+01
-.324395355469D-05 0.000000000000D+00 -.310519713385D-05 0.626385303505D-07 0.000000000000D+00  6 2 1 25 24 1 1 4 0.24866353D+00 0.80459256D-02 0.29835445D+05 0.29835445D+05 0.29835445D+05 0.12151492D+01  1  2  5  6  6  2       21 -.987939027494D-03 0.100000000000D+01
-.324395355469D-05 0.000000000000D+00 -.310519713385D-05 0.626385303505D-07 0.000000000000D+00  6 2 -2 25 24 1 -2 4 0.24866353D+00 0.80459256D-02 0.29835445D+05 0.29835445D+05 0.29835445D+05 0.12151492D+01  1  2  5  7  6  2       21 -.791952689672D-03 0.100000000000D+01
-.324395355469D-05 0.000000000000D+00 -.310519713385D-05 0.626385303505D-07 0.000000000000D+00  6 2 2 25 24 1 2 4 0.24866353D+00 0.80459256D-02 0.29835445D+05 0.29835445D+05 0.29835445D+05 0.12151492D+01  1  2  5  8  6  2       21 -.110046137969D-02 0.100000000000D+01
-.324395355469D-05 0.000000000000D+00 -.310519713385D-05 0.626385303505D-07 0.000000000000D+00  6 2 -3 25 24 1 -3 4 0.24866353D+00 0.80459256D-02 0.29835445D+05 0.29835445D+05 0.29835445D+05 0.12151492D+01  1  2  5  9  6  2       21 -.559584510493D-03 0.100000000000D+01
-.324395355469D-05 0.000000000000D+00 -.310519713385D-05 0.626385303505D-07 0.000000000000D+00  6 2 -4 25 24 1 -4 4 0.24866353D+00 0.80459256D-02 0.29835445D+05 0.29835445D+05 0.29835445D+05 0.12151492D+01  1  2  5  9  6  2       21 -.494078840234D-03 0.100000000000D+01
-.324395355469D-05 0.000000000000D+00 -.310519713385D-05 0.626385303505D-07 0.000000000000D+00  6 2 3 25 24 1 3 4 0.24866353D+00 0.80459256D-02 0.29835445D+05 0.29835445D+05 0.29835445D+05 0.12151492D+01  1  2  5 10  6  2       21 -.559519538154D-03 0.100000000000D+01
-.324395355469D-05 0.000000000000D+00 -.310519713385D-05 0.626385303505D-07 0.000000000000D+00  6 2 4 25 24 1 4 4 0.24866353D+00 0.80459256D-02 0.29835445D+05 0.29835445D+05 0.29835445D+05 0.12151492D+01  1  2  5 10  6  2       21 -.494078840234D-03 0.100000000000D+01
  </mgrwgt>
  </event>
  <event>
  5     66 -.45638357E-03 0.26954850E+02 0.75467711E-02 0.12150558E+00
        2 -1    0    0  502    0 0.00000000E+00 0.00000000E+00 0.10007680E+02 0.10012795E+02 0.32000000E+00 0.0000E+00 0.9000E+01
       21 -1    0    0  501  502 -.00000000E+00 -.00000000E+00 -.19669406E+04 0.19669408E+04 0.75000000E+00 0.0000E+00 0.9000E+01
       25  1    1    2    0    0 0.36909801E+02 -.54015509E+02 -.11415228E+04 0.11502083E+04 0.12500000E+03 0.0000E+00 0.9000E+01
       24  1    1    2    0    0 -.61083033E+02 0.42093806E+02 -.64349681E+03 0.65273148E+03 0.80419002E+02 0.0000E+00 0.9000E+01
        1  1    1    2  501    0 0.24173232E+02 0.11921704E+02 -.17191335E+03 0.17401372E+03 0.32000000E+00 0.0000E+00 0.9000E+01
#aMCatNLO 1  0  0  5  2 0.63665895D+01 0.00000000D+00  -5  6  0 0.00000000D+00 0.00000000D+00 0.00000000D+00 0.00000000D+00 0.00000000D+00
  <mgrwgt>
 -.1810311839D+00    7    2    0
 0.140320023849650D+03 0.000000000000000D+00 0.000000000000000D+00 0.140320023849650D+03
 0.140320023849650D+03 -.000000000000000D+00 -.000000000000000D+00 -.140320023849650D+03
 0.142620273833012D+03 0.369089421679438D+02 -.540159329416715D+02 -.208698702604382D+02
 0.110959870780625D+03 -.610837012942439D+02 0.420934759460156D+02 0.184877713167421D+02
 0.270599030856627D+02 0.241747591263002D+02 0.119224569956560D+02 0.238209894369607D+01
 0.000000000000000D+00 0.000000000000000D+00 0.000000000000000D+00 0.000000000000000D+00
 0.140320023849650D+03 0.000000000000000D+00 0.000000000000000D+00 0.140320023849650D+03
 0.140320023849650D+03 -.000000000000000D+00 -.000000000000000D+00 -.140320023849650D+03
 0.142712846909759D+03 0.383570516058573D+02 -.533017573667123D+02 -.207271784576207D+02
 0.110576208941869D+03 -.599593716438711D+02 0.426479704845331D+02 0.185985589551433D+02
 0.126186238554062D+02 0.947573988097515D+01 0.654445538984214D+01 -.515850030170480D+01
 0.147323679922646D+02 0.121265801570387D+02 0.410933149233704D+01 0.728711980418225D+01
0.224489583748D-03 0.000000000000D+00 0.000000000000D+00 0.524358411021D-06 0.000000000000D+00  6 2 21 25 24 1 21 2 0.15400475D-02 0.30260665D+00 0.19244451D+05 0.19244451D+05 0.19244451D+05 0.12356715D+01  1  2  2  3  6  5        1 0.110090961752D+00 0.100000000000D+01
0.460126077666D-05 0.118466408025D-04 -.453179791271D-06 0.524358411021D-06 0.000000000000D+00  6 2 21 25 24 1 21 4 0.15400475D-02 0.30260665D+00 0.19244451D+05 0.19244451D+05 0.19244451D+05 0.12356715D+01  1  2  3  3  6  5        1 0.344539004075D-02 0.100000000000D+01
0.255799348987D-04 0.000000000000D+00 0.000000000000D+00 0.524358411021D-06 0.000000000000D+00  6 2 21 25 24 1 21 4 0.15400475D-02 0.30260665D+00 0.19244451D+05 0.19244451D+05 0.19244451D+05 0.12356715D+01  1  2 15  3  6  5        1 0.191540660747D-01 0.100000000000D+01
0.116971893102D-03 0.000000000000D+00 0.000000000000D+00 0.525224950538D-06 0.000000000000D+00  6 2 21 25 24 1 21 4 0.15400475D-02 0.30260665D+00 0.18840378D+05 0.18840378D+05 0.18840378D+05 0.12366921D+01  1  2 12  3  6  5        1 0.879915326570D-01 0.100000000000D+01
-.716854477067D-03 0.000000000000D+00 0.000000000000D+00 0.524358411021D-06 0.000000000000D+00  6 2 21 25 24 1 21 4 0.15400475D-02 0.30260665D+00 0.19244451D+05 0.19244451D+05 0.19244451D+05 0.12356715D+01  1  2  4  3  6  5        1 -.536775330902D+00 0.100000000000D+01
-.119030053934D-03 0.000000000000D+00 0.000000000000D+00 0.524358411021D-06 0.000000000000D+00  6 2 21 25 24 1 21 4 0.15400475D-02 0.30260665D+00 0.19244451D+05 0.19244451D+05 0.19244451D+05 0.12356715D+01  1  2  5  3  6  5        1 -.891288240945D-01 0.100000000000D+01
0.299403358423D-03 0.000000000000D+00 -.000000000000D+00 0.524358411021D-06 0.000000000000D+00  6 2 21 25 24 1 21 4 0.15400475D-02 0.30260665D+00 0.19244451D+05 0.19244451D+05 0.19244451D+05 0.12356715D+01  1  2  6  3  6  5        1 0.224191020537D+00 0.100000000000D+01
  </mgrwgt>
  </event>
  <event>
  5     66 0.45638357E-03 0.55917476E+02 0.75467711E-02 0.11925922E+00
        2 -1    0    0  502    0 0.00000000E+00 0.00000000E+00 0.39142239E+03 0.39142252E+03 0.32000000E+00 0.0000E+00 0.9000E+01
       21 -1    0    0  501  502 0.00000000E+00 0.00000000E+00 -.79599130E+02 0.79602663E+02 0.75000000E+00 0.0000E+00 0.9000E+01
       25  1    1    2    0    0 -.96705724E+02 -.15770019E+02 0.12273272E+03 0.20072123E+03 0.12500000E+03 0.0000E+00 0.9000E+01
       24  1    1    2    0    0 0.46950310E+02 0.41287015E+02 0.18863827E+03 0.21438415E+03 0.80419002E+02 0.0000E+00 0.9000E+01
        1  1    1    2  501    0 0.49755413E+02 -.25516996E+02 0.45227005E+00 0.55919810E+02 0.32000000E+00 0.0000E+00 0.9000E+01
#aMCatNLO 1  0  0  5  2 0.12164928D+02 0.00000000D+00  -5  6  0 0.00000000D+00 0.00000000D+00 0.00000000D+00 0.00000000D+00 0.00000000D+00
  <mgrwgt>
 0.2397304782D-01    7    2    0
 0.176515564967208D+03 0.000000000000000D+00 0.000000000000000D+00 0.176515564967208D+03
 0.176515564967208D+03 -.000000000000000D+00 -.000000000000000D+00 -.176515564967208D+03
 0.159402008194305D+03 -.967059325934174D+02 -.157699114152413D+02 -.135378252156713D+02
 0.119418783822459D+03 0.469501539883331D+02 0.412870950527274D+02 0.623272717022297D+02
 0.742103379176521D+02 0.497557786050843D+02 -.255171836374861D+02 -.487894464865585D+02
 0.000000000000000D+00 0.000000000000000D+00 0.000000000000000D+00 0.000000000000000D+00
 0.176515564967208D+03 0.000000000000000D+00 0.000000000000000D+00 0.176515564967208D+03
 0.176515564967208D+03 -.000000000000000D+00 -.000000000000000D+00 -.176515564967208D+03
 0.158382357710641D+03 -.944826122991762D+02 -.169101382154969D+02 -.157179652830057D+02
 0.118950230456106D+03 0.486178592747610D+02 0.404318146563588D+02 0.606919557628826D+02
 0.604508954604713D+02 0.307657511384794D+02 -.225844227937271D+02 -.468798801825704D+02
 0.152476463071974D+02 0.150990018859357D+02 -.937253647134789D+00 0.190588970269355D+01
0.369577012413D-05 0.000000000000D+00 0.000000000000D+00 0.403377680855D-06 0.000000000000D+00  6 2 21 25 24 1 21 2 0.60219111D-01 0.12246302D-01 0.25059997D+05 0.25059997D+05 0.25059997D+05 0.12231861D+01  1  2  2  3  6  5        1 0.318668757195D-01 0.100000000000D+01
-.225279192643D-07 0.195031147628D-06 -.746069508204D-08 0.403377680855D-06 0.000000000000D+00  6 2 21 25 24 1 21 4 0.60219111D-01 0.12246302D-01 0.25059997D+05 0.25059997D+05 0.25059997D+05 0.12231861D+01  1  2  3  3  6  5        1 -.290630143449D-03 0.100000000000D+01
0.343418375330D-06 0.000000000000D+00 0.000000000000D+00 0.403377680855D-06 0.000000000000D+00  6 2 21 25 24 1 21 4 0.60219111D-01 0.12246302D-01 0.25059997D+05 0.25059997D+05 0.25059997D+05 0.12231861D+01  1  2 15  3  6  5        1 0.443040169464D-02 0.100000000000D+01
0.497823898790D-05 0.000000000000D+00 0.000000000000D+00 0.404044006020D-06 0.000000000000D+00  6 2 21 25 24 1 21 4 0.60219111D-01 0.12246302D-01 0.24522864D+05 0.24522864D+05 0.24522864D+05 0.12241959D+01  1  2 12  3  6  5        1 0.644276135767D-01 0.100000000000D+01
-.738529272176D-05 0.000000000000D+00 0.000000000000D+00 0.403377680855D-06 0.000000000000D+00  6 2 21 25 24 1 21 4 0.60219111D-01 0.12246302D-01 0.25059997D+05 0.25059997D+05 0.25059997D+05 0.12231861D+01  1  2  4  3  6  5        1 -.952768277423D-01 0.100000000000D+01
-.540782595711D-05 0.000000000000D+00 0.000000000000D+00 0.403377680855D-06 0.000000000000D+00  6 2 21 25 24 1 21 4 0.60219111D-01 0.12246302D-01 0.25059997D+05 0.25059997D+05 0.25059997D+05 0.12231861D+01  1  2  5  3  6  5        1 -.697657522305D-01 0.100000000000D+01
0.686630044341D-05 0.000000000000D+00 -.000000000000D+00 0.403377680855D-06 0.000000000000D+00  6 2 21 25 24 1 21 4 0.60219111D-01 0.12246302D-01 0.25059997D+05 0.25059997D+05 0.25059997D+05 0.12231861D+01  1  2  6  3  6  5        1 0.885813669438D-01 0.100000000000D+01
  </mgrwgt>
  </event>
  <event>
  6     66 -.45638357E-03 0.16141611E+02 0.75467711E-02 0.12320114E+00
        2 -1    0    0  502    0 0.00000000E+00 0.00000000E+00 0.22840093E+02 0.22842335E+02 0.32000000E+00 0.0000E+00 0.9000E+01
       21 -1    0    0  501  503 0.00000000E+00 0.00000000E+00 -.79225601E+03 0.79225636E+03 0.75000000E+00 0.0000E+00 0.9000E+01
       25  1    1    2    0    0 0.50738545E+02 -.64591356E+01 -.28277044E+03 0.31336918E+03 0.12500000E+03 0.0000E+00 0.9000E+01
       24  1    1    2    0    0 -.25251917E+02 0.75317448E+01 -.30053966E+03 0.31222699E+03 0.80419002E+02 0.0000E+00 0.9000E+01
        1  1    1    2  501    0 -.19078208E+02 -.11317737E+02 -.14368925E+03 0.14539179E+03 0.32000000E+00 0.0000E+00 0.9000E+01
       21  1    1    2  502  503 -.64084207E+01 0.10245128E+02 -.42416565E+02 0.44110747E+02 0.75000000E+00 0.0000E+00 0.9000E+01
#aMCatNLO 2  0  0  2  1 0.12084308D+02 0.00000000D+00  -5  6  0 0.00000000D+00 0.00000000D+00 0.00000000D+00 0.00000000D+00 0.00000000D+00
  <mgrwgt>
 -.2015333710D+00    3    2    0
 0.128207191135273D+03 0.000000000000000D+00 0.000000000000000D+00 0.128207191135273D+03
 0.128207191135273D+03 0.000000000000000D+00 0.000000000000000D+00 -.128207191135273D+03
 0.138988706901873D+03 0.472503190997885D+02 -.881209192366444D+00 0.382032912401820D+02
 0.876317773468866D+02 -.274276063152581D+02 0.110108395885256D+02 -.184010942602536D+02
 0.297938980217872D+02 -.198227127845304D+02 -.101296303961591D+02 -.198021969799283D+02
 0.000000000000000D+00 -.000000000000000D+00 0.000000000000000D+00 -.000000000000000D+00
 0.133281449374416D+03 0.000000000000000D+00 0.000000000000000D+00 0.133281449374416D+03
 0.135751745151366D+03 0.000000000000000D+00 0.000000000000000D+00 -.135751745151366D+03
 0.140359081619808D+03 0.507391741479389D+02 -.645883413309490D+01 0.382032912401820D+02
 0.866036159730699D+02 -.252515302676625D+02 0.753195156695958D+01 -.184010942602536D+02
 0.297362816430678D+02 -.190792232121227D+02 -.113182455507014D+02 -.198021969799283D+02
 0.123342152898365D+02 -.640842066815374D+01 0.102451281168367D+02 -.247029577695030D+01
-.615196893974D-04 0.000000000000D+00 0.000000000000D+00 0.156949488095D-05 0.000000000000D+00  6 2 21 25 24 1 21 4 0.33799871D-02 0.12404099D+00 0.16123177D+05 0.16123177D+05 0.16123177D+05 0.12442633D+01  1  2 13  2  6  2       21 -.229914996755D+00 0.100000000000D+01
-.787310403673D-07 0.000000000000D+00 0.000000000000D+00 0.158197020169D-05 0.000000000000D+00  6 2 21 25 24 1 21 4 0.33799871D-02 0.11510204D+00 0.14589523D+05 0.14589523D+05 0.14589523D+05 0.12491986D+01  1  2  8  2  6  2       21 -.358814459450D-03 0.100000000000D+01
0.775546222496D-05 0.000000000000D+00 0.000000000000D+00 0.158197020169D-05 0.105431059873D-06  6 2 21 25 24 1 21 4 0.35137622D-02 0.12187540D+00 0.16123177D+05 0.16123177D+05 0.16123177D+05 0.12442633D+01  1  2  1  2  6  2       21 0.287404402433D-01 0.100000000000D+01
  </mgrwgt>
  </event>
  <event>
  5     66 0.45638357E-03 0.49678986E+02 0.75467711E-02 0.11996709E+00
        2 -1    0    0  502    0 0.00000000E+00 0.00000000E+00 0.60671827E+03 0.60671835E+03 0.32000000E+00 0.0000E+00 0.9000E+01
       21 -1    0    0  501  502 0.00000000E+00 0.00000000E+00 -.42013683E+02 0.42020377E+02 0.75000000E+00 0.0000E+00 0.9000E+01
       25  1    1    2    0    0 0.40087899E+01 -.63113463E+02 0.35275814E+03 0.37955591E+03 0.12500000E+03 0.0000E+00 0.9000E+01
       24  1    1    2    0    0 0.45650123E+02 0.64494635E+02 0.11986546E+03 0.16455527E+03 0.80419002E+02 0.0000E+00 0.9000E+01
        1  1    1    2  501    0 -.49658913E+02 -.13811727E+01 0.92080986E+02 0.10462756E+03 0.32000000E+00 0.0000E+00 0.9000E+01
#aMCatNLO 1  0  0  5  2 0.27275452D+01 0.00000000D+00  -5  6  0 0.00000000D+00 0.00000000D+00 0.00000000D+00 0.00000000D+00 0.00000000D+00
  <mgrwgt>
 0.9626200170D-01    5    2    0
 0.159664234240935D+03 0.000000000000000D+00 0.000000000000000D+00 0.159664234240935D+03
 0.159664234240935D+03 -.000000000000000D+00 -.000000000000000D+00 -.159664234240935D+03
 0.147273047987433D+03 0.400926422607502D+01 -.631134493684369D+02 0.454419296761486D+02
 0.122334384596099D+03 0.456505174568982D+02 0.644946461841744D+02 -.474863829916678D+02
 0.497210358983368D+02 -.496597816829732D+02 -.138119681573759D+01 0.204445331551915D+01
 0.000000000000000D+00 0.000000000000000D+00 0.000000000000000D+00 0.000000000000000D+00
 0.159664234240935D+03 0.000000000000000D+00 0.000000000000000D+00 0.159664234240935D+03
 0.159664234240935D+03 -.000000000000000D+00 -.000000000000000D+00 -.159664234240935D+03
 0.147291715245865D+03 0.125412275238187D+01 -.631900786346440D+02 0.455553566371566D+02
 0.121431673621964D+03 0.433705095920628D+02 0.644312318980853D+02 -.473925168996171D+02
 0.470456838333970D+02 -.470233278890451D+02 -.121450617513118D+01 -.792449583174385D+00
 0.355939578064327D+01 0.239869554460038D+01 -.266470883101853D-01 0.262960984563490D+01
0.467842772917D-05 0.000000000000D+00 0.000000000000D+00 0.247898192506D-06 0.000000000000D+00  6 2 21 25 24 1 21 2 0.93341793D-01 0.64641650D-02 0.22877769D+05 0.22877769D+05 0.22877769D+05 0.12274498D+01  1  2  2  3  6  5        1 0.763326412383D-01 0.100000000000D+01
-.187952820917D-06 0.246887414117D-06 -.944439767041D-08 0.247898192506D-06 0.000000000000D+00  6 2 21 25 24 1 21 4 0.93341793D-01 0.64641650D-02 0.22877769D+05 0.22877769D+05 0.22877769D+05 0.12274498D+01  1  2  3  3  6  5        1 -.462026314893D-02 0.100000000000D+01
0.507733806143D-06 0.000000000000D+00 0.000000000000D+00 0.247898192506D-06 0.000000000000D+00  6 2 21 25 24 1 21 4 0.93341793D-01 0.64641650D-02 0.22877769D+05 0.22877769D+05 0.22877769D+05 0.12274498D+01  1  2 15  3  6  5        1 0.124811310761D-01 0.100000000000D+01
-.185402438381D-04 0.000000000000D+00 0.000000000000D+00 0.247898192506D-06 0.000000000000D+00  6 2 21 25 24 1 21 4 0.93341793D-01 0.64641650D-02 0.22877769D+05 0.22877769D+05 0.22877769D+05 0.12274498D+01  1  2  4  3  6  5        1 -.455756955172D+00 0.100000000000D+01
0.190096433687D-04 0.000000000000D+00 0.000000000000D+00 0.247898192506D-06 0.431193613442D-06  6 2 21 25 24 1 21 4 0.93341793D-01 0.64641650D-02 0.22696824D+05 0.22696824D+05 0.22696824D+05 0.12278236D+01  1  2 11  3  6  5        1 0.467825447703D+00 0.100000000000D+01
  </mgrwgt>
  </event>
  <event>
  5     66 -.45638357E-03 0.52103443E+02 0.75467711E-02 0.11702309E+00
        2 -1    0    0  502    0 0.00000000E+00 0.00000000E+00 0.14307953E+03 0.14307989E+03 0.32000000E+00 0.0000E+00 0.9000E+01
       21 -1    0    0  501  502 0.00000000E+00 0.00000000E+00 -.72123958E+03 0.72123997E+03 0.75000000E+00 0.0000E+00 0.9000E+01
       25  1    1    2    0    0 0.34422050E+01 0.28372102E+02 -.36574857E+03 0.38757430E+03 0.12500000E+03 0.0000E+00 0.9000E+01
       24  1    1    2    0    0 0.35194573E+02 0.65845328E+01 -.33350008E+03 0.34492251E+03 0.80419002E+02 0.0000E+00 0.9000E+01
        1  1    1    2  501    0 -.38636778E+02 -.34956635E+02 0.12108860E+03 0.13182305E+03 0.32000000E+00 0.0000E+00 0.9000E+01
#aMCatNLO 1  0  0  2  1 0.10540389D+03 0.00000000D+00  -5  6  0 0.00000000D+00 0.00000000D+00 0.00000000D+00 0.00000000D+00 0.00000000D+00
  <mgrwgt>
 -.2290246847D-01   12    2    0
 0.321239697777670D+03 0.000000000000000D+00 0.000000000000000D+00 0.321239697777670D+03
 0.321239697777670D+03 0.000000000000000D+00 0.000000000000000D+00 -.321239697777670D+03
 0.192266058691713D+03 0.344221223399031D+01 0.283721084519392D+02 -.143263435536681D+03
 0.163907157816590D+03 0.351945790345279D+02 0.658453832735842D+01 -.138261801994405D+03
 0.286306179047037D+03 -.386367912685182D+02 -.349566467792977D+02 0.281525237531086D+03
 0.000000000000000D+00 -.000000000000000D+00 -.000000000000000D+00 -.000000000000000D+00
 0.328017908825859D+03 0.000000000000000D+00 0.000000000000000D+00 0.328017908825859D+03
 0.144376621783919D+04 0.000000000000000D+00 0.000000000000000D+00 -.144376621783919D+04
 0.197666570262232D+03 0.308997498115144D+02 0.443606413281760D+02 -.143263435536681D+03
 0.171631540598598D+03 0.588219077994072D+02 0.203427393921238D+02 -.138261801994405D+03
 0.281770052982537D+03 0.136492525798617D+01 -.116636345059229D+02 0.281525237531086D+03
 0.112071596282168D+04 -.910865828689078D+02 -.530397462143769D+02 -.111574830901333D+04
0.128158742184D-04 0.000000000000D+00 0.000000000000D+00 0.211467510052D-06 0.000000000000D+00  6 2 21 25 24 1 21 2 0.22012293D-01 0.11095999D+00 0.18004117D+05 0.18004117D+05 0.18004117D+05 0.12388845D+01  1  2  2  2  6  2       21 0.394282617952D-02 0.100000000000D+01
-.694142336937D-06 0.676312263137D-06 -.258715576300D-07 0.211467510052D-06 0.000000000000D+00  6 2 21 25 24 1 21 4 0.22012293D-01 0.11095999D+00 0.18004117D+05 0.18004117D+05 0.18004117D+05 0.12388845D+01  1  2  3  2  6  2       21 -.327770278417D-03 0.100000000000D+01
0.134131890878D-05 0.000000000000D+00 0.000000000000D+00 0.211467510052D-06 0.000000000000D+00  6 2 21 25 24 1 21 4 0.22012293D-01 0.11095999D+00 0.18004117D+05 0.18004117D+05 0.18004117D+05 0.12388845D+01  1  2 15  2  6  2       21 0.633363575140D-03 0.100000000000D+01
-.286306128195D-02 0.000000000000D+00 -.603600258800D-04 0.211467510052D-06 0.000000000000D+00  6 2 21 25 24 1 21 4 0.22012293D-01 0.49973782D+00 0.18004117D+05 0.18004117D+05 0.18004117D+05 0.12388845D+01  1  2  5  2  6  2       21 -.442244259207D-02 0.100000000000D+01
-.115842773773D-02 0.000000000000D+00 -.244762413480D-04 0.211467510052D-06 0.000000000000D+00  6 2 -1 25 24 1 -1 4 0.22012293D-01 0.49973782D+00 0.18004117D+05 0.18004117D+05 0.18004117D+05 0.12388845D+01  1  2  5  5  6  2       21 -.157914486212D-03 0.100000000000D+01
-.115842773773D-02 0.000000000000D+00 -.244762413480D-04 0.211467510052D-06 0.000000000000D+00  6 2 1 25 24 1 1 4 0.22012293D-01 0.49973782D+00 0.18004117D+05 0.18004117D+05 0.18004117D+05 0.12388845D+01  1  2  5  6  6  2       21 -.491866988358D-02 0.100000000000D+01
-.115842773773D-02 0.000000000000D+00 -.244762413480D-04 0.211467510052D-06 0.000000000000D+00  6 2 -2 25 24 1 -2 4 0.22012293D-01 0.49973782D+00 0.18004117D+05 0.18004117D+05 0.18004117D+05 0.12388845D+01  1  2  5  7  6  2       21 -.150993579554D-03 0.100000000000D+01
-.115842773773D-02 0.000000000000D+00 -.244762413480D-04 0.211467510052D-06 0.000000000000D+00  6 2 2 25 24 1 2 4 0.22012293D-01 0.49973782D+00 0.18004117D+05 0.18004117D+05 0.18004117D+05 0.12388845D+01  1  2  5  8  6  2       21 -.170136082865D-01 0.100000000000D+01
-.115842773773D-02 0.000000000000D+00 -.244762413480D-04 0.211467510052D-06 0.000000000000D+00  6 2 -3 25 24 1 -3 4 0.22012293D-01 0.49973782D+00 0.18004117D+05 0.18004117D+05 0.18004117D+05 0.12388845D+01  1  2  5  9  6  2       21 -.171323791141D-03 0.100000000000D+01
-.115842773773D-02 0.000000000000D+00 -.244762413480D-04 0.211467510052D-06 0.000000000000D+00  6 2 -4 25 24 1 -4 4 0.22012293D-01 0.49973782D+00 0.18004117D+05 0.18004117D+05 0.18004117D+05 0.12388845D+01  1  2  5  9  6  2       21 -.625538495403D-04 0.100000000000D+01
-.115842773773D-02 0.000000000000D+00 -.244762413480D-04 0.211467510052D-06 0.000000000000D+00  6 2 3 25 24 1 3 4 0.22012293D-01 0.49973782D+00 0.18004117D+05 0.18004117D+05 0.18004117D+05 0.12388845D+01  1  2  5 10  6  2       21 -.190827627067D-03 0.100000000000D+01
-.115842773773D-02 0.000000000000D+00 -.244762413480D-04 0.211467510052D-06 0.000000000000D+00  6 2 4 25 24 1 4 4 0.22012293D-01 0.49973782D+00 0.18004117D+05 0.18004117D+05 0.18004117D+05 0.12388845D+01  1  2  5 10  6  2       21 -.625538495403D-04 0.100000000000D+01
  </mgrwgt>
  </event>
  <event>
  6     66 0.45638357E-03 0.53395908E+02 0.75467711E-02 0.11086817E+00
        2 -1    0    0  502    0 0.00000000E+00 0.00000000E+00 0.38802140E+03 0.38802153E+03 0.32000000E+00 0.0000E+00 0.9000E+01
       21 -1    0    0  501  502 0.00000000E+00 0.00000000E+00 -.34798282E+03 0.34798363E+03 0.75000000E+00 0.0000E+00 0.9000E+01
       25  1    1    2    0    0 -.69748100E+02 -.19047557E+03 -.60657459E+01 0.23834331E+03 0.12500000E+03 0.0000E+00 0.9000E+01
       24  1    1    2    0    0 0.10127972E+03 0.14748843E+03 0.22493113E+03 0.29844874E+03 0.80419002E+02 0.0000E+00 0.9000E+01
        1  1    1    2  503    0 -.95095552E+01 -.15348102E+02 -.82577395E+02 0.84528838E+02 0.32000000E+00 0.0000E+00 0.9000E+01
       21  1    1    2  501  503 -.22022064E+02 0.58335239E+02 -.96249410E+02 0.11468428E+03 0.75000000E+00 0.0000E+00 0.9000E+01
#aMCatNLO 2  0  0  5  1 0.34385058D+02 0.00000000D+00  -5  6  0 0.00000000D+00 0.00000000D+00 0.00000000D+00 0.00000000D+00 0.00000000D+00
  <mgrwgt>
 0.6460767095D-01    1    2    0
 0.367457651722603D+03 0.000000000000000D+00 0.000000000000000D+00 0.367457651722603D+03
 0.367457651722603D+03 -.000000000000000D+00 -.000000000000000D+00 -.367457651722603D+03
 0.239256526354373D+03 -.691206514432194D+02 -.191330969511180D+03 -.152800868170819D+02
 0.289717359724551D+03 0.102035824196484D+03 0.146457630642508D+03 0.213559793918522D+03
 0.205941417366281D+03 -.329151727532642D+02 0.448733388686718D+02 -.198279707101440D+03
 0.000000000000000D+00 0.000000000000000D+00 0.000000000000000D+00 0.000000000000000D+00
 0.367457651722603D+03 0.000000000000000D+00 0.000000000000000D+00 0.367457651722603D+03
 0.367457651722603D+03 -.000000000000000D+00 -.000000000000000D+00 -.367457651722603D+03
 0.239027604557701D+03 -.697469014541672D+02 -.190477201275831D+03 -.190525922714450D+02
 0.286642768989273D+03 0.101281156597062D+03 0.147486470903378D+03 0.209013705957995D+03
 0.887136822788102D+02 -.944259384080591D+01 -.153960649371472D+02 -.868557196128983D+02
 0.120531247619422D+03 -.220916613020888D+02 0.583867953095997D+02 -.103105394073652D+03
0.100130330429D-03 0.000000000000D+00 0.000000000000D+00 0.506535925281D-06 0.399639972598D-08  6 2 21 25 24 1 21 4 0.59695672D-01 0.53535891D-01 0.66283329D+05 0.66283329D+05 0.66283329D+05 0.11803434D+01  1  2  1  3  6  5        1 0.646076709520D-01 0.100000000000D+01
  </mgrwgt>
  </event>
  <event>
  5     66 -.45638357E-03 0.35609687E+02 0.75467711E-02 0.11035462E+00
        2 -1    0    0  502    0 0.00000000E+00 0.00000000E+00 0.19500837E+03 0.19500864E+03 0.32000000E+00 0.0000E+00 0.9000E+01
       21 -1    0    0  501  502 0.00000000E+00 0.00000000E+00 -.34869632E+03 0.34869712E+03 0.75000000E+00 0.0000E+00 0.9000E+01
       25  1    1    2    0    0 0.16950907E+03 0.11269427E+03 -.33210532E+02 0.24116646E+03 0.12500000E+03 0.0000E+00 0.9000E+01
       24  1    1    2    0    0 -.13394873E+03 -.11456408E+03 -.18613462E+02 0.19463008E+03 0.80419002E+02 0.0000E+00 0.9000E+01
        1  1    1    2  501    0 -.35560337E+02 0.18698094E+01 -.10186395E+03 0.10790922E+03 0.32000000E+00 0.0000E+00 0.9000E+01
#aMCatNLO 1  0  0  1  2 0.65066951D+02 0.00000000D+00  -5  6  0 0.00000000D+00 0.00000000D+00 0.00000000D+00 0.00000000D+00 0.00000000D+00
  <mgrwgt>
 -.3209633110D+00    7    2    0
 0.260766164173664D+03 0.000000000000000D+00 0.000000000000000D+00 0.260766164173664D+03
 0.260766164173664D+03 0.000000000000000D+00 0.000000000000000D+00 -.260766164173664D+03
 0.241633342216535D+03 0.169509191523915D+03 0.112694263156391D+03 0.364459752411663D+02
 0.197419817741402D+03 -.133948629603265D+03 -.114564084431945D+03 0.379500153933475D+02
 0.824791683893912D+02 -.355605619206500D+02 0.186982127555405D+01 -.743959906345138D+02
 0.000000000000000D+00 -.000000000000000D+00 -.000000000000000D+00 0.000000000000000D+00
 0.379847473489964D+03 0.000000000000000D+00 0.000000000000000D+00 0.379847473489964D+03
 0.271829556005148D+03 0.000000000000000D+00 0.000000000000000D+00 -.271829556005148D+03
 0.268730287185742D+03 0.197778826760025D+03 0.127067674194029D+03 0.364459752411663D+02
 0.177575707434310D+03 -.113177191159844D+03 -.104003055961053D+03 0.379500153933475D+02
 0.792695733234090D+02 -.266011109239640D+02 0.642516381080012D+01 -.743959906345138D+02
 0.126101461551650D+03 -.580005246762168D+02 -.294897820437758D+02 0.108017917484816D+03
0.105429416190D-03 0.000000000000D+00 0.000000000000D+00 0.602416113392D-06 0.000000000000D+00  6 2 21 25 24 1 21 2 0.30001371D-01 0.53645669D-01 0.54806679D+05 0.54806679D+05 0.54806679D+05 0.11883539D+01  1  2  2  1  6  1        2 0.104631826263D+00 0.100000000000D+01
0.142117365474D-04 0.556366314539D-05 -.212831615727D-06 0.602416113392D-06 0.000000000000D+00  6 2 21 25 24 1 21 4 0.30001371D-01 0.53645669D-01 0.54806679D+05 0.54806679D+05 0.54806679D+05 0.11883539D+01  1  2  3  1  6  1        2 0.199177716106D-01 0.100000000000D+01
0.103262913325D-04 0.000000000000D+00 0.000000000000D+00 0.602416113392D-06 0.000000000000D+00  6 2 21 25 24 1 21 4 0.30001371D-01 0.53645669D-01 0.54806679D+05 0.54806679D+05 0.54806679D+05 0.11883539D+01  1  2 15  1  6  1        2 0.144723138976D-01 0.100000000000D+01
-.538731611964D-03 0.000000000000D+00 0.000000000000D+00 0.602416113392D-06 0.000000000000D+00  6 2 21 25 24 1 21 4 0.30001371D-01 0.53645669D-01 0.54806679D+05 0.54806679D+05 0.54806679D+05 0.11883539D+01  1  2  4  1  6  1        2 -.755033219952D+00 0.100000000000D+01
-.798906353429D-03 0.000000000000D+00 -.134614481983D-03 0.602416113392D-06 0.000000000000D+00  6 2 21 25 24 1 21 4 0.45033109D-01 0.53645669D-01 0.54806679D+05 0.54806679D+05 0.54806679D+05 0.11883539D+01  1  2  5  1  6  1        2 -.720173291061D+00 0.100000000000D+01
0.797297790481D-03 0.000000000000D+00 0.124226534417D-03 0.602416113392D-06 0.000000000000D+00  6 2 21 25 24 1 21 4 0.30001371D-01 0.53645669D-01 0.54806679D+05 0.54806679D+05 0.54806679D+05 0.11883539D+01  1  2  6  1  6  1        2 0.111741413468D+01 0.100000000000D+01
-.337667083316D-04 0.000000000000D+00 -.647995408973D-05 0.602416113392D-06 0.000000000000D+00  6 21 21 25 24 1 -2 4 0.45033109D-01 0.53645669D-01 0.54806679D+05 0.54806679D+05 0.54806679D+05 0.11883539D+01  1  2  5  4  6  1        2 -.102192846421D+00 0.100000000000D+01
  </mgrwgt>
  </event>
  <event>
  5     66 0.45638357E-03 0.26091627E+02 0.75467711E-02 0.12080945E+00
        2 -1    0    0  502    0 0.00000000E+00 0.00000000E+00 0.93585734E+03 0.93585739E+03 0.32000000E+00 0.0000E+00 0.9000E+01
       21 -1    0    0  501  502 0.00000000E+00 0.00000000E+00 -.23513063E+02 0.23525022E+02 0.75000000E+00 0.0000E+00 0.9000E+01
       25  1    1    2    0    0 0.23877572E+02 -.41898287E+02 0.72957040E+03 0.74177056E+03 0.12500000E+03 0.0000E+00 0.9000E+01
       24  1    1    2    0    0 -.54391577E+01 0.23440099E+02 0.98627242E+02 0.12951282E+03 0.80419002E+02 0.0000E+00 0.9000E+01
        1  1    1    2  501    0 -.18438414E+02 0.18458188E+02 0.84146638E+02 0.88099028E+02 0.32000000E+00 0.0000E+00 0.9000E+01
#aMCatNLO 1  0  0  2  2 0.40410798D+02 0.00000000D+00  -5  6  0 0.00000000D+00 0.00000000D+00 0.00000000D+00 0.00000000D+00 0.00000000D+00
  <mgrwgt>
 0.2694914577D+00   14    2    0
 0.148359816660894D+03 0.000000000000000D+00 0.000000000000000D+00 0.148359816660894D+03
 0.148359816660894D+03 0.000000000000000D+00 0.000000000000000D+00 -.148359816660894D+03
 0.155103802436594D+03 0.238782954404630D+02 -.418990109603420D+02 0.781440299555454D+02
 0.115497220802377D+03 -.543861902558301D+01 0.234395598871929D+02 -.793309555853934D+02
 0.261186100828174D+02 -.184396764148800D+02 0.184594510731490D+02 0.118692562984796D+01
 0.000000000000000D+00 -.000000000000000D+00 0.000000000000000D+00 -.000000000000000D+00
 0.160746536343805D+03 0.000000000000000D+00 0.000000000000000D+00 0.160746536343805D+03
 0.186786050409378D+03 0.000000000000000D+00 0.000000000000000D+00 -.186786050409378D+03
 0.160754587041352D+03 0.449438687625276D+02 -.457230412133661D+02 0.781440299555454D+02
 0.115264473171269D+03 0.995159236744084D+01 0.206457772035896D+02 -.793309555853934D+02
 0.234397406235536D+02 -.151344766630192D+02 0.178594586755927D+02 0.118692562984796D+01
 0.480737859170083D+02 -.397609844669492D+02 0.721780533418382D+01 -.260395140655734D+02
0.356107697122D-05 0.000000000000D+00 0.000000000000D+00 0.378859840937D-06 0.000000000000D+00  6 2 21 25 24 1 21 2 0.14397898D+00 0.36183184D-02 0.14885652D+05 0.14885652D+05 0.14885652D+05 0.12482016D+01  1  2  2  2  6  2       21 0.932228459103D-01 0.100000000000D+01
0.385779812841D-07 0.187923194669D-06 -.718878841313D-08 0.378859840937D-06 0.000000000000D+00  6 2 21 25 24 1 21 4 0.14397898D+00 0.36183184D-02 0.14885652D+05 0.14885652D+05 0.14885652D+05 0.12482016D+01  1  2  3  2  6  2       21 0.157343914791D-02 0.100000000000D+01
0.355342111064D-06 0.000000000000D+00 0.000000000000D+00 0.378859840937D-06 0.000000000000D+00  6 2 21 25 24 1 21 4 0.14397898D+00 0.36183184D-02 0.14885652D+05 0.14885652D+05 0.14885652D+05 0.12482016D+01  1  2 15  2  6  2       21 0.144929612655D-01 0.100000000000D+01
-.578622353371D-06 0.000000000000D+00 0.000000000000D+00 0.378859840937D-06 0.000000000000D+00  6 2 21 25 24 1 21 4 0.14397898D+00 0.36183184D-02 0.14885652D+05 0.14885652D+05 0.14885652D+05 0.12482016D+01  1  2  4  2  6  2       21 -.235996553564D-01 0.100000000000D+01
-.150413085055D-04 0.000000000000D+00 -.474077824760D-05 0.378859840937D-06 0.000000000000D+00  6 2 21 25 24 1 21 4 0.14397898D+00 0.49424951D-02 0.14885652D+05 0.14885652D+05 0.14885652D+05 0.12482016D+01  1  2  5  2  6  2       21 -.365167357569D+00 0.100000000000D+01
0.137507987795D-04 0.000000000000D+00 0.393194082673D-05 0.378859840937D-06 0.000000000000D+00  6 2 21 25 24 1 21 4 0.14397898D+00 0.36183184D-02 0.14885652D+05 0.14885652D+05 0.14885652D+05 0.12482016D+01  1  2  6  2  6  2       21 0.560839224725D+00 0.100000000000D+01
-.123056795858D-05 0.000000000000D+00 -.468142909371D-06 0.378859840937D-06 0.000000000000D+00  6 2 -1 25 24 1 -1 4 0.14397898D+00 0.49424951D-02 0.14885652D+05 0.14885652D+05 0.14885652D+05 0.12482016D+01  1  2  5  5  6  2       21 -.169849339277D-02 0.100000000000D+01
-.123056795858D-05 0.000000000000D+00 -.468142909371D-06 0.378859840937D-06 0.000000000000D+00  6 2 1 25 24 1 1 4 0.14397898D+00 0.49424951D-02 0.14885652D+05 0.14885652D+05 0.14885652D+05 0.12482016D+01  1  2  5  6  6  2       21 -.191278337903D-02 0.100000000000D+01
-.123056795858D-05 0.000000000000D+00 -.468142909371D-06 0.378859840937D-06 0.000000000000D+00  6 2 -2 25 24 1 -2 4 0.14397898D+00 0.49424951D-02 0.14885652D+05 0.14885652D+05 0.14885652D+05 0.12482016D+01  1  2  5  7  6  2       21 -.166064625878D-02 0.100000000000D+01
-.123056795858D-05 0.000000000000D+00 -.468142909371D-06 0.378859840937D-06 0.000000000000D+00  6 2 2 25 24 1 2 4 0.14397898D+00 0.49424951D-02 0.14885652D+05 0.14885652D+05 0.14885652D+05 0.12482016D+01  1  2  5  8  6  2       21 -.205660481160D-02 0.100000000000D+01
-.123056795858D-05 0.000000000000D+00 -.468142909371D-06 0.378859840937D-06 0.000000000000D+00  6 2 -3 25 24 1 -3 4 0.14397898D+00 0.49424951D-02 0.14885652D+05 0.14885652D+05 0.14885652D+05 0.12482016D+01  1  2  5  9  6  2       21 -.120224467953D-02 0.100000000000D+01
-.123056795858D-05 0.000000000000D+00 -.468142909371D-06 0.378859840937D-06 0.000000000000D+00  6 2 -4 25 24 1 -4 4 0.14397898D+00 0.49424951D-02 0.14885652D+05 0.14885652D+05 0.14885652D+05 0.12482016D+01  1  2  5  9  6  2       21 -.106855210143D-02 0.100000000000D+01
-.123056795858D-05 0.000000000000D+00 -.468142909371D-06 0.378859840937D-06 0.000000000000D+00  6 2 3 25 24 1 3 4 0.14397898D+00 0.49424951D-02 0.14885652D+05 0.14885652D+05 0.14885652D+05 0.12482016D+01  1  2  5 10  6  2       21 -.120212368307D-02 0.100000000000D+01
-.123056795858D-05 0.000000000000D+00 -.468142909371D-06 0.378859840937D-06 0.000000000000D+00  6 2 4 25 24 1 4 4 0.14397898D+00 0.49424951D-02 0.14885652D+05 0.14885652D+05 0.14885652D+05 0.12482016D+01  1  2  5 10  6  2       21 -.106855210143D-02 0.100000000000D+01
  </mgrwgt>
  </event>
  <event>
  5     66 0.45638357E-03 0.76565492E+02 0.75467711E-02 0.12031922E+00
        2 -1    0    0  502    0 0.00000000E+00 0.00000000E+00 0.26644217E+04 0.26644217E+04 0.32000000E+00 0.0000E+00 0.9000E+01
       21 -1    0    0  501  502 0.00000000E+00 0.00000000E+00 -.13702387E+02 0.13722897E+02 0.75000000E+00 0.0000E+00 0.9000E+01
       25  1    1    2    0    0 0.35239731E+02 -.22513884E+02 0.58863535E+03 0.60321248E+03 0.12500000E+03 0.0000E+00 0.9000E+01
       24  1    1    2    0    0 0.25179865E+02 -.24515106E+02 0.33991112E+03 0.35105812E+03 0.80419002E+02 0.0000E+00 0.9000E+01
        1  1    1    2  501    0 -.60419596E+02 0.47028990E+02 0.17221728E+04 0.17238740E+04 0.32000000E+00 0.0000E+00 0.9000E+01
#aMCatNLO 1  0  0  5  2 0.18334661D+02 0.00000000D+00  -5  6  0 0.00000000D+00 0.00000000D+00 0.00000000D+00 0.00000000D+00 0.00000000D+00
  <mgrwgt>
 0.5758442154D-01    7    2    0
 0.191145044032175D+03 0.000000000000000D+00 0.000000000000000D+00 0.191145044032175D+03
 0.191145044032175D+03 -.000000000000000D+00 -.000000000000000D+00 -.191145044032175D+03
 0.144348959936524D+03 0.352397947902702D+02 -.225139332716968D+02 -.588464264550830D+02
 0.102475739176112D+03 0.251799097988127D+02 -.245151409744014D+02 -.529059653616565D+02
 0.135465388951714D+03 -.604197045890828D+02 0.470290742460982D+02 0.111752391816739D+03
 0.000000000000000D+00 0.000000000000000D+00 0.000000000000000D+00 0.000000000000000D+00
 0.191145044032175D+03 0.000000000000000D+00 0.000000000000000D+00 0.191145044032175D+03
 0.191145044032175D+03 -.000000000000000D+00 -.000000000000000D+00 -.191145044032175D+03
 0.143333346560705D+03 0.343227477989789D+02 -.218001285397155D+02 -.571502547279597D+02
 0.101580108935727D+03 0.245294394802005D+02 -.240088323600686D+02 -.517028543169222D+02
 0.873294994072185D+02 -.533595660831201D+02 0.328586489099790D+02 0.608235757412145D+02
 0.500471331606995D+02 -.549262119605928D+01 0.129503119898051D+02 0.480295333036674D+02
0.262498402807D-05 0.000000000000D+00 0.000000000000D+00 0.243517584146D-06 0.000000000000D+00  6 2 21 25 24 1 21 2 0.40991261D+00 0.21096388D-02 0.21924323D+05 0.21924323D+05 0.21924323D+05 0.12294579D+01  1  2  2  3  6  5        1 0.193664563527D-01 0.100000000000D+01
-.347145456625D-06 0.138524212899D-06 -.529908646126D-08 0.243517584146D-06 0.000000000000D+00  6 2 21 25 24 1 21 4 0.40991261D+00 0.21096388D-02 0.21924323D+05 0.21924323D+05 0.21924323D+05 0.12294579D+01  1  2  3  3  6  5        1 -.387134854475D-02 0.100000000000D+01
0.272894471667D-06 0.000000000000D+00 0.000000000000D+00 0.243517584146D-06 0.000000000000D+00  6 2 21 25 24 1 21 4 0.40991261D+00 0.21096388D-02 0.21924323D+05 0.21924323D+05 0.21924323D+05 0.12294579D+01  1  2 15  3  6  5        1 0.304330532230D-02 0.100000000000D+01
0.664580513064D-05 0.000000000000D+00 0.000000000000D+00 0.243583518099D-06 0.000000000000D+00  6 2 21 25 24 1 21 4 0.40991261D+00 0.21096388D-02 0.21847316D+05 0.21847316D+05 0.21847316D+05 0.12296243D+01  1  2 12  3  6  5        1 0.741602304497D-01 0.100000000000D+01
-.583831540534D-05 0.000000000000D+00 0.000000000000D+00 0.243517584146D-06 0.000000000000D+00  6 2 21 25 24 1 21 4 0.40991261D+00 0.21096388D-02 0.21924323D+05 0.21924323D+05 0.21924323D+05 0.12294579D+01  1  2  4  3  6  5        1 -.651085976120D-01 0.100000000000D+01
-.624001142617D-05 0.000000000000D+00 0.000000000000D+00 0.243517584146D-06 0.000000000000D+00  6 2 21 25 24 1 21 4 0.40991261D+00 0.21096388D-02 0.21924323D+05 0.21924323D+05 0.21924323D+05 0.12294579D+01  1  2  5  3  6  5        1 -.695882912850D-01 0.100000000000D+01
0.892961973326D-05 0.000000000000D+00 -.000000000000D+00 0.243517584146D-06 0.000000000000D+00  6 2 21 25 24 1 21 4 0.40991261D+00 0.21096388D-02 0.21924323D+05 0.21924323D+05 0.21924323D+05 0.12294579D+01  1  2  6  3  6  5        1 0.995826668613D-01 0.100000000000D+01
  </mgrwgt>
  </event>
  <event>
  5     66 0.45638357E-03 0.55446946E+02 0.75467711E-02 0.11351410E+00
        2 -1    0    0  502    0 0.00000000E+00 0.00000000E+00 0.15027915E+04 0.15027916E+04 0.32000000E+00 0.0000E+00 0.9000E+01
       21 -1    0    0  501  502 0.00000000E+00 0.00000000E+00 -.30321562E+02 0.30330836E+02 0.75000000E+00 0.0000E+00 0.9000E+01
       25  1    1    2    0    0 -.16026748E+03 0.48132298E+02 0.74466894E+03 0.77340753E+03 0.12500000E+03 0.0000E+00 0.9000E+01
       24  1    1    2    0    0 0.11031263E+03 -.10855753E+02 0.62218415E+03 0.63707696E+03 0.80419002E+02 0.0000E+00 0.9000E+01
        1  1    1    2  501    0 0.49954848E+02 -.37276546E+02 0.10561687E+03 0.12263789E+03 0.32000000E+00 0.0000E+00 0.9000E+01
#aMCatNLO 1  0  0  2  1 0.28706815D+02 0.00000000D+00  -5  6  0 0.00000000D+00 0.00000000D+00 0.00000000D+00 0.00000000D+00 0.00000000D+00
  <mgrwgt>
 0.2223791841D+00   23    2    0
 0.213480961633210D+03 0.000000000000000D+00 0.000000000000000D+00 0.213480961633210D+03
 0.213480961633210D+03 0.000000000000000D+00 0.000000000000000D+00 -.213480961633210D+03
 0.208978475863560D+03 -.160267693505500D+03 0.481324596137534D+02 0.667353910709971D+01
 0.141861473835905D+03 0.110312482511092D+03 -.108556433176622D+02 0.370239519085181D+02
 0.761219735669559D+02 0.499552109944078D+02 -.372768162960912D+02 -.436974910156178D+02
 0.000000000000000D+00 0.000000000000000D+00 -.000000000000000D+00 -.000000000000000D+00
 0.225322721073423D+03 0.000000000000000D+00 0.000000000000000D+00 0.225322721073423D+03
 0.232098889415040D+03 0.000000000000000D+00 0.000000000000000D+00 -.232098889415040D+03
 0.219903141212330D+03 -.171549729979488D+03 0.570836713500510D+02 0.667353910709971D+01
 0.135917861102235D+03 0.103005299214547D+03 -.505809559353287D+01 0.370239519085181D+02
 0.721048851241311D+02 0.460559978791914D+02 -.341831654042755D+02 -.436974910156178D+02
 0.294957230497678D+02 0.224884328857495D+02 -.178424103522426D+02 -.677616834161668D+01
0.479686256669D-05 0.000000000000D+00 0.000000000000D+00 0.215021334796D-06 0.000000000000D+00  6 2 21 25 24 1 21 2 0.23119941D+00 0.46655717D-02 0.41646041D+05 0.41646041D+05 0.41646041D+05 0.12002258D+01  1  2  2  2  6  2       21 0.364757012516D-01 0.100000000000D+01
0.146498395094D-07 0.253137392201D-06 -.968348348478D-08 0.215021334796D-06 0.000000000000D+00  6 2 21 25 24 1 21 4 0.23119941D+00 0.46655717D-02 0.41646041D+05 0.41646041D+05 0.41646041D+05 0.12002258D+01  1  2  3  2  6  2       21 0.160474177839D-03 0.100000000000D+01
0.549189732487D-06 0.000000000000D+00 0.000000000000D+00 0.215021334796D-06 0.000000000000D+00  6 2 21 25 24 1 21 4 0.23119941D+00 0.46655717D-02 0.41646041D+05 0.41646041D+05 0.41646041D+05 0.12002258D+01  1  2 15  2  6  2       21 0.601581817613D-02 0.100000000000D+01
0.837103798576D-05 0.000000000000D+00 0.000000000000D+00 0.212919431682D-06 0.000000000000D+00  6 2 21 25 24 1 21 4 0.23119941D+00 0.51925747D-02 0.47664083D+05 0.47664083D+05 0.47664083D+05 0.11943451D+01  1  2 12  2  6  2       21 0.747770376539D-01 0.100000000000D+01
-.252267199123D-06 0.000000000000D+00 0.000000000000D+00 0.215021334796D-06 0.000000000000D+00  6 2 21 25 24 1 21 4 0.23119941D+00 0.46655717D-02 0.41646041D+05 0.41646041D+05 0.41646041D+05 0.12002258D+01  1  2  4  2  6  2       21 -.276333207260D-02 0.100000000000D+01
-.486170393990D-04 0.000000000000D+00 -.111221961200D-04 0.215021334796D-06 0.000000000000D+00  6 2 21 25 24 1 21 4 0.23119941D+00 0.53792616D-02 0.41646041D+05 0.41646041D+05 0.41646041D+05 0.12002258D+01  1  2  5  2  6  2       21 -.418223931770D+00 0.100000000000D+01
0.484138489275D-04 0.000000000000D+00 0.106841241884D-04 0.215021334796D-06 0.000000000000D+00  6 2 21 25 24 1 21 4 0.23119941D+00 0.46655717D-02 0.41646041D+05 0.41646041D+05 0.41646041D+05 0.12002258D+01  1  2  6  2  6  2       21 0.530324758687D+00 0.100000000000D+01
0.230941845736D-06 0.000000000000D+00 0.000000000000D+00 0.212919431682D-06 0.000000000000D+00  6 2 -1 25 24 1 -1 4 0.23119941D+00 0.51925747D-02 0.47664083D+05 0.47664083D+05 0.47664083D+05 0.11943451D+01  1  2 12  5  6  2       21 0.120863059073D-03 0.100000000000D+01
-.146690714957D-05 0.000000000000D+00 -.426115293094D-06 0.215021334796D-06 0.000000000000D+00  6 2 -1 25 24 1 -1 4 0.23119941D+00 0.53792616D-02 0.41646041D+05 0.41646041D+05 0.41646041D+05 0.12002258D+01  1  2  5  5  6  2       21 -.742574875020D-03 0.100000000000D+01
0.230941845736D-06 0.000000000000D+00 0.000000000000D+00 0.212919431682D-06 0.000000000000D+00  6 2 1 25 24 1 1 4 0.23119941D+00 0.51925747D-02 0.47664083D+05 0.47664083D+05 0.47664083D+05 0.11943451D+01  1  2 12  6  6  2       21 0.136640882599D-03 0.100000000000D+01
-.146690714957D-05 0.000000000000D+00 -.426115293094D-06 0.215021334796D-06 0.000000000000D+00  6 2 1 25 24 1 1 4 0.23119941D+00 0.53792616D-02 0.41646041D+05 0.41646041D+05 0.41646041D+05 0.12002258D+01  1  2  5  6  6  2       21 -.843169444413D-03 0.100000000000D+01
0.230941845736D-06 0.000000000000D+00 0.000000000000D+00 0.212919431682D-06 0.000000000000D+00  6 2 -2 25 24 1 -2 4 0.23119941D+00 0.51925747D-02 0.47664083D+05 0.47664083D+05 0.47664083D+05 0.11943451D+01  1  2 12  7  6  2       21 0.118090500860D-03 0.100000000000D+01
-.146690714957D-05 0.000000000000D+00 -.426115293094D-06 0.215021334796D-06 0.000000000000D+00  6 2 -2 25 24 1 -2 4 0.23119941D+00 0.53792616D-02 0.41646041D+05 0.41646041D+05 0.41646041D+05 0.12002258D+01  1  2  5  7  6  2       21 -.724910237749D-03 0.100000000000D+01
0.230941845736D-06 0.000000000000D+00 0.000000000000D+00 0.212919431682D-06 0.000000000000D+00  6 2 2 25 24 1 2 4 0.23119941D+00 0.51925747D-02 0.47664083D+05 0.47664083D+05 0.47664083D+05 0.11943451D+01  1  2 12  8  6  2       21 0.147278048800D-03 0.100000000000D+01
-.146690714957D-05 0.000000000000D+00 -.426115293094D-06 0.215021334796D-06 0.000000000000D+00  6 2 2 25 24 1 2 4 0.23119941D+00 0.53792616D-02 0.41646041D+05 0.41646041D+05 0.41646041D+05 0.12002258D+01  1  2  5  8  6  2       21 -.910931626511D-03 0.100000000000D+01
0.230941845736D-06 0.000000000000D+00 0.000000000000D+00 0.212919431682D-06 0.000000000000D+00  6 2 -3 25 24 1 -3 4 0.23119941D+00 0.51925747D-02 0.47664083D+05 0.47664083D+05 0.47664083D+05 0.11943451D+01  1  2 12  9  6  2       21 0.872547966889D-04 0.100000000000D+01
0.230941845736D-06 0.000000000000D+00 0.000000000000D+00 0.212919431682D-06 0.000000000000D+00  6 2 -4 25 24 1 -4 4 0.23119941D+00 0.51925747D-02 0.47664083D+05 0.47664083D+05 0.47664083D+05 0.11943451D+01  1  2 12  9  6  2       21 0.783091674018D-04 0.100000000000D+01
-.146690714957D-05 0.000000000000D+00 -.426115293094D-06 0.215021334796D-06 0.000000000000D+00  6 2 -3 25 24 1 -3 4 0.23119941D+00 0.53792616D-02 0.41646041D+05 0.41646041D+05 0.41646041D+05 0.12002258D+01  1  2  5  9  6  2       21 -.532748706397D-03 0.100000000000D+01
-.146690714957D-05 0.000000000000D+00 -.426115293094D-06 0.215021334796D-06 0.000000000000D+00  6 2 -4 25 24 1 -4 4 0.23119941D+00 0.53792616D-02 0.41646041D+05 0.41646041D+05 0.41646041D+05 0.12002258D+01  1  2  5  9  6  2       21 -.477150976323D-03 0.100000000000D+01
0.230941845736D-06 0.000000000000D+00 0.000000000000D+00 0.212919431682D-06 0.000000000000D+00  6 2 3 25 24 1 3 4 0.23119941D+00 0.51925747D-02 0.47664083D+05 0.47664083D+05 0.47664083D+05 0.11943451D+01  1  2 12 10  6  2       21 0.872466129008D-04 0.100000000000D+01
0.230941845736D-06 0.000000000000D+00 0.000000000000D+00 0.212919431682D-06 0.000000000000D+00  6 2 4 25 24 1 4 4 0.23119941D+00 0.51925747D-02 0.47664083D+05 0.47664083D+05 0.47664083D+05 0.11943451D+01  1  2 12 10  6  2       21 0.783091674018D-04 0.100000000000D+01
-.146690714957D-05 0.000000000000D+00 -.426115293094D-06 0.215021334796D-06 0.000000000000D+00  6 2 3 25 24 1 3 4 0.23119941D+00 0.53792616D-02 0.41646041D+05 0.41646041D+05 0.41646041D+05 0.12002258D+01  1  2  5 10  6  2       21 -.532697355499D-03 0.100000000000D+01
-.146690714957D-05 0.000000000000D+00 -.426115293094D-06 0.215021334796D-06 0.000000000000D+00  6 2 4 25 24 1 4 4 0.23119941D+00 0.53792616D-02 0.41646041D+05 0.41646041D+05 0.41646041D+05 0.12002258D+01  1  2  5 10  6  2       21 -.477150976323D-03 0.100000000000D+01
  </mgrwgt>
  </event>
  <event>
  6     66 0.45638357E-03 0.20106935E+02 0.75467711E-02 0.12429021E+00
        2 -1    0    0  502    0 0.00000000E+00 0.00000000E+00 0.87815955E+03 0.87815961E+03 0.32000000E+00 0.0000E+00 0.9000E+01
       21 -1    0    0  501  503 0.00000000E+00 0.00000000E+00 -.13820589E+03 0.13820792E+03 0.75000000E+00 0.0000E+00 0.9000E+01
       25  1    1    2    0    0 0.15569586E+02 -.23700286E+02 0.27120718E+03 0.29997075E+03 0.12500000E+03 0.0000E+00 0.9000E+01
       24  1    1    2    0    0 -.77057797E+01 0.47787602E+01 0.58116930E+03 0.58677695E+03 0.80419002E+02 0.0000E+00 0.9000E+01
        1  1    1    2  501    0 0.73219047E+01 0.61927520E+00 0.55862472E+01 0.92359270E+01 0.32000000E+00 0.0000E+00 0.9000E+01
       21  1    1    2  502  503 -.15185711E+02 0.18302250E+02 -.11800907E+03 0.12038389E+03 0.75000000E+00 0.0000E+00 0.9000E+01
#aMCatNLO 2  0  0  2  5 0.23207802D+03 0.00000000D+00  -5  6  0 0.00000000D+00 0.00000000D+00 0.00000000D+00 0.00000000D+00 0.00000000D+00
  <mgrwgt>
 0.1526469884D+01    1    2    0
 0.128570053204565D+03 0.000000000000000D+00 0.000000000000000D+00 0.128570053204565D+03
 0.128570053204565D+03 0.000000000000000D+00 0.000000000000000D+00 -.128570053204565D+03
 0.137718028984580D+03 0.739349649435915D+01 -.138477278051720D+02 -.556312156223405D+02
 0.106267606259659D+03 -.139322806032232D+02 0.122819609274573D+02 0.669375319141432D+02
 0.131544711648917D+02 0.653878410886408D+01 0.156576687771469D+01 -.113063162918028D+02
 0.000000000000000D+00 -.000000000000000D+00 0.000000000000000D+00 -.000000000000000D+00
 0.129293407632983D+03 0.000000000000000D+00 0.000000000000000D+00 0.129293407632983D+03
 0.938698717987999D+03 0.000000000000000D+00 0.000000000000000D+00 -.938698717987999D+03
 0.139728032769282D+03 0.155685034085364D+02 -.237004787203258D+02 -.556312156223405D+02
 0.105024157830140D+03 -.770652406725473D+01 0.477850202506660D+01 0.669375319141432D+02
 0.134853211991322D+02 0.732373122756330D+01 0.619726278201690D+00 -.113063162918028D+02
 0.809754613822428D+03 -.151857105688450D+02 0.183022504170575D+02 -.809405310355016D+03
0.744939706224D-03 0.000000000000D+00 0.000000000000D+00 0.581352409805D-05 0.377698381079D-05  6 2 21 25 24 1 21 4 0.13510145D+00 0.21262576D-01 0.14428385D+05 0.14428385D+05 0.14428385D+05 0.12497507D+01  1  2  1  2  6  2       21 0.152646988393D+01 0.100000000000D+01
  </mgrwgt>
  </event>
  <event>
  5     66 -.45638357E-03 0.36548299E+02 0.75467711E-02 0.11620654E+00
        2 -1    0    0  502    0 0.00000000E+00 0.00000000E+00 0.24078545E+04 0.24078545E+04 0.32000000E+00 0.0000E+00 0.9000E+01
       21 -1    0    0  501  502 0.00000000E+00 0.00000000E+00 -.49087668E+02 0.49093398E+02 0.75000000E+00 0.0000E+00 0.9000E+01
       25  1    1    2    0    0 0.22878700E+02 -.85181631E+02 0.12595817E+04 0.12688382E+04 0.12500000E+03 0.0000E+00 0.9000E+01
       24  1    1    2    0    0 0.20310284E+01 0.58436861E+02 0.11335734E+04 0.11379257E+04 0.80419002E+02 0.0000E+00 0.9000E+01
        1  1    1    2  501    0 -.24909729E+02 0.26744770E+02 -.34388290E+02 0.50184003E+02 0.32000000E+00 0.0000E+00 0.9000E+01
#aMCatNLO 1  0  0  2  1 0.81033791D+02 0.00000000D+00  -5  6  0 0.00000000D+00 0.00000000D+00 0.00000000D+00 0.00000000D+00 0.00000000D+00
  <mgrwgt>
 -.2656280199D+01   12    2    0
 0.343806668258745D+03 0.000000000000000D+00 0.000000000000000D+00 0.343806668258745D+03
 0.343806668258745D+03 0.000000000000000D+00 0.000000000000000D+00 -.343806668258745D+03
 0.212924736765053D+03 0.228787048825917D+02 -.851816357387119D+02 0.148096581061953D+03
 0.177409047492506D+03 0.203103209155476D+01 0.584368574381336D+02 0.146927746798303D+03
 0.297279552259930D+03 -.249097369741464D+02 0.267447783005783D+02 -.295024327860256D+03
 0.000000000000000D+00 -.000000000000000D+00 -.000000000000000D+00 -.000000000000000D+00
 0.347196271225772D+03 0.000000000000000D+00 0.000000000000000D+00 0.347196271225772D+03
 0.197087624873272D+04 0.000000000000000D+00 0.000000000000000D+00 -.197087624873272D+04
 0.216506766607297D+03 0.480526801658025D+02 -.837169193973957D+02 0.148096581061953D+03
 0.179275703458942D+03 0.229404740720243D+02 0.596534472302521D+02 0.146927746798303D+03
 0.296589233439384D+03 0.990382005476604D+01 0.287703616780912D+02 -.295024327860256D+03
 0.162570081645287D+04 -.808969742925928D+02 -.470688951094765D+01 -.162367997750695D+04
0.217327578189D-04 0.000000000000D+00 0.000000000000D+00 0.147420824916D-04 0.000000000000D+00  6 2 21 25 24 1 21 2 0.37043959D+00 0.75523913D-02 0.20874831D+05 0.20874831D+05 0.20874831D+05 0.12317844D+01  1  2  2  2  6  2       21 0.263948662810D-01 0.100000000000D+01
0.539924944012D-05 0.114686913855D-05 -.438721765513D-07 0.147420824916D-04 0.000000000000D+00  6 2 21 25 24 1 21 4 0.37043959D+00 0.75523913D-02 0.20874831D+05 0.20874831D+05 0.20874831D+05 0.12317844D+01  1  2  3  2  6  2       21 0.994964045607D-02 0.100000000000D+01
0.208270447525D-05 0.000000000000D+00 0.000000000000D+00 0.147420824916D-04 0.000000000000D+00  6 2 21 25 24 1 21 4 0.37043959D+00 0.75523913D-02 0.20874831D+05 0.20874831D+05 0.20874831D+05 0.12317844D+01  1  2 15  2  6  2       21 0.383797061699D-02 0.100000000000D+01
-.274539733815D-01 0.000000000000D+00 -.187657280842D-03 0.147420824916D-04 0.000000000000D+00  6 2 21 25 24 1 21 4 0.37043959D+00 0.43394548D-01 0.20874831D+05 0.20874831D+05 0.20874831D+05 0.12317844D+01  1  2  5  2  6  2       21 -.199300984875D+01 0.100000000000D+01
-.115953388806D-01 0.000000000000D+00 -.790298200654D-04 0.147420824916D-04 0.000000000000D+00  6 2 -1 25 24 1 -1 4 0.37043959D+00 0.43394548D-01 0.20874831D+05 0.20874831D+05 0.20874831D+05 0.12317844D+01  1  2  5  5  6  2       21 -.799585110789D-01 0.100000000000D+01
-.115953388806D-01 0.000000000000D+00 -.790298200654D-04 0.147420824916D-04 0.000000000000D+00  6 2 1 25 24 1 1 4 0.37043959D+00 0.43394548D-01 0.20874831D+05 0.20874831D+05 0.20874831D+05 0.12317844D+01  1  2  5  6  6  2       21 -.168222549981D+00 0.100000000000D+01
-.115953388806D-01 0.000000000000D+00 -.790298200654D-04 0.147420824916D-04 0.000000000000D+00  6 2 -2 25 24 1 -2 4 0.37043959D+00 0.43394548D-01 0.20874831D+05 0.20874831D+05 0.20874831D+05 0.12317844D+01  1  2  5  7  6  2       21 -.668316628745D-01 0.100000000000D+01
-.115953388806D-01 0.000000000000D+00 -.790298200654D-04 0.147420824916D-04 0.000000000000D+00  6 2 2 25 24 1 2 4 0.37043959D+00 0.43394548D-01 0.20874831D+05 0.20874831D+05 0.20874831D+05 0.12317844D+01  1  2  5  8  6  2       21 -.235155015267D+00 0.100000000000D+01
-.115953388806D-01 0.000000000000D+00 -.790298200654D-04 0.147420824916D-04 0.000000000000D+00  6 2 -3 25 24 1 -3 4 0.37043959D+00 0.43394548D-01 0.20874831D+05 0.20874831D+05 0.20874831D+05 0.12317844D+01  1  2  5  9  6  2       21 -.419541173475D-01 0.100000000000D+01
-.115953388806D-01 0.000000000000D+00 -.790298200654D-04 0.147420824916D-04 0.000000000000D+00  6 2 -4 25 24 1 -4 4 0.37043959D+00 0.43394548D-01 0.20874831D+05 0.20874831D+05 0.20874831D+05 0.12317844D+01  1  2  5  9  6  2       21 -.346828862293D-01 0.100000000000D+01
-.115953388806D-01 0.000000000000D+00 -.790298200654D-04 0.147420824916D-04 0.000000000000D+00  6 2 3 25 24 1 3 4 0.37043959D+00 0.43394548D-01 0.20874831D+05 0.20874831D+05 0.20874831D+05 0.12317844D+01  1  2  5 10  6  2       21 -.419651983136D-01 0.100000000000D+01
-.115953388806D-01 0.000000000000D+00 -.790298200654D-04 0.147420824916D-04 0.000000000000D+00  6 2 4 25 24 1 4 4 0.37043959D+00 0.43394548D-01 0.20874831D+05 0.20874831D+05 0.20874831D+05 0.12317844D+01  1  2  5 10  6  2       21 -.346828862293D-01 0.100000000000D+01
  </mgrwgt>
  </event>
  <event>
  5     66 -.45638357E-03 0.20384455E+02 0.75467711E-02 0.11679236E+00
        2 -1    0    0  502    0 0.00000000E+00 0.00000000E+00 0.96473216E+03 0.96473221E+03 0.32000000E+00 0.0000E+00 0.9000E+01
       21 -1    0    0  501  502 0.00000000E+00 0.00000000E+00 -.31488648E+02 0.31497578E+02 0.75000000E+00 0.0000E+00 0.9000E+01
       25  1    1    2    0    0 -.87704742E+02 -.26883347E+02 0.54183326E+03 0.56358062E+03 0.12500000E+03 0.0000E+00 0.9000E+01
       24  1    1    2    0    0 0.89718169E+02 0.65987679E+01 0.39403263E+03 0.41209444E+03 0.80419002E+02 0.0000E+00 0.9000E+01
        1  1    1    2  501    0 -.20134270E+01 0.20284579E+02 -.26223737E+01 0.20554739E+02 0.32000000E+00 0.0000E+00 0.9000E+01
#aMCatNLO 1  0  0  2  1 0.32629383D+02 0.00000000D+00  -5  6  0 0.00000000D+00 0.00000000D+00 0.00000000D+00 0.00000000D+00 0.00000000D+00
  <mgrwgt>
 -.8228426010D+00   12    2    0
 0.174306012981923D+03 0.000000000000000D+00 0.000000000000000D+00 0.174306012981923D+03
 0.174306012981923D+03 0.000000000000000D+00 0.000000000000000D+00 -.174306012981923D+03
 0.160044579060926D+03 -.877047314786307D+02 -.268834571269388D+02 0.396790510969495D+02
 0.122808083356241D+03 0.897181778146994D+02 0.659868326911981D+01 0.228410886777911D+02
 0.657593635466781D+02 -.201344633606872D+01 0.202847738578190D+02 -.625201397747406D+02
 0.000000000000000D+00 -.000000000000000D+00 0.000000000000000D+00 -.000000000000000D+00
 0.180271763941635D+03 0.000000000000000D+00 0.000000000000000D+00 0.180271763941635D+03
 0.420690707388523D+03 0.000000000000000D+00 0.000000000000000D+00 -.420690707388523D+03
 0.148263650670482D+03 -.621913301285353D+02 -.302476688527881D+02 0.396790510969495D+02
 0.139339365758823D+03 0.111411640515981D+03 0.373817084302373D+01 0.228410886777911D+02
 0.659007283929950D+02 0.888180861827915D+01 0.188481192945732D+02 -.625201397747406D+02
 0.247458726507858D+03 -.581021190057245D+02 0.766137871519113D+01 -.240418943446888D+03
0.429640119397D-05 0.000000000000D+00 0.000000000000D+00 0.294019845648D-05 0.000000000000D+00  6 2 21 25 24 1 21 2 0.14842102D+00 0.48450984D-02 0.21918447D+05 0.21918447D+05 0.21918447D+05 0.12294705D+01  1  2  2  2  6  2       21 0.646253513696D-01 0.100000000000D+01
0.802507503392D-06 0.226727319987D-06 -.867319616258D-08 0.294019845648D-05 0.000000000000D+00  6 2 21 25 24 1 21 4 0.14842102D+00 0.48450984D-02 0.21918447D+05 0.21918447D+05 0.21918447D+05 0.12294705D+01  1  2  3  2  6  2       21 0.182466624087D-01 0.100000000000D+01
0.317132702096D-06 0.000000000000D+00 0.000000000000D+00 0.294019845648D-05 0.000000000000D+00  6 2 21 25 24 1 21 4 0.14842102D+00 0.48450984D-02 0.21918447D+05 0.21918447D+05 0.21918447D+05 0.12294705D+01  1  2 15  2  6  2       21 0.721066573140D-02 0.100000000000D+01
-.163927547106D-03 0.000000000000D+00 -.754818049826D-05 0.294019845648D-05 0.000000000000D+00  6 2 21 25 24 1 21 4 0.14842102D+00 0.12020409D-01 0.21918447D+05 0.21918447D+05 0.21918447D+05 0.12294705D+01  1  2  5  2  6  2       21 -.776148771707D+00 0.100000000000D+01
-.581250802102D-04 0.000000000000D+00 -.235493405418D-05 0.294019845648D-05 0.000000000000D+00  6 2 -1 25 24 1 -1 4 0.14842102D+00 0.12020409D-01 0.21918447D+05 0.21918447D+05 0.21918447D+05 0.12294705D+01  1  2  5  5  6  2       21 -.190819189678D-01 0.100000000000D+01
-.581250802102D-04 0.000000000000D+00 -.235493405418D-05 0.294019845648D-05 0.000000000000D+00  6 2 1 25 24 1 1 4 0.14842102D+00 0.12020409D-01 0.21918447D+05 0.21918447D+05 0.21918447D+05 0.12294705D+01  1  2  5  6  6  2       21 -.248778648421D-01 0.100000000000D+01
-.581250802102D-04 0.000000000000D+00 -.235493405418D-05 0.294019845648D-05 0.000000000000D+00  6 2 -2 25 24 1 -2 4 0.14842102D+00 0.12020409D-01 0.21918447D+05 0.21918447D+05 0.21918447D+05 0.12294705D+01  1  2  5  7  6  2       21 -.180785922634D-01 0.100000000000D+01
-.581250802102D-04 0.000000000000D+00 -.235493405418D-05 0.294019845648D-05 0.000000000000D+00  6 2 2 25 24 1 2 4 0.14842102D+00 0.12020409D-01 0.21918447D+05 0.21918447D+05 0.21918447D+05 0.12294705D+01  1  2  5  8  6  2       21 -.288274725345D-01 0.100000000000D+01
-.581250802102D-04 0.000000000000D+00 -.235493405418D-05 0.294019845648D-05 0.000000000000D+00  6 2 -3 25 24 1 -3 4 0.14842102D+00 0.12020409D-01 0.21918447D+05 0.21918447D+05 0.21918447D+05 0.12294705D+01  1  2  5  9  6  2       21 -.122823560765D-01 0.100000000000D+01
-.581250802102D-04 0.000000000000D+00 -.235493405418D-05 0.294019845648D-05 0.000000000000D+00  6 2 -4 25 24 1 -4 4 0.14842102D+00 0.12020409D-01 0.21918447D+05 0.21918447D+05 0.21918447D+05 0.12294705D+01  1  2  5  9  6  2       21 -.106737527775D-01 0.100000000000D+01
-.581250802102D-04 0.000000000000D+00 -.235493405418D-05 0.294019845648D-05 0.000000000000D+00  6 2 3 25 24 1 3 4 0.14842102D+00 0.12020409D-01 0.21918447D+05 0.21918447D+05 0.21918447D+05 0.12294705D+01  1  2  5 10  6  2       21 -.122807985784D-01 0.100000000000D+01
-.581250802102D-04 0.000000000000D+00 -.235493405418D-05 0.294019845648D-05 0.000000000000D+00  6 2 4 25 24 1 4 4 0.14842102D+00 0.12020409D-01 0.21918447D+05 0.21918447D+05 0.21918447D+05 0.12294705D+01  1  2  5 10  6  2       21 -.106737527775D-01 0.100000000000D+01
  </mgrwgt>
  </event>
  <event>
  6     66 -.45638357E-03 0.31776037E+02 0.75467711E-02 0.12147977E+00
        4 -1    0    0  503    0 0.00000000E+00 0.00000000E+00 0.74232016E+01 0.75832989E+01 0.15500000E+01 0.0000E+00 0.9000E+01
       21 -1    0    0  501  502 0.00000000E+00 0.00000000E+00 -.35831727E+04 0.35831728E+04 0.75000000E+00 0.0000E+00 0.9000E+01
       25  1    1    2    0    0 0.20518616E+02 -.19081248E+02 -.22395360E+04 0.22431968E+04 0.12500000E+03 0.0000E+00 0.9000E+01
       24  1    1    2    0    0 0.18183918E+02 0.32898882E+01 -.41656413E+03 0.42465794E+03 0.80419002E+02 0.0000E+00 0.9000E+01
        3  1    1    2  501    0 -.42944601E+02 -.74479199E+01 -.78381804E+03 0.78502909E+03 0.50000000E+00 0.0000E+00 0.9000E+01
       21  1    1    2  503  502 0.42420661E+01 0.23239279E+02 -.13583131E+03 0.13787228E+03 0.75000000E+00 0.0000E+00 0.9000E+01
#aMCatNLO 2  0  0  1  2 0.23623277D+02 0.00000000D+00  -5  6  0 0.00000000D+00 0.00000000D+00 0.00000000D+00 0.00000000D+00 0.00000000D+00
  <mgrwgt>
 -.4223787132D-02    2    2    0
 0.149006118059963D+03 0.000000000000000D+00 0.000000000000000D+00 0.149006118059963D+03
 0.149006118059963D+03 0.000000000000000D+00 0.000000000000000D+00 -.149006118059963D+03
 0.138654166640648D+03 0.224957099914462D+02 -.825616250188423D+01 -.550068790201342D+02
 0.112417296379028D+03 0.197763698055136D+02 0.120089270991704D+02 0.750673926418257D+02
 0.469407731002511D+02 -.422720797969599D+02 -.375276459728621D+01 -.200605136216915D+02
 0.000000000000000D+00 0.000000000000000D+00 0.000000000000000D+00 0.000000000000000D+00
 0.172997631657330D+03 0.000000000000000D+00 0.000000000000000D+00 0.172997631657330D+03
 0.155404255491610D+03 0.000000000000000D+00 0.000000000000000D+00 -.155404255491610D+03
 0.139412719134185D+03 0.205197325873265D+02 -.190811449183780D+02 -.550068790201342D+02
 0.111551963756331D+03 0.181848167659933D+02 0.328993383952853D+01 0.750673926418257D+02
 0.479823895211369D+02 -.429466154359116D+02 -.744806820537770D+01 -.200605136216915D+02
 0.294548147372874D+02 0.424206608259172D+01 0.232392792842272D+02 0.175933761657203D+02
-.230123783741D-03 0.000000000000D+00 0.000000000000D+00 0.416627183748D-06 0.000000000000D+00  6 4 21 25 24 3 21 4 0.11732387D-02 0.52855750D+00 0.19297109D+05 0.19297109D+05 0.19297109D+05 0.12355403D+01  1  2 13  1  6  1        4 -.656399736412D-02 0.100000000000D+01
0.117516242608D-03 0.000000000000D+00 0.000000000000D+00 0.422677606342D-06 0.647166923287D-08  6 4 21 25 24 3 21 4 0.11543176D-02 0.55125311D+00 0.19297109D+05 0.19297109D+05 0.19297109D+05 0.12355403D+01  1  2  1  1  6  1        4 0.234021023169D-02 0.100000000000D+01
  </mgrwgt>
  </event>
  <event>
  5     66 -.45638357E-03 0.20310244E+02 0.75467711E-02 0.12435530E+00
        2 -1    0    0  502    0 0.00000000E+00 0.00000000E+00 0.18166314E+04 0.18166314E+04 0.32000000E+00 0.0000E+00 0.9000E+01
       21 -1    0    0  501  502 0.00000000E+00 0.00000000E+00 -.11807911E+02 0.11831706E+02 0.75000000E+00 0.0000E+00 0.9000E+01
       25  1    1    2    0    0 -.37610062E+01 0.23808151E+02 0.56151699E+03 0.57576671E+03 0.12500000E+03 0.0000E+00 0.9000E+01
       24  1    1    2    0    0 0.46837090E+01 -.44096846E+02 0.12113807E+04 0.12148568E+04 0.80419002E+02 0.0000E+00 0.9000E+01
        1  1    1    2  501    0 -.92270274E+00 0.20288695E+02 0.31925751E+02 0.37839642E+02 0.32000000E+00 0.0000E+00 0.9000E+01
#aMCatNLO 1  0  0  1  2 0.40238026D+01 0.00000000D+00  -5  6  0 0.00000000D+00 0.00000000D+00 0.00000000D+00 0.00000000D+00 0.00000000D+00
  <mgrwgt>
 -.9848937889D+00    9    2    0
 0.146534640989638D+03 0.000000000000000D+00 0.000000000000000D+00 0.146534640989638D+03
 0.146534640989638D+03 0.000000000000000D+00 0.000000000000000D+00 -.146534640989638D+03
 0.134197226198393D+03 -.376099233031834D+01 0.238078457198306D+02 -.424610049129166D+02
 0.119400180579922D+03 0.468372130645955D+01 -.440971180997889D+02 0.763065796518500D+02
 0.394718752009614D+02 -.922728976141211D+00 0.202892723799583D+02 -.338455747389334D+02
 0.000000000000000D+00 -.000000000000000D+00 0.000000000000000D+00 0.000000000000000D+00
 0.154717197777247D+03 0.000000000000000D+00 0.000000000000000D+00 0.154717197777247D+03
 0.147043968224609D+03 0.000000000000000D+00 0.000000000000000D+00 -.147043968224609D+03
 0.133885029338336D+03 -.313208187055186D+01 0.220783651085950D+02 -.424610049129166D+02
 0.120002405559912D+03 0.524535038637402D+01 -.456415773933724D+02 0.763065796518500D+02
 0.392094689190459D+02 -.738145627994998D+00 0.197816749679287D+02 -.338455747389334D+02
 0.866426218456151D+01 -.137512288782716D+01 0.378153731684870D+01 0.767322955263801D+01
0.864442051648D-06 0.000000000000D+00 0.000000000000D+00 0.177925069341D-05 0.000000000000D+00  6 2 21 25 24 1 21 2 0.27948358D+00 0.18184342D-02 0.14333848D+05 0.14333848D+05 0.14333848D+05 0.12500779D+01  1  2  2  1  6  1        2 0.233253852486D-01 0.100000000000D+01
0.762262719043D-07 0.456178603454D-07 -.174505944548D-08 0.177925069341D-05 0.000000000000D+00  6 2 21 25 24 1 21 4 0.27948358D+00 0.18184342D-02 0.14333848D+05 0.14333848D+05 0.14333848D+05 0.12500779D+01  1  2  3  1  6  1        2 0.321419164436D-02 0.100000000000D+01
0.907997273785D-07 0.000000000000D+00 0.000000000000D+00 0.177925069341D-05 0.000000000000D+00  6 2 21 25 24 1 21 4 0.27948358D+00 0.18184342D-02 0.14333848D+05 0.14333848D+05 0.14333848D+05 0.12500779D+01  1  2 15  1  6  1        2 0.382870259504D-02 0.100000000000D+01
0.268885182436D-05 0.000000000000D+00 0.000000000000D+00 0.177461197153D-05 0.000000000000D+00  6 2 21 25 24 1 21 4 0.29556035D+00 0.18184342D-02 0.14812057D+05 0.14812057D+05 0.14812057D+05 0.12484473D+01  1  2 12  1  6  1        2 0.998143429755D-01 0.100000000000D+01
-.334021023243D-04 0.000000000000D+00 0.000000000000D+00 0.177925069341D-05 0.000000000000D+00  6 2 21 25 24 1 21 4 0.27948358D+00 0.18184342D-02 0.14333848D+05 0.14333848D+05 0.14333848D+05 0.12500779D+01  1  2  4  1  6  1        2 -.140844823593D+01 0.100000000000D+01
-.608729328633D-04 0.000000000000D+00 -.467743166495D-05 0.177925069341D-05 0.000000000000D+00  6 2 21 25 24 1 21 4 0.29546082D+00 0.18184342D-02 0.14333848D+05 0.14333848D+05 0.14333848D+05 0.12500779D+01  1  2  5  1  6  1        2 -.227333172916D+01 0.100000000000D+01
0.610458256833D-04 0.000000000000D+00 0.467021305000D-05 0.177925069341D-05 0.000000000000D+00  6 2 21 25 24 1 21 4 0.27948358D+00 0.18184342D-02 0.14333848D+05 0.14333848D+05 0.14333848D+05 0.12500779D+01  1  2  6  1  6  1        2 0.257408604583D+01 0.100000000000D+01
0.417965922006D-07 0.000000000000D+00 0.000000000000D+00 0.177461197153D-05 0.000000000000D+00  6 21 21 25 24 1 -2 4 0.29556035D+00 0.18184342D-02 0.14812057D+05 0.14812057D+05 0.14812057D+05 0.12484473D+01  1  2 12  4  6  1        2 0.568013403752D-03 0.100000000000D+01
-.579778531904D-06 0.000000000000D+00 -.449379387155D-07 0.177925069341D-05 0.000000000000D+00  6 21 21 25 24 1 -2 4 0.29546082D+00 0.18184342D-02 0.14333848D+05 0.14333848D+05 0.14333848D+05 0.12500779D+01  1  2  5  4  6  1        2 -.795050554402D-02 0.100000000000D+01
  </mgrwgt>
  </event>
  <event>
  6     66 0.45638357E-03 0.47866629E+02 0.75467711E-02 0.11866489E+00
        4 -1    0    0  502    0 0.00000000E+00 0.00000000E+00 0.22175466E+03 0.22176008E+03 0.15500000E+01 0.0000E+00 0.9000E+01
        1 -1    0    0  501    0 0.00000000E+00 0.00000000E+00 -.26714392E+04 0.26714392E+04 0.32000000E+00 0.0000E+00 0.9000E+01
       25  1    1    2    0    0 0.52833780E+02 0.46940726E+02 0.71950857E+02 0.16061372E+03 0.12500000E+03 0.0000E+00 0.9000E+01
       24  1    1    2    0    0 -.16240819E+02 -.52634257E+02 0.79019848E+02 0.12548100E+03 0.80419002E+02 0.0000E+00 0.9000E+01
        3  1    1    2  501    0 0.22818211E+02 0.38734017E+01 -.43653492E+02 0.49412056E+02 0.50000000E+00 0.0000E+00 0.9000E+01
        1  1    1    2  502    0 -.59411171E+02 0.18201292E+01 -.25570017E+04 0.25576925E+04 0.32000000E+00 0.0000E+00 0.9000E+01
#aMCatNLO 2  0  0  2  1 0.10824129D+02 0.00000000D+00  -5  6  0 0.00000000D+00 0.00000000D+00 0.00000000D+00 0.00000000D+00 0.00000000D+00
  <mgrwgt>
 0.1171236490D-01    1    2    0
 0.156136807733436D+03 0.000000000000000D+00 0.000000000000000D+00 0.156136807733436D+03
 0.156136807733436D+03 0.000000000000000D+00 0.000000000000000D+00 -.156136807733436D+03
 0.138058327404458D+03 0.261251932537462D+02 0.477589123525727D+02 0.217177884249344D+02
 0.110443908567822D+03 -.366248579575679D+02 -.520098186100934D+02 0.410394874858344D+02
 0.637713794945921D+02 0.104996647038217D+02 0.425090625752070D+01 -.627572759107689D+02
 0.000000000000000D+00 -.000000000000000D+00 0.000000000000000D+00 -.000000000000000D+00
 0.159188020166954D+03 0.000000000000000D+00 0.000000000000000D+00 0.159188020166954D+03
 0.372146034310304D+04 0.000000000000000D+00 0.000000000000000D+00 -.372146034310304D+04
 0.145229071997218D+03 0.528336511198686D+02 0.469406681721402D+02 0.217177884249344D+02
 0.105761957364556D+03 -.162408759207402D+02 -.526343052337419D+02 0.410394874858344D+02
 0.668891541227507D+02 0.228183960143369D+02 0.387350782232591D+01 -.627572759107689D+02
 0.356276817978546D+04 -.594111712134653D+02 0.182012923927585D+01 -.356227232293608D+04
0.105821794278D-01 0.000000000000D+00 0.000000000000D+00 0.113572772708D-04 0.353417097939D-05  6 4 1 25 24 3 1 4 0.34116519D-01 0.41099104D+00 0.26188106D+05 0.26188106D+05 0.26188106D+05 0.12211417D+01  1  2  1 10  6  2       21 0.117123648961D-01 0.100000000000D+01
  </mgrwgt>
  </event>
  <event>
  6     66 0.45638357E-03 0.16951056E+03 0.75467711E-02 0.11230079E+00
        2 -1    0    0  502    0 0.00000000E+00 0.00000000E+00 0.19860966E+04 0.19860966E+04 0.32000000E+00 0.0000E+00 0.9000E+01
       21 -1    0    0  501  502 0.00000000E+00 0.00000000E+00 -.29111026E+02 0.29120685E+02 0.75000000E+00 0.0000E+00 0.9000E+01
       25  1    1    2    0    0 0.87368498E+01 -.14828881E+03 0.78711951E+03 0.81070835E+03 0.12500000E+03 0.0000E+00 0.9000E+01
       24  1    1    2    0    0 -.86026253E+01 -.38469557E+02 0.50819153E+03 0.51602302E+03 0.80419002E+02 0.0000E+00 0.9000E+01
        1  1    1    2  503    0 0.45242060E+00 0.89529209E+02 0.38333668E+03 0.39365315E+03 0.32000000E+00 0.0000E+00 0.9000E+01
       21  1    1    2  501  503 -.58664515E+00 0.97229161E+02 0.27833783E+03 0.29483277E+03 0.75000000E+00 0.0000E+00 0.9000E+01
#aMCatNLO 2  0  0  5  2 0.18103198D+02 0.00000000D+00  -5  6  0 0.00000000D+00 0.00000000D+00 0.00000000D+00 0.00000000D+00 0.00000000D+00
  <mgrwgt>
 0.2318215741D-01    2    2    0
 0.240472592291674D+03 0.000000000000000D+00 0.000000000000000D+00 0.240472592291674D+03
 0.240472592291674D+03 -.000000000000000D+00 -.000000000000000D+00 -.240472592291674D+03
 0.195205967983494D+03 0.873784896967501D+01 -.149679000397669D+03 -.465587490008840D+00
 0.946555521089285D+02 -.860214027236111D+01 -.391443942600646D+02 0.297687280786866D+02
 0.191083664490925D+03 -.135708697313877D+00 0.188823394657733D+03 -.293031405886778D+02
 0.000000000000000D+00 0.000000000000000D+00 0.000000000000000D+00 -.000000000000000D+00
 0.240472592291674D+03 0.000000000000000D+00 0.000000000000000D+00 0.240472592291674D+03
 0.240472592291674D+03 -.000000000000000D+00 -.000000000000000D+00 -.240472592291674D+03
 0.194145131442007D+03 0.873685216806290D+01 -.148292063024278D+03 -.680823641831196D+00
 0.943462609436009D+02 -.860262414748621D+01 -.384711364253032D+02 0.296642464861371D+02
 0.893351021585590D+02 0.452167983758935D+00 0.892222419059060D+02 0.446627037679444D+01
 0.103118690039181D+03 -.586396004335603D+00 0.975409575436751D+02 -.334496932211004D+02
-.585568625823D-05 0.000000000000D+00 0.000000000000D+00 0.234270010383D-06 0.000000000000D+00  6 2 21 25 24 1 21 4 0.30555406D+00 0.44793644D-02 0.55335852D+05 0.55335852D+05 0.55335852D+05 0.11879450D+01  1  2 13  3  6  5        1 -.365741546375D-01 0.100000000000D+01
0.956725367307D-05 0.000000000000D+00 0.000000000000D+00 0.234027981009D-06 0.250217626412D-08  6 2 21 25 24 1 21 4 0.30555406D+00 0.44793644D-02 0.55335852D+05 0.55335852D+05 0.55335852D+05 0.11879450D+01  1  2  1  3  6  5        1 0.597563120469D-01 0.100000000000D+01
  </mgrwgt>
  </event>
  <event>
  5     66 -.45638357E-03 0.32868617E+02 0.75467711E-02 0.11661199E+00
        2 -1    0    0  502    0 0.00000000E+00 0.00000000E+00 0.79423223E+03 0.79423230E+03 0.32000000E+00 0.0000E+00 0.9000E+01
       21 -1    0    0  501  502 0.00000000E+00 0.00000000E+00 -.22041136E+02 0.22053892E+02 0.75000000E+00 0.0000E+00 0.9000E+01
       25  1    1    2    0    0 -.24577583E+02 -.13014227E+02 0.32424504E+03 0.34861623E+03 0.12500000E+03 0.0000E+00 0.9000E+01
       24  1    1    2    0    0 0.51743162E+02 0.31515255E+02 0.35870951E+03 0.37257254E+03 0.80419002E+02 0.0000E+00 0.9000E+01
        1  1    1    2  501    0 -.27165579E+02 -.18501029E+02 0.89236548E+02 0.95097427E+02 0.32000000E+00 0.0000E+00 0.9000E+01
#aMCatNLO 1  0  0  2  2 0.61132100D+01 0.00000000D+00  -5  6  0 0.00000000D+00 0.00000000D+00 0.00000000D+00 0.00000000D+00 0.00000000D+00
  <mgrwgt>
 -.2300980745D+01   12    2    0
 0.132329184592851D+03 0.000000000000000D+00 0.000000000000000D+00 0.132329184592851D+03
 0.132329184592851D+03 0.000000000000000D+00 0.000000000000000D+00 -.132329184592851D+03
 0.129190827007792D+03 -.245769576070489D+02 -.130138005973598D+02 -.170846109628176D+02
 0.102523194802907D+03 0.517436584893665D+02 0.315155935042167D+02 0.193171087494259D+02
 0.329443473750012D+02 -.271667008823176D+02 -.185017929068569D+02 -.223249778660829D+01
 0.000000000000000D+00 0.000000000000000D+00 -.000000000000000D+00 -.000000000000000D+00
 0.139619449187552D+03 0.000000000000000D+00 0.000000000000000D+00 0.139619449187552D+03
 0.869739773072902D+04 0.000000000000000D+00 0.000000000000000D+00 -.869739773072902D+04
 0.138063994543707D+03 -.524431818832484D+02 0.198619065442968D+02 -.170846109628176D+02
 0.104879672455691D+03 0.301180998520970D+02 0.570287568767236D+02 0.193171087494259D+02
 0.358465330296345D+02 -.343394137650426D+02 -.100396487065371D+02 -.223249778660829D+01
 0.855822697988754D+04 0.566644957961940D+02 -.668510147144833D+02 -.855777828154146D+04
0.190090594848D-06 0.000000000000D+00 0.000000000000D+00 0.583208490397D-06 0.000000000000D+00  6 2 21 25 24 1 21 2 0.12219056D+00 0.33919302D-02 0.17110172D+05 0.17110172D+05 0.17110172D+05 0.12413581D+01  1  2  2  2  6  2       21 0.676982172699D-02 0.100000000000D+01
-.681125808182D-09 0.100313562861D-07 -.383738143470D-09 0.583208490397D-06 0.000000000000D+00  6 2 21 25 24 1 21 4 0.12219056D+00 0.33919302D-02 0.17110172D+05 0.17110172D+05 0.17110172D+05 0.12413581D+01  1  2  3  2  6  2       21 -.373798953194D-04 0.100000000000D+01
0.194825389310D-07 0.000000000000D+00 0.000000000000D+00 0.583208490397D-06 0.000000000000D+00  6 2 21 25 24 1 21 4 0.12219056D+00 0.33919302D-02 0.17110172D+05 0.17110172D+05 0.17110172D+05 0.12413581D+01  1  2 15  2  6  2       21 0.106919346918D-02 0.100000000000D+01
-.865117262239D-01 0.000000000000D+00 -.242047689237D-03 0.583208490397D-06 0.000000000000D+00  6 2 21 25 24 1 21 4 0.12219056D+00 0.22416355D+00 0.17110172D+05 0.17110172D+05 0.17110172D+05 0.12413581D+01  1  2  5  2  6  2       21 -.963308975028D+00 0.100000000000D+01
-.384383252750D-01 0.000000000000D+00 -.107539248236D-03 0.583208490397D-06 0.000000000000D+00  6 2 -1 25 24 1 -1 4 0.12219056D+00 0.22416355D+00 0.17110172D+05 0.17110172D+05 0.17110172D+05 0.12413581D+01  1  2  5  5  6  2       21 -.481433712876D-01 0.100000000000D+01
-.384383252750D-01 0.000000000000D+00 -.107539248236D-03 0.583208490397D-06 0.000000000000D+00  6 2 1 25 24 1 1 4 0.12219056D+00 0.22416355D+00 0.17110172D+05 0.17110172D+05 0.17110172D+05 0.12413581D+01  1  2  5  6  6  2       21 -.376322846028D+00 0.100000000000D+01
-.384383252750D-01 0.000000000000D+00 -.107539248236D-03 0.583208490397D-06 0.000000000000D+00  6 2 -2 25 24 1 -2 4 0.12219056D+00 0.22416355D+00 0.17110172D+05 0.17110172D+05 0.17110172D+05 0.12413581D+01  1  2  5  7  6  2       21 -.368462703655D-01 0.100000000000D+01
-.384383252750D-01 0.000000000000D+00 -.107539248236D-03 0.583208490397D-06 0.000000000000D+00  6 2 2 25 24 1 2 4 0.12219056D+00 0.22416355D+00 0.17110172D+05 0.17110172D+05 0.17110172D+05 0.12413581D+01  1  2  5  8  6  2       21 -.798190221135D+00 0.100000000000D+01
-.384383252750D-01 0.000000000000D+00 -.107539248236D-03 0.583208490397D-06 0.000000000000D+00  6 2 -3 25 24 1 -3 4 0.12219056D+00 0.22416355D+00 0.17110172D+05 0.17110172D+05 0.17110172D+05 0.12413581D+01  1  2  5  9  6  2       21 -.244300061952D-01 0.100000000000D+01
-.384383252750D-01 0.000000000000D+00 -.107539248236D-03 0.583208490397D-06 0.000000000000D+00  6 2 -4 25 24 1 -4 4 0.12219056D+00 0.22416355D+00 0.17110172D+05 0.17110172D+05 0.17110172D+05 0.12413581D+01  1  2  5  9  6  2       21 -.184598203322D-01 0.100000000000D+01
-.384383252750D-01 0.000000000000D+00 -.107539248236D-03 0.583208490397D-06 0.000000000000D+00  6 2 3 25 24 1 3 4 0.12219056D+00 0.22416355D+00 0.17110172D+05 0.17110172D+05 0.17110172D+05 0.12413581D+01  1  2  5 10  6  2       21 -.246210495278D-01 0.100000000000D+01
-.384383252750D-01 0.000000000000D+00 -.107539248236D-03 0.583208490397D-06 0.000000000000D+00  6 2 4 25 24 1 4 4 0.12219056D+00 0.22416355D+00 0.17110172D+05 0.17110172D+05 0.17110172D+05 0.12413581D+01  1  2  5 10  6  2       21 -.184598203322D-01 0.100000000000D+01
  </mgrwgt>
  </event>
  <event>
  5     66 0.45638357E-03 0.30594350E+02 0.75467711E-02 0.12155498E+00
        4 -1    0    0  502    0 0.00000000E+00 0.00000000E+00 0.21360275E+04 0.21360280E+04 0.15500000E+01 0.0000E+00 0.9000E+01
       21 -1    0    0  501  502 0.00000000E+00 0.00000000E+00 -.18017587E+02 0.18033190E+02 0.75000000E+00 0.0000E+00 0.9000E+01
       25  1    1    2    0    0 0.31988752E+02 -.25951294E+02 0.16900902E+04 0.16952069E+04 0.12500000E+03 0.0000E+00 0.9000E+01
       24  1    1    2    0    0 -.62579825E+02 0.26378338E+02 0.41021327E+03 0.42350229E+03 0.80419002E+02 0.0000E+00 0.9000E+01
        3  1    1    2  501    0 0.30591074E+02 -.42704398E+00 0.17706456E+02 0.35352012E+02 0.50000000E+00 0.0000E+00 0.9000E+01
#aMCatNLO 1  0  0  2  1 0.81542782D+01 0.00000000D+00  -5  6  0 0.00000000D+00 0.00000000D+00 0.00000000D+00 0.00000000D+00 0.00000000D+00
  <mgrwgt>
 0.2462382419D-02   32    2    0
 0.196223017533464D+03 0.000000000000000D+00 0.000000000000000D+00 0.196223017533464D+03
 0.196223017533464D+03 0.000000000000000D+00 0.000000000000000D+00 -.196223017533464D+03
 0.183342328361006D+03 0.319885673328174D+02 -.259512918331068D+02 0.127642749034255D+03
 0.110624372355975D+03 -.625799365049052D+02 0.263783399389984D+02 -.340363119901028D+02
 0.984793343499466D+02 0.305913691720878D+02 -.427048105891625D+00 -.936064370441523D+02
 0.000000000000000D+00 -.000000000000000D+00 -.000000000000000D+00 -.000000000000000D+00
 0.198455590149188D+03 0.000000000000000D+00 0.000000000000000D+00 0.198455590149188D+03
 0.203855049287090D+03 0.000000000000000D+00 0.000000000000000D+00 -.203855049287090D+03
 0.183468843016418D+03 0.346773562748566D+02 -.232513642298220D+02 0.127642749034255D+03
 0.110119066714688D+03 -.609618491501168D+02 0.280031304331179D+02 -.340363119901028D+02
 0.989428313486650D+02 0.320385075840684D+02 0.102608526697799D+01 -.936064370441523D+02
 0.977989835650648D+01 -.575401470880815D+01 -.577785147027385D+01 -.539945913790187D+01
0.236696522528D-05 0.000000000000D+00 0.000000000000D+00 0.164381292891D-05 0.000000000000D+00  6 4 21 25 24 3 21 2 0.32862086D+00 0.27731800D-02 0.17884326D+05 0.17884326D+05 0.17884326D+05 0.12392079D+01  1  2  2  2  6  2       21 0.278430457854D-03 0.100000000000D+01
0.260032821512D-06 0.124908186597D-06 -.477822083693D-08 0.164381292891D-05 0.000000000000D+00  6 4 21 25 24 3 21 4 0.32862086D+00 0.27731800D-02 0.17884326D+05 0.17884326D+05 0.17884326D+05 0.12392079D+01  1  2  3  2  6  2       21 0.469722500354D-04 0.100000000000D+01
0.216532559975D-06 0.000000000000D+00 0.000000000000D+00 0.164381292891D-05 0.000000000000D+00  6 4 21 25 24 3 21 4 0.32862086D+00 0.27731800D-02 0.17884326D+05 0.17884326D+05 0.17884326D+05 0.12392079D+01  1  2 15  2  6  2       21 0.391143759807D-04 0.100000000000D+01
0.802059456765D-05 0.000000000000D+00 0.000000000000D+00 0.163510893581D-05 0.000000000000D+00  6 4 21 25 24 3 21 4 0.32862086D+00 0.28964104D-02 0.19144104D+05 0.19144104D+05 0.19144104D+05 0.12359227D+01  1  2 12  2  6  2       21 0.133429246822D-02 0.100000000000D+01
-.330837748318D-05 0.000000000000D+00 0.000000000000D+00 0.164381292891D-05 0.000000000000D+00  6 4 21 25 24 3 21 4 0.32862086D+00 0.27731800D-02 0.17884326D+05 0.17884326D+05 0.17884326D+05 0.12392079D+01  1  2  4  2  6  2       21 -.597624305454D-03 0.100000000000D+01
-.941769351035D-04 0.000000000000D+00 -.141165993653D-04 0.164381292891D-05 0.000000000000D+00  6 4 21 25 24 3 21 4 0.32862086D+00 0.29188397D-02 0.17884326D+05 0.17884326D+05 0.17884326D+05 0.12392079D+01  1  2  5  2  6  2       21 -.156442165092D-01 0.100000000000D+01
0.943977469530D-04 0.000000000000D+00 0.140428861451D-04 0.164381292891D-05 0.000000000000D+00  6 4 21 25 24 3 21 4 0.32862086D+00 0.27731800D-02 0.17884326D+05 0.17884326D+05 0.17884326D+05 0.12392079D+01  1  2  6  2  6  2       21 0.170519803880D-01 0.100000000000D+01
0.179320213919D-07 0.000000000000D+00 0.000000000000D+00 0.164381292891D-05 0.211254160759D-06  6 4 21 25 24 3 21 4 0.33235982D+00 0.28810420D-02 0.19144104D+05 0.19144104D+05 0.19144104D+05 0.12359227D+01  1  2 11  2  6  2       21 0.285913702544D-05 0.100000000000D+01
0.177398529921D-06 0.000000000000D+00 0.000000000000D+00 0.163510893581D-05 0.000000000000D+00  6 4 -3 25 24 3 -3 4 0.32862086D+00 0.28964104D-02 0.19144104D+05 0.19144104D+05 0.19144104D+05 0.12359227D+01  1  2 12  5  6  2       21 0.113763693478D-05 0.100000000000D+01
-.100080908833D-05 0.000000000000D+00 -.172948750353D-06 0.164381292891D-05 0.000000000000D+00  6 4 -3 25 24 3 -3 4 0.32862086D+00 0.29188397D-02 0.17884326D+05 0.17884326D+05 0.17884326D+05 0.12392079D+01  1  2  5  5  6  2       21 -.639770375045D-05 0.100000000000D+01
0.212982075583D-08 0.000000000000D+00 0.000000000000D+00 0.164381292891D-05 0.186137215760D-07  6 4 -3 25 24 3 -3 4 0.33235982D+00 0.28810420D-02 0.19144104D+05 0.19144104D+05 0.19144104D+05 0.12359227D+01  1  2 11  5  6  2       21 0.130838594091D-07 0.100000000000D+01
0.177398529921D-06 0.000000000000D+00 0.000000000000D+00 0.163510893581D-05 0.000000000000D+00  6 4 3 25 24 3 3 4 0.32862086D+00 0.28964104D-02 0.19144104D+05 0.19144104D+05 0.19144104D+05 0.12359227D+01  1  2 12  6  6  2       21 0.113755422551D-05 0.100000000000D+01
-.100080908833D-05 0.000000000000D+00 -.172948750353D-06 0.164381292891D-05 0.000000000000D+00  6 4 3 25 24 3 3 4 0.32862086D+00 0.29188397D-02 0.17884326D+05 0.17884326D+05 0.17884326D+05 0.12392079D+01  1  2  5  6  6  2       21 -.639723376821D-05 0.100000000000D+01
0.121959565721D-08 0.000000000000D+00 0.000000000000D+00 0.164381292891D-05 0.357285776764D-08  6 4 3 25 24 3 3 4 0.33235982D+00 0.28810420D-02 0.19144104D+05 0.19144104D+05 0.19144104D+05 0.12359227D+01  1  2 11  6  6  2       21 0.749164537107D-08 0.100000000000D+01
0.177398529921D-06 0.000000000000D+00 0.000000000000D+00 0.163510893581D-05 0.000000000000D+00  6 4 -4 25 24 3 -4 4 0.32862086D+00 0.28964104D-02 0.19144104D+05 0.19144104D+05 0.19144104D+05 0.12359227D+01  1  2 12  7  6  2       21 0.102640366244D-05 0.100000000000D+01
-.100080908833D-05 0.000000000000D+00 -.172948750353D-06 0.164381292891D-05 0.000000000000D+00  6 4 -4 25 24 3 -4 4 0.32862086D+00 0.29188397D-02 0.17884326D+05 0.17884326D+05 0.17884326D+05 0.12392079D+01  1  2  5  7  6  2       21 -.576738742976D-05 0.100000000000D+01
0.682844976756D-09 0.000000000000D+00 0.000000000000D+00 0.164381292891D-05 0.229444308277D-08  6 4 -4 25 24 3 -4 4 0.33235982D+00 0.28810420D-02 0.19144104D+05 0.19144104D+05 0.19144104D+05 0.12359227D+01  1  2 11  7  6  2       21 0.378509803105D-08 0.100000000000D+01
0.177398529921D-06 0.000000000000D+00 0.000000000000D+00 0.163510893581D-05 0.000000000000D+00  6 4 4 25 24 3 4 4 0.32862086D+00 0.28964104D-02 0.19144104D+05 0.19144104D+05 0.19144104D+05 0.12359227D+01  1  2 12  8  6  2       21 0.102640366244D-05 0.100000000000D+01
-.100080908833D-05 0.000000000000D+00 -.172948750353D-06 0.164381292891D-05 0.000000000000D+00  6 4 4 25 24 3 4 4 0.32862086D+00 0.29188397D-02 0.17884326D+05 0.17884326D+05 0.17884326D+05 0.12392079D+01  1  2  5  8  6  2       21 -.576738742976D-05 0.100000000000D+01
0.613714849689D-09 0.000000000000D+00 0.000000000000D+00 0.164381292891D-05 0.239497428553D-08  6 4 4 25 24 3 4 4 0.33235982D+00 0.28810420D-02 0.19144104D+05 0.19144104D+05 0.19144104D+05 0.12359227D+01  1  2 11  8  6  2       21 0.340190079484D-08 0.100000000000D+01
0.177398529921D-06 0.000000000000D+00 0.000000000000D+00 0.163510893581D-05 0.000000000000D+00  6 4 -1 25 24 3 -1 4 0.32862086D+00 0.28964104D-02 0.19144104D+05 0.19144104D+05 0.19144104D+05 0.12359227D+01  1  2 12  9  6  2       21 0.151876119475D-05 0.100000000000D+01
0.177398529921D-06 0.000000000000D+00 0.000000000000D+00 0.163510893581D-05 0.000000000000D+00  6 4 -2 25 24 3 -2 4 0.32862086D+00 0.28964104D-02 0.19144104D+05 0.19144104D+05 0.19144104D+05 0.12359227D+01  1  2 12  9  6  2       21 0.149868255199D-05 0.100000000000D+01
-.100080908833D-05 0.000000000000D+00 -.172948750353D-06 0.164381292891D-05 0.000000000000D+00  6 4 -1 25 24 3 -1 4 0.32862086D+00 0.29188397D-02 0.17884326D+05 0.17884326D+05 0.17884326D+05 0.12392079D+01  1  2  5  9  6  2       21 -.855933834366D-05 0.100000000000D+01
-.100080908833D-05 0.000000000000D+00 -.172948750353D-06 0.164381292891D-05 0.000000000000D+00  6 4 -2 25 24 3 -2 4 0.32862086D+00 0.29188397D-02 0.17884326D+05 0.17884326D+05 0.17884326D+05 0.12392079D+01  1  2  5  9  6  2       21 -.844515063023D-05 0.100000000000D+01
0.682006426484D-09 0.000000000000D+00 0.000000000000D+00 0.164381292891D-05 0.229162545075D-08  6 4 -1 25 24 3 -1 4 0.33235982D+00 0.28810420D-02 0.19144104D+05 0.19144104D+05 0.19144104D+05 0.12359227D+01  1  2 11  9  6  2       21 0.559065925126D-08 0.100000000000D+01
0.682006426484D-09 0.000000000000D+00 0.000000000000D+00 0.164381292891D-05 0.229162545075D-08  6 4 -2 25 24 3 -2 4 0.33235982D+00 0.28810420D-02 0.19144104D+05 0.19144104D+05 0.19144104D+05 0.12359227D+01  1  2 11  9  6  2       21 0.551713287409D-08 0.100000000000D+01
0.177398529921D-06 0.000000000000D+00 0.000000000000D+00 0.163510893581D-05 0.000000000000D+00  6 4 1 25 24 3 1 4 0.32862086D+00 0.28964104D-02 0.19144104D+05 0.19144104D+05 0.19144104D+05 0.12359227D+01  1  2 12 10  6  2       21 0.163078014833D-05 0.100000000000D+01
0.177398529921D-06 0.000000000000D+00 0.000000000000D+00 0.163510893581D-05 0.000000000000D+00  6 4 2 25 24 3 2 4 0.32862086D+00 0.28964104D-02 0.19144104D+05 0.19144104D+05 0.19144104D+05 0.12359227D+01  1  2 12 10  6  2       21 0.170700482412D-05 0.100000000000D+01
-.100080908833D-05 0.000000000000D+00 -.172948750353D-06 0.164381292891D-05 0.000000000000D+00  6 4 1 25 24 3 1 4 0.32862086D+00 0.29188397D-02 0.17884326D+05 0.17884326D+05 0.17884326D+05 0.12392079D+01  1  2  5 10  6  2       21 -.919635956186D-05 0.100000000000D+01
-.100080908833D-05 0.000000000000D+00 -.172948750353D-06 0.164381292891D-05 0.000000000000D+00  6 4 2 25 24 3 2 4 0.32862086D+00 0.29188397D-02 0.17884326D+05 0.17884326D+05 0.17884326D+05 0.12392079D+01  1  2  5 10  6  2       21 -.962966051308D-05 0.100000000000D+01
0.682006426484D-09 0.000000000000D+00 0.000000000000D+00 0.164381292891D-05 0.229162545075D-08  6 4 1 25 24 3 1 4 0.33235982D+00 0.28810420D-02 0.19144104D+05 0.19144104D+05 0.19144104D+05 0.12359227D+01  1  2 11 10  6  2       21 0.600082841536D-08 0.100000000000D+01
0.682006426484D-09 0.000000000000D+00 0.000000000000D+00 0.164381292891D-05 0.229162545075D-08  6 4 2 25 24 3 2 4 0.33235982D+00 0.28810420D-02 0.19144104D+05 0.19144104D+05 0.19144104D+05 0.12359227D+01  1  2 11 10  6  2       21 0.627997549533D-08 0.100000000000D+01
  </mgrwgt>
  </event>
  <event>
  6     66 0.45638357E-03 0.31478167E+02 0.75467711E-02 0.12198300E+00
        2 -1    0    0  502    0 0.00000000E+00 0.00000000E+00 0.36700563E+03 0.36700577E+03 0.32000000E+00 0.0000E+00 0.9000E+01
       21 -1    0    0  501  502 0.00000000E+00 0.00000000E+00 -.52641285E+02 0.52646628E+02 0.75000000E+00 0.0000E+00 0.9000E+01
       25  1    1    2    0    0 -.42736909E+02 0.30068291E+02 0.12299252E+03 0.18298280E+03 0.12500000E+03 0.0000E+00 0.9000E+01
       24  1    1    2    0    0 0.89824217E+01 -.41163943E+02 0.13320175E+03 0.16119887E+03 0.80419002E+02 0.0000E+00 0.9000E+01
        1  1    1    2  503    0 0.44901073E+01 -.79043491E+01 0.19557602E+01 0.93041494E+01 0.32000000E+00 0.0000E+00 0.9000E+01
       21  1    1    2  501  503 0.29264380E+02 0.19000001E+02 0.56214305E+02 0.66166567E+02 0.75000000E+00 0.0000E+00 0.9000E+01
#aMCatNLO 2  0  0  5  2 0.11026380D+02 0.00000000D+00  -5  6  0 0.00000000D+00 0.00000000D+00 0.00000000D+00 0.00000000D+00 0.00000000D+00
  <mgrwgt>
 0.3501169882D+00    2    2    0
 0.138999273994051D+03 0.000000000000000D+00 0.000000000000000D+00 0.138999273994051D+03
 0.138999273994051D+03 -.000000000000000D+00 -.000000000000000D+00 -.138999273994051D+03
 0.138790254153635D+03 -.487661667249497D+02 0.280863760932026D+02 -.216967995090567D+02
 0.929487869592479D+02 0.492562579023850D+01 -.424974781001724D+02 0.184922580699335D+02
 0.462595068752189D+02 0.438405409347111D+02 0.144111020069698D+02 0.320454143912317D+01
 0.000000000000000D+00 -.000000000000000D+00 0.000000000000000D+00 0.000000000000000D+00
 0.138999273994051D+03 0.000000000000000D+00 0.000000000000000D+00 0.138999273994051D+03
 0.138999273994051D+03 -.000000000000000D+00 -.000000000000000D+00 -.138999273994051D+03
 0.137226114621472D+03 -.430785536567546D+02 0.299559874245043D+02 -.212810612134487D+02
 0.927195477094446D+02 0.875152079529917D+01 -.412398439102112D+02 0.187719133575749D+02
 0.110642070003010D+02 0.394884353837167D+01 -.749641139277822D+01 -.711527423822823D+01
 0.369886786568839D+02 0.303781893230837D+02 0.187802678784851D+02 0.962442209410200D+01
-.232959564381D-05 0.000000000000D+00 0.000000000000D+00 0.391659927544D-06 0.000000000000D+00  6 2 21 25 24 1 21 4 0.56462826D-01 0.80990810D-02 0.18299705D+05 0.18299705D+05 0.18299705D+05 0.12380968D+01  1  2 13  3  6  5        1 -.695627081072D-01 0.100000000000D+01
0.140547143566D-04 0.000000000000D+00 0.000000000000D+00 0.390815565867D-06 0.273936583906D-07  6 2 21 25 24 1 21 4 0.56462826D-01 0.80990810D-02 0.18299705D+05 0.18299705D+05 0.18299705D+05 0.12380968D+01  1  2  1  3  6  5        1 0.419679696308D+00 0.100000000000D+01
  </mgrwgt>
  </event>
  <event>
  5     66 0.45638357E-03 0.31095247E+02 0.75467711E-02 0.11048960E+00
        2 -1    0    0  502    0 0.00000000E+00 0.00000000E+00 0.11799988E+04 0.11799989E+04 0.32000000E+00 0.0000E+00 0.9000E+01
       21 -1    0    0  501  502 0.00000000E+00 0.00000000E+00 -.22565956E+02 0.22578416E+02 0.75000000E+00 0.0000E+00 0.9000E+01
       25  1    1    2    0    0 -.78454418E+02 -.38027669E+02 0.80383371E+03 0.81815331E+03 0.12500000E+03 0.0000E+00 0.9000E+01
       24  1    1    2    0    0 0.61366929E+02 0.64005646E+02 0.28354827E+03 0.30778151E+03 0.80419002E+02 0.0000E+00 0.9000E+01
        1  1    1    2  501    0 0.17087489E+02 -.25977976E+02 0.70050873E+02 0.76642447E+02 0.32000000E+00 0.0000E+00 0.9000E+01
#aMCatNLO 1  0  0  2  5 0.62752868D+02 0.00000000D+00  -5  6  0 0.00000000D+00 0.00000000D+00 0.00000000D+00 0.00000000D+00 0.00000000D+00
  <mgrwgt>
 0.2889056360D+00    3    2    0
 0.163203304934616D+03 0.000000000000000D+00 0.000000000000000D+00 0.163203304934616D+03
 0.163203304934616D+03 0.000000000000000D+00 0.000000000000000D+00 -.163203304934616D+03
 0.163933799110431D+03 -.784547986927237D+02 -.380270906064866D+02 0.603992999369135D+02
 0.128499136097692D+03 0.613666305176104D+02 0.640060993345182D+02 -.467136803343249D+02
 0.339736746611087D+02 0.170881681751133D+02 -.259790087280317D+02 -.136856196025886D+02
 0.000000000000000D+00 -.000000000000000D+00 0.000000000000000D+00 0.000000000000000D+00
 0.337303274398644D+03 0.000000000000000D+00 0.000000000000000D+00 0.337303274398644D+03
 0.237217516972267D+03 0.000000000000000D+00 0.000000000000000D+00 -.237217516972267D+03
 0.162685310072279D+03 -.973597476772262D+01 -.842534597257975D+02 0.603992999369135D+02
 0.154392942856614D+03 0.120885533168722D+03 0.239684123314723D+02 -.467136803343249D+02
 0.541861662631698D+02 0.356365029644983D+02 -.384562619979428D+02 -.136856196025886D+02
 0.203256372178849D+03 -.146786061365498D+03 0.987413093922681D+02 0.100085757426377D+03
0.124362281614D-04 0.000000000000D+00 0.000000000000D+00 0.481077994448D-06 0.000000000000D+00  6 2 21 25 24 1 21 2 0.18153924D+00 0.34726473D-02 0.22983187D+05 0.22983187D+05 0.22983187D+05 0.12272336D+01  1  2  2  2  6  2       21 0.243544757595D+00 0.100000000000D+01
0.436843556578D-06 0.656277790289D-06 -.251051616216D-07 0.481077994448D-06 0.000000000000D+00  6 2 21 25 24 1 21 4 0.18153924D+00 0.34726473D-02 0.22983187D+05 0.22983187D+05 0.22983187D+05 0.12272336D+01  1  2  3  2  6  2       21 0.128845867888D-01 0.100000000000D+01
0.110108759993D-05 0.000000000000D+00 0.000000000000D+00 0.481077994448D-06 0.000000000000D+00  6 2 21 25 24 1 21 4 0.18153924D+00 0.34726473D-02 0.22983187D+05 0.22983187D+05 0.22983187D+05 0.12272336D+01  1  2 15  2  6  2       21 0.324762916374D-01 0.100000000000D+01
  </mgrwgt>
  </event>
  <event>
  5     66 0.45638357E-03 0.90853935E+02 0.75467711E-02 0.11485697E+00
        2 -1    0    0  502    0 0.00000000E+00 0.00000000E+00 0.82461580E+03 0.82461586E+03 0.32000000E+00 0.0000E+00 0.9000E+01
       21 -1    0    0  501  502 0.00000000E+00 0.00000000E+00 -.10314783E+03 0.10315056E+03 0.75000000E+00 0.0000E+00 0.9000E+01
       25  1    1    2    0    0 -.58070766E+01 -.13696561E+03 0.48181897E+03 0.51630206E+03 0.12500000E+03 0.0000E+00 0.9000E+01
       24  1    1    2    0    0 -.60321962E+02 0.65979006E+02 0.28127089E+03 0.30589622E+03 0.80419002E+02 0.0000E+00 0.9000E+01
        1  1    1    2  501    0 0.66129038E+02 0.70986605E+02 -.41621892E+02 0.10556814E+03 0.32000000E+00 0.0000E+00 0.9000E+01
#aMCatNLO 1  0  0  5  2 0.24472766D+02 0.00000000D+00  -5  6  0 0.00000000D+00 0.00000000D+00 0.00000000D+00 0.00000000D+00 0.00000000D+00
  <mgrwgt>
 0.9264849737D-02    1    2    0
 0.291648121547134D+03 0.000000000000000D+00 0.000000000000000D+00 0.291648121547134D+03
 0.291648121547134D+03 -.000000000000000D+00 -.000000000000000D+00 -.291648121547134D+03
 0.225255698276719D+03 -.580710376134334D+01 -.136965640265443D+03 0.127756880592453D+03
 0.138647076937529D+03 -.603219782914093D+02 0.659789883815968D+02 0.690204898280381D+02
 0.219393467880020D+03 0.661290820527527D+02 0.709866518838462D+02 -.196777370420491D+03
 0.000000000000000D+00 0.000000000000000D+00 0.000000000000000D+00 0.000000000000000D+00
 0.291648121547134D+03 0.000000000000000D+00 0.000000000000000D+00 0.291648121547134D+03
 0.291648121547134D+03 -.000000000000000D+00 -.000000000000000D+00 -.291648121547134D+03
 0.205208341010166D+03 0.310924532311107D+01 -.127394332924021D+03 0.101224896900460D+03
 0.131851343681972D+03 -.547190518564101D+02 0.719934827012792D+02 0.523481106521242D+02
 0.813673819421983D+02 -.657740825247134D+02 0.211118110059804D+02 -.429966550816169D+02
 0.164869176459932D+03 0.117383889058012D+03 0.342890392167613D+02 -.110576352470968D+03
0.291591803930D-05 0.000000000000D+00 0.000000000000D+00 0.675424449608D-06 0.000000000000D+00  6 2 21 25 24 1 21 4 0.12686418D+00 0.15869112D-01 0.40558809D+05 0.40558809D+05 0.40558809D+05 0.12013889D+01  1  2 14  3  6  5        1 0.926484973737D-02 0.100000000000D+01
  </mgrwgt>
  </event>
  <event>
  5     66 0.45638357E-03 0.21358826E+02 0.75467711E-02 0.12210810E+00
        2 -1    0    0  502    0 0.00000000E+00 0.00000000E+00 0.16025465E+04 0.16025466E+04 0.32000000E+00 0.0000E+00 0.9000E+01
       21 -1    0    0  501  502 0.00000000E+00 0.00000000E+00 -.14025986E+02 0.14046024E+02 0.75000000E+00 0.0000E+00 0.9000E+01
       25  1    1    2    0    0 -.61357667E+01 0.56278541E+02 0.77019057E+03 0.78231927E+03 0.12500000E+03 0.0000E+00 0.9000E+01
       24  1    1    2    0    0 0.26730426E+02 -.61939322E+02 0.79770072E+03 0.80457731E+03 0.80419002E+02 0.0000E+00 0.9000E+01
        1  1    1    2  501    0 -.20594659E+02 0.56607804E+01 0.20629260E+02 0.29696013E+02 0.32000000E+00 0.0000E+00 0.9000E+01
#aMCatNLO 1  0  0  1  2 0.56463931D+01 0.00000000D+00  -5  6  0 0.00000000D+00 0.00000000D+00 0.00000000D+00 0.00000000D+00 0.00000000D+00
  <mgrwgt>
 0.1832994120D+00   11    2    0
 0.149978389676272D+03 0.000000000000000D+00 0.000000000000000D+00 0.149978389676272D+03
 0.149978389676272D+03 0.000000000000000D+00 0.000000000000000D+00 -.149978389676272D+03
 0.137446409237627D+03 -.613557946812615D+01 0.562784897403522D+02 0.784867310139255D+01
 0.111715385332656D+03 0.267305781942111D+02 -.619393634639524D+02 0.382374529582817D+02
 0.507949847822615D+02 -.205949987260850D+02 0.566087372360020D+01 -.460861260596742D+02
 0.000000000000000D+00 -.000000000000000D+00 0.000000000000000D+00 0.000000000000000D+00
 0.163098159463350D+03 0.000000000000000D+00 0.000000000000000D+00 0.163098159463350D+03
 0.150613705697315D+03 0.000000000000000D+00 0.000000000000000D+00 -.150613705697315D+03
 0.136799737028699D+03 -.396619667013136D+01 0.548801937464002D+02 0.784867310139255D+01
 0.112789785418575D+03 0.285064925037440D+02 -.630840456596982D+02 0.382374529582817D+02
 0.504203961127008D+02 -.197943497135268D+02 0.514480790623658D+01 -.460861260596742D+02
 0.137019466006906D+02 -.474594612008582D+01 0.305904400706143D+01 0.124844537660356D+02
0.115164615481D-05 0.000000000000D+00 0.000000000000D+00 0.253918313397D-05 0.000000000000D+00  6 2 21 25 24 1 21 2 0.24654717D+00 0.21593878D-02 0.17364478D+05 0.17364478D+05 0.17364478D+05 0.12406399D+01  1  2  2  1  6  1        2 0.298566816936D-01 0.100000000000D+01
0.148136028863D-06 0.607740372618D-07 -.232484178260D-08 0.253918313397D-05 0.000000000000D+00  6 2 21 25 24 1 21 4 0.24654717D+00 0.21593878D-02 0.17364478D+05 0.17364478D+05 0.17364478D+05 0.12406399D+01  1  2  3  1  6  1        2 0.591118663326D-02 0.100000000000D+01
0.112494841280D-06 0.000000000000D+00 0.000000000000D+00 0.253918313397D-05 0.000000000000D+00  6 2 21 25 24 1 21 4 0.24654717D+00 0.21593878D-02 0.17364478D+05 0.17364478D+05 0.17364478D+05 0.12406399D+01  1  2 15  1  6  1        2 0.448896873492D-02 0.100000000000D+01
0.294028041444D-04 0.000000000000D+00 0.000000000000D+00 0.253137728308D-05 0.000000000000D+00  6 2 21 25 24 1 21 4 0.26861009D+00 0.21593878D-02 0.18061114D+05 0.18061114D+05 0.18061114D+05 0.12387315D+01  1  2 12  1  6  1        2 0.984523329667D+00 0.100000000000D+01
-.421256169042D-04 0.000000000000D+00 0.000000000000D+00 0.253918313397D-05 0.000000000000D+00  6 2 21 25 24 1 21 4 0.24654717D+00 0.21593878D-02 0.17364478D+05 0.17364478D+05 0.17364478D+05 0.12406399D+01  1  2  4  1  6  1        2 -.168097110117D+01 0.100000000000D+01
-.620836987876D-04 0.000000000000D+00 -.431293476625D-05 0.253918313397D-05 0.000000000000D+00  6 2 21 25 24 1 21 4 0.26853290D+00 0.21593878D-02 0.17364478D+05 0.17364478D+05 0.17364478D+05 0.12406399D+01  1  2  5  1  6  1        2 -.209295944929D+01 0.100000000000D+01
0.622405870259D-04 0.000000000000D+00 0.429724758841D-05 0.253918313397D-05 0.000000000000D+00  6 2 21 25 24 1 21 4 0.24654717D+00 0.21593878D-02 0.17364478D+05 0.17364478D+05 0.17364478D+05 0.12406399D+01  1  2  6  1  6  1        2 0.248363432513D+01 0.100000000000D+01
0.135451128643D-04 0.000000000000D+00 0.000000000000D+00 0.253918313397D-05 0.690059647023D-06  6 2 21 25 24 1 21 4 0.26811455D+00 0.21685351D-02 0.18061114D+05 0.18061114D+05 0.18061114D+05 0.12387315D+01  1  2 11  1  6  1        2 0.452160014756D+00 0.100000000000D+01
0.431860966033D-06 0.000000000000D+00 0.000000000000D+00 0.253137728308D-05 0.000000000000D+00  6 21 21 25 24 1 -2 4 0.26861009D+00 0.21593878D-02 0.18061114D+05 0.18061114D+05 0.18061114D+05 0.12387315D+01  1  2 12  4  6  1        2 0.602375250979D-02 0.100000000000D+01
-.868230213823D-06 0.000000000000D+00 -.610488561399D-07 0.253918313397D-05 0.000000000000D+00  6 21 21 25 24 1 -2 4 0.26853290D+00 0.21593878D-02 0.17364478D+05 0.17364478D+05 0.17364478D+05 0.12406399D+01  1  2  5  4  6  1        2 -.122299156153D-01 0.100000000000D+01
0.205235109282D-06 0.000000000000D+00 0.000000000000D+00 0.253918313397D-05 0.987262371794D-08  6 21 21 25 24 1 -2 4 0.26811455D+00 0.21685351D-02 0.18061114D+05 0.18061114D+05 0.18061114D+05 0.12387315D+01  1  2 11  4  6  1        2 0.286161892531D-02 0.100000000000D+01
  </mgrwgt>
  </event>
  <event>
  5     66 0.45638357E-03 0.34331132E+02 0.75467711E-02 0.11968167E+00
        2 -1    0    0  502    0 0.00000000E+00 0.00000000E+00 0.64968485E+03 0.64968493E+03 0.32000000E+00 0.0000E+00 0.9000E+01
       21 -1    0    0  501  502 0.00000000E+00 0.00000000E+00 -.36656248E+02 0.36663920E+02 0.75000000E+00 0.0000E+00 0.9000E+01
       25  1    1    2    0    0 -.27126320E+02 -.78710046E+02 0.23428998E+03 0.27829463E+03 0.12500000E+03 0.0000E+00 0.9000E+01
       24  1    1    2    0    0 -.70816095E+01 0.75818160E+02 0.33252789E+03 0.35048617E+03 0.80419002E+02 0.0000E+00 0.9000E+01
        1  1    1    2  501    0 0.34207930E+02 0.28918860E+01 0.46210730E+02 0.57568041E+02 0.32000000E+00 0.0000E+00 0.9000E+01
#aMCatNLO 1  0  0  2  1 0.10442970D+02 0.00000000D+00  -5  6  0 0.00000000D+00 0.00000000D+00 0.00000000D+00 0.00000000D+00 0.00000000D+00
  <mgrwgt>
 0.2929438890D+00   23    2    0
 0.154329740866990D+03 0.000000000000000D+00 0.000000000000000D+00 0.154329740866990D+03
 0.154329740866990D+03 0.000000000000000D+00 0.000000000000000D+00 -.154329740866990D+03
 0.153504999758457D+03 -.271269836323347D+02 -.787101023845345D+02 -.317432117541870D+02
 0.118922940811507D+03 -.708212359082710D+01 0.758181168508742D+02 0.433232798795073D+02
 0.362315411640154D+02 0.342091072231618D+02 0.289198553366032D+01 -.115800681253203D+02
 0.000000000000000D+00 -.000000000000000D+00 -.000000000000000D+00 -.000000000000000D+00
 0.158098555030899D+03 0.000000000000000D+00 0.000000000000000D+00 0.158098555030899D+03
 0.161825690508397D+03 0.000000000000000D+00 0.000000000000000D+00 -.161825690508397D+03
 0.150815612333360D+03 -.262858005582252D+02 -.736326973567334D+02 -.317432117541870D+02
 0.121482505841484D+03 -.641761062452428D+01 0.798291360689165D+02 0.433232798795073D+02
 0.365379731257718D+02 0.344102519412635D+02 0.410610078923207D+01 -.115800681253203D+02
 0.110881542386807D+02 -.170684075851398D+01 -.103025395014152D+02 -.372713547749854D+01
0.185349007264D-05 0.000000000000D+00 0.000000000000D+00 0.474016710970D-06 0.000000000000D+00  6 2 21 25 24 1 21 2 0.99952112D-01 0.56400190D-02 0.21795958D+05 0.21795958D+05 0.21795958D+05 0.12297356D+01  1  2  2  2  6  2       21 0.353571888145D-01 0.100000000000D+01
0.317378635337D-07 0.978113583486D-07 -.374166244250D-08 0.474016710970D-06 0.000000000000D+00  6 2 21 25 24 1 21 4 0.99952112D-01 0.56400190D-02 0.21795958D+05 0.21795958D+05 0.21795958D+05 0.12297356D+01  1  2  3  2  6  2       21 0.915563934382D-03 0.100000000000D+01
0.182784293989D-06 0.000000000000D+00 0.000000000000D+00 0.474016710970D-06 0.000000000000D+00  6 2 21 25 24 1 21 4 0.99952112D-01 0.56400190D-02 0.21795958D+05 0.21795958D+05 0.21795958D+05 0.12297356D+01  1  2 15  2  6  2       21 0.527290399273D-02 0.100000000000D+01
0.584537566784D-05 0.000000000000D+00 0.000000000000D+00 0.471419604427D-06 0.000000000000D+00  6 2 21 25 24 1 21 4 0.99952112D-01 0.59802757D-02 0.23413500D+05 0.23413500D+05 0.23413500D+05 0.12263622D+01  1  2 12  2  6  2       21 0.151107393536D+00 0.100000000000D+01
-.182950546933D-05 0.000000000000D+00 0.000000000000D+00 0.474016710970D-06 0.000000000000D+00  6 2 21 25 24 1 21 4 0.99952112D-01 0.56400190D-02 0.21795958D+05 0.21795958D+05 0.21795958D+05 0.12297356D+01  1  2  4  2  6  2       21 -.527770000553D-01 0.100000000000D+01
-.478876416320D-04 0.000000000000D+00 -.800934850132D-05 0.474016710970D-06 0.000000000000D+00  6 2 21 25 24 1 21 4 0.99952112D-01 0.60581469D-02 0.21795958D+05 0.21795958D+05 0.21795958D+05 0.12297356D+01  1  2  5  2  6  2       21 -.122342235801D+01 0.100000000000D+01
0.479489943250D-04 0.000000000000D+00 0.792800896223D-05 0.474016710970D-06 0.000000000000D+00  6 2 21 25 24 1 21 4 0.99952112D-01 0.56400190D-02 0.21795958D+05 0.21795958D+05 0.21795958D+05 0.12297356D+01  1  2  6  2  6  2       21 0.138321755172D+01 0.100000000000D+01
0.994184692830D-07 0.000000000000D+00 0.000000000000D+00 0.471419604427D-06 0.000000000000D+00  6 2 -1 25 24 1 -1 4 0.99952112D-01 0.59802757D-02 0.23413500D+05 0.23413500D+05 0.23413500D+05 0.12263622D+01  1  2 12  5  6  2       21 0.152962624091D-03 0.100000000000D+01
-.729537879821D-06 0.000000000000D+00 -.140962413263D-06 0.474016710970D-06 0.000000000000D+00  6 2 -1 25 24 1 -1 4 0.99952112D-01 0.60581469D-02 0.21795958D+05 0.21795958D+05 0.21795958D+05 0.12297356D+01  1  2  5  5  6  2       21 -.111109152110D-02 0.100000000000D+01
0.994184692830D-07 0.000000000000D+00 0.000000000000D+00 0.471419604427D-06 0.000000000000D+00  6 2 1 25 24 1 1 4 0.99952112D-01 0.59802757D-02 0.23413500D+05 0.23413500D+05 0.23413500D+05 0.12263622D+01  1  2 12  6  6  2       21 0.176155612999D-03 0.100000000000D+01
-.729537879821D-06 0.000000000000D+00 -.140962413263D-06 0.474016710970D-06 0.000000000000D+00  6 2 1 25 24 1 1 4 0.99952112D-01 0.60581469D-02 0.21795958D+05 0.21795958D+05 0.21795958D+05 0.12297356D+01  1  2  5  6  6  2       21 -.128189326722D-02 0.100000000000D+01
0.994184692830D-07 0.000000000000D+00 0.000000000000D+00 0.471419604427D-06 0.000000000000D+00  6 2 -2 25 24 1 -2 4 0.99952112D-01 0.59802757D-02 0.23413500D+05 0.23413500D+05 0.23413500D+05 0.12263622D+01  1  2 12  7  6  2       21 0.148895463655D-03 0.100000000000D+01
-.729537879821D-06 0.000000000000D+00 -.140962413263D-06 0.474016710970D-06 0.000000000000D+00  6 2 -2 25 24 1 -2 4 0.99952112D-01 0.60581469D-02 0.21795958D+05 0.21795958D+05 0.21795958D+05 0.12297356D+01  1  2  5  7  6  2       21 -.108114353187D-02 0.100000000000D+01
0.994184692830D-07 0.000000000000D+00 0.000000000000D+00 0.471419604427D-06 0.000000000000D+00  6 2 2 25 24 1 2 4 0.99952112D-01 0.59802757D-02 0.23413500D+05 0.23413500D+05 0.23413500D+05 0.12263622D+01  1  2 12  8  6  2       21 0.191729729865D-03 0.100000000000D+01
-.729537879821D-06 0.000000000000D+00 -.140962413263D-06 0.474016710970D-06 0.000000000000D+00  6 2 2 25 24 1 2 4 0.99952112D-01 0.60581469D-02 0.21795958D+05 0.21795958D+05 0.21795958D+05 0.12297356D+01  1  2  5  8  6  2       21 -.139654360374D-02 0.100000000000D+01
0.994184692830D-07 0.000000000000D+00 0.000000000000D+00 0.471419604427D-06 0.000000000000D+00  6 2 -3 25 24 1 -3 4 0.99952112D-01 0.59802757D-02 0.23413500D+05 0.23413500D+05 0.23413500D+05 0.12263622D+01  1  2 12  9  6  2       21 0.107228868175D-03 0.100000000000D+01
0.994184692830D-07 0.000000000000D+00 0.000000000000D+00 0.471419604427D-06 0.000000000000D+00  6 2 -4 25 24 1 -4 4 0.99952112D-01 0.59802757D-02 0.23413500D+05 0.23413500D+05 0.23413500D+05 0.12263622D+01  1  2 12  9  6  2       21 0.952636896737D-04 0.100000000000D+01
-.729537879821D-06 0.000000000000D+00 -.140962413263D-06 0.474016710970D-06 0.000000000000D+00  6 2 -3 25 24 1 -3 4 0.99952112D-01 0.60581469D-02 0.21795958D+05 0.21795958D+05 0.21795958D+05 0.12297356D+01  1  2  5  9  6  2       21 -.776565079102D-03 0.100000000000D+01
-.729537879821D-06 0.000000000000D+00 -.140962413263D-06 0.474016710970D-06 0.000000000000D+00  6 2 -4 25 24 1 -4 4 0.99952112D-01 0.60581469D-02 0.21795958D+05 0.21795958D+05 0.21795958D+05 0.12297356D+01  1  2  5  9  6  2       21 -.689176684340D-03 0.100000000000D+01
0.994184692830D-07 0.000000000000D+00 0.000000000000D+00 0.471419604427D-06 0.000000000000D+00  6 2 3 25 24 1 3 4 0.99952112D-01 0.59802757D-02 0.23413500D+05 0.23413500D+05 0.23413500D+05 0.12263622D+01  1  2 12 10  6  2       21 0.107217498994D-03 0.100000000000D+01
0.994184692830D-07 0.000000000000D+00 0.000000000000D+00 0.471419604427D-06 0.000000000000D+00  6 2 4 25 24 1 4 4 0.99952112D-01 0.59802757D-02 0.23413500D+05 0.23413500D+05 0.23413500D+05 0.12263622D+01  1  2 12 10  6  2       21 0.952636896737D-04 0.100000000000D+01
-.729537879821D-06 0.000000000000D+00 -.140962413263D-06 0.474016710970D-06 0.000000000000D+00  6 2 3 25 24 1 3 4 0.99952112D-01 0.60581469D-02 0.21795958D+05 0.21795958D+05 0.21795958D+05 0.12297356D+01  1  2  5 10  6  2       21 -.776481768932D-03 0.100000000000D+01
-.729537879821D-06 0.000000000000D+00 -.140962413263D-06 0.474016710970D-06 0.000000000000D+00  6 2 4 25 24 1 4 4 0.99952112D-01 0.60581469D-02 0.21795958D+05 0.21795958D+05 0.21795958D+05 0.12297356D+01  1  2  5 10  6  2       21 -.689176684340D-03 0.100000000000D+01
  </mgrwgt>
  </event>
  <event>
  5     66 0.45638357E-03 0.71036846E+02 0.75467711E-02 0.98939738E-01
        2 -1    0    0  502    0 0.00000000E+00 0.00000000E+00 0.11097428E+04 0.11097428E+04 0.32000000E+00 0.0000E+00 0.9000E+01
       21 -1    0    0  501  502 0.00000000E+00 0.00000000E+00 -.93170173E+02 0.93173191E+02 0.75000000E+00 0.0000E+00 0.9000E+01
       25  1    1    2    0    0 0.47176875E+02 -.11472483E+03 0.23501568E+03 0.29367467E+03 0.12500000E+03 0.0000E+00 0.9000E+01
       24  1    1    2    0    0 -.87293960E+02 0.56100219E+02 0.81864526E+03 0.82910478E+03 0.80419002E+02 0.0000E+00 0.9000E+01
        1  1    1    2  501    0 0.40117085E+02 0.58624610E+02 -.37088313E+02 0.80136576E+02 0.32000000E+00 0.0000E+00 0.9000E+01
#aMCatNLO 1  0  0  2  2 0.45992944D+01 0.00000000D+00  -5  6  0 0.00000000D+00 0.00000000D+00 0.00000000D+00 0.00000000D+00 0.00000000D+00
  <mgrwgt>
 0.3147137227D+00    3    2    0
 0.321553682910995D+03 0.000000000000000D+00 0.000000000000000D+00 0.321553682910995D+03
 0.321553682910995D+03 0.000000000000000D+00 0.000000000000000D+00 -.321553682910995D+03
 0.177817069266906D+03 0.471768617000962D+02 -.114724848526437D+03 -.246264689589841D+02
 0.256770706457073D+03 -.872939790701294D+02 0.561001915950466D+02 0.220672856194859D+03
 0.208519590098011D+03 0.401171173700332D+02 0.586246569313905D+02 -.196046387235874D+03
 0.000000000000000D+00 0.000000000000000D+00 0.000000000000000D+00 0.000000000000000D+00
 0.162040379599230D+04 0.000000000000000D+00 0.000000000000000D+00 0.162040379599230D+04
 0.496308319155894D+03 0.000000000000000D+00 0.000000000000000D+00 -.496308319155894D+03
 0.332454235670407D+03 0.235287197077269D+02 -.306171120765368D+03 -.246264689589841D+02
 0.302724353682164D+03 -.113223359182592D+03 -.153814108039954D+03 0.220672856194859D+03
 0.222393537571122D+03 0.201467707507038D+02 -.103047596932089D+03 -.196046387235874D+03
 0.125913998822450D+04 0.695478687241613D+02 0.563032825737411D+03 0.112409547683640D+04
0.144103294755D-03 0.000000000000D+00 0.000000000000D+00 0.455669851122D-06 0.000000000000D+00  6 2 21 25 24 1 21 2 0.17072990D+00 0.14334108D-01 0.35800671D+05 0.35800671D+05 0.35800671D+05 0.12069227D+01  1  2  2  2  6  2       21 0.257366278789D+00 0.100000000000D+01
0.776372701998D-05 0.760453978716D-05 -.290903034111D-06 0.455669851122D-06 0.000000000000D+00  6 2 21 25 24 1 21 4 0.17072990D+00 0.14334108D-01 0.35800671D+05 0.35800671D+05 0.35800671D+05 0.12069227D+01  1  2  3  2  6  2       21 0.201979330729D-01 0.100000000000D+01
0.142796126801D-04 0.000000000000D+00 0.000000000000D+00 0.455669851122D-06 0.000000000000D+00  6 2 21 25 24 1 21 4 0.17072990D+00 0.14334108D-01 0.35800671D+05 0.35800671D+05 0.35800671D+05 0.12069227D+01  1  2 15  2  6  2       21 0.371495108569D-01 0.100000000000D+01
  </mgrwgt>
  </event>
  <event>
  5     66 0.45638357E-03 0.24416780E+02 0.75467711E-02 0.12047885E+00
        2 -1    0    0  502    0 0.00000000E+00 0.00000000E+00 0.41612335E+04 0.41612335E+04 0.32000000E+00 0.0000E+00 0.9000E+01
       21 -1    0    0  501  502 0.00000000E+00 0.00000000E+00 -.53535083E+01 0.54057887E+01 0.75000000E+00 0.0000E+00 0.9000E+01
       25  1    1    2    0    0 -.67711671E+02 0.61341682E+02 0.27224425E+04 0.27268417E+04 0.12500000E+03 0.0000E+00 0.9000E+01
       24  1    1    2    0    0 0.43321105E+02 -.60241154E+02 0.12416285E+04 0.12464407E+04 0.80419002E+02 0.0000E+00 0.9000E+01
        1  1    1    2  501    0 0.24390566E+02 -.11005282E+01 0.19180900E+03 0.19335694E+03 0.32000000E+00 0.0000E+00 0.9000E+01
#aMCatNLO 1  0  0  2  5 0.43412116D+01 0.00000000D+00  -5  6  0 0.00000000D+00 0.00000000D+00 0.00000000D+00 0.00000000D+00 0.00000000D+00
  <mgrwgt>
 0.1099479409D+00   41    2    0
 0.149619985261941D+03 0.000000000000000D+00 0.000000000000000D+00 0.149619985261941D+03
 0.149619985261941D+03 0.000000000000000D+00 0.000000000000000D+00 -.149619985261941D+03
 0.159142382406740D+03 -.677124912952875D+02 0.613417194403873D+02 0.367900782382357D+02
 0.111647566558574D+03 0.433205289375867D+02 -.602411282483505D+02 -.221878661437794D+02
 0.284500215585678D+02 0.243919623577008D+02 -.110059119203678D+01 -.146022120944564D+02
 0.000000000000000D+00 -.000000000000000D+00 -.000000000000000D+00 -.000000000000000D+00
 0.149745810335455D+03 0.000000000000000D+00 0.000000000000000D+00 0.149745810335455D+03
 0.192436331891031D+03 0.000000000000000D+00 0.000000000000000D+00 -.192436331891031D+03
 0.158729487161364D+03 -.656942383469270D+02 0.624564431083879D+02 0.367900782382357D+02
 0.111786917583455D+03 0.447391738368593D+02 -.594575807514957D+02 -.221878661437794D+02
 0.287550540965256D+02 0.247551725806090D+02 -.899982525880998D+00 -.146022120944564D+02
 0.429106833851417D+02 -.380010807054138D+01 -.209887983101125D+01 -.426905215555755D+02
0.190209582361D-05 0.000000000000D+00 0.000000000000D+00 0.860310884990D-06 0.000000000000D+00  6 2 21 25 24 1 21 2 0.64019379D+00 0.82763918D-03 0.20832435D+05 0.20832435D+05 0.20832435D+05 0.12318811D+01  1  2  2  2  6  2       21 0.675623365838D-02 0.100000000000D+01
0.129144660401D-06 0.100376354296D-06 -.383978344977D-08 0.860310884990D-06 0.000000000000D+00  6 2 21 25 24 1 21 4 0.64019379D+00 0.82763918D-03 0.20832435D+05 0.20832435D+05 0.20832435D+05 0.12318811D+01  1  2  3  2  6  2       21 0.696123495372D-03 0.100000000000D+01
0.204859647450D-06 0.000000000000D+00 0.000000000000D+00 0.860310884990D-06 0.000000000000D+00  6 2 21 25 24 1 21 4 0.64019379D+00 0.82763918D-03 0.20832435D+05 0.20832435D+05 0.20832435D+05 0.12318811D+01  1  2 15  2  6  2       21 0.110424707767D-02 0.100000000000D+01
0.375077736711D-04 0.000000000000D+00 0.000000000000D+00 0.858298876291D-06 0.000000000000D+00  6 2 21 25 24 1 21 4 0.64019379D+00 0.10647619D-02 0.21474357D+05 0.21474357D+05 0.21474357D+05 0.12304397D+01  1  2 12  2  6  2       21 0.135058904309D+00 0.100000000000D+01
0.362466798056D-04 0.000000000000D+00 0.000000000000D+00 0.858298876291D-06 0.000000000000D+00  6 2 21 25 24 1 21 4 0.64019379D+00 0.10727662D-02 0.21474357D+05 0.21474357D+05 0.21474357D+05 0.12304397D+01  1  2 12  2  6  2       21 0.128979126591D+00 0.100000000000D+01
-.349294508122D-03 0.000000000000D+00 0.000000000000D+00 0.860310884990D-06 0.000000000000D+00  6 2 21 25 24 1 21 4 0.64019379D+00 0.82763918D-03 0.20832435D+05 0.20832435D+05 0.20832435D+05 0.12318811D+01  1  2  4  2  6  2       21 -.188278875142D+01 0.100000000000D+01
-.433813985591D-03 0.000000000000D+00 -.286008370347D-05 0.860310884990D-06 0.000000000000D+00  6 2 21 25 24 1 21 4 0.64019379D+00 0.10658280D-02 0.20832435D+05 0.20832435D+05 0.20832435D+05 0.12318811D+01  1  2  5  2  6  2       21 -.156938464545D+01 0.100000000000D+01
0.388853641537D-03 0.000000000000D+00 0.252486458304D-05 0.860310884990D-06 0.000000000000D+00  6 2 21 25 24 1 21 4 0.64019379D+00 0.82763918D-03 0.20832435D+05 0.20832435D+05 0.20832435D+05 0.12318811D+01  1  2  6  2  6  2       21 0.209602282661D+01 0.100000000000D+01
0.332851442197D-03 0.000000000000D+00 0.000000000000D+00 0.860310884990D-06 0.883074773362D-06  6 2 21 25 24 1 21 4 0.64073217D+00 0.10644824D-02 0.21474357D+05 0.21474357D+05 0.21474357D+05 0.12304397D+01  1  2 11  2  6  2       21 0.119137174975D+01 0.100000000000D+01
0.265908537653D-05 0.000000000000D+00 0.000000000000D+00 0.858298876291D-06 0.000000000000D+00  6 2 -1 25 24 1 -1 4 0.64019379D+00 0.10647619D-02 0.21474357D+05 0.21474357D+05 0.21474357D+05 0.12304397D+01  1  2 12  5  6  2       21 0.416815674867D-03 0.100000000000D+01
0.266047228364D-05 0.000000000000D+00 0.000000000000D+00 0.858298876291D-06 0.000000000000D+00  6 2 -1 25 24 1 -1 4 0.64019379D+00 0.10727662D-02 0.21474357D+05 0.21474357D+05 0.21474357D+05 0.12304397D+01  1  2 12  5  6  2       21 0.412590894903D-03 0.100000000000D+01
-.308031953660D-04 0.000000000000D+00 -.218332040542D-06 0.860310884990D-06 0.000000000000D+00  6 2 -1 25 24 1 -1 4 0.64019379D+00 0.10658280D-02 0.20832435D+05 0.20832435D+05 0.20832435D+05 0.12318811D+01  1  2  5  5  6  2       21 -.484955381875D-02 0.100000000000D+01
0.318296936566D-04 0.000000000000D+00 0.000000000000D+00 0.860310884990D-06 0.842691867134D-07  6 2 -1 25 24 1 -1 4 0.64073217D+00 0.10644824D-02 0.21474357D+05 0.21474357D+05 0.21474357D+05 0.12304397D+01  1  2 11  5  6  2       21 0.495931429820D-02 0.100000000000D+01
0.265908537653D-05 0.000000000000D+00 0.000000000000D+00 0.858298876291D-06 0.000000000000D+00  6 2 1 25 24 1 1 4 0.64019379D+00 0.10647619D-02 0.21474357D+05 0.21474357D+05 0.21474357D+05 0.12304397D+01  1  2 12  6  6  2       21 0.428181999969D-03 0.100000000000D+01
0.266047228364D-05 0.000000000000D+00 0.000000000000D+00 0.858298876291D-06 0.000000000000D+00  6 2 1 25 24 1 1 4 0.64019379D+00 0.10727662D-02 0.21474357D+05 0.21474357D+05 0.21474357D+05 0.12304397D+01  1  2 12  6  6  2       21 0.423925330582D-03 0.100000000000D+01
-.308031953660D-04 0.000000000000D+00 -.218332040542D-06 0.860310884990D-06 0.000000000000D+00  6 2 1 25 24 1 1 4 0.64019379D+00 0.10658280D-02 0.20832435D+05 0.20832435D+05 0.20832435D+05 0.12318811D+01  1  2  5  6  6  2       21 -.498205463282D-02 0.100000000000D+01
0.270679108900D-04 0.000000000000D+00 0.000000000000D+00 0.860310884990D-06 0.353769725703D-07  6 2 1 25 24 1 1 4 0.64073217D+00 0.10644824D-02 0.21474357D+05 0.21474357D+05 0.21474357D+05 0.12304397D+01  1  2 11  6  6  2       21 0.433236755782D-02 0.100000000000D+01
0.265908537653D-05 0.000000000000D+00 0.000000000000D+00 0.858298876291D-06 0.000000000000D+00  6 2 -2 25 24 1 -2 4 0.64019379D+00 0.10647619D-02 0.21474357D+05 0.21474357D+05 0.21474357D+05 0.12304397D+01  1  2 12  7  6  2       21 0.414849199099D-03 0.100000000000D+01
0.266047228364D-05 0.000000000000D+00 0.000000000000D+00 0.858298876291D-06 0.000000000000D+00  6 2 -2 25 24 1 -2 4 0.64019379D+00 0.10727662D-02 0.21474357D+05 0.21474357D+05 0.21474357D+05 0.12304397D+01  1  2 12  7  6  2       21 0.410628519173D-03 0.100000000000D+01
-.308031953660D-04 0.000000000000D+00 -.218332040542D-06 0.860310884990D-06 0.000000000000D+00  6 2 -2 25 24 1 -2 4 0.64019379D+00 0.10658280D-02 0.20832435D+05 0.20832435D+05 0.20832435D+05 0.12318811D+01  1  2  5  7  6  2       21 -.482662949553D-02 0.100000000000D+01
0.270341190198D-04 0.000000000000D+00 0.000000000000D+00 0.860310884990D-06 0.705287748968D-07  6 2 -2 25 24 1 -2 4 0.64073217D+00 0.10644824D-02 0.21474357D+05 0.21474357D+05 0.21474357D+05 0.12304397D+01  1  2 11  7  6  2       21 0.419225984436D-02 0.100000000000D+01
0.265908537653D-05 0.000000000000D+00 0.000000000000D+00 0.858298876291D-06 0.000000000000D+00  6 2 2 25 24 1 2 4 0.64019379D+00 0.10647619D-02 0.21474357D+05 0.21474357D+05 0.21474357D+05 0.12304397D+01  1  2 12  8  6  2       21 0.436111002510D-03 0.100000000000D+01
0.266047228364D-05 0.000000000000D+00 0.000000000000D+00 0.858298876291D-06 0.000000000000D+00  6 2 2 25 24 1 2 4 0.64019379D+00 0.10727662D-02 0.21474357D+05 0.21474357D+05 0.21474357D+05 0.12304397D+01  1  2 12  8  6  2       21 0.431831121278D-03 0.100000000000D+01
-.308031953660D-04 0.000000000000D+00 -.218332040542D-06 0.860310884990D-06 0.000000000000D+00  6 2 2 25 24 1 2 4 0.64019379D+00 0.10658280D-02 0.20832435D+05 0.20832435D+05 0.20832435D+05 0.12318811D+01  1  2  5  8  6  2       21 -.507448099499D-02 0.100000000000D+01
0.270163024749D-04 0.000000000000D+00 0.000000000000D+00 0.860310884990D-06 0.704956864813D-07  6 2 2 25 24 1 2 4 0.64073217D+00 0.10644824D-02 0.21474357D+05 0.21474357D+05 0.21474357D+05 0.12304397D+01  1  2 11  8  6  2       21 0.440416063272D-02 0.100000000000D+01
0.265908537653D-05 0.000000000000D+00 0.000000000000D+00 0.858298876291D-06 0.000000000000D+00  6 2 -3 25 24 1 -3 4 0.64019379D+00 0.10647619D-02 0.21474357D+05 0.21474357D+05 0.21474357D+05 0.12304397D+01  1  2 12  9  6  2       21 0.338228831610D-03 0.100000000000D+01
0.265908537653D-05 0.000000000000D+00 0.000000000000D+00 0.858298876291D-06 0.000000000000D+00  6 2 -4 25 24 1 -4 4 0.64019379D+00 0.10647619D-02 0.21474357D+05 0.21474357D+05 0.21474357D+05 0.12304397D+01  1  2 12  9  6  2       21 0.310628987613D-03 0.100000000000D+01
0.266047228364D-05 0.000000000000D+00 0.000000000000D+00 0.858298876291D-06 0.000000000000D+00  6 2 -3 25 24 1 -3 4 0.64019379D+00 0.10727662D-02 0.21474357D+05 0.21474357D+05 0.21474357D+05 0.12304397D+01  1  2 12  9  6  2       21 0.334630392772D-03 0.100000000000D+01
0.266047228364D-05 0.000000000000D+00 0.000000000000D+00 0.858298876291D-06 0.000000000000D+00  6 2 -4 25 24 1 -4 4 0.64019379D+00 0.10727662D-02 0.21474357D+05 0.21474357D+05 0.21474357D+05 0.12304397D+01  1  2 12  9  6  2       21 0.307294014957D-03 0.100000000000D+01
-.308031953660D-04 0.000000000000D+00 -.218332040542D-06 0.860310884990D-06 0.000000000000D+00  6 2 -3 25 24 1 -3 4 0.64019379D+00 0.10658280D-02 0.20832435D+05 0.20832435D+05 0.20832435D+05 0.12318811D+01  1  2  5  9  6  2       21 -.393274754807D-02 0.100000000000D+01
-.308031953660D-04 0.000000000000D+00 -.218332040542D-06 0.860310884990D-06 0.000000000000D+00  6 2 -4 25 24 1 -4 4 0.64019379D+00 0.10658280D-02 0.20832435D+05 0.20832435D+05 0.20832435D+05 0.12318811D+01  1  2  5  9  6  2       21 -.361076400788D-02 0.100000000000D+01
0.270196196832D-04 0.000000000000D+00 0.000000000000D+00 0.860310884990D-06 0.704909478661D-07  6 2 -3 25 24 1 -3 4 0.64073217D+00 0.10644824D-02 0.21474357D+05 0.21474357D+05 0.21474357D+05 0.12304397D+01  1  2 11  9  6  2       21 0.341619553267D-02 0.100000000000D+01
0.270196196832D-04 0.000000000000D+00 0.000000000000D+00 0.860310884990D-06 0.704909478661D-07  6 2 -4 25 24 1 -4 4 0.64073217D+00 0.10644824D-02 0.21474357D+05 0.21474357D+05 0.21474357D+05 0.12304397D+01  1  2 11  9  6  2       21 0.313744100148D-02 0.100000000000D+01
0.265908537653D-05 0.000000000000D+00 0.000000000000D+00 0.858298876291D-06 0.000000000000D+00  6 2 3 25 24 1 3 4 0.64019379D+00 0.10647619D-02 0.21474357D+05 0.21474357D+05 0.21474357D+05 0.12304397D+01  1  2 12 10  6  2       21 0.338216466913D-03 0.100000000000D+01
0.265908537653D-05 0.000000000000D+00 0.000000000000D+00 0.858298876291D-06 0.000000000000D+00  6 2 4 25 24 1 4 4 0.64019379D+00 0.10647619D-02 0.21474357D+05 0.21474357D+05 0.21474357D+05 0.12304397D+01  1  2 12 10  6  2       21 0.310628987613D-03 0.100000000000D+01
0.266047228364D-05 0.000000000000D+00 0.000000000000D+00 0.858298876291D-06 0.000000000000D+00  6 2 3 25 24 1 3 4 0.64019379D+00 0.10727662D-02 0.21474357D+05 0.21474357D+05 0.21474357D+05 0.12304397D+01  1  2 12 10  6  2       21 0.334618093294D-03 0.100000000000D+01
0.266047228364D-05 0.000000000000D+00 0.000000000000D+00 0.858298876291D-06 0.000000000000D+00  6 2 4 25 24 1 4 4 0.64019379D+00 0.10727662D-02 0.21474357D+05 0.21474357D+05 0.21474357D+05 0.12304397D+01  1  2 12 10  6  2       21 0.307294014957D-03 0.100000000000D+01
-.308031953660D-04 0.000000000000D+00 -.218332040542D-06 0.860310884990D-06 0.000000000000D+00  6 2 3 25 24 1 3 4 0.64019379D+00 0.10658280D-02 0.20832435D+05 0.20832435D+05 0.20832435D+05 0.12318811D+01  1  2  5 10  6  2       21 -.393260330813D-02 0.100000000000D+01
-.308031953660D-04 0.000000000000D+00 -.218332040542D-06 0.860310884990D-06 0.000000000000D+00  6 2 4 25 24 1 4 4 0.64019379D+00 0.10658280D-02 0.20832435D+05 0.20832435D+05 0.20832435D+05 0.12318811D+01  1  2  5 10  6  2       21 -.361076400788D-02 0.100000000000D+01
0.270196196832D-04 0.000000000000D+00 0.000000000000D+00 0.860310884990D-06 0.704909478661D-07  6 2 3 25 24 1 3 4 0.64073217D+00 0.10644824D-02 0.21474357D+05 0.21474357D+05 0.21474357D+05 0.12304397D+01  1  2 11 10  6  2       21 0.341607066983D-02 0.100000000000D+01
0.270196196832D-04 0.000000000000D+00 0.000000000000D+00 0.860310884990D-06 0.704909478661D-07  6 2 4 25 24 1 4 4 0.64073217D+00 0.10644824D-02 0.21474357D+05 0.21474357D+05 0.21474357D+05 0.12304397D+01  1  2 11 10  6  2       21 0.313744100148D-02 0.100000000000D+01
  </mgrwgt>
  </event>
  <event>
  5     66 0.45638357E-03 0.38968003E+02 0.75467711E-02 0.10573503E+00
        4 -1    0    0  502    0 0.00000000E+00 0.00000000E+00 0.54249942E+03 0.54250163E+03 0.15500000E+01 0.0000E+00 0.9000E+01
       21 -1    0    0  501  502 0.00000000E+00 0.00000000E+00 -.34873667E+02 0.34881731E+02 0.75000000E+00 0.0000E+00 0.9000E+01
       25  1    1    2    0    0 -.46318191E+02 -.23882765E+02 0.26272288E+03 0.29557414E+03 0.12500000E+03 0.0000E+00 0.9000E+01
       24  1    1    2    0    0 0.23390644E+02 0.55388610E+02 0.17317969E+03 0.20018352E+03 0.80419002E+02 0.0000E+00 0.9000E+01
        3  1    1    2  501    0 0.22927547E+02 -.31505845E+02 0.71723185E+02 0.81625706E+02 0.50000000E+00 0.0000E+00 0.9000E+01
#aMCatNLO 1  0  0  2  2 0.52561121D+03 0.00000000D+00  -5  6  0 0.00000000D+00 0.00000000D+00 0.00000000D+00 0.00000000D+00 0.00000000D+00
  <mgrwgt>
 0.1338157941D-01    3    2    0
 0.137556938510623D+03 0.000000000000000D+00 0.000000000000000D+00 0.137556938510623D+03
 0.137556938510623D+03 0.000000000000000D+00 0.000000000000000D+00 -.137556938510623D+03
 0.135561021068809D+03 -.463191213811839D+02 -.238814870624625D+02 0.600033360562214D+01
 0.100584758751449D+03 0.233899543650387D+02 0.553895587120747D+02 -.591477465333391D+01
 0.389680972009885D+02 0.229291670161452D+02 -.315080716496122D+02 -.855589522882383D-01
 0.000000000000000D+00 -.000000000000000D+00 0.000000000000000D+00 0.000000000000000D+00
 0.533551124810215D+03 0.000000000000000D+00 0.000000000000000D+00 0.533551124810215D+03
 0.281965922348519D+03 0.000000000000000D+00 0.000000000000000D+00 -.281965922348519D+03
 0.228815630427331D+03 -.374727862832638D+02 -.187859998436727D+03 0.600033360562214D+01
 0.907242298445623D+02 0.280345533354050D+02 -.307042209900047D+02 -.591477465333391D+01
 0.958166229547582D+02 0.262014699907768D+02 -.921645315967179D+02 -.855589522882383D-01
 0.400160563932083D+03 -.167632370429180D+02 0.310728751023449D+03 0.251585202461696D+03
0.622230727994D-05 0.000000000000D+00 0.000000000000D+00 0.462510727203D-06 0.000000000000D+00  6 4 21 25 24 3 21 2 0.83462240D-01 0.53659702D-02 0.18879703D+05 0.18879703D+05 0.18879703D+05 0.12365917D+01  1  2  2  2  6  2       21 0.119912420012D-01 0.100000000000D+01
-.131320084411D-06 0.328360176349D-06 -.125610456720D-07 0.462510727203D-06 0.000000000000D+00  6 4 21 25 24 3 21 4 0.83462240D-01 0.53659702D-02 0.18879703D+05 0.18879703D+05 0.18879703D+05 0.12365917D+01  1  2  3  2  6  2       21 -.386987140437D-03 0.100000000000D+01
0.603116708780D-06 0.000000000000D+00 0.000000000000D+00 0.462510727203D-06 0.000000000000D+00  6 4 21 25 24 3 21 4 0.83462240D-01 0.53659702D-02 0.18879703D+05 0.18879703D+05 0.18879703D+05 0.12365917D+01  1  2 15  2  6  2       21 0.177732455418D-02 0.100000000000D+01
  </mgrwgt>
  </event>
  <event>
  6     66 0.45638357E-03 0.19726337E+02 0.75467711E-02 0.12074412E+00
        2 -1    0    0  502    0 0.00000000E+00 0.00000000E+00 0.60020232E+03 0.60020240E+03 0.32000000E+00 0.0000E+00 0.9000E+01
       21 -1    0    0  503  502 0.00000000E+00 0.00000000E+00 -.72158284E+02 0.72162182E+02 0.75000000E+00 0.0000E+00 0.9000E+01
       25  1    1    2    0    0 0.42510082E+02 0.67847542E+02 0.44110161E+03 0.46540953E+03 0.12500000E+03 0.0000E+00 0.9000E+01
       24  1    1    2    0    0 -.81510297E+01 -.38211986E+02 0.43433722E+02 0.99399695E+02 0.80419002E+02 0.0000E+00 0.9000E+01
        1  1    1    2  501    0 -.20726132E+02 -.27118066E+01 0.66436336E+02 0.69647796E+02 0.32000000E+00 0.0000E+00 0.9000E+01
       21  1    1    2  503  501 -.13632920E+02 -.26923750E+02 -.22927634E+02 0.37907568E+02 0.75000000E+00 0.0000E+00 0.9000E+01
#aMCatNLO 2  0  0  2  2 0.30178549D+02 0.00000000D+00  -5  6  0 0.00000000D+00 0.00000000D+00 0.00000000D+00 0.00000000D+00 0.00000000D+00
  <mgrwgt>
 0.2044880737D+00    1    2    0
 0.156568820525660D+03 0.000000000000000D+00 0.000000000000000D+00 0.156568820525660D+03
 0.156568820525660D+03 0.000000000000000D+00 0.000000000000000D+00 -.156568820525660D+03
 0.159168387874765D+03 0.354471710552817D+02 0.538974029143223D+02 0.744858625641174D+02
 0.128614547035287D+03 -.136452189869694D+02 -.490637489842773D+02 -.864930187305720D+02
 0.253547061412681D+02 -.218019520683123D+02 -.483365393004496D+01 0.120071561664546D+02
 0.000000000000000D+00 -.000000000000000D+00 -.000000000000000D+00 -.000000000000000D+00
 0.159280744502996D+03 0.000000000000000D+00 0.000000000000000D+00 0.159280744502996D+03
 0.271911463658745D+03 0.000000000000000D+00 0.000000000000000D+00 -.271911463658745D+03
 0.166083239244216D+03 0.425109672205184D+02 0.678477435284848D+02 0.744858625641174D+02
 0.124397864015462D+03 -.815030996908531D+01 -.382118146064755D+02 -.864930187305720D+02
 0.241074011124587D+02 -.207277368625707D+02 -.271217878233936D+01 0.120071561664546D+02
 0.116603703789604D+03 -.136329203888624D+02 -.269237501396699D+02 -.112630719155749D+03
0.207348257716D-04 0.000000000000D+00 0.000000000000D+00 0.270041541458D-06 0.769147452075D-08  6 2 21 25 24 1 21 4 0.92338434D-01 0.11101498D-01 0.20870792D+05 0.20870792D+05 0.20870792D+05 0.12317936D+01  1  2  1  2  6  2       21 0.204488073687D+00 0.100000000000D+01
  </mgrwgt>
  </event>
  <event>
  5     66 0.45638357E-03 0.35909660E+02 0.75467711E-02 0.11402389E+00
        2 -1    0    0  502    0 0.00000000E+00 0.00000000E+00 0.36136895E+03 0.36136909E+03 0.32000000E+00 0.0000E+00 0.9000E+01
       21 -1    0    0  501  502 0.00000000E+00 0.00000000E+00 -.52238771E+02 0.52244155E+02 0.75000000E+00 0.0000E+00 0.9000E+01
       25  1    1    2    0    0 0.34734534E+02 0.65339459E+01 0.13157969E+03 0.18489834E+03 0.12500000E+03 0.0000E+00 0.9000E+01
       24  1    1    2    0    0 -.70011313E+02 -.13239521E+02 0.14315439E+03 0.17898957E+03 0.80419002E+02 0.0000E+00 0.9000E+01
        1  1    1    2  501    0 0.35276780E+02 0.67055754E+01 0.34396096E+02 0.49725343E+02 0.32000000E+00 0.0000E+00 0.9000E+01
#aMCatNLO 1  0  0  2  2 0.99152874D+02 0.00000000D+00  -5  6  0 0.00000000D+00 0.00000000D+00 0.00000000D+00 0.00000000D+00 0.00000000D+00
  <mgrwgt>
 0.4573036189D-01   12    2    0
 0.137399463839951D+03 0.000000000000000D+00 0.000000000000000D+00 0.137399463839951D+03
 0.137399463839951D+03 0.000000000000000D+00 0.000000000000000D+00 -.137399463839951D+03
 0.130281065656940D+03 0.347338782908886D+02 0.653382133964181D+01 -.995102739837682D+01
 0.108367291129423D+03 -.700118583010248D+02 -.132396249462707D+02 0.141175727686428D+02
 0.361505708935382D+02 0.352779800101362D+02 0.670580360662891D+01 -.416654537026594D+01
 0.000000000000000D+00 -.000000000000000D+00 0.000000000000000D+00 -.000000000000000D+00
 0.186817009515661D+03 0.000000000000000D+00 0.000000000000000D+00 0.186817009515661D+03
 0.256153959707267D+03 0.000000000000000D+00 0.000000000000000D+00 -.256153959707267D+03
 0.150045340974696D+03 0.714207339010480D+02 -.410933105379120D+02 -.995102739837682D+01
 0.104323202241306D+03 -.421766446523906D+02 -.493754934810565D+02 0.141175727686428D+02
 0.469267290618937D+02 0.461504659259988D+02 -.740893345489885D+01 -.416654537026594D+01
 0.141675696945033D+03 -.753945551746562D+02 0.978777374738674D+02 -.693369501916063D+02
0.489982377153D-05 0.000000000000D+00 0.000000000000D+00 0.522453693801D-06 0.000000000000D+00  6 2 21 25 24 1 21 2 0.55595648D-01 0.80371591D-02 0.18666924D+05 0.18666924D+05 0.18666924D+05 0.12371378D+01  1  2  2  2  6  2       21 0.982083834202D-01 0.100000000000D+01
-.303007301744D-07 0.258570804255D-06 -.989133249291D-08 0.522453693801D-06 0.000000000000D+00  6 2 21 25 24 1 21 4 0.55595648D-01 0.80371591D-02 0.18666924D+05 0.18666924D+05 0.18666924D+05 0.12371378D+01  1  2  3  2  6  2       21 -.929516981197D-03 0.100000000000D+01
0.455811442842D-06 0.000000000000D+00 0.000000000000D+00 0.522453693801D-06 0.000000000000D+00  6 2 21 25 24 1 21 4 0.55595648D-01 0.80371591D-02 0.18666924D+05 0.18666924D+05 0.18666924D+05 0.12371378D+01  1  2 15  2  6  2       21 0.139826490618D-01 0.100000000000D+01
-.940701922222D-05 0.000000000000D+00 -.873299654434D-05 0.522453693801D-06 0.000000000000D+00  6 2 21 25 24 1 21 4 0.55595648D-01 0.20168757D-01 0.18666924D+05 0.18666924D+05 0.18666924D+05 0.12371378D+01  1  2  5  2  6  2       21 -.558586642185D-01 0.100000000000D+01
-.277881395470D-05 0.000000000000D+00 -.274999451649D-05 0.522453693801D-06 0.000000000000D+00  6 2 -1 25 24 1 -1 4 0.55595648D-01 0.20168757D-01 0.18666924D+05 0.18666924D+05 0.18666924D+05 0.12371378D+01  1  2  5  5  6  2       21 -.129125298507D-02 0.100000000000D+01
-.277881395470D-05 0.000000000000D+00 -.274999451649D-05 0.522453693801D-06 0.000000000000D+00  6 2 1 25 24 1 1 4 0.55595648D-01 0.20168757D-01 0.18666924D+05 0.18666924D+05 0.18666924D+05 0.12371378D+01  1  2  5  6  6  2       21 -.194774928779D-02 0.100000000000D+01
-.277881395470D-05 0.000000000000D+00 -.274999451649D-05 0.522453693801D-06 0.000000000000D+00  6 2 -2 25 24 1 -2 4 0.55595648D-01 0.20168757D-01 0.18666924D+05 0.18666924D+05 0.18666924D+05 0.12371378D+01  1  2  5  7  6  2       21 -.117994605454D-02 0.100000000000D+01
-.277881395470D-05 0.000000000000D+00 -.274999451649D-05 0.522453693801D-06 0.000000000000D+00  6 2 2 25 24 1 2 4 0.55595648D-01 0.20168757D-01 0.18666924D+05 0.18666924D+05 0.18666924D+05 0.12371378D+01  1  2  5  8  6  2       21 -.240869174443D-02 0.100000000000D+01
-.277881395470D-05 0.000000000000D+00 -.274999451649D-05 0.522453693801D-06 0.000000000000D+00  6 2 -3 25 24 1 -3 4 0.55595648D-01 0.20168757D-01 0.18666924D+05 0.18666924D+05 0.18666924D+05 0.12371378D+01  1  2  5  9  6  2       21 -.768274137754D-03 0.100000000000D+01
-.277881395470D-05 0.000000000000D+00 -.274999451649D-05 0.522453693801D-06 0.000000000000D+00  6 2 -4 25 24 1 -4 4 0.55595648D-01 0.20168757D-01 0.18666924D+05 0.18666924D+05 0.18666924D+05 0.12371378D+01  1  2  5  9  6  2       21 -.654186353416D-03 0.100000000000D+01
-.277881395470D-05 0.000000000000D+00 -.274999451649D-05 0.522453693801D-06 0.000000000000D+00  6 2 3 25 24 1 3 4 0.55595648D-01 0.20168757D-01 0.18666924D+05 0.18666924D+05 0.18666924D+05 0.12371378D+01  1  2  5 10  6  2       21 -.768202475498D-03 0.100000000000D+01
-.277881395470D-05 0.000000000000D+00 -.274999451649D-05 0.522453693801D-06 0.000000000000D+00  6 2 4 25 24 1 4 4 0.55595648D-01 0.20168757D-01 0.18666924D+05 0.18666924D+05 0.18666924D+05 0.12371378D+01  1  2  5 10  6  2       21 -.654186353416D-03 0.100000000000D+01
  </mgrwgt>
  </event>
  <event>
  6     66 -.45638357E-03 0.29807437E+02 0.75467711E-02 0.12215198E+00
        2 -1    0    0  502    0 0.00000000E+00 0.00000000E+00 0.41430588E+02 0.41431824E+02 0.32000000E+00 0.0000E+00 0.9000E+01
       21 -1    0    0  501  503 0.00000000E+00 0.00000000E+00 -.58378455E+03 0.58378503E+03 0.75000000E+00 0.0000E+00 0.9000E+01
       25  1    1    2    0    0 0.30601518E+02 -.19695441E+02 -.14557381E+03 0.19529746E+03 0.12500000E+03 0.0000E+00 0.9000E+01
       24  1    1    2    0    0 -.29448128E+02 0.47485409E+02 -.14747296E+03 0.17702414E+03 0.80419002E+02 0.0000E+00 0.9000E+01
        1  1    1    2  501    0 -.59085397E+01 -.32692069E+02 -.16518350E+03 0.16849147E+03 0.32000000E+00 0.0000E+00 0.9000E+01
       21  1    1    2  502  503 0.47551490E+01 0.49021019E+01 -.84123694E+02 0.84403794E+02 0.75000000E+00 0.0000E+00 0.9000E+01
#aMCatNLO 2  0  0  2  1 0.68294982D+01 0.00000000D+00  -5  6  0 0.00000000D+00 0.00000000D+00 0.00000000D+00 0.00000000D+00 0.00000000D+00
  <mgrwgt>
 -.8815574329D-01    3    2    0
 0.143576762812370D+03 0.000000000000000D+00 0.000000000000000D+00 0.143576762812370D+03
 0.143576762812370D+03 0.000000000000000D+00 0.000000000000000D+00 -.143576762812370D+03
 0.135683789188910D+03 0.328463835472319D+02 -.173809723031350D+02 0.374714229557176D+02
 0.983904714375435D+02 -.278219243552963D+02 0.491620335845078D+02 0.474382697148860D+01
 0.530792649982862D+02 -.502445919193558D+01 -.317810612813728D+02 -.422152499272062D+02
 0.000000000000000D+00 0.000000000000000D+00 0.000000000000000D+00 -.000000000000000D+00
 0.144098804882781D+03 0.000000000000000D+00 0.000000000000000D+00 0.144098804882781D+03
 0.167837407089060D+03 0.000000000000000D+00 0.000000000000000D+00 -.167837407089060D+03
 0.135474952398583D+03 0.306015601025739D+02 -.196951696707777D+02 0.374714229557176D+02
 0.980397520719443D+02 -.294480978962708D+02 0.474856048494067D+02 0.474382697148860D+01
 0.537200241468855D+02 -.590861120836074D+01 -.326925370920323D+02 -.422152499272062D+02
 0.247014833544282D+02 0.475514900205764D+01 0.490210191340332D+01 -.237386022062785D+02
-.628020735205D-04 0.000000000000D+00 0.000000000000D+00 0.130330620122D-05 0.000000000000D+00  6 2 21 25 24 1 21 4 0.63507267D-02 0.89934537D-01 0.17978290D+05 0.17978290D+05 0.17978290D+05 0.12389540D+01  1  2 13  2  6  2       21 -.216295803219D+00 0.100000000000D+01
-.484361487582D-04 0.000000000000D+00 0.000000000000D+00 0.130330620122D-05 0.000000000000D+00  6 2 21 25 24 1 21 4 0.63507267D-02 0.93601818D-01 0.17978290D+05 0.17978290D+05 0.17978290D+05 0.12389540D+01  1  2 13  2  6  2       21 -.152176614280D+00 0.100000000000D+01
0.815102475793D-04 0.000000000000D+00 0.000000000000D+00 0.130896119820D-05 0.415355411822D-06  6 2 21 25 24 1 21 4 0.63738178D-02 0.89809604D-01 0.17978290D+05 0.17978290D+05 0.17978290D+05 0.12389540D+01  1  2  1  2  6  2       21 0.280316674207D+00 0.100000000000D+01
  </mgrwgt>
  </event>
  <event>
  5     66 -.45638357E-03 0.20961602E+02 0.75467711E-02 0.12086071E+00
        2 -1    0    0  502    0 0.00000000E+00 0.00000000E+00 0.41700832E+03 0.41700844E+03 0.32000000E+00 0.0000E+00 0.9000E+01
       21 -1    0    0  501  502 0.00000000E+00 0.00000000E+00 -.60377145E+02 0.60381803E+02 0.75000000E+00 0.0000E+00 0.9000E+01
       25  1    1    2    0    0 0.72533208E+02 0.48539845E+02 0.20774211E+03 0.25767997E+03 0.12500000E+03 0.0000E+00 0.9000E+01
       24  1    1    2    0    0 -.73286899E+02 -.27592176E+02 0.16041513E+03 0.19578695E+03 0.80419002E+02 0.0000E+00 0.9000E+01
        1  1    1    2  501    0 0.75369055E+00 -.20947669E+02 -.11526070E+02 0.23923327E+02 0.32000000E+00 0.0000E+00 0.9000E+01
#aMCatNLO 1  0  0  5  2 0.62394653D+01 0.00000000D+00  -5  6  0 0.00000000D+00 0.00000000D+00 0.00000000D+00 0.00000000D+00 0.00000000D+00
  <mgrwgt>
 -.4412731298D+00    8    2    0
 0.158678646076343D+03 0.000000000000000D+00 0.000000000000000D+00 0.158678646076343D+03
 0.158678646076343D+03 -.000000000000000D+00 -.000000000000000D+00 -.158678646076343D+03
 0.154168928194023D+03 0.725332004083946D+02 0.485400622255782D+02 0.229315419923417D+02
 0.114248990059970D+03 -.732869045829488D+02 -.275920149347880D+02 0.212914561230747D+02
 0.489393738986927D+02 0.753704174554159D+00 -.209480472907902D+02 -.442229981154164D+02
 0.000000000000000D+00 0.000000000000000D+00 0.000000000000000D+00 -.000000000000000D+00
 0.158678646076343D+03 0.000000000000000D+00 0.000000000000000D+00 0.158678646076343D+03
 0.158678646076343D+03 -.000000000000000D+00 -.000000000000000D+00 -.158678646076343D+03
 0.153886881820090D+03 0.725499955084425D+02 0.480732682738742D+02 0.219461027406569D+02
 0.114191263132623D+03 -.732744500965129D+02 -.279381682130240D+02 0.205606989523189D+02
 0.370388502259956D+02 0.131652893847287D+01 -.212200562515202D+02 -.303290684047534D+02
 0.122402969739771D+02 -.592074350402484D+00 0.108495619067002D+01 -.121777332882222D+02
0.411520167818D-05 0.000000000000D+00 0.000000000000D+00 0.225828946890D-05 0.000000000000D+00  6 2 21 25 24 1 21 2 0.64155493D-01 0.92891593D-02 0.20400846D+05 0.20400846D+05 0.20400846D+05 0.12328784D+01  1  2  2  3  6  5        1 0.547420247396D-01 0.100000000000D+01
0.575795063330D-06 0.217165158833D-06 -.830740654609D-08 0.225828946890D-05 0.000000000000D+00  6 2 21 25 24 1 21 4 0.64155493D-01 0.92891593D-02 0.20400846D+05 0.20400846D+05 0.20400846D+05 0.12328784D+01  1  2  3  3  6  5        1 0.116422828976D-01 0.100000000000D+01
0.404133319859D-06 0.000000000000D+00 0.000000000000D+00 0.225828946890D-05 0.000000000000D+00  6 2 21 25 24 1 21 4 0.64155493D-01 0.92891593D-02 0.20400846D+05 0.20400846D+05 0.20400846D+05 0.12328784D+01  1  2 15  3  6  5        1 0.817136988102D-02 0.100000000000D+01
0.685169204733D-05 0.000000000000D+00 0.000000000000D+00 0.225649381023D-05 0.000000000000D+00  6 2 21 25 24 1 21 4 0.64155493D-01 0.92891593D-02 0.20611741D+05 0.20611741D+05 0.20611741D+05 0.12323881D+01  1  2 12  3  6  5        1 0.138333036053D+00 0.100000000000D+01
-.407399522742D-04 0.000000000000D+00 0.000000000000D+00 0.225828946890D-05 0.000000000000D+00  6 2 21 25 24 1 21 4 0.64155493D-01 0.92891593D-02 0.20400846D+05 0.20400846D+05 0.20400846D+05 0.12328784D+01  1  2  4  3  6  5        1 -.823741083968D+00 0.100000000000D+01
-.113537397815D-04 0.000000000000D+00 0.000000000000D+00 0.225828946890D-05 0.000000000000D+00  6 2 21 25 24 1 21 4 0.64155493D-01 0.92891593D-02 0.20400846D+05 0.20400846D+05 0.20400846D+05 0.12328784D+01  1  2  5  3  6  5        1 -.229566835320D+00 0.100000000000D+01
0.162906968265D-04 0.000000000000D+00 -.000000000000D+00 0.225828946890D-05 0.000000000000D+00  6 2 21 25 24 1 21 4 0.64155493D-01 0.92891593D-02 0.20400846D+05 0.20400846D+05 0.20400846D+05 0.12328784D+01  1  2  6  3  6  5        1 0.329389592116D+00 0.100000000000D+01
0.345506727163D-05 0.000000000000D+00 0.000000000000D+00 0.225828946890D-05 0.188920331755D-04  6 2 21 25 24 1 21 4 0.64155493D-01 0.92891593D-02 0.20611741D+05 0.20611741D+05 0.20611741D+05 0.12323881D+01  1  2 11  3  6  5        1 0.697564838218D-01 0.100000000000D+01
  </mgrwgt>
  </event>
  <event>
  5     66 0.45638357E-03 0.29100060E+02 0.75467711E-02 0.12098207E+00
        2 -1    0    0  502    0 0.00000000E+00 0.00000000E+00 0.13381792E+03 0.13381830E+03 0.32000000E+00 0.0000E+00 0.9000E+01
       21 -1    0    0  501  502 0.00000000E+00 0.00000000E+00 -.41090373E+03 0.41090441E+03 0.75000000E+00 0.0000E+00 0.9000E+01
       25  1    1    2    0    0 -.66474801E+02 -.33317526E+02 0.56555966E+01 0.14555392E+03 0.12500000E+03 0.0000E+00 0.9000E+01
       24  1    1    2    0    0 0.40965582E+02 0.19314259E+02 0.20491366E+02 0.94542750E+02 0.80419002E+02 0.0000E+00 0.9000E+01
        1  1    1    2  501    0 0.25509218E+02 0.14003267E+02 -.30323277E+03 0.30462604E+03 0.32000000E+00 0.0000E+00 0.9000E+01
#aMCatNLO 1  0  0  2  1 0.15706255D+02 0.00000000D+00  -5  6  0 0.00000000D+00 0.00000000D+00 0.00000000D+00 0.00000000D+00 0.00000000D+00
  <mgrwgt>
 0.4589580710D+00   23    2    0
 0.234492156954307D+03 0.000000000000000D+00 0.000000000000000D+00 0.234492156954307D+03
 0.234492156954307D+03 0.000000000000000D+00 0.000000000000000D+00 -.234492156954307D+03
 0.172401586013167D+03 -.664748163268831D+02 -.333175346248769D+02 0.925653690139166D+02
 0.121917660919622D+03 0.409655709817924D+02 0.193142524737023D+02 0.796585320932993D+02
 0.174665066975825D+03 0.255092453450907D+02 0.140032821511746D+02 -.172223901107216D+03
 0.000000000000000D+00 -.000000000000000D+00 0.000000000000000D+00 -.000000000000000D+00
 0.238839018277313D+03 0.000000000000000D+00 0.000000000000000D+00 0.238839018277313D+03
 0.249253702217506D+03 0.000000000000000D+00 0.000000000000000D+00 -.249253702217506D+03
 0.171359514401783D+03 -.618291369329811D+02 -.367136685916140D+02 0.925653690139166D+02
 0.122711830202153D+03 0.442715593111099D+02 0.168974737193247D+02 0.796585320932993D+02
 0.175175896357175D+03 0.302370896315359D+02 0.105470831307005D+02 -.172223901107216D+03
 0.188454795337082D+02 -.126795120096647D+02 0.926911174158882D+01 -.104146839401934D+02
0.443236825122D-04 0.000000000000D+00 0.000000000000D+00 0.919362367429D-05 0.000000000000D+00  6 2 21 25 24 1 21 2 0.20587454D-01 0.63216040D-01 0.17800821D+05 0.17800821D+05 0.17800821D+05 0.12394347D+01  1  2  2  2  6  2       21 0.525503840011D-01 0.100000000000D+01
0.986259264692D-05 0.233902498725D-05 -.894767447732D-07 0.919362367429D-05 0.000000000000D+00  6 2 21 25 24 1 21 4 0.20587454D-01 0.63216040D-01 0.17800821D+05 0.17800821D+05 0.17800821D+05 0.12394347D+01  1  2  3  2  6  2       21 0.179629841191D-01 0.100000000000D+01
0.408631475392D-05 0.000000000000D+00 0.000000000000D+00 0.919362367429D-05 0.000000000000D+00  6 2 21 25 24 1 21 4 0.20587454D-01 0.63216040D-01 0.17800821D+05 0.17800821D+05 0.17800821D+05 0.12394347D+01  1  2 15  2  6  2       21 0.744250621091D-02 0.100000000000D+01
0.189664510058D-03 0.000000000000D+00 0.000000000000D+00 0.909850943861D-05 0.000000000000D+00  6 2 21 25 24 1 21 4 0.20587454D-01 0.67756551D-01 0.20346057D+05 0.20346057D+05 0.20346057D+05 0.12330067D+01  1  2 12  2  6  2       21 0.290562914395D+00 0.100000000000D+01
-.828772242719D-04 0.000000000000D+00 0.000000000000D+00 0.919362367429D-05 0.000000000000D+00  6 2 21 25 24 1 21 4 0.20587454D-01 0.63216040D-01 0.17800821D+05 0.17800821D+05 0.17800821D+05 0.12394347D+01  1  2  4  2  6  2       21 -.150946340048D+00 0.100000000000D+01
-.950208455001D-03 0.000000000000D+00 -.172092482237D-03 0.919362367429D-05 0.000000000000D+00  6 2 21 25 24 1 21 4 0.20587454D-01 0.68153481D-01 0.17800821D+05 0.17800821D+05 0.17800821D+05 0.12394347D+01  1  2  5  2  6  2       21 -.147134978775D+01 0.100000000000D+01
0.951482101629D-03 0.000000000000D+00 0.170161374903D-03 0.919362367429D-05 0.000000000000D+00  6 2 21 25 24 1 21 4 0.20587454D-01 0.63216040D-01 0.17800821D+05 0.17800821D+05 0.17800821D+05 0.12394347D+01  1  2  6  2  6  2       21 0.173295790398D+01 0.100000000000D+01
0.353803156697D-05 0.000000000000D+00 0.000000000000D+00 0.909850943861D-05 0.000000000000D+00  6 2 -1 25 24 1 -1 4 0.20587454D-01 0.67756551D-01 0.20346057D+05 0.20346057D+05 0.20346057D+05 0.12330067D+01  1  2 12  5  6  2       21 0.571239121942D-03 0.100000000000D+01
-.153043547621D-04 0.000000000000D+00 -.320079040052D-05 0.919362367429D-05 0.000000000000D+00  6 2 -1 25 24 1 -1 4 0.20587454D-01 0.68153481D-01 0.17800821D+05 0.17800821D+05 0.17800821D+05 0.12394347D+01  1  2  5  5  6  2       21 -.249276057266D-02 0.100000000000D+01
0.353803156697D-05 0.000000000000D+00 0.000000000000D+00 0.909850943861D-05 0.000000000000D+00  6 2 1 25 24 1 1 4 0.20587454D-01 0.67756551D-01 0.20346057D+05 0.20346057D+05 0.20346057D+05 0.12330067D+01  1  2 12  6  6  2       21 0.157707795872D-02 0.100000000000D+01
-.153043547621D-04 0.000000000000D+00 -.320079040052D-05 0.919362367429D-05 0.000000000000D+00  6 2 1 25 24 1 1 4 0.20587454D-01 0.68153481D-01 0.17800821D+05 0.17800821D+05 0.17800821D+05 0.12394347D+01  1  2  5  6  6  2       21 -.690748331490D-02 0.100000000000D+01
0.353803156697D-05 0.000000000000D+00 0.000000000000D+00 0.909850943861D-05 0.000000000000D+00  6 2 -2 25 24 1 -2 4 0.20587454D-01 0.67756551D-01 0.20346057D+05 0.20346057D+05 0.20346057D+05 0.12330067D+01  1  2 12  7  6  2       21 0.446189160129D-03 0.100000000000D+01
-.153043547621D-04 0.000000000000D+00 -.320079040052D-05 0.919362367429D-05 0.000000000000D+00  6 2 -2 25 24 1 -2 4 0.20587454D-01 0.68153481D-01 0.17800821D+05 0.17800821D+05 0.17800821D+05 0.12394347D+01  1  2  5  7  6  2       21 -.194417317018D-02 0.100000000000D+01
0.353803156697D-05 0.000000000000D+00 0.000000000000D+00 0.909850943861D-05 0.000000000000D+00  6 2 2 25 24 1 2 4 0.20587454D-01 0.67756551D-01 0.20346057D+05 0.20346057D+05 0.20346057D+05 0.12330067D+01  1  2 12  8  6  2       21 0.239498297573D-02 0.100000000000D+01
-.153043547621D-04 0.000000000000D+00 -.320079040052D-05 0.919362367429D-05 0.000000000000D+00  6 2 2 25 24 1 2 4 0.20587454D-01 0.68153481D-01 0.17800821D+05 0.17800821D+05 0.17800821D+05 0.12394347D+01  1  2  5  8  6  2       21 -.104962522882D-01 0.100000000000D+01
0.353803156697D-05 0.000000000000D+00 0.000000000000D+00 0.909850943861D-05 0.000000000000D+00  6 2 -3 25 24 1 -3 4 0.20587454D-01 0.67756551D-01 0.20346057D+05 0.20346057D+05 0.20346057D+05 0.12330067D+01  1  2 12  9  6  2       21 0.278366003395D-03 0.100000000000D+01
0.353803156697D-05 0.000000000000D+00 0.000000000000D+00 0.909850943861D-05 0.000000000000D+00  6 2 -4 25 24 1 -4 4 0.20587454D-01 0.67756551D-01 0.20346057D+05 0.20346057D+05 0.20346057D+05 0.12330067D+01  1  2 12  9  6  2       21 0.225884945776D-03 0.100000000000D+01
-.153043547621D-04 0.000000000000D+00 -.320079040052D-05 0.919362367429D-05 0.000000000000D+00  6 2 -3 25 24 1 -3 4 0.20587454D-01 0.68153481D-01 0.17800821D+05 0.17800821D+05 0.17800821D+05 0.12394347D+01  1  2  5  9  6  2       21 -.120962490073D-02 0.100000000000D+01
-.153043547621D-04 0.000000000000D+00 -.320079040052D-05 0.919362367429D-05 0.000000000000D+00  6 2 -4 25 24 1 -4 4 0.20587454D-01 0.68153481D-01 0.17800821D+05 0.17800821D+05 0.17800821D+05 0.12394347D+01  1  2  5  9  6  2       21 -.979860699346D-03 0.100000000000D+01
0.353803156697D-05 0.000000000000D+00 0.000000000000D+00 0.909850943861D-05 0.000000000000D+00  6 2 3 25 24 1 3 4 0.20587454D-01 0.67756551D-01 0.20346057D+05 0.20346057D+05 0.20346057D+05 0.12330067D+01  1  2 12 10  6  2       21 0.278614952814D-03 0.100000000000D+01
0.353803156697D-05 0.000000000000D+00 0.000000000000D+00 0.909850943861D-05 0.000000000000D+00  6 2 4 25 24 1 4 4 0.20587454D-01 0.67756551D-01 0.20346057D+05 0.20346057D+05 0.20346057D+05 0.12330067D+01  1  2 12 10  6  2       21 0.225884945776D-03 0.100000000000D+01
-.153043547621D-04 0.000000000000D+00 -.320079040052D-05 0.919362367429D-05 0.000000000000D+00  6 2 3 25 24 1 3 4 0.20587454D-01 0.68153481D-01 0.17800821D+05 0.17800821D+05 0.17800821D+05 0.12394347D+01  1  2  5 10  6  2       21 -.121071836628D-02 0.100000000000D+01
-.153043547621D-04 0.000000000000D+00 -.320079040052D-05 0.919362367429D-05 0.000000000000D+00  6 2 4 25 24 1 4 4 0.20587454D-01 0.68153481D-01 0.17800821D+05 0.17800821D+05 0.17800821D+05 0.12394347D+01  1  2  5 10  6  2       21 -.979860699346D-03 0.100000000000D+01
  </mgrwgt>
  </event>
  <event>
  6     66 -.45638357E-03 0.12048447E+03 0.75467711E-02 0.11191612E+00
        2 -1    0    0  502    0 0.00000000E+00 0.00000000E+00 0.75160777E+02 0.75161459E+02 0.32000000E+00 0.0000E+00 0.9000E+01
       21 -1    0    0  501  503 0.00000000E+00 0.00000000E+00 -.11944865E+04 0.11944867E+04 0.75000000E+00 0.0000E+00 0.9000E+01
       25  1    1    2    0    0 0.59958144E+02 -.59188606E+02 -.70309164E+02 0.16633295E+03 0.12500000E+03 0.0000E+00 0.9000E+01
       24  1    1    2    0    0 0.55782066E+02 0.15099741E+03 -.47399445E+03 0.50700081E+03 0.80419002E+02 0.0000E+00 0.9000E+01
        1  1    1    2  501    0 -.95396050E+02 -.89384025E+02 -.54118741E+03 0.55675293E+03 0.32000000E+00 0.0000E+00 0.9000E+01
       21  1    1    2  502  503 -.20344160E+02 -.24247842E+01 -.33834710E+02 0.39561529E+02 0.75000000E+00 0.0000E+00 0.9000E+01
#aMCatNLO 2  0  0  2  1 0.20488153D+02 0.00000000D+00  -5  6  0 0.00000000D+00 0.00000000D+00 0.00000000D+00 0.00000000D+00 0.00000000D+00
  <mgrwgt>
 -.1055070411D+00    3    2    0
 0.289137815819888D+03 0.000000000000000D+00 0.000000000000000D+00 0.289137815819888D+03
 0.289137815819888D+03 0.000000000000000D+00 0.000000000000000D+00 -.289137815819888D+03
 0.219977667976640D+03 0.521913817935200D+02 -.601142610351608D+02 0.162565401285514D+03
 0.186134865436167D+03 0.491922543700083D+02 0.150212030249117D+03 -.565282252950195D+02
 0.172163098226969D+03 -.101383636163528D+03 -.900977692139560D+02 -.106037175990495D+03
 0.000000000000000D+00 -.000000000000000D+00 -.000000000000000D+00 0.000000000000000D+00
 0.300771086532962D+03 0.000000000000000D+00 0.000000000000000D+00 0.300771086532962D+03
 0.298482908741348D+03 0.000000000000000D+00 0.000000000000000D+00 -.298482908741348D+03
 0.221699754116338D+03 0.599582126905368D+02 -.591885462828828D+02 0.162565401285514D+03
 0.188612131111385D+03 0.557821238216939D+02 0.150997465061320D+03 -.565282252950195D+02
 0.168326577520903D+03 -.953961765347744D+02 -.893841345564620D+02 -.106037175990495D+03
 0.206155325256834D+02 -.203441599774564D+02 -.242478422197504D+01 0.228817779161334D+01
-.583545083697D-03 0.000000000000D+00 0.000000000000D+00 0.101678966982D-06 0.000000000000D+00  6 2 21 25 24 1 21 4 0.11115768D-01 0.18721757D+00 0.58057150D+05 0.58057150D+05 0.58057150D+05 0.11859087D+01  1  2 13  2  6  2       21 -.124465702880D+00 0.100000000000D+01
-.201013524991D-04 0.000000000000D+00 0.000000000000D+00 0.102320924388D-06 0.000000000000D+00  6 2 21 25 24 1 21 4 0.11115768D-01 0.17800967D+00 0.53170462D+05 0.53170462D+05 0.53170462D+05 0.11896465D+01  1  2  8  2  6  2       21 -.504123671287D-02 0.100000000000D+01
0.111936481171D-03 0.000000000000D+00 0.000000000000D+00 0.102320924388D-06 0.232046074586D-08  6 2 21 25 24 1 21 4 0.11563004D-01 0.18376304D+00 0.58057150D+05 0.58057150D+05 0.58057150D+05 0.11859087D+01  1  2  1  2  6  2       21 0.239998984603D-01 0.100000000000D+01
  </mgrwgt>
  </event>
  <event>
  5     66 0.45638357E-03 0.43814574E+02 0.75467711E-02 0.11951130E+00
        2 -1    0    0  502    0 0.00000000E+00 0.00000000E+00 0.11192643E+04 0.11192644E+04 0.32000000E+00 0.0000E+00 0.9000E+01
       21 -1    0    0  501  502 0.00000000E+00 0.00000000E+00 -.14975032E+02 0.14993801E+02 0.75000000E+00 0.0000E+00 0.9000E+01
       25  1    1    2    0    0 0.25863253E+02 -.10598528E+02 0.65731877E+03 0.66968217E+03 0.12500000E+03 0.0000E+00 0.9000E+01
       24  1    1    2    0    0 0.90758933E+01 -.15837969E+02 0.27384261E+03 0.28598986E+03 0.80419002E+02 0.0000E+00 0.9000E+01
        1  1    1    2  501    0 -.34939146E+02 0.26436497E+02 0.17312790E+03 0.17858613E+03 0.32000000E+00 0.0000E+00 0.9000E+01
#aMCatNLO 1  0  0  1  2 0.14935383D+01 0.00000000D+00  -5  6  0 0.00000000D+00 0.00000000D+00 0.00000000D+00 0.00000000D+00 0.00000000D+00
  <mgrwgt>
 0.2187559072D+00    7    2    0
 0.129505555916991D+03 0.000000000000000D+00 0.000000000000000D+00 0.129505555916991D+03
 0.129505555916991D+03 0.000000000000000D+00 0.000000000000000D+00 -.129505555916991D+03
 0.130196813142878D+03 0.258637190321445D+02 -.105988802856623D+02 0.233439912413898D+02
 0.848801393595811D+02 0.907619703879892D+01 -.158381991324634D+02 -.201046312795016D+02
 0.439341593315218D+02 -.349399160709434D+02 0.264370794181257D+02 -.323935996188824D+01
 0.000000000000000D+00 0.000000000000000D+00 -.000000000000000D+00 0.000000000000000D+00
 0.158989731086167D+03 0.000000000000000D+00 0.000000000000000D+00 0.158989731086167D+03
 0.154793555343339D+03 0.000000000000000D+00 0.000000000000000D+00 -.154793555343339D+03
 0.127211953443393D+03 0.358409573691346D+01 -.305662484606778D+00 0.233439912413898D+02
 0.835736504883411D+02 -.550406388330868D+01 -.910209775055198D+01 -.201046312795016D+02
 0.529778056632181D+02 -.433279834297906D+02 0.303123785248669D+02 -.323935996188824D+01
 0.500198768345540D+02 0.452479515761859D+02 -.209046182897081D+02 0.419617574282772D+01
0.243817012965D-05 0.000000000000D+00 0.000000000000D+00 0.534383822348D-06 0.000000000000D+00  6 2 21 25 24 1 21 2 0.17219596D+00 0.23052983D-02 0.16175556D+05 0.16175556D+05 0.16175556D+05 0.12441042D+01  1  2  2  1  6  1        2 0.103534471628D+00 0.100000000000D+01
-.927690236704D-07 0.128665772634D-06 -.492196302382D-08 0.534383822348D-06 0.000000000000D+00  6 2 21 25 24 1 21 4 0.17219596D+00 0.23052983D-02 0.16175556D+05 0.16175556D+05 0.16175556D+05 0.12441042D+01  1  2  3  1  6  1        2 -.609729827841D-02 0.100000000000D+01
0.262233824427D-06 0.000000000000D+00 0.000000000000D+00 0.534383822348D-06 0.000000000000D+00  6 2 21 25 24 1 21 4 0.17219596D+00 0.23052983D-02 0.16175556D+05 0.16175556D+05 0.16175556D+05 0.12441042D+01  1  2 15  1  6  1        2 0.172354713132D-01 0.100000000000D+01
-.233669657331D-05 0.000000000000D+00 0.000000000000D+00 0.534383822348D-06 0.000000000000D+00  6 2 21 25 24 1 21 4 0.17219596D+00 0.23052983D-02 0.16175556D+05 0.16175556D+05 0.16175556D+05 0.12441042D+01  1  2  4  1  6  1        2 -.153580747430D+00 0.100000000000D+01
-.812184350384D-05 0.000000000000D+00 -.315232101965D-05 0.534383822348D-06 0.000000000000D+00  6 2 21 25 24 1 21 4 0.23682734D+00 0.23052983D-02 0.16175556D+05 0.16175556D+05 0.16175556D+05 0.12441042D+01  1  2  5  1  6  1        2 -.317660123381D+00 0.100000000000D+01
0.882793690051D-05 0.000000000000D+00 0.299873885464D-05 0.534383822348D-06 0.000000000000D+00  6 2 21 25 24 1 21 4 0.17219596D+00 0.23052983D-02 0.16175556D+05 0.16175556D+05 0.16175556D+05 0.12441042D+01  1  2  6  1  6  1        2 0.580221310259D+00 0.100000000000D+01
-.250398413446D-06 0.000000000000D+00 -.127286278811D-06 0.534383822348D-06 0.000000000000D+00  6 21 21 25 24 1 -2 4 0.23682734D+00 0.23052983D-02 0.16175556D+05 0.16175556D+05 0.16175556D+05 0.12441042D+01  1  2  5  4  6  1        2 -.489717690680D-02 0.100000000000D+01
  </mgrwgt>
  </event>
  <event>
  5     66 0.45638357E-03 0.10722585E+03 0.75467711E-02 0.92805345E-01
        2 -1    0    0  502    0 0.00000000E+00 0.00000000E+00 0.11793806E+04 0.11793807E+04 0.32000000E+00 0.0000E+00 0.9000E+01
       21 -1    0    0  501  502 0.00000000E+00 0.00000000E+00 -.17085542E+03 0.17085707E+03 0.75000000E+00 0.0000E+00 0.9000E+01
       25  1    1    2    0    0 -.27443646E+03 0.39774867E+02 0.10223973E+03 0.32089776E+03 0.12500000E+03 0.0000E+00 0.9000E+01
       24  1    1    2    0    0 0.24006536E+03 0.61792634E+02 0.88159529E+03 0.91930798E+03 0.80419002E+02 0.0000E+00 0.9000E+01
        1  1    1    2  501    0 0.34371101E+02 -.10156750E+03 0.24690164E+02 0.11003198E+03 0.32000000E+00 0.0000E+00 0.9000E+01
#aMCatNLO 1  0  0  2  1 0.10379472D+03 0.00000000D+00  -5  6  0 0.00000000D+00 0.00000000D+00 0.00000000D+00 0.00000000D+00 0.00000000D+00
  <mgrwgt>
 0.2583047467D+00   12    2    0
 0.448892766187375D+03 0.000000000000000D+00 0.000000000000000D+00 0.448892766187375D+03
 0.448892766187375D+03 0.000000000000000D+00 0.000000000000000D+00 -.448892766187375D+03
 0.367768125698347D+03 -.274436495194681D+03 0.397749792155669D+02 -.206714671499959D+03
 0.392268889594536D+03 0.240065315291383D+03 0.617927539798359D+02 0.293185889392713D+03
 0.137748517081867D+03 0.343711799032984D+02 -.101567733195403D+03 -.864712178927538D+02
 0.000000000000000D+00 -.000000000000000D+00 0.000000000000000D+00 -.000000000000000D+00
 0.104348759976657D+04 0.000000000000000D+00 0.000000000000000D+00 0.104348759976657D+04
 0.120768936790510D+04 0.000000000000000D+00 0.000000000000000D+00 -.120768936790510D+04
 0.244065450902606D+03 -.131728025465940D+02 0.322252414114264D+02 -.206714671499959D+03
 0.816333571413130D+03 0.756159812197973D+03 0.468791695689592D+02 0.293185889392713D+03
 0.238222646531612D+03 0.194917475973809D+03 -.106207040052291D+03 -.864712178927538D+02
 0.952555298824313D+03 -.937904485625188D+03 0.271026290719056D+02 -.164201768138530D+03
0.322363907180D-03 0.000000000000D+00 0.000000000000D+00 0.320074564337D-07 0.000000000000D+00  6 2 21 25 24 1 21 2 0.18144330D+00 0.26285580D-01 0.11289923D+06 0.11289923D+06 0.11289923D+06 0.11587622D+01  1  2  2  2  6  2       21 0.148485305114D+00 0.100000000000D+01
-.374589337071D-05 0.170116107495D-04 -.650759851438D-06 0.320074564337D-07 0.000000000000D+00  6 2 21 25 24 1 21 4 0.18144330D+00 0.26285580D-01 0.11289923D+06 0.11289923D+06 0.11289923D+06 0.11587622D+01  1  2  3  2  6  2       21 -.231676021799D-02 0.100000000000D+01
0.289161606097D-04 0.000000000000D+00 0.000000000000D+00 0.320074564337D-07 0.000000000000D+00  6 2 21 25 24 1 21 4 0.18144330D+00 0.26285580D-01 0.11289923D+06 0.11289923D+06 0.11289923D+06 0.11587622D+01  1  2 15  2  6  2       21 0.178840676783D-01 0.100000000000D+01
0.465025040576D-02 0.000000000000D+00 -.328428500779D-02 0.320074564337D-07 0.000000000000D+00  6 2 21 25 24 1 21 4 0.18144330D+00 0.16519552D+00 0.11289923D+06 0.11289923D+06 0.11289923D+06 0.11587622D+01  1  2  5  2  6  2       21 0.452670327934D-01 0.100000000000D+01
0.198279296623D-02 0.000000000000D+00 -.139630728431D-02 0.320074564337D-07 0.000000000000D+00  6 2 -1 25 24 1 -1 4 0.18144330D+00 0.16519552D+00 0.11289923D+06 0.11289923D+06 0.11289923D+06 0.11587622D+01  1  2  5  5  6  2       21 0.241688681431D-02 0.100000000000D+01
0.198279296623D-02 0.000000000000D+00 -.139630728431D-02 0.320074564337D-07 0.000000000000D+00  6 2 1 25 24 1 1 4 0.18144330D+00 0.16519552D+00 0.11289923D+06 0.11289923D+06 0.11289923D+06 0.11587622D+01  1  2  5  6  6  2       21 0.139146070263D-01 0.100000000000D+01
0.198279296623D-02 0.000000000000D+00 -.139630728431D-02 0.320074564337D-07 0.000000000000D+00  6 2 -2 25 24 1 -2 4 0.18144330D+00 0.16519552D+00 0.11289923D+06 0.11289923D+06 0.11289923D+06 0.11587622D+01  1  2  5  7  6  2       21 0.179464207450D-02 0.100000000000D+01
0.198279296623D-02 0.000000000000D+00 -.139630728431D-02 0.320074564337D-07 0.000000000000D+00  6 2 2 25 24 1 2 4 0.18144330D+00 0.16519552D+00 0.11289923D+06 0.11289923D+06 0.11289923D+06 0.11587622D+01  1  2  5  8  6  2       21 0.266155222912D-01 0.100000000000D+01
0.198279296623D-02 0.000000000000D+00 -.139630728431D-02 0.320074564337D-07 0.000000000000D+00  6 2 -3 25 24 1 -3 4 0.18144330D+00 0.16519552D+00 0.11289923D+06 0.11289923D+06 0.11289923D+06 0.11587622D+01  1  2  5  9  6  2       21 0.118418622037D-02 0.100000000000D+01
0.198279296623D-02 0.000000000000D+00 -.139630728431D-02 0.320074564337D-07 0.000000000000D+00  6 2 -4 25 24 1 -4 4 0.18144330D+00 0.16519552D+00 0.11289923D+06 0.11289923D+06 0.11289923D+06 0.11587622D+01  1  2  5  9  6  2       21 0.934788126311D-03 0.100000000000D+01
0.198279296623D-02 0.000000000000D+00 -.139630728431D-02 0.320074564337D-07 0.000000000000D+00  6 2 3 25 24 1 3 4 0.18144330D+00 0.16519552D+00 0.11289923D+06 0.11289923D+06 0.11289923D+06 0.11587622D+01  1  2  5 10  6  2       21 0.118968064416D-02 0.100000000000D+01
0.198279296623D-02 0.000000000000D+00 -.139630728431D-02 0.320074564337D-07 0.000000000000D+00  6 2 4 25 24 1 4 4 0.18144330D+00 0.16519552D+00 0.11289923D+06 0.11289923D+06 0.11289923D+06 0.11587622D+01  1  2  5 10  6  2       21 0.934788126311D-03 0.100000000000D+01
  </mgrwgt>
  </event>
  <event>
  5     66 0.45638357E-03 0.24330497E+02 0.75467711E-02 0.12452543E+00
        2 -1    0    0  502    0 0.00000000E+00 0.00000000E+00 0.21196007E+04 0.21196007E+04 0.32000000E+00 0.0000E+00 0.9000E+01
       21 -1    0    0  501  502 0.00000000E+00 0.00000000E+00 -.88106023E+01 0.88424665E+01 0.75000000E+00 0.0000E+00 0.9000E+01
       25  1    1    2    0    0 0.18728205E+02 -.28700528E+02 0.16538823E+04 0.16589533E+04 0.12500000E+03 0.0000E+00 0.9000E+01
       24  1    1    2    0    0 0.47728131E+01 0.22407098E+02 0.35083398E+03 0.36066127E+03 0.80419002E+02 0.0000E+00 0.9000E+01
        1  1    1    2  501    0 -.23501018E+02 0.62934297E+01 0.10607377E+03 0.10882855E+03 0.32000000E+00 0.0000E+00 0.9000E+01
#aMCatNLO 1  0  0  5  2 0.13642762D+01 0.00000000D+00  -5  6  0 0.00000000D+00 0.00000000D+00 0.00000000D+00 0.00000000D+00 0.00000000D+00
  <mgrwgt>
 0.7280443764D+00    8    2    0
 0.136780461456338D+03 0.000000000000000D+00 0.000000000000000D+00 0.136780461456338D+03
 0.136780461456338D+03 -.000000000000000D+00 -.000000000000000D+00 -.136780461456338D+03
 0.146181788089348D+03 0.187290094300879D+02 -.287007435255362D+02 0.675988660840419D+02
 0.991007508174476D+02 0.477335820171961D+01 0.224069524946471D+02 -.531872765761890D+02
 0.282783840058796D+02 -.235023676318075D+02 0.629379103088913D+01 -.144115895078529D+02
 0.000000000000000D+00 -.000000000000000D+00 0.000000000000000D+00 0.000000000000000D+00
 0.136780461456338D+03 0.000000000000000D+00 0.000000000000000D+00 0.136780461456338D+03
 0.136780461456338D+03 -.000000000000000D+00 -.000000000000000D+00 -.136780461456338D+03
 0.146140018927177D+03 0.186389664510592D+02 -.286766305636983D+02 0.675436519680790D+02
 0.991216261586088D+02 0.471230037809970D+01 0.224233034082522D+02 -.532247170717186D+02
 0.224455972682014D+02 -.178792076767390D+02 0.516115822444597D+01 -.125499488190414D+02
 0.585368055868891D+01 -.547205915241988D+01 0.109216893100012D+01 -.176898607731898D+01
0.387706574775D-05 0.000000000000D+00 0.000000000000D+00 0.875390335014D-06 0.000000000000D+00  6 2 21 25 24 1 21 2 0.32609486D+00 0.13579302D-02 0.14108929D+05 0.14108929D+05 0.14108929D+05 0.12508661D+01  1  2  2  3  6  5        1 0.117071834959D+00 0.100000000000D+01
0.140549089330D-06 0.204598380532D-06 -.782667871256D-08 0.875390335014D-06 0.000000000000D+00  6 2 21 25 24 1 21 4 0.32609486D+00 0.13579302D-02 0.14108929D+05 0.14108929D+05 0.14108929D+05 0.12508661D+01  1  2  3  3  6  5        1 0.664047175512D-02 0.100000000000D+01
0.382963961337D-06 0.000000000000D+00 0.000000000000D+00 0.875390335014D-06 0.000000000000D+00  6 2 21 25 24 1 21 4 0.32609486D+00 0.13579302D-02 0.14108929D+05 0.14108929D+05 0.14108929D+05 0.12508661D+01  1  2 15  3  6  5        1 0.180937591315D-01 0.100000000000D+01
0.268506555934D-08 0.000000000000D+00 0.000000000000D+00 0.875483646789D-06 0.000000000000D+00  6 2 21 25 24 1 21 4 0.32609486D+00 0.13579302D-02 0.14090088D+05 0.14090088D+05 0.14090088D+05 0.12509328D+01  1  2 12  3  6  5        1 0.126887485758D-03 0.100000000000D+01
-.730045092965D-04 0.000000000000D+00 0.000000000000D+00 0.875390335014D-06 0.000000000000D+00  6 2 21 25 24 1 21 4 0.32609486D+00 0.13579302D-02 0.14108929D+05 0.14108929D+05 0.14108929D+05 0.12508661D+01  1  2  4  3  6  5        1 -.344921752458D+01 0.100000000000D+01
-.736674311701D-04 0.000000000000D+00 0.000000000000D+00 0.875390335014D-06 0.000000000000D+00  6 2 21 25 24 1 21 4 0.32609486D+00 0.13579302D-02 0.14108929D+05 0.14108929D+05 0.14108929D+05 0.12508661D+01  1  2  5  3  6  5        1 -.348053835347D+01 0.100000000000D+01
0.106990016841D-03 0.000000000000D+00 -.000000000000D+00 0.875390335014D-06 0.000000000000D+00  6 2 21 25 24 1 21 4 0.32609486D+00 0.13579302D-02 0.14108929D+05 0.14108929D+05 0.14108929D+05 0.12508661D+01  1  2  6  3  6  5        1 0.505491845090D+01 0.100000000000D+01
0.520761284018D-04 0.000000000000D+00 0.000000000000D+00 0.875390335014D-06 0.177916932037D-05  6 2 21 25 24 1 21 4 0.32609486D+00 0.13579302D-02 0.14090088D+05 0.14090088D+05 0.14090088D+05 0.12509328D+01  1  2 11  3  6  5        1 0.246094885018D+01 0.100000000000D+01
  </mgrwgt>
  </event>
  <event>
  6     66 -.45638357E-03 0.58505662E+02 0.75467711E-02 0.11884964E+00
        2 -1    0    0  503    0 0.00000000E+00 0.00000000E+00 0.57535928E+02 0.57536817E+02 0.32000000E+00 0.0000E+00 0.9000E+01
       21 -1    0    0  501  502 0.00000000E+00 0.00000000E+00 -.45056806E+03 0.45056868E+03 0.75000000E+00 0.0000E+00 0.9000E+01
       25  1    1    2    0    0 -.82919341E+01 0.34348274E+02 -.17828602E+03 0.22058890E+03 0.12500000E+03 0.0000E+00 0.9000E+01
       24  1    1    2    0    0 -.36088191E+02 -.81534624E+02 -.14411925E+03 0.18758419E+03 0.80419002E+02 0.0000E+00 0.9000E+01
        1  1    1    2  501    0 0.37084207E+02 0.50265014E+02 -.59608175E+02 0.86342614E+02 0.32000000E+00 0.0000E+00 0.9000E+01
       21  1    1    2  503  502 0.72959183E+01 -.30786649E+01 -.11018683E+02 0.13589793E+02 0.75000000E+00 0.0000E+00 0.9000E+01
#aMCatNLO 2  0  0  1  2 0.79188763D+01 0.00000000D+00  -5  6  0 0.00000000D+00 0.00000000D+00 0.00000000D+00 0.00000000D+00 0.00000000D+00
  <mgrwgt>
 -.1692863477D+00    3    2    0
 0.156962416723494D+03 0.000000000000000D+00 0.000000000000000D+00 0.156962416723494D+03
 0.156962416723494D+03 0.000000000000000D+00 0.000000000000000D+00 -.156962416723494D+03
 0.130001695385787D+03 -.526557762808796D+01 0.330708973388700D+02 -.124108921767701D+02
 0.120078500190897D+03 -.332980736147330D+02 -.827122888191884D+02 0.124331233554688D+01
 0.638446378703039D+02 0.385636512428209D+02 0.496413914803184D+02 0.111675798412232D+02
 0.000000000000000D+00 0.000000000000000D+00 -.000000000000000D+00 -.000000000000000D+00
 0.160583100579510D+03 0.000000000000000D+00 0.000000000000000D+00 0.160583100579510D+03
 0.161402781066090D+03 0.000000000000000D+00 0.000000000000000D+00 -.161402781066090D+03
 0.130489754024055D+03 -.829213351400254D+01 0.343480156984477D+02 -.124108921767701D+02
 0.120079417436979D+03 -.360883815530256D+02 -.815348602068659D+02 0.124331233554688D+01
 0.634555244731413D+02 0.370845967230226D+02 0.502655093731489D+02 0.111675798412232D+02
 0.796118571142532D+01 0.729591834400552D+01 -.307866486473071D+01 -.819680486579435D+00
-.594966851220D-04 0.000000000000D+00 0.000000000000D+00 0.244077701038D-06 0.000000000000D+00  6 2 21 25 24 1 21 4 0.89701132D-02 0.67403877D-01 0.25656859D+05 0.25656859D+05 0.25656859D+05 0.12220919D+01  1  2 13  1  6  1        2 -.238028757224D+00 0.100000000000D+01
-.228565781699D-04 0.000000000000D+00 0.000000000000D+00 0.245021015018D-06 0.000000000000D+00  6 2 21 25 24 1 21 4 0.86512679D-02 0.67403877D-01 0.24389121D+05 0.24389121D+05 0.24389121D+05 0.12244512D+01  1  2  8  1  6  1        2 -.964367566528D-01 0.100000000000D+01
0.431550455188D-04 0.000000000000D+00 0.000000000000D+00 0.245021015018D-06 0.605843463895D-07  6 2 21 25 24 1 21 4 0.88508284D-02 0.69310689D-01 0.25656859D+05 0.25656859D+05 0.25656859D+05 0.12220919D+01  1  2  1  1  6  1        2 0.165179166155D+00 0.100000000000D+01
  </mgrwgt>
  </event>
  <event>
  6     66 0.45638357E-03 0.59234686E+02 0.75467711E-02 0.11651429E+00
        2 -1    0    0  502    0 0.00000000E+00 0.00000000E+00 0.54351356E+03 0.54351366E+03 0.32000000E+00 0.0000E+00 0.9000E+01
       21 -1    0    0  501  503 0.00000000E+00 0.00000000E+00 -.14197908E+03 0.14198106E+03 0.75000000E+00 0.0000E+00 0.9000E+01
       25  1    1    2    0    0 -.21903320E+02 -.12893205E+03 0.41529125E+03 0.45298460E+03 0.12500000E+03 0.0000E+00 0.9000E+01
       24  1    1    2    0    0 -.14769169E+02 0.70854986E+02 -.48600013E+02 0.11860748E+03 0.80419002E+02 0.0000E+00 0.9000E+01
        1  1    1    2  501    0 0.43131789E+02 0.48590679E+02 0.58608146E+02 0.87500986E+02 0.32000000E+00 0.0000E+00 0.9000E+01
       21  1    1    2  502  503 -.64592997E+01 0.94863852E+01 -.23764897E+02 0.26401646E+02 0.75000000E+00 0.0000E+00 0.9000E+01
#aMCatNLO 2  0  0  2  5 0.11476675D+02 0.00000000D+00  -5  6  0 0.00000000D+00 0.00000000D+00 0.00000000D+00 0.00000000D+00 0.00000000D+00
  <mgrwgt>
 0.2424181843D-02    3    2    0
 0.251690482817648D+03 0.000000000000000D+00 0.000000000000000D+00 0.251690482817648D+03
 0.251690482817648D+03 0.000000000000000D+00 0.000000000000000D+00 -.251690482817648D+03
 0.240085286917521D+03 -.249972736792568D+02 -.124388786102781D+03 0.160992270605608D+03
 0.197882830540204D+03 -.172981289953483D+02 0.745685909913097D+02 -.163800789494629D+03
 0.654128481775713D+02 0.422954026746051D+02 0.498201951114708D+02 0.280851888902106D+01
 0.000000000000000D+00 -.000000000000000D+00 0.000000000000000D+00 -.000000000000000D+00
 0.252365476619568D+03 0.000000000000000D+00 0.000000000000000D+00 0.252365476619568D+03
 0.305773579828446D+03 0.000000000000000D+00 0.000000000000000D+00 -.305773579828446D+03
 0.242171065416567D+03 -.219035595256700D+02 -.128932338109379D+03 0.160992270605608D+03
 0.196307016778036D+03 -.147693687126764D+02 0.708547527741560D+02 -.163800789494629D+03
 0.650336958425467D+02 0.431322279804166D+02 0.485912000884549D+02 0.280851888902106D+01
 0.546272784108646D+02 -.645929974207026D+01 0.948638524676800D+01 -.534081032088775D+02
-.102890943514D-03 0.000000000000D+00 0.000000000000D+00 0.583744857212D-07 0.000000000000D+00  6 2 21 25 24 1 21 4 0.83393133D-01 0.21863617D-01 0.33407154D+05 0.33407154D+05 0.33407154D+05 0.12100255D+01  1  2 13  2  6  2       21 -.307375892416D+00 0.100000000000D+01
-.984966056357D-04 0.000000000000D+00 0.000000000000D+00 0.583744857212D-07 0.000000000000D+00  6 2 21 25 24 1 21 4 0.83393133D-01 0.22030659D-01 0.33407154D+05 0.33407154D+05 0.33407154D+05 0.12100255D+01  1  2 13  2  6  2       21 -.290063478822D+00 0.100000000000D+01
0.201045301217D-03 0.000000000000D+00 0.000000000000D+00 0.586427650247D-07 0.846246413683D-08  6 2 21 25 24 1 21 4 0.83616780D-01 0.21842872D-01 0.33407154D+05 0.33407154D+05 0.33407154D+05 0.12100255D+01  1  2  1  2  6  2       21 0.599863553080D+00 0.100000000000D+01
  </mgrwgt>
  </event>
  <event>
  5     66 0.45638357E-03 0.38610485E+02 0.75467711E-02 0.10790800E+00
        2 -1    0    0  502    0 0.00000000E+00 0.00000000E+00 0.48850437E+03 0.48850447E+03 0.32000000E+00 0.0000E+00 0.9000E+01
       21 -1    0    0  501  502 0.00000000E+00 0.00000000E+00 -.52300585E+03 0.52300639E+03 0.75000000E+00 0.0000E+00 0.9000E+01
       25  1    1    2    0    0 0.21882246E+03 -.11780025E+03 0.32644208E+03 0.42889345E+03 0.12500000E+03 0.0000E+00 0.9000E+01
       24  1    1    2    0    0 -.25735286E+03 0.11531516E+03 -.86882027E+02 0.30584929E+03 0.80419002E+02 0.0000E+00 0.9000E+01
        1  1    1    2  501    0 0.38530407E+02 0.24850864E+01 -.27406153E+03 0.27676812E+03 0.32000000E+00 0.0000E+00 0.9000E+01
#aMCatNLO 1  0  0  2  1 0.16863598D+02 0.00000000D+00  -5  6  0 0.00000000D+00 0.00000000D+00 0.00000000D+00 0.00000000D+00 0.00000000D+00
  <mgrwgt>
 0.2227822481D+01   23    2    0
 0.505461144565499D+03 0.000000000000000D+00 0.000000000000000D+00 0.505461144565499D+03
 0.505461144565499D+03 0.000000000000000D+00 0.000000000000000D+00 -.505461144565499D+03
 0.440284271107912D+03 0.218822444605553D+03 -.117800248124606D+03 0.341269803328182D+03
 0.303062176063376D+03 -.257352872263536D+03 0.115315160444563D+03 -.764943103456107D+02
 0.267575841959711D+03 0.385304276579830D+02 0.248508768004241D+01 -.264775492982571D+03
 0.000000000000000D+00 0.000000000000000D+00 -.000000000000000D+00 -.000000000000000D+00
 0.506690947316467D+03 0.000000000000000D+00 0.000000000000000D+00 0.506690947316467D+03
 0.566847917972989D+03 0.000000000000000D+00 0.000000000000000D+00 -.566847917972989D+03
 0.437692910139012D+03 0.217364283784651D+03 -.110624468618327D+03 0.341269803328182D+03
 0.305844323524610D+03 -.258364155495329D+03 0.120291803202839D+03 -.764943103456107D+02
 0.267525699882312D+03 0.376417210717706D+02 0.685851646582791D+01 -.264775492982571D+03
 0.624759317435224D+02 0.335815063890756D+01 -.165258510503393D+02 -.601569706565222D+02
0.433864043948D-03 0.000000000000D+00 0.000000000000D+00 0.738484621570D-06 0.000000000000D+00  6 2 21 25 24 1 21 2 0.75154568D-01 0.80462488D-01 0.93037788D+05 0.93037788D+05 0.93037788D+05 0.11664617D+01  1  2  2  2  6  2       21 0.610733211337D-01 0.100000000000D+01
0.126184947645D-03 0.228956346212D-04 -.875846502960D-06 0.738484621570D-06 0.000000000000D+00  6 2 21 25 24 1 21 4 0.75154568D-01 0.80462488D-01 0.93037788D+05 0.93037788D+05 0.93037788D+05 0.11664617D+01  1  2  3  2  6  2       21 0.241683163231D-01 0.100000000000D+01
0.371885857316D-04 0.000000000000D+00 0.000000000000D+00 0.738484621570D-06 0.000000000000D+00  6 2 21 25 24 1 21 4 0.75154568D-01 0.80462488D-01 0.93037788D+05 0.93037788D+05 0.93037788D+05 0.11664617D+01  1  2 15  2  6  2       21 0.712276321657D-02 0.100000000000D+01
0.136775019606D-01 0.000000000000D+00 0.000000000000D+00 0.735976554809D-06 0.000000000000D+00  6 2 21 25 24 1 21 4 0.75154568D-01 0.90325245D-01 0.97753463D+05 0.97753463D+05 0.97753463D+05 0.11644792D+01  1  2 12  2  6  2       21 0.198464847399D+01 0.100000000000D+01
-.464471469591D-02 0.000000000000D+00 0.000000000000D+00 0.738484621570D-06 0.000000000000D+00  6 2 21 25 24 1 21 4 0.75154568D-01 0.80462488D-01 0.93037788D+05 0.93037788D+05 0.93037788D+05 0.11664617D+01  1  2  4  2  6  2       21 -.889606376166D+00 0.100000000000D+01
-.301290903905D-01 0.000000000000D+00 -.111303074794D-02 0.738484621570D-06 0.000000000000D+00  6 2 21 25 24 1 21 4 0.75154568D-01 0.90335369D-01 0.93037788D+05 0.93037788D+05 0.93037788D+05 0.11664617D+01  1  2  5  2  6  2       21 -.441269556026D+01 0.100000000000D+01
0.291093680347D-01 0.000000000000D+00 0.108376865366D-02 0.738484621570D-06 0.000000000000D+00  6 2 21 25 24 1 21 4 0.75154568D-01 0.80462488D-01 0.93037788D+05 0.93037788D+05 0.93037788D+05 0.11664617D+01  1  2  6  2  6  2       21 0.557534339680D+01 0.100000000000D+01
0.462530275340D-03 0.000000000000D+00 0.000000000000D+00 0.735976554809D-06 0.000000000000D+00  6 2 -1 25 24 1 -1 4 0.75154568D-01 0.90325245D-01 0.97753463D+05 0.97753463D+05 0.97753463D+05 0.11644792D+01  1  2 12  5  6  2       21 0.783453248740D-02 0.100000000000D+01
-.103270135794D-02 0.000000000000D+00 -.335734243123D-04 0.738484621570D-06 0.000000000000D+00  6 2 -1 25 24 1 -1 4 0.75154568D-01 0.90335369D-01 0.93037788D+05 0.93037788D+05 0.93037788D+05 0.11664617D+01  1  2  5  5  6  2       21 -.176302354931D-01 0.100000000000D+01
0.462530275340D-03 0.000000000000D+00 0.000000000000D+00 0.735976554809D-06 0.000000000000D+00  6 2 1 25 24 1 1 4 0.75154568D-01 0.90325245D-01 0.97753463D+05 0.97753463D+05 0.97753463D+05 0.11644792D+01  1  2 12  6  6  2       21 0.267548652649D-01 0.100000000000D+01
-.103270135794D-02 0.000000000000D+00 -.335734243123D-04 0.738484621570D-06 0.000000000000D+00  6 2 1 25 24 1 1 4 0.75154568D-01 0.90335369D-01 0.93037788D+05 0.93037788D+05 0.93037788D+05 0.11664617D+01  1  2  5  6  6  2       21 -.602039878891D-01 0.100000000000D+01
0.462530275340D-03 0.000000000000D+00 0.000000000000D+00 0.735976554809D-06 0.000000000000D+00  6 2 -2 25 24 1 -2 4 0.75154568D-01 0.90325245D-01 0.97753463D+05 0.97753463D+05 0.97753463D+05 0.11644792D+01  1  2 12  7  6  2       21 0.592763703013D-02 0.100000000000D+01
-.103270135794D-02 0.000000000000D+00 -.335734243123D-04 0.738484621570D-06 0.000000000000D+00  6 2 -2 25 24 1 -2 4 0.75154568D-01 0.90335369D-01 0.93037788D+05 0.93037788D+05 0.93037788D+05 0.11664617D+01  1  2  5  7  6  2       21 -.133356767913D-01 0.100000000000D+01
0.462530275340D-03 0.000000000000D+00 0.000000000000D+00 0.735976554809D-06 0.000000000000D+00  6 2 2 25 24 1 2 4 0.75154568D-01 0.90325245D-01 0.97753463D+05 0.97753463D+05 0.97753463D+05 0.11644792D+01  1  2 12  8  6  2       21 0.434493923422D-01 0.100000000000D+01
-.103270135794D-02 0.000000000000D+00 -.335734243123D-04 0.738484621570D-06 0.000000000000D+00  6 2 2 25 24 1 2 4 0.75154568D-01 0.90335369D-01 0.93037788D+05 0.93037788D+05 0.93037788D+05 0.11664617D+01  1  2  5  8  6  2       21 -.977515028144D-01 0.100000000000D+01
0.462530275340D-03 0.000000000000D+00 0.000000000000D+00 0.735976554809D-06 0.000000000000D+00  6 2 -3 25 24 1 -3 4 0.75154568D-01 0.90325245D-01 0.97753463D+05 0.97753463D+05 0.97753463D+05 0.11644792D+01  1  2 12  9  6  2       21 0.381492328011D-02 0.100000000000D+01
0.462530275340D-03 0.000000000000D+00 0.000000000000D+00 0.735976554809D-06 0.000000000000D+00  6 2 -4 25 24 1 -4 4 0.75154568D-01 0.90325245D-01 0.97753463D+05 0.97753463D+05 0.97753463D+05 0.11644792D+01  1  2 12  9  6  2       21 0.310569879760D-02 0.100000000000D+01
-.103270135794D-02 0.000000000000D+00 -.335734243123D-04 0.738484621570D-06 0.000000000000D+00  6 2 -3 25 24 1 -3 4 0.75154568D-01 0.90335369D-01 0.93037788D+05 0.93037788D+05 0.93037788D+05 0.11664617D+01  1  2  5  9  6  2       21 -.857617910045D-02 0.100000000000D+01
-.103270135794D-02 0.000000000000D+00 -.335734243123D-04 0.738484621570D-06 0.000000000000D+00  6 2 -4 25 24 1 -4 4 0.75154568D-01 0.90335369D-01 0.93037788D+05 0.93037788D+05 0.93037788D+05 0.11664617D+01  1  2  5  9  6  2       21 -.697898143307D-02 0.100000000000D+01
0.462530275340D-03 0.000000000000D+00 0.000000000000D+00 0.735976554809D-06 0.000000000000D+00  6 2 3 25 24 1 3 4 0.75154568D-01 0.90325245D-01 0.97753463D+05 0.97753463D+05 0.97753463D+05 0.11644792D+01  1  2 12 10  6  2       21 0.382117643846D-02 0.100000000000D+01
0.462530275340D-03 0.000000000000D+00 0.000000000000D+00 0.735976554809D-06 0.000000000000D+00  6 2 4 25 24 1 4 4 0.75154568D-01 0.90325245D-01 0.97753463D+05 0.97753463D+05 0.97753463D+05 0.11644792D+01  1  2 12 10  6  2       21 0.310569879760D-02 0.100000000000D+01
-.103270135794D-02 0.000000000000D+00 -.335734243123D-04 0.738484621570D-06 0.000000000000D+00  6 2 3 25 24 1 3 4 0.75154568D-01 0.90335369D-01 0.93037788D+05 0.93037788D+05 0.93037788D+05 0.11664617D+01  1  2  5 10  6  2       21 -.859023350676D-02 0.100000000000D+01
-.103270135794D-02 0.000000000000D+00 -.335734243123D-04 0.738484621570D-06 0.000000000000D+00  6 2 4 25 24 1 4 4 0.75154568D-01 0.90335369D-01 0.93037788D+05 0.93037788D+05 0.93037788D+05 0.11664617D+01  1  2  5 10  6  2       21 -.697898143307D-02 0.100000000000D+01
  </mgrwgt>
  </event>
  <event>
  5     66 -.45638357E-03 0.50177092E+02 0.75467711E-02 0.12218476E+00
        2 -1    0    0  502    0 0.00000000E+00 0.00000000E+00 0.21106790E+04 0.21106790E+04 0.32000000E+00 0.0000E+00 0.9000E+01
       21 -1    0    0  501  502 0.00000000E+00 0.00000000E+00 -.70264560E+02 0.70268562E+02 0.75000000E+00 0.0000E+00 0.9000E+01
       25  1    1    2    0    0 0.10609375E+02 -.36163129E+02 0.19120796E+04 0.19165317E+04 0.12500000E+03 0.0000E+00 0.9000E+01
       24  1    1    2    0    0 -.55708886E+01 -.14617282E+02 0.17628479E+03 0.19439198E+03 0.80419002E+02 0.0000E+00 0.9000E+01
        1  1    1    2  501    0 -.50384867E+01 0.50780411E+02 -.47949999E+02 0.70023862E+02 0.32000000E+00 0.0000E+00 0.9000E+01
#aMCatNLO 1  0  0  2  5 0.54665588D+01 0.00000000D+00  -5  6  0 0.00000000D+00 0.00000000D+00 0.00000000D+00 0.00000000D+00 0.00000000D+00
  <mgrwgt>
 -.2443248605D+01   41    2    0
 0.385110790241919D+03 0.000000000000000D+00 0.000000000000000D+00 0.385110790241919D+03
 0.385110790241919D+03 0.000000000000000D+00 0.000000000000000D+00 -.385110790241919D+03
 0.361480913221898D+03 0.106093764993808D+02 -.361631405324359D+02 0.337080285719683D+03
 0.834366285514799D+02 -.557088836328599D+01 -.146172851203530D+02 -.158036454092468D+02
 0.325304038710461D+03 -.503848813609481D+01 0.507804256527889D+02 -.321276640310436D+03
 0.000000000000000D+00 -.000000000000000D+00 0.000000000000000D+00 -.000000000000000D+00
 0.385199943144920D+03 0.000000000000000D+00 0.000000000000000D+00 0.385199943144920D+03
 0.479148070241594D+03 0.000000000000000D+00 0.000000000000000D+00 -.479148070241594D+03
 0.361749677787046D+03 0.119019126886696D+02 -.383803964612129D+02 0.337080285719683D+03
 0.835084449807702D+02 -.527252909606682D+01 -.151290996905208D+02 -.158036454092468D+02
 0.324982856607146D+03 -.387631474897949D+01 0.487867980435952D+02 -.321276640310436D+03
 0.941070340115511D+02 -.275306884362331D+01 0.472269810813853D+01 -.939481270966744D+02
0.100687496127D-04 0.000000000000D+00 0.000000000000D+00 0.298471428491D-05 0.000000000000D+00  6 2 21 25 24 1 21 2 0.32472015D+00 0.10810242D-01 0.17359885D+05 0.17359885D+05 0.17359885D+05 0.12406528D+01  1  2  2  2  6  2       21 0.956647133784D-02 0.100000000000D+01
0.156293098615D-05 0.531342514876D-06 -.203259045328D-07 0.298471428491D-05 0.000000000000D+00  6 2 21 25 24 1 21 4 0.32472015D+00 0.10810242D-01 0.17359885D+05 0.17359885D+05 0.17359885D+05 0.12406528D+01  1  2  3  2  6  2       21 0.228568585399D-02 0.100000000000D+01
0.907419950064D-06 0.000000000000D+00 0.000000000000D+00 0.298471428491D-05 0.000000000000D+00  6 2 21 25 24 1 21 4 0.32472015D+00 0.10810242D-01 0.17359885D+05 0.17359885D+05 0.17359885D+05 0.12406528D+01  1  2 15  2  6  2       21 0.132704320400D-02 0.100000000000D+01
0.229866544246D-02 0.000000000000D+00 0.000000000000D+00 0.297734493308D-05 0.000000000000D+00  6 2 21 25 24 1 21 4 0.32472015D+00 0.13450961D-01 0.17916707D+05 0.17916707D+05 0.17916707D+05 0.12391202D+01  1  2 12  2  6  2       21 0.226683476531D+01 0.100000000000D+01
0.208464838897D-02 0.000000000000D+00 0.000000000000D+00 0.297734493308D-05 0.000000000000D+00  6 2 21 25 24 1 21 4 0.32472015D+00 0.13709879D-01 0.17916707D+05 0.17916707D+05 0.17916707D+05 0.12391202D+01  1  2 12  2  6  2       21 0.198678627352D+01 0.100000000000D+01
-.898578910576D-02 0.000000000000D+00 0.000000000000D+00 0.298471428491D-05 0.000000000000D+00  6 2 21 25 24 1 21 4 0.32472015D+00 0.10810242D-01 0.17359885D+05 0.17359885D+05 0.17359885D+05 0.12406528D+01  1  2  4  2  6  2       21 -.131411375345D+02 0.100000000000D+01
-.778899211183D-02 0.000000000000D+00 -.165399841439D-04 0.298471428491D-05 0.000000000000D+00  6 2 21 25 24 1 21 4 0.32472015D+00 0.13451323D-01 0.17359885D+05 0.17359885D+05 0.17359885D+05 0.12406528D+01  1  2  5  2  6  2       21 -.773054112940D+01 0.100000000000D+01
0.717800516883D-02 0.000000000000D+00 0.150604518478D-04 0.298471428491D-05 0.000000000000D+00  6 2 21 25 24 1 21 4 0.32472015D+00 0.10810242D-01 0.17359885D+05 0.17359885D+05 0.17359885D+05 0.12406528D+01  1  2  6  2  6  2       21 0.104973700180D+02 0.100000000000D+01
0.371924217634D-02 0.000000000000D+00 0.000000000000D+00 0.298471428491D-05 0.311248030461D-05  6 2 21 25 24 1 21 4 0.32479533D+00 0.13449913D-01 0.17916707D+05 0.17916707D+05 0.17916707D+05 0.12391202D+01  1  2 11  2  6  2       21 0.366612966928D+01 0.100000000000D+01
0.136653716975D-03 0.000000000000D+00 0.000000000000D+00 0.297734493308D-05 0.000000000000D+00  6 2 -1 25 24 1 -1 4 0.32472015D+00 0.13450961D-01 0.17916707D+05 0.17916707D+05 0.17916707D+05 0.12391202D+01  1  2 12  5  6  2       21 0.955988316980D-02 0.100000000000D+01
0.136669783848D-03 0.000000000000D+00 0.000000000000D+00 0.297734493308D-05 0.000000000000D+00  6 2 -1 25 24 1 -1 4 0.32472015D+00 0.13709879D-01 0.17916707D+05 0.17916707D+05 0.17916707D+05 0.12391202D+01  1  2 12  5  6  2       21 0.928165519388D-02 0.100000000000D+01
-.462472841938D-03 0.000000000000D+00 -.105664503605D-05 0.298471428491D-05 0.000000000000D+00  6 2 -1 25 24 1 -1 4 0.32472015D+00 0.13451323D-01 0.17359885D+05 0.17359885D+05 0.17359885D+05 0.12406528D+01  1  2  5  5  6  2       21 -.325442235203D-01 0.100000000000D+01
0.186671023391D-03 0.000000000000D+00 0.000000000000D+00 0.298471428491D-05 0.155179113278D-06  6 2 -1 25 24 1 -1 4 0.32479533D+00 0.13449913D-01 0.17916707D+05 0.17916707D+05 0.17916707D+05 0.12391202D+01  1  2 11  5  6  2       21 0.130529705007D-01 0.100000000000D+01
0.136653716975D-03 0.000000000000D+00 0.000000000000D+00 0.297734493308D-05 0.000000000000D+00  6 2 1 25 24 1 1 4 0.32472015D+00 0.13450961D-01 0.17916707D+05 0.17916707D+05 0.17916707D+05 0.12391202D+01  1  2 12  6  6  2       21 0.128098618064D-01 0.100000000000D+01
0.136669783848D-03 0.000000000000D+00 0.000000000000D+00 0.297734493308D-05 0.000000000000D+00  6 2 1 25 24 1 1 4 0.32472015D+00 0.13709879D-01 0.17916707D+05 0.17916707D+05 0.17916707D+05 0.12391202D+01  1  2 12  6  6  2       21 0.124973158248D-01 0.100000000000D+01
-.462472841938D-03 0.000000000000D+00 -.105664503605D-05 0.298471428491D-05 0.000000000000D+00  6 2 1 25 24 1 1 4 0.32472015D+00 0.13451323D-01 0.17359885D+05 0.17359885D+05 0.17359885D+05 0.12406528D+01  1  2  5  6  6  2       21 -.436101265844D-01 0.100000000000D+01
0.234046431182D-03 0.000000000000D+00 0.000000000000D+00 0.298471428491D-05 0.736745750929D-07  6 2 1 25 24 1 1 4 0.32479533D+00 0.13449913D-01 0.17916707D+05 0.17916707D+05 0.17916707D+05 0.12391202D+01  1  2 11  6  6  2       21 0.219289484941D-01 0.100000000000D+01
0.136653716975D-03 0.000000000000D+00 0.000000000000D+00 0.297734493308D-05 0.000000000000D+00  6 2 -2 25 24 1 -2 4 0.32472015D+00 0.13450961D-01 0.17916707D+05 0.17916707D+05 0.17916707D+05 0.12391202D+01  1  2 12  7  6  2       21 0.899815299266D-02 0.100000000000D+01
0.136669783848D-03 0.000000000000D+00 0.000000000000D+00 0.297734493308D-05 0.000000000000D+00  6 2 -2 25 24 1 -2 4 0.32472015D+00 0.13709879D-01 0.17916707D+05 0.17916707D+05 0.17916707D+05 0.12391202D+01  1  2 12  7  6  2       21 0.872612352633D-02 0.100000000000D+01
-.462472841938D-03 0.000000000000D+00 -.105664503605D-05 0.298471428491D-05 0.000000000000D+00  6 2 -2 25 24 1 -2 4 0.32472015D+00 0.13451323D-01 0.17359885D+05 0.17359885D+05 0.17359885D+05 0.12406528D+01  1  2  5  7  6  2       21 -.306312213709D-01 0.100000000000D+01
0.181515858667D-03 0.000000000000D+00 0.000000000000D+00 0.298471428491D-05 0.113271723678D-06  6 2 -2 25 24 1 -2 4 0.32479533D+00 0.13449913D-01 0.17916707D+05 0.17916707D+05 0.17916707D+05 0.12391202D+01  1  2 11  7  6  2       21 0.119467522214D-01 0.100000000000D+01
0.136653716975D-03 0.000000000000D+00 0.000000000000D+00 0.297734493308D-05 0.000000000000D+00  6 2 2 25 24 1 2 4 0.32472015D+00 0.13450961D-01 0.17916707D+05 0.17916707D+05 0.17916707D+05 0.12391202D+01  1  2 12  8  6  2       21 0.150332915461D-01 0.100000000000D+01
0.136669783848D-03 0.000000000000D+00 0.000000000000D+00 0.297734493308D-05 0.000000000000D+00  6 2 2 25 24 1 2 4 0.32472015D+00 0.13709879D-01 0.17916707D+05 0.17916707D+05 0.17916707D+05 0.12391202D+01  1  2 12  8  6  2       21 0.146994416544D-01 0.100000000000D+01
-.462472841938D-03 0.000000000000D+00 -.105664503605D-05 0.298471428491D-05 0.000000000000D+00  6 2 2 25 24 1 2 4 0.32472015D+00 0.13451323D-01 0.17359885D+05 0.17359885D+05 0.17359885D+05 0.12406528D+01  1  2  5  8  6  2       21 -.511789492329D-01 0.100000000000D+01
0.181252394541D-03 0.000000000000D+00 0.000000000000D+00 0.298471428491D-05 0.113111167965D-06  6 2 2 25 24 1 2 4 0.32479533D+00 0.13449913D-01 0.17916707D+05 0.17916707D+05 0.17916707D+05 0.12391202D+01  1  2 11  8  6  2       21 0.199299040436D-01 0.100000000000D+01
0.136653716975D-03 0.000000000000D+00 0.000000000000D+00 0.297734493308D-05 0.000000000000D+00  6 2 -3 25 24 1 -3 4 0.32472015D+00 0.13450961D-01 0.17916707D+05 0.17916707D+05 0.17916707D+05 0.12391202D+01  1  2 12  9  6  2       21 0.603137569681D-02 0.100000000000D+01
0.136653716975D-03 0.000000000000D+00 0.000000000000D+00 0.297734493308D-05 0.000000000000D+00  6 2 -4 25 24 1 -4 4 0.32472015D+00 0.13450961D-01 0.17916707D+05 0.17916707D+05 0.17916707D+05 0.12391202D+01  1  2 12  9  6  2       21 0.521007250824D-02 0.100000000000D+01
0.136669783848D-03 0.000000000000D+00 0.000000000000D+00 0.297734493308D-05 0.000000000000D+00  6 2 -3 25 24 1 -3 4 0.32472015D+00 0.13709879D-01 0.17916707D+05 0.17916707D+05 0.17916707D+05 0.12391202D+01  1  2 12  9  6  2       21 0.584033631541D-02 0.100000000000D+01
0.136669783848D-03 0.000000000000D+00 0.000000000000D+00 0.297734493308D-05 0.000000000000D+00  6 2 -4 25 24 1 -4 4 0.32472015D+00 0.13709879D-01 0.17916707D+05 0.17916707D+05 0.17916707D+05 0.12391202D+01  1  2 12  9  6  2       21 0.504168162389D-02 0.100000000000D+01
-.462472841938D-03 0.000000000000D+00 -.105664503605D-05 0.298471428491D-05 0.000000000000D+00  6 2 -3 25 24 1 -3 4 0.32472015D+00 0.13451323D-01 0.17359885D+05 0.17359885D+05 0.17359885D+05 0.12406528D+01  1  2  5  9  6  2       21 -.205166352243D-01 0.100000000000D+01
-.462472841938D-03 0.000000000000D+00 -.105664503605D-05 0.298471428491D-05 0.000000000000D+00  6 2 -4 25 24 1 -4 4 0.32472015D+00 0.13451323D-01 0.17359885D+05 0.17359885D+05 0.17359885D+05 0.12406528D+01  1  2  5  9  6  2       21 -.177166977084D-01 0.100000000000D+01
0.181512628225D-03 0.000000000000D+00 0.000000000000D+00 0.298471428491D-05 0.113269707779D-06  6 2 -3 25 24 1 -3 4 0.32479533D+00 0.13449913D-01 0.17916707D+05 0.17916707D+05 0.17916707D+05 0.12391202D+01  1  2 11  9  6  2       21 0.800769981475D-02 0.100000000000D+01
0.181512628225D-03 0.000000000000D+00 0.000000000000D+00 0.298471428491D-05 0.113269707779D-06  6 2 -4 25 24 1 -4 4 0.32479533D+00 0.13449913D-01 0.17916707D+05 0.17916707D+05 0.17916707D+05 0.12391202D+01  1  2 11  9  6  2       21 0.691729587576D-02 0.100000000000D+01
0.136653716975D-03 0.000000000000D+00 0.000000000000D+00 0.297734493308D-05 0.000000000000D+00  6 2 3 25 24 1 3 4 0.32472015D+00 0.13450961D-01 0.17916707D+05 0.17916707D+05 0.17916707D+05 0.12391202D+01  1  2 12 10  6  2       21 0.603060450603D-02 0.100000000000D+01
0.136653716975D-03 0.000000000000D+00 0.000000000000D+00 0.297734493308D-05 0.000000000000D+00  6 2 4 25 24 1 4 4 0.32472015D+00 0.13450961D-01 0.17916707D+05 0.17916707D+05 0.17916707D+05 0.12391202D+01  1  2 12 10  6  2       21 0.521007250824D-02 0.100000000000D+01
0.136669783848D-03 0.000000000000D+00 0.000000000000D+00 0.297734493308D-05 0.000000000000D+00  6 2 3 25 24 1 3 4 0.32472015D+00 0.13709879D-01 0.17916707D+05 0.17916707D+05 0.17916707D+05 0.12391202D+01  1  2 12 10  6  2       21 0.583959267934D-02 0.100000000000D+01
0.136669783848D-03 0.000000000000D+00 0.000000000000D+00 0.297734493308D-05 0.000000000000D+00  6 2 4 25 24 1 4 4 0.32472015D+00 0.13709879D-01 0.17916707D+05 0.17916707D+05 0.17916707D+05 0.12391202D+01  1  2 12 10  6  2       21 0.504168162389D-02 0.100000000000D+01
-.462472841938D-03 0.000000000000D+00 -.105664503605D-05 0.298471428491D-05 0.000000000000D+00  6 2 3 25 24 1 3 4 0.32472015D+00 0.13451323D-01 0.17359885D+05 0.17359885D+05 0.17359885D+05 0.12406528D+01  1  2  5 10  6  2       21 -.205140024614D-01 0.100000000000D+01
-.462472841938D-03 0.000000000000D+00 -.105664503605D-05 0.298471428491D-05 0.000000000000D+00  6 2 4 25 24 1 4 4 0.32472015D+00 0.13451323D-01 0.17359885D+05 0.17359885D+05 0.17359885D+05 0.12406528D+01  1  2  5 10  6  2       21 -.177166977084D-01 0.100000000000D+01
0.181512628225D-03 0.000000000000D+00 0.000000000000D+00 0.298471428491D-05 0.113269707779D-06  6 2 3 25 24 1 3 4 0.32479533D+00 0.13449913D-01 0.17916707D+05 0.17916707D+05 0.17916707D+05 0.12391202D+01  1  2 11 10  6  2       21 0.800667590865D-02 0.100000000000D+01
0.181512628225D-03 0.000000000000D+00 0.000000000000D+00 0.298471428491D-05 0.113269707779D-06  6 2 4 25 24 1 4 4 0.32479533D+00 0.13449913D-01 0.17916707D+05 0.17916707D+05 0.17916707D+05 0.12391202D+01  1  2 11 10  6  2       21 0.691729587576D-02 0.100000000000D+01
  </mgrwgt>
  </event>
  <event>
  6     66 -.45638357E-03 0.31177773E+03 0.75467711E-02 0.10611482E+00
        2 -1    0    0  502    0 0.00000000E+00 0.00000000E+00 0.48182851E+03 0.48182862E+03 0.32000000E+00 0.0000E+00 0.9000E+01
       21 -1    0    0  503  502 0.00000000E+00 0.00000000E+00 -.26992794E+03 0.26992898E+03 0.75000000E+00 0.0000E+00 0.9000E+01
       25  1    1    2    0    0 0.10568074E+03 -.33350149E+02 -.98581394E+01 0.16734047E+03 0.12500000E+03 0.0000E+00 0.9000E+01
       24  1    1    2    0    0 0.19203201E+03 -.51132040E+02 0.96763375E+02 0.23520447E+03 0.80419002E+02 0.0000E+00 0.9000E+01
        1  1    1    2  501    0 -.30607058E+03 0.80345268E+02 0.12373666E+03 0.33977261E+03 0.32000000E+00 0.0000E+00 0.9000E+01
       21  1    1    2  503  501 0.83578377E+01 0.41369209E+01 0.12586774E+01 0.94400389E+01 0.75000000E+00 0.0000E+00 0.9000E+01
#aMCatNLO 2  0  0  2  1 0.93256402D+01 0.00000000D+00  -5  6  0 0.00000000D+00 0.00000000D+00 0.00000000D+00 0.00000000D+00 0.00000000D+00
  <mgrwgt>
 -.2738360642D-01    4    2    0
 0.355871599936701D+03 0.000000000000000D+00 0.000000000000000D+00 0.355871599936701D+03
 0.355871599936701D+03 0.000000000000000D+00 0.000000000000000D+00 -.355871599936701D+03
 0.178493623069155D+03 0.107770458426458D+03 -.323158190646854D+02 -.598012508655408D+02
 0.218628665552575D+03 0.194587649723103D+03 -.498670988391068D+02 0.313080896181593D+02
 0.314620911251672D+03 -.302358108149561D+03 0.821829179037922D+02 0.284931612473815D+02
 0.000000000000000D+00 0.000000000000000D+00 0.000000000000000D+00 -.000000000000000D+00
 0.359882956222112D+03 0.000000000000000D+00 0.000000000000000D+00 0.359882956222112D+03
 0.361363820938699D+03 0.000000000000000D+00 0.000000000000000D+00 -.361363820938699D+03
 0.177431251907204D+03 0.105680775894729D+03 -.333501597381806D+02 -.598012508655408D+02
 0.216652279618113D+03 0.192032057092558D+03 -.511320533776659D+02 0.313080896181593D+02
 0.317720760490012D+03 -.306070670654809D+03 0.803452921669798D+02 0.284931612473815D+02
 0.944248514548249D+01 0.835783766752222D+01 0.413692094886666D+01 -.148086471658704D+01
-.288280525785D-04 0.000000000000D+00 0.000000000000D+00 0.138865418446D-06 0.000000000000D+00  6 2 21 25 24 1 21 4 0.73298282D-01 0.41753157D-01 0.12503093D+06 0.12503093D+06 0.12503093D+06 0.11547633D+01  1  2 13  2  6  2       21 -.223179944428D-01 0.100000000000D+01
-.223043857358D-04 0.000000000000D+00 0.000000000000D+00 0.138865418446D-06 0.000000000000D+00  6 2 21 25 24 1 21 4 0.73298282D-01 0.41998504D-01 0.12503093D+06 0.12503093D+06 0.12503093D+06 0.11547633D+01  1  2 13  2  6  2       21 -.170600887727D-01 0.100000000000D+01
-.207352366583D-03 0.000000000000D+00 0.000000000000D+00 0.139114379636D-06 0.000000000000D+00  6 2 21 25 24 1 21 4 0.73298282D-01 0.40894618D-01 0.12175955D+06 0.12175955D+06 0.12175955D+06 0.11557979D+01  1  2  8  2  6  2       21 -.168298251313D+00 0.100000000000D+01
0.233205028963D-03 0.000000000000D+00 0.000000000000D+00 0.139114379636D-06 0.170731422694D-07  6 2 21 25 24 1 21 4 0.74124494D-01 0.41525751D-01 0.12503093D+06 0.12503093D+06 0.12503093D+06 0.11547633D+01  1  2  1  2  6  2       21 0.180292728107D+00 0.100000000000D+01
  </mgrwgt>
  </event>
  <event>
  6     66 0.45638357E-03 0.33104980E+02 0.75467711E-02 0.12125070E+00
        4 -1    0    0  502    0 0.00000000E+00 0.00000000E+00 0.48797502E+03 0.48797748E+03 0.15500000E+01 0.0000E+00 0.9000E+01
        3 -1    0    0  501    0 0.00000000E+00 0.00000000E+00 -.15917493E+03 0.15917572E+03 0.50000000E+00 0.0000E+00 0.9000E+01
       25  1    1    2    0    0 -.21395800E+02 0.45409262E+02 0.22649462E+03 0.26352342E+03 0.12500000E+03 0.0000E+00 0.9000E+01
       24  1    1    2    0    0 0.77868527E+00 -.28296189E+02 0.21197006E+03 0.22847276E+03 0.80419002E+02 0.0000E+00 0.9000E+01
        3  1    1    2  501    0 -.18739080E+02 -.10911049E+01 0.14626597E+02 0.23801911E+02 0.50000000E+00 0.0000E+00 0.9000E+01
        3  1    1    2  502    0 0.39356196E+02 -.16021968E+02 -.12429119E+03 0.13135510E+03 0.50000000E+00 0.0000E+00 0.9000E+01
#aMCatNLO 2  0  0  2  1 0.40380124D+01 0.00000000D+00  -5  6  0 0.00000000D+00 0.00000000D+00 0.00000000D+00 0.00000000D+00 0.00000000D+00
  <mgrwgt>
 0.7011563884D-03    1    2    0
 0.121398473062603D+03 0.000000000000000D+00 0.000000000000000D+00 0.121398473062603D+03
 0.121398473062603D+03 0.000000000000000D+00 0.000000000000000D+00 -.121398473062603D+03
 0.130695738623460D+03 -.131272975356662D-01 0.367057667438566D+02 -.104433045417335D+02
 0.917975964179292D+02 0.152795620376574D+02 -.341985185252145D+02 0.235919280338936D+02
 0.203036110838162D+02 -.152664347401217D+02 -.250724821864215D+01 -.131486234921600D+02
 0.000000000000000D+00 0.000000000000000D+00 -.000000000000000D+00 -.000000000000000D+00
 0.124142044557547D+03 0.000000000000000D+00 0.000000000000000D+00 0.124142044557547D+03
 0.625688803527398D+03 0.000000000000000D+00 0.000000000000000D+00 -.625688803527398D+03
 0.135106518600882D+03 -.213932687645551D+02 0.454096554739908D+02 -.104433045417335D+02
 0.884593714736685D+02 0.780364347678539D+00 -.282958726720771D+02 0.235919280338936D+02
 0.229213725516978D+02 -.187432910869694D+02 -.109181461076334D+01 -.131486234921600D+02
 0.503343585458698D+03 0.393561955038459D+02 -.160219681911504D+02 -.501546758969851D+03
0.591146143345D-04 0.000000000000D+00 0.000000000000D+00 0.237690417928D-05 0.644669832577D-07  6 4 3 25 24 3 3 4 0.75073255D-01 0.24488677D-01 0.19771912D+05 0.19771912D+05 0.19771912D+05 0.12343748D+01  1  2  1  6  6  2       21 0.701156388397D-03 0.100000000000D+01
  </mgrwgt>
  </event>
  <event>
  5     66 0.45638357E-03 0.10450234E+03 0.75467711E-02 0.10983742E+00
        2 -1    0    0  502    0 0.00000000E+00 0.00000000E+00 0.10260973E+04 0.10260974E+04 0.32000000E+00 0.0000E+00 0.9000E+01
       21 -1    0    0  501  502 0.00000000E+00 0.00000000E+00 -.11444227E+03 0.11444473E+03 0.75000000E+00 0.0000E+00 0.9000E+01
       25  1    1    2    0    0 -.11403229E+03 0.19202780E+03 0.90562706E+02 0.27148599E+03 0.12500000E+03 0.0000E+00 0.9000E+01
       24  1    1    2    0    0 0.99513477E+01 -.14760606E+03 0.55271942E+03 0.57779975E+03 0.80419002E+02 0.0000E+00 0.9000E+01
        1  1    1    2  501    0 0.10408094E+03 -.44421748E+02 0.26837292E+03 0.29125635E+03 0.32000000E+00 0.0000E+00 0.9000E+01
#aMCatNLO 1  0  0  2  1 0.12911784D+02 0.00000000D+00  -5  6  0 0.00000000D+00 0.00000000D+00 0.00000000D+00 0.00000000D+00 0.00000000D+00
  <mgrwgt>
 0.2375104204D+00   32    2    0
 0.342681097974084D+03 0.000000000000000D+00 0.000000000000000D+00 0.342681097974084D+03
 0.342681097974084D+03 0.000000000000000D+00 0.000000000000000D+00 -.342681097974084D+03
 0.331327521621170D+03 -.114032447630434D+03 0.192027871872483D+03 -.210415835656835D+03
 0.226326218678439D+03 0.995123984383174D+01 -.147606010572070D+03 0.151227576107927D+03
 0.127708455648559D+03 0.104081207786602D+03 -.444218613004130D+02 0.591882595489085D+02
 0.000000000000000D+00 -.000000000000000D+00 -.000000000000000D+00 -.000000000000000D+00
 0.346623608779967D+03 0.000000000000000D+00 0.000000000000000D+00 0.346623608779967D+03
 0.353479081895240D+03 0.000000000000000D+00 0.000000000000000D+00 -.353479081895240D+03
 0.331399601438301D+03 -.108675415716032D+03 0.195231979852810D+03 -.210415835656835D+03
 0.225099873791589D+03 0.136002590256506D+02 -.145423486430409D+03 0.151227576107927D+03
 0.128984334786779D+03 0.106156136400072D+03 -.431808204712263D+02 0.591882595489085D+02
 0.146188806585374D+02 -.110809797096910D+02 -.662767295117482D+01 -.685547311527373D+01
0.224923729295D-04 0.000000000000D+00 0.000000000000D+00 0.164851480056D-07 0.000000000000D+00  6 2 21 25 24 1 21 2 0.15786132D+00 0.17606696D-01 0.72222805D+05 0.72222805D+05 0.72222805D+05 0.11767818D+01  1  2  2  2  6  2       21 0.287035706927D-01 0.100000000000D+01
-.188268390517D-05 0.118695512924D-05 -.454056206048D-07 0.164851480056D-07 0.000000000000D+00  6 2 21 25 24 1 21 4 0.15786132D+00 0.17606696D-01 0.72222805D+05 0.72222805D+05 0.72222805D+05 0.11767818D+01  1  2  3  2  6  2       21 -.332713156183D-02 0.100000000000D+01
0.219322956576D-05 0.000000000000D+00 0.000000000000D+00 0.164851480056D-07 0.000000000000D+00  6 2 21 25 24 1 21 4 0.15786132D+00 0.17606696D-01 0.72222805D+05 0.72222805D+05 0.72222805D+05 0.11767818D+01  1  2 15  2  6  2       21 0.387593652367D-02 0.100000000000D+01
0.571451512026D-04 0.000000000000D+00 0.000000000000D+00 0.164308908797D-07 0.000000000000D+00  6 2 21 25 24 1 21 4 0.15786132D+00 0.18260551D-01 0.75701211D+05 0.75701211D+05 0.75701211D+05 0.11748437D+01  1  2 12  2  6  2       21 0.935887443100D-01 0.100000000000D+01
0.400898985106D-04 0.000000000000D+00 0.000000000000D+00 0.164308908797D-07 0.000000000000D+00  6 2 21 25 24 1 21 4 0.15786132D+00 0.18527940D-01 0.75701211D+05 0.75701211D+05 0.75701211D+05 0.11748437D+01  1  2 12  2  6  2       21 0.638980459390D-01 0.100000000000D+01
-.546375934575D-04 0.000000000000D+00 0.000000000000D+00 0.164851480056D-07 0.000000000000D+00  6 2 21 25 24 1 21 4 0.15786132D+00 0.17606696D-01 0.72222805D+05 0.72222805D+05 0.72222805D+05 0.11767818D+01  1  2  4  2  6  2       21 -.965570806419D-01 0.100000000000D+01
-.111981154269D-02 0.000000000000D+00 -.159680370859D-03 0.164851480056D-07 0.000000000000D+00  6 2 21 25 24 1 21 4 0.15786132D+00 0.18363826D-01 0.72222805D+05 0.72222805D+05 0.72222805D+05 0.11767818D+01  1  2  5  2  6  2       21 -.182966513737D+01 0.100000000000D+01
0.112243298137D-02 0.000000000000D+00 0.159115658005D-03 0.164851480056D-07 0.000000000000D+00  6 2 21 25 24 1 21 4 0.15786132D+00 0.17606696D-01 0.72222805D+05 0.72222805D+05 0.72222805D+05 0.11767818D+01  1  2  6  2  6  2       21 0.198359490304D+01 0.100000000000D+01
0.145308022819D-05 0.000000000000D+00 0.000000000000D+00 0.164308908797D-07 0.000000000000D+00  6 2 -1 25 24 1 -1 4 0.15786132D+00 0.18260551D-01 0.75701211D+05 0.75701211D+05 0.75701211D+05 0.11748437D+01  1  2 12  5  6  2       21 0.187288239415D-03 0.100000000000D+01
0.145534107774D-05 0.000000000000D+00 0.000000000000D+00 0.164308908797D-07 0.000000000000D+00  6 2 -1 25 24 1 -1 4 0.15786132D+00 0.18527940D-01 0.75701211D+05 0.75701211D+05 0.75701211D+05 0.11748437D+01  1  2 12  5  6  2       21 0.183213318018D-03 0.100000000000D+01
-.973408531629D-05 0.000000000000D+00 -.158860507430D-05 0.164851480056D-07 0.000000000000D+00  6 2 -1 25 24 1 -1 4 0.15786132D+00 0.18363826D-01 0.72222805D+05 0.72222805D+05 0.72222805D+05 0.11767818D+01  1  2  5  5  6  2       21 -.125208226722D-02 0.100000000000D+01
0.145308022819D-05 0.000000000000D+00 0.000000000000D+00 0.164308908797D-07 0.000000000000D+00  6 2 1 25 24 1 1 4 0.15786132D+00 0.18260551D-01 0.75701211D+05 0.75701211D+05 0.75701211D+05 0.11748437D+01  1  2 12  6  6  2       21 0.273256637623D-03 0.100000000000D+01
0.145534107774D-05 0.000000000000D+00 0.000000000000D+00 0.164308908797D-07 0.000000000000D+00  6 2 1 25 24 1 1 4 0.15786132D+00 0.18527940D-01 0.75701211D+05 0.75701211D+05 0.75701211D+05 0.11748437D+01  1  2 12  6  6  2       21 0.268547229059D-03 0.100000000000D+01
-.973408531629D-05 0.000000000000D+00 -.158860507430D-05 0.164851480056D-07 0.000000000000D+00  6 2 1 25 24 1 1 4 0.15786132D+00 0.18363826D-01 0.72222805D+05 0.72222805D+05 0.72222805D+05 0.11767818D+01  1  2  5  6  6  2       21 -.183011353799D-02 0.100000000000D+01
0.145308022819D-05 0.000000000000D+00 0.000000000000D+00 0.164308908797D-07 0.000000000000D+00  6 2 -2 25 24 1 -2 4 0.15786132D+00 0.18260551D-01 0.75701211D+05 0.75701211D+05 0.75701211D+05 0.11748437D+01  1  2 12  7  6  2       21 0.172775710680D-03 0.100000000000D+01
0.145534107774D-05 0.000000000000D+00 0.000000000000D+00 0.164308908797D-07 0.000000000000D+00  6 2 -2 25 24 1 -2 4 0.15786132D+00 0.18527940D-01 0.75701211D+05 0.75701211D+05 0.75701211D+05 0.11748437D+01  1  2 12  7  6  2       21 0.168822802012D-03 0.100000000000D+01
-.973408531629D-05 0.000000000000D+00 -.158860507430D-05 0.164851480056D-07 0.000000000000D+00  6 2 -2 25 24 1 -2 4 0.15786132D+00 0.18363826D-01 0.72222805D+05 0.72222805D+05 0.72222805D+05 0.11767818D+01  1  2  5  7  6  2       21 -.115450740923D-02 0.100000000000D+01
0.145308022819D-05 0.000000000000D+00 0.000000000000D+00 0.164308908797D-07 0.000000000000D+00  6 2 2 25 24 1 2 4 0.15786132D+00 0.18260551D-01 0.75701211D+05 0.75701211D+05 0.75701211D+05 0.11748437D+01  1  2 12  8  6  2       21 0.333823532141D-03 0.100000000000D+01
0.145534107774D-05 0.000000000000D+00 0.000000000000D+00 0.164308908797D-07 0.000000000000D+00  6 2 2 25 24 1 2 4 0.15786132D+00 0.18527940D-01 0.75701211D+05 0.75701211D+05 0.75701211D+05 0.11748437D+01  1  2 12  8  6  2       21 0.328730115746D-03 0.100000000000D+01
-.973408531629D-05 0.000000000000D+00 -.158860507430D-05 0.164851480056D-07 0.000000000000D+00  6 2 2 25 24 1 2 4 0.15786132D+00 0.18363826D-01 0.72222805D+05 0.72222805D+05 0.72222805D+05 0.11767818D+01  1  2  5  8  6  2       21 -.223737785690D-02 0.100000000000D+01
0.145308022819D-05 0.000000000000D+00 0.000000000000D+00 0.164308908797D-07 0.000000000000D+00  6 2 -3 25 24 1 -3 4 0.15786132D+00 0.18260551D-01 0.75701211D+05 0.75701211D+05 0.75701211D+05 0.11748437D+01  1  2 12  9  6  2       21 0.116609276084D-03 0.100000000000D+01
0.145308022819D-05 0.000000000000D+00 0.000000000000D+00 0.164308908797D-07 0.000000000000D+00  6 2 -4 25 24 1 -4 4 0.15786132D+00 0.18260551D-01 0.75701211D+05 0.75701211D+05 0.75701211D+05 0.11748437D+01  1  2 12  9  6  2       21 0.101016334286D-03 0.100000000000D+01
0.145534107774D-05 0.000000000000D+00 0.000000000000D+00 0.164308908797D-07 0.000000000000D+00  6 2 -3 25 24 1 -3 4 0.15786132D+00 0.18527940D-01 0.75701211D+05 0.75701211D+05 0.75701211D+05 0.11748437D+01  1  2 12  9  6  2       21 0.113823023266D-03 0.100000000000D+01
0.145534107774D-05 0.000000000000D+00 0.000000000000D+00 0.164308908797D-07 0.000000000000D+00  6 2 -4 25 24 1 -4 4 0.15786132D+00 0.18527940D-01 0.75701211D+05 0.75701211D+05 0.75701211D+05 0.11748437D+01  1  2 12  9  6  2       21 0.985502619225D-04 0.100000000000D+01
-.973408531629D-05 0.000000000000D+00 -.158860507430D-05 0.164851480056D-07 0.000000000000D+00  6 2 -3 25 24 1 -3 4 0.15786132D+00 0.18363826D-01 0.72222805D+05 0.72222805D+05 0.72222805D+05 0.11767818D+01  1  2  5  9  6  2       21 -.778196965791D-03 0.100000000000D+01
-.973408531629D-05 0.000000000000D+00 -.158860507430D-05 0.164851480056D-07 0.000000000000D+00  6 2 -4 25 24 1 -4 4 0.15786132D+00 0.18363826D-01 0.72222805D+05 0.72222805D+05 0.72222805D+05 0.11767818D+01  1  2  5  9  6  2       21 -.673729103981D-03 0.100000000000D+01
0.145308022819D-05 0.000000000000D+00 0.000000000000D+00 0.164308908797D-07 0.000000000000D+00  6 2 3 25 24 1 3 4 0.15786132D+00 0.18260551D-01 0.75701211D+05 0.75701211D+05 0.75701211D+05 0.11748437D+01  1  2 12 10  6  2       21 0.116599239048D-03 0.100000000000D+01
0.145308022819D-05 0.000000000000D+00 0.000000000000D+00 0.164308908797D-07 0.000000000000D+00  6 2 4 25 24 1 4 4 0.15786132D+00 0.18260551D-01 0.75701211D+05 0.75701211D+05 0.75701211D+05 0.11748437D+01  1  2 12 10  6  2       21 0.101016334286D-03 0.100000000000D+01
0.145534107774D-05 0.000000000000D+00 0.000000000000D+00 0.164308908797D-07 0.000000000000D+00  6 2 3 25 24 1 3 4 0.15786132D+00 0.18527940D-01 0.75701211D+05 0.75701211D+05 0.75701211D+05 0.11748437D+01  1  2 12 10  6  2       21 0.113813437458D-03 0.100000000000D+01
0.145534107774D-05 0.000000000000D+00 0.000000000000D+00 0.164308908797D-07 0.000000000000D+00  6 2 4 25 24 1 4 4 0.15786132D+00 0.18527940D-01 0.75701211D+05 0.75701211D+05 0.75701211D+05 0.11748437D+01  1  2 12 10  6  2       21 0.985502619225D-04 0.100000000000D+01
-.973408531629D-05 0.000000000000D+00 -.158860507430D-05 0.164851480056D-07 0.000000000000D+00  6 2 3 25 24 1 3 4 0.15786132D+00 0.18363826D-01 0.72222805D+05 0.72222805D+05 0.72222805D+05 0.11767818D+01  1  2  5 10  6  2       21 -.778130035701D-03 0.100000000000D+01
-.973408531629D-05 0.000000000000D+00 -.158860507430D-05 0.164851480056D-07 0.000000000000D+00  6 2 4 25 24 1 4 4 0.15786132D+00 0.18363826D-01 0.72222805D+05 0.72222805D+05 0.72222805D+05 0.11767818D+01  1  2  5 10  6  2       21 -.673729103981D-03 0.100000000000D+01
  </mgrwgt>
  </event>
  <event>
  5     66 0.45638357E-03 0.58802134E+02 0.75467711E-02 0.11777738E+00
        2 -1    0    0  502    0 0.00000000E+00 0.00000000E+00 0.41293406E+03 0.41293419E+03 0.32000000E+00 0.0000E+00 0.9000E+01
       21 -1    0    0  501  502 0.00000000E+00 0.00000000E+00 -.10730520E+03 0.10730782E+03 0.75000000E+00 0.0000E+00 0.9000E+01
       25  1    1    2    0    0 0.93717102E+02 -.70405369E+02 0.18670020E+01 0.17137181E+03 0.12500000E+03 0.0000E+00 0.9000E+01
       24  1    1    2    0    0 -.46072178E+02 0.35944291E+02 0.25061087E+03 0.26960650E+03 0.80419002E+02 0.0000E+00 0.9000E+01
        1  1    1    2  501    0 -.47644924E+02 0.34461078E+02 0.53150988E+02 0.79263703E+02 0.32000000E+00 0.0000E+00 0.9000E+01
#aMCatNLO 1  0  0  2  5 0.10326385D+02 0.00000000D+00  -5  6  0 0.00000000D+00 0.00000000D+00 0.00000000D+00 0.00000000D+00 0.00000000D+00
  <mgrwgt>
 0.9141047072D-01   32    2    0
 0.210501036888363D+03 0.000000000000000D+00 0.000000000000000D+00 0.210501036888363D+03
 0.210501036888363D+03 0.000000000000000D+00 0.000000000000000D+00 -.210501036888363D+03
 0.210413023081779D+03 0.937174483873590D+02 -.704056193161649D+02 -.122101305967150D+03
 0.151226443170961D+03 -.460719293761734D+02 0.359441115196726D+02 0.113963236749347D+03
 0.593626075239851D+02 -.476455190111856D+02 0.344615077964923D+02 0.813806921780258D+01
 0.000000000000000D+00 0.000000000000000D+00 -.000000000000000D+00 -.000000000000000D+00
 0.211732362742228D+03 0.000000000000000D+00 0.000000000000000D+00 0.211732362742228D+03
 0.233388188946132D+03 0.000000000000000D+00 0.000000000000000D+00 -.233388188946132D+03
 0.207882484220804D+03 0.913468217611739D+02 -.658570913498428D+02 -.122101305967150D+03
 0.152576044421438D+03 -.477936841012769D+02 0.392476471468259D+02 0.113963236749347D+03
 0.606701694475751D+02 -.483257866500581D+02 0.357667392259457D+02 0.813806921780258D+01
 0.239918535985437D+02 0.477264899016104D+01 -.915729502292883D+01 -.216558262039044D+02
0.192896762056D-05 0.000000000000D+00 0.000000000000D+00 0.727155446136D-07 0.000000000000D+00  6 2 21 25 24 1 21 2 0.63528529D-01 0.16508704D-01 0.27154327D+05 0.27154327D+05 0.27154327D+05 0.12194674D+01  1  2  2  2  6  2       21 0.910087100182D-02 0.100000000000D+01
-.965997901579D-07 0.101794417980D-06 -.389402986569D-08 0.727155446136D-07 0.000000000000D+00  6 2 21 25 24 1 21 4 0.63528529D-01 0.16508704D-01 0.27154327D+05 0.27154327D+05 0.27154327D+05 0.12194674D+01  1  2  3  2  6  2       21 -.677757949049D-03 0.100000000000D+01
0.229133009408D-06 0.000000000000D+00 0.000000000000D+00 0.727155446136D-07 0.000000000000D+00  6 2 21 25 24 1 21 4 0.63528529D-01 0.16508704D-01 0.27154327D+05 0.27154327D+05 0.27154327D+05 0.12194674D+01  1  2 15  2  6  2       21 0.160762997789D-02 0.100000000000D+01
0.270660864867D-04 0.000000000000D+00 0.000000000000D+00 0.723700054847D-07 0.000000000000D+00  6 2 21 25 24 1 21 4 0.63528529D-01 0.18348783D-01 0.28924142D+05 0.28924142D+05 0.28924142D+05 0.12165666D+01  1  2 12  2  6  2       21 0.154832073725D+00 0.100000000000D+01
0.235282176146D-04 0.000000000000D+00 0.000000000000D+00 0.723700054847D-07 0.000000000000D+00  6 2 21 25 24 1 21 4 0.63528529D-01 0.18609564D-01 0.28924142D+05 0.28924142D+05 0.28924142D+05 0.12165666D+01  1  2 12  2  6  2       21 0.131129703334D+00 0.100000000000D+01
-.408933879816D-04 0.000000000000D+00 0.000000000000D+00 0.727155446136D-07 0.000000000000D+00  6 2 21 25 24 1 21 4 0.63528529D-01 0.16508704D-01 0.27154327D+05 0.27154327D+05 0.27154327D+05 0.12194674D+01  1  2  4  2  6  2       21 -.286913861022D+00 0.100000000000D+01
-.712202160040D-04 0.000000000000D+00 -.564744066027D-05 0.727155446136D-07 0.000000000000D+00  6 2 21 25 24 1 21 4 0.63528529D-01 0.18385113D-01 0.27154327D+05 0.27154327D+05 0.27154327D+05 0.12194674D+01  1  2  5  2  6  2       21 -.410044946283D+00 0.100000000000D+01
0.703370235195D-04 0.000000000000D+00 0.551865974539D-05 0.727155446136D-07 0.000000000000D+00  6 2 21 25 24 1 21 4 0.63528529D-01 0.16508704D-01 0.27154327D+05 0.27154327D+05 0.27154327D+05 0.12194674D+01  1  2  6  2  6  2       21 0.493494620691D+00 0.100000000000D+01
0.736074380950D-06 0.000000000000D+00 0.000000000000D+00 0.723700054847D-07 0.000000000000D+00  6 2 -1 25 24 1 -1 4 0.63528529D-01 0.18348783D-01 0.28924142D+05 0.28924142D+05 0.28924142D+05 0.12165666D+01  1  2 12  5  6  2       21 0.324613029616D-03 0.100000000000D+01
0.738234144258D-06 0.000000000000D+00 0.000000000000D+00 0.723700054847D-07 0.000000000000D+00  6 2 -1 25 24 1 -1 4 0.63528529D-01 0.18609564D-01 0.28924142D+05 0.28924142D+05 0.28924142D+05 0.12165666D+01  1  2 12  5  6  2       21 0.318284364117D-03 0.100000000000D+01
-.179032228299D-05 0.000000000000D+00 -.156851848374D-06 0.727155446136D-07 0.000000000000D+00  6 2 -1 25 24 1 -1 4 0.63528529D-01 0.18385113D-01 0.27154327D+05 0.27154327D+05 0.27154327D+05 0.12194674D+01  1  2  5  5  6  2       21 -.793968250997D-03 0.100000000000D+01
0.736074380950D-06 0.000000000000D+00 0.000000000000D+00 0.723700054847D-07 0.000000000000D+00  6 2 1 25 24 1 1 4 0.63528529D-01 0.18348783D-01 0.28924142D+05 0.28924142D+05 0.28924142D+05 0.12165666D+01  1  2 12  6  6  2       21 0.474621088529D-03 0.100000000000D+01
0.738234144258D-06 0.000000000000D+00 0.000000000000D+00 0.723700054847D-07 0.000000000000D+00  6 2 1 25 24 1 1 4 0.63528529D-01 0.18609564D-01 0.28924142D+05 0.28924142D+05 0.28924142D+05 0.12165666D+01  1  2 12  6  6  2       21 0.467452953642D-03 0.100000000000D+01
-.179032228299D-05 0.000000000000D+00 -.156851848374D-06 0.727155446136D-07 0.000000000000D+00  6 2 1 25 24 1 1 4 0.63528529D-01 0.18385113D-01 0.27154327D+05 0.27154327D+05 0.27154327D+05 0.12194674D+01  1  2  5  6  6  2       21 -.116165222315D-02 0.100000000000D+01
0.736074380950D-06 0.000000000000D+00 0.000000000000D+00 0.723700054847D-07 0.000000000000D+00  6 2 -2 25 24 1 -2 4 0.63528529D-01 0.18348783D-01 0.28924142D+05 0.28924142D+05 0.28924142D+05 0.12165666D+01  1  2 12  7  6  2       21 0.299109323331D-03 0.100000000000D+01
0.738234144258D-06 0.000000000000D+00 0.000000000000D+00 0.723700054847D-07 0.000000000000D+00  6 2 -2 25 24 1 -2 4 0.63528529D-01 0.18609564D-01 0.28924142D+05 0.28924142D+05 0.28924142D+05 0.12165666D+01  1  2 12  7  6  2       21 0.292946694125D-03 0.100000000000D+01
-.179032228299D-05 0.000000000000D+00 -.156851848374D-06 0.727155446136D-07 0.000000000000D+00  6 2 -2 25 24 1 -2 4 0.63528529D-01 0.18385113D-01 0.27154327D+05 0.27154327D+05 0.27154327D+05 0.12194674D+01  1  2  5  7  6  2       21 -.731432903324D-03 0.100000000000D+01
0.736074380950D-06 0.000000000000D+00 0.000000000000D+00 0.723700054847D-07 0.000000000000D+00  6 2 2 25 24 1 2 4 0.63528529D-01 0.18348783D-01 0.28924142D+05 0.28924142D+05 0.28924142D+05 0.12165666D+01  1  2 12  8  6  2       21 0.579589654017D-03 0.100000000000D+01
0.738234144258D-06 0.000000000000D+00 0.000000000000D+00 0.723700054847D-07 0.000000000000D+00  6 2 2 25 24 1 2 4 0.63528529D-01 0.18609564D-01 0.28924142D+05 0.28924142D+05 0.28924142D+05 0.12165666D+01  1  2 12  8  6  2       21 0.571938611982D-03 0.100000000000D+01
-.179032228299D-05 0.000000000000D+00 -.156851848374D-06 0.727155446136D-07 0.000000000000D+00  6 2 2 25 24 1 2 4 0.63528529D-01 0.18385113D-01 0.27154327D+05 0.27154327D+05 0.27154327D+05 0.12194674D+01  1  2  5  8  6  2       21 -.141885122598D-02 0.100000000000D+01
0.736074380950D-06 0.000000000000D+00 0.000000000000D+00 0.723700054847D-07 0.000000000000D+00  6 2 -3 25 24 1 -3 4 0.63528529D-01 0.18348783D-01 0.28924142D+05 0.28924142D+05 0.28924142D+05 0.12165666D+01  1  2 12  9  6  2       21 0.197972695202D-03 0.100000000000D+01
0.736074380950D-06 0.000000000000D+00 0.000000000000D+00 0.723700054847D-07 0.000000000000D+00  6 2 -4 25 24 1 -4 4 0.63528529D-01 0.18348783D-01 0.28924142D+05 0.28924142D+05 0.28924142D+05 0.12165666D+01  1  2 12  9  6  2       21 0.169962884509D-03 0.100000000000D+01
0.738234144258D-06 0.000000000000D+00 0.000000000000D+00 0.723700054847D-07 0.000000000000D+00  6 2 -3 25 24 1 -3 4 0.63528529D-01 0.18609564D-01 0.28924142D+05 0.28924142D+05 0.28924142D+05 0.12165666D+01  1  2 12  9  6  2       21 0.193698501500D-03 0.100000000000D+01
0.738234144258D-06 0.000000000000D+00 0.000000000000D+00 0.723700054847D-07 0.000000000000D+00  6 2 -4 25 24 1 -4 4 0.63528529D-01 0.18609564D-01 0.28924142D+05 0.28924142D+05 0.28924142D+05 0.12165666D+01  1  2 12  9  6  2       21 0.166206121912D-03 0.100000000000D+01
-.179032228299D-05 0.000000000000D+00 -.156851848374D-06 0.727155446136D-07 0.000000000000D+00  6 2 -3 25 24 1 -3 4 0.63528529D-01 0.18385113D-01 0.27154327D+05 0.27154327D+05 0.27154327D+05 0.12194674D+01  1  2  5  9  6  2       21 -.483393887492D-03 0.100000000000D+01
-.179032228299D-05 0.000000000000D+00 -.156851848374D-06 0.727155446136D-07 0.000000000000D+00  6 2 -4 25 24 1 -4 4 0.63528529D-01 0.18385113D-01 0.27154327D+05 0.27154327D+05 0.27154327D+05 0.12194674D+01  1  2  5  9  6  2       21 -.414708155696D-03 0.100000000000D+01
0.736074380950D-06 0.000000000000D+00 0.000000000000D+00 0.723700054847D-07 0.000000000000D+00  6 2 3 25 24 1 3 4 0.63528529D-01 0.18348783D-01 0.28924142D+05 0.28924142D+05 0.28924142D+05 0.12165666D+01  1  2 12 10  6  2       21 0.197953025132D-03 0.100000000000D+01
0.736074380950D-06 0.000000000000D+00 0.000000000000D+00 0.723700054847D-07 0.000000000000D+00  6 2 4 25 24 1 4 4 0.63528529D-01 0.18348783D-01 0.28924142D+05 0.28924142D+05 0.28924142D+05 0.12165666D+01  1  2 12 10  6  2       21 0.169962884509D-03 0.100000000000D+01
0.738234144258D-06 0.000000000000D+00 0.000000000000D+00 0.723700054847D-07 0.000000000000D+00  6 2 3 25 24 1 3 4 0.63528529D-01 0.18609564D-01 0.28924142D+05 0.28924142D+05 0.28924142D+05 0.12165666D+01  1  2 12 10  6  2       21 0.193679593227D-03 0.100000000000D+01
0.738234144258D-06 0.000000000000D+00 0.000000000000D+00 0.723700054847D-07 0.000000000000D+00  6 2 4 25 24 1 4 4 0.63528529D-01 0.18609564D-01 0.28924142D+05 0.28924142D+05 0.28924142D+05 0.12165666D+01  1  2 12 10  6  2       21 0.166206121912D-03 0.100000000000D+01
-.179032228299D-05 0.000000000000D+00 -.156851848374D-06 0.727155446136D-07 0.000000000000D+00  6 2 3 25 24 1 3 4 0.63528529D-01 0.18385113D-01 0.27154327D+05 0.27154327D+05 0.27154327D+05 0.12194674D+01  1  2  5 10  6  2       21 -.483345501740D-03 0.100000000000D+01
-.179032228299D-05 0.000000000000D+00 -.156851848374D-06 0.727155446136D-07 0.000000000000D+00  6 2 4 25 24 1 4 4 0.63528529D-01 0.18385113D-01 0.27154327D+05 0.27154327D+05 0.27154327D+05 0.12194674D+01  1  2  5 10  6  2       21 -.414708155696D-03 0.100000000000D+01
  </mgrwgt>
  </event>
  <event>
  5     66 0.45638357E-03 0.41798968E+02 0.75467711E-02 0.10933570E+00
        2 -1    0    0  502    0 0.00000000E+00 0.00000000E+00 0.36827058E+04 0.36827058E+04 0.32000000E+00 0.0000E+00 0.9000E+01
       21 -1    0    0  501  502 0.00000000E+00 0.00000000E+00 -.19324147E+03 0.19324292E+03 0.75000000E+00 0.0000E+00 0.9000E+01
       25  1    1    2    0    0 -.18636274E+03 -.12479252E+03 0.10005793E+04 0.10329996E+04 0.12500000E+03 0.0000E+00 0.9000E+01
       24  1    1    2    0    0 0.22788351E+03 0.11997802E+03 0.26565178E+04 0.26701835E+04 0.80419002E+02 0.0000E+00 0.9000E+01
        1  1    1    2  501    0 -.41520767E+02 0.48145051E+01 -.16763274E+03 0.17276571E+03 0.32000000E+00 0.0000E+00 0.9000E+01
#aMCatNLO 1  0  0  5  2 0.62572802D+00 0.00000000D+00  -5  6  0 0.00000000D+00 0.00000000D+00 0.00000000D+00 0.00000000D+00 0.00000000D+00
  <mgrwgt>
 0.1621301436D+01    8    2    0
 0.843596067762125D+03 0.000000000000000D+00 0.000000000000000D+00 0.843596067762125D+03
 0.843596067762125D+03 -.000000000000000D+00 -.000000000000000D+00 -.843596067762125D+03
 0.303680726315762D+03 -.186362742451000D+03 -.124792524867148D+03 0.162150354606746D+03
 0.639921256258518D+03 0.227883511133823D+03 0.119978019560786D+03 0.580264059228816D+03
 0.743590152949969D+03 -.415207686828230D+02 0.481450530636164D+01 -.742414413835562D+03
 0.000000000000000D+00 0.000000000000000D+00 0.000000000000000D+00 -.000000000000000D+00
 0.843596067762125D+03 0.000000000000000D+00 0.000000000000000D+00 0.843596067762125D+03
 0.843596067762125D+03 -.000000000000000D+00 -.000000000000000D+00 -.843596067762125D+03
 0.303679081874123D+03 -.186362925548767D+03 -.124792503636202D+03 0.162147080716933D+03
 0.639914871618136D+03 0.227883125307934D+03 0.119978064298898D+03 0.580257160447558D+03
 0.732683331161370D+03 -.414049645353298D+02 0.512775612225660D+01 -.731494496760366D+03
 0.109148508706205D+02 -.115235223837387D+00 -.313316784952060D+00 -.109097444041252D+02
0.960830242255D-03 0.000000000000D+00 0.000000000000D+00 0.718176625837D-05 0.000000000000D+00  6 2 21 25 24 1 21 2 0.56657024D+00 0.29729570D-01 0.80760362D+05 0.80760362D+05 0.80760362D+05 0.11721941D+01  1  2  2  3  6  5        1 0.133763207148D-01 0.100000000000D+01
0.446224660956D-03 0.507044049087D-04 -.193963943165D-05 0.718176625837D-05 0.000000000000D+00  6 2 21 25 24 1 21 4 0.56657024D+00 0.29729570D-01 0.80760362D+05 0.80760362D+05 0.80760362D+05 0.11721941D+01  1  2  3  3  6  5        1 0.853576935623D-02 0.100000000000D+01
0.807226663372D-04 0.000000000000D+00 0.000000000000D+00 0.718176625837D-05 0.000000000000D+00  6 2 21 25 24 1 21 4 0.56657024D+00 0.29729570D-01 0.80760362D+05 0.80760362D+05 0.80760362D+05 0.11721941D+01  1  2 15  3  6  5        1 0.154413263534D-02 0.100000000000D+01
0.376958647763D-08 0.000000000000D+00 0.000000000000D+00 0.718131593870D-05 0.000000000000D+00  6 2 21 25 24 1 21 4 0.56657024D+00 0.29729570D-01 0.80833118D+05 0.80833118D+05 0.80833118D+05 0.11721574D+01  1  2 12  3  6  5        1 0.720920258427D-07 0.100000000000D+01
-.943324370623D+01 0.000000000000D+00 0.000000000000D+00 0.718176625837D-05 0.000000000000D+00  6 2 21 25 24 1 21 4 0.56657024D+00 0.29729570D-01 0.80760362D+05 0.80760362D+05 0.80760362D+05 0.11721941D+01  1  2  4  3  6  5        1 -.180447204296D+03 0.100000000000D+01
-.800050911418D+01 0.000000000000D+00 0.000000000000D+00 0.718176625837D-05 0.000000000000D+00  6 2 21 25 24 1 21 4 0.56657024D+00 0.29729570D-01 0.80760362D+05 0.80760362D+05 0.80760362D+05 0.11721941D+01  1  2  5  3  6  5        1 -.153040623942D+03 0.100000000000D+01
0.811880706700D+01 0.000000000000D+00 -.000000000000D+00 0.718176625837D-05 0.000000000000D+00  6 2 21 25 24 1 21 4 0.56657024D+00 0.29729570D-01 0.80760362D+05 0.80760362D+05 0.80760362D+05 0.11721941D+01  1  2  6  3  6  5        1 0.155303528996D+03 0.100000000000D+01
0.940054510142D+01 0.000000000000D+00 0.000000000000D+00 0.718176625837D-05 0.100782947834D-02  6 2 21 25 24 1 21 4 0.56657024D+00 0.29729570D-01 0.80833118D+05 0.80833118D+05 0.80833118D+05 0.11721574D+01  1  2 11  3  6  5        1 0.179782144383D+03 0.100000000000D+01
  </mgrwgt>
  </event>
  <event>
  5     66 0.45638357E-03 0.42770709E+02 0.75467711E-02 0.12149193E+00
        2 -1    0    0  502    0 0.00000000E+00 0.00000000E+00 0.43028431E+03 0.43028443E+03 0.32000000E+00 0.0000E+00 0.9000E+01
       21 -1    0    0  501  502 0.00000000E+00 0.00000000E+00 -.80996732E+02 0.81000204E+02 0.75000000E+00 0.0000E+00 0.9000E+01
       25  1    1    2    0    0 0.37816420E+02 0.40667207E+02 0.33853019E+03 0.36511861E+03 0.12500000E+03 0.0000E+00 0.9000E+01
       24  1    1    2    0    0 -.28247966E+02 0.13934747E+02 -.10059614E+02 0.86951346E+02 0.80419002E+02 0.0000E+00 0.9000E+01
        1  1    1    2  501    0 -.95684540E+01 -.54601954E+02 0.20816996E+02 0.59214681E+02 0.32000000E+00 0.0000E+00 0.9000E+01
#aMCatNLO 1  0  0  5  2 0.22148342D+01 0.00000000D+00  -5  6  0 0.00000000D+00 0.00000000D+00 0.00000000D+00 0.00000000D+00 0.00000000D+00
  <mgrwgt>
 0.4695684390D-01    8    2    0
 0.186688352291221D+03 0.000000000000000D+00 0.000000000000000D+00 0.186688352291221D+03
 0.186688352291221D+03 -.000000000000000D+00 -.000000000000000D+00 -.186688352291221D+03
 0.183287330614494D+03 0.378164834971168D+02 0.406675683296562D+02 0.122005360643916D+03
 0.128477638394150D+03 -.282479217616589D+02 0.139350003667776D+02 -.951165511038563D+02
 0.616117355737982D+02 -.956856173545789D+01 -.546025686964337D+02 -.268888095400595D+02
 0.000000000000000D+00 0.000000000000000D+00 -.000000000000000D+00 0.000000000000000D+00
 0.186688352291221D+03 0.000000000000000D+00 0.000000000000000D+00 0.186688352291221D+03
 0.186688352291221D+03 -.000000000000000D+00 -.000000000000000D+00 -.186688352291221D+03
 0.182933193375047D+03 0.377102709561957D+02 0.400614712251584D+02 0.121706890626942D+03
 0.128603835170673D+03 -.283224814183204D+02 0.135095290276778D+02 -.953260727083327D+02
 0.593483229284469D+02 -.102435153882959D+02 -.515517507527410D+02 -.275628521970466D+02
 0.249135310827528D+01 0.855725850420642D+00 -.201924950009520D+01 0.118203427843699D+01
0.369422355819D-05 0.000000000000D+00 0.000000000000D+00 0.183501433717D-06 0.000000000000D+00  6 2 21 25 24 1 21 2 0.66197862D-01 0.12461312D-01 0.19402087D+05 0.19402087D+05 0.19402087D+05 0.12352799D+01  1  2  2  3  6  5        1 0.284122442502D-01 0.100000000000D+01
-.145552265726D-06 0.194949533102D-06 -.745757301100D-08 0.183501433717D-06 0.000000000000D+00  6 2 21 25 24 1 21 4 0.66197862D-01 0.12461312D-01 0.19402087D+05 0.19402087D+05 0.19402087D+05 0.12352799D+01  1  2  3  3  6  5        1 -.170817381538D-02 0.100000000000D+01
0.385916368351D-06 0.000000000000D+00 0.000000000000D+00 0.183501433717D-06 0.000000000000D+00  6 2 21 25 24 1 21 4 0.66197862D-01 0.12461312D-01 0.19402087D+05 0.19402087D+05 0.19402087D+05 0.12352799D+01  1  2 15  3  6  5        1 0.452904138632D-02 0.100000000000D+01
0.198961182742D-08 0.000000000000D+00 0.000000000000D+00 0.183597187831D-06 0.000000000000D+00  6 2 21 25 24 1 21 4 0.66197862D-01 0.12461312D-01 0.19272281D+05 0.19272281D+05 0.19272281D+05 0.12356021D+01  1  2 12  3  6  5        1 0.233734755537D-04 0.100000000000D+01
-.473637042463D-04 0.000000000000D+00 0.000000000000D+00 0.183501433717D-06 0.000000000000D+00  6 2 21 25 24 1 21 4 0.66197862D-01 0.12461312D-01 0.19402087D+05 0.19402087D+05 0.19402087D+05 0.12352799D+01  1  2  4  3  6  5        1 -.555851459884D+00 0.100000000000D+01
-.320255165471D-04 0.000000000000D+00 0.000000000000D+00 0.183501433717D-06 0.000000000000D+00  6 2 21 25 24 1 21 4 0.66197862D-01 0.12461312D-01 0.19402087D+05 0.19402087D+05 0.19402087D+05 0.12352799D+01  1  2  5  3  6  5        1 -.375845394897D+00 0.100000000000D+01
0.339068593775D-04 0.000000000000D+00 -.000000000000D+00 0.183501433717D-06 0.000000000000D+00  6 2 21 25 24 1 21 4 0.66197862D-01 0.12461312D-01 0.19402087D+05 0.19402087D+05 0.19402087D+05 0.12352799D+01  1  2  6  3  6  5        1 0.397924477931D+00 0.100000000000D+01
0.467725670828D-04 0.000000000000D+00 0.000000000000D+00 0.183501433717D-06 0.380503692934D-06  6 2 21 25 24 1 21 4 0.66197862D-01 0.12461312D-01 0.19272281D+05 0.19272281D+05 0.19272281D+05 0.12356021D+01  1  2 11  3  6  5        1 0.549472735449D+00 0.100000000000D+01
  </mgrwgt>
  </event>
  <event>
  6     66 -.45638357E-03 0.88675256E+02 0.75467711E-02 0.11504695E+00
        2 -1    0    0  502    0 0.00000000E+00 0.00000000E+00 0.33049280E+04 0.33049281E+04 0.32000000E+00 0.0000E+00 0.9000E+01
       21 -1    0    0  503  502 0.00000000E+00 0.00000000E+00 -.20698265E+02 0.20711848E+02 0.75000000E+00 0.0000E+00 0.9000E+01
       25  1    1    2    0    0 -.25850254E+02 -.72242015E+02 0.23445935E+04 0.23491766E+04 0.12500000E+03 0.0000E+00 0.9000E+01
       24  1    1    2    0    0 0.11567421E+03 0.78454641E+02 0.73921043E+03 0.75659430E+03 0.80419002E+02 0.0000E+00 0.9000E+01
        1  1    1    2  501    0 -.79970898E+02 -.78700493E+01 0.17668748E+03 0.19410268E+03 0.32000000E+00 0.0000E+00 0.9000E+01
       21  1    1    2  503  501 -.98530573E+01 0.16574227E+01 0.23738359E+02 0.25766296E+02 0.75000000E+00 0.0000E+00 0.9000E+01
#aMCatNLO 2  0  0  2  1 0.99914858D+01 0.00000000D+00  -5  6  0 0.00000000D+00 0.00000000D+00 0.00000000D+00 0.00000000D+00 0.00000000D+00
  <mgrwgt>
 -.1661560907D+00    3    2    0
 0.254097288056337D+03 0.000000000000000D+00 0.000000000000000D+00 0.254097288056337D+03
 0.254097288056337D+03 0.000000000000000D+00 0.000000000000000D+00 -.254097288056337D+03
 0.211718074899512D+03 -.299516443768559D+02 -.715520755706848D+02 0.152258801781062D+03
 0.168176904885733D+03 0.112394995599227D+03 0.790062730454352D+02 -.542367879422644D+02
 0.128299596327429D+03 -.824433512223710D+02 -.745419747475035D+01 -.980220138387979D+02
 0.000000000000000D+00 -.000000000000000D+00 0.000000000000000D+00 -.000000000000000D+00
 0.256054861375678D+03 0.000000000000000D+00 0.000000000000000D+00 0.256054861375678D+03
 0.267223608367307D+03 0.000000000000000D+00 0.000000000000000D+00 -.267223608367307D+03
 0.211411636594483D+03 -.258501459817966D+02 -.722420052356841D+02 0.152258801781062D+03
 0.170130889312951D+03 0.115674294682344D+03 0.784546488583886D+02 -.542367879422644D+02
 0.126750260760070D+03 -.799710914138813D+02 -.787006631515198D+01 -.980220138387979D+02
 0.149856830754818D+02 -.985305728666635D+01 0.165742269244747D+01 -.111687469916285D+02
-.792927745307D-04 0.000000000000D+00 0.000000000000D+00 0.185576878993D-06 0.000000000000D+00  6 2 21 25 24 1 21 4 0.50454596D+00 0.31965804D-02 0.39655381D+05 0.39655381D+05 0.39655381D+05 0.12023821D+01  1  2 13  2  6  2       21 -.175281420106D+00 0.100000000000D+01
-.320755885759D-05 0.000000000000D+00 0.000000000000D+00 0.186215415536D-06 0.000000000000D+00  6 2 21 25 24 1 21 4 0.50454596D+00 0.30288141D-02 0.37846277D+05 0.37846277D+05 0.37846277D+05 0.12044489D+01  1  2  8  2  6  2       21 -.782640562428D-02 0.100000000000D+01
0.790518384042D-05 0.000000000000D+00 0.000000000000D+00 0.186215415536D-06 0.189122217011D-06  6 2 21 25 24 1 21 4 0.50843300D+00 0.31852785D-02 0.39655381D+05 0.39655381D+05 0.39655381D+05 0.12023821D+01  1  2  1  2  6  2       21 0.169517350025D-01 0.100000000000D+01
  </mgrwgt>
  </event>
  <event>
  5     66 0.45638357E-03 0.11461674E+03 0.75467711E-02 0.11572846E+00
        2 -1    0    0  502    0 0.00000000E+00 0.00000000E+00 0.73706659E+03 0.73706666E+03 0.32000000E+00 0.0000E+00 0.9000E+01
       21 -1    0    0  501  502 0.00000000E+00 0.00000000E+00 -.51825826E+02 0.51831253E+02 0.75000000E+00 0.0000E+00 0.9000E+01
       25  1    1    2    0    0 0.80262846E+02 -.22021463E+02 0.30907845E+03 0.34362997E+03 0.12500000E+03 0.0000E+00 0.9000E+01
       24  1    1    2    0    0 0.14359086E+02 0.86702384E+02 0.23469359E+03 0.26319534E+03 0.80419002E+02 0.0000E+00 0.9000E+01
        1  1    1    2  501    0 -.94621932E+02 -.64680921E+02 0.14146872E+03 0.18207260E+03 0.32000000E+00 0.0000E+00 0.9000E+01
#aMCatNLO 1  0  0  5  2 0.15495409D+01 0.00000000D+00  -5  6  0 0.00000000D+00 0.00000000D+00 0.00000000D+00 0.00000000D+00 0.00000000D+00
  <mgrwgt>
 0.1262684300D+00    4    2    0
 0.195451408185071D+03 0.000000000000000D+00 0.000000000000000D+00 0.195451408185071D+03
 0.195451408185071D+03 -.000000000000000D+00 -.000000000000000D+00 -.195451408185071D+03
 0.151689465026562D+03 0.802629779411681D+02 -.220213731635796D+02 0.213917576662255D+02
 0.119755241906144D+03 0.143591897338688D+02 0.867024553662344D+02 0.122719156321067D+02
 0.119458109437435D+03 -.946221676750370D+02 -.646810822026547D+02 -.336636732983321D+02
 0.000000000000000D+00 0.000000000000000D+00 0.000000000000000D+00 0.000000000000000D+00
 0.195451408185071D+03 0.000000000000000D+00 0.000000000000000D+00 0.195451408185071D+03
 0.195451408185071D+03 -.000000000000000D+00 -.000000000000000D+00 -.195451408185071D+03
 0.151004198213812D+03 0.788158280490496D+02 -.230106045818784D+02 0.208769059947937D+02
 0.119018190494474D+03 0.132176364445126D+02 0.859221212863690D+02 0.118657858854547D+02
 0.259667706322672D+01 0.114517064720923D+01 0.110510622059661D+01 0.205184214808455D+01
 0.118283750598629D+03 -.931786351407715D+02 -.640166229250873D+02 -.347945340283329D+02
0.982590049656D-05 0.000000000000D+00 0.000000000000D+00 0.226818867853D-06 0.000000000000D+00  6 2 21 25 24 1 21 2 0.11339528D+00 0.79736268D-02 0.36847694D+05 0.36847694D+05 0.36847694D+05 0.12056374D+01  1  2  2  3  6  5        1 0.856507466364D-01 0.100000000000D+01
-.682046564644D-06 0.518527014929D-06 -.198356621351D-07 0.226818867853D-06 0.000000000000D+00  6 2 21 25 24 1 21 4 0.11339528D+00 0.79736268D-02 0.36847694D+05 0.36847694D+05 0.36847694D+05 0.12056374D+01  1  2  3  3  6  5        1 -.864184029423D-02 0.100000000000D+01
0.992604164081D-06 0.000000000000D+00 0.000000000000D+00 0.226818867853D-06 0.000000000000D+00  6 2 21 25 24 1 21 4 0.11339528D+00 0.79736268D-02 0.36847694D+05 0.36847694D+05 0.36847694D+05 0.12056374D+01  1  2 15  3  6  5        1 0.125767463778D-01 0.100000000000D+01
0.289219311760D-05 0.000000000000D+00 0.000000000000D+00 0.226932023217D-06 0.270116821019D-08  6 2 21 25 24 1 21 4 0.11339528D+00 0.79736268D-02 0.36599728D+05 0.36599728D+05 0.36599728D+05 0.12059381D+01  1  2 11  3  6  5        1 0.366827772859D-01 0.100000000000D+01
  </mgrwgt>
  </event>
  <event>
  5     66 -.45638357E-03 0.26830194E+02 0.75467711E-02 0.11523616E+00
        2 -1    0    0  502    0 0.00000000E+00 0.00000000E+00 0.72972850E+03 0.72972857E+03 0.32000000E+00 0.0000E+00 0.9000E+01
       21 -1    0    0  501  502 0.00000000E+00 0.00000000E+00 -.64523012E+02 0.64527371E+02 0.75000000E+00 0.0000E+00 0.9000E+01
       25  1    1    2    0    0 0.67053883E+02 0.12475164E+03 0.47287422E+03 0.50920941E+03 0.12500000E+03 0.0000E+00 0.9000E+01
       24  1    1    2    0    0 -.55443823E+02 -.14893894E+03 0.18590127E+03 0.25745548E+03 0.80419002E+02 0.0000E+00 0.9000E+01
        1  1    1    2  501    0 -.11610060E+02 0.24187297E+02 0.64299967E+01 0.27591051E+02 0.32000000E+00 0.0000E+00 0.9000E+01
#aMCatNLO 1  0  0  5  2 0.59678072D+01 0.00000000D+00  -5  6  0 0.00000000D+00 0.00000000D+00 0.00000000D+00 0.00000000D+00 0.00000000D+00
  <mgrwgt>
 -.8204565376D+00    7    2    0
 0.216993178465536D+03 0.000000000000000D+00 0.000000000000000D+00 0.216993178465536D+03
 0.216993178465536D+03 -.000000000000000D+00 -.000000000000000D+00 -.216993178465536D+03
 0.207112694299390D+03 0.670540544067634D+02 0.124751284996678D+03 0.849207796669620D+02
 0.186234053396315D+03 -.554436682649829D+02 -.148939262005248D+03 -.543967147234613D+02
 0.406396092353679D+02 -.116103861417805D+02 0.241879770085699D+02 -.305240649435006D+02
 0.000000000000000D+00 0.000000000000000D+00 0.000000000000000D+00 -.000000000000000D+00
 0.216993178465536D+03 0.000000000000000D+00 0.000000000000000D+00 0.216993178465536D+03
 0.216993178465536D+03 -.000000000000000D+00 -.000000000000000D+00 -.216993178465536D+03
 0.207068472604253D+03 0.667321174670957D+02 0.125421977874572D+03 0.840743974765570D+02
 0.186062959110769D+03 -.557330492664175D+02 -.148336393080482D+03 -.551575063434248D+02
 0.110416185375554D+02 -.700942886224182D+01 0.775417736691390D+01 -.355780554787628D+01
 0.298133066784959D+02 -.398963933843640D+01 0.151602378389956D+02 -.253590855852560D+02
0.137852415707D-04 0.000000000000D+00 0.000000000000D+00 0.560977268043D-06 0.000000000000D+00  6 2 21 25 24 1 21 2 0.11226626D+00 0.99269579D-02 0.38778528D+05 0.38778528D+05 0.38778528D+05 0.12033704D+01  1  2  2  3  6  5        1 0.824954997000D-01 0.100000000000D+01
0.147780829657D-05 0.727467183717D-06 -.278284310270D-07 0.560977268043D-06 0.000000000000D+00  6 2 21 25 24 1 21 4 0.11226626D+00 0.99269579D-02 0.38778528D+05 0.38778528D+05 0.38778528D+05 0.12033704D+01  1  2  3  3  6  5        1 0.128065641871D-01 0.100000000000D+01
0.110795274164D-05 0.000000000000D+00 0.000000000000D+00 0.560977268043D-06 0.000000000000D+00  6 2 21 25 24 1 21 4 0.11226626D+00 0.99269579D-02 0.38778528D+05 0.38778528D+05 0.38778528D+05 0.12033704D+01  1  2 15  3  6  5        1 0.960142660923D-02 0.100000000000D+01
0.592324548871D-05 0.000000000000D+00 0.000000000000D+00 0.561141866625D-06 0.000000000000D+00  6 2 21 25 24 1 21 4 0.11226626D+00 0.99269579D-02 0.38624196D+05 0.38624196D+05 0.38624196D+05 0.12035469D+01  1  2 12  3  6  5        1 0.513628318963D-01 0.100000000000D+01
-.129188282310D-03 0.000000000000D+00 0.000000000000D+00 0.560977268043D-06 0.000000000000D+00  6 2 21 25 24 1 21 4 0.11226626D+00 0.99269579D-02 0.38778528D+05 0.38778528D+05 0.38778528D+05 0.12033704D+01  1  2  4  3  6  5        1 -.111953494472D+01 0.100000000000D+01
-.744760752302D-05 0.000000000000D+00 0.000000000000D+00 0.560977268043D-06 0.000000000000D+00  6 2 21 25 24 1 21 4 0.11226626D+00 0.99269579D-02 0.38778528D+05 0.38778528D+05 0.38778528D+05 0.12033704D+01  1  2  5  3  6  5        1 -.645403493841D-01 0.100000000000D+01
0.239273503036D-04 0.000000000000D+00 -.000000000000D+00 0.560977268043D-06 0.000000000000D+00  6 2 21 25 24 1 21 4 0.11226626D+00 0.99269579D-02 0.38778528D+05 0.38778528D+05 0.38778528D+05 0.12033704D+01  1  2  6  3  6  5        1 0.207352434142D+00 0.100000000000D+01
  </mgrwgt>
  </event>
  <event>
  5     66 0.45638357E-03 0.53160942E+02 0.75467711E-02 0.11958126E+00
        2 -1    0    0  502    0 0.00000000E+00 0.00000000E+00 0.70709582E+03 0.70709589E+03 0.32000000E+00 0.0000E+00 0.9000E+01
       21 -1    0    0  501  502 0.00000000E+00 0.00000000E+00 -.40954981E+02 0.40961847E+02 0.75000000E+00 0.0000E+00 0.9000E+01
       25  1    1    2    0    0 -.26753296E+02 -.59418754E+02 0.17284269E+03 0.22303794E+03 0.12500000E+03 0.0000E+00 0.9000E+01
       24  1    1    2    0    0 0.76960270E+02 0.41946011E+02 0.26274904E+03 0.28842091E+03 0.80419002E+02 0.0000E+00 0.9000E+01
        1  1    1    2  501    0 -.50206974E+02 0.17472743E+02 0.23054912E+03 0.23659889E+03 0.32000000E+00 0.0000E+00 0.9000E+01
#aMCatNLO 1  0  0  5  2 0.36498815D+02 0.00000000D+00  -5  6  0 0.00000000D+00 0.00000000D+00 0.00000000D+00 0.00000000D+00 0.00000000D+00
  <mgrwgt>
 0.1700357986D+00    5    2    0
 0.170181347336505D+03 0.000000000000000D+00 0.000000000000000D+00 0.170181347336505D+03
 0.170181347336505D+03 -.000000000000000D+00 -.000000000000000D+00 -.170181347336505D+03
 0.151919429308871D+03 -.267530534158656D+02 -.594188379833213D+02 -.566408759393147D+02
 0.119659589539216D+03 0.769604608389230D+02 0.419459445711370D+02 0.129933296663597D+02
 0.687836758249236D+02 -.502074074230574D+02 0.174728934121843D+02 0.436475462729550D+02
 0.000000000000000D+00 0.000000000000000D+00 -.000000000000000D+00 0.000000000000000D+00
 0.170181347336505D+03 0.000000000000000D+00 0.000000000000000D+00 0.170181347336505D+03
 0.170181347336505D+03 -.000000000000000D+00 -.000000000000000D+00 -.170181347336505D+03
 0.148722263029245D+03 -.456507803324779D+02 -.528421596584634D+02 -.402122361751412D+02
 0.114979684026713D+03 0.622115120777701D+02 0.470787889634775D+02 0.258152509041057D+02
 0.374341460599656D+02 -.190172986748240D+02 0.259379283265823D+02 -.191541514162453D+02
 0.392266015570872D+02 0.245656692953185D+01 -.201745576315964D+02 0.335511366872808D+02
0.168908063499D-04 0.000000000000D+00 0.000000000000D+00 0.169876620669D-06 0.000000000000D+00  6 2 21 25 24 1 21 2 0.10878451D+00 0.63013000D-02 0.24504565D+05 0.24504565D+05 0.24504565D+05 0.12242307D+01  1  2  2  3  6  5        1 0.239527202763D+00 0.100000000000D+01
-.155048505783D-05 0.891352339604D-06 -.340976715633D-07 0.169876620669D-06 0.000000000000D+00  6 2 21 25 24 1 21 4 0.10878451D+00 0.63013000D-02 0.24504565D+05 0.24504565D+05 0.24504565D+05 0.12242307D+01  1  2  3  3  6  5        1 -.329532767906D-01 0.100000000000D+01
0.162962883538D-05 0.000000000000D+00 0.000000000000D+00 0.169876620669D-06 0.000000000000D+00  6 2 21 25 24 1 21 4 0.10878451D+00 0.63013000D-02 0.24504565D+05 0.24504565D+05 0.24504565D+05 0.12242307D+01  1  2 15  3  6  5        1 0.346353612420D-01 0.100000000000D+01
0.701352800591D-05 0.000000000000D+00 0.000000000000D+00 0.170325643855D-06 0.000000000000D+00  6 2 21 25 24 1 21 4 0.10878451D+00 0.63013000D-02 0.23671835D+05 0.23671835D+05 0.23671835D+05 0.12258476D+01  1  2 12  3  6  5        1 0.149812069568D+00 0.100000000000D+01
-.103975943906D-04 0.000000000000D+00 0.000000000000D+00 0.169876620669D-06 0.000000000000D+00  6 2 21 25 24 1 21 4 0.10878451D+00 0.63013000D-02 0.24504565D+05 0.24504565D+05 0.24504565D+05 0.12242307D+01  1  2  4  3  6  5        1 -.220985558152D+00 0.100000000000D+01
  </mgrwgt>
  </event>
  <event>
  5     66 0.45638357E-03 0.20223178E+02 0.75467711E-02 0.12283072E+00
        2 -1    0    0  502    0 0.00000000E+00 0.00000000E+00 0.33173996E+03 0.33174011E+03 0.32000000E+00 0.0000E+00 0.9000E+01
       21 -1    0    0  501  502 0.00000000E+00 0.00000000E+00 -.51758379E+02 0.51763812E+02 0.75000000E+00 0.0000E+00 0.9000E+01
       25  1    1    2    0    0 -.46068861E+02 0.19343610E+02 0.12498570E+03 0.18369251E+03 0.12500000E+03 0.0000E+00 0.9000E+01
       24  1    1    2    0    0 0.28900833E+02 -.86566130E+01 0.65387095E+02 0.10794852E+03 0.80419002E+02 0.0000E+00 0.9000E+01
        1  1    1    2  501    0 0.17168028E+02 -.10686997E+02 0.89608787E+02 0.91862888E+02 0.32000000E+00 0.0000E+00 0.9000E+01
#aMCatNLO 1  0  0  2  1 0.16466812D+02 0.00000000D+00  -5  6  0 0.00000000D+00 0.00000000D+00 0.00000000D+00 0.00000000D+00 0.00000000D+00
  <mgrwgt>
 0.5070734803D-01   32    2    0
 0.131039664638195D+03 0.000000000000000D+00 0.000000000000000D+00 0.131039664638195D+03
 0.131039664638195D+03 0.000000000000000D+00 0.000000000000000D+00 -.131039664638195D+03
 0.135276430738022D+03 -.460691645076807D+02 0.193437982618080D+02 -.133477437640085D+02
 0.881088236794436D+02 0.289006360801689D+02 -.865649015452251D+01 -.196409589422473D+02
 0.386940748589246D+02 0.171685284275118D+02 -.106873081072855D+02 0.329887027062558D+02
 0.000000000000000D+00 -.000000000000000D+00 0.000000000000000D+00 -.000000000000000D+00
 0.132872663937159D+03 0.000000000000000D+00 0.000000000000000D+00 0.132872663937159D+03
 0.174349734392153D+03 0.000000000000000D+00 0.000000000000000D+00 -.174349734392153D+03
 0.132407630185599D+03 -.381716880945747D+02 0.164784858463188D+02 -.133477437640085D+02
 0.901750629613310D+02 0.341605413009886D+02 -.105648556810723D+02 -.196409589422473D+02
 0.400134430284931D+02 0.194906344352630D+02 -.115297999142949D+02 0.329887027062558D+02
 0.446262621538875D+02 -.154794876416769D+02 0.561616974904842D+01 -.414770704549941D+02
0.701983600360D-06 0.000000000000D+00 0.000000000000D+00 0.370167495091D-06 0.000000000000D+00  6 2 21 25 24 1 21 2 0.51037346D-01 0.79632573D-02 0.14487885D+05 0.14487885D+05 0.14487885D+05 0.12495461D+01  1  2  2  2  6  2       21 0.158903927806D-01 0.100000000000D+01
-.530347266023D-07 0.370446923364D-07 -.141710263869D-08 0.370167495091D-06 0.000000000000D+00  6 2 21 25 24 1 21 4 0.51037346D-01 0.79632573D-02 0.14487885D+05 0.14487885D+05 0.14487885D+05 0.12495461D+01  1  2  3  2  6  2       21 -.187444429231D-02 0.100000000000D+01
0.728728291707D-07 0.000000000000D+00 0.000000000000D+00 0.370167495091D-06 0.000000000000D+00  6 2 21 25 24 1 21 4 0.51037346D-01 0.79632573D-02 0.14487885D+05 0.14487885D+05 0.14487885D+05 0.12495461D+01  1  2 15  2  6  2       21 0.257559654691D-02 0.100000000000D+01
0.524303138142D-05 0.000000000000D+00 0.000000000000D+00 0.365940619894D-06 0.000000000000D+00  6 2 21 25 24 1 21 4 0.51037346D-01 0.10637629D-01 0.16751553D+05 0.16751553D+05 0.16751553D+05 0.12423914D+01  1  2 12  2  6  2       21 0.109754302037D+00 0.100000000000D+01
0.494935972066D-05 0.000000000000D+00 0.000000000000D+00 0.365940619894D-06 0.000000000000D+00  6 2 21 25 24 1 21 4 0.51037346D-01 0.10802178D-01 0.16751553D+05 0.16751553D+05 0.16751553D+05 0.12423914D+01  1  2 12  2  6  2       21 0.100848694833D+00 0.100000000000D+01
-.810681873841D-05 0.000000000000D+00 0.000000000000D+00 0.370167495091D-06 0.000000000000D+00  6 2 21 25 24 1 21 4 0.51037346D-01 0.79632573D-02 0.14487885D+05 0.14487885D+05 0.14487885D+05 0.12495461D+01  1  2  4  2  6  2       21 -.286525095659D+00 0.100000000000D+01
-.119290303371D-04 0.000000000000D+00 -.953769917298D-06 0.370167495091D-06 0.000000000000D+00  6 2 21 25 24 1 21 4 0.51037346D-01 0.10718394D-01 0.14487885D+05 0.14487885D+05 0.14487885D+05 0.12495461D+01  1  2  5  2  6  2       21 -.251626849711D+00 0.100000000000D+01
0.102733871317D-04 0.000000000000D+00 0.804342122894D-06 0.370167495091D-06 0.000000000000D+00  6 2 21 25 24 1 21 4 0.51037346D-01 0.79632573D-02 0.14487885D+05 0.14487885D+05 0.14487885D+05 0.12495461D+01  1  2  6  2  6  2       21 0.363099672711D+00 0.100000000000D+01
0.472614556998D-06 0.000000000000D+00 0.000000000000D+00 0.365940619894D-06 0.000000000000D+00  6 2 -1 25 24 1 -1 4 0.51037346D-01 0.10637629D-01 0.16751553D+05 0.16751553D+05 0.16751553D+05 0.12423914D+01  1  2 12  5  6  2       21 0.664097599416D-03 0.100000000000D+01
0.475417930343D-06 0.000000000000D+00 0.000000000000D+00 0.365940619894D-06 0.000000000000D+00  6 2 -1 25 24 1 -1 4 0.51037346D-01 0.10802178D-01 0.16751553D+05 0.16751553D+05 0.16751553D+05 0.12423914D+01  1  2 12  5  6  2       21 0.652526363124D-03 0.100000000000D+01
-.107462505142D-05 0.000000000000D+00 -.887374342243D-07 0.370167495091D-06 0.000000000000D+00  6 2 -1 25 24 1 -1 4 0.51037346D-01 0.10718394D-01 0.14487885D+05 0.14487885D+05 0.14487885D+05 0.12495461D+01  1  2  5  5  6  2       21 -.152063866961D-02 0.100000000000D+01
0.472614556998D-06 0.000000000000D+00 0.000000000000D+00 0.365940619894D-06 0.000000000000D+00  6 2 1 25 24 1 1 4 0.51037346D-01 0.10637629D-01 0.16751553D+05 0.16751553D+05 0.16751553D+05 0.12423914D+01  1  2 12  6  6  2       21 0.843120851673D-03 0.100000000000D+01
0.475417930343D-06 0.000000000000D+00 0.000000000000D+00 0.365940619894D-06 0.000000000000D+00  6 2 1 25 24 1 1 4 0.51037346D-01 0.10802178D-01 0.16751553D+05 0.16751553D+05 0.16751553D+05 0.12423914D+01  1  2 12  6  6  2       21 0.831124597888D-03 0.100000000000D+01
-.107462505142D-05 0.000000000000D+00 -.887374342243D-07 0.370167495091D-06 0.000000000000D+00  6 2 1 25 24 1 1 4 0.51037346D-01 0.10718394D-01 0.14487885D+05 0.14487885D+05 0.14487885D+05 0.12495461D+01  1  2  5  6  6  2       21 -.193409826779D-02 0.100000000000D+01
0.472614556998D-06 0.000000000000D+00 0.000000000000D+00 0.365940619894D-06 0.000000000000D+00  6 2 -2 25 24 1 -2 4 0.51037346D-01 0.10637629D-01 0.16751553D+05 0.16751553D+05 0.16751553D+05 0.12423914D+01  1  2 12  7  6  2       21 0.632995116623D-03 0.100000000000D+01
0.475417930343D-06 0.000000000000D+00 0.000000000000D+00 0.365940619894D-06 0.000000000000D+00  6 2 -2 25 24 1 -2 4 0.51037346D-01 0.10802178D-01 0.16751553D+05 0.16751553D+05 0.16751553D+05 0.12423914D+01  1  2 12  7  6  2       21 0.621505182236D-03 0.100000000000D+01
-.107462505142D-05 0.000000000000D+00 -.887374342243D-07 0.370167495091D-06 0.000000000000D+00  6 2 -2 25 24 1 -2 4 0.51037346D-01 0.10718394D-01 0.14487885D+05 0.14487885D+05 0.14487885D+05 0.12495461D+01  1  2  5  7  6  2       21 -.144876576089D-02 0.100000000000D+01
0.472614556998D-06 0.000000000000D+00 0.000000000000D+00 0.365940619894D-06 0.000000000000D+00  6 2 2 25 24 1 2 4 0.51037346D-01 0.10637629D-01 0.16751553D+05 0.16751553D+05 0.16751553D+05 0.12423914D+01  1  2 12  8  6  2       21 0.964282424610D-03 0.100000000000D+01
0.475417930343D-06 0.000000000000D+00 0.000000000000D+00 0.365940619894D-06 0.000000000000D+00  6 2 2 25 24 1 2 4 0.51037346D-01 0.10802178D-01 0.16751553D+05 0.16751553D+05 0.16751553D+05 0.12423914D+01  1  2 12  8  6  2       21 0.952066829711D-03 0.100000000000D+01
-.107462505142D-05 0.000000000000D+00 -.887374342243D-07 0.370167495091D-06 0.000000000000D+00  6 2 2 25 24 1 2 4 0.51037346D-01 0.10718394D-01 0.14487885D+05 0.14487885D+05 0.14487885D+05 0.12495461D+01  1  2  5  8  6  2       21 -.221371715557D-02 0.100000000000D+01
0.472614556998D-06 0.000000000000D+00 0.000000000000D+00 0.365940619894D-06 0.000000000000D+00  6 2 -3 25 24 1 -3 4 0.51037346D-01 0.10637629D-01 0.16751553D+05 0.16751553D+05 0.16751553D+05 0.12423914D+01  1  2 12  9  6  2       21 0.431626216648D-03 0.100000000000D+01
0.472614556998D-06 0.000000000000D+00 0.000000000000D+00 0.365940619894D-06 0.000000000000D+00  6 2 -4 25 24 1 -4 4 0.51037346D-01 0.10637629D-01 0.16751553D+05 0.16751553D+05 0.16751553D+05 0.12423914D+01  1  2 12  9  6  2       21 0.375553126667D-03 0.100000000000D+01
0.475417930343D-06 0.000000000000D+00 0.000000000000D+00 0.365940619894D-06 0.000000000000D+00  6 2 -3 25 24 1 -3 4 0.51037346D-01 0.10802178D-01 0.16751553D+05 0.16751553D+05 0.16751553D+05 0.12423914D+01  1  2 12  9  6  2       21 0.423264878667D-03 0.100000000000D+01
0.475417930343D-06 0.000000000000D+00 0.000000000000D+00 0.365940619894D-06 0.000000000000D+00  6 2 -4 25 24 1 -4 4 0.51037346D-01 0.10802178D-01 0.16751553D+05 0.16751553D+05 0.16751553D+05 0.12423914D+01  1  2 12  9  6  2       21 0.368091546734D-03 0.100000000000D+01
-.107462505142D-05 0.000000000000D+00 -.887374342243D-07 0.370167495091D-06 0.000000000000D+00  6 2 -3 25 24 1 -3 4 0.51037346D-01 0.10718394D-01 0.14487885D+05 0.14487885D+05 0.14487885D+05 0.12495461D+01  1  2  5  9  6  2       21 -.983836764462D-03 0.100000000000D+01
-.107462505142D-05 0.000000000000D+00 -.887374342243D-07 0.370167495091D-06 0.000000000000D+00  6 2 -4 25 24 1 -4 4 0.51037346D-01 0.10718394D-01 0.14487885D+05 0.14487885D+05 0.14487885D+05 0.12495461D+01  1  2  5  9  6  2       21 -.854418506744D-03 0.100000000000D+01
0.472614556998D-06 0.000000000000D+00 0.000000000000D+00 0.365940619894D-06 0.000000000000D+00  6 2 3 25 24 1 3 4 0.51037346D-01 0.10637629D-01 0.16751553D+05 0.16751553D+05 0.16751553D+05 0.12423914D+01  1  2 12 10  6  2       21 0.431570179361D-03 0.100000000000D+01
0.472614556998D-06 0.000000000000D+00 0.000000000000D+00 0.365940619894D-06 0.000000000000D+00  6 2 4 25 24 1 4 4 0.51037346D-01 0.10637629D-01 0.16751553D+05 0.16751553D+05 0.16751553D+05 0.12423914D+01  1  2 12 10  6  2       21 0.375553126667D-03 0.100000000000D+01
0.475417930343D-06 0.000000000000D+00 0.000000000000D+00 0.365940619894D-06 0.000000000000D+00  6 2 3 25 24 1 3 4 0.51037346D-01 0.10802178D-01 0.16751553D+05 0.16751553D+05 0.16751553D+05 0.12423914D+01  1  2 12 10  6  2       21 0.423209845657D-03 0.100000000000D+01
0.475417930343D-06 0.000000000000D+00 0.000000000000D+00 0.365940619894D-06 0.000000000000D+00  6 2 4 25 24 1 4 4 0.51037346D-01 0.10802178D-01 0.16751553D+05 0.16751553D+05 0.16751553D+05 0.12423914D+01  1  2 12 10  6  2       21 0.368091546734D-03 0.100000000000D+01
-.107462505142D-05 0.000000000000D+00 -.887374342243D-07 0.370167495091D-06 0.000000000000D+00  6 2 3 25 24 1 3 4 0.51037346D-01 0.10718394D-01 0.14487885D+05 0.14487885D+05 0.14487885D+05 0.12495461D+01  1  2  5 10  6  2       21 -.983707015773D-03 0.100000000000D+01
-.107462505142D-05 0.000000000000D+00 -.887374342243D-07 0.370167495091D-06 0.000000000000D+00  6 2 4 25 24 1 4 4 0.51037346D-01 0.10718394D-01 0.14487885D+05 0.14487885D+05 0.14487885D+05 0.12495461D+01  1  2  5 10  6  2       21 -.854418506744D-03 0.100000000000D+01
  </mgrwgt>
  </event>
  <event>
  5     66 0.45638357E-03 0.10971480E+03 0.75467711E-02 0.11589301E+00
        2 -1    0    0  502    0 0.00000000E+00 0.00000000E+00 0.19550179E+04 0.19550179E+04 0.32000000E+00 0.0000E+00 0.9000E+01
       21 -1    0    0  501  502 0.00000000E+00 0.00000000E+00 -.26439627E+02 0.26450262E+02 0.75000000E+00 0.0000E+00 0.9000E+01
       25  1    1    2    0    0 0.59858986E+02 -.39983906E+01 0.54964992E+03 0.56686781E+03 0.12500000E+03 0.0000E+00 0.9000E+01
       24  1    1    2    0    0 0.29276523E+02 0.67968410E+02 0.11982174E+04 0.12031911E+04 0.80419002E+02 0.0000E+00 0.9000E+01
        1  1    1    2  501    0 -.89135510E+02 -.63970020E+02 0.18071094E+03 0.21140920E+03 0.32000000E+00 0.0000E+00 0.9000E+01
#aMCatNLO 1  0  0  5  5 0.50913844D+02 0.00000000D+00  -5  6  0 0.00000000D+00 0.00000000D+00 0.00000000D+00 0.00000000D+00 0.00000000D+00
  <mgrwgt>
 0.6364494641D-01    3    2    0
 0.227377450981438D+03 0.000000000000000D+00 0.000000000000000D+00 0.227377450981438D+03
 0.227377450981438D+03 -.000000000000000D+00 -.000000000000000D+00 -.227377450981438D+03
 0.138948820595399D+03 0.598590445736322D+02 -.399834881224892D+01 -.909300469371130D+01
 0.161029621235332D+03 0.292765906642385D+02 0.679684586853664D+02 0.118264503651087D+03
 0.154776460132146D+03 -.891356352378707D+02 -.639701098731175D+02 -.109171498957376D+03
 0.000000000000000D+00 0.000000000000000D+00 0.000000000000000D+00 0.000000000000000D+00
 0.227377450981438D+03 0.000000000000000D+00 0.000000000000000D+00 0.227377450981438D+03
 0.227377450981438D+03 -.000000000000000D+00 -.000000000000000D+00 -.227377450981438D+03
 0.136872024723644D+03 0.510768837776765D+02 -.103010557996557D+02 -.198492152218643D+02
 0.147779023629403D+03 0.194440953310946D+02 0.609119564782571D+02 0.106221864911305D+03
 0.540612129053703D+02 0.303959196831347D+02 -.137140354527378D+02 -.425514751685208D+02
 0.116042640704459D+03 -.100916898791906D+03 -.368968652258635D+02 -.438211745209196D+02
0.100776249990D-04 0.000000000000D+00 0.000000000000D+00 0.318700840228D-06 0.000000000000D+00  6 2 21 25 24 1 21 2 0.30077280D+00 0.40684550D-02 0.31979201D+05 0.31979201D+05 0.31979201D+05 0.12119971D+01  1  2  2  3  6  5        1 0.575331206201D-01 0.100000000000D+01
-.412521970564D-06 0.531810881877D-06 -.203438213806D-07 0.318700840228D-06 0.000000000000D+00  6 2 21 25 24 1 21 4 0.30077280D+00 0.40684550D-02 0.31979201D+05 0.31979201D+05 0.31979201D+05 0.12119971D+01  1  2  3  3  6  5        1 -.345947306195D-02 0.100000000000D+01
0.114132152258D-05 0.000000000000D+00 0.000000000000D+00 0.318700840228D-06 0.000000000000D+00  6 2 21 25 24 1 21 4 0.30077280D+00 0.40684550D-02 0.31979201D+05 0.31979201D+05 0.31979201D+05 0.12119971D+01  1  2 15  3  6  5        1 0.957129884983D-02 0.100000000000D+01
  </mgrwgt>
  </event>
  <event>
  5     66 0.45638357E-03 0.98355820E+02 0.75467711E-02 0.11113851E+00
        2 -1    0    0  502    0 0.00000000E+00 0.00000000E+00 0.37912909E+04 0.37912909E+04 0.32000000E+00 0.0000E+00 0.9000E+01
       21 -1    0    0  501  502 0.00000000E+00 0.00000000E+00 -.14205746E+02 0.14225531E+02 0.75000000E+00 0.0000E+00 0.9000E+01
       25  1    1    2    0    0 -.95132813E+02 0.49383005E+02 0.83772382E+03 0.85375356E+03 0.12500000E+03 0.0000E+00 0.9000E+01
       24  1    1    2    0    0 0.14766970E+03 0.33765455E+02 0.19472930E+04 0.19548309E+04 0.80419002E+02 0.0000E+00 0.9000E+01
        1  1    1    2  501    0 -.52536886E+02 -.83148460E+02 0.99206832E+03 0.99693202E+03 0.32000000E+00 0.0000E+00 0.9000E+01
#aMCatNLO 1  0  0  1  2 0.67349539D+02 0.00000000D+00  -5  6  0 0.00000000D+00 0.00000000D+00 0.00000000D+00 0.00000000D+00 0.00000000D+00
  <mgrwgt>
 0.1438446652D+00    9    2    0
 0.232154660640211D+03 0.000000000000000D+00 0.000000000000000D+00 0.232154660640211D+03
 0.232154660640211D+03 0.000000000000000D+00 0.000000000000000D+00 -.232154660640211D+03
 0.182677769559595D+03 -.951327083373891D+02 0.493831704154690D+02 -.791027039700829D+02
 0.181020592065354D+03 0.147669802234754D+03 0.337656186731675D+02 0.579202149589228D+02
 0.100610959655472D+03 -.525370938973648D+02 -.831487890886364D+02 0.211824890111601D+02
 0.000000000000000D+00 -.000000000000000D+00 0.000000000000000D+00 0.000000000000000D+00
 0.357683315910383D+03 0.000000000000000D+00 0.000000000000000D+00 0.357683315910383D+03
 0.243796276322091D+03 0.000000000000000D+00 0.000000000000000D+00 -.243796276322091D+03
 0.174509681868765D+03 -.893437613150488D+02 0.242710445724655D+02 -.791027039700829D+02
 0.182954038482365D+03 0.153568749259043D+03 0.817631902273380D+01 0.579202149589228D+02
 0.111704806064730D+03 -.490960863399972D+02 -.980756858928169D+02 0.211824890111601D+02
 0.132311065816615D+03 -.151289016039969D+02 0.656283222976176D+02 0.113887039588292D+03
0.525094728406D-04 0.000000000000D+00 0.000000000000D+00 0.815701134005D-07 0.000000000000D+00  6 2 21 25 24 1 21 2 0.58327705D+00 0.21870223D-02 0.47202589D+05 0.47202589D+05 0.47202589D+05 0.11947660D+01  1  2  2  1  6  1        2 0.670956569241D-01 0.100000000000D+01
-.416214728774D-05 0.277100101075D-05 -.106001497015D-06 0.815701134005D-07 0.000000000000D+00  6 2 21 25 24 1 21 4 0.58327705D+00 0.21870223D-02 0.47202589D+05 0.47202589D+05 0.47202589D+05 0.11947660D+01  1  2  3  1  6  1        2 -.759171562403D-02 0.100000000000D+01
0.639661214859D-05 0.000000000000D+00 0.000000000000D+00 0.815701134005D-07 0.000000000000D+00  6 2 21 25 24 1 21 4 0.58327705D+00 0.21870223D-02 0.47202589D+05 0.47202589D+05 0.47202589D+05 0.11947660D+01  1  2 15  1  6  1        2 0.116673575037D-01 0.100000000000D+01
0.131867519885D-03 0.000000000000D+00 0.000000000000D+00 0.798067752920D-07 0.000000000000D+00  6 2 21 25 24 1 21 4 0.90683994D+00 0.21870223D-02 0.64040168D+05 0.64040168D+05 0.64040168D+05 0.11817816D+01  1  2 12  1  6  1        2 0.471893851916D-03 0.100000000000D+01
-.141508967960D-03 0.000000000000D+00 0.000000000000D+00 0.815701134005D-07 0.000000000000D+00  6 2 21 25 24 1 21 4 0.58327705D+00 0.21870223D-02 0.47202589D+05 0.47202589D+05 0.47202589D+05 0.11947660D+01  1  2  4  1  6  1        2 -.258110962619D+00 0.100000000000D+01
-.159888751002D-03 0.000000000000D+00 -.275989410576D-04 0.815701134005D-07 0.000000000000D+00  6 2 21 25 24 1 21 4 0.90049944D+00 0.21870223D-02 0.47202589D+05 0.47202589D+05 0.47202589D+05 0.11947660D+01  1  2  5  1  6  1        2 -.808299333809D-03 0.100000000000D+01
0.181536500026D-03 0.000000000000D+00 0.290651792982D-04 0.815701134005D-07 0.000000000000D+00  6 2 21 25 24 1 21 4 0.58327705D+00 0.21870223D-02 0.47202589D+05 0.47202589D+05 0.47202589D+05 0.11947660D+01  1  2  6  1  6  1        2 0.331120786532D+00 0.100000000000D+01
0.675219714579D-05 0.000000000000D+00 0.000000000000D+00 0.798067752920D-07 0.000000000000D+00  6 21 21 25 24 1 -2 4 0.90683994D+00 0.21870223D-02 0.64040168D+05 0.64040168D+05 0.64040168D+05 0.11817816D+01  1  2 12  4  6  1        2 0.819078765980D-07 0.100000000000D+01
-.703899639114D-05 0.000000000000D+00 -.139627145990D-05 0.815701134005D-07 0.000000000000D+00  6 21 21 25 24 1 -2 4 0.90049944D+00 0.21870223D-02 0.47202589D+05 0.47202589D+05 0.47202589D+05 0.11947660D+01  1  2  5  4  6  1        2 -.133984034316D-06 0.100000000000D+01
  </mgrwgt>
  </event>
  <event>
  5     66 -.45638357E-03 0.65475239E+02 0.75467711E-02 0.11987233E+00
        2 -1    0    0  502    0 0.00000000E+00 0.00000000E+00 0.26943019E+02 0.26944919E+02 0.32000000E+00 0.0000E+00 0.9000E+01
       21 -1    0    0  501  502 -.00000000E+00 -.00000000E+00 -.88970286E+03 0.88970318E+03 0.75000000E+00 0.0000E+00 0.9000E+01
       25  1    1    2    0    0 0.86259257E+02 0.22233594E+02 -.36207316E+03 0.39326449E+03 0.12500000E+03 0.0000E+00 0.9000E+01
       24  1    1    2    0    0 -.27724270E+02 0.71022263E+01 -.24490007E+03 0.25934984E+03 0.80419002E+02 0.0000E+00 0.9000E+01
        1  1    1    2  501    0 -.58534988E+02 -.29335820E+02 -.25578662E+03 0.26403377E+03 0.32000000E+00 0.0000E+00 0.9000E+01
#aMCatNLO 1  0  0  5  2 0.67566591D+01 0.00000000D+00  -5  6  0 0.00000000D+00 0.00000000D+00 0.00000000D+00 0.00000000D+00 0.00000000D+00
  <mgrwgt>
 -.3910995709D+00    8    2    0
 0.154829897602430D+03 0.000000000000000D+00 0.000000000000000D+00 0.154829897602430D+03
 0.154829897602430D+03 -.000000000000000D+00 -.000000000000000D+00 -.154829897602430D+03
 0.155341568972759D+03 0.862595737564831D+02 0.222337522141645D+02 0.238945443301891D+02
 0.853923298115397D+02 -.277240957848003D+02 0.710231349710760D+01 -.235917192596527D+01
 0.689258964205620D+02 -.585354779716828D+02 -.293360657112721D+02 -.215353724042238D+02
 0.000000000000000D+00 0.000000000000000D+00 0.000000000000000D+00 -.000000000000000D+00
 0.154829897602430D+03 0.000000000000000D+00 0.000000000000000D+00 0.154829897602430D+03
 0.154829897602430D+03 -.000000000000000D+00 -.000000000000000D+00 -.154829897602430D+03
 0.154680974578214D+03 0.852891503874180D+02 0.217474077832466D+02 0.235375227534166D+02
 0.855513646687207D+02 -.282591786662512D+02 0.683414747002207D+01 -.255603047258452D+01
 0.562688098831247D+02 -.505582728092057D+02 -.216769003173563D+02 -.118385813695966D+02
 0.131586460748014D+02 -.647169891196117D+01 -.690465493591235D+01 -.914291091123548D+01
0.175622071503D-04 0.000000000000D+00 0.000000000000D+00 0.356695580693D-06 0.000000000000D+00  6 2 21 25 24 1 21 2 0.41452504D-02 0.13687753D+00 0.23153855D+05 0.23153855D+05 0.23153855D+05 0.12268858D+01  1  2  2  3  6  5        1 0.244609173759D-01 0.100000000000D+01
-.779945770910D-06 0.926783133253D-06 -.354530363404D-07 0.356695580693D-06 0.000000000000D+00  6 2 21 25 24 1 21 4 0.41452504D-02 0.13687753D+00 0.23153855D+05 0.23153855D+05 0.23153855D+05 0.12268858D+01  1  2  3  3  6  5        1 -.163518290530D-02 0.100000000000D+01
0.178398005888D-05 0.000000000000D+00 0.000000000000D+00 0.356695580693D-06 0.000000000000D+00  6 2 21 25 24 1 21 4 0.41452504D-02 0.13687753D+00 0.23153855D+05 0.23153855D+05 0.23153855D+05 0.12268858D+01  1  2 15  3  6  5        1 0.374017502816D-02 0.100000000000D+01
0.721155763362D-04 0.000000000000D+00 0.000000000000D+00 0.356958941772D-06 0.000000000000D+00  6 2 21 25 24 1 21 4 0.41452504D-02 0.13687753D+00 0.22931897D+05 0.22931897D+05 0.22931897D+05 0.12273387D+01  1  2 12  3  6  5        1 0.151442205464D+00 0.100000000000D+01
-.306502329513D-03 0.000000000000D+00 0.000000000000D+00 0.356695580693D-06 0.000000000000D+00  6 2 21 25 24 1 21 4 0.41452504D-02 0.13687753D+00 0.23153855D+05 0.23153855D+05 0.23153855D+05 0.12268858D+01  1  2  4  3  6  5        1 -.642592585724D+00 0.100000000000D+01
-.762286086752D-04 0.000000000000D+00 0.000000000000D+00 0.356695580693D-06 0.000000000000D+00  6 2 21 25 24 1 21 4 0.41452504D-02 0.13687753D+00 0.23153855D+05 0.23153855D+05 0.23153855D+05 0.12268858D+01  1  2  5  3  6  5        1 -.159815877526D+00 0.100000000000D+01
0.941830494000D-04 0.000000000000D+00 -.000000000000D+00 0.356695580693D-06 0.000000000000D+00  6 2 21 25 24 1 21 4 0.41452504D-02 0.13687753D+00 0.23153855D+05 0.23153855D+05 0.23153855D+05 0.12268858D+01  1  2  6  3  6  5        1 0.197457974762D+00 0.100000000000D+01
0.170680581299D-04 0.000000000000D+00 0.000000000000D+00 0.356695580693D-06 0.149991004762D-06  6 2 21 25 24 1 21 4 0.41452504D-02 0.13687753D+00 0.22931897D+05 0.22931897D+05 0.22931897D+05 0.12273387D+01  1  2 11  3  6  5        1 0.358428025886D-01 0.100000000000D+01
  </mgrwgt>
  </event>
</LesHouchesEvents>
