<event>
 5    0  0.1943430E+001  0.2351658E+03  0.7546771E-02  0.1123056E+00
         21   -1    0    0  503  501  0.00000000000E+00  0.00000000000E+00  0.24935963786E+04  0.24935963786E+04  0.00000000000E+00 0.  1.
         21   -1    0    0  504  502 -0.00000000000E+00 -0.00000000000E+00 -0.57796722951E+02  0.57796722951E+02  0.00000000000E+00 0.  1.
         25    1    1    2    0    0 -0.20545982136E+03  0.15027372594E+03  0.13547064014E+04  0.13840702167E+04  0.12500000000E+03 0.  0.
         21    1    1    2  503  502  0.12964147742E+03 -0.11487707322E+03  0.10688064759E+04  0.10827515585E+04  0.00000000000E+00 0.  1.
         21    1    1    2  504  501  0.75818343941E+02 -0.35396652718E+02  0.12286778352E+02  0.84571326251E+02  0.00000000000E+00 0.  1.
<mgrwt>
<rscale>  4 0.23516585E+03</rscale>
<asrwt>0</asrwt>
<pdfrwt beam="1">  1       21 0.38363013E+00 0.23516585E+03</pdfrwt>
<pdfrwt beam="2">  1       21 0.88918055E-02 0.23516585E+03</pdfrwt>
<totfact> 0.10339122E+03</totfact>
</mgrwt>
</event>
<event>
 5    0  0.1943430E+001  0.2966333E+03  0.7546771E-02  0.1086936E+00
         21   -1    0    0  504  501  0.00000000000E+00  0.00000000000E+00  0.19027355396E+04  0.19027355396E+04  0.00000000000E+00 0.  1.
         21   -1    0    0  501  502 -0.00000000000E+00 -0.00000000000E+00 -0.11490606501E+03  0.11490606501E+03  0.00000000000E+00 0.  1.
         25    1    1    2    0    0 -0.28970383779E+03 -0.30897242622E+02  0.13233939617E+04  0.13608378048E+04  0.12500000000E+03 0.  0.
         21    1    1    2  503  502  0.16473098329E+03  0.19438113589E+03  0.21455403225E+03  0.33309721644E+03  0.00000000000E+00 0.  1.
         21    1    1    2  504  503  0.12497285450E+03 -0.16348389327E+03  0.24988148066E+03  0.32370658334E+03  0.00000000000E+00 0.  1.
<mgrwt>
<rscale>  4 0.29663325E+03</rscale>
<asrwt>0</asrwt>
<pdfrwt beam="1">  1       21 0.29272852E+00 0.29663325E+03</pdfrwt>
<pdfrwt beam="2">  1       21 0.17677858E-01 0.29663325E+03</pdfrwt>
<totfact> 0.97678159E+02</totfact>
</mgrwt>
</event>
<event>
 5    0  0.1943430E+001  0.2592600E+03  0.7546771E-02  0.1107589E+00
         21   -1    0    0  502  501  0.00000000000E+00  0.00000000000E+00  0.18809552325E+03  0.18809552325E+03  0.00000000000E+00 0.  1.
         21   -1    0    0  503  502 -0.00000000000E+00 -0.00000000000E+00 -0.69306353739E+03  0.69306353739E+03  0.00000000000E+00 0.  1.
         25    1    1    2    0    0 -0.21468252151E+03  0.75166947364E+02  0.57971681372E+02  0.26594054008E+03  0.12500000000E+03 0.  0.
         21    1    1    2  503  504 -0.49013738112E+01 -0.20422099402E+02 -0.63915703564E+02  0.67277802961E+02  0.00000000000E+00 0. -1.
         21    1    1    2  504  501  0.21958389532E+03 -0.54744847962E+02 -0.49902399195E+03  0.54794071760E+03  0.00000000000E+00 0.  1.
<mgrwt>
<rscale>  4 0.25925998E+03</rscale>
<asrwt>0</asrwt>
<pdfrwt beam="1">  1       21 0.28937772E-01 0.25925998E+03</pdfrwt>
<pdfrwt beam="2">  1       21 0.10662516E+00 0.25925998E+03</pdfrwt>
<totfact> 0.77035993E+03</totfact>
</mgrwt>
</event>
<event>
 5    0  0.1943430E+001  0.3515828E+03  0.7546771E-02  0.1061967E+00
         21   -1    0    0  503  501  0.00000000000E+00  0.00000000000E+00  0.18593850055E+03  0.18593850055E+03  0.00000000000E+00 0.  1.
         21   -1    0    0  504  502 -0.00000000000E+00 -0.00000000000E+00 -0.85493187217E+03  0.85493187217E+03  0.00000000000E+00 0.  1.
         25    1    1    2    0    0 -0.47616293200E+01  0.32857688324E+03 -0.77904620287E+02  0.36011049857E+03  0.12500000000E+03 0.  0.
         21    1    1    2  503  502 -0.93484666260E+01 -0.29912550866E+03 -0.48638325075E+03  0.57107979334E+03  0.00000000000E+00 0.  1.
         21    1    1    2  504  501  0.14110095946E+02 -0.29451374587E+02 -0.10470550059E+03  0.10968008081E+03  0.00000000000E+00 0. -1.
<mgrwt>
<rscale>  4 0.35158277E+03</rscale>
<asrwt>0</asrwt>
<pdfrwt beam="1">  1       21 0.28605923E-01 0.35158277E+03</pdfrwt>
<pdfrwt beam="2">  1       21 0.13152798E+00 0.35158277E+03</pdfrwt>
<totfact> 0.44478981E+03</totfact>
</mgrwt>
</event>
<event>
 5    0  0.1943430E+001  0.2784730E+03  0.7546771E-02  0.1096526E+00
         21   -1    0    0  503  501  0.00000000000E+00  0.00000000000E+00  0.71913526761E+03  0.71913526761E+03  0.00000000000E+00 0.  1.
         21   -1    0    0  504  502 -0.00000000000E+00 -0.00000000000E+00 -0.11884191714E+03  0.11884191714E+03  0.00000000000E+00 0. -1.
         25    1    1    2    0    0 -0.23769570326E+03 -0.87033797150E+02  0.40136520785E+03  0.49070679562E+03  0.12500000000E+03 0.  0.
         21    1    1    2  503  502  0.21359398294E+02 -0.26784057194E+02  0.37552980533E+01  0.34463196003E+02  0.00000000000E+00 0.  1.
         21    1    1    2  504  501  0.21633630497E+03  0.11381785434E+03  0.19517284456E+03  0.31280719312E+03  0.00000000000E+00 0. -1.
<mgrwt>
<rscale>  4 0.27847305E+03</rscale>
<asrwt>0</asrwt>
<pdfrwt beam="1">  1       21 0.11063619E+00 0.27847305E+03</pdfrwt>
<pdfrwt beam="2">  1       21 0.18283372E-01 0.27847305E+03</pdfrwt>
<totfact> 0.16746984E+04</totfact>
</mgrwt>
</event>
<event>
 5    0  0.1943430E+001  0.2699500E+03  0.7546771E-02  0.1101308E+00
         21   -1    0    0  504  501  0.00000000000E+00  0.00000000000E+00  0.29397135765E+03  0.29397135765E+03  0.00000000000E+00 0.  1.
         21   -1    0    0  501  502 -0.00000000000E+00 -0.00000000000E+00 -0.12876183433E+04  0.12876183433E+04  0.00000000000E+00 0.  1.
         25    1    1    2    0    0  0.15847797174E+02  0.21482002370E+03  0.18664095409E+03  0.31122120911E+03  0.12500000000E+03 0.  0.
         21    1    1    2  503  502  0.71084254133E+02 -0.23045863445E+03 -0.11529545105E+04  0.11779084246E+04  0.00000000000E+00 0.  1.
         21    1    1    2  504  503 -0.86932051307E+02  0.15638610747E+02 -0.27333429262E+02  0.92460067303E+02  0.00000000000E+00 0.  1.
<mgrwt>
<rscale>  4 0.26994998E+03</rscale>
<asrwt>0</asrwt>
<pdfrwt beam="1">  1       21 0.45226363E-01 0.26994998E+03</pdfrwt>
<pdfrwt beam="2">  1       21 0.19809513E+00 0.26994998E+03</pdfrwt>
<totfact> 0.59914358E+02</totfact>
</mgrwt>
</event>
<event>
 5    0  0.1943430E+001  0.3379535E+03  0.7546771E-02  0.1067671E+00
         21   -1    0    0  503  501  0.00000000000E+00  0.00000000000E+00  0.10127024343E+04  0.10127024343E+04  0.00000000000E+00 0. -1.
         21   -1    0    0  504  502 -0.00000000000E+00 -0.00000000000E+00 -0.33833799167E+03  0.33833799167E+03  0.00000000000E+00 0. -1.
         25    1    1    2    0    0 -0.35228985392E+03 -0.11951023129E+03  0.24326958204E+03  0.46173144370E+03  0.12500000000E+03 0.  0.
         21    1    1    2  503  502  0.70020498782E+02  0.29875669724E+02 -0.18810617019E+03  0.20292697493E+03  0.00000000000E+00 0. -1.
         21    1    1    2  504  501  0.28226935514E+03  0.89634561563E+02  0.61920103073E+03  0.68638200729E+03  0.00000000000E+00 0. -1.
<mgrwt>
<rscale>  4 0.33795346E+03</rscale>
<asrwt>0</asrwt>
<pdfrwt beam="1">  1       21 0.15580037E+00 0.33795346E+03</pdfrwt>
<pdfrwt beam="2">  1       21 0.52051999E-01 0.33795346E+03</pdfrwt>
<totfact> 0.84252479E+02</totfact>
</mgrwt>
</event>
<event>
 5    0  0.1943430E+001  0.2810999E+03  0.7546771E-02  0.1095090E+00
         21   -1    0    0  503  501  0.00000000000E+00  0.00000000000E+00  0.61506530759E+03  0.61506530759E+03  0.00000000000E+00 0. -1.
         21   -1    0    0  504  502 -0.00000000000E+00 -0.00000000000E+00 -0.13282134562E+03  0.13282134562E+03  0.00000000000E+00 0. -1.
         25    1    1    2    0    0 -0.17825219920E+03 -0.16440100363E+03  0.29653317832E+03  0.40293729333E+03  0.12500000000E+03 0.  0.
         21    1    1    2  503  502 -0.18861832695E+02 -0.10770560607E+02 -0.11533199771E+01  0.21750950677E+02  0.00000000000E+00 0. -1.
         21    1    1    2  504  501  0.19711403189E+03  0.17517156424E+03  0.18686410362E+03  0.32319840920E+03  0.00000000000E+00 0. -1.
<mgrwt>
<rscale>  4 0.28109989E+03</rscale>
<asrwt>0</asrwt>
<pdfrwt beam="1">  1       21 0.94625430E-01 0.28109989E+03</pdfrwt>
<pdfrwt beam="2">  1       21 0.20434054E-01 0.28109989E+03</pdfrwt>
<totfact> 0.19787746E+04</totfact>
</mgrwt>
</event>
<event>
 5    0  0.1943430E+001  0.2938462E+03  0.7546771E-02  0.1088358E+00
         21   -1    0    0  504  501  0.00000000000E+00  0.00000000000E+00  0.98683638418E+03  0.98683638418E+03  0.00000000000E+00 0.  1.
         21   -1    0    0  503  502 -0.00000000000E+00 -0.00000000000E+00 -0.62672396649E+03  0.62672396649E+03  0.00000000000E+00 0. -1.
         25    1    1    2    0    0 -0.16439547571E+03 -0.21920342509E+03  0.88037413626E+03  0.93046205393E+03  0.12500000000E+03 0.  0.
         21    1    1    2  503  501  0.12621779415E+03  0.17770977936E+03 -0.69441764173E+02  0.22876594119E+03  0.00000000000E+00 0.  1.
         21    1    1    2  504  502  0.38177681567E+02  0.41493645729E+02 -0.45081995440E+03  0.45433235554E+03  0.00000000000E+00 0. -1.
<mgrwt>
<rscale>  4 0.29384617E+03</rscale>
<asrwt>0</asrwt>
<pdfrwt beam="1">  1       21 0.15182098E+00 0.29384617E+03</pdfrwt>
<pdfrwt beam="2">  1       21 0.96419072E-01 0.29384617E+03</pdfrwt>
<totfact> 0.23389259E+02</totfact>
</mgrwt>
</event>
<event>
 5    0  0.1943430E+001  0.4865433E+03  0.7546771E-02  0.1017352E+00
         21   -1    0    0  503  501  0.00000000000E+00  0.00000000000E+00  0.35418341016E+03  0.35418341016E+03  0.00000000000E+00 0. -1.
         21   -1    0    0  504  502 -0.00000000000E+00 -0.00000000000E+00 -0.16611692169E+04  0.16611692169E+04  0.00000000000E+00 0. -1.
         25    1    1    2    0    0  0.45669118451E+03  0.11994042136E+03  0.11225375893E+03  0.50117706360E+03  0.12500000000E+03 0.  0.
         21    1    1    2  503  502 -0.20602986381E+02  0.25137654844E+02 -0.33472565465E+03  0.33629993848E+03  0.00000000000E+00 0. -1.
         21    1    1    2  504  501 -0.43608819813E+03 -0.14507807621E+03 -0.10845139110E+04  0.11778756249E+04  0.00000000000E+00 0. -1.
<mgrwt>
<rscale>  4 0.48654325E+03</rscale>
<asrwt>0</asrwt>
<pdfrwt beam="1">  1       21 0.54489754E-01 0.48654325E+03</pdfrwt>
<pdfrwt beam="2">  1       21 0.25556450E+00 0.48654325E+03</pdfrwt>
<totfact> 0.15197976E+02</totfact>
</mgrwt>
</event>
<event>
 5    0  0.1943430E+001  0.3619959E+03  0.7546771E-02  0.1057796E+00
         21   -1    0    0  504  501  0.00000000000E+00  0.00000000000E+00  0.56369081271E+03  0.56369081271E+03  0.00000000000E+00 0. -1.
         21   -1    0    0  501  502 -0.00000000000E+00 -0.00000000000E+00 -0.93032619345E+03  0.93032619345E+03  0.00000000000E+00 0. -1.
         25    1    1    2    0    0 -0.33582765494E+03 -0.13094365625E+03  0.20641042656E+03  0.43377035298E+03  0.12500000000E+03 0.  0.
         21    1    1    2  503  502  0.44962733523E+02 -0.42610576949E+01 -0.71003131489E+03  0.71146628321E+03  0.00000000000E+00 0. -1.
         21    1    1    2  504  503  0.29086492142E+03  0.13520471395E+03  0.13698550759E+03  0.34878036997E+03  0.00000000000E+00 0. -1.
<mgrwt>
<rscale>  4 0.36199588E+03</rscale>
<asrwt>0</asrwt>
<pdfrwt beam="1">  1       21 0.86721663E-01 0.36199588E+03</pdfrwt>
<pdfrwt beam="2">  1       21 0.14312711E+00 0.36199588E+03</pdfrwt>
<totfact> 0.33504419E+02</totfact>
</mgrwt>
</event>
<event>
 5    0  0.1943430E+001  0.3582748E+03  0.7546771E-02  0.1059269E+00
         21   -1    0    0  503  501  0.00000000000E+00  0.00000000000E+00  0.12314691085E+04  0.12314691085E+04  0.00000000000E+00 0. -1.
         21   -1    0    0  504  502 -0.00000000000E+00 -0.00000000000E+00 -0.57619119581E+03  0.57619119581E+03  0.00000000000E+00 0. -1.
         25    1    1    2    0    0  0.18230665839E+03  0.13255576285E+03  0.42005473327E+03  0.49282626442E+03  0.12500000000E+03 0.  0.
         21    1    1    2  503  502  0.46052120400E+01  0.16547556507E+03  0.70711981761E+03  0.72623812009E+03  0.00000000000E+00 0.  1.
         21    1    1    2  504  501 -0.18691187043E+03 -0.29803132792E+03 -0.47189663816E+03  0.58859591983E+03  0.00000000000E+00 0. -1.
<mgrwt>
<rscale>  4 0.35827484E+03</rscale>
<asrwt>0</asrwt>
<pdfrwt beam="1">  1       21 0.18945678E+00 0.35827484E+03</pdfrwt>
<pdfrwt beam="2">  1       21 0.88644800E-01 0.35827484E+03</pdfrwt>
<totfact> 0.14562104E+02</totfact>
</mgrwt>
</event>
<event>
 5    0  0.1943430E+001  0.2497483E+03  0.7546771E-02  0.1113464E+00
         21   -1    0    0  504  501  0.00000000000E+00  0.00000000000E+00  0.39839270253E+03  0.39839270253E+03  0.00000000000E+00 0.  1.
         21   -1    0    0  501  502 -0.00000000000E+00 -0.00000000000E+00 -0.13857860522E+04  0.13857860522E+04  0.00000000000E+00 0.  1.
         25    1    1    2    0    0 -0.17513421895E+03  0.12957637239E+03  0.34717977511E+03  0.42851000825E+03  0.12500000000E+03 0.  0.
         21    1    1    2  503  502  0.13819436549E+03 -0.94653566052E+02 -0.12032001275E+04  0.12148034932E+04  0.00000000000E+00 0.  1.
         21    1    1    2  504  503  0.36939853459E+02 -0.34922806335E+02 -0.13137299731E+03  0.14086525334E+03  0.00000000000E+00 0. -1.
<mgrwt>
<rscale>  4 0.24974832E+03</rscale>
<asrwt>0</asrwt>
<pdfrwt beam="1">  1       21 0.61291186E-01 0.24974832E+03</pdfrwt>
<pdfrwt beam="2">  1       21 0.21319785E+00 0.24974832E+03</pdfrwt>
<totfact> 0.25651529E+02</totfact>
</mgrwt>
</event>
