<event>
 5    0  0.2395413E+000  0.2466834E+03  0.7546771E-02  0.1115419E+00
         21   -1    0    0  502  501  0.00000000000E+00  0.00000000000E+00  0.10520862528E+04  0.10520862528E+04  0.00000000000E+00 0. -1.
         21   -1    0    0  503  502 -0.00000000000E+00 -0.00000000000E+00 -0.51327148722E+02  0.51327148722E+02  0.00000000000E+00 0. -1.
         25    1    1    2    0    0 -0.15817740387E+03  0.14215342669E+03  0.53812964363E+03  0.59197652079E+03  0.12500000000E+03 0.  0.
         21    1    1    2  503  504  0.24181521764E+02 -0.21288148777E+02  0.36562429615E+02  0.48731330092E+02  0.00000000000E+00 0. -1.
         21    1    1    2  504  501  0.13399588211E+03 -0.12086527791E+03  0.42606703078E+03  0.46270555059E+03  0.00000000000E+00 0. -1.
<mgrwt>
<rscale>  4 0.24668338E+03</rscale>
<asrwt>0</asrwt>
<pdfrwt beam="1">  1       21 0.16185941E+00 0.24668338E+03</pdfrwt>
<pdfrwt beam="2">  1       21 0.78964852E-02 0.24668338E+03</pdfrwt>
<totfact> 0.29001795E+04</totfact>
</mgrwt>
</event>
<event>
 5    0  0.2159162E+000  0.3356978E+03  0.7546771E-02  0.1068643E+00
         21   -1    0    0  502  501  0.00000000000E+00  0.00000000000E+00  0.48537576759E+02  0.48537576759E+02  0.00000000000E+00 0.  1.
         21   -1    0    0  503  502 -0.00000000000E+00 -0.00000000000E+00 -0.36084227726E+04  0.36084227726E+04  0.00000000000E+00 0. -1.
         25    1    1    2    0    0 -0.12271013319E+03 -0.28637433320E+03 -0.66426108373E+03  0.74426864966E+03  0.12500000000E+03 0.  0.
         21    1    1    2  503  504  0.11450022822E+03  0.26163641860E+03 -0.25118981680E+04  0.25280815501E+04  0.00000000000E+00 0. -1.
         21    1    1    2  504  501  0.82099049685E+01  0.24737914601E+02 -0.38372594410E+03  0.38461014955E+03  0.00000000000E+00 0. -1.
<mgrwt>
<rscale>  4 0.33569783E+03</rscale>
<asrwt>0</asrwt>
<pdfrwt beam="1">  1       21 0.74673172E-02 0.33569783E+03</pdfrwt>
<pdfrwt beam="2">  1       21 0.55514213E+00 0.33569783E+03</pdfrwt>
<totfact> 0.84106232E+01</totfact>
</mgrwt>
</event>
<event>
 5    0  0.2159162E+000  0.3232557E+03  0.7546771E-02  0.1074161E+00
         21   -1    0    0  502  501  0.00000000000E+00  0.00000000000E+00  0.13146668666E+04  0.13146668666E+04  0.00000000000E+00 0.  1.
         21   -1    0    0  503  502 -0.00000000000E+00 -0.00000000000E+00 -0.30811543837E+03  0.30811543837E+03  0.00000000000E+00 0. -1.
         25    1    1    2    0    0 -0.25079340527E+03  0.15068503994E+03  0.11607498338E+04  0.12035649089E+04  0.12500000000E+03 0.  0.
         21    1    1    2  503  504  0.23442713982E+03 -0.18499859120E+03 -0.20020862142E+03  0.35953310657E+03  0.00000000000E+00 0. -1.
         21    1    1    2  504  501  0.16366265452E+02  0.34313551265E+02  0.46010215871E+02  0.59684289472E+02  0.00000000000E+00 0.  1.
<mgrwt>
<rscale>  4 0.32325568E+03</rscale>
<asrwt>0</asrwt>
<pdfrwt beam="1">  1       21 0.20225644E+00 0.32325568E+03</pdfrwt>
<pdfrwt beam="2">  1       21 0.47402376E-01 0.32325568E+03</pdfrwt>
<totfact> 0.48954421E+02</totfact>
</mgrwt>
</event>
<event>
 5    0  0.2159162E+000  0.2861247E+03  0.7546771E-02  0.1092390E+00
         21   -1    0    0  502  501  0.00000000000E+00  0.00000000000E+00  0.37040457569E+03  0.37040457569E+03  0.00000000000E+00 0.  1.
         21   -1    0    0  503  502 -0.00000000000E+00 -0.00000000000E+00 -0.53714490331E+03  0.53714490331E+03  0.00000000000E+00 0. -1.
         25    1    1    2    0    0  0.25575615450E+03  0.28829188512E+02  0.27108892161E+03  0.39415293491E+03  0.12500000000E+03 0.  0.
         21    1    1    2  503  504 -0.52840797546E+02  0.31185522288E+01 -0.42492923093E+02  0.67878743111E+02  0.00000000000E+00 0.  1.
         21    1    1    2  504  501 -0.20291535696E+03 -0.31947740741E+02 -0.39533632614E+03  0.44551780098E+03  0.00000000000E+00 0. -1.
<mgrwt>
<rscale>  4 0.28612468E+03</rscale>
<asrwt>0</asrwt>
<pdfrwt beam="1">  1       21 0.56985319E-01 0.28612468E+03</pdfrwt>
<pdfrwt beam="2">  1       21 0.82637677E-01 0.28612468E+03</pdfrwt>
<totfact> 0.34653778E+03</totfact>
</mgrwt>
</event>
<event>
 5    0  0.3134359E+000  0.3155110E+03  0.7546771E-02  0.1077734E+00
         21   -1    0    0  502  501  0.00000000000E+00  0.00000000000E+00  0.46450246457E+03  0.46450246457E+03  0.00000000000E+00 0. -1.
         21   -1    0    0  503  502 -0.00000000000E+00 -0.00000000000E+00 -0.25141044205E+03  0.25141044205E+03  0.00000000000E+00 0. -1.
         25    1    1    2    0    0 -0.24681777804E+03  0.15166800162E+03  0.26108493325E+03  0.40952721600E+03  0.12500000000E+03 0.  0.
         21    1    1    2  503  504  0.49382412142E+02 -0.79483471219E+01  0.18435121394E+02  0.53307152913E+02  0.00000000000E+00 0. -1.
         21    1    1    2  504  501  0.19743536590E+03 -0.14371965450E+03 -0.66428032117E+02  0.25307853771E+03  0.00000000000E+00 0. -1.
<mgrwt>
<rscale>  4 0.31551101E+03</rscale>
<asrwt>0</asrwt>
<pdfrwt beam="1">  1       21 0.71461918E-01 0.31551101E+03</pdfrwt>
<pdfrwt beam="2">  1       21 0.38678530E-01 0.31551101E+03</pdfrwt>
<totfact> 0.10675111E+04</totfact>
</mgrwt>
</event>
<event>
 5    0  0.2159162E+000  0.2344431E+03  0.7546771E-02  0.1123551E+00
         21   -1    0    0  502  501  0.00000000000E+00  0.00000000000E+00  0.59132298963E+02  0.59132298963E+02  0.00000000000E+00 0. -1.
         21   -1    0    0  503  502 -0.00000000000E+00 -0.00000000000E+00 -0.14462380541E+04  0.14462380541E+04  0.00000000000E+00 0.  1.
         25    1    1    2    0    0 -0.20090113056E+03 -0.15848581155E+02 -0.24145919108E+03  0.33843756107E+03  0.12500000000E+03 0.  0.
         21    1    1    2  503  504  0.12782422828E+02  0.28718215181E+02 -0.11712573285E+03  0.12127062097E+03  0.00000000000E+00 0.  1.
         21    1    1    2  504  501  0.18811870773E+03 -0.12869634026E+02 -0.10285208312E+04  0.10456621710E+04  0.00000000000E+00 0.  1.
<mgrwt>
<rscale>  4 0.23444305E+03</rscale>
<asrwt>0</asrwt>
<pdfrwt beam="1">  1       21 0.90972781E-02 0.23444305E+03</pdfrwt>
<pdfrwt beam="2">  1       21 0.22249813E+00 0.23444305E+03</pdfrwt>
<totfact> 0.89880768E+03</totfact>
</mgrwt>
</event>
<event>
 5    0  0.2159162E+000  0.2536190E+03  0.7546771E-02  0.1111039E+00
         21   -1    0    0  502  501  0.00000000000E+00  0.00000000000E+00  0.20509687093E+04  0.20509687093E+04  0.00000000000E+00 0.  1.
         21   -1    0    0  503  502 -0.00000000000E+00 -0.00000000000E+00 -0.15659904637E+03  0.15659904637E+03  0.00000000000E+00 0.  1.
         25    1    1    2    0    0 -0.15995369997E+02 -0.22009489324E+03  0.19452631886E+04  0.19617266596E+04  0.12500000000E+03 0.  0.
         21    1    1    2  503  504  0.51668512537E+02  0.10446398043E+03 -0.57468661314E+01  0.11668498132E+03  0.00000000000E+00 0.  1.
         21    1    1    2  504  501 -0.35673142539E+02  0.11563091281E+03 -0.45146659610E+02  0.12915611472E+03  0.00000000000E+00 0.  1.
<mgrwt>
<rscale>  4 0.25361903E+03</rscale>
<asrwt>0</asrwt>
<pdfrwt beam="1">  1       21 0.31553363E+00 0.25361903E+03</pdfrwt>
<pdfrwt beam="2">  1       21 0.24092162E-01 0.25361903E+03</pdfrwt>
<totfact> 0.41705976E+02</totfact>
</mgrwt>
</event>
