<event>
 5    0  0.1911311E+001  0.3265692E+03  0.7546771E-02  0.1072665E+00
         21   -1    0    0  502  501  0.00000000000E+00  0.00000000000E+00  0.17489036401E+03  0.17489036401E+03  0.00000000000E+00 0. -1.
         21   -1    0    0  504  502 -0.00000000000E+00 -0.00000000000E+00 -0.12957092290E+04  0.12957092290E+04  0.00000000000E+00 0.  1.
         25    1    1    2    0    0 -0.34808756319E+02  0.25684164851E+03 -0.25488531837E+03  0.38440968698E+03  0.12500000000E+03 0.  0.
         21    1    1    2  503  501  0.14975785971E+03 -0.31287944365E+03 -0.18455352172E+03  0.39291343218E+03  0.00000000000E+00 0. -1.
         21    1    1    2  504  503 -0.11494910339E+03  0.56037795144E+02 -0.68138002491E+03  0.69327647386E+03  0.00000000000E+00 0.  1.
<mgrwt>
<rscale>  4 0.32656922E+03</rscale>
<asrwt>0</asrwt>
<pdfrwt beam="1">  1       21 0.26906210E-01 0.32656922E+03</pdfrwt>
<pdfrwt beam="2">  1       21 0.19933988E+00 0.32656922E+03</pdfrwt>
<totfact> 0.16000283E+03</totfact>
</mgrwt>
</event>
<event>
 5    0  0.1911311E+001  0.2200073E+03  0.7546771E-02  0.1133878E+00
         21   -1    0    0  502  501  0.00000000000E+00  0.00000000000E+00  0.14896384909E+03  0.14896384909E+03  0.00000000000E+00 0.  1.
         21   -1    0    0  504  502 -0.00000000000E+00 -0.00000000000E+00 -0.40779537290E+03  0.40779537290E+03  0.00000000000E+00 0.  1.
         25    1    1    2    0    0 -0.14625018923E+03 -0.14018830444E+03 -0.37924177973E+02  0.24105004009E+03  0.12500000000E+03 0.  0.
         21    1    1    2  503  501 -0.39727318967E+00  0.44777081732E+02 -0.19263394935E+02  0.48746520479E+02  0.00000000000E+00 0.  1.
         21    1    1    2  504  503  0.14664746242E+03  0.95411222707E+02 -0.20164395090E+03  0.26696266142E+03  0.00000000000E+00 0.  1.
<mgrwt>
<rscale>  4 0.22000730E+03</rscale>
<asrwt>0</asrwt>
<pdfrwt beam="1">  1       21 0.22917516E-01 0.22000730E+03</pdfrwt>
<pdfrwt beam="2">  1       21 0.62737749E-01 0.22000730E+03</pdfrwt>
<totfact> 0.41487611E+04</totfact>
</mgrwt>
</event>
<event>
 5    0  0.1911311E+001  0.1984907E+03  0.7546771E-02  0.1151019E+00
         21   -1    0    0  502  501  0.00000000000E+00  0.00000000000E+00  0.15680831768E+04  0.15680831768E+04  0.00000000000E+00 0.  1.
         21   -1    0    0  504  502 -0.00000000000E+00 -0.00000000000E+00 -0.27008864370E+03  0.27008864370E+03  0.00000000000E+00 0.  1.
         25    1    1    2    0    0  0.21430898425E+03  0.47927711789E+02 -0.17186219843E+03  0.30559290165E+03  0.12500000000E+03 0.  0.
         21    1    1    2  503  501 -0.15159022186E+03 -0.21430620625E+02  0.14548181980E+04  0.14628516180E+04  0.00000000000E+00 0.  1.
         21    1    1    2  504  503 -0.62718762391E+02 -0.26497091165E+02  0.15038533474E+02  0.69727300859E+02  0.00000000000E+00 0. -1.
<mgrwt>
<rscale>  4 0.19849074E+03</rscale>
<asrwt>0</asrwt>
<pdfrwt beam="1">  1       21 0.24124356E+00 0.19849074E+03</pdfrwt>
<pdfrwt beam="2">  1       21 0.41552100E-01 0.19849074E+03</pdfrwt>
<totfact> 0.41450314E+02</totfact>
</mgrwt>
</event>
<event>
 5    0  0.1911311E+001  0.3210510E+03  0.7546771E-02  0.1075167E+00
         21   -1    0    0  502  501  0.00000000000E+00  0.00000000000E+00  0.12720449952E+03  0.12720449952E+03  0.00000000000E+00 0. -1.
         21   -1    0    0  504  502 -0.00000000000E+00 -0.00000000000E+00 -0.13557953262E+04  0.13557953262E+04  0.00000000000E+00 0. -1.
         25    1    1    2    0    0 -0.13726805957E+02 -0.32324565638E+03 -0.20340662140E+03  0.40208883745E+03  0.12500000000E+03 0.  0.
         21    1    1    2  503  501  0.54445205336E+01  0.33452042015E+02 -0.33250910659E+02  0.47479521675E+02  0.00000000000E+00 0. -1.
         21    1    1    2  504  503  0.82822854229E+01  0.28979361437E+03 -0.99193329467E+03  0.10334314666E+04  0.00000000000E+00 0. -1.
<mgrwt>
<rscale>  4 0.32105096E+03</rscale>
<asrwt>0</asrwt>
<pdfrwt beam="1">  1       21 0.19569923E-01 0.32105096E+03</pdfrwt>
<pdfrwt beam="2">  1       21 0.20858390E+00 0.32105096E+03</pdfrwt>
<totfact> 0.25723492E+03</totfact>
</mgrwt>
</event>
<event>
 5    0  0.1911311E+001  0.1823513E+03  0.7546771E-02  0.1165547E+00
         21   -1    0    0  502  501  0.00000000000E+00  0.00000000000E+00  0.18024992322E+03  0.18024992322E+03  0.00000000000E+00 0. -1.
         21   -1    0    0  504  502 -0.00000000000E+00 -0.00000000000E+00 -0.42095338959E+03  0.42095338959E+03  0.00000000000E+00 0. -1.
         25    1    1    2    0    0 -0.81939106445E+02 -0.18425836807E+03 -0.71846406161E+02  0.24789527920E+03  0.12500000000E+03 0.  0.
         21    1    1    2  503  501 -0.12691156319E+02  0.10617512115E+03  0.37432010799E+02  0.11329332387E+03  0.00000000000E+00 0. -1.
         21    1    1    2  504  503  0.94630262765E+02  0.78083246919E+02 -0.20628907100E+03  0.24001470975E+03  0.00000000000E+00 0. -1.
<mgrwt>
<rscale>  4 0.18235132E+03</rscale>
<asrwt>0</asrwt>
<pdfrwt beam="1">  1       21 0.27730758E-01 0.18235132E+03</pdfrwt>
<pdfrwt beam="2">  1       21 0.64762059E-01 0.18235132E+03</pdfrwt>
<totfact> 0.27427315E+04</totfact>
</mgrwt>
</event>
<event>
 5    0  0.1911311E+001  0.3032078E+03  0.7546771E-02  0.1083648E+00
         21   -1    0    0  504  501  0.00000000000E+00  0.00000000000E+00  0.30667955977E+03  0.30667955977E+03  0.00000000000E+00 0.  1.
         21   -1    0    0  503  502 -0.00000000000E+00 -0.00000000000E+00 -0.91528126919E+03  0.91528126919E+03  0.00000000000E+00 0. -1.
         25    1    1    2    0    0 -0.16906616006E+02  0.24946670134E+03 -0.76557253631E+03  0.81501274658E+03  0.12500000000E+03 0.  0.
         21    1    1    2  503  501  0.34013774971E+00  0.28594988640E+02 -0.51577739609E+02  0.58975014135E+02  0.00000000000E+00 0. -1.
         21    1    1    2  504  502  0.16566478256E+02 -0.27806168998E+03  0.20854856649E+03  0.34797306825E+03  0.00000000000E+00 0.  1.
<mgrwt>
<rscale>  4 0.30320783E+03</rscale>
<asrwt>0</asrwt>
<pdfrwt beam="1">  1       21 0.47181471E-01 0.30320783E+03</pdfrwt>
<pdfrwt beam="2">  1       21 0.14081250E+00 0.30320783E+03</pdfrwt>
<totfact> 0.13879801E+03</totfact>
</mgrwt>
</event>
<event>
 5    0  0.1911311E+001  0.2291407E+03  0.7546771E-02  0.1127246E+00
         21   -1    0    0  502  501  0.00000000000E+00  0.00000000000E+00  0.21416673650E+03  0.21416673650E+03  0.00000000000E+00 0.  1.
         21   -1    0    0  504  502 -0.00000000000E+00 -0.00000000000E+00 -0.32597031256E+03  0.32597031256E+03  0.00000000000E+00 0.  1.
         25    1    1    2    0    0  0.20976543267E+03  0.23571093775E+02 -0.12808113414E+03  0.27674340124E+03  0.12500000000E+03 0.  0.
         21    1    1    2  503  501 -0.16230340157E+03 -0.71841360770E+02 -0.31858473534E+02  0.18032897053E+03  0.00000000000E+00 0.  1.
         21    1    1    2  504  503 -0.47462031108E+02  0.48270266995E+02  0.48136031615E+02  0.83064677284E+02  0.00000000000E+00 0.  1.
<mgrwt>
<rscale>  4 0.22914074E+03</rscale>
<asrwt>0</asrwt>
<pdfrwt beam="1">  1       21 0.32948729E-01 0.22914074E+03</pdfrwt>
<pdfrwt beam="2">  1       21 0.50149279E-01 0.22914074E+03</pdfrwt>
<totfact> 0.32957295E+04</totfact>
</mgrwt>
</event>
