<event>
 5    0  0.1856407E+000  0.2376149E+03  0.7546771E-02  0.1121392E+00
         21   -1    0    0  502  501  0.00000000000E+00  0.00000000000E+00  0.17481773513E+03  0.17481773513E+03  0.00000000000E+00 0.  1.
         21   -1    0    0  503  502 -0.00000000000E+00 -0.00000000000E+00 -0.64427333699E+03  0.64427333699E+03  0.00000000000E+00 0.  1.
         25    1    1    2    0    0 -0.15122188904E+03  0.13404402576E+03  0.61920211137E+02  0.24555034741E+03  0.12500000000E+03 0.  0.
         21    1    1    2  503  504  0.12987707495E+03 -0.10538894144E+03 -0.49524431168E+03  0.52272536941E+03  0.00000000000E+00 0.  1.
         21    1    1    2  504  501  0.21344814089E+02 -0.28655084326E+02 -0.36131501311E+02  0.50815355290E+02  0.00000000000E+00 0.  1.
<mgrwt>
<rscale>  4 0.23761494E+03</rscale>
<asrwt>0</asrwt>
<pdfrwt beam="1">  1       21 0.26895036E-01 0.23761494E+03</pdfrwt>
<pdfrwt beam="2">  1       21 0.99118975E-01 0.23761494E+03</pdfrwt>
<totfact> 0.10721818E+04</totfact>
</mgrwt>
</event>
<event>
 5    0  0.1856407E+000  0.4984518E+03  0.7546771E-02  0.1014619E+00
         21   -1    0    0  502  501  0.00000000000E+00  0.00000000000E+00  0.86198764533E+03  0.86198764533E+03  0.00000000000E+00 0. -1.
         21   -1    0    0  503  502 -0.00000000000E+00 -0.00000000000E+00 -0.30362687607E+03  0.30362687607E+03  0.00000000000E+00 0. -1.
         25    1    1    2    0    0 -0.28611447647E+03  0.38005086980E+03  0.42396464845E+03  0.64936213350E+03  0.12500000000E+03 0.  0.
         21    1    1    2  503  504  0.55426634604E+02 -0.57060558800E+01 -0.23321535669E+01  0.55768358748E+02  0.00000000000E+00 0. -1.
         21    1    1    2  504  501  0.23068784187E+03 -0.37434481392E+03  0.13672827436E+03  0.46048402915E+03  0.00000000000E+00 0. -1.
<mgrwt>
<rscale>  4 0.49679534E+03</rscale>
<asrwt>0</asrwt>
<pdfrwt beam="1">  1       21 0.13261348E+00 0.49845181E+03</pdfrwt>
<pdfrwt beam="2">  1       21 0.46711827E-01 0.49845181E+03</pdfrwt>
<totfact> 0.15130664E+03</totfact>
</mgrwt>
</event>
<event>
 5    0  0.1856407E+000  0.2776773E+03  0.7546771E-02  0.1096964E+00
         21   -1    0    0  502  501  0.00000000000E+00  0.00000000000E+00  0.94948164481E+03  0.94948164481E+03  0.00000000000E+00 0. -1.
         21   -1    0    0  503  502 -0.00000000000E+00 -0.00000000000E+00 -0.27819849352E+03  0.27819849352E+03  0.00000000000E+00 0.  1.
         25    1    1    2    0    0  0.16736785476E+03  0.18378100265E+03  0.85205235705E+03  0.89632899925E+03  0.12500000000E+03 0.  0.
         21    1    1    2  503  504 -0.18360382149E+03 -0.15886893862E+03 -0.17884206849E+03  0.30155296116E+03  0.00000000000E+00 0.  1.
         21    1    1    2  504  501  0.16235966730E+02 -0.24912064031E+02 -0.19271372635E+01  0.29798177930E+02  0.00000000000E+00 0.  1.
<mgrwt>
<rscale>  4 0.27767726E+03</rscale>
<asrwt>0</asrwt>
<pdfrwt beam="1">  1       21 0.14607410E+00 0.27767726E+03</pdfrwt>
<pdfrwt beam="2">  1       21 0.42799769E-01 0.27767726E+03</pdfrwt>
<totfact> 0.15679976E+03</totfact>
</mgrwt>
</event>
<event>
 5    0  0.1856407E+000  0.2420593E+03  0.7546771E-02  0.1118429E+00
         21   -1    0    0  502  501  0.00000000000E+00  0.00000000000E+00  0.90015837893E+02  0.90015837893E+02  0.00000000000E+00 0. -1.
         21   -1    0    0  503  502 -0.00000000000E+00 -0.00000000000E+00 -0.11759284825E+04  0.11759284825E+04  0.00000000000E+00 0. -1.
         25    1    1    2    0    0  0.21618277095E+03  0.10520387707E+02 -0.14916718720E+03  0.29106961152E+03  0.12500000000E+03 0.  0.
         21    1    1    2  503  504 -0.18260961241E+03 -0.50058843806E+02 -0.49304885445E+03  0.52815654049E+03  0.00000000000E+00 0. -1.
         21    1    1    2  504  501 -0.33573158538E+02  0.39538456099E+02 -0.44369660296E+03  0.44671816839E+03  0.00000000000E+00 0. -1.
<mgrwt>
<rscale>  4 0.24205934E+03</rscale>
<asrwt>0</asrwt>
<pdfrwt beam="1">  1       21 0.13848591E-01 0.24205934E+03</pdfrwt>
<pdfrwt beam="2">  1       21 0.18091206E+00 0.24205934E+03</pdfrwt>
<totfact> 0.78327476E+03</totfact>
</mgrwt>
</event>
<event>
 5    0  0.1856407E+000  0.2289935E+03  0.7546771E-02  0.1127350E+00
         21   -1    0    0  502  501  0.00000000000E+00  0.00000000000E+00  0.50312508586E+03  0.50312508586E+03  0.00000000000E+00 0. -1.
         21   -1    0    0  503  502 -0.00000000000E+00 -0.00000000000E+00 -0.44113726488E+03  0.44113726488E+03  0.00000000000E+00 0.  1.
         25    1    1    2    0    0  0.43833695633E+02 -0.20506208443E+03  0.43519041650E+03  0.49898652282E+03  0.12500000000E+03 0.  0.
         21    1    1    2  503  504 -0.10741692787E+02  0.16943494330E+02  0.57823764898E+01  0.20878262425E+02  0.00000000000E+00 0.  1.
         21    1    1    2  504  501 -0.33092002847E+02  0.18811859010E+03 -0.37898497201E+03  0.42439756550E+03  0.00000000000E+00 0.  1.
<mgrwt>
<rscale>  4 0.22899352E+03</rscale>
<asrwt>0</asrwt>
<pdfrwt beam="1">  1       21 0.77403859E-01 0.22899352E+03</pdfrwt>
<pdfrwt beam="2">  1       21 0.67867272E-01 0.22899352E+03</pdfrwt>
<totfact> 0.28533068E+03</totfact>
</mgrwt>
</event>
<event>
 5    0  0.1856407E+000  0.3033164E+03  0.7546771E-02  0.1083594E+00
         21   -1    0    0  502  501  0.00000000000E+00  0.00000000000E+00  0.26589824728E+03  0.26589824728E+03  0.00000000000E+00 0.  1.
         21   -1    0    0  503  502 -0.00000000000E+00 -0.00000000000E+00 -0.64270940547E+03  0.64270940547E+03  0.00000000000E+00 0.  1.
         25    1    1    2    0    0  0.70475387587E+02 -0.26722473764E+03  0.12952173156E+03  0.32981315863E+03  0.12500000000E+03 0.  0.
         21    1    1    2  503  504 -0.55902377108E+02  0.25075487836E+03 -0.48048813151E+03  0.54485955008E+03  0.00000000000E+00 0.  1.
         21    1    1    2  504  501 -0.14573010479E+02  0.16469859276E+02 -0.25844758243E+02  0.33934944050E+02  0.00000000000E+00 0. -1.
<mgrwt>
<rscale>  4 0.30331640E+03</rscale>
<asrwt>0</asrwt>
<pdfrwt beam="1">  1       21 0.40907423E-01 0.30331640E+03</pdfrwt>
<pdfrwt beam="2">  1       21 0.98878370E-01 0.30331640E+03</pdfrwt>
<totfact> 0.45173674E+03</totfact>
</mgrwt>
</event>
<event>
 5    0  0.1856407E+000  0.2451041E+03  0.7546771E-02  0.1116439E+00
         21   -1    0    0  502  501  0.00000000000E+00  0.00000000000E+00  0.46779768838E+03  0.46779768838E+03  0.00000000000E+00 0.  1.
         21   -1    0    0  503  502 -0.00000000000E+00 -0.00000000000E+00 -0.13342653170E+03  0.13342653170E+03  0.00000000000E+00 0.  1.
         25    1    1    2    0    0  0.16153996069E+03 -0.13548387672E+03  0.29190322380E+03  0.38116076899E+03  0.12500000000E+03 0.  0.
         21    1    1    2  503  504 -0.11308216150E+03  0.85198144770E+02  0.70479399557E+01  0.14176026446E+03  0.00000000000E+00 0.  1.
         21    1    1    2  504  501 -0.48457799190E+02  0.50285731946E+02  0.35419992925E+02  0.78303186644E+02  0.00000000000E+00 0. -1.
<mgrwt>
<rscale>  4 0.24510414E+03</rscale>
<asrwt>0</asrwt>
<pdfrwt beam="1">  1       21 0.71968874E-01 0.24510414E+03</pdfrwt>
<pdfrwt beam="2">  1       21 0.20527159E-01 0.24510414E+03</pdfrwt>
<totfact> 0.37349150E+04</totfact>
</mgrwt>
</event>
<event>
 5    0  0.1856407E+000  0.3391132E+03  0.7546771E-02  0.1067174E+00
         21   -1    0    0  502  501  0.00000000000E+00  0.00000000000E+00  0.62980700988E+03  0.62980700988E+03  0.00000000000E+00 0. -1.
         21   -1    0    0  503  502 -0.00000000000E+00 -0.00000000000E+00 -0.34346916984E+03  0.34346916984E+03  0.00000000000E+00 0. -1.
         25    1    1    2    0    0 -0.73471717544E+02 -0.30655287797E+03  0.48882649692E+03  0.59493621874E+03  0.12500000000E+03 0.  0.
         21    1    1    2  503  504 -0.58338638801E+01  0.61681436300E+02 -0.33549028048E+02  0.70456872162E+02  0.00000000000E+00 0. -1.
         21    1    1    2  504  501  0.79305581424E+02  0.24487144167E+03 -0.16893962883E+03  0.30788308882E+03  0.00000000000E+00 0. -1.
<mgrwt>
<rscale>  4 0.33911320E+03</rscale>
<asrwt>0</asrwt>
<pdfrwt beam="1">  1       21 0.96893386E-01 0.33911320E+03</pdfrwt>
<pdfrwt beam="2">  1       21 0.52841411E-01 0.33911320E+03</pdfrwt>
<totfact> 0.27277512E+03</totfact>
</mgrwt>
</event>
<event>
 5    0  0.1856407E+000  0.2778503E+03  0.7546771E-02  0.1096869E+00
         21   -1    0    0  502  501  0.00000000000E+00  0.00000000000E+00  0.30577885611E+03  0.30577885611E+03  0.00000000000E+00 0.  1.
         21   -1    0    0  503  502 -0.00000000000E+00 -0.00000000000E+00 -0.85649517164E+03  0.85649517164E+03  0.00000000000E+00 0.  1.
         25    1    1    2    0    0 -0.52912601400E+02 -0.23858375171E+03  0.20221739320E+03  0.34093815287E+03  0.12500000000E+03 0.  0.
         21    1    1    2  503  504  0.54906034701E+02  0.28059422717E+03 -0.66513006296E+03  0.72397913894E+03  0.00000000000E+00 0.  1.
         21    1    1    2  504  501 -0.19934333003E+01 -0.42010475458E+02 -0.87803645767E+02  0.97356735949E+02  0.00000000000E+00 0.  1.
<mgrwt>
<rscale>  4 0.27785029E+03</rscale>
<asrwt>0</asrwt>
<pdfrwt beam="1">  1       21 0.47042901E-01 0.27785029E+03</pdfrwt>
<pdfrwt beam="2">  1       21 0.13176849E+00 0.27785029E+03</pdfrwt>
<totfact> 0.16864024E+03</totfact>
</mgrwt>
</event>
<event>
 5    0  0.1856407E+000  0.2433583E+03  0.7546771E-02  0.1117576E+00
         21   -1    0    0  502  501  0.00000000000E+00  0.00000000000E+00  0.71638349736E+03  0.71638349736E+03  0.00000000000E+00 0. -1.
         21   -1    0    0  503  502 -0.00000000000E+00 -0.00000000000E+00 -0.83970880271E+02  0.83970880271E+02  0.00000000000E+00 0. -1.
         25    1    1    2    0    0  0.20116461965E+03  0.55955910346E+02  0.22582788689E+03  0.33199623883E+03  0.12500000000E+03 0.  0.
         21    1    1    2  503  504 -0.11897659933E+03 -0.82885687012E+02  0.27517225588E+03  0.31103896653E+03  0.00000000000E+00 0. -1.
         21    1    1    2  504  501 -0.82188020319E+02  0.26929776666E+02  0.13141247432E+03  0.15731917227E+03  0.00000000000E+00 0. -1.
<mgrwt>
<rscale>  4 0.24335831E+03</rscale>
<asrwt>0</asrwt>
<pdfrwt beam="1">  1       21 0.11021284E+00 0.24335831E+03</pdfrwt>
<pdfrwt beam="2">  1       21 0.12918597E-01 0.24335831E+03</pdfrwt>
<totfact> 0.32536045E+04</totfact>
</mgrwt>
</event>
<event>
 5    0  0.1856407E+000  0.2500594E+03  0.7546771E-02  0.1113267E+00
         21   -1    0    0  502  501  0.00000000000E+00  0.00000000000E+00  0.35763508761E+03  0.35763508761E+03  0.00000000000E+00 0. -1.
         21   -1    0    0  503  502 -0.00000000000E+00 -0.00000000000E+00 -0.18542253989E+03  0.18542253989E+03  0.00000000000E+00 0. -1.
         25    1    1    2    0    0 -0.59739871553E+02  0.20817261128E+03 -0.15845564829E+02  0.25056091129E+03  0.12500000000E+03 0.  0.
         21    1    1    2  503  504 -0.22517326308E+00 -0.38042467476E+02  0.60859742812E+02  0.71771779480E+02  0.00000000000E+00 0. -1.
         21    1    1    2  504  501  0.59965044816E+02 -0.17013014380E+03  0.12719836974E+03  0.22072493673E+03  0.00000000000E+00 0. -1.
<mgrwt>
<rscale>  4 0.25005937E+03</rscale>
<asrwt>0</asrwt>
<pdfrwt beam="1">  1       21 0.55020783E-01 0.25005937E+03</pdfrwt>
<pdfrwt beam="2">  1       21 0.28526545E-01 0.25005937E+03</pdfrwt>
<totfact> 0.35626655E+04</totfact>
</mgrwt>
</event>
<event>
 5    0  0.2485146E+000  0.3316364E+03  0.7546771E-02  0.1070415E+00
         21   -1    0    0  502  501  0.00000000000E+00  0.00000000000E+00  0.10011428318E+03  0.10011428318E+03  0.00000000000E+00 0.  1.
         21   -1    0    0  503  502 -0.00000000000E+00 -0.00000000000E+00 -0.10422274286E+04  0.10422274286E+04  0.00000000000E+00 0.  1.
         25    1    1    2    0    0  0.30299042648E+03  0.50542163749E+02 -0.53922553417E+03  0.63304572153E+03  0.12500000000E+03 0.  0.
         21    1    1    2  503  504 -0.34916034381E+02  0.47481769152E+01 -0.27419892062E+02  0.44648909523E+02  0.00000000000E+00 0.  1.
         21    1    1    2  504  501 -0.26807439210E+03 -0.55290340665E+02 -0.37546771918E+03  0.46464708071E+03  0.00000000000E+00 0.  1.
<mgrwt>
<rscale>  4 0.33163641E+03</rscale>
<asrwt>0</asrwt>
<pdfrwt beam="1">  1       21 0.15402198E-01 0.33163641E+03</pdfrwt>
<pdfrwt beam="2">  1       21 0.16034268E+00 0.33163641E+03</pdfrwt>
<totfact> 0.85973479E+03</totfact>
</mgrwt>
</event>
<event>
 5    0  0.1856407E+000  0.2431599E+03  0.7546771E-02  0.1117706E+00
         21   -1    0    0  502  501  0.00000000000E+00  0.00000000000E+00  0.49076456766E+03  0.49076456766E+03  0.00000000000E+00 0.  1.
         21   -1    0    0  503  502 -0.00000000000E+00 -0.00000000000E+00 -0.11953129822E+03  0.11953129822E+03  0.00000000000E+00 0.  1.
         25    1    1    2    0    0  0.19462532217E+03 -0.74984701988E+02  0.29373681765E+03  0.38132406114E+03  0.12500000000E+03 0.  0.
         21    1    1    2  503  504 -0.53231776198E+02  0.30492452633E+02  0.47865235447E+02  0.77810618999E+02  0.00000000000E+00 0.  1.
         21    1    1    2  504  501 -0.14139354597E+03  0.44492249355E+02  0.29631216346E+02  0.15116118575E+03  0.00000000000E+00 0.  1.
<mgrwt>
<rscale>  4 0.24315987E+03</rscale>
<asrwt>0</asrwt>
<pdfrwt beam="1">  1       21 0.75502240E-01 0.24315987E+03</pdfrwt>
<pdfrwt beam="2">  1       21 0.18389431E-01 0.24315987E+03</pdfrwt>
<totfact> 0.41256196E+04</totfact>
</mgrwt>
</event>
<event>
 5    0  0.1856407E+000  0.2369670E+03  0.7546771E-02  0.1121830E+00
         21   -1    0    0  502  501  0.00000000000E+00  0.00000000000E+00  0.34297270393E+03  0.34297270393E+03  0.00000000000E+00 0. -1.
         21   -1    0    0  503  502 -0.00000000000E+00 -0.00000000000E+00 -0.15472669106E+03  0.15472669106E+03  0.00000000000E+00 0.  1.
         25    1    1    2    0    0 -0.27065836355E+02  0.19948888503E+03  0.14590933491E+03  0.27828566036E+03  0.12500000000E+03 0.  0.
         21    1    1    2  503  504  0.37345498058E+02 -0.54414870153E+02  0.32707344472E+02  0.73657550200E+02  0.00000000000E+00 0.  1.
         21    1    1    2  504  501 -0.10279661704E+02 -0.14507401488E+03  0.96293334846E+01  0.14575618443E+03  0.00000000000E+00 0.  1.
<mgrwt>
<rscale>  4 0.23696703E+03</rscale>
<asrwt>0</asrwt>
<pdfrwt beam="1">  1       21 0.52765031E-01 0.23696703E+03</pdfrwt>
<pdfrwt beam="2">  1       21 0.23804106E-01 0.23696703E+03</pdfrwt>
<totfact> 0.55500534E+04</totfact>
</mgrwt>
</event>
