<event>
 5    0  0.1911311E+001  0.3856396E+03  0.7546771E-02  0.1048869E+00
         21   -1    0    0  502  501  0.00000000000E+00  0.00000000000E+00  0.92990790124E+03  0.92990790124E+03  0.00000000000E+00 0.  1.
         21   -1    0    0  504  502 -0.00000000000E+00 -0.00000000000E+00 -0.28147027865E+03  0.28147027865E+03  0.00000000000E+00 0. -1.
         25    1    1    2    0    0  0.34153461261E+03  0.99902672862E+02  0.44476806902E+03  0.58315527167E+03  0.12500000000E+03 0.  0.
         21    1    1    2  503  501  0.17233677906E+02 -0.19004361194E+02  0.25552453207E+03  0.25680917408E+03  0.00000000000E+00 0. -1.
         21    1    1    2  504  503 -0.35876829052E+03 -0.80898311669E+02 -0.51854978503E+02  0.37141373414E+03  0.00000000000E+00 0. -1.
<mgrwt>
<rscale>  4 0.38563956E+03</rscale>
<asrwt>0</asrwt>
<pdfrwt beam="1">  1       21 0.14306275E+00 0.38563956E+03</pdfrwt>
<pdfrwt beam="2">  1       21 0.43303120E-01 0.38563956E+03</pdfrwt>
<totfact> 0.15209308E+03</totfact>
</mgrwt>
</event>
<event>
 5    0  0.1911311E+001  0.7007021E+03  0.7546771E-02  0.9716032E-01
         21   -1    0    0  503  501  0.00000000000E+00  0.00000000000E+00  0.15865712812E+04  0.15865712812E+04  0.00000000000E+00 0. -1.
         21   -1    0    0  501  502 -0.00000000000E+00 -0.00000000000E+00 -0.38294790811E+03  0.38294790811E+03  0.00000000000E+00 0. -1.
         25    1    1    2    0    0 -0.39538742973E+03 -0.60393903946E+03  0.75916129418E+03  0.10549997410E+04  0.12500000000E+03 0.  0.
         21    1    1    2  503  504  0.34905912125E+03  0.57440329823E+03  0.25771862421E+03  0.71986131193E+03  0.00000000000E+00 0. -1.
         21    1    1    2  504  502  0.46328308487E+02  0.29535741229E+02  0.18674345469E+03  0.19465813634E+03  0.00000000000E+00 0. -1.
<mgrwt>
<rscale>  4 0.70070212E+03</rscale>
<asrwt>0</asrwt>
<pdfrwt beam="1">  1       21 0.24408788E+00 0.70070212E+03</pdfrwt>
<pdfrwt beam="2">  1       21 0.58915064E-01 0.70070212E+03</pdfrwt>
<totfact> 0.13751528E+02</totfact>
</mgrwt>
</event>
<event>
 5    0  0.1911311E+001  0.2927847E+03  0.7546771E-02  0.1088904E+00
         21   -1    0    0  504  501  0.00000000000E+00  0.00000000000E+00  0.13659382037E+04  0.13659382037E+04  0.00000000000E+00 0.  1.
         21   -1    0    0  503  502 -0.00000000000E+00 -0.00000000000E+00 -0.15397017156E+03  0.15397017156E+03  0.00000000000E+00 0.  1.
         25    1    1    2    0    0  0.21357272957E+03 -0.19838997082E+03  0.93817696008E+02  0.33075466954E+03  0.12500000000E+03 0.  0.
         21    1    1    2  503  501 -0.57920103229E+02 -0.12169448404E+02  0.23595993398E+02  0.63715027560E+02  0.00000000000E+00 0.  1.
         21    1    1    2  504  502 -0.15565262634E+03  0.21055941923E+03  0.10945543427E+04  0.11254386781E+04  0.00000000000E+00 0.  1.
<mgrwt>
<rscale>  4 0.29278469E+03</rscale>
<asrwt>0</asrwt>
<pdfrwt beam="1">  1       21 0.21014433E+00 0.29278469E+03</pdfrwt>
<pdfrwt beam="2">  1       21 0.23687720E-01 0.29278469E+03</pdfrwt>
<totfact> 0.17809863E+03</totfact>
</mgrwt>
</event>
<event>
 5    0  0.2211649E+001  0.2306844E+03  0.7546771E-02  0.1126159E+00
         21   -1    0    0  502  501  0.00000000000E+00  0.00000000000E+00  0.27066994948E+03  0.27066994948E+03  0.00000000000E+00 0.  1.
         21   -1    0    0  504  502 -0.00000000000E+00 -0.00000000000E+00 -0.28008173535E+03  0.28008173535E+03  0.00000000000E+00 0.  1.
         25    1    1    2    0    0 -0.19464458853E+03 -0.64955686568E+02 -0.12769124507E+03  0.27209522438E+03  0.12500000000E+03 0.  0.
         21    1    1    2  503  501  0.27571724419E+02  0.33978484583E+01  0.95132459342E+02  0.99105651615E+02  0.00000000000E+00 0.  1.
         21    1    1    2  504  503  0.16707286411E+03  0.61557838110E+02  0.23146999856E+02  0.17955080884E+03  0.00000000000E+00 0.  1.
<mgrwt>
<rscale>  4 0.23068443E+03</rscale>
<asrwt>0</asrwt>
<pdfrwt beam="1">  1       21 0.41641531E-01 0.23068443E+03</pdfrwt>
<pdfrwt beam="2">  1       21 0.43089498E-01 0.23068443E+03</pdfrwt>
<totfact> 0.28180798E+04</totfact>
</mgrwt>
</event>
