<event>
 5    0  0.2159162E+000  0.2517839E+03  0.7546771E-02  0.1112183E+00
         21   -1    0    0  502  501  0.00000000000E+00  0.00000000000E+00  0.92506131013E+02  0.92506131013E+02  0.00000000000E+00 0.  1.
         21   -1    0    0  503  502 -0.00000000000E+00 -0.00000000000E+00 -0.16564510334E+04  0.16564510334E+04  0.00000000000E+00 0.  1.
         25    1    1    2    0    0 -0.11548645604E+03  0.18556127921E+03 -0.10428912201E+03  0.27252766986E+03  0.12500000000E+03 0.  0.
         21    1    1    2  503  504  0.89375527507E+02 -0.16809418164E+03 -0.12698642244E+04  0.12840556013E+04  0.00000000000E+00 0.  1.
         21    1    1    2  504  501  0.26110928531E+02 -0.17467097566E+02 -0.18979155603E+03  0.19237389330E+03  0.00000000000E+00 0.  1.
<mgrwt>
<rscale>  4 0.25178386E+03</rscale>
<asrwt>0</asrwt>
<pdfrwt beam="1">  1       21 0.14231712E-01 0.25178386E+03</pdfrwt>
<pdfrwt beam="2">  1       21 0.25483863E+00 0.25178386E+03</pdfrwt>
<totfact> 0.25343383E+03</totfact>
</mgrwt>
</event>
<event>
 5    0  0.2159162E+000  0.3032459E+03  0.7546771E-02  0.1083629E+00
         21   -1    0    0  502  501  0.00000000000E+00  0.00000000000E+00  0.22386160362E+03  0.22386160362E+03  0.00000000000E+00 0.  1.
         21   -1    0    0  503  502 -0.00000000000E+00 -0.00000000000E+00 -0.43620571056E+03  0.43620571056E+03  0.00000000000E+00 0. -1.
         25    1    1    2    0    0 -0.15191616578E+03  0.24392538131E+03 -0.88097732857E+02  0.32552161773E+03  0.12500000000E+03 0.  0.
         21    1    1    2  503  504  0.28897120451E+02 -0.67199425389E+01 -0.48421460950E+02  0.56787666607E+02  0.00000000000E+00 0.  1.
         21    1    1    2  504  501  0.12301904533E+03 -0.23720543877E+03 -0.75824913128E+02  0.27775802985E+03  0.00000000000E+00 0. -1.
<mgrwt>
<rscale>  4 0.30324585E+03</rscale>
<asrwt>0</asrwt>
<pdfrwt beam="1">  1       21 0.34440247E-01 0.30324585E+03</pdfrwt>
<pdfrwt beam="2">  1       21 0.67108571E-01 0.30324585E+03</pdfrwt>
<totfact> 0.15599723E+04</totfact>
</mgrwt>
</event>
<event>
 5    0  0.2159162E+000  0.2815041E+03  0.7546771E-02  0.1094870E+00
         21   -1    0    0  502  501  0.00000000000E+00  0.00000000000E+00  0.17042934628E+03  0.17042934628E+03  0.00000000000E+00 0.  1.
         21   -1    0    0  503  502 -0.00000000000E+00 -0.00000000000E+00 -0.13485423394E+04  0.13485423394E+04  0.00000000000E+00 0.  1.
         25    1    1    2    0    0  0.10716749092E+03 -0.23261093216E+03  0.23548284335E+02  0.28595845602E+03  0.12500000000E+03 0.  0.
         21    1    1    2  503  504 -0.96911991833E+02  0.20525598961E+03 -0.83852482805E+03  0.86870354131E+03  0.00000000000E+00 0.  1.
         21    1    1    2  504  501 -0.10255499090E+02  0.27354942557E+02 -0.36313644936E+03  0.36430968831E+03  0.00000000000E+00 0.  1.
<mgrwt>
<rscale>  4 0.28150408E+03</rscale>
<asrwt>0</asrwt>
<pdfrwt beam="1">  1       21 0.26219899E-01 0.28150408E+03</pdfrwt>
<pdfrwt beam="2">  1       21 0.20746806E+00 0.28150408E+03</pdfrwt>
<totfact> 0.15356926E+03</totfact>
</mgrwt>
</event>
<event>
 5    0  0.2159162E+000  0.3409913E+03  0.7546771E-02  0.1066375E+00
         21   -1    0    0  502  501  0.00000000000E+00  0.00000000000E+00  0.50748668640E+03  0.50748668640E+03  0.00000000000E+00 0.  1.
         21   -1    0    0  503  502 -0.00000000000E+00 -0.00000000000E+00 -0.33484119699E+03  0.33484119699E+03  0.00000000000E+00 0.  1.
         25    1    1    2    0    0 -0.15343099801E+03 -0.29623954497E+03  0.30748303751E+03  0.47060573467E+03  0.12500000000E+03 0.  0.
         21    1    1    2  503  504  0.16066309491E+02  0.14880277070E+02  0.13007473649E+02  0.25470440064E+02  0.00000000000E+00 0.  1.
         21    1    1    2  504  501  0.13736468851E+03  0.28135926790E+03 -0.14784502175E+03  0.34625170864E+03  0.00000000000E+00 0.  1.
<mgrwt>
<rscale>  4 0.34099127E+03</rscale>
<asrwt>0</asrwt>
<pdfrwt beam="1">  1       21 0.78074875E-01 0.34099127E+03</pdfrwt>
<pdfrwt beam="2">  1       21 0.51514030E-01 0.34099127E+03</pdfrwt>
<totfact> 0.47634875E+03</totfact>
</mgrwt>
</event>
<event>
 5    0  0.2159162E+000  0.2516706E+03  0.7546771E-02  0.1112254E+00
         21   -1    0    0  502  501  0.00000000000E+00  0.00000000000E+00  0.96519171352E+03  0.96519171352E+03  0.00000000000E+00 0. -1.
         21   -1    0    0  503  502 -0.00000000000E+00 -0.00000000000E+00 -0.96376944678E+02  0.96376944678E+02  0.00000000000E+00 0. -1.
         25    1    1    2    0    0 -0.22376028199E+03 -0.27238734044E+02  0.65937089693E+03  0.70795875032E+03  0.12500000000E+03 0.  0.
         21    1    1    2  503  504  0.20821365439E+03 -0.33648988766E+02  0.19886688030E+03  0.28988483299E+03  0.00000000000E+00 0. -1.
         21    1    1    2  504  501  0.15546627599E+02  0.60887722810E+02  0.10576991615E+02  0.63725074895E+02  0.00000000000E+00 0. -1.
<mgrwt>
<rscale>  4 0.25167057E+03</rscale>
<asrwt>0</asrwt>
<pdfrwt beam="1">  1       21 0.14849103E+00 0.25167057E+03</pdfrwt>
<pdfrwt beam="2">  1       21 0.14827223E-01 0.25167057E+03</pdfrwt>
<totfact> 0.11826885E+04</totfact>
</mgrwt>
</event>
<event>
 5    0  0.2159162E+000  0.2611380E+03  0.7546771E-02  0.1106461E+00
         21   -1    0    0  502  501  0.00000000000E+00  0.00000000000E+00  0.50896281601E+02  0.50896281601E+02  0.00000000000E+00 0.  1.
         21   -1    0    0  503  502 -0.00000000000E+00 -0.00000000000E+00 -0.12307532601E+04  0.12307532601E+04  0.00000000000E+00 0. -1.
         25    1    1    2    0    0 -0.60422472977E+02  0.22117229371E+03 -0.51065234366E+03  0.57354936564E+03  0.12500000000E+03 0.  0.
         21    1    1    2  503  504  0.76405646226E+01 -0.23879415737E+02 -0.47519369530E+02  0.53727974131E+02  0.00000000000E+00 0.  1.
         21    1    1    2  504  501  0.52781908354E+02 -0.19729287798E+03 -0.62168526533E+03  0.65437220194E+03  0.00000000000E+00 0. -1.
<mgrwt>
<rscale>  4 0.26113801E+03</rscale>
<asrwt>0</asrwt>
<pdfrwt beam="1">  1       21 0.78301981E-02 0.26113801E+03</pdfrwt>
<pdfrwt beam="2">  1       21 0.18934663E+00 0.26113801E+03</pdfrwt>
<totfact> 0.18756581E+04</totfact>
</mgrwt>
</event>
<event>
 5    0  0.2159162E+000  0.3700115E+03  0.7546771E-02  0.1054689E+00
         21   -1    0    0  502  501  0.00000000000E+00  0.00000000000E+00  0.10037643018E+04  0.10037643018E+04  0.00000000000E+00 0.  1.
         21   -1    0    0  503  502 -0.00000000000E+00 -0.00000000000E+00 -0.13609924969E+03  0.13609924969E+03  0.00000000000E+00 0.  1.
         25    1    1    2    0    0 -0.19332031964E+02  0.34772089259E+03  0.41353838048E+03  0.55490768488E+03  0.12500000000E+03 0.  0.
         21    1    1    2  503  504  0.41389891582E+01 -0.14230594297E+03  0.95639978061E+02  0.17150836143E+03  0.00000000000E+00 0.  1.
         21    1    1    2  504  501  0.15193042805E+02 -0.20541494963E+03  0.35848669355E+03  0.41344750517E+03  0.00000000000E+00 0.  1.
<mgrwt>
<rscale>  4 0.37001155E+03</rscale>
<asrwt>0</asrwt>
<pdfrwt beam="1">  1       21 0.15442527E+00 0.37001155E+03</pdfrwt>
<pdfrwt beam="2">  1       21 0.20938347E-01 0.37001155E+03</pdfrwt>
<totfact> 0.52687975E+03</totfact>
</mgrwt>
</event>
<event>
 5    0  0.8370680E+000  0.2835213E+03  0.7546771E-02  0.1093781E+00
         21   -1    0    0  502  501  0.00000000000E+00  0.00000000000E+00  0.40357294197E+03  0.40357294197E+03  0.00000000000E+00 0.  1.
         21   -1    0    0  503  502 -0.00000000000E+00 -0.00000000000E+00 -0.18265643695E+03  0.18265643695E+03  0.00000000000E+00 0.  1.
         25    1    1    2    0    0  0.25424622570E+02 -0.25320533244E+03  0.11139723600E+03  0.30462057711E+03  0.12500000000E+03 0.  0.
         21    1    1    2  503  504  0.79194478931E+01  0.49809275294E+02  0.39044514277E+02  0.63782095100E+02  0.00000000000E+00 0. -1.
         21    1    1    2  504  501 -0.33344070463E+02  0.20339605715E+03  0.70474754747E+02  0.21782670671E+03  0.00000000000E+00 0.  1.
<mgrwt>
<rscale>  4 0.28352134E+03</rscale>
<asrwt>0</asrwt>
<pdfrwt beam="1">  1       21 0.62088145E-01 0.28352134E+03</pdfrwt>
<pdfrwt beam="2">  1       21 0.28100990E-01 0.28352134E+03</pdfrwt>
<totfact> 0.27888508E+04</totfact>
</mgrwt>
</event>
