<event>
 5    0  0.2349231E+000  0.8566574E+03  0.7546771E-02  0.9481445E-01
         21   -1    0    0  504  501  0.00000000000E+00  0.00000000000E+00  0.23678333151E+03  0.23678333151E+03  0.00000000000E+00 0.  1.
         21   -1    0    0  501  502 -0.00000000000E+00 -0.00000000000E+00 -0.88089938197E+03  0.88089938197E+03  0.00000000000E+00 0.  1.
         25    1    1    2    0    0 -0.56786442906E+02 -0.40424227249E+03 -0.13537911834E+03  0.44787165645E+03  0.12500000000E+03 0.  0.
         21    1    1    2  503  502  0.62205282406E+02  0.35694254157E+03 -0.50570523643E+03  0.62210550656E+03  0.00000000000E+00 0.  1.
         21    1    1    2  504  503 -0.54188395005E+01  0.47299730921E+02 -0.30316956846E+01  0.47705550468E+02  0.00000000000E+00 0. -1.
<mgrwt>
<rscale>  4 0.85665745E+03</rscale>
<asrwt>0</asrwt>
<pdfrwt beam="1">  1       21 0.36428205E-01 0.85665745E+03</pdfrwt>
<pdfrwt beam="2">  1       21 0.13552298E+00 0.85665745E+03</pdfrwt>
<totfact> 0.21866928E+03</totfact>
</mgrwt>
</event>
<event>
 5    0  0.2668187E+000  0.4181239E+03  0.7546771E-02  0.1037679E+00
         21   -1    0    0  503  501  0.00000000000E+00  0.00000000000E+00  0.69210522081E+02  0.69210522081E+02  0.00000000000E+00 0.  1.
         21   -1    0    0  504  502 -0.00000000000E+00 -0.00000000000E+00 -0.14820855022E+04  0.14820855022E+04  0.00000000000E+00 0.  1.
         25    1    1    2    0    0  0.41827804299E+02  0.25242746797E+03 -0.84546040784E+03  0.89213087214E+03  0.12500000000E+03 0.  0.
         21    1    1    2  503  502 -0.91622484366E+02 -0.20113319778E+03 -0.53842394414E+03  0.58202198113E+03  0.00000000000E+00 0.  1.
         21    1    1    2  504  501  0.49794680067E+02 -0.51294270189E+02 -0.28990628171E+02  0.77143171045E+02  0.00000000000E+00 0. -1.
<mgrwt>
<rscale>  4 0.41812385E+03</rscale>
<asrwt>0</asrwt>
<pdfrwt beam="1">  1       21 0.10647772E-01 0.41812385E+03</pdfrwt>
<pdfrwt beam="2">  1       21 0.22801316E+00 0.41812385E+03</pdfrwt>
<totfact> 0.56505496E+03</totfact>
</mgrwt>
</event>
<event>
 5    0  0.2349231E+000  0.4394301E+03  0.7546771E-02  0.1030922E+00
         21   -1    0    0  504  501  0.00000000000E+00  0.00000000000E+00  0.43371049572E+03  0.43371049572E+03  0.00000000000E+00 0. -1.
         21   -1    0    0  503  502 -0.00000000000E+00 -0.00000000000E+00 -0.27150759735E+04  0.27150759735E+04  0.00000000000E+00 0.  1.
         25    1    1    2    0    0 -0.23754890951E+03 -0.11916813162E+03 -0.13467476570E+04  0.13783993542E+04  0.12500000000E+03 0.  0.
         21    1    1    2  503  501  0.67474583514E+02  0.80751062142E+02 -0.13321492829E+04  0.13362990928E+04  0.00000000000E+00 0.  1.
         21    1    1    2  504  502  0.17007432600E+03  0.38417069476E+02  0.39753146218E+03  0.43408802219E+03  0.00000000000E+00 0. -1.
<mgrwt>
<rscale>  4 0.43943013E+03</rscale>
<asrwt>0</asrwt>
<pdfrwt beam="1">  1       21 0.66724689E-01 0.43943013E+03</pdfrwt>
<pdfrwt beam="2">  1       21 0.41770401E+00 0.43943013E+03</pdfrwt>
<totfact> 0.10054821E+01</totfact>
</mgrwt>
</event>
