<event>
 5    0  0.1324511E+000  0.7651545E+03  0.7546771E-02  0.9642602E-01
         21   -1    0    0  504  501  0.00000000000E+00  0.00000000000E+00  0.71601192338E+03  0.71601192338E+03  0.00000000000E+00 0. -1.
         21   -1    0    0  501  502 -0.00000000000E+00 -0.00000000000E+00 -0.81976002974E+03  0.81976002974E+03  0.00000000000E+00 0. -1.
         25    1    1    2    0    0 -0.66494085820E+03  0.13086053814E+03  0.19212067853E+03  0.71540630446E+03  0.12500000000E+03 0.  0.
         21    1    1    2  503  502  0.47606564178E+03  0.64941859720E+02 -0.25897212207E+03  0.54582277384E+03  0.00000000000E+00 0. -1.
         21    1    1    2  504  503  0.18887521642E+03 -0.19580239786E+03 -0.36896662828E+02  0.27454287482E+03  0.00000000000E+00 0.  1.
<mgrwt>
<rscale>  4 0.74539532E+03</rscale>
<asrwt>0</asrwt>
<pdfrwt beam="1">  1       21 0.11015568E+00 0.76515453E+03</pdfrwt>
<pdfrwt beam="2">  1       21 0.12611693E+00 0.76515453E+03</pdfrwt>
<totfact> 0.22232869E+02</totfact>
</mgrwt>
</event>
<event>
 5    0  0.1324511E+000  0.2491953E+03  0.7546771E-02  0.1113814E+00
         21   -1    0    0  504  501  0.00000000000E+00  0.00000000000E+00  0.10808553398E+04  0.10808553398E+04  0.00000000000E+00 0.  1.
         21   -1    0    0  501  502 -0.00000000000E+00 -0.00000000000E+00 -0.86891027065E+02  0.86891027065E+02  0.00000000000E+00 0.  1.
         25    1    1    2    0    0 -0.19997355406E+03  0.17176689609E+03  0.64158640550E+03  0.70480593402E+03  0.12500000000E+03 0.  0.
         21    1    1    2  503  502  0.13456885802E+03 -0.14985619566E+03  0.15587114367E+03  0.25467915179E+03  0.00000000000E+00 0.  1.
         21    1    1    2  504  503  0.65404696039E+02 -0.21910700429E+02  0.19650676353E+03  0.20826128102E+03  0.00000000000E+00 0.  1.
<mgrwt>
<rscale>  4 0.24919526E+03</rscale>
<asrwt>0</asrwt>
<pdfrwt beam="1">  1       21 0.16628543E+00 0.24919526E+03</pdfrwt>
<pdfrwt beam="2">  1       21 0.13367851E-01 0.24919526E+03</pdfrwt>
<totfact> 0.10532715E+04</totfact>
</mgrwt>
</event>
<event>
 5    0  0.1324511E+000  0.2273064E+03  0.7546771E-02  0.1128550E+00
         21   -1    0    0  504  501  0.00000000000E+00  0.00000000000E+00  0.14428654165E+03  0.14428654165E+03  0.00000000000E+00 0. -1.
         21   -1    0    0  501  502 -0.00000000000E+00 -0.00000000000E+00 -0.51307686099E+03  0.51307686099E+03  0.00000000000E+00 0. -1.
         25    1    1    2    0    0  0.26684912837E+02 -0.20264862366E+03 -0.34656467573E+03  0.42132009649E+03  0.12500000000E+03 0.  0.
         21    1    1    2  503  502 -0.51316133107E+02  0.17976668644E+03  0.12936940984E+02  0.18739469446E+03  0.00000000000E+00 0. -1.
         21    1    1    2  504  503  0.24631220270E+02  0.22881937222E+02 -0.35162584607E+02  0.48648611688E+02  0.00000000000E+00 0.  1.
<mgrwt>
<rscale>  4 0.22730637E+03</rscale>
<asrwt>0</asrwt>
<pdfrwt beam="1">  1       21 0.22197930E-01 0.22730637E+03</pdfrwt>
<pdfrwt beam="2">  1       21 0.78934901E-01 0.22730637E+03</pdfrwt>
<totfact> 0.26398377E+04</totfact>
</mgrwt>
</event>
<event>
 5    0  0.1324511E+000  0.2886316E+03  0.7546771E-02  0.1091066E+00
         21   -1    0    0  504  501  0.00000000000E+00  0.00000000000E+00  0.82436389151E+03  0.82436389151E+03  0.00000000000E+00 0. -1.
         21   -1    0    0  501  502 -0.00000000000E+00 -0.00000000000E+00 -0.18041692684E+03  0.18041692684E+03  0.00000000000E+00 0. -1.
         25    1    1    2    0    0  0.17089202725E+03  0.19616096385E+03 -0.14365756012E+02  0.28898889886E+03  0.12500000000E+03 0.  0.
         21    1    1    2  503  502 -0.12964672894E+03 -0.79277985242E+02  0.42908188206E+03  0.45519724821E+03  0.00000000000E+00 0. -1.
         21    1    1    2  504  503 -0.41245298304E+02 -0.11688297861E+03  0.22923083863E+03  0.26059467128E+03  0.00000000000E+00 0. -1.
<mgrwt>
<rscale>  4 0.28863161E+03</rscale>
<asrwt>0</asrwt>
<pdfrwt beam="1">  1       21 0.12682521E+00 0.28863161E+03</pdfrwt>
<pdfrwt beam="2">  1       21 0.27756451E-01 0.28863161E+03</pdfrwt>
<totfact> 0.53450642E+03</totfact>
</mgrwt>
</event>
<event>
 5    0  0.1324511E+000  0.2396507E+03  0.7546771E-02  0.1120026E+00
         21   -1    0    0  504  501  0.00000000000E+00  0.00000000000E+00  0.18146732829E+03  0.18146732829E+03  0.00000000000E+00 0. -1.
         21   -1    0    0  501  502 -0.00000000000E+00 -0.00000000000E+00 -0.37224189253E+03  0.37224189253E+03  0.00000000000E+00 0. -1.
         25    1    1    2    0    0 -0.23476827987E+02  0.20311641638E+03 -0.23171995188E+03  0.33335653009E+03  0.12500000000E+03 0.  0.
         21    1    1    2  503  502  0.41382487222E+02 -0.17400999178E+03  0.19300124871E+02  0.17990131269E+03  0.00000000000E+00 0. -1.
         21    1    1    2  504  503 -0.17905659235E+02 -0.29106424605E+02  0.21645262759E+02  0.40451378046E+02  0.00000000000E+00 0. -1.
<mgrwt>
<rscale>  4 0.23965066E+03</rscale>
<asrwt>0</asrwt>
<pdfrwt beam="1">  1       21 0.27918051E-01 0.23965066E+03</pdfrwt>
<pdfrwt beam="2">  1       21 0.57267983E-01 0.23965066E+03</pdfrwt>
<totfact> 0.34265523E+04</totfact>
</mgrwt>
</event>
<event>
 5    0  0.1324511E+000  0.2550176E+03  0.7546771E-02  0.1110174E+00
         21   -1    0    0  504  501  0.00000000000E+00  0.00000000000E+00  0.26709720401E+03  0.26709720401E+03  0.00000000000E+00 0. -1.
         21   -1    0    0  501  502 -0.00000000000E+00 -0.00000000000E+00 -0.74730627284E+03  0.74730627284E+03  0.00000000000E+00 0.  1.
         25    1    1    2    0    0 -0.18246207112E+03 -0.12695096972E+03 -0.66925141195E+03  0.71619229856E+03  0.12500000000E+03 0.  0.
         21    1    1    2  503  502  0.97416683881E+02  0.65157871111E+02  0.59674933207E+02  0.13151675224E+03  0.00000000000E+00 0.  1.
         21    1    1    2  504  503  0.85045387242E+02  0.61793098614E+02  0.12936740992E+03  0.16669442605E+03  0.00000000000E+00 0. -1.
<mgrwt>
<rscale>  4 0.25501756E+03</rscale>
<asrwt>0</asrwt>
<pdfrwt beam="1">  1       21 0.41091877E-01 0.25501756E+03</pdfrwt>
<pdfrwt beam="2">  1       21 0.11497020E+00 0.25501756E+03</pdfrwt>
<totfact> 0.31904602E+03</totfact>
</mgrwt>
</event>
<event>
 5    0  0.1324511E+000  0.2587017E+03  0.7546771E-02  0.1107926E+00
         21   -1    0    0  504  501  0.00000000000E+00  0.00000000000E+00  0.36593786406E+03  0.36593786406E+03  0.00000000000E+00 0.  1.
         21   -1    0    0  501  502 -0.00000000000E+00 -0.00000000000E+00 -0.84226326657E+03  0.84226326657E+03  0.00000000000E+00 0.  1.
         25    1    1    2    0    0  0.13322550952E+03 -0.18701383774E+03 -0.76454813699E+03  0.80801117917E+03  0.12500000000E+03 0.  0.
         21    1    1    2  503  502 -0.68723431026E+01  0.55107135154E+02 -0.38893563156E+01  0.55670032667E+02  0.00000000000E+00 0.  1.
         21    1    1    2  504  503 -0.12635316642E+03  0.13190670258E+03  0.29211209080E+03  0.34451991879E+03  0.00000000000E+00 0.  1.
<mgrwt>
<rscale>  4 0.25870167E+03</rscale>
<asrwt>0</asrwt>
<pdfrwt beam="1">  1       21 0.56298133E-01 0.25870167E+03</pdfrwt>
<pdfrwt beam="2">  1       21 0.12957896E+00 0.25870167E+03</pdfrwt>
<totfact> 0.12212229E+03</totfact>
</mgrwt>
</event>
<event>
 5    0  0.1324511E+000  0.3263812E+03  0.7546771E-02  0.1072749E+00
         21   -1    0    0  504  501  0.00000000000E+00  0.00000000000E+00  0.12847644069E+04  0.12847644069E+04  0.00000000000E+00 0.  1.
         21   -1    0    0  501  502 -0.00000000000E+00 -0.00000000000E+00 -0.10978506437E+03  0.10978506437E+03  0.00000000000E+00 0. -1.
         25    1    1    2    0    0 -0.24115730550E+03 -0.18094984155E+03  0.22923887588E+03  0.39884226627E+03  0.12500000000E+03 0.  0.
         21    1    1    2  503  502  0.21717106634E+02  0.10613231171E+02  0.28739411503E+02  0.37552991491E+02  0.00000000000E+00 0.  1.
         21    1    1    2  504  503  0.21944019886E+03  0.17033661038E+03  0.91700105519E+03  0.95815421355E+03  0.00000000000E+00 0.  1.
<mgrwt>
<rscale>  4 0.32638121E+03</rscale>
<asrwt>0</asrwt>
<pdfrwt beam="1">  1       21 0.19765605E+00 0.32638121E+03</pdfrwt>
<pdfrwt beam="2">  1       21 0.16890011E-01 0.32638121E+03</pdfrwt>
<totfact> 0.39817364E+03</totfact>
</mgrwt>
</event>
<event>
 5    0  0.1324511E+000  0.2483996E+03  0.7546771E-02  0.1114320E+00
         21   -1    0    0  504  501  0.00000000000E+00  0.00000000000E+00  0.27928560888E+03  0.27928560888E+03  0.00000000000E+00 0.  1.
         21   -1    0    0  501  502 -0.00000000000E+00 -0.00000000000E+00 -0.31316845263E+03  0.31316845263E+03  0.00000000000E+00 0. -1.
         25    1    1    2    0    0  0.11751743493E+03  0.17963022842E+03 -0.19154891788E+03  0.31367714997E+03  0.12500000000E+03 0.  0.
         21    1    1    2  503  502 -0.64040893735E+02 -0.44280963906E+02  0.24789942700E+02  0.81710348756E+02  0.00000000000E+00 0. -1.
         21    1    1    2  504  503 -0.53476541192E+02 -0.13534926451E+03  0.13287613143E+03  0.19706656278E+03  0.00000000000E+00 0.  1.
<mgrwt>
<rscale>  4 0.24839961E+03</rscale>
<asrwt>0</asrwt>
<pdfrwt beam="1">  1       21 0.42967017E-01 0.24839961E+03</pdfrwt>
<pdfrwt beam="2">  1       21 0.48179762E-01 0.24839961E+03</pdfrwt>
<totfact> 0.20801114E+04</totfact>
</mgrwt>
</event>
<event>
 5    0  0.1324511E+000  0.3757177E+03  0.7546771E-02  0.1052528E+00
         21   -1    0    0  504  501  0.00000000000E+00  0.00000000000E+00  0.33824360765E+03  0.33824360765E+03  0.00000000000E+00 0.  1.
         21   -1    0    0  501  502 -0.00000000000E+00 -0.00000000000E+00 -0.40950154732E+03  0.40950154732E+03  0.00000000000E+00 0.  1.
         25    1    1    2    0    0  0.32680859079E+03  0.13687570581E+03  0.25377357706E+02  0.37657379641E+03  0.12500000000E+03 0.  0.
         21    1    1    2  503  502 -0.29139143851E+03 -0.11576623080E+03 -0.67619508723E+02  0.32075409365E+03  0.00000000000E+00 0.  1.
         21    1    1    2  504  503 -0.35417152280E+02 -0.21109475006E+02 -0.29015788648E+02  0.50417264915E+02  0.00000000000E+00 0.  1.
<mgrwt>
<rscale>  4 0.37571773E+03</rscale>
<asrwt>0</asrwt>
<pdfrwt beam="1">  1       21 0.52037478E-01 0.37571773E+03</pdfrwt>
<pdfrwt beam="2">  1       21 0.63000238E-01 0.37571773E+03</pdfrwt>
<totfact> 0.74347025E+03</totfact>
</mgrwt>
</event>
<event>
 5    0  0.1324511E+000  0.2425718E+03  0.7546771E-02  0.1118091E+00
         21   -1    0    0  504  501  0.00000000000E+00  0.00000000000E+00  0.47055422428E+02  0.47055422428E+02  0.00000000000E+00 0.  1.
         21   -1    0    0  501  502 -0.00000000000E+00 -0.00000000000E+00 -0.11987307084E+04  0.11987307084E+04  0.00000000000E+00 0.  1.
         25    1    1    2    0    0 -0.15257716751E+03 -0.14119592647E+03 -0.46404370952E+03  0.52361975330E+03  0.12500000000E+03 0.  0.
         21    1    1    2  503  502 -0.23115647222E+01  0.28613585084E+02 -0.10649571189E+03  0.11029695025E+03  0.00000000000E+00 0.  1.
         21    1    1    2  504  503  0.15488873223E+03  0.11258234139E+03 -0.58113586458E+03  0.61186942731E+03  0.00000000000E+00 0.  1.
<mgrwt>
<rscale>  4 0.24257181E+03</rscale>
<asrwt>0</asrwt>
<pdfrwt beam="1">  1       21 0.72392959E-02 0.24257181E+03</pdfrwt>
<pdfrwt beam="2">  1       21 0.18442011E+00 0.24257181E+03</pdfrwt>
<totfact> 0.23464948E+04</totfact>
</mgrwt>
</event>
<event>
 5    0  0.1324511E+000  0.2375457E+03  0.7546771E-02  0.1121439E+00
         21   -1    0    0  504  501  0.00000000000E+00  0.00000000000E+00  0.17442668583E+03  0.17442668583E+03  0.00000000000E+00 0. -1.
         21   -1    0    0  501  502 -0.00000000000E+00 -0.00000000000E+00 -0.30103454773E+03  0.30103454773E+03  0.00000000000E+00 0. -1.
         25    1    1    2    0    0 -0.20115276821E+03 -0.18453861050E+02 -0.12029158549E+03  0.26626687117E+03  0.12500000000E+03 0.  0.
         21    1    1    2  503  502  0.17590068394E+03  0.22681293887E+02 -0.22690706369E+02  0.17880257229E+03  0.00000000000E+00 0. -1.
         21    1    1    2  504  503  0.25252084272E+02 -0.42274328376E+01  0.16374429953E+02  0.30391790088E+02  0.00000000000E+00 0.  1.
<mgrwt>
<rscale>  4 0.23754575E+03</rscale>
<asrwt>0</asrwt>
<pdfrwt beam="1">  1       21 0.26834875E-01 0.23754575E+03</pdfrwt>
<pdfrwt beam="2">  1       21 0.46313007E-01 0.23754575E+03</pdfrwt>
<totfact> 0.57909644E+04</totfact>
</mgrwt>
</event>
<event>
 5    0  0.1324511E+000  0.3027544E+03  0.7546771E-02  0.1083872E+00
         21   -1    0    0  504  501  0.00000000000E+00  0.00000000000E+00  0.19513920578E+03  0.19513920578E+03  0.00000000000E+00 0.  1.
         21   -1    0    0  501  502 -0.00000000000E+00 -0.00000000000E+00 -0.78207548763E+03  0.78207548763E+03  0.00000000000E+00 0. -1.
         25    1    1    2    0    0 -0.10617985899E+03 -0.25509053740E+03 -0.58795735044E+03  0.66156193259E+03  0.12500000000E+03 0.  0.
         21    1    1    2  503  502  0.13928608129E+03  0.23775044681E+03  0.14490108300E+02  0.27592725606E+03  0.00000000000E+00 0.  1.
         21    1    1    2  504  503 -0.33106222306E+02  0.17340090595E+02 -0.13469039715E+02  0.39725504756E+02  0.00000000000E+00 0.  1.
<mgrwt>
<rscale>  4 0.30275440E+03</rscale>
<asrwt>0</asrwt>
<pdfrwt beam="1">  1       21 0.30021416E-01 0.30275440E+03</pdfrwt>
<pdfrwt beam="2">  1       21 0.12031931E+00 0.30275440E+03</pdfrwt>
<totfact> 0.51979862E+03</totfact>
</mgrwt>
</event>
<event>
 5    0  0.1324511E+000  0.2405292E+03  0.7546771E-02  0.1119441E+00
         21   -1    0    0  504  501  0.00000000000E+00  0.00000000000E+00  0.31994648750E+03  0.31994648750E+03  0.00000000000E+00 0. -1.
         21   -1    0    0  501  502 -0.00000000000E+00 -0.00000000000E+00 -0.26907740957E+03  0.26907740957E+03  0.00000000000E+00 0. -1.
         25    1    1    2    0    0 -0.19941306895E+03  0.49635921064E+02 -0.15320062393E+03  0.28517490756E+03  0.12500000000E+03 0.  0.
         21    1    1    2  503  502  0.11364449737E+03 -0.21650076792E+02  0.51572398899E+02  0.12666297776E+03  0.00000000000E+00 0. -1.
         21    1    1    2  504  503  0.85768571584E+02 -0.27985844273E+02  0.15249730296E+03  0.17718601175E+03  0.00000000000E+00 0. -1.
<mgrwt>
<rscale>  4 0.24052920E+03</rscale>
<asrwt>0</asrwt>
<pdfrwt beam="1">  1       21 0.49222537E-01 0.24052920E+03</pdfrwt>
<pdfrwt beam="2">  1       21 0.41396525E-01 0.24052920E+03</pdfrwt>
<totfact> 0.21548578E+04</totfact>
</mgrwt>
</event>
<event>
 5    0  0.1324511E+000  0.2536160E+03  0.7546771E-02  0.1111041E+00
         21   -1    0    0  504  501  0.00000000000E+00  0.00000000000E+00  0.15736849383E+03  0.15736849383E+03  0.00000000000E+00 0.  1.
         21   -1    0    0  501  502 -0.00000000000E+00 -0.00000000000E+00 -0.43222072455E+03  0.43222072455E+03  0.00000000000E+00 0.  1.
         25    1    1    2    0    0 -0.10465023779E+03  0.20584621474E+03 -0.21612761428E+03  0.34008893255E+03  0.12500000000E+03 0.  0.
         21    1    1    2  503  502  0.18487928682E+02 -0.76603429640E+01 -0.22956702549E+02  0.30454795242E+02  0.00000000000E+00 0. -1.
         21    1    1    2  504  503  0.86162309104E+02 -0.19818587177E+03 -0.35767913891E+02  0.21904549058E+03  0.00000000000E+00 0.  1.
<mgrwt>
<rscale>  4 0.25361597E+03</rscale>
<asrwt>0</asrwt>
<pdfrwt beam="1">  1       21 0.24210538E-01 0.25361597E+03</pdfrwt>
<pdfrwt beam="2">  1       21 0.66495495E-01 0.25361597E+03</pdfrwt>
<totfact> 0.32409111E+04</totfact>
</mgrwt>
</event>
<event>
 5    0  0.1324511E+000  0.2748492E+03  0.7546771E-02  0.1098536E+00
         21   -1    0    0  504  501  0.00000000000E+00  0.00000000000E+00  0.86078496070E+02  0.86078496070E+02  0.00000000000E+00 0. -1.
         21   -1    0    0  501  502 -0.00000000000E+00 -0.00000000000E+00 -0.81642544076E+03  0.81642544076E+03  0.00000000000E+00 0. -1.
         25    1    1    2    0    0  0.21980644613E+03 -0.10771366365E+03 -0.45819317419E+03  0.53430617812E+03  0.12500000000E+03 0.  0.
         21    1    1    2  503  502 -0.25123383352E+02  0.69765183129E+01 -0.14211007750E+02  0.29695267975E+02  0.00000000000E+00 0. -1.
         21    1    1    2  504  503 -0.19468306278E+03  0.10073714534E+03 -0.25794276274E+03  0.33850249074E+03  0.00000000000E+00 0. -1.
<mgrwt>
<rscale>  4 0.27484924E+03</rscale>
<asrwt>0</asrwt>
<pdfrwt beam="1">  1       21 0.13242846E-01 0.27484924E+03</pdfrwt>
<pdfrwt beam="2">  1       21 0.12560391E+00 0.27484924E+03</pdfrwt>
<totfact> 0.22155286E+04</totfact>
</mgrwt>
</event>
<event>
 5    0  0.1324511E+000  0.2810486E+03  0.7546771E-02  0.1095118E+00
         21   -1    0    0  504  501  0.00000000000E+00  0.00000000000E+00  0.55902745092E+02  0.55902745092E+02  0.00000000000E+00 0. -1.
         21   -1    0    0  501  502 -0.00000000000E+00 -0.00000000000E+00 -0.23645528983E+04  0.23645528983E+04  0.00000000000E+00 0. -1.
         25    1    1    2    0    0  0.55039112078E+02  0.32443949333E+03 -0.13535506608E+04  0.13985759472E+04  0.12500000000E+03 0.  0.
         21    1    1    2  503  502 -0.19616635251E+02 -0.10078871048E+03 -0.53377190222E+03  0.54355829507E+03  0.00000000000E+00 0. -1.
         21    1    1    2  504  503 -0.35422476827E+02 -0.22365078285E+03 -0.42132759017E+03  0.47832140112E+03  0.00000000000E+00 0. -1.
<mgrwt>
<rscale>  4 0.28104857E+03</rscale>
<asrwt>0</asrwt>
<pdfrwt beam="1">  1       21 0.86004210E-02 0.28104857E+03</pdfrwt>
<pdfrwt beam="2">  1       21 0.36377743E+00 0.28104857E+03</pdfrwt>
<totfact> 0.13791098E+03</totfact>
</mgrwt>
</event>
<event>
 5    0  0.1324511E+000  0.2734892E+03  0.7546771E-02  0.1099299E+00
         21   -1    0    0  504  501  0.00000000000E+00  0.00000000000E+00  0.68893974786E+03  0.68893974786E+03  0.00000000000E+00 0. -1.
         21   -1    0    0  501  502 -0.00000000000E+00 -0.00000000000E+00 -0.10566623854E+03  0.10566623854E+03  0.00000000000E+00 0. -1.
         25    1    1    2    0    0 -0.40283599428E+02 -0.23989285543E+03  0.40991297643E+03  0.49277276580E+03  0.12500000000E+03 0.  0.
         21    1    1    2  503  502  0.23842551963E+02  0.21603460392E+03  0.16021941717E+03  0.27001792351E+03  0.00000000000E+00 0. -1.
         21    1    1    2  504  503  0.16441047464E+02  0.23858251504E+02  0.13141115723E+02  0.31815297091E+02  0.00000000000E+00 0.  1.
<mgrwt>
<rscale>  4 0.27348921E+03</rscale>
<asrwt>0</asrwt>
<pdfrwt beam="1">  1       21 0.10599073E+00 0.27348921E+03</pdfrwt>
<pdfrwt beam="2">  1       21 0.16256345E-01 0.27348921E+03</pdfrwt>
<totfact> 0.23183697E+04</totfact>
</mgrwt>
</event>
<event>
 5    0  0.1324511E+000  0.3896383E+03  0.7546771E-02  0.1047428E+00
         21   -1    0    0  504  501  0.00000000000E+00  0.00000000000E+00  0.10275352811E+04  0.10275352811E+04  0.00000000000E+00 0.  1.
         21   -1    0    0  501  502 -0.00000000000E+00 -0.00000000000E+00 -0.14721497648E+03  0.14721497648E+03  0.00000000000E+00 0.  1.
         25    1    1    2    0    0  0.16738096551E+03 -0.32890213918E+03  0.42396501016E+03  0.57581623337E+03  0.12500000000E+03 0.  0.
         21    1    1    2  503  502 -0.30725441978E+02  0.78508439425E+02  0.19336560452E+03  0.21094521766E+03  0.00000000000E+00 0.  1.
         21    1    1    2  504  503 -0.13665552354E+03  0.25039369976E+03  0.26298968999E+03  0.38798880658E+03  0.00000000000E+00 0.  1.
<mgrwt>
<rscale>  4 0.38963830E+03</rscale>
<asrwt>0</asrwt>
<pdfrwt beam="1">  1       21 0.15808235E+00 0.38963830E+03</pdfrwt>
<pdfrwt beam="2">  1       21 0.22648458E-01 0.38963830E+03</pdfrwt>
<totfact> 0.42161198E+03</totfact>
</mgrwt>
</event>
<event>
 5    0  0.1324511E+000  0.2774174E+03  0.7546771E-02  0.1097108E+00
         21   -1    0    0  504  501  0.00000000000E+00  0.00000000000E+00  0.10353852477E+04  0.10353852477E+04  0.00000000000E+00 0.  1.
         21   -1    0    0  501  502 -0.00000000000E+00 -0.00000000000E+00 -0.95083609424E+02  0.95083609424E+02  0.00000000000E+00 0. -1.
         25    1    1    2    0    0  0.21241654880E+03  0.12733670656E+03  0.18397403002E+03  0.33287665998E+03  0.12500000000E+03 0.  0.
         21    1    1    2  503  502 -0.69158264613E+02 -0.63524299963E+02  0.23108198352E+03  0.24943352894E+03  0.00000000000E+00 0.  1.
         21    1    1    2  504  503 -0.14325828418E+03 -0.63812406592E+02  0.52524562471E+03  0.54815866817E+03  0.00000000000E+00 0.  1.
<mgrwt>
<rscale>  4 0.27741742E+03</rscale>
<asrwt>0</asrwt>
<pdfrwt beam="1">  1       21 0.15929003E+00 0.27741742E+03</pdfrwt>
<pdfrwt beam="2">  1       21 0.14628248E-01 0.27741742E+03</pdfrwt>
<totfact> 0.98918304E+03</totfact>
</mgrwt>
</event>
<event>
 5    0  0.1324511E+000  0.2848113E+03  0.7546771E-02  0.1093090E+00
         21   -1    0    0  504  501  0.00000000000E+00  0.00000000000E+00  0.70942285253E+03  0.70942285253E+03  0.00000000000E+00 0. -1.
         21   -1    0    0  501  502 -0.00000000000E+00 -0.00000000000E+00 -0.12214445377E+03  0.12214445377E+03  0.00000000000E+00 0. -1.
         25    1    1    2    0    0  0.51526943886E+02 -0.24794421181E+03  0.37446818375E+03  0.46902321772E+03  0.12500000000E+03 0.  0.
         21    1    1    2  503  502  0.32487800165E+02  0.10944290335E+01  0.19011164889E+02  0.37657394027E+02  0.00000000000E+00 0. -1.
         21    1    1    2  504  503 -0.84014744051E+02  0.24684978277E+03  0.19379905011E+03  0.32488669455E+03  0.00000000000E+00 0. -1.
<mgrwt>
<rscale>  4 0.28481126E+03</rscale>
<asrwt>0</asrwt>
<pdfrwt beam="1">  1       21 0.10914198E+00 0.28481126E+03</pdfrwt>
<pdfrwt beam="2">  1       21 0.18791455E-01 0.28481126E+03</pdfrwt>
<totfact> 0.16400841E+04</totfact>
</mgrwt>
</event>
<event>
 5    0  0.1324511E+000  0.3328005E+03  0.7546771E-02  0.1069904E+00
         21   -1    0    0  504  501  0.00000000000E+00  0.00000000000E+00  0.85282389266E+03  0.85282389266E+03  0.00000000000E+00 0.  1.
         21   -1    0    0  501  502 -0.00000000000E+00 -0.00000000000E+00 -0.38613719454E+03  0.38613719454E+03  0.00000000000E+00 0. -1.
         25    1    1    2    0    0  0.12694210996E+03  0.28109945650E+03 -0.27659004002E+03  0.43273346758E+03  0.12500000000E+03 0.  0.
         21    1    1    2  503  502 -0.12592566630E+03 -0.23904337011E+03  0.64870663716E+03  0.70272278128E+03  0.00000000000E+00 0.  1.
         21    1    1    2  504  503 -0.10164436589E+01 -0.42056086394E+02  0.94570100976E+02  0.10350483834E+03  0.00000000000E+00 0. -1.
<mgrwt>
<rscale>  4 0.33280055E+03</rscale>
<asrwt>0</asrwt>
<pdfrwt beam="1">  1       21 0.13120368E+00 0.33280055E+03</pdfrwt>
<pdfrwt beam="2">  1       21 0.59405723E-01 0.33280055E+03</pdfrwt>
<totfact> 0.10029222E+03</totfact>
</mgrwt>
</event>
<event>
 5    0  0.1324511E+000  0.3085406E+03  0.7546771E-02  0.1081048E+00
         21   -1    0    0  504  501  0.00000000000E+00  0.00000000000E+00  0.75603757852E+03  0.75603757852E+03  0.00000000000E+00 0.  1.
         21   -1    0    0  501  502 -0.00000000000E+00 -0.00000000000E+00 -0.77352476954E+03  0.77352476954E+03  0.00000000000E+00 0. -1.
         25    1    1    2    0    0 -0.14531520328E+03  0.24390540559E+03 -0.68456052917E+03  0.75156800974E+03  0.12500000000E+03 0.  0.
         21    1    1    2  503  502  0.87183120291E+02  0.73529975818E+01  0.33049910892E+02  0.93526785719E+02  0.00000000000E+00 0.  1.
         21    1    1    2  504  503  0.58132082986E+02 -0.25125840317E+03  0.63402342726E+03  0.68446755260E+03  0.00000000000E+00 0.  1.
<mgrwt>
<rscale>  4 0.30854059E+03</rscale>
<asrwt>0</asrwt>
<pdfrwt beam="1">  1       21 0.11631347E+00 0.30854059E+03</pdfrwt>
<pdfrwt beam="2">  1       21 0.11900381E+00 0.30854059E+03</pdfrwt>
<totfact> 0.27545399E+02</totfact>
</mgrwt>
</event>
<event>
 5    0  0.1324511E+000  0.2806010E+03  0.7546771E-02  0.1095361E+00
         21   -1    0    0  504  501  0.00000000000E+00  0.00000000000E+00  0.25186395402E+03  0.25186395402E+03  0.00000000000E+00 0.  1.
         21   -1    0    0  501  502 -0.00000000000E+00 -0.00000000000E+00 -0.49951555856E+03  0.49951555856E+03  0.00000000000E+00 0.  1.
         25    1    1    2    0    0  0.13001180621E+03  0.21496245099E+03 -0.36234905046E+03  0.45829440260E+03  0.12500000000E+03 0.  0.
         21    1    1    2  503  502 -0.89574101963E+02 -0.17928360190E+03  0.12766206054E+03  0.23762098256E+03  0.00000000000E+00 0.  1.
         21    1    1    2  504  503 -0.40437704249E+02 -0.35678849086E+02 -0.12964614617E+02  0.55464127409E+02  0.00000000000E+00 0. -1.
<mgrwt>
<rscale>  4 0.28060101E+03</rscale>
<asrwt>0</asrwt>
<pdfrwt beam="1">  1       21 0.38748301E-01 0.28060101E+03</pdfrwt>
<pdfrwt beam="2">  1       21 0.76848546E-01 0.28060101E+03</pdfrwt>
<totfact> 0.91746661E+03</totfact>
</mgrwt>
</event>
<event>
 5    0  0.1324511E+000  0.2723986E+03  0.7546771E-02  0.1099915E+00
         21   -1    0    0  504  501  0.00000000000E+00  0.00000000000E+00  0.13731533997E+04  0.13731533997E+04  0.00000000000E+00 0. -1.
         21   -1    0    0  501  502 -0.00000000000E+00 -0.00000000000E+00 -0.46229861586E+03  0.46229861586E+03  0.00000000000E+00 0. -1.
         25    1    1    2    0    0  0.14942297135E+03 -0.19039108583E+03 -0.40943294097E+03  0.49176856659E+03  0.12500000000E+03 0.  0.
         21    1    1    2  503  502 -0.13003614720E+03  0.18248292096E+03  0.12622470822E+04  0.12819817131E+04  0.00000000000E+00 0. -1.
         21    1    1    2  504  503 -0.19386824156E+02  0.79081648657E+01  0.58040642576E+02  0.61701735899E+02  0.00000000000E+00 0.  1.
<mgrwt>
<rscale>  4 0.27239859E+03</rscale>
<asrwt>0</asrwt>
<pdfrwt beam="1">  1       21 0.21125437E+00 0.27239859E+03</pdfrwt>
<pdfrwt beam="2">  1       21 0.71122865E-01 0.27239859E+03</pdfrwt>
<totfact> 0.18599212E+02</totfact>
</mgrwt>
</event>
<event>
 5    0  0.1324511E+000  0.2432130E+03  0.7546771E-02  0.1117671E+00
         21   -1    0    0  504  501  0.00000000000E+00  0.00000000000E+00  0.14120463363E+03  0.14120463363E+03  0.00000000000E+00 0. -1.
         21   -1    0    0  501  502 -0.00000000000E+00 -0.00000000000E+00 -0.62175492809E+03  0.62175492809E+03  0.00000000000E+00 0. -1.
         25    1    1    2    0    0  0.55173368792E+02  0.25068491135E+03 -0.16626468470E+03  0.33038760689E+03  0.12500000000E+03 0.  0.
         21    1    1    2  503  502 -0.15405905786E+02 -0.19224784920E+03 -0.30558063163E+03  0.36135315120E+03  0.00000000000E+00 0. -1.
         21    1    1    2  504  503 -0.39767463006E+02 -0.58437062153E+02 -0.87049781184E+01  0.71218803634E+02  0.00000000000E+00 0. -1.
<mgrwt>
<rscale>  4 0.24321302E+03</rscale>
<asrwt>0</asrwt>
<pdfrwt beam="1">  1       21 0.21723789E-01 0.24321302E+03</pdfrwt>
<pdfrwt beam="2">  1       21 0.95654606E-01 0.24321302E+03</pdfrwt>
<totfact> 0.17495480E+04</totfact>
</mgrwt>
</event>
<event>
 5    0  0.1324511E+000  0.3077632E+03  0.7546771E-02  0.1081423E+00
         21   -1    0    0  504  501  0.00000000000E+00  0.00000000000E+00  0.23298875657E+04  0.23298875657E+04  0.00000000000E+00 0. -1.
         21   -1    0    0  501  502 -0.00000000000E+00 -0.00000000000E+00 -0.31656935231E+03  0.31656935231E+03  0.00000000000E+00 0. -1.
         25    1    1    2    0    0 -0.97021415585E+02 -0.26303416014E+03 -0.21490938428E+03  0.37471478212E+03  0.12500000000E+03 0.  0.
         21    1    1    2  503  502  0.50999439893E+02  0.29279855990E+03  0.10237647328E+04  0.10660329111E+04  0.00000000000E+00 0. -1.
         21    1    1    2  504  503  0.46021975692E+02 -0.29764399760E+02  0.12044628649E+04  0.12057092248E+04  0.00000000000E+00 0. -1.
<mgrwt>
<rscale>  4 0.30776324E+03</rscale>
<asrwt>0</asrwt>
<pdfrwt beam="1">  1       21 0.35844423E+00 0.30776324E+03</pdfrwt>
<pdfrwt beam="2">  1       21 0.48702979E-01 0.30776324E+03</pdfrwt>
<totfact> 0.53276736E+01</totfact>
</mgrwt>
</event>
<event>
 5    0  0.1324511E+000  0.2887005E+03  0.7546771E-02  0.1091030E+00
         21   -1    0    0  504  501  0.00000000000E+00  0.00000000000E+00  0.67059154471E+03  0.67059154471E+03  0.00000000000E+00 0. -1.
         21   -1    0    0  501  502 -0.00000000000E+00 -0.00000000000E+00 -0.12869164508E+03  0.12869164508E+03  0.00000000000E+00 0. -1.
         25    1    1    2    0    0 -0.20481652175E+03 -0.16054029659E+03  0.15373048892E+03  0.32707958914E+03  0.12500000000E+03 0.  0.
         21    1    1    2  503  502  0.44753754428E+02  0.74539314199E+02  0.11638134739E+03  0.14527087085E+03  0.00000000000E+00 0. -1.
         21    1    1    2  504  503  0.16006276732E+03  0.86000982388E+02  0.27178806331E+03  0.32693272979E+03  0.00000000000E+00 0. -1.
<mgrwt>
<rscale>  4 0.28870053E+03</rscale>
<asrwt>0</asrwt>
<pdfrwt beam="1">  1       21 0.10316793E+00 0.28870053E+03</pdfrwt>
<pdfrwt beam="2">  1       21 0.19798715E-01 0.28870053E+03</pdfrwt>
<totfact> 0.17022533E+04</totfact>
</mgrwt>
</event>
<event>
 5    0  0.1324511E+000  0.3958029E+03  0.7546771E-02  0.1045243E+00
         21   -1    0    0  504  501  0.00000000000E+00  0.00000000000E+00  0.58322369644E+03  0.58322369644E+03  0.00000000000E+00 0.  1.
         21   -1    0    0  501  502 -0.00000000000E+00 -0.00000000000E+00 -0.28905026276E+03  0.28905026276E+03  0.00000000000E+00 0. -1.
         25    1    1    2    0    0 -0.31808228541E+03 -0.19964624006E+03  0.46130930689E+01  0.39582981455E+03  0.12500000000E+03 0.  0.
         21    1    1    2  503  502  0.29085270918E+03  0.17953439295E+03  0.24525872599E+03  0.42068959977E+03  0.00000000000E+00 0.  1.
         21    1    1    2  504  503  0.27229576231E+02  0.20111847108E+02  0.44301614622E+02  0.55754544872E+02  0.00000000000E+00 0.  1.
<mgrwt>
<rscale>  4 0.39580293E+03</rscale>
<asrwt>0</asrwt>
<pdfrwt beam="1">  1       21 0.89726722E-01 0.39580293E+03</pdfrwt>
<pdfrwt beam="2">  1       21 0.44469271E-01 0.39580293E+03</pdfrwt>
<totfact> 0.45950499E+03</totfact>
</mgrwt>
</event>
<event>
 5    0  0.1324511E+000  0.3252697E+03  0.7546771E-02  0.1073249E+00
         21   -1    0    0  504  501  0.00000000000E+00  0.00000000000E+00  0.37807780461E+03  0.37807780461E+03  0.00000000000E+00 0.  1.
         21   -1    0    0  501  502 -0.00000000000E+00 -0.00000000000E+00 -0.36010200530E+03  0.36010200530E+03  0.00000000000E+00 0.  1.
         25    1    1    2    0    0  0.34094766781E+02 -0.31685394580E+03 -0.13868857317E+03  0.36934861096E+03  0.12500000000E+03 0.  0.
         21    1    1    2  503  502 -0.26921699691E+02  0.29293580625E+03  0.17077709138E+03  0.34014846676E+03  0.00000000000E+00 0.  1.
         21    1    1    2  504  503 -0.71730670894E+01  0.23918139551E+02 -0.14112718910E+02  0.28682732194E+02  0.00000000000E+00 0.  1.
<mgrwt>
<rscale>  4 0.32526965E+03</rscale>
<asrwt>0</asrwt>
<pdfrwt beam="1">  1       21 0.58165816E-01 0.32526965E+03</pdfrwt>
<pdfrwt beam="2">  1       21 0.55400309E-01 0.32526965E+03</pdfrwt>
<totfact> 0.78987855E+03</totfact>
</mgrwt>
</event>
<event>
 5    0  0.1324511E+000  0.2561992E+03  0.7546771E-02  0.1109449E+00
         21   -1    0    0  504  501  0.00000000000E+00  0.00000000000E+00  0.42265740639E+03  0.42265740639E+03  0.00000000000E+00 0.  1.
         21   -1    0    0  501  502 -0.00000000000E+00 -0.00000000000E+00 -0.18798542976E+03  0.18798542976E+03  0.00000000000E+00 0.  1.
         25    1    1    2    0    0  0.22146863463E+03  0.31058868631E+02 -0.32351099787E+02  0.25823362117E+03  0.12500000000E+03 0.  0.
         21    1    1    2  503  502 -0.10240384929E+03  0.60536963941E+01  0.94101357207E+02  0.13920582250E+03  0.00000000000E+00 0.  1.
         21    1    1    2  504  503 -0.11906478534E+03 -0.37112565025E+02  0.17292171921E+03  0.21320339248E+03  0.00000000000E+00 0.  1.
<mgrwt>
<rscale>  4 0.25619916E+03</rscale>
<asrwt>0</asrwt>
<pdfrwt beam="1">  1       21 0.65024216E-01 0.25619916E+03</pdfrwt>
<pdfrwt beam="2">  1       21 0.28920836E-01 0.25619916E+03</pdfrwt>
<totfact> 0.24109782E+04</totfact>
</mgrwt>
</event>
<event>
 5    0  0.1324511E+000  0.2379469E+03  0.7546771E-02  0.1121168E+00
         21   -1    0    0  504  501  0.00000000000E+00  0.00000000000E+00  0.90798014546E+02  0.90798014546E+02  0.00000000000E+00 0. -1.
         21   -1    0    0  501  502 -0.00000000000E+00 -0.00000000000E+00 -0.98356496107E+03  0.98356496107E+03  0.00000000000E+00 0. -1.
         25    1    1    2    0    0  0.20313476285E+03 -0.36875740999E+02 -0.80260740708E+03  0.83810930197E+03  0.12500000000E+03 0.  0.
         21    1    1    2  503  502 -0.17037080986E+02  0.16058383114E+02 -0.33008040154E+02  0.40468067802E+02  0.00000000000E+00 0. -1.
         21    1    1    2  504  503 -0.18609768186E+03  0.20817357884E+02 -0.57151499286E+02  0.19578560584E+03  0.00000000000E+00 0. -1.
<mgrwt>
<rscale>  4 0.23794691E+03</rscale>
<asrwt>0</asrwt>
<pdfrwt beam="1">  1       21 0.13968924E-01 0.23794691E+03</pdfrwt>
<pdfrwt beam="2">  1       21 0.15131770E+00 0.23794691E+03</pdfrwt>
<totfact> 0.12644767E+04</totfact>
</mgrwt>
</event>
<event>
 5    0  0.1324511E+000  0.3196328E+03  0.7546771E-02  0.1075818E+00
         21   -1    0    0  504  501  0.00000000000E+00  0.00000000000E+00  0.78236000571E+03  0.78236000571E+03  0.00000000000E+00 0.  1.
         21   -1    0    0  501  502 -0.00000000000E+00 -0.00000000000E+00 -0.14803733568E+03  0.14803733568E+03  0.00000000000E+00 0.  1.
         25    1    1    2    0    0  0.27781930537E+03 -0.96729424027E+02  0.52259921711E+03  0.61259700426E+03  0.12500000000E+03 0.  0.
         21    1    1    2  503  502 -0.48191721953E+02  0.74116758470E+01  0.40897623896E+01  0.48929553034E+02  0.00000000000E+00 0. -1.
         21    1    1    2  504  503 -0.22962758342E+03  0.89317748180E+02  0.10763369053E+03  0.26887078410E+03  0.00000000000E+00 0.  1.
<mgrwt>
<rscale>  4 0.31963283E+03</rscale>
<asrwt>0</asrwt>
<pdfrwt beam="1">  1       21 0.12036308E+00 0.31963283E+03</pdfrwt>
<pdfrwt beam="2">  1       21 0.22774975E-01 0.31963283E+03</pdfrwt>
<totfact> 0.88046584E+03</totfact>
</mgrwt>
</event>
<event>
 5    0  0.1324511E+000  0.4070148E+03  0.7546771E-02  0.1041377E+00
         21   -1    0    0  504  501  0.00000000000E+00  0.00000000000E+00  0.37920296273E+03  0.37920296273E+03  0.00000000000E+00 0. -1.
         21   -1    0    0  501  502 -0.00000000000E+00 -0.00000000000E+00 -0.70642673956E+03  0.70642673956E+03  0.00000000000E+00 0. -1.
         25    1    1    2    0    0  0.16134871866E+03 -0.35214008304E+03 -0.51126807073E+03  0.65349528479E+03  0.12500000000E+03 0.  0.
         21    1    1    2  503  502 -0.13919258268E+03  0.33504589771E+03  0.17426835670E+03  0.40249197358E+03  0.00000000000E+00 0. -1.
         21    1    1    2  504  503 -0.22156135975E+02  0.17094185330E+02  0.97759372026E+01  0.29642443921E+02  0.00000000000E+00 0. -1.
<mgrwt>
<rscale>  4 0.40701480E+03</rscale>
<asrwt>0</asrwt>
<pdfrwt beam="1">  1       21 0.58338918E-01 0.40701480E+03</pdfrwt>
<pdfrwt beam="2">  1       21 0.10868104E+00 0.40701480E+03</pdfrwt>
<totfact> 0.16154438E+03</totfact>
</mgrwt>
</event>
<event>
 5    0  0.1324511E+000  0.2365752E+03  0.7546771E-02  0.1122096E+00
         21   -1    0    0  504  501  0.00000000000E+00  0.00000000000E+00  0.27358776914E+03  0.27358776914E+03  0.00000000000E+00 0. -1.
         21   -1    0    0  501  502 -0.00000000000E+00 -0.00000000000E+00 -0.26154372314E+03  0.26154372314E+03  0.00000000000E+00 0. -1.
         25    1    1    2    0    0 -0.14616056116E+03  0.13776763878E+03  0.15375591228E+03  0.28215015948E+03  0.12500000000E+03 0.  0.
         21    1    1    2  503  502  0.26678196891E+02 -0.26756931460E+02 -0.59132221988E+02  0.70173208903E+02  0.00000000000E+00 0.  1.
         21    1    1    2  504  503  0.11948236427E+03 -0.11101070732E+03 -0.82579644286E+02  0.18280812390E+03  0.00000000000E+00 0. -1.
<mgrwt>
<rscale>  4 0.23657521E+03</rscale>
<asrwt>0</asrwt>
<pdfrwt beam="1">  1       21 0.42090426E-01 0.23657521E+03</pdfrwt>
<pdfrwt beam="2">  1       21 0.40237496E-01 0.23657521E+03</pdfrwt>
<totfact> 0.31618498E+04</totfact>
</mgrwt>
</event>
<event>
 5    0  0.1324511E+000  0.2443790E+03  0.7546771E-02  0.1116910E+00
         21   -1    0    0  504  501  0.00000000000E+00  0.00000000000E+00  0.24938637987E+04  0.24938637987E+04  0.00000000000E+00 0.  1.
         21   -1    0    0  501  502 -0.00000000000E+00 -0.00000000000E+00 -0.33340953523E+02  0.33340953523E+02  0.00000000000E+00 0.  1.
         25    1    1    2    0    0  0.38323336339E+02 -0.21588557849E+03  0.60688912896E+03  0.65727823329E+03  0.12500000000E+03 0.  0.
         21    1    1    2  503  502  0.33153100910E+01  0.27662173816E+02  0.67965516830E+03  0.68022594404E+03  0.00000000000E+00 0.  1.
         21    1    1    2  504  503 -0.41638646430E+02  0.18822340467E+03  0.11739785479E+04  0.11897005749E+04  0.00000000000E+00 0.  1.
<mgrwt>
<rscale>  4 0.24437905E+03</rscale>
<asrwt>0</asrwt>
<pdfrwt beam="1">  1       21 0.38367121E+00 0.24437905E+03</pdfrwt>
<pdfrwt beam="2">  1       21 0.51293794E-02 0.24437905E+03</pdfrwt>
<totfact> 0.26520267E+03</totfact>
</mgrwt>
</event>
<event>
 5    0  0.1324511E+000  0.2614411E+03  0.7546771E-02  0.1106280E+00
         21   -1    0    0  504  501  0.00000000000E+00  0.00000000000E+00  0.11700685044E+04  0.11700685044E+04  0.00000000000E+00 0. -1.
         21   -1    0    0  501  502 -0.00000000000E+00 -0.00000000000E+00 -0.52732507798E+02  0.52732507798E+02  0.00000000000E+00 0. -1.
         25    1    1    2    0    0 -0.21567013935E+03 -0.78821547357E+02  0.55564933702E+03  0.61408275588E+03  0.12500000000E+03 0.  0.
         21    1    1    2  503  502  0.69221945511E+02  0.31718438099E+02  0.24650863045E+03  0.25800046888E+03  0.00000000000E+00 0. -1.
         21    1    1    2  504  503  0.14644819384E+03  0.47103109258E+02  0.31517802911E+03  0.35071778742E+03  0.00000000000E+00 0. -1.
<mgrwt>
<rscale>  4 0.26144109E+03</rscale>
<asrwt>0</asrwt>
<pdfrwt beam="1">  1       21 0.18001052E+00 0.26144109E+03</pdfrwt>
<pdfrwt beam="2">  1       21 0.81126944E-02 0.26144109E+03</pdfrwt>
<totfact> 0.20395014E+04</totfact>
</mgrwt>
</event>
<event>
 5    0  0.1324511E+000  0.3597584E+03  0.7546771E-02  0.1058680E+00
         21   -1    0    0  504  501  0.00000000000E+00  0.00000000000E+00  0.32813416180E+03  0.32813416180E+03  0.00000000000E+00 0.  1.
         21   -1    0    0  501  502 -0.00000000000E+00 -0.00000000000E+00 -0.40682531539E+03  0.40682531539E+03  0.00000000000E+00 0.  1.
         25    1    1    2    0    0  0.24994859911E+03  0.22655426449E+03  0.65806129429E+02  0.36572747180E+03  0.12500000000E+03 0.  0.
         21    1    1    2  503  502 -0.22736258703E+02 -0.18512848671E+02 -0.25905551910E+02  0.39124936364E+02  0.00000000000E+00 0.  1.
         21    1    1    2  504  503 -0.22721234041E+03 -0.20804141582E+03 -0.11859173111E+03  0.33010706902E+03  0.00000000000E+00 0.  1.
<mgrwt>
<rscale>  4 0.35975844E+03</rscale>
<asrwt>0</asrwt>
<pdfrwt beam="1">  1       21 0.50482179E-01 0.35975844E+03</pdfrwt>
<pdfrwt beam="2">  1       21 0.62588510E-01 0.35975844E+03</pdfrwt>
<totfact> 0.80940011E+03</totfact>
</mgrwt>
</event>
<event>
 5    0  0.1324511E+000  0.3070196E+03  0.7546771E-02  0.1081783E+00
         21   -1    0    0  504  501  0.00000000000E+00  0.00000000000E+00  0.14366249292E+04  0.14366249292E+04  0.00000000000E+00 0. -1.
         21   -1    0    0  501  502 -0.00000000000E+00 -0.00000000000E+00 -0.23759130359E+03  0.23759130359E+03  0.00000000000E+00 0. -1.
         25    1    1    2    0    0  0.21362922474E+03 -0.18830259210E+03 -0.10362658881E+03  0.32780906297E+03  0.12500000000E+03 0.  0.
         21    1    1    2  503  502 -0.19631339436E+03  0.12864533466E+03  0.12233666776E+04  0.12456783689E+04  0.00000000000E+00 0. -1.
         21    1    1    2  504  503 -0.17315830383E+02  0.59657257447E+02  0.79293536811E+02  0.10072880089E+03  0.00000000000E+00 0. -1.
<mgrwt>
<rscale>  4 0.30701964E+03</rscale>
<asrwt>0</asrwt>
<pdfrwt beam="1">  1       21 0.22101921E+00 0.30701964E+03</pdfrwt>
<pdfrwt beam="2">  1       21 0.36552509E-01 0.30701964E+03</pdfrwt>
<totfact> 0.64119316E+02</totfact>
</mgrwt>
</event>
<event>
 5    0  0.1324511E+000  0.2433986E+03  0.7546771E-02  0.1117549E+00
         21   -1    0    0  504  501  0.00000000000E+00  0.00000000000E+00  0.25622051014E+03  0.25622051014E+03  0.00000000000E+00 0. -1.
         21   -1    0    0  501  502 -0.00000000000E+00 -0.00000000000E+00 -0.29350077616E+03  0.29350077616E+03  0.00000000000E+00 0. -1.
         25    1    1    2    0    0 -0.14506700474E+03 -0.15024454400E+03 -0.17097500738E+03  0.29744799884E+03  0.12500000000E+03 0.  0.
         21    1    1    2  503  502  0.65745230763E+02  0.36403219609E+02  0.49057977372E+02  0.89745835055E+02  0.00000000000E+00 0. -1.
         21    1    1    2  504  503  0.79321773977E+02  0.11384132439E+03  0.84636763990E+02  0.16252745240E+03  0.00000000000E+00 0. -1.
<mgrwt>
<rscale>  4 0.24339856E+03</rscale>
<asrwt>0</asrwt>
<pdfrwt beam="1">  1       21 0.39418540E-01 0.24339856E+03</pdfrwt>
<pdfrwt beam="2">  1       21 0.45153965E-01 0.24339856E+03</pdfrwt>
<totfact> 0.28443941E+04</totfact>
</mgrwt>
</event>
<event>
 5    0  0.1324511E+000  0.2462379E+03  0.7546771E-02  0.1115706E+00
         21   -1    0    0  504  501  0.00000000000E+00  0.00000000000E+00  0.86546227738E+02  0.86546227738E+02  0.00000000000E+00 0. -1.
         21   -1    0    0  501  502 -0.00000000000E+00 -0.00000000000E+00 -0.16470075202E+04  0.16470075202E+04  0.00000000000E+00 0. -1.
         25    1    1    2    0    0  0.13700384619E+03 -0.17008494227E+03 -0.11265537578E+04  0.11543168156E+04  0.12500000000E+03 0.  0.
         21    1    1    2  503  502 -0.82280781352E+01  0.22913465473E+03 -0.33697124339E+03  0.40757822580E+03  0.00000000000E+00 0. -1.
         21    1    1    2  504  503 -0.12877576805E+03 -0.59049712465E+02 -0.96936291241E+02  0.17165870656E+03  0.00000000000E+00 0. -1.
<mgrwt>
<rscale>  4 0.24623787E+03</rscale>
<asrwt>0</asrwt>
<pdfrwt beam="1">  1       21 0.13314804E-01 0.24623787E+03</pdfrwt>
<pdfrwt beam="2">  1       21 0.25338578E+00 0.24623787E+03</pdfrwt>
<totfact> 0.29322693E+03</totfact>
</mgrwt>
</event>
<event>
 5    0  0.1324511E+000  0.4744533E+03  0.7546771E-02  0.1020671E+00
         21   -1    0    0  504  501  0.00000000000E+00  0.00000000000E+00  0.44994837980E+03  0.44994837980E+03  0.00000000000E+00 0. -1.
         21   -1    0    0  501  502 -0.00000000000E+00 -0.00000000000E+00 -0.10010775317E+04  0.10010775317E+04  0.00000000000E+00 0.  1.
         25    1    1    2    0    0 -0.15215646318E+02 -0.45743791674E+03 -0.79770876096E+03  0.92814073872E+03  0.12500000000E+03 0.  0.
         21    1    1    2  503  502  0.20154516125E+02  0.43179434234E+03  0.21783885081E+03  0.48405198431E+03  0.00000000000E+00 0. -1.
         21    1    1    2  504  503 -0.49388698066E+01  0.25643574405E+02  0.28740758233E+02  0.38833188474E+02  0.00000000000E+00 0. -1.
<mgrwt>
<rscale>  4 0.47445333E+03</rscale>
<asrwt>0</asrwt>
<pdfrwt beam="1">  1       21 0.69222829E-01 0.47445333E+03</pdfrwt>
<pdfrwt beam="2">  1       21 0.15401192E+00 0.47445333E+03</pdfrwt>
<totfact> 0.43451220E+02</totfact>
</mgrwt>
</event>
<event>
 5    0  0.1324511E+000  0.4433052E+03  0.7546771E-02  0.1029738E+00
         21   -1    0    0  504  501  0.00000000000E+00  0.00000000000E+00  0.47542490845E+03  0.47542490845E+03  0.00000000000E+00 0. -1.
         21   -1    0    0  501  502 -0.00000000000E+00 -0.00000000000E+00 -0.21338058300E+04  0.21338058300E+04  0.00000000000E+00 0. -1.
         25    1    1    2    0    0  0.23590082925E+03  0.35992663125E+03 -0.19710851176E+04  0.20213851493E+04  0.12500000000E+03 0.  0.
         21    1    1    2  503  502 -0.25692049138E+03 -0.27294709727E+03  0.15317423142E+03  0.40493283637E+03  0.00000000000E+00 0. -1.
         21    1    1    2  504  503  0.21019662129E+02 -0.86979533978E+02  0.15952996460E+03  0.18291275279E+03  0.00000000000E+00 0. -1.
<mgrwt>
<rscale>  4 0.44330523E+03</rscale>
<asrwt>0</asrwt>
<pdfrwt beam="1">  1       21 0.73142292E-01 0.44330523E+03</pdfrwt>
<pdfrwt beam="2">  1       21 0.32827783E+00 0.44330523E+03</pdfrwt>
<totfact> 0.29597672E+01</totfact>
</mgrwt>
</event>
<event>
 5    0  0.1324511E+000  0.3067170E+03  0.7546771E-02  0.1081930E+00
         21   -1    0    0  504  501  0.00000000000E+00  0.00000000000E+00  0.13345929736E+03  0.13345929736E+03  0.00000000000E+00 0.  1.
         21   -1    0    0  501  502 -0.00000000000E+00 -0.00000000000E+00 -0.78325779842E+03  0.78325779842E+03  0.00000000000E+00 0. -1.
         25    1    1    2    0    0  0.26609779658E+03  0.87420090321E+02 -0.51384450882E+03  0.59842417128E+03  0.12500000000E+03 0.  0.
         21    1    1    2  503  502 -0.22594192211E+03 -0.57194781783E+02 -0.88910896971E+02  0.24945168436E+03  0.00000000000E+00 0.  1.
         21    1    1    2  504  503 -0.40155874461E+02 -0.30225308539E+02 -0.47043095277E+02  0.68841240134E+02  0.00000000000E+00 0. -1.
<mgrwt>
<rscale>  4 0.30671699E+03</rscale>
<asrwt>0</asrwt>
<pdfrwt beam="1">  1       21 0.20532200E-01 0.30671699E+03</pdfrwt>
<pdfrwt beam="2">  1       21 0.12050120E+00 0.30671699E+03</pdfrwt>
<totfact> 0.10757001E+04</totfact>
</mgrwt>
</event>
<event>
 5    0  0.1324511E+000  0.2250087E+03  0.7546771E-02  0.1130203E+00
         21   -1    0    0  504  501  0.00000000000E+00  0.00000000000E+00  0.84610084222E+02  0.84610084222E+02  0.00000000000E+00 0.  1.
         21   -1    0    0  501  502 -0.00000000000E+00 -0.00000000000E+00 -0.13887177572E+04  0.13887177572E+04  0.00000000000E+00 0.  1.
         25    1    1    2    0    0 -0.12150460384E+02  0.21007742060E+03 -0.98420273520E+03  0.10141795602E+04  0.12500000000E+03 0.  0.
         21    1    1    2  503  502  0.12786271005E+03 -0.11955386710E+03 -0.22151337759E+03  0.28232990669E+03  0.00000000000E+00 0.  1.
         21    1    1    2  504  503 -0.11571224966E+03 -0.90523553507E+02 -0.98391560191E+02  0.17681837455E+03  0.00000000000E+00 0.  1.
<mgrwt>
<rscale>  4 0.22500869E+03</rscale>
<asrwt>0</asrwt>
<pdfrwt beam="1">  1       21 0.13016937E-01 0.22500869E+03</pdfrwt>
<pdfrwt beam="2">  1       21 0.21364887E+00 0.22500869E+03</pdfrwt>
<totfact> 0.54245515E+03</totfact>
</mgrwt>
</event>
<event>
 5    0  0.1324511E+000  0.2595092E+03  0.7546771E-02  0.1107438E+00
         21   -1    0    0  504  501  0.00000000000E+00  0.00000000000E+00  0.45102167072E+03  0.45102167072E+03  0.00000000000E+00 0. -1.
         21   -1    0    0  501  502 -0.00000000000E+00 -0.00000000000E+00 -0.22089083240E+03  0.22089083240E+03  0.00000000000E+00 0. -1.
         25    1    1    2    0    0  0.36154459670E+02  0.22452809106E+03 -0.87889735665E+02  0.27398834695E+03  0.12500000000E+03 0.  0.
         21    1    1    2  503  502 -0.34154268921E+02 -0.19351521118E+03  0.21945906746E+03  0.29457924797E+03  0.00000000000E+00 0. -1.
         21    1    1    2  504  503 -0.20001907490E+01 -0.31012879876E+02  0.98561506531E+02  0.10334490820E+03  0.00000000000E+00 0. -1.
<mgrwt>
<rscale>  4 0.25950917E+03</rscale>
<asrwt>0</asrwt>
<pdfrwt beam="1">  1       21 0.69387949E-01 0.25950917E+03</pdfrwt>
<pdfrwt beam="2">  1       21 0.33983205E-01 0.25950917E+03</pdfrwt>
<totfact> 0.15174097E+04</totfact>
</mgrwt>
</event>
<event>
 5    0  0.1324511E+000  0.3242263E+03  0.7546771E-02  0.1073721E+00
         21   -1    0    0  504  501  0.00000000000E+00  0.00000000000E+00  0.36122407681E+03  0.36122407681E+03  0.00000000000E+00 0. -1.
         21   -1    0    0  501  502 -0.00000000000E+00 -0.00000000000E+00 -0.12098867551E+04  0.12098867551E+04  0.00000000000E+00 0.  1.
         25    1    1    2    0    0  0.15106253562E+03 -0.25822047655E+03 -0.11181351678E+04  0.11641945532E+04  0.12500000000E+03 0.  0.
         21    1    1    2  503  502 -0.11019883620E+03  0.22813502333E+03  0.23505448436E+03  0.34560090131E+03  0.00000000000E+00 0. -1.
         21    1    1    2  504  503 -0.40863699424E+02  0.30085453222E+02  0.34418005172E+02  0.61315377404E+02  0.00000000000E+00 0. -1.
<mgrwt>
<rscale>  4 0.32422632E+03</rscale>
<asrwt>0</asrwt>
<pdfrwt beam="1">  1       21 0.55572935E-01 0.32422632E+03</pdfrwt>
<pdfrwt beam="2">  1       21 0.18613642E+00 0.32422632E+03</pdfrwt>
<totfact> 0.44740914E+02</totfact>
</mgrwt>
</event>
<event>
 5    0  0.1324511E+000  0.2712650E+03  0.7546771E-02  0.1100558E+00
         21   -1    0    0  504  501  0.00000000000E+00  0.00000000000E+00  0.20772901038E+04  0.20772901038E+04  0.00000000000E+00 0.  1.
         21   -1    0    0  501  502 -0.00000000000E+00 -0.00000000000E+00 -0.46411212123E+02  0.46411212123E+02  0.00000000000E+00 0.  1.
         25    1    1    2    0    0 -0.67054304951E+02  0.23122156332E+03  0.46863190776E+03  0.54147996835E+03  0.12500000000E+03 0.  0.
         21    1    1    2  503  502 -0.55839095997E-01 -0.26931576162E+02  0.35129853219E+03  0.35232935108E+03  0.00000000000E+00 0.  1.
         21    1    1    2  504  503  0.67110144047E+02 -0.20428998716E+03  0.12109484517E+04  0.12298919965E+04  0.00000000000E+00 0.  1.
<mgrwt>
<rscale>  4 0.27126498E+03</rscale>
<asrwt>0</asrwt>
<pdfrwt beam="1">  1       21 0.31958302E+00 0.27126498E+03</pdfrwt>
<pdfrwt beam="2">  1       21 0.71401881E-02 0.27126498E+03</pdfrwt>
<totfact> 0.35432519E+03</totfact>
</mgrwt>
</event>
<event>
 5    0  0.1324511E+000  0.3388873E+03  0.7546771E-02  0.1067271E+00
         21   -1    0    0  504  501  0.00000000000E+00  0.00000000000E+00  0.82659581282E+03  0.82659581282E+03  0.00000000000E+00 0. -1.
         21   -1    0    0  501  502 -0.00000000000E+00 -0.00000000000E+00 -0.15867106723E+03  0.15867106723E+03  0.00000000000E+00 0. -1.
         25    1    1    2    0    0  0.27101936610E+03  0.16052439293E+03  0.14153578824E+03  0.36725598277E+03  0.12500000000E+03 0.  0.
         21    1    1    2  503  502 -0.22346338576E+03 -0.14222926337E+03  0.38166014813E+03  0.46457455463E+03  0.00000000000E+00 0. -1.
         21    1    1    2  504  503 -0.47555980341E+02 -0.18295129559E+02  0.14472880921E+03  0.15343634266E+03  0.00000000000E+00 0. -1.
<mgrwt>
<rscale>  4 0.33888726E+03</rscale>
<asrwt>0</asrwt>
<pdfrwt beam="1">  1       21 0.12716858E+00 0.33888726E+03</pdfrwt>
<pdfrwt beam="2">  1       21 0.24410934E-01 0.33888726E+03</pdfrwt>
<totfact> 0.66425096E+03</totfact>
</mgrwt>
</event>
<event>
 5    0  0.1324511E+000  0.2526971E+03  0.7546771E-02  0.1111612E+00
         21   -1    0    0  504  501  0.00000000000E+00  0.00000000000E+00  0.81816260632E+02  0.81816260632E+02  0.00000000000E+00 0.  1.
         21   -1    0    0  501  502 -0.00000000000E+00 -0.00000000000E+00 -0.20611433021E+04  0.20611433021E+04  0.00000000000E+00 0.  1.
         25    1    1    2    0    0 -0.16114295668E+03  0.14567037935E+03 -0.18059733821E+04  0.18232804964E+04  0.12500000000E+03 0.  0.
         21    1    1    2  503  502 -0.70619525707E+01  0.24183978889E+02 -0.36127001528E+02  0.44044253296E+02  0.00000000000E+00 0.  1.
         21    1    1    2  504  503  0.16820490925E+03 -0.16985435824E+03 -0.13722665786E+03  0.27563481300E+03  0.00000000000E+00 0.  1.
<mgrwt>
<rscale>  4 0.25269711E+03</rscale>
<asrwt>0</asrwt>
<pdfrwt beam="1">  1       21 0.12587116E-01 0.25269711E+03</pdfrwt>
<pdfrwt beam="2">  1       21 0.31709899E+00 0.25269711E+03</pdfrwt>
<totfact> 0.13651087E+03</totfact>
</mgrwt>
</event>
<event>
 5    0  0.1324511E+000  0.2570615E+03  0.7546771E-02  0.1108922E+00
         21   -1    0    0  504  501  0.00000000000E+00  0.00000000000E+00  0.67288522102E+03  0.67288522102E+03  0.00000000000E+00 0.  1.
         21   -1    0    0  501  502 -0.00000000000E+00 -0.00000000000E+00 -0.64395903583E+03  0.64395903583E+03  0.00000000000E+00 0.  1.
         25    1    1    2    0    0  0.21784106080E+03  0.54780567143E+02 -0.59458474529E+03  0.64777438791E+03  0.12500000000E+03 0.  0.
         21    1    1    2  503  502 -0.52720582889E+02 -0.48403513909E+02  0.12693417554E+03  0.14572112043E+03  0.00000000000E+00 0.  1.
         21    1    1    2  504  503 -0.16512047791E+03 -0.63770532341E+01  0.49657675493E+03  0.52334874851E+03  0.00000000000E+00 0.  1.
<mgrwt>
<rscale>  4 0.25706155E+03</rscale>
<asrwt>0</asrwt>
<pdfrwt beam="1">  1       21 0.10352080E+00 0.25706155E+03</pdfrwt>
<pdfrwt beam="2">  1       21 0.99070620E-01 0.25706155E+03</pdfrwt>
<totfact> 0.59677090E+02</totfact>
</mgrwt>
</event>
<event>
 5    0  0.1324511E+000  0.2381925E+03  0.7546771E-02  0.1121003E+00
         21   -1    0    0  504  501  0.00000000000E+00  0.00000000000E+00  0.25900898009E+03  0.25900898009E+03  0.00000000000E+00 0.  1.
         21   -1    0    0  501  502 -0.00000000000E+00 -0.00000000000E+00 -0.26031184432E+03  0.26031184432E+03  0.00000000000E+00 0.  1.
         25    1    1    2    0    0  0.41921165787E+02  0.19837656297E+03 -0.12886491860E+03  0.27081693471E+03  0.12500000000E+03 0.  0.
         21    1    1    2  503  502 -0.54190546068E+02 -0.16338123045E+03  0.84756883465E+02  0.19186915083E+03  0.00000000000E+00 0.  1.
         21    1    1    2  504  503  0.12269380281E+02 -0.34995332521E+02  0.42805170910E+02  0.56634738874E+02  0.00000000000E+00 0.  1.
<mgrwt>
<rscale>  4 0.23819245E+03</rscale>
<asrwt>0</asrwt>
<pdfrwt beam="1">  1       21 0.39847536E-01 0.23819245E+03</pdfrwt>
<pdfrwt beam="2">  1       21 0.40047976E-01 0.23819245E+03</pdfrwt>
<totfact> 0.35665382E+04</totfact>
</mgrwt>
</event>
<event>
 5    0  0.1324511E+000  0.2411503E+03  0.7546771E-02  0.1119029E+00
         21   -1    0    0  504  501  0.00000000000E+00  0.00000000000E+00  0.17855573838E+03  0.17855573838E+03  0.00000000000E+00 0.  1.
         21   -1    0    0  501  502 -0.00000000000E+00 -0.00000000000E+00 -0.29860038070E+03  0.29860038070E+03  0.00000000000E+00 0.  1.
         25    1    1    2    0    0 -0.10759198529E+03  0.17593305176E+03 -0.14364091566E+02  0.24157773309E+03  0.12500000000E+03 0.  0.
         21    1    1    2  503  502  0.10175591710E+03 -0.13993440649E+03 -0.77972785446E+02  0.18977792299E+03  0.00000000000E+00 0.  1.
         21    1    1    2  504  503  0.58360681916E+01 -0.35998645266E+02 -0.27707765309E+02  0.45800463004E+02  0.00000000000E+00 0.  1.
<mgrwt>
<rscale>  4 0.24115031E+03</rscale>
<asrwt>0</asrwt>
<pdfrwt beam="1">  1       21 0.27470114E-01 0.24115031E+03</pdfrwt>
<pdfrwt beam="2">  1       21 0.45938520E-01 0.24115031E+03</pdfrwt>
<totfact> 0.56202708E+04</totfact>
</mgrwt>
</event>
<event>
 5    0  0.1599159E+000  0.2504839E+03  0.7546771E-02  0.1112999E+00
         21   -1    0    0  504  501  0.00000000000E+00  0.00000000000E+00  0.18987475999E+03  0.18987475999E+03  0.00000000000E+00 0. -1.
         21   -1    0    0  501  502 -0.00000000000E+00 -0.00000000000E+00 -0.34617143341E+03  0.34617143341E+03  0.00000000000E+00 0. -1.
         25    1    1    2    0    0  0.18214621728E+03  0.11806741611E+03  0.24805721600E+02  0.25170912387E+03  0.12500000000E+03 0.  0.
         21    1    1    2  503  502 -0.15707267551E+03 -0.11308591642E+03 -0.15727149074E+03  0.24938839525E+03  0.00000000000E+00 0. -1.
         21    1    1    2  504  503 -0.25073541769E+02 -0.49814996862E+01 -0.23830904269E+02  0.34948674285E+02  0.00000000000E+00 0.  1.
<mgrwt>
<rscale>  4 0.25048385E+03</rscale>
<asrwt>0</asrwt>
<pdfrwt beam="1">  1       21 0.29211502E-01 0.25048385E+03</pdfrwt>
<pdfrwt beam="2">  1       21 0.53257143E-01 0.25048385E+03</pdfrwt>
<totfact> 0.36444319E+04</totfact>
</mgrwt>
</event>
<event>
 5    0  0.1324511E+000  0.3176058E+03  0.7546771E-02  0.1076757E+00
         21   -1    0    0  504  501  0.00000000000E+00  0.00000000000E+00  0.12675717837E+03  0.12675717837E+03  0.00000000000E+00 0. -1.
         21   -1    0    0  501  502 -0.00000000000E+00 -0.00000000000E+00 -0.18405781828E+04  0.18405781828E+04  0.00000000000E+00 0. -1.
         25    1    1    2    0    0  0.65495784920E+02 -0.28453246531E+03 -0.16006307929E+04  0.16318371110E+04  0.12500000000E+03 0.  0.
         21    1    1    2  503  502  0.10829941241E+02  0.13727966682E+03 -0.97852393368E+02  0.16893219183E+03  0.00000000000E+00 0. -1.
         21    1    1    2  504  503 -0.76325726161E+02  0.14725279849E+03 -0.15337818210E+02  0.16656605838E+03  0.00000000000E+00 0.  1.
<mgrwt>
<rscale>  4 0.31760576E+03</rscale>
<asrwt>0</asrwt>
<pdfrwt beam="1">  1       21 0.19501104E-01 0.31760576E+03</pdfrwt>
<pdfrwt beam="2">  1       21 0.28316588E+00 0.31760576E+03</pdfrwt>
<totfact> 0.90987559E+02</totfact>
</mgrwt>
</event>
<event>
 5    0  0.1324511E+000  0.4407482E+03  0.7546771E-02  0.1030517E+00
         21   -1    0    0  504  501  0.00000000000E+00  0.00000000000E+00  0.75622500563E+03  0.75622500563E+03  0.00000000000E+00 0.  1.
         21   -1    0    0  501  502 -0.00000000000E+00 -0.00000000000E+00 -0.39771408931E+03  0.39771408931E+03  0.00000000000E+00 0.  1.
         25    1    1    2    0    0  0.34825234479E+03  0.31052846260E+03  0.16553210391E+02  0.48332869820E+03  0.12500000000E+03 0.  0.
         21    1    1    2  503  502 -0.25763822383E+03 -0.31618920218E+03  0.39305186250E+03  0.56642990084E+03  0.00000000000E+00 0.  1.
         21    1    1    2  504  503 -0.90614120954E+02  0.56607395798E+01 -0.51094156568E+02  0.10418049589E+03  0.00000000000E+00 0.  1.
<mgrwt>
<rscale>  4 0.44074821E+03</rscale>
<asrwt>0</asrwt>
<pdfrwt beam="1">  1       21 0.11634231E+00 0.44074821E+03</pdfrwt>
<pdfrwt beam="2">  1       21 0.61186783E-01 0.44074821E+03</pdfrwt>
<totfact> 0.12112992E+03</totfact>
</mgrwt>
</event>
<event>
 5    0  0.1324511E+000  0.2643915E+03  0.7546771E-02  0.1104533E+00
         21   -1    0    0  504  501  0.00000000000E+00  0.00000000000E+00  0.10114397598E+03  0.10114397598E+03  0.00000000000E+00 0.  1.
         21   -1    0    0  501  502 -0.00000000000E+00 -0.00000000000E+00 -0.63789184338E+03  0.63789184338E+03  0.00000000000E+00 0.  1.
         25    1    1    2    0    0  0.15365650042E+03 -0.17512157714E+03 -0.31993206082E+03  0.41504145629E+03  0.12500000000E+03 0.  0.
         21    1    1    2  503  502 -0.73173740404E+01  0.42762495852E+02 -0.41757391292E+02  0.60215070720E+02  0.00000000000E+00 0. -1.
         21    1    1    2  504  503 -0.14633912638E+03  0.13235908129E+03 -0.17505841529E+03  0.26377929235E+03  0.00000000000E+00 0.  1.
<mgrwt>
<rscale>  4 0.26439154E+03</rscale>
<asrwt>0</asrwt>
<pdfrwt beam="1">  1       21 0.15560612E-01 0.26439154E+03</pdfrwt>
<pdfrwt beam="2">  1       21 0.98137206E-01 0.26439154E+03</pdfrwt>
<totfact> 0.30372838E+04</totfact>
</mgrwt>
</event>
<event>
 5    0  0.1324511E+000  0.2577264E+03  0.7546771E-02  0.1108517E+00
         21   -1    0    0  504  501  0.00000000000E+00  0.00000000000E+00  0.61229855370E+03  0.61229855370E+03  0.00000000000E+00 0.  1.
         21   -1    0    0  501  502 -0.00000000000E+00 -0.00000000000E+00 -0.15148169851E+03  0.15148169851E+03  0.00000000000E+00 0.  1.
         25    1    1    2    0    0 -0.19236749052E+03 -0.11744204810E+03  0.13427019309E+02  0.25807590146E+03  0.12500000000E+03 0.  0.
         21    1    1    2  503  502  0.39874186731E+01  0.25081856280E+02  0.59906130847E+02  0.65067223202E+02  0.00000000000E+00 0. -1.
         21    1    1    2  504  503  0.18838007184E+03  0.92360191818E+02  0.38748370503E+03  0.44063712754E+03  0.00000000000E+00 0.  1.
<mgrwt>
<rscale>  4 0.25772638E+03</rscale>
<asrwt>0</asrwt>
<pdfrwt beam="1">  1       21 0.94199776E-01 0.25772638E+03</pdfrwt>
<pdfrwt beam="2">  1       21 0.23304877E-01 0.25772638E+03</pdfrwt>
<totfact> 0.15754972E+04</totfact>
</mgrwt>
</event>
<event>
 5    0  0.1324511E+000  0.2716719E+03  0.7546771E-02  0.1100327E+00
         21   -1    0    0  504  501  0.00000000000E+00  0.00000000000E+00  0.24602119442E+03  0.24602119442E+03  0.00000000000E+00 0.  1.
         21   -1    0    0  501  502 -0.00000000000E+00 -0.00000000000E+00 -0.29044448654E+03  0.29044448654E+03  0.00000000000E+00 0.  1.
         25    1    1    2    0    0  0.23321483292E+03 -0.61574644183E+02  0.49221580262E+02  0.27609483708E+03  0.12500000000E+03 0.  0.
         21    1    1    2  503  502 -0.21486436159E+03  0.48318206010E+02 -0.86831112177E+02  0.23672977201E+03  0.00000000000E+00 0.  1.
         21    1    1    2  504  503 -0.18350471331E+02  0.13256438173E+02 -0.68137601967E+01  0.23641071869E+02  0.00000000000E+00 0. -1.
<mgrwt>
<rscale>  4 0.27167185E+03</rscale>
<asrwt>0</asrwt>
<pdfrwt beam="1">  1       21 0.37849415E-01 0.27167185E+03</pdfrwt>
<pdfrwt beam="2">  1       21 0.44683767E-01 0.27167185E+03</pdfrwt>
<totfact> 0.31175831E+04</totfact>
</mgrwt>
</event>
<event>
 5    0  0.1324511E+000  0.3977459E+03  0.7546771E-02  0.1044563E+00
         21   -1    0    0  504  501  0.00000000000E+00  0.00000000000E+00  0.26619456162E+03  0.26619456162E+03  0.00000000000E+00 0.  1.
         21   -1    0    0  501  502 -0.00000000000E+00 -0.00000000000E+00 -0.75898488143E+03  0.75898488143E+03  0.00000000000E+00 0.  1.
         25    1    1    2    0    0 -0.37860243235E+03  0.98692894893E+02 -0.37632666675E+02  0.41245764253E+03  0.12500000000E+03 0.  0.
         21    1    1    2  503  502  0.33939016155E+03 -0.95923733882E+02 -0.33549929236E+03  0.48677183531E+03  0.00000000000E+00 0.  1.
         21    1    1    2  504  503  0.39212270799E+02 -0.27691610112E+01 -0.11965836077E+03  0.12594996521E+03  0.00000000000E+00 0.  1.
<mgrwt>
<rscale>  4 0.39774594E+03</rscale>
<asrwt>0</asrwt>
<pdfrwt beam="1">  1       21 0.40953009E-01 0.39774594E+03</pdfrwt>
<pdfrwt beam="2">  1       21 0.11676691E+00 0.39774594E+03</pdfrwt>
<totfact> 0.28694252E+03</totfact>
</mgrwt>
</event>
<event>
 5    0  0.1324511E+000  0.2486556E+03  0.7546771E-02  0.1114157E+00
         21   -1    0    0  504  501  0.00000000000E+00  0.00000000000E+00  0.24942107148E+03  0.24942107148E+03  0.00000000000E+00 0.  1.
         21   -1    0    0  501  502 -0.00000000000E+00 -0.00000000000E+00 -0.70774325689E+03  0.70774325689E+03  0.00000000000E+00 0.  1.
         25    1    1    2    0    0 -0.18276708886E+03  0.10840563700E+03 -0.60503500025E+03  0.65333601036E+03  0.12500000000E+03 0.  0.
         21    1    1    2  503  502  0.19243558214E+03 -0.13380081861E+03  0.11205871631E+03  0.25979081631E+03  0.00000000000E+00 0.  1.
         21    1    1    2  504  503 -0.96684932794E+01  0.25395181617E+02  0.34654098529E+02  0.44037501706E+02  0.00000000000E+00 0.  1.
<mgrwt>
<rscale>  4 0.24865561E+03</rscale>
<asrwt>0</asrwt>
<pdfrwt beam="1">  1       21 0.38372473E-01 0.24865561E+03</pdfrwt>
<pdfrwt beam="2">  1       21 0.10888358E+00 0.24865561E+03</pdfrwt>
<totfact> 0.42060739E+03</totfact>
</mgrwt>
</event>
<event>
 5    0  0.1324511E+000  0.3060928E+03  0.7546771E-02  0.1082234E+00
         21   -1    0    0  504  501  0.00000000000E+00  0.00000000000E+00  0.72126120537E+03  0.72126120537E+03  0.00000000000E+00 0. -1.
         21   -1    0    0  501  502 -0.00000000000E+00 -0.00000000000E+00 -0.13597094129E+03  0.13597094129E+03  0.00000000000E+00 0. -1.
         25    1    1    2    0    0 -0.18573852481E+03  0.20873193122E+03  0.16057654465E+03  0.34565538532E+03  0.12500000000E+03 0.  0.
         21    1    1    2  503  502  0.88708003516E+02 -0.68788893036E+02  0.20352065713E+03  0.23242564311E+03  0.00000000000E+00 0. -1.
         21    1    1    2  504  503  0.97030521297E+02 -0.13994303819E+03  0.22119306230E+03  0.27915111823E+03  0.00000000000E+00 0. -1.
<mgrwt>
<rscale>  4 0.30609283E+03</rscale>
<asrwt>0</asrwt>
<pdfrwt beam="1">  1       21 0.11096326E+00 0.30609283E+03</pdfrwt>
<pdfrwt beam="2">  1       21 0.20918607E-01 0.30609283E+03</pdfrwt>
<totfact> 0.12744899E+04</totfact>
</mgrwt>
</event>
<event>
 5    0  0.1324511E+000  0.3183999E+03  0.7546771E-02  0.1076388E+00
         21   -1    0    0  504  501  0.00000000000E+00  0.00000000000E+00  0.63637095300E+03  0.63637095300E+03  0.00000000000E+00 0. -1.
         21   -1    0    0  501  502 -0.00000000000E+00 -0.00000000000E+00 -0.15888517533E+03  0.15888517533E+03  0.00000000000E+00 0. -1.
         25    1    1    2    0    0 -0.12564179451E+03 -0.26451391318E+03  0.33226659891E+03  0.46019513637E+03  0.12500000000E+03 0.  0.
         21    1    1    2  503  502  0.74794953419E+02  0.85960444793E+02  0.35201357824E+02  0.11925862115E+03  0.00000000000E+00 0. -1.
         21    1    1    2  504  503  0.50846841091E+02  0.17855346839E+03  0.11001782094E+03  0.21580237081E+03  0.00000000000E+00 0. -1.
<mgrwt>
<rscale>  4 0.31839986E+03</rscale>
<asrwt>0</asrwt>
<pdfrwt beam="1">  1       21 0.97903223E-01 0.31839986E+03</pdfrwt>
<pdfrwt beam="2">  1       21 0.24443873E-01 0.31839986E+03</pdfrwt>
<totfact> 0.12761740E+04</totfact>
</mgrwt>
</event>
<event>
 5    0  0.1324511E+000  0.2349833E+03  0.7546771E-02  0.1123181E+00
         21   -1    0    0  504  501  0.00000000000E+00  0.00000000000E+00  0.19693306747E+03  0.19693306747E+03  0.00000000000E+00 0.  1.
         21   -1    0    0  501  502 -0.00000000000E+00 -0.00000000000E+00 -0.61758044821E+03  0.61758044821E+03  0.00000000000E+00 0. -1.
         25    1    1    2    0    0 -0.19169962616E+03  0.15700260579E+03 -0.41069713287E+03  0.49567701161E+03  0.12500000000E+03 0.  0.
         21    1    1    2  503  502  0.96401526385E+02 -0.16759996603E+03  0.57369457356E+02  0.20167859961E+03  0.00000000000E+00 0.  1.
         21    1    1    2  504  503  0.95298099774E+02  0.10597360248E+02 -0.67319705226E+02  0.11715790446E+03  0.00000000000E+00 0. -1.
<mgrwt>
<rscale>  4 0.23498330E+03</rscale>
<asrwt>0</asrwt>
<pdfrwt beam="1">  1       21 0.30297395E-01 0.23498330E+03</pdfrwt>
<pdfrwt beam="2">  1       21 0.95012376E-01 0.23498330E+03</pdfrwt>
<totfact> 0.94117649E+03</totfact>
</mgrwt>
</event>
<event>
 5    0  0.1324511E+000  0.2583657E+03  0.7546771E-02  0.1108129E+00
         21   -1    0    0  504  501  0.00000000000E+00  0.00000000000E+00  0.45323022751E+02  0.45323022751E+02  0.00000000000E+00 0.  1.
         21   -1    0    0  501  502 -0.00000000000E+00 -0.00000000000E+00 -0.16995223153E+04  0.16995223153E+04  0.00000000000E+00 0.  1.
         25    1    1    2    0    0 -0.19698359505E+03 -0.11101941133E+03 -0.12503684512E+04  0.12767827184E+04  0.12500000000E+03 0.  0.
         21    1    1    2  503  502  0.11239793613E+03  0.90670839317E+02 -0.29733066134E+03  0.33054503372E+03  0.00000000000E+00 0.  1.
         21    1    1    2  504  503  0.84585658925E+02  0.20348572009E+02 -0.10650018001E+03  0.13751758586E+03  0.00000000000E+00 0.  1.
<mgrwt>
<rscale>  4 0.25836572E+03</rscale>
<asrwt>0</asrwt>
<pdfrwt beam="1">  1       21 0.69727732E-02 0.25836572E+03</pdfrwt>
<pdfrwt beam="2">  1       21 0.26146496E+00 0.25836572E+03</pdfrwt>
<totfact> 0.81907708E+03</totfact>
</mgrwt>
</event>
<event>
 5    0  0.1324511E+000  0.2419989E+03  0.7546771E-02  0.1118468E+00
         21   -1    0    0  504  501  0.00000000000E+00  0.00000000000E+00  0.61782496467E+03  0.61782496467E+03  0.00000000000E+00 0.  1.
         21   -1    0    0  501  502 -0.00000000000E+00 -0.00000000000E+00 -0.18584265831E+04  0.18584265831E+04  0.00000000000E+00 0. -1.
         25    1    1    2    0    0 -0.28230079260E+02  0.20625661252E+03 -0.18219079738E+04  0.18380186050E+04  0.12500000000E+03 0.  0.
         21    1    1    2  503  502  0.86879753535E+02 -0.14025861039E+03  0.45612614011E+03  0.48504806469E+03  0.00000000000E+00 0.  1.
         21    1    1    2  504  503 -0.58649674275E+02 -0.65998002125E+02  0.12518021523E+03  0.15318487805E+03  0.00000000000E+00 0.  1.
<mgrwt>
<rscale>  4 0.24199893E+03</rscale>
<asrwt>0</asrwt>
<pdfrwt beam="1">  1       21 0.95049994E-01 0.24199893E+03</pdfrwt>
<pdfrwt beam="2">  1       21 0.28591178E+00 0.24199893E+03</pdfrwt>
<totfact> 0.35226565E+01</totfact>
</mgrwt>
</event>
<event>
 5    0  0.1324511E+000  0.2238313E+03  0.7546771E-02  0.1131058E+00
         21   -1    0    0  504  501  0.00000000000E+00  0.00000000000E+00  0.11259065266E+03  0.11259065266E+03  0.00000000000E+00 0. -1.
         21   -1    0    0  501  502 -0.00000000000E+00 -0.00000000000E+00 -0.15378859236E+04  0.15378859236E+04  0.00000000000E+00 0. -1.
         25    1    1    2    0    0 -0.13111059606E+03 -0.15397897166E+03 -0.13460834161E+04  0.13669180938E+04  0.12500000000E+03 0.  0.
         21    1    1    2  503  502  0.10983781165E+03  0.12523520717E+02  0.16030922868E+02  0.11170574707E+03  0.00000000000E+00 0. -1.
         21    1    1    2  504  503  0.21272784405E+02  0.14145545094E+03 -0.95242777777E+02  0.17185273544E+03  0.00000000000E+00 0. -1.
<mgrwt>
<rscale>  4 0.22383134E+03</rscale>
<asrwt>0</asrwt>
<pdfrwt beam="1">  1       21 0.17321639E-01 0.22383134E+03</pdfrwt>
<pdfrwt beam="2">  1       21 0.23659784E+00 0.22383134E+03</pdfrwt>
<totfact> 0.23293835E+03</totfact>
</mgrwt>
</event>
<event>
 5    0  0.1782472E+000  0.3924264E+03  0.7546771E-02  0.1046434E+00
         21   -1    0    0  504  501  0.00000000000E+00  0.00000000000E+00  0.55279139215E+03  0.55279139215E+03  0.00000000000E+00 0. -1.
         21   -1    0    0  501  502 -0.00000000000E+00 -0.00000000000E+00 -0.27607459229E+03  0.27607459229E+03  0.00000000000E+00 0. -1.
         25    1    1    2    0    0  0.28726110454E+03  0.23633565661E+03  0.18473787340E+03  0.43373559531E+03  0.12500000000E+03 0.  0.
         21    1    1    2  503  502 -0.26086812965E+03 -0.22377182590E+03  0.10990648632E+03  0.36083991862E+03  0.00000000000E+00 0. -1.
         21    1    1    2  504  503 -0.26392974888E+02 -0.12563830709E+02 -0.17927559855E+02  0.34290470512E+02  0.00000000000E+00 0.  1.
<mgrwt>
<rscale>  4 0.39242641E+03</rscale>
<asrwt>0</asrwt>
<pdfrwt beam="1">  1       21 0.85044829E-01 0.39242641E+03</pdfrwt>
<pdfrwt beam="2">  1       21 0.42473014E-01 0.39242641E+03</pdfrwt>
<totfact> 0.57398631E+03</totfact>
</mgrwt>
</event>
<event>
 5    0  0.1324511E+000  0.2780263E+03  0.7546771E-02  0.1096772E+00
         21   -1    0    0  504  501  0.00000000000E+00  0.00000000000E+00  0.59208903896E+03  0.59208903896E+03  0.00000000000E+00 0.  1.
         21   -1    0    0  501  502 -0.00000000000E+00 -0.00000000000E+00 -0.24952718520E+03  0.24952718520E+03  0.00000000000E+00 0.  1.
         25    1    1    2    0    0 -0.19845407009E+03 -0.14929700896E+03 -0.12415577253E+03  0.30448853947E+03  0.12500000000E+03 0.  0.
         21    1    1    2  503  502  0.11738430356E+03  0.30898101387E+02  0.23699921221E+03  0.26627503447E+03  0.00000000000E+00 0.  1.
         21    1    1    2  504  503  0.81069766521E+02  0.11839890757E+03  0.22971841408E+03  0.27085265021E+03  0.00000000000E+00 0.  1.
<mgrwt>
<rscale>  4 0.27802628E+03</rscale>
<asrwt>0</asrwt>
<pdfrwt beam="1">  1       21 0.91090621E-01 0.27802628E+03</pdfrwt>
<pdfrwt beam="2">  1       21 0.38388798E-01 0.27802628E+03</pdfrwt>
<totfact> 0.63277389E+03</totfact>
</mgrwt>
</event>
<event>
 5    0  0.1324511E+000  0.3738963E+03  0.7546771E-02  0.1053213E+00
         21   -1    0    0  504  501  0.00000000000E+00  0.00000000000E+00  0.41612552244E+03  0.41612552244E+03  0.00000000000E+00 0.  1.
         21   -1    0    0  501  502 -0.00000000000E+00 -0.00000000000E+00 -0.38680405333E+03  0.38680405333E+03  0.00000000000E+00 0.  1.
         25    1    1    2    0    0  0.27000920423E+03 -0.22642538045E+03 -0.15262840703E+03  0.40384880081E+03  0.12500000000E+03 0.  0.
         21    1    1    2  503  502 -0.17697154295E+02  0.24565583762E+02  0.27667613073E+02  0.41014070620E+02  0.00000000000E+00 0.  1.
         21    1    1    2  504  503 -0.25231204993E+03  0.20185979669E+03  0.15428226306E+03  0.35806670434E+03  0.00000000000E+00 0.  1.
<mgrwt>
<rscale>  4 0.37389627E+03</rscale>
<asrwt>0</asrwt>
<pdfrwt beam="1">  1       21 0.64019311E-01 0.37389627E+03</pdfrwt>
<pdfrwt beam="2">  1       21 0.59508316E-01 0.37389627E+03</pdfrwt>
<totfact> 0.53786683E+03</totfact>
</mgrwt>
</event>
<event>
 5    0  0.1324511E+000  0.2865602E+03  0.7546771E-02  0.1092159E+00
         21   -1    0    0  504  501  0.00000000000E+00  0.00000000000E+00  0.84797300830E+03  0.84797300830E+03  0.00000000000E+00 0.  1.
         21   -1    0    0  501  502 -0.00000000000E+00 -0.00000000000E+00 -0.11841729550E+03  0.11841729550E+03  0.00000000000E+00 0.  1.
         25    1    1    2    0    0  0.12904058081E+03 -0.22324931902E+03  0.14164429862E+03  0.31965581063E+03  0.12500000000E+03 0.  0.
         21    1    1    2  503  502 -0.12335667389E+03  0.18742749754E+03  0.55123858238E+03  0.59515536672E+03  0.00000000000E+00 0.  1.
         21    1    1    2  504  503 -0.56839069183E+01  0.35821821481E+02  0.36672831799E+02  0.51579126439E+02  0.00000000000E+00 0.  1.
<mgrwt>
<rscale>  4 0.28656017E+03</rscale>
<asrwt>0</asrwt>
<pdfrwt beam="1">  1       21 0.13045738E+00 0.28656017E+03</pdfrwt>
<pdfrwt beam="2">  1       21 0.18218046E-01 0.28656017E+03</pdfrwt>
<totfact> 0.11115197E+04</totfact>
</mgrwt>
</event>
<event>
 5    0  0.1324511E+000  0.2484821E+03  0.7546771E-02  0.1114268E+00
         21   -1    0    0  504  501  0.00000000000E+00  0.00000000000E+00  0.24084996059E+03  0.24084996059E+03  0.00000000000E+00 0. -1.
         21   -1    0    0  501  502 -0.00000000000E+00 -0.00000000000E+00 -0.54026629630E+03  0.54026629630E+03  0.00000000000E+00 0.  1.
         25    1    1    2    0    0  0.23381720893E+03 -0.53560518534E+02 -0.41604164050E+03  0.49624073086E+03  0.12500000000E+03 0.  0.
         21    1    1    2  503  502 -0.24534290503E+02  0.22434577468E+02 -0.14157430166E+02  0.36134118303E+02  0.00000000000E+00 0. -1.
         21    1    1    2  504  503 -0.20928291843E+03  0.31125941066E+02  0.13078273496E+03  0.24874140773E+03  0.00000000000E+00 0. -1.
<mgrwt>
<rscale>  4 0.24848208E+03</rscale>
<asrwt>0</asrwt>
<pdfrwt beam="1">  1       21 0.37053840E-01 0.24848208E+03</pdfrwt>
<pdfrwt beam="2">  1       21 0.83117891E-01 0.24848208E+03</pdfrwt>
<totfact> 0.85435585E+03</totfact>
</mgrwt>
</event>
<event>
 5    0  0.1324511E+000  0.2466164E+03  0.7546771E-02  0.1115462E+00
         21   -1    0    0  504  501  0.00000000000E+00  0.00000000000E+00  0.10484381987E+03  0.10484381987E+03  0.00000000000E+00 0.  1.
         21   -1    0    0  501  502 -0.00000000000E+00 -0.00000000000E+00 -0.51487886799E+03  0.51487886799E+03  0.00000000000E+00 0.  1.
         25    1    1    2    0    0  0.12573328510E+03 -0.17142287143E+03 -0.22560198539E+03  0.33423930895E+03  0.12500000000E+03 0.  0.
         21    1    1    2  503  502 -0.47633577400E+01  0.21838431248E+02 -0.36514471799E+02  0.42812536798E+02  0.00000000000E+00 0.  1.
         21    1    1    2  504  503 -0.12096992736E+03  0.14958444018E+03 -0.14791859094E+03  0.24267084212E+03  0.00000000000E+00 0.  1.
<mgrwt>
<rscale>  4 0.24661642E+03</rscale>
<asrwt>0</asrwt>
<pdfrwt beam="1">  1       21 0.16129819E-01 0.24661642E+03</pdfrwt>
<pdfrwt beam="2">  1       21 0.79212133E-01 0.24661642E+03</pdfrwt>
<totfact> 0.47123570E+04</totfact>
</mgrwt>
</event>
<event>
 5    0  0.1324511E+000  0.5126204E+03  0.7546771E-02  0.1010536E+00
         21   -1    0    0  504  501  0.00000000000E+00  0.00000000000E+00  0.76615538045E+03  0.76615538045E+03  0.00000000000E+00 0. -1.
         21   -1    0    0  501  502 -0.00000000000E+00 -0.00000000000E+00 -0.86575902205E+03  0.86575902205E+03  0.00000000000E+00 0. -1.
         25    1    1    2    0    0  0.48459132521E+03  0.11404421575E+03 -0.67601462762E+03  0.84879656713E+03  0.12500000000E+03 0.  0.
         21    1    1    2  503  502  0.22151641622E+01 -0.35332385555E+02  0.24831827850E+02  0.43242387719E+02  0.00000000000E+00 0.  1.
         21    1    1    2  504  503 -0.48680648937E+03 -0.78711830192E+02  0.55157915817E+03  0.73987544765E+03  0.00000000000E+00 0. -1.
<mgrwt>
<rscale>  4 0.51262039E+03</rscale>
<asrwt>0</asrwt>
<pdfrwt beam="1">  1       21 0.11787006E+00 0.51262039E+03</pdfrwt>
<pdfrwt beam="2">  1       21 0.13319370E+00 0.51262039E+03</pdfrwt>
<totfact> 0.17758495E+02</totfact>
</mgrwt>
</event>
<event>
 5    0  0.1324511E+000  0.2449590E+03  0.7546771E-02  0.1116533E+00
         21   -1    0    0  504  501  0.00000000000E+00  0.00000000000E+00  0.26034813191E+03  0.26034813191E+03  0.00000000000E+00 0.  1.
         21   -1    0    0  501  502 -0.00000000000E+00 -0.00000000000E+00 -0.21465910087E+03  0.21465910087E+03  0.00000000000E+00 0.  1.
         25    1    1    2    0    0 -0.19731793275E+03 -0.73793923916E+02  0.86174350771E+01  0.24511052605E+03  0.12500000000E+03 0.  0.
         21    1    1    2  503  502  0.18004634132E+03  0.38462900595E+02  0.45564524068E+02  0.18966340079E+03  0.00000000000E+00 0.  1.
         21    1    1    2  504  503  0.17271591427E+02  0.35331023321E+02 -0.84929281084E+01  0.40233305944E+02  0.00000000000E+00 0.  1.
<mgrwt>
<rscale>  4 0.24495900E+03</rscale>
<asrwt>0</asrwt>
<pdfrwt beam="1">  1       21 0.40053559E-01 0.24495900E+03</pdfrwt>
<pdfrwt beam="2">  1       21 0.33024477E-01 0.24495900E+03</pdfrwt>
<totfact> 0.51811561E+04</totfact>
</mgrwt>
</event>
<event>
 5    0  0.1324511E+000  0.3288983E+03  0.7546771E-02  0.1071625E+00
         21   -1    0    0  504  501  0.00000000000E+00  0.00000000000E+00  0.65535624462E+03  0.65535624462E+03  0.00000000000E+00 0.  1.
         21   -1    0    0  501  502 -0.00000000000E+00 -0.00000000000E+00 -0.25216835828E+03  0.25216835828E+03  0.00000000000E+00 0.  1.
         25    1    1    2    0    0 -0.14985898122E+03  0.26474770542E+03 -0.75560251218E+02  0.33746616621E+03  0.12500000000E+03 0.  0.
         21    1    1    2  503  502  0.13576652657E+03 -0.24154959108E+03  0.46020942523E+03  0.53718848625E+03  0.00000000000E+00 0.  1.
         21    1    1    2  504  503  0.14092454652E+02 -0.23198114332E+02  0.18538712325E+02  0.32869950432E+02  0.00000000000E+00 0. -1.
<mgrwt>
<rscale>  4 0.32889825E+03</rscale>
<asrwt>0</asrwt>
<pdfrwt beam="1">  1       21 0.10082404E+00 0.32889825E+03</pdfrwt>
<pdfrwt beam="2">  1       21 0.38795132E-01 0.32889825E+03</pdfrwt>
<totfact> 0.47432072E+03</totfact>
</mgrwt>
</event>
<event>
 5    0  0.1324511E+000  0.3004251E+03  0.7546771E-02  0.1085028E+00
         21   -1    0    0  504  501  0.00000000000E+00  0.00000000000E+00  0.13829493847E+03  0.13829493847E+03  0.00000000000E+00 0. -1.
         21   -1    0    0  501  502 -0.00000000000E+00 -0.00000000000E+00 -0.13579182259E+04  0.13579182259E+04  0.00000000000E+00 0. -1.
         25    1    1    2    0    0 -0.17354600571E+03  0.21097874597E+03 -0.11726805575E+04  0.12105515013E+04  0.12500000000E+03 0.  0.
         21    1    1    2  503  502  0.14915760523E+03 -0.14153192189E+03 -0.17416351109E+02  0.20635553154E+03  0.00000000000E+00 0. -1.
         21    1    1    2  504  503  0.24388400477E+02 -0.69446824081E+02 -0.29526378799E+02  0.79306131527E+02  0.00000000000E+00 0. -1.
<mgrwt>
<rscale>  4 0.30042511E+03</rscale>
<asrwt>0</asrwt>
<pdfrwt beam="1">  1       21 0.21276144E-01 0.30042511E+03</pdfrwt>
<pdfrwt beam="2">  1       21 0.20891050E+00 0.30042511E+03</pdfrwt>
<totfact> 0.22144100E+03</totfact>
</mgrwt>
</event>
<event>
 5    0  0.1324511E+000  0.2442858E+03  0.7546771E-02  0.1116970E+00
         21   -1    0    0  504  501  0.00000000000E+00  0.00000000000E+00  0.22823121899E+03  0.22823121899E+03  0.00000000000E+00 0.  1.
         21   -1    0    0  501  502 -0.00000000000E+00 -0.00000000000E+00 -0.24404190455E+03  0.24404190455E+03  0.00000000000E+00 0.  1.
         25    1    1    2    0    0  0.10743403324E+03 -0.18030112260E+03 -0.68422178861E+02  0.25368713185E+03  0.12500000000E+03 0.  0.
         21    1    1    2  503  502 -0.74963828984E+01  0.27939017760E+02  0.14789120777E+02  0.32488498939E+02  0.00000000000E+00 0.  1.
         21    1    1    2  504  503 -0.99937650339E+02  0.15236210484E+03  0.37822372522E+02  0.18609749275E+03  0.00000000000E+00 0.  1.
<mgrwt>
<rscale>  4 0.24428583E+03</rscale>
<asrwt>0</asrwt>
<pdfrwt beam="1">  1       21 0.35112495E-01 0.24428583E+03</pdfrwt>
<pdfrwt beam="2">  1       21 0.37544908E-01 0.24428583E+03</pdfrwt>
<totfact> 0.52286455E+04</totfact>
</mgrwt>
</event>
<event>
 5    0  0.1324511E+000  0.2967829E+03  0.7546771E-02  0.1086860E+00
         21   -1    0    0  504  501  0.00000000000E+00  0.00000000000E+00  0.27071293517E+03  0.27071293517E+03  0.00000000000E+00 0.  1.
         21   -1    0    0  501  502 -0.00000000000E+00 -0.00000000000E+00 -0.32098263202E+03  0.32098263202E+03  0.00000000000E+00 0.  1.
         25    1    1    2    0    0 -0.16752190292E+01  0.26916964959E+03  0.29768232657E+02  0.29827211451E+03  0.12500000000E+03 0.  0.
         21    1    1    2  503  502  0.14403790598E+02 -0.10366182181E+03 -0.72384086064E+02  0.12725053399E+03  0.00000000000E+00 0. -1.
         21    1    1    2  504  503 -0.12728571569E+02 -0.16550782778E+03 -0.76538434448E+01  0.16617291870E+03  0.00000000000E+00 0.  1.
<mgrwt>
<rscale>  4 0.29678293E+03</rscale>
<asrwt>0</asrwt>
<pdfrwt beam="1">  1       21 0.41648144E-01 0.29678293E+03</pdfrwt>
<pdfrwt beam="2">  1       21 0.49381944E-01 0.29678293E+03</pdfrwt>
<totfact> 0.20619197E+04</totfact>
</mgrwt>
</event>
<event>
 5    0  0.1324511E+000  0.2355156E+03  0.7546771E-02  0.1122817E+00
         21   -1    0    0  504  501  0.00000000000E+00  0.00000000000E+00  0.23814421159E+03  0.23814421159E+03  0.00000000000E+00 0.  1.
         21   -1    0    0  501  502 -0.00000000000E+00 -0.00000000000E+00 -0.71831269332E+03  0.71831269332E+03  0.00000000000E+00 0.  1.
         25    1    1    2    0    0 -0.11597056950E+03 -0.19304051353E+03 -0.61492239003E+03  0.66668460205E+03  0.12500000000E+03 0.  0.
         21    1    1    2  503  502  0.82495977188E+02  0.10171570833E+03  0.96695920759E+01  0.13132087642E+03  0.00000000000E+00 0.  1.
         21    1    1    2  504  503  0.33474592315E+02  0.91324805209E+02  0.12508431622E+03  0.15845142644E+03  0.00000000000E+00 0.  1.
<mgrwt>
<rscale>  4 0.23551563E+03</rscale>
<asrwt>0</asrwt>
<pdfrwt beam="1">  1       21 0.36637572E-01 0.23551563E+03</pdfrwt>
<pdfrwt beam="2">  1       21 0.11050964E+00 0.23551563E+03</pdfrwt>
<totfact> 0.44918782E+03</totfact>
</mgrwt>
</event>
<event>
 5    0  0.1324511E+000  0.2943290E+03  0.7546771E-02  0.1088110E+00
         21   -1    0    0  504  501  0.00000000000E+00  0.00000000000E+00  0.99722432850E+02  0.99722432850E+02  0.00000000000E+00 0. -1.
         21   -1    0    0  501  502 -0.00000000000E+00 -0.00000000000E+00 -0.86420889658E+03  0.86420889658E+03  0.00000000000E+00 0. -1.
         25    1    1    2    0    0 -0.20359545799E+03 -0.17191120473E+03 -0.50353435666E+03  0.58324644976E+03  0.12500000000E+03 0.  0.
         21    1    1    2  503  502  0.14835927096E+03  0.13363173129E+03 -0.14535981629E+03  0.24697649499E+03  0.00000000000E+00 0. -1.
         21    1    1    2  504  503  0.55236187031E+02  0.38279473435E+02 -0.11559229078E+03  0.13370838467E+03  0.00000000000E+00 0.  1.
<mgrwt>
<rscale>  4 0.29432902E+03</rscale>
<asrwt>0</asrwt>
<pdfrwt beam="1">  1       21 0.15341912E-01 0.29432902E+03</pdfrwt>
<pdfrwt beam="2">  1       21 0.13295522E+00 0.29432902E+03</pdfrwt>
<totfact> 0.14506949E+04</totfact>
</mgrwt>
</event>
<event>
 5    0  0.1324511E+000  0.2533109E+03  0.7546771E-02  0.1111230E+00
         21   -1    0    0  504  501  0.00000000000E+00  0.00000000000E+00  0.47713041504E+03  0.47713041504E+03  0.00000000000E+00 0.  1.
         21   -1    0    0  501  502 -0.00000000000E+00 -0.00000000000E+00 -0.21116222042E+03  0.21116222042E+03  0.00000000000E+00 0.  1.
         25    1    1    2    0    0 -0.14940322128E+03  0.16192614032E+03 -0.87549131443E+02  0.26801352180E+03  0.12500000000E+03 0.  0.
         21    1    1    2  503  502  0.46878478897E+02 -0.78912842230E+02  0.18262189700E+03  0.20439076720E+03  0.00000000000E+00 0.  1.
         21    1    1    2  504  503  0.10252474239E+03 -0.83013298095E+02  0.17089542907E+03  0.21588834646E+03  0.00000000000E+00 0.  1.
<mgrwt>
<rscale>  4 0.25331087E+03</rscale>
<asrwt>0</asrwt>
<pdfrwt beam="1">  1       21 0.73404679E-01 0.25331087E+03</pdfrwt>
<pdfrwt beam="2">  1       21 0.32486496E-01 0.25331087E+03</pdfrwt>
<totfact> 0.14682968E+04</totfact>
</mgrwt>
</event>
<event>
 5    0  0.1324511E+000  0.4866352E+03  0.7546771E-02  0.1017327E+00
         21   -1    0    0  504  501  0.00000000000E+00  0.00000000000E+00  0.64398351772E+03  0.64398351772E+03  0.00000000000E+00 0. -1.
         21   -1    0    0  501  502 -0.00000000000E+00 -0.00000000000E+00 -0.60846122735E+03  0.60846122735E+03  0.00000000000E+00 0. -1.
         25    1    1    2    0    0 -0.34509402317E+03  0.31952916540E+03 -0.37989951425E+03  0.61736327498E+03  0.12500000000E+03 0.  0.
         21    1    1    2  503  502  0.90962168938E+02 -0.14809377573E+03  0.15303037026E+03  0.23156894613E+03  0.00000000000E+00 0. -1.
         21    1    1    2  504  503  0.25413185423E+03 -0.17143538967E+03  0.26239143435E+03  0.40351252396E+03  0.00000000000E+00 0. -1.
<mgrwt>
<rscale>  4 0.48663515E+03</rscale>
<asrwt>0</asrwt>
<pdfrwt beam="1">  1       21 0.99074387E-01 0.48663515E+03</pdfrwt>
<pdfrwt beam="2">  1       21 0.93609420E-01 0.48663515E+03</pdfrwt>
<totfact> 0.66786575E+02</totfact>
</mgrwt>
</event>
<event>
 5    0  0.1324511E+000  0.2523152E+03  0.7546771E-02  0.1111850E+00
         21   -1    0    0  504  501  0.00000000000E+00  0.00000000000E+00  0.35009340754E+03  0.35009340754E+03  0.00000000000E+00 0. -1.
         21   -1    0    0  501  502 -0.00000000000E+00 -0.00000000000E+00 -0.29133540745E+03  0.29133540745E+03  0.00000000000E+00 0. -1.
         25    1    1    2    0    0 -0.18623363285E+03 -0.17156357971E+03 -0.10731730811E+03  0.30209109969E+03  0.12500000000E+03 0.  0.
         21    1    1    2  503  502  0.17557003865E+02  0.10326829386E+03  0.10254689077E+03  0.14658940517E+03  0.00000000000E+00 0. -1.
         21    1    1    2  504  503  0.16867662899E+03  0.68295285850E+02  0.63528417420E+02  0.19274831013E+03  0.00000000000E+00 0. -1.
<mgrwt>
<rscale>  4 0.25231520E+03</rscale>
<asrwt>0</asrwt>
<pdfrwt beam="1">  1       21 0.53860524E-01 0.25231520E+03</pdfrwt>
<pdfrwt beam="2">  1       21 0.44820832E-01 0.25231520E+03</pdfrwt>
<totfact> 0.15051865E+04</totfact>
</mgrwt>
</event>
<event>
 5    0  0.1324511E+000  0.2442090E+03  0.7546771E-02  0.1117020E+00
         21   -1    0    0  504  501  0.00000000000E+00  0.00000000000E+00  0.27657659784E+03  0.27657659784E+03  0.00000000000E+00 0.  1.
         21   -1    0    0  501  502 -0.00000000000E+00 -0.00000000000E+00 -0.26423944022E+03  0.26423944022E+03  0.00000000000E+00 0.  1.
         25    1    1    2    0    0 -0.11655143917E+03  0.17825862397E+03 -0.11185251418E+03  0.27110212083E+03  0.12500000000E+03 0.  0.
         21    1    1    2  503  502  0.29056740613E+02  0.69765563669E+01  0.35710054235E+02  0.46563660587E+02  0.00000000000E+00 0.  1.
         21    1    1    2  504  503  0.87494698557E+02 -0.18523518034E+03  0.88479617571E+02  0.22315025663E+03  0.00000000000E+00 0.  1.
<mgrwt>
<rscale>  4 0.24420897E+03</rscale>
<asrwt>0</asrwt>
<pdfrwt beam="1">  1       21 0.42550246E-01 0.24420897E+03</pdfrwt>
<pdfrwt beam="2">  1       21 0.40652222E-01 0.24420897E+03</pdfrwt>
<totfact> 0.30179416E+04</totfact>
</mgrwt>
</event>
<event>
 5    0  0.1324511E+000  0.2496135E+03  0.7546771E-02  0.1113549E+00
         21   -1    0    0  504  501  0.00000000000E+00  0.00000000000E+00  0.10249038119E+04  0.10249038119E+04  0.00000000000E+00 0. -1.
         21   -1    0    0  501  502 -0.00000000000E+00 -0.00000000000E+00 -0.10114812387E+03  0.10114812387E+03  0.00000000000E+00 0. -1.
         25    1    1    2    0    0  0.38098206665E+02  0.21267447109E+03  0.93544898756E+02  0.26656622458E+03  0.12500000000E+03 0.  0.
         21    1    1    2  503  502 -0.29901839447E+02 -0.16820051037E+03  0.55873569270E+03  0.58426972024E+03  0.00000000000E+00 0. -1.
         21    1    1    2  504  503 -0.81963672179E+01 -0.44473960720E+02  0.27147509661E+03  0.27521599099E+03  0.00000000000E+00 0. -1.
<mgrwt>
<rscale>  4 0.24961351E+03</rscale>
<asrwt>0</asrwt>
<pdfrwt beam="1">  1       21 0.15767750E+00 0.24961351E+03</pdfrwt>
<pdfrwt beam="2">  1       21 0.15561251E-01 0.24961351E+03</pdfrwt>
<totfact> 0.92278804E+03</totfact>
</mgrwt>
</event>
<event>
 5    0  0.1324511E+000  0.2769174E+03  0.7546771E-02  0.1097385E+00
         21   -1    0    0  504  501  0.00000000000E+00  0.00000000000E+00  0.59409319255E+03  0.59409319255E+03  0.00000000000E+00 0.  1.
         21   -1    0    0  501  502 -0.00000000000E+00 -0.00000000000E+00 -0.37493819970E+03  0.37493819970E+03  0.00000000000E+00 0. -1.
         25    1    1    2    0    0 -0.41615452855E+02 -0.24357011252E+03 -0.28945901657E+03  0.40058677950E+03  0.12500000000E+03 0.  0.
         21    1    1    2  503  502  0.30218080867E+02  0.22021622074E+03  0.48422419073E+03  0.53280520191E+03  0.00000000000E+00 0.  1.
         21    1    1    2  504  503  0.11397371988E+02  0.23353891786E+02  0.24389818697E+02  0.35639410851E+02  0.00000000000E+00 0. -1.
<mgrwt>
<rscale>  4 0.27691740E+03</rscale>
<asrwt>0</asrwt>
<pdfrwt beam="1">  1       21 0.91398952E-01 0.27691740E+03</pdfrwt>
<pdfrwt beam="2">  1       21 0.57682800E-01 0.27691740E+03</pdfrwt>
<totfact> 0.26859491E+03</totfact>
</mgrwt>
</event>
<event>
 5    0  0.1324511E+000  0.2086987E+03  0.7546771E-02  0.1142601E+00
         21   -1    0    0  504  501  0.00000000000E+00  0.00000000000E+00  0.64337018154E+02  0.64337018154E+02  0.00000000000E+00 0. -1.
         21   -1    0    0  501  502 -0.00000000000E+00 -0.00000000000E+00 -0.10283079398E+04  0.10283079398E+04  0.00000000000E+00 0. -1.
         25    1    1    2    0    0  0.15951659306E+03  0.13550675793E+03 -0.68466049308E+03  0.72676861221E+03  0.12500000000E+03 0.  0.
         21    1    1    2  503  502 -0.13602156903E+03 -0.79911339428E+02 -0.12861155240E+03  0.20354021918E+03  0.00000000000E+00 0. -1.
         21    1    1    2  504  503 -0.23495024025E+02 -0.55595418498E+02 -0.15069887612E+03  0.16233612652E+03  0.00000000000E+00 0. -1.
<mgrwt>
<rscale>  4 0.20869875E+03</rscale>
<asrwt>0</asrwt>
<pdfrwt beam="1">  1       21 0.98980027E-02 0.20869875E+03</pdfrwt>
<pdfrwt beam="2">  1       21 0.15820122E+00 0.20869875E+03</pdfrwt>
<totfact> 0.21209710E+04</totfact>
</mgrwt>
</event>
<event>
 5    0  0.1324511E+000  0.2393695E+03  0.7546771E-02  0.1120214E+00
         21   -1    0    0  504  501  0.00000000000E+00  0.00000000000E+00  0.12627502503E+03  0.12627502503E+03  0.00000000000E+00 0. -1.
         21   -1    0    0  501  502 -0.00000000000E+00 -0.00000000000E+00 -0.42636641540E+03  0.42636641540E+03  0.00000000000E+00 0. -1.
         25    1    1    2    0    0  0.19136047963E+03  0.71090907809E+02 -0.17881609795E+03  0.29878578819E+03  0.12500000000E+03 0.  0.
         21    1    1    2  503  502 -0.66038126364E+02 -0.22612785558E+02  0.43070936679E+01  0.69935136092E+02  0.00000000000E+00 0. -1.
         21    1    1    2  504  503 -0.12532235326E+03 -0.48478122251E+02 -0.12558238609E+03  0.18392051615E+03  0.00000000000E+00 0. -1.
<mgrwt>
<rscale>  4 0.23936948E+03</rscale>
<asrwt>0</asrwt>
<pdfrwt beam="1">  1       21 0.19426927E-01 0.23936948E+03</pdfrwt>
<pdfrwt beam="2">  1       21 0.65594832E-01 0.23936948E+03</pdfrwt>
<totfact> 0.50968556E+04</totfact>
</mgrwt>
</event>
<event>
 5    0  0.1324511E+000  0.2627583E+03  0.7546771E-02  0.1105497E+00
         21   -1    0    0  504  501  0.00000000000E+00  0.00000000000E+00  0.31132496168E+04  0.31132496168E+04  0.00000000000E+00 0. -1.
         21   -1    0    0  501  502 -0.00000000000E+00 -0.00000000000E+00 -0.19870261400E+02  0.19870261400E+02  0.00000000000E+00 0. -1.
         25    1    1    2    0    0 -0.14088459644E+03 -0.18321691884E+03  0.16948189058E+04  0.17150664805E+04  0.12500000000E+03 0.  0.
         21    1    1    2  503  502  0.12801850202E+03  0.15169511796E+03  0.12483850362E+04  0.12640669857E+04  0.00000000000E+00 0. -1.
         21    1    1    2  504  503  0.12866094422E+02  0.31521800880E+02  0.15017541334E+03  0.15398641202E+03  0.00000000000E+00 0. -1.
<mgrwt>
<rscale>  4 0.26275827E+03</rscale>
<asrwt>0</asrwt>
<pdfrwt beam="1">  1       21 0.47896109E+00 0.26275827E+03</pdfrwt>
<pdfrwt beam="2">  1       21 0.30569658E-02 0.26275827E+03</pdfrwt>
<totfact> 0.14834587E+03</totfact>
</mgrwt>
</event>
<event>
 5    0  0.1324511E+000  0.2511583E+03  0.7546771E-02  0.1112575E+00
         21   -1    0    0  504  501  0.00000000000E+00  0.00000000000E+00  0.12280731556E+04  0.12280731556E+04  0.00000000000E+00 0.  1.
         21   -1    0    0  501  502 -0.00000000000E+00 -0.00000000000E+00 -0.45495129036E+03  0.45495129036E+03  0.00000000000E+00 0. -1.
         25    1    1    2    0    0  0.67637627300E+02  0.20827546223E+03 -0.40639493392E+03  0.47826285566E+03  0.12500000000E+03 0.  0.
         21    1    1    2  503  502 -0.51310203839E+02 -0.17480825176E+03  0.11187948390E+04  0.11335310114E+04  0.00000000000E+00 0.  1.
         21    1    1    2  504  503 -0.16327423462E+02 -0.33467210468E+02  0.60721960169E+02  0.71230578968E+02  0.00000000000E+00 0.  1.
<mgrwt>
<rscale>  4 0.25115826E+03</rscale>
<asrwt>0</asrwt>
<pdfrwt beam="1">  1       21 0.18893433E+00 0.25115826E+03</pdfrwt>
<pdfrwt beam="2">  1       21 0.69992506E-01 0.25115826E+03</pdfrwt>
<totfact> 0.27504685E+02</totfact>
</mgrwt>
</event>
<event>
 5    0  0.1324511E+000  0.2520830E+03  0.7546771E-02  0.1111995E+00
         21   -1    0    0  504  501  0.00000000000E+00  0.00000000000E+00  0.72158259758E+03  0.72158259758E+03  0.00000000000E+00 0.  1.
         21   -1    0    0  501  502 -0.00000000000E+00 -0.00000000000E+00 -0.58875042612E+03  0.58875042612E+03  0.00000000000E+00 0.  1.
         25    1    1    2    0    0  0.15565736504E+03 -0.15965820709E+03 -0.53515511550E+03  0.59307331421E+03  0.12500000000E+03 0.  0.
         21    1    1    2  503  502 -0.60707138488E+02  0.14783237272E+03  0.48676912639E+03  0.51233187437E+03  0.00000000000E+00 0.  1.
         21    1    1    2  504  503 -0.94950226553E+02  0.11825834368E+02  0.18121816058E+03  0.20492783511E+03  0.00000000000E+00 0.  1.
<mgrwt>
<rscale>  4 0.25208304E+03</rscale>
<asrwt>0</asrwt>
<pdfrwt beam="1">  1       21 0.11101271E+00 0.25208304E+03</pdfrwt>
<pdfrwt beam="2">  1       21 0.90576989E-01 0.25208304E+03</pdfrwt>
<totfact> 0.62469628E+02</totfact>
</mgrwt>
</event>
<event>
 5    0  0.1324511E+000  0.2626280E+03  0.7546771E-02  0.1105574E+00
         21   -1    0    0  504  501  0.00000000000E+00  0.00000000000E+00  0.10360412015E+04  0.10360412015E+04  0.00000000000E+00 0.  1.
         21   -1    0    0  501  502 -0.00000000000E+00 -0.00000000000E+00 -0.84509507136E+02  0.84509507136E+02  0.00000000000E+00 0.  1.
         25    1    1    2    0    0 -0.23131158014E+03  0.31481318853E+02  0.21964165242E+03  0.34404007909E+03  0.12500000000E+03 0.  0.
         21    1    1    2  503  502  0.22602909546E+03 -0.27538274006E+01  0.68433193619E+03  0.72069892080E+03  0.00000000000E+00 0.  1.
         21    1    1    2  504  503  0.52824846747E+01 -0.28727491453E+02  0.47558105736E+02  0.55811708724E+02  0.00000000000E+00 0. -1.
<mgrwt>
<rscale>  4 0.26262801E+03</rscale>
<asrwt>0</asrwt>
<pdfrwt beam="1">  1       21 0.15939094E+00 0.26262801E+03</pdfrwt>
<pdfrwt beam="2">  1       21 0.13001463E-01 0.26262801E+03</pdfrwt>
<totfact> 0.12344223E+04</totfact>
</mgrwt>
</event>
<event>
 5    0  0.1324511E+000  0.2113870E+03  0.7546771E-02  0.1140472E+00
         21   -1    0    0  504  501  0.00000000000E+00  0.00000000000E+00  0.16582895549E+03  0.16582895549E+03  0.00000000000E+00 0.  1.
         21   -1    0    0  501  502 -0.00000000000E+00 -0.00000000000E+00 -0.40085376285E+03  0.40085376285E+03  0.00000000000E+00 0. -1.
         25    1    1    2    0    0 -0.18096857951E+03  0.11321850048E+03 -0.17134202168E+03  0.30091717135E+03  0.12500000000E+03 0.  0.
         21    1    1    2  503  502  0.13329502443E+03 -0.85281410455E+02  0.26062349676E+02  0.16037371536E+03  0.00000000000E+00 0.  1.
         21    1    1    2  504  503  0.47673555078E+02 -0.27937090024E+02 -0.89745135356E+02  0.10539183162E+03  0.00000000000E+00 0.  1.
<mgrwt>
<rscale>  4 0.21138703E+03</rscale>
<asrwt>0</asrwt>
<pdfrwt beam="1">  1       21 0.25512147E-01 0.21138703E+03</pdfrwt>
<pdfrwt beam="2">  1       21 0.61669809E-01 0.21138703E+03</pdfrwt>
<totfact> 0.35240740E+04</totfact>
</mgrwt>
</event>
<event>
 5    0  0.1324511E+000  0.3175324E+03  0.7546771E-02  0.1076791E+00
         21   -1    0    0  504  501  0.00000000000E+00  0.00000000000E+00  0.69029353019E+03  0.69029353019E+03  0.00000000000E+00 0. -1.
         21   -1    0    0  501  502 -0.00000000000E+00 -0.00000000000E+00 -0.17269600562E+03  0.17269600562E+03  0.00000000000E+00 0. -1.
         25    1    1    2    0    0  0.28300081093E+03  0.10262750190E+03  0.13594285678E+03  0.35316755718E+03  0.12500000000E+03 0.  0.
         21    1    1    2  503  502 -0.27670615522E+03 -0.46277597499E+02  0.32980678613E+03  0.43299010213E+03  0.00000000000E+00 0. -1.
         21    1    1    2  504  503 -0.62946557101E+01 -0.56349904398E+02  0.51847881657E+02  0.76831876513E+02  0.00000000000E+00 0.  1.
<mgrwt>
<rscale>  4 0.31753245E+03</rscale>
<asrwt>0</asrwt>
<pdfrwt beam="1">  1       21 0.10619900E+00 0.31753245E+03</pdfrwt>
<pdfrwt beam="2">  1       21 0.26568617E-01 0.31753245E+03</pdfrwt>
<totfact> 0.89234084E+03</totfact>
</mgrwt>
</event>
<event>
 5    0  0.1324511E+000  0.2751740E+03  0.7546771E-02  0.1098354E+00
         21   -1    0    0  504  501  0.00000000000E+00  0.00000000000E+00  0.11822120006E+04  0.11822120006E+04  0.00000000000E+00 0.  1.
         21   -1    0    0  501  502 -0.00000000000E+00 -0.00000000000E+00 -0.59493255024E+02  0.59493255024E+02  0.00000000000E+00 0.  1.
         25    1    1    2    0    0 -0.24220124148E+03 -0.37871782875E+02  0.48298454397E+03  0.55587299182E+03  0.12500000000E+03 0.  0.
         21    1    1    2  503  502  0.21488461811E+03  0.33607157653E+02  0.59172819491E+03  0.63043405429E+03  0.00000000000E+00 0.  1.
         21    1    1    2  504  503  0.27316623370E+02  0.42646252221E+01  0.48006006731E+02  0.55398209564E+02  0.00000000000E+00 0. -1.
<mgrwt>
<rscale>  4 0.27517397E+03</rscale>
<asrwt>0</asrwt>
<pdfrwt beam="1">  1       21 0.18187875E+00 0.27517397E+03</pdfrwt>
<pdfrwt beam="2">  1       21 0.91528094E-02 0.27517397E+03</pdfrwt>
<totfact> 0.15888341E+04</totfact>
</mgrwt>
</event>
<event>
 5    0  0.1324511E+000  0.2385408E+03  0.7546771E-02  0.1120769E+00
         21   -1    0    0  504  501  0.00000000000E+00  0.00000000000E+00  0.33395547883E+02  0.33395547883E+02  0.00000000000E+00 0. -1.
         21   -1    0    0  501  502 -0.00000000000E+00 -0.00000000000E+00 -0.18939004303E+04  0.18939004303E+04  0.00000000000E+00 0. -1.
         25    1    1    2    0    0 -0.21190423897E+01  0.20315568219E+03 -0.13869718464E+04  0.14073352920E+04  0.12500000000E+03 0.  0.
         21    1    1    2  503  502  0.86034803670E+01 -0.16442243563E+03 -0.30176076816E+03  0.34375619036E+03  0.00000000000E+00 0. -1.
         21    1    1    2  504  503 -0.64844379773E+01 -0.38733246563E+02 -0.17177226786E+03  0.17620449578E+03  0.00000000000E+00 0. -1.
<mgrwt>
<rscale>  4 0.23854082E+03</rscale>
<asrwt>0</asrwt>
<pdfrwt beam="1">  1       21 0.51377791E-02 0.23854082E+03</pdfrwt>
<pdfrwt beam="2">  1       21 0.29136915E+00 0.23854082E+03</pdfrwt>
<totfact> 0.94027378E+03</totfact>
</mgrwt>
</event>
<event>
 5    0  0.1324511E+000  0.2641832E+03  0.7546771E-02  0.1104656E+00
         21   -1    0    0  504  501  0.00000000000E+00  0.00000000000E+00  0.15138172135E+03  0.15138172135E+03  0.00000000000E+00 0. -1.
         21   -1    0    0  501  502 -0.00000000000E+00 -0.00000000000E+00 -0.21875620608E+04  0.21875620608E+04  0.00000000000E+00 0. -1.
         25    1    1    2    0    0  0.21409358092E+03  0.98112325687E+02 -0.20280263104E+04  0.20454774028E+04  0.12500000000E+03 0.  0.
         21    1    1    2  503  502 -0.19948162999E+03 -0.27911615352E+02  0.42262646379E+02  0.20581086039E+03  0.00000000000E+00 0. -1.
         21    1    1    2  504  503 -0.14611950926E+02 -0.70200710335E+02 -0.50416675494E+02  0.87655518989E+02  0.00000000000E+00 0. -1.
<mgrwt>
<rscale>  4 0.26418318E+03</rscale>
<asrwt>0</asrwt>
<pdfrwt beam="1">  1       21 0.23289496E-01 0.26418318E+03</pdfrwt>
<pdfrwt beam="2">  1       21 0.33654800E+00 0.26418318E+03</pdfrwt>
<totfact> 0.33055728E+02</totfact>
</mgrwt>
</event>
<event>
 5    0  0.1324511E+000  0.2777338E+03  0.7546771E-02  0.1096933E+00
         21   -1    0    0  504  501  0.00000000000E+00  0.00000000000E+00  0.19228341802E+03  0.19228341802E+03  0.00000000000E+00 0. -1.
         21   -1    0    0  501  502 -0.00000000000E+00 -0.00000000000E+00 -0.64034948814E+03  0.64034948814E+03  0.00000000000E+00 0. -1.
         25    1    1    2    0    0  0.23693201974E+03  0.73309437928E+02 -0.48265126031E+03  0.55685572166E+03  0.12500000000E+03 0.  0.
         21    1    1    2  503  502 -0.79377115157E+02 -0.62417356809E+02  0.57485118874E+02  0.11619462868E+03  0.00000000000E+00 0. -1.
         21    1    1    2  504  503 -0.15755490458E+03 -0.10892081119E+02 -0.22899928680E+02  0.15958255582E+03  0.00000000000E+00 0. -1.
<mgrwt>
<rscale>  4 0.27773379E+03</rscale>
<asrwt>0</asrwt>
<pdfrwt beam="1">  1       21 0.29582064E-01 0.27773379E+03</pdfrwt>
<pdfrwt beam="2">  1       21 0.98515306E-01 0.27773379E+03</pdfrwt>
<totfact> 0.88402710E+03</totfact>
</mgrwt>
</event>
<event>
 5    0  0.1324511E+000  0.3738357E+03  0.7546771E-02  0.1053236E+00
         21   -1    0    0  504  501  0.00000000000E+00  0.00000000000E+00  0.30579392683E+03  0.30579392683E+03  0.00000000000E+00 0. -1.
         21   -1    0    0  501  502 -0.00000000000E+00 -0.00000000000E+00 -0.44904859720E+03  0.44904859720E+03  0.00000000000E+00 0. -1.
         25    1    1    2    0    0 -0.34426330084E+03  0.74905934035E+02 -0.12923515113E+03  0.39554373152E+03  0.12500000000E+03 0.  0.
         21    1    1    2  503  502  0.26320171874E+03 -0.51892982636E+02 -0.39739679413E+02  0.27119599649E+03  0.00000000000E+00 0. -1.
         21    1    1    2  504  503  0.81061582104E+02 -0.23012951399E+02  0.25720160172E+02  0.88102796009E+02  0.00000000000E+00 0. -1.
<mgrwt>
<rscale>  4 0.37383568E+03</rscale>
<asrwt>0</asrwt>
<pdfrwt beam="1">  1       21 0.47045220E-01 0.37383568E+03</pdfrwt>
<pdfrwt beam="2">  1       21 0.69084399E-01 0.37383568E+03</pdfrwt>
<totfact> 0.75057516E+03</totfact>
</mgrwt>
</event>
<event>
 5    0  0.1324511E+000  0.2909443E+03  0.7546771E-02  0.1089857E+00
         21   -1    0    0  504  501  0.00000000000E+00  0.00000000000E+00  0.45857919925E+02  0.45857919925E+02  0.00000000000E+00 0. -1.
         21   -1    0    0  501  502 -0.00000000000E+00 -0.00000000000E+00 -0.16908418774E+04  0.16908418774E+04  0.00000000000E+00 0. -1.
         25    1    1    2    0    0 -0.18332411423E+03  0.18819102113E+03 -0.82270763937E+03  0.87263764025E+03  0.12500000000E+03 0.  0.
         21    1    1    2  503  502  0.29391591108E+02 -0.15467123062E+02 -0.12860047799E+03  0.13282010565E+03  0.00000000000E+00 0. -1.
         21    1    1    2  504  503  0.15393252312E+03 -0.17272389807E+03 -0.69367584013E+03  0.73124205146E+03  0.00000000000E+00 0.  1.
<mgrwt>
<rscale>  4 0.29094431E+03</rscale>
<asrwt>0</asrwt>
<pdfrwt beam="1">  1       21 0.70550653E-02 0.29094431E+03</pdfrwt>
<pdfrwt beam="2">  1       21 0.26012949E+00 0.29094431E+03</pdfrwt>
<totfact> 0.79854411E+03</totfact>
</mgrwt>
</event>
<event>
 5    0  0.1324511E+000  0.5842798E+03  0.7546771E-02  0.9938568E-01
         21   -1    0    0  504  501  0.00000000000E+00  0.00000000000E+00  0.95554356227E+03  0.95554356227E+03  0.00000000000E+00 0. -1.
         21   -1    0    0  501  502 -0.00000000000E+00 -0.00000000000E+00 -0.50343046124E+03  0.50343046124E+03  0.00000000000E+00 0. -1.
         25    1    1    2    0    0  0.19477030831E+02 -0.56736399012E+03 -0.14341272232E+03  0.59872653269E+03  0.12500000000E+03 0.  0.
         21    1    1    2  503  502  0.22198588154E+02 -0.10821524814E+02  0.82603264197E+02  0.86215903239E+02  0.00000000000E+00 0.  1.
         21    1    1    2  504  503 -0.41675618985E+02  0.57818551494E+03  0.51292255915E+03  0.77403158759E+03  0.00000000000E+00 0. -1.
<mgrwt>
<rscale>  4 0.58427984E+03</rscale>
<asrwt>0</asrwt>
<pdfrwt beam="1">  1       21 0.14700670E+00 0.58427984E+03</pdfrwt>
<pdfrwt beam="2">  1       21 0.77450841E-01 0.58427984E+03</pdfrwt>
<totfact> 0.36556439E+02</totfact>
</mgrwt>
</event>
<event>
 5    0  0.1324511E+000  0.2361257E+03  0.7546771E-02  0.1122401E+00
         21   -1    0    0  504  501  0.00000000000E+00  0.00000000000E+00  0.18075653088E+03  0.18075653088E+03  0.00000000000E+00 0. -1.
         21   -1    0    0  501  502 -0.00000000000E+00 -0.00000000000E+00 -0.32145335268E+03  0.32145335268E+03  0.00000000000E+00 0. -1.
         25    1    1    2    0    0  0.13000663755E+03  0.15240937972E+03 -0.17564409396E+03  0.29428930083E+03  0.12500000000E+03 0.  0.
         21    1    1    2  503  502 -0.40934345901E+02 -0.72585599669E+02  0.28754459211E+02  0.88153893154E+02  0.00000000000E+00 0. -1.
         21    1    1    2  504  503 -0.89072291654E+02 -0.79823780054E+02  0.61928129521E+01  0.11976668959E+03  0.00000000000E+00 0. -1.
<mgrwt>
<rscale>  4 0.23612570E+03</rscale>
<asrwt>0</asrwt>
<pdfrwt beam="1">  1       21 0.27808698E-01 0.23612570E+03</pdfrwt>
<pdfrwt beam="2">  1       21 0.49454361E-01 0.23612570E+03</pdfrwt>
<totfact> 0.47168556E+04</totfact>
</mgrwt>
</event>
<event>
 5    0  0.1324511E+000  0.3874956E+03  0.7546771E-02  0.1048198E+00
         21   -1    0    0  504  501  0.00000000000E+00  0.00000000000E+00  0.16089032307E+03  0.16089032307E+03  0.00000000000E+00 0. -1.
         21   -1    0    0  501  502 -0.00000000000E+00 -0.00000000000E+00 -0.92460213464E+03  0.92460213464E+03  0.00000000000E+00 0. -1.
         25    1    1    2    0    0  0.49908350205E+01  0.36674641046E+03 -0.29226064581E+03  0.48535463644E+03  0.12500000000E+03 0.  0.
         21    1    1    2  503  502 -0.17686997658E+02 -0.50425126111E+02 -0.51354035416E+02  0.74113157961E+02  0.00000000000E+00 0.  1.
         21    1    1    2  504  503  0.12696162638E+02 -0.31632128435E+03 -0.42009713035E+03  0.52602466331E+03  0.00000000000E+00 0. -1.
<mgrwt>
<rscale>  4 0.38749560E+03</rscale>
<asrwt>0</asrwt>
<pdfrwt beam="1">  1       21 0.24752357E-01 0.38749560E+03</pdfrwt>
<pdfrwt beam="2">  1       21 0.14224648E+00 0.38749560E+03</pdfrwt>
<totfact> 0.47300654E+03</totfact>
</mgrwt>
</event>
<event>
 5    0  0.1324511E+000  0.2618099E+03  0.7546771E-02  0.1106061E+00
         21   -1    0    0  504  501  0.00000000000E+00  0.00000000000E+00  0.54800862635E+02  0.54800862635E+02  0.00000000000E+00 0. -1.
         21   -1    0    0  501  502 -0.00000000000E+00 -0.00000000000E+00 -0.13748511500E+04  0.13748511500E+04  0.00000000000E+00 0. -1.
         25    1    1    2    0    0  0.22963180450E+03 -0.13736019827E+02 -0.10009218031E+04  0.10345960080E+04  0.12500000000E+03 0.  0.
         21    1    1    2  503  502 -0.26177761058E+02 -0.43596362103E+01 -0.21889599858E+02  0.34401107305E+02  0.00000000000E+00 0. -1.
         21    1    1    2  504  503 -0.20345404344E+03  0.18095656037E+02 -0.29723888444E+03  0.36065489735E+03  0.00000000000E+00 0. -1.
<mgrwt>
<rscale>  4 0.26180994E+03</rscale>
<asrwt>0</asrwt>
<pdfrwt beam="1">  1       21 0.84309025E-02 0.26180994E+03</pdfrwt>
<pdfrwt beam="2">  1       21 0.21151555E+00 0.26180994E+03</pdfrwt>
<totfact> 0.11812696E+04</totfact>
</mgrwt>
</event>
<event>
 5    0  0.1324511E+000  0.4649821E+03  0.7546771E-02  0.1023346E+00
         21   -1    0    0  504  501  0.00000000000E+00  0.00000000000E+00  0.72279831483E+03  0.72279831483E+03  0.00000000000E+00 0.  1.
         21   -1    0    0  501  502 -0.00000000000E+00 -0.00000000000E+00 -0.98244285993E+03  0.98244285993E+03  0.00000000000E+00 0. -1.
         25    1    1    2    0    0  0.35817137665E+03  0.26888029725E+03 -0.84507816754E+03  0.96455453892E+03  0.12500000000E+03 0.  0.
         21    1    1    2  503  502 -0.33469711582E+03 -0.22561926482E+03  0.53534058218E+03  0.67045935815E+03  0.00000000000E+00 0.  1.
         21    1    1    2  504  503 -0.23474260832E+02 -0.43261032431E+02  0.50093040259E+02  0.70227277685E+02  0.00000000000E+00 0. -1.
<mgrwt>
<rscale>  4 0.46498210E+03</rscale>
<asrwt>0</asrwt>
<pdfrwt beam="1">  1       21 0.11119974E+00 0.46498210E+03</pdfrwt>
<pdfrwt beam="2">  1       21 0.15114505E+00 0.46498210E+03</pdfrwt>
<totfact> 0.14989132E+02</totfact>
</mgrwt>
</event>
<event>
 5    0  0.1324511E+000  0.2503641E+03  0.7546771E-02  0.1113075E+00
         21   -1    0    0  504  501  0.00000000000E+00  0.00000000000E+00  0.62386900754E+02  0.62386900754E+02  0.00000000000E+00 0.  1.
         21   -1    0    0  501  502 -0.00000000000E+00 -0.00000000000E+00 -0.14764577458E+04  0.14764577458E+04  0.00000000000E+00 0.  1.
         25    1    1    2    0    0 -0.11382066204E+03 -0.18466738081E+03 -0.12131437489E+04  0.12387089812E+04  0.12500000000E+03 0.  0.
         21    1    1    2  503  502  0.89456134069E+02  0.11371888750E+03 -0.10713278573E+03  0.18003282777E+03  0.00000000000E+00 0.  1.
         21    1    1    2  504  503  0.24364527973E+02  0.70948493311E+02 -0.93794310421E+02  0.12010283758E+03  0.00000000000E+00 0.  1.
<mgrwt>
<rscale>  4 0.25036410E+03</rscale>
<asrwt>0</asrwt>
<pdfrwt beam="1">  1       21 0.95979840E-02 0.25036410E+03</pdfrwt>
<pdfrwt beam="2">  1       21 0.22714736E+00 0.25036410E+03</pdfrwt>
<totfact> 0.75654479E+03</totfact>
</mgrwt>
</event>
<event>
 5    0  0.1324511E+000  0.3155405E+03  0.7546771E-02  0.1077720E+00
         21   -1    0    0  504  501  0.00000000000E+00  0.00000000000E+00  0.26440263935E+03  0.26440263935E+03  0.00000000000E+00 0. -1.
         21   -1    0    0  501  502 -0.00000000000E+00 -0.00000000000E+00 -0.81325257330E+03  0.81325257330E+03  0.00000000000E+00 0. -1.
         25    1    1    2    0    0  0.79368521472E+02 -0.28035310895E+03 -0.65212154243E+03  0.72511015301E+03  0.12500000000E+03 0.  0.
         21    1    1    2  503  502 -0.49808476966E+02  0.28537143193E+03  0.12501292878E+03  0.31550906628E+03  0.00000000000E+00 0. -1.
         21    1    1    2  504  503 -0.29560044506E+02 -0.50183229860E+01 -0.21741320297E+02  0.37035993371E+02  0.00000000000E+00 0.  1.
<mgrwt>
<rscale>  4 0.31554048E+03</rscale>
<asrwt>0</asrwt>
<pdfrwt beam="1">  1       21 0.40677331E-01 0.31554048E+03</pdfrwt>
<pdfrwt beam="2">  1       21 0.12511578E+00 0.31554048E+03</pdfrwt>
<totfact> 0.25412519E+03</totfact>
</mgrwt>
</event>
<event>
 5    0  0.1324511E+000  0.2394683E+03  0.7546771E-02  0.1120148E+00
         21   -1    0    0  504  501  0.00000000000E+00  0.00000000000E+00  0.49917386246E+03  0.49917386246E+03  0.00000000000E+00 0.  1.
         21   -1    0    0  501  502 -0.00000000000E+00 -0.00000000000E+00 -0.13485559158E+03  0.13485559158E+03  0.00000000000E+00 0.  1.
         25    1    1    2    0    0 -0.20416947881E+03  0.59065784177E+01  0.33944663369E+03  0.41541434841E+03  0.12500000000E+03 0.  0.
         21    1    1    2  503  502  0.14795688854E+03  0.52474304847E+01  0.49686098056E+02  0.15616492799E+03  0.00000000000E+00 0.  1.
         21    1    1    2  504  503  0.56212590265E+02 -0.11154008902E+02 -0.24814460868E+02  0.62450177638E+02  0.00000000000E+00 0.  1.
<mgrwt>
<rscale>  4 0.23946829E+03</rscale>
<asrwt>0</asrwt>
<pdfrwt beam="1">  1       21 0.76795978E-01 0.23946829E+03</pdfrwt>
<pdfrwt beam="2">  1       21 0.20747014E-01 0.23946829E+03</pdfrwt>
<totfact> 0.31727097E+04</totfact>
</mgrwt>
</event>
<event>
 5    0  0.1324511E+000  0.2381352E+03  0.7546771E-02  0.1121041E+00
         21   -1    0    0  504  501  0.00000000000E+00  0.00000000000E+00  0.69922433940E+03  0.69922433940E+03  0.00000000000E+00 0.  1.
         21   -1    0    0  501  502 -0.00000000000E+00 -0.00000000000E+00 -0.20131641615E+03  0.20131641615E+03  0.00000000000E+00 0.  1.
         25    1    1    2    0    0  0.12791872910E+03 -0.16798138269E+03 -0.93257244947E+02  0.26249354263E+03  0.12500000000E+03 0.  0.
         21    1    1    2  503  502 -0.72757126377E+02  0.13264579403E+03  0.51891897903E+03  0.54052327693E+03  0.00000000000E+00 0.  1.
         21    1    1    2  504  503 -0.55161602726E+02  0.35335588658E+02  0.72246189168E+02  0.97523935987E+02  0.00000000000E+00 0.  1.
<mgrwt>
<rscale>  4 0.23813523E+03</rscale>
<asrwt>0</asrwt>
<pdfrwt beam="1">  1       21 0.10757297E+00 0.23813523E+03</pdfrwt>
<pdfrwt beam="2">  1       21 0.30971757E-01 0.23813523E+03</pdfrwt>
<totfact> 0.66836396E+03</totfact>
</mgrwt>
</event>
<event>
 5    0  0.1324511E+000  0.2540652E+03  0.7546771E-02  0.1110762E+00
         21   -1    0    0  504  501  0.00000000000E+00  0.00000000000E+00  0.52080647167E+03  0.52080647167E+03  0.00000000000E+00 0.  1.
         21   -1    0    0  501  502 -0.00000000000E+00 -0.00000000000E+00 -0.79077471346E+03  0.79077471346E+03  0.00000000000E+00 0. -1.
         25    1    1    2    0    0 -0.72814487650E+02 -0.20885924528E+03 -0.74277490366E+03  0.78502464385E+03  0.12500000000E+03 0.  0.
         21    1    1    2  503  502 -0.20576644844E+01  0.63501897295E+02  0.18422191679E+03  0.19487031474E+03  0.00000000000E+00 0.  1.
         21    1    1    2  504  503  0.74872152135E+02  0.14535734798E+03  0.28858474508E+03  0.33168622653E+03  0.00000000000E+00 0.  1.
<mgrwt>
<rscale>  4 0.25406522E+03</rscale>
<asrwt>0</asrwt>
<pdfrwt beam="1">  1       21 0.80124073E-01 0.25406522E+03</pdfrwt>
<pdfrwt beam="2">  1       21 0.12165765E+00 0.25406522E+03</pdfrwt>
<totfact> 0.65993086E+02</totfact>
</mgrwt>
</event>
<event>
 5    0  0.1324511E+000  0.2369622E+03  0.7546771E-02  0.1121833E+00
         21   -1    0    0  504  501  0.00000000000E+00  0.00000000000E+00  0.71924857655E+03  0.71924857655E+03  0.00000000000E+00 0. -1.
         21   -1    0    0  501  502 -0.00000000000E+00 -0.00000000000E+00 -0.18907417292E+03  0.18907417292E+03  0.00000000000E+00 0. -1.
         25    1    1    2    0    0  0.16450516532E+03  0.14866727554E+03 -0.52179186697E+02  0.25982989774E+03  0.12500000000E+03 0.  0.
         21    1    1    2  503  502 -0.43289843659E+02 -0.43838440745E+02  0.40419049978E+03  0.40885911946E+03  0.00000000000E+00 0.  1.
         21    1    1    2  504  503 -0.12121532166E+03 -0.10482883480E+03  0.17816309054E+03  0.23963373227E+03  0.00000000000E+00 0. -1.
<mgrwt>
<rscale>  4 0.23696221E+03</rscale>
<asrwt>0</asrwt>
<pdfrwt beam="1">  1       21 0.11065363E+00 0.23696221E+03</pdfrwt>
<pdfrwt beam="2">  1       21 0.29088335E-01 0.23696221E+03</pdfrwt>
<totfact> 0.70612404E+03</totfact>
</mgrwt>
</event>
<event>
 5    0  0.1324511E+000  0.2372239E+03  0.7546771E-02  0.1121656E+00
         21   -1    0    0  504  501  0.00000000000E+00  0.00000000000E+00  0.99176775566E+03  0.99176775566E+03  0.00000000000E+00 0. -1.
         21   -1    0    0  501  502 -0.00000000000E+00 -0.00000000000E+00 -0.51535957215E+02  0.51535957215E+02  0.00000000000E+00 0. -1.
         25    1    1    2    0    0 -0.47390817050E+01 -0.20156318153E+03  0.57505598293E+03  0.62206475430E+03  0.12500000000E+03 0.  0.
         21    1    1    2  503  502 -0.15809018906E+02  0.16163327571E+03  0.25575781142E+03  0.30296418765E+03  0.00000000000E+00 0. -1.
         21    1    1    2  504  503  0.20548100611E+02  0.39929905819E+02  0.10941800410E+03  0.11827477093E+03  0.00000000000E+00 0. -1.
<mgrwt>
<rscale>  4 0.23722389E+03</rscale>
<asrwt>0</asrwt>
<pdfrwt beam="1">  1       21 0.15257964E+00 0.23722389E+03</pdfrwt>
<pdfrwt beam="2">  1       21 0.79286095E-02 0.23722389E+03</pdfrwt>
<totfact> 0.33945594E+04</totfact>
</mgrwt>
</event>
