<LesHouchesEvents version="3.0">
  <!--
  <scalesfunctionalform>
    muR  H_T/2 := sum_i mT(i)/2, i=final state
    muF1 H_T/2 := sum_i mT(i)/2, i=final state
    muF2 H_T/2 := sum_i mT(i)/2, i=final state
    QES  H_T/2 := sum_i mT(i)/2, i=final state
  </scalesfunctionalform>
HERWIG6   
  -->
  <header>
      109
  </header>
  <init>
   2212   2212 0.65000000D+04 0.65000000D+04 -1 -1   247000   247000 -3   1
 0.20008405D-01 0.49944536D-03 0.44737074D-03     66
  </init>
  <event>
  5     66 -.44737074E-03 0.39125851E+02 0.75467711E-02 0.11906561E+00
       21 -1    0    0  501  502 0.00000000E+00 0.00000000E+00 0.15514683E+02 0.15532800E+02 0.75000000E+00 0.0000E+00 0.9000E+01
        1 -1    0    0  502    0 0.00000000E+00 0.00000000E+00 -.21115691E+04 0.21115691E+04 0.32000000E+00 0.0000E+00 0.9000E+01
       25  1    1    2    0    0 0.36037020E+01 0.22914427E+02 -.10910905E+04 0.10984724E+04 0.12500000E+03 0.0000E+00 0.9000E+01
       23  1    1    2    0    0 0.35203089E+02 -.17928788E+02 -.97312197E+03 0.97818317E+03 0.91188000E+02 0.0000E+00 0.9000E+01
        1  1    1    2  501    0 -.38806791E+02 -.49856391E+01 -.31841882E+02 0.50446323E+02 0.32000000E+00 0.0000E+00 0.9000E+01
#aMCatNLO 1  0  0  1  2 0.47821125D+02 0.00000000D+00  -5  6  0 0.00000000D+00 0.00000000D+00 0.00000000D+00 0.00000000D+00 0.00000000D+00
  <mgrwgt>
 -.1121041796D+00   12    2    0
 0.181051426726614D+03 0.000000000000000D+00 0.000000000000000D+00 0.181051426726614D+03
 0.181051426726614D+03 0.000000000000000D+00 0.000000000000000D+00 -.181051426726614D+03
 0.136915913599352D+03 0.360376182670381D+01 0.229144348767945D+02 -.508223274921429D+02
 0.113168766830325D+03 0.352031383121889D+02 -.179287817602164D+02 -.541407081544374D+02
 0.112018173023551D+03 -.388069001388927D+02 -.498565311657810D+01 0.104963035646580D+03
 0.000000000000000D+00 -.000000000000000D+00 0.000000000000000D+00 0.000000000000000D+00
 0.409669503661124D+03 0.000000000000000D+00 0.000000000000000D+00 0.409669503661124D+03
 0.185141534055591D+03 0.000000000000000D+00 0.000000000000000D+00 -.185141534055591D+03
 0.135468162654632D+03 0.102166771387825D+02 0.627165285591601D+01 -.508223274921429D+02
 0.118068560731779D+03 0.408170966800552D+02 -.320574800697245D+02 -.541407081544374D+02
 0.111710229327637D+03 -.333752427600835D+02 -.186555529265005D+02 0.104963035646580D+03
 0.229564085002667D+03 -.176585310587543D+02 0.444413801403090D+02 0.224527969605533D+03
0.123751198032D-05 0.000000000000D+00 0.000000000000D+00 0.200235327562D-05 0.000000000000D+00  6 21 1 25 23 1 21 2 0.23882698D-02 0.32485817D+00 0.17640847D+05 0.17640847D+05 0.17640847D+05 0.12398727D+01  1  2  2  1  6  1       21 0.583016549437D-02 0.100000000000D+01
0.110453770372D-06 0.653053013633D-07 -.249818014526D-08 0.200235327562D-05 0.000000000000D+00  6 21 1 25 23 1 21 4 0.23882698D-02 0.32485817D+00 0.17640847D+05 0.17640847D+05 0.17640847D+05 0.12398727D+01  1  2  3  1  6  1       21 0.799956207860D-03 0.100000000000D+01
0.122767908871D-06 0.000000000000D+00 0.000000000000D+00 0.200235327562D-05 0.000000000000D+00  6 21 1 25 23 1 21 4 0.23882698D-02 0.32485817D+00 0.17640847D+05 0.17640847D+05 0.17640847D+05 0.12398727D+01  1  2 15  1  6  1       21 0.889140773524D-03 0.100000000000D+01
-.582807818011D-04 0.000000000000D+00 -.203416539521D-05 0.200235327562D-05 0.000000000000D+00  6 21 1 25 23 1 21 4 0.55297709D-02 0.32485817D+00 0.17640847D+05 0.17640847D+05 0.17640847D+05 0.12398727D+01  1  2  5  1  6  1       21 -.105106467219D+00 0.100000000000D+01
-.197119246826D-04 0.000000000000D+00 -.596488571491D-06 0.200235327562D-05 0.000000000000D+00  6 -1 1 25 23 1 -1 4 0.55297709D-02 0.32485817D+00 0.17640847D+05 0.17640847D+05 0.17640847D+05 0.12398727D+01  1  2  5  4  6  1       21 -.207295040347D-02 0.100000000000D+01
-.197119246826D-04 0.000000000000D+00 -.596488571491D-06 0.200235327562D-05 0.000000000000D+00  6 1 1 25 23 1 1 4 0.55297709D-02 0.32485817D+00 0.17640847D+05 0.17640847D+05 0.17640847D+05 0.12398727D+01  1  2  5  5  6  1       21 -.236469935990D-02 0.100000000000D+01
-.197119246826D-04 0.000000000000D+00 -.596488571491D-06 0.200235327562D-05 0.000000000000D+00  6 -2 1 25 23 1 -2 4 0.55297709D-02 0.32485817D+00 0.17640847D+05 0.17640847D+05 0.17640847D+05 0.12398727D+01  1  2  5  6  6  1       21 -.202162819364D-02 0.100000000000D+01
-.197119246826D-04 0.000000000000D+00 -.596488571491D-06 0.200235327562D-05 0.000000000000D+00  6 -4 1 25 23 1 -4 4 0.55297709D-02 0.32485817D+00 0.17640847D+05 0.17640847D+05 0.17640847D+05 0.12398727D+01  1  2  5  6  6  1       21 -.129265693964D-02 0.100000000000D+01
-.197119246826D-04 0.000000000000D+00 -.596488571491D-06 0.200235327562D-05 0.000000000000D+00  6 2 1 25 23 1 2 4 0.55297709D-02 0.32485817D+00 0.17640847D+05 0.17640847D+05 0.17640847D+05 0.12398727D+01  1  2  5  7  6  1       21 -.256041010116D-02 0.100000000000D+01
-.197119246826D-04 0.000000000000D+00 -.596488571491D-06 0.200235327562D-05 0.000000000000D+00  6 4 1 25 23 1 4 4 0.55297709D-02 0.32485817D+00 0.17640847D+05 0.17640847D+05 0.17640847D+05 0.12398727D+01  1  2  5  7  6  1       21 -.129265693964D-02 0.100000000000D+01
-.197119246826D-04 0.000000000000D+00 -.596488571491D-06 0.200235327562D-05 0.000000000000D+00  6 -3 1 25 23 1 -3 4 0.55297709D-02 0.32485817D+00 0.17640847D+05 0.17640847D+05 0.17640847D+05 0.12398727D+01  1  2  5  8  6  1       21 -.145606275027D-02 0.100000000000D+01
-.197119246826D-04 0.000000000000D+00 -.596488571491D-06 0.200235327562D-05 0.000000000000D+00  6 3 1 25 23 1 3 4 0.55297709D-02 0.32485817D+00 0.17640847D+05 0.17640847D+05 0.17640847D+05 0.12398727D+01  1  2  5  9  6  1       21 -.145591018425D-02 0.100000000000D+01
  </mgrwgt>
  </event>
  <event>
  5     66 0.44737074E-03 0.54802570E+02 0.75467711E-02 0.11509870E+00
       21 -1    0    0  501  502 0.00000000E+00 0.00000000E+00 0.20228927E+02 0.20242826E+02 0.75000000E+00 0.0000E+00 0.9000E+01
        1 -1    0    0  502    0 0.00000000E+00 0.00000000E+00 -.13723450E+04 0.13723451E+04 0.32000000E+00 0.0000E+00 0.9000E+01
       25  1    1    2    0    0 0.64191290E+02 0.45128344E+02 -.63405060E+03 0.65100096E+03 0.12500000E+03 0.0000E+00 0.9000E+01
       23  1    1    2    0    0 -.29610527E+02 -.87641960E+02 -.47698616E+03 0.49435710E+03 0.91188000E+02 0.0000E+00 0.9000E+01
        1  1    1    2  501    0 -.34580763E+02 0.42513615E+02 -.24107936E+03 0.24722984E+03 0.32000000E+00 0.0000E+00 0.9000E+01
#aMCatNLO 1  0  0  1  2 0.47821125D+02 0.00000000D+00  -5  6  0 0.00000000D+00 0.00000000D+00 0.00000000D+00 0.00000000D+00 0.00000000D+00
  <mgrwgt>
 0.7094880682D-01    4    2    0
 0.166645647051086D+03 0.000000000000000D+00 0.000000000000000D+00 0.166645647051086D+03
 0.166645647051086D+03 0.000000000000000D+00 0.000000000000000D+00 -.166645647051086D+03
 0.147816752938549D+03 0.641915501742216D+02 0.451280249559535D+02 -.822792191876479D+01
 0.130501743267709D+03 -.296102977392618D+02 -.876422416404767D+02 0.125507529628928D+02
 0.549727978959147D+02 -.345812524349598D+02 0.425142166845232D+02 -.432283104412801D+01
 0.000000000000000D+00 -.000000000000000D+00 -.000000000000000D+00 -.000000000000000D+00
 0.192230759722914D+03 0.000000000000000D+00 0.000000000000000D+00 0.192230759722914D+03
 0.207895743096378D+03 0.000000000000000D+00 0.000000000000000D+00 -.207895743096378D+03
 0.162139608196236D+03 0.752083386583458D+02 0.702869806093503D+02 -.822792191876479D+01
 0.116105439538325D+03 -.208451310503342D+02 -.676252974703000D+02 0.125507529628928D+02
 0.603215198004194D+02 -.304833429523743D+02 0.518725812471699D+02 -.432283104412801D+01
 0.615599352843115D+02 -.238798646556372D+02 -.545342643862202D+02 -.156649833734639D+02
0.979156541047D-05 0.000000000000D+00 0.000000000000D+00 0.171731867769D-06 0.000000000000D+00  6 21 1 25 23 1 21 2 0.31132147D-02 0.21113108D+00 0.27603657D+05 0.27603657D+05 0.27603657D+05 0.12187114D+01  1  2  2  1  6  1       21 0.857159861465D-01 0.100000000000D+01
-.413080873058D-06 0.516715102656D-06 -.197663494887D-07 0.171731867769D-06 0.000000000000D+00  6 21 1 25 23 1 21 4 0.31132147D-02 0.21113108D+00 0.27603657D+05 0.27603657D+05 0.27603657D+05 0.12187114D+01  1  2  3  1  6  1       21 -.537089307774D-02 0.100000000000D+01
0.980092433031D-06 0.000000000000D+00 0.000000000000D+00 0.171731867769D-06 0.000000000000D+00  6 21 1 25 23 1 21 4 0.31132147D-02 0.21113108D+00 0.27603657D+05 0.27603657D+05 0.27603657D+05 0.12187114D+01  1  2 15  1  6  1       21 0.127431987474D-01 0.100000000000D+01
-.170277040725D-05 0.000000000000D+00 0.000000000000D+00 0.171731867769D-06 0.000000000000D+00  6 21 1 25 23 1 21 4 0.31132147D-02 0.21113108D+00 0.27603657D+05 0.27603657D+05 0.27603657D+05 0.12187114D+01  1  2  4  1  6  1       21 -.221394850010D-01 0.100000000000D+01
  </mgrwgt>
  </event>
  <event>
  5     66 0.44737074E-03 0.60030604E+02 0.75467711E-02 0.11045201E+00
       21 -1    0    0  501  502 0.00000000E+00 0.00000000E+00 0.93261390E+02 0.93264406E+02 0.75000000E+00 0.0000E+00 0.9000E+01
        1 -1    0    0  502    0 0.00000000E+00 0.00000000E+00 -.71906553E+03 0.71906560E+03 0.32000000E+00 0.0000E+00 0.9000E+01
       25  1    1    2    0    0 -.13052667E+03 0.16733338E+03 -.40056871E+03 0.47023181E+03 0.12500000E+03 0.0000E+00 0.9000E+01
       23  1    1    2    0    0 0.70930483E+02 -.16013042E+03 -.17345586E+03 0.26282137E+03 0.91188000E+02 0.0000E+00 0.9000E+01
        1  1    1    2  501    0 0.59596188E+02 -.72029576E+01 -.51779571E+02 0.79276823E+02 0.32000000E+00 0.0000E+00 0.9000E+01
#aMCatNLO 1  0  0  1  5 0.24489492D+02 0.00000000D+00  -5  6  0 0.00000000D+00 0.00000000D+00 0.00000000D+00 0.00000000D+00 0.00000000D+00
  <mgrwgt>
 0.1735313063D+00    4    2    0
 0.258963905165386D+03 0.000000000000000D+00 0.000000000000000D+00 0.258963905165386D+03
 0.258963905165386D+03 0.000000000000000D+00 0.000000000000000D+00 -.258963905165386D+03
 0.253521798517088D+03 -.130527062555794D+03 0.167333422864318D+03 -.600875515927054D+02
 0.202630954030418D+03 0.709301705605624D+02 -.160130380192389D+03 0.455107067728879D+02
 0.617750577832669D+02 0.595968919952315D+02 -.720304267192948D+01 0.145768448198175D+02
 0.000000000000000D+00 -.000000000000000D+00 0.000000000000000D+00 -.000000000000000D+00
 0.260548693526578D+03 0.000000000000000D+00 0.000000000000000D+00 0.260548693526578D+03
 0.374990925605695D+03 0.000000000000000D+00 0.000000000000000D+00 -.374990925605695D+03
 0.244683518038355D+03 -.120077034117872D+03 0.161913606656993D+03 -.600875515927054D+02
 0.209320534921379D+03 0.795709951995979D+02 -.164611868611440D+03 0.455107067728879D+02
 0.645024097981798D+02 0.622456054542098D+02 -.857677483149337D+01 0.145768448198175D+02
 0.117033156374359D+03 -.217395665359361D+02 0.112750367859400D+02 -.114442232079117D+03
0.892394889305D-04 0.000000000000D+00 0.000000000000D+00 0.784097877920D-07 0.000000000000D+00  6 21 1 25 23 1 21 2 0.14348144D-01 0.11062570D+00 0.63449269D+05 0.63449269D+05 0.63449269D+05 0.11821697D+01  1  2  2  1  6  1       21 0.158118022379D+00 0.100000000000D+01
0.970873630385D-06 0.470929721150D-05 -.180148817114D-06 0.784097877920D-07 0.000000000000D+00  6 21 1 25 23 1 21 4 0.14348144D-01 0.11062570D+00 0.63449269D+05 0.63449269D+05 0.63449269D+05 0.11821697D+01  1  2  3  1  6  1       21 0.240406764223D-02 0.100000000000D+01
0.753347547396D-05 0.000000000000D+00 0.000000000000D+00 0.784097877920D-07 0.000000000000D+00  6 21 1 25 23 1 21 4 0.14348144D-01 0.11062570D+00 0.63449269D+05 0.63449269D+05 0.63449269D+05 0.11821697D+01  1  2 15  1  6  1       21 0.186543171569D-01 0.100000000000D+01
-.227975267055D-05 0.000000000000D+00 0.000000000000D+00 0.784097877920D-07 0.000000000000D+00  6 21 1 25 23 1 21 4 0.14348144D-01 0.11062570D+00 0.63449269D+05 0.63449269D+05 0.63449269D+05 0.11821697D+01  1  2  4  1  6  1       21 -.564510092358D-02 0.100000000000D+01
  </mgrwgt>
  </event>
  <event>
  5     66 0.44737074E-03 0.10121635E+03 0.75467711E-02 0.93649164E-01
       21 -1    0    0  501  502 0.00000000E+00 0.00000000E+00 0.16999837E+03 0.17000002E+03 0.75000000E+00 0.0000E+00 0.9000E+01
        1 -1    0    0  502    0 0.00000000E+00 0.00000000E+00 -.14707502E+04 0.14707502E+04 0.32000000E+00 0.0000E+00 0.9000E+01
       25  1    1    2    0    0 -.97844685E+02 -.85007496E+02 -.74608066E+03 0.76750323E+03 0.12500000E+03 0.0000E+00 0.9000E+01
       23  1    1    2    0    0 0.16138185E+03 0.62180649E+01 -.68418274E+03 0.70887519E+03 0.91188000E+02 0.0000E+00 0.9000E+01
        1  1    1    2  501    0 -.63537163E+02 0.78789431E+02 0.12951158E+03 0.16437182E+03 0.32000000E+00 0.0000E+00 0.9000E+01
#aMCatNLO 1  0  0  1  2 0.87833074D+02 0.00000000D+00  -5  6  0 0.00000000D+00 0.00000000D+00 0.00000000D+00 0.00000000D+00 0.00000000D+00
  <mgrwgt>
 0.7407460493D-01    3    2    0
 0.500026513519712D+03 0.000000000000000D+00 0.000000000000000D+00 0.500026513519712D+03
 0.500026513519712D+03 0.000000000000000D+00 0.000000000000000D+00 -.500026513519712D+03
 0.288800044600784D+03 -.978446796690786D+02 -.850075017635051D+02 -.225788859481149D+03
 0.273120739909073D+03 0.161381851888866D+03 0.621805918244591D+01 -.200491697696945D+03
 0.438132242529567D+03 -.635371722197872D+02 0.787894425810592D+02 0.426280557178094D+03
 0.000000000000000D+00 0.000000000000000D+00 0.000000000000000D+00 -.000000000000000D+00
 0.858356057465733D+03 0.000000000000000D+00 0.000000000000000D+00 0.858356057465733D+03
 0.174552201199274D+04 0.000000000000000D+00 0.000000000000000D+00 -.174552201199274D+04
 0.502697573405400D+03 -.352960407943442D+03 -.248028610580067D+03 -.225788859481149D+03
 0.241876348796340D+03 -.461215031068599D+01 -.998535126430575D+02 -.200491697696945D+03
 0.598273830281550D+03 -.397591860494434D+03 -.134674329551944D+03 0.426280557178094D+03
 0.126103031697518D+04 0.755164418748562D+03 0.482556452775068D+03 -.887165954527003D+03
0.352748264984D-03 0.000000000000D+00 0.000000000000D+00 0.117480570181D-05 0.000000000000D+00  6 21 1 25 23 1 21 2 0.26153725D-01 0.22626939D+00 0.54464452D+05 0.54464452D+05 0.54464452D+05 0.11886207D+01  1  2  2  1  6  1       21 0.575043725545D-01 0.100000000000D+01
0.364206225134D-04 0.186150373625D-04 -.712097115723D-06 0.117480570181D-05 0.000000000000D+00  6 21 1 25 23 1 21 4 0.26153725D-01 0.22626939D+00 0.54464452D+05 0.54464452D+05 0.54464452D+05 0.11886207D+01  1  2  3  1  6  1       21 0.838822192715D-02 0.100000000000D+01
0.355252777761D-04 0.000000000000D+00 0.000000000000D+00 0.117480570181D-05 0.000000000000D+00  6 21 1 25 23 1 21 4 0.26153725D-01 0.22626939D+00 0.54464452D+05 0.54464452D+05 0.54464452D+05 0.11886207D+01  1  2 15  1  6  1       21 0.818201045025D-02 0.100000000000D+01
  </mgrwgt>
  </event>
  <event>
  5     66 0.44737074E-03 0.33319394E+02 0.75467711E-02 0.12022870E+00
       21 -1    0    0  501  502 0.00000000E+00 0.00000000E+00 0.47500053E+02 0.47505974E+02 0.75000000E+00 0.0000E+00 0.9000E+01
        1 -1    0    0  502    0 0.00000000E+00 0.00000000E+00 -.16816792E+04 0.16816792E+04 0.32000000E+00 0.0000E+00 0.9000E+01
       25  1    1    2    0    0 0.70474664E+02 -.37172896E+02 -.93784019E+03 0.94948287E+03 0.12500000E+03 0.0000E+00 0.9000E+01
       23  1    1    2    0    0 -.60083577E+02 0.55152591E+01 -.72654579E+03 0.73472750E+03 0.91188000E+02 0.0000E+00 0.9000E+01
        1  1    1    2  501    0 -.10391087E+02 0.31657637E+02 0.30206834E+02 0.44974836E+02 0.32000000E+00 0.0000E+00 0.9000E+01
#aMCatNLO 1  0  0  1  2 0.54675246D+01 0.00000000D+00  -5  6  0 0.00000000D+00 0.00000000D+00 0.00000000D+00 0.00000000D+00 0.00000000D+00
  <mgrwgt>
 0.1923656148D+00   32    2    0
 0.282639339605813D+03 0.000000000000000D+00 0.000000000000000D+00 0.282639339605813D+03
 0.282639339605813D+03 0.000000000000000D+00 0.000000000000000D+00 -.282639339605813D+03
 0.193237222493155D+03 0.704746677706812D+02 -.371729066905285D+02 -.123964189860049D+03
 0.147137964178898D+03 -.600835744291649D+02 0.551525080301510D+01 -.984574794066233D+02
 0.224903492539572D+03 -.103910933415164D+02 0.316576558875134D+02 0.222421669266673D+03
 0.000000000000000D+00 0.000000000000000D+00 -.000000000000000D+00 0.000000000000000D+00
 0.295191016213651D+03 0.000000000000000D+00 0.000000000000000D+00 0.295191016213651D+03
 0.283248602914457D+03 0.000000000000000D+00 0.000000000000000D+00 -.283248602914457D+03
 0.192553962388561D+03 0.686098423412652D+02 -.371160019100088D+02 -.123964189860049D+03
 0.147727347459001D+03 -.615088852007514D+02 0.555874388035635D+01 -.984574794066233D+02
 0.225023810416047D+03 -.125659379435190D+02 0.317240208419961D+02 0.222421669266673D+03
 0.131344988645003D+02 0.546498080300523D+01 -.166762812343708D+00 0.119424132991939D+02
0.963286086890D-05 0.000000000000D+00 0.000000000000D+00 0.714366847800D-05 0.000000000000D+00  6 21 1 25 23 1 21 2 0.73081582D-02 0.25872033D+00 0.21155145D+05 0.21155145D+05 0.21155145D+05 0.12311504D+01  1  2  2  1  6  1       21 0.129327986927D-01 0.100000000000D+01
0.225345845636D-05 0.508340033905D-06 -.194459707441D-07 0.714366847800D-05 0.000000000000D+00  6 21 1 25 23 1 21 4 0.73081582D-02 0.25872033D+00 0.21155145D+05 0.21155145D+05 0.21155145D+05 0.12311504D+01  1  2  3  1  6  1       21 0.458573525783D-02 0.100000000000D+01
0.780694498127D-06 0.000000000000D+00 0.000000000000D+00 0.714366847800D-05 0.000000000000D+00  6 21 1 25 23 1 21 4 0.73081582D-02 0.25872033D+00 0.21155145D+05 0.21155145D+05 0.21155145D+05 0.12311504D+01  1  2 15  1  6  1       21 0.158869504585D-02 0.100000000000D+01
0.833299260860D-04 0.000000000000D+00 0.000000000000D+00 0.712060878736D-05 0.000000000000D+00  6 21 1 25 23 1 21 4 0.76403875D-02 0.25872033D+00 0.22062113D+05 0.22062113D+05 0.22062113D+05 0.12291617D+01  1  2 12  1  6  1       21 0.155855363446D+00 0.100000000000D+01
-.122234215703D-03 0.000000000000D+00 0.000000000000D+00 0.714366847800D-05 0.000000000000D+00  6 21 1 25 23 1 21 4 0.73081582D-02 0.25872033D+00 0.21155145D+05 0.21155145D+05 0.21155145D+05 0.12311504D+01  1  2  4  1  6  1       21 -.248743770306D+00 0.100000000000D+01
-.977682876277D-03 0.000000000000D+00 -.662887358146D-04 0.714366847800D-05 0.000000000000D+00  6 21 1 25 23 1 21 4 0.76478134D-02 0.25872033D+00 0.21155145D+05 0.21155145D+05 0.21155145D+05 0.12311504D+01  1  2  5  1  6  1       21 -.183983267725D+01 0.100000000000D+01
0.976105160263D-03 0.000000000000D+00 0.660159273225D-04 0.714366847800D-05 0.000000000000D+00  6 21 1 25 23 1 21 4 0.73081582D-02 0.25872033D+00 0.21155145D+05 0.21155145D+05 0.21155145D+05 0.12311504D+01  1  2  6  1  6  1       21 0.198635117330D+01 0.100000000000D+01
0.663010391240D-04 0.000000000000D+00 0.000000000000D+00 0.714366847800D-05 0.213130800843D-05  6 21 1 25 23 1 21 4 0.76327048D-02 0.25927804D+00 0.22062113D+05 0.22062113D+05 0.22062113D+05 0.12291617D+01  1  2 11  1  6  1       21 0.123558250835D+00 0.100000000000D+01
0.223583964860D-05 0.000000000000D+00 0.000000000000D+00 0.712060878736D-05 0.000000000000D+00  6 -1 1 25 23 1 -1 4 0.76403875D-02 0.25872033D+00 0.22062113D+05 0.22062113D+05 0.22062113D+05 0.12291617D+01  1  2 12  4  6  1       21 0.261964149667D-03 0.100000000000D+01
-.101432374820D-04 0.000000000000D+00 -.714910351930D-06 0.714366847800D-05 0.000000000000D+00  6 -1 1 25 23 1 -1 4 0.76478134D-02 0.25872033D+00 0.21155145D+05 0.21155145D+05 0.21155145D+05 0.12311504D+01  1  2  5  4  6  1       21 -.119521689406D-02 0.100000000000D+01
0.380959648941D-05 0.000000000000D+00 0.000000000000D+00 0.714366847800D-05 0.104887684297D-06  6 -1 1 25 23 1 -1 4 0.76327048D-02 0.25927804D+00 0.22062113D+05 0.22062113D+05 0.22062113D+05 0.12291617D+01  1  2 11  4  6  1       21 0.444647855393D-03 0.100000000000D+01
0.223583964860D-05 0.000000000000D+00 0.000000000000D+00 0.712060878736D-05 0.000000000000D+00  6 1 1 25 23 1 1 4 0.76403875D-02 0.25872033D+00 0.22062113D+05 0.22062113D+05 0.22062113D+05 0.12291617D+01  1  2 12  5  6  1       21 0.312695433355D-03 0.100000000000D+01
-.101432374820D-04 0.000000000000D+00 -.714910351930D-06 0.714366847800D-05 0.000000000000D+00  6 1 1 25 23 1 1 4 0.76478134D-02 0.25872033D+00 0.21155145D+05 0.21155145D+05 0.21155145D+05 0.12311504D+01  1  2  5  5  6  1       21 -.142699889940D-02 0.100000000000D+01
0.486655513612D-05 0.000000000000D+00 0.000000000000D+00 0.714366847800D-05 0.462121752704D-07  6 1 1 25 23 1 1 4 0.76327048D-02 0.25927804D+00 0.22062113D+05 0.22062113D+05 0.22062113D+05 0.12291617D+01  1  2 11  5  6  1       21 0.677903835695D-03 0.100000000000D+01
0.223583964860D-05 0.000000000000D+00 0.000000000000D+00 0.712060878736D-05 0.000000000000D+00  6 -2 1 25 23 1 -2 4 0.76403875D-02 0.25872033D+00 0.22062113D+05 0.22062113D+05 0.22062113D+05 0.12291617D+01  1  2 12  6  6  1       21 0.253113844412D-03 0.100000000000D+01
0.223583964860D-05 0.000000000000D+00 0.000000000000D+00 0.712060878736D-05 0.000000000000D+00  6 -4 1 25 23 1 -4 4 0.76403875D-02 0.25872033D+00 0.22062113D+05 0.22062113D+05 0.22062113D+05 0.12291617D+01  1  2 12  6  6  1       21 0.157330801954D-03 0.100000000000D+01
-.101432374820D-04 0.000000000000D+00 -.714910351930D-06 0.714366847800D-05 0.000000000000D+00  6 -2 1 25 23 1 -2 4 0.76478134D-02 0.25872033D+00 0.21155145D+05 0.21155145D+05 0.21155145D+05 0.12311504D+01  1  2  5  6  6  1       21 -.115477631867D-02 0.100000000000D+01
-.101432374820D-04 0.000000000000D+00 -.714910351930D-06 0.714366847800D-05 0.000000000000D+00  6 -4 1 25 23 1 -4 4 0.76478134D-02 0.25872033D+00 0.21155145D+05 0.21155145D+05 0.21155145D+05 0.12311504D+01  1  2  5  6  6  1       21 -.716734046592D-03 0.100000000000D+01
0.268403335993D-05 0.000000000000D+00 0.000000000000D+00 0.714366847800D-05 0.385862201817D-07  6 -2 1 25 23 1 -2 4 0.76327048D-02 0.25927804D+00 0.22062113D+05 0.22062113D+05 0.22062113D+05 0.12291617D+01  1  2 11  6  6  1       21 0.302701142713D-03 0.100000000000D+01
0.268403335993D-05 0.000000000000D+00 0.000000000000D+00 0.714366847800D-05 0.385862201817D-07  6 -4 1 25 23 1 -4 4 0.76327048D-02 0.25927804D+00 0.22062113D+05 0.22062113D+05 0.22062113D+05 0.12291617D+01  1  2 11  6  6  1       21 0.188174466706D-03 0.100000000000D+01
0.223583964860D-05 0.000000000000D+00 0.000000000000D+00 0.712060878736D-05 0.000000000000D+00  6 2 1 25 23 1 2 4 0.76403875D-02 0.25872033D+00 0.22062113D+05 0.22062113D+05 0.22062113D+05 0.12291617D+01  1  2 12  7  6  1       21 0.346802636962D-03 0.100000000000D+01
0.223583964860D-05 0.000000000000D+00 0.000000000000D+00 0.712060878736D-05 0.000000000000D+00  6 4 1 25 23 1 4 4 0.76403875D-02 0.25872033D+00 0.22062113D+05 0.22062113D+05 0.22062113D+05 0.12291617D+01  1  2 12  7  6  1       21 0.157330801954D-03 0.100000000000D+01
-.101432374820D-04 0.000000000000D+00 -.714910351930D-06 0.714366847800D-05 0.000000000000D+00  6 2 1 25 23 1 2 4 0.76478134D-02 0.25872033D+00 0.21155145D+05 0.21155145D+05 0.21155145D+05 0.12311504D+01  1  2  5  7  6  1       21 -.158279229540D-02 0.100000000000D+01
-.101432374820D-04 0.000000000000D+00 -.714910351930D-06 0.714366847800D-05 0.000000000000D+00  6 4 1 25 23 1 4 4 0.76478134D-02 0.25872033D+00 0.21155145D+05 0.21155145D+05 0.21155145D+05 0.12311504D+01  1  2  5  7  6  1       21 -.716734046592D-03 0.100000000000D+01
0.268293294934D-05 0.000000000000D+00 0.000000000000D+00 0.714366847800D-05 0.385704004508D-07  6 2 1 25 23 1 2 4 0.76327048D-02 0.25927804D+00 0.22062113D+05 0.22062113D+05 0.22062113D+05 0.12291617D+01  1  2 11  7  6  1       21 0.414458175901D-03 0.100000000000D+01
0.268293294934D-05 0.000000000000D+00 0.000000000000D+00 0.714366847800D-05 0.385704004508D-07  6 4 1 25 23 1 4 4 0.76327048D-02 0.25927804D+00 0.22062113D+05 0.22062113D+05 0.22062113D+05 0.12291617D+01  1  2 11  7  6  1       21 0.188097318195D-03 0.100000000000D+01
0.223583964860D-05 0.000000000000D+00 0.000000000000D+00 0.712060878736D-05 0.000000000000D+00  6 -3 1 25 23 1 -3 4 0.76403875D-02 0.25872033D+00 0.22062113D+05 0.22062113D+05 0.22062113D+05 0.12291617D+01  1  2 12  8  6  1       21 0.178440448207D-03 0.100000000000D+01
-.101432374820D-04 0.000000000000D+00 -.714910351930D-06 0.714366847800D-05 0.000000000000D+00  6 -3 1 25 23 1 -3 4 0.76478134D-02 0.25872033D+00 0.21155145D+05 0.21155145D+05 0.21155145D+05 0.12311504D+01  1  2  5  8  6  1       21 -.813270748654D-03 0.100000000000D+01
0.268846813452D-05 0.000000000000D+00 0.000000000000D+00 0.714366847800D-05 0.386499754209D-07  6 -3 1 25 23 1 -3 4 0.76327048D-02 0.25927804D+00 0.22062113D+05 0.22062113D+05 0.22062113D+05 0.12291617D+01  1  2 11  8  6  1       21 0.213768762204D-03 0.100000000000D+01
0.223583964860D-05 0.000000000000D+00 0.000000000000D+00 0.712060878736D-05 0.000000000000D+00  6 3 1 25 23 1 3 4 0.76403875D-02 0.25872033D+00 0.22062113D+05 0.22062113D+05 0.22062113D+05 0.12291617D+01  1  2 12  9  6  1       21 0.178419519374D-03 0.100000000000D+01
-.101432374820D-04 0.000000000000D+00 -.714910351930D-06 0.714366847800D-05 0.000000000000D+00  6 3 1 25 23 1 3 4 0.76478134D-02 0.25872033D+00 0.21155145D+05 0.21155145D+05 0.21155145D+05 0.12311504D+01  1  2  5  9  6  1       21 -.813174976865D-03 0.100000000000D+01
0.269036905825D-05 0.000000000000D+00 0.000000000000D+00 0.714366847800D-05 0.386773034946D-07  6 3 1 25 23 1 3 4 0.76327048D-02 0.25927804D+00 0.22062113D+05 0.22062113D+05 0.22062113D+05 0.12291617D+01  1  2 11  9  6  1       21 0.213894829058D-03 0.100000000000D+01
  </mgrwgt>
  </event>
  <event>
  5     66 0.44737074E-03 0.16542080E+03 0.75467711E-02 0.10888976E+00
       21 -1    0    0  501  502 0.00000000E+00 0.00000000E+00 0.22605227E+02 0.22617666E+02 0.75000000E+00 0.0000E+00 0.9000E+01
        1 -1    0    0  502    0 0.00000000E+00 0.00000000E+00 -.26496801E+04 0.26496801E+04 0.32000000E+00 0.0000E+00 0.9000E+01
       25  1    1    2    0    0 0.12354539E+02 0.29721062E+02 -.50225364E+03 0.51857467E+03 0.12500000E+03 0.0000E+00 0.9000E+01
       23  1    1    2    0    0 0.11691274E+03 0.73496901E+02 -.14269787E+04 0.14365423E+04 0.91188000E+02 0.0000E+00 0.9000E+01
        1  1    1    2  501    0 -.12926728E+03 -.10321796E+03 -.69784253E+03 0.71718078E+03 0.32000000E+00 0.0000E+00 0.9000E+01
#aMCatNLO 1  0  0  1  1 0.11513860D+03 0.00000000D+00  -5  6  0 0.00000000D+00 0.00000000D+00 0.00000000D+00 0.00000000D+00 0.00000000D+00
  <mgrwgt>
 0.2756970871D-01    4    2    0
 0.244771865176281D+03 0.000000000000000D+00 0.000000000000000D+00 0.244771865176281D+03
 0.244771865176281D+03 0.000000000000000D+00 0.000000000000000D+00 -.244771865176281D+03
 0.135489523823665D+03 0.123546019000536D+02 0.297211122956137D+02 0.411877452862647D+02
 0.184026512552681D+03 0.116912825287109D+03 0.734969695488520D+02 -.804990231544641D+02
 0.170027693976217D+03 -.129267427187163D+03 -.103218081844466D+03 0.393112778681994D+02
 0.000000000000000D+00 0.000000000000000D+00 0.000000000000000D+00 -.000000000000000D+00
 0.294785734287005D+03 0.000000000000000D+00 0.000000000000000D+00 0.294785734287005D+03
 0.327929995254735D+03 0.000000000000000D+00 0.000000000000000D+00 -.327929995254735D+03
 0.133350600439827D+03 -.152188016687928D+02 0.151439873105514D+02 0.411877452862647D+02
 0.156659458825612D+03 0.819706015219876D+02 0.550241987932065D+02 -.804990231544641D+02
 0.212891483122150D+03 -.168541270826796D+03 -.123980833383255D+03 0.393112778681994D+02
 0.119814187154152D+03 0.101789470973601D+03 0.538126472794970D+02 -.331442609677299D+02
0.367004785869D-04 0.000000000000D+00 0.000000000000D+00 0.981457988415D-07 0.000000000000D+00  6 21 1 25 23 1 21 2 0.34786856D-02 0.40764405D+00 0.52896404D+05 0.52896404D+05 0.52896404D+05 0.11898673D+01  1  2  2  1  6  1       21 0.368114034342D-01 0.100000000000D+01
-.309819054158D-05 0.193673746389D-05 -.740876923903D-07 0.981457988415D-07 0.000000000000D+00  6 21 1 25 23 1 21 4 0.34786856D-02 0.40764405D+00 0.52896404D+05 0.52896404D+05 0.52896404D+05 0.11898673D+01  1  2  3  1  6  1       21 -.439962664736D-02 0.100000000000D+01
0.359200853494D-05 0.000000000000D+00 0.000000000000D+00 0.981457988415D-07 0.000000000000D+00  6 21 1 25 23 1 21 4 0.34786856D-02 0.40764405D+00 0.52896404D+05 0.52896404D+05 0.52896404D+05 0.11898673D+01  1  2 15  1  6  1       21 0.510087945070D-02 0.100000000000D+01
-.700176366337D-05 0.000000000000D+00 0.000000000000D+00 0.981457988415D-07 0.000000000000D+00  6 21 1 25 23 1 21 4 0.34786856D-02 0.40764405D+00 0.52896404D+05 0.52896404D+05 0.52896404D+05 0.11898673D+01  1  2  4  1  6  1       21 -.994294752970D-02 0.100000000000D+01
  </mgrwgt>
  </event>
  <event>
  6     66 0.44737074E-03 0.25939731E+02 0.75467711E-02 0.12157366E+00
       21 -1    0    0  501  502 0.00000000E+00 0.00000000E+00 0.19327516E+03 0.19327662E+03 0.75000000E+00 0.0000E+00 0.9000E+01
        1 -1    0    0  502    0 0.00000000E+00 0.00000000E+00 -.10861484E+03 0.10861531E+03 0.32000000E+00 0.0000E+00 0.9000E+01
       25  1    1    2    0    0 0.18380341E+02 0.33796605E+02 0.15997767E+02 0.13176106E+03 0.12500000E+03 0.0000E+00 0.9000E+01
       23  1    1    2    0    0 -.14499709E+02 -.64455105E+02 0.61651421E+02 0.12837777E+03 0.91188000E+02 0.0000E+00 0.9000E+01
        1  1    1    2  503    0 -.73592200E+01 0.27634026E+02 -.48485368E+01 0.29007038E+02 0.32000000E+00 0.0000E+00 0.9000E+01
       21  1    1    2  501  503 0.34785878E+01 0.30244738E+01 0.11859670E+02 0.12746070E+02 0.75000000E+00 0.0000E+00 0.9000E+01
#aMCatNLO 2  0  0  5  1 0.99335440D+01 0.00000000D+00  -5  6  0 0.00000000D+00 0.00000000D+00 0.00000000D+00 0.00000000D+00 0.00000000D+00
  <mgrwgt>
 0.2763308634D+00    3    2    0
 0.144889068083167D+03 0.000000000000000D+00 0.000000000000000D+00 0.144889068083167D+03
 0.144889068083167D+03 -.000000000000000D+00 -.000000000000000D+00 -.144889068083167D+03
 0.131456868782199D+03 0.189648265865724D+02 0.291789437195425D+02 -.210910631778768D+02
 0.118146462927633D+03 -.139820125233223D+02 -.685451079935258D+02 0.273752964233097D+02
 0.401748044565020D+02 -.498281406325012D+01 0.393661642739834D+02 -.628423324543298D+01
 0.000000000000000D+00 0.000000000000000D+00 0.000000000000000D+00 0.000000000000000D+00
 0.144889068083167D+03 0.000000000000000D+00 0.000000000000000D+00 0.144889068083167D+03
 0.144889068083167D+03 -.000000000000000D+00 -.000000000000000D+00 -.144889068083167D+03
 0.132616615835425D+03 0.183701259187879D+02 0.338773097200959D+02 -.218410886976199D+02
 0.115691935489030D+03 -.145086229548596D+02 -.643846812761840D+02 0.267111450543742D+02
 0.314524444256007D+02 -.740856726461286D+01 0.273334012404869D+02 -.136840990955837D+02
 0.100171404162776D+02 0.354706430068462D+01 0.317397031560125D+01 0.881404273882948D+01
-.113228408847D-04 0.000000000000D+00 0.000000000000D+00 0.263659379888D-06 0.000000000000D+00  6 21 1 25 23 1 21 4 0.29734789D-01 0.16710124D-01 0.19106331D+05 0.19106331D+05 0.19106331D+05 0.12360177D+01  1  2 13  3  6  5        1 -.990846765257D-01 0.100000000000D+01
-.528593149473D-05 0.000000000000D+00 0.000000000000D+00 0.262506750660D-06 0.000000000000D+00  6 21 1 25 23 1 21 4 0.29734789D-01 0.16710124D-01 0.20215915D+05 0.20215915D+05 0.20215915D+05 0.12333130D+01  1  2  8  3  6  5        1 -.458679405553D-01 0.100000000000D+01
0.481419123967D-04 0.000000000000D+00 0.000000000000D+00 0.262506750660D-06 0.249453470514D-06  6 21 1 25 23 1 21 4 0.29734789D-01 0.16710124D-01 0.19106331D+05 0.19106331D+05 0.19106331D+05 0.12360177D+01  1  2  1  3  6  5        1 0.421283480509D+00 0.100000000000D+01
  </mgrwgt>
  </event>
  <event>
  5     66 0.44737074E-03 0.92902293E+02 0.75467711E-02 0.11623845E+00
       21 -1    0    0  501  502 0.00000000E+00 0.00000000E+00 0.20556293E+02 0.20569970E+02 0.75000000E+00 0.0000E+00 0.9000E+01
        1 -1    0    0  502    0 0.00000000E+00 0.00000000E+00 -.21162792E+04 0.21162793E+04 0.32000000E+00 0.0000E+00 0.9000E+01
       25  1    1    2    0    0 0.12850886E+02 -.21171585E+02 -.43984550E+03 0.45793279E+03 0.12500000E+03 0.0000E+00 0.9000E+01
       23  1    1    2    0    0 -.33235535E+02 -.74508405E+02 -.37822546E+03 0.39752465E+03 0.91188000E+02 0.0000E+00 0.9000E+01
        1  1    1    2  501    0 0.20384650E+02 0.95679990E+02 -.12776520E+04 0.12813918E+04 0.32000000E+00 0.0000E+00 0.9000E+01
#aMCatNLO 1  0  0  1  2 0.25352117D+02 0.00000000D+00  -5  6  0 0.00000000D+00 0.00000000D+00 0.00000000D+00 0.00000000D+00 0.00000000D+00
  <mgrwgt>
 0.8521335635D-01   32    2    0
 0.208608471913082D+03 0.000000000000000D+00 0.000000000000000D+00 0.208608471913082D+03
 0.208608471913082D+03 0.000000000000000D+00 0.000000000000000D+00 -.208608471913082D+03
 0.135994123075671D+03 0.128508694165530D+02 -.211716612656295D+02 0.474975517854642D+02
 0.136127065834521D+03 -.332355514747086D+02 -.745084806648023D+02 0.596591244983600D+02
 0.145095754915972D+03 0.203846820581556D+02 0.956801419304318D+02 -.107156676283824D+03
 0.000000000000000D+00 0.000000000000000D+00 0.000000000000000D+00 0.000000000000000D+00
 0.228202546402717D+03 0.000000000000000D+00 0.000000000000000D+00 0.228202546402717D+03
 0.217358072496376D+03 0.000000000000000D+00 0.000000000000000D+00 -.217358072496376D+03
 0.137253777422490D+03 0.104743809420188D+02 -.291181959436215D+02 0.474975517854642D+02
 0.141294469343622D+03 -.356483388364284D+02 -.825763920584334D+02 0.596591244983600D+02
 0.139438245886011D+03 0.179100362428127D+02 0.874053873931833D+02 -.107156676283824D+03
 0.275741262469704D+02 0.726392165159691D+01 0.242892006088716D+02 0.108444739063411D+02
0.584093491983D-05 0.000000000000D+00 0.000000000000D+00 0.132036517081D-06 0.000000000000D+00  6 21 1 25 23 1 21 2 0.31635606D-02 0.32558247D+00 0.30209044D+05 0.30209044D+05 0.30209044D+05 0.12145820D+01  1  2  2  1  6  1       21 0.163299538474D-01 0.100000000000D+01
-.760560909295D-06 0.308234603987D-06 -.117911647552D-07 0.132036517081D-06 0.000000000000D+00  6 21 1 25 23 1 21 4 0.31635606D-02 0.32558247D+00 0.30209044D+05 0.30209044D+05 0.30209044D+05 0.12145820D+01  1  2  3  1  6  1       21 -.313682493853D-02 0.100000000000D+01
0.596245390610D-06 0.000000000000D+00 0.000000000000D+00 0.132036517081D-06 0.000000000000D+00  6 21 1 25 23 1 21 4 0.31635606D-02 0.32558247D+00 0.30209044D+05 0.30209044D+05 0.30209044D+05 0.12145820D+01  1  2 15  1  6  1       21 0.245912902950D-02 0.100000000000D+01
0.130251856079D-04 0.000000000000D+00 0.000000000000D+00 0.130737459297D-06 0.000000000000D+00  6 21 1 25 23 1 21 4 0.35223782D-02 0.32558247D+00 0.34489809D+05 0.34489809D+05 0.34489809D+05 0.12085923D+01  1  2 12  1  6  1       21 0.438869307369D-01 0.100000000000D+01
0.115565981036D-04 0.000000000000D+00 0.000000000000D+00 0.130737459297D-06 0.000000000000D+00  6 21 1 25 23 1 21 4 0.35655149D-02 0.32558247D+00 0.34489809D+05 0.34489809D+05 0.34489809D+05 0.12085923D+01  1  2 12  1  6  1       21 0.381570601286D-01 0.100000000000D+01
-.153943998427D-04 0.000000000000D+00 0.000000000000D+00 0.132036517081D-06 0.000000000000D+00  6 21 1 25 23 1 21 4 0.31635606D-02 0.32558247D+00 0.30209044D+05 0.30209044D+05 0.30209044D+05 0.12145820D+01  1  2  4  1  6  1       21 -.634920053743D-01 0.100000000000D+01
-.645105392664D-04 0.000000000000D+00 -.143637425593D-04 0.132036517081D-06 0.000000000000D+00  6 21 1 25 23 1 21 4 0.36324619D-02 0.32558247D+00 0.30209044D+05 0.30209044D+05 0.30209044D+05 0.12145820D+01  1  2  5  1  6  1       21 -.211511148483D+00 0.100000000000D+01
0.640309273208D-04 0.000000000000D+00 0.138294779097D-04 0.132036517081D-06 0.000000000000D+00  6 21 1 25 23 1 21 4 0.31635606D-02 0.32558247D+00 0.30209044D+05 0.30209044D+05 0.30209044D+05 0.12145820D+01  1  2  6  1  6  1       21 0.264086422537D+00 0.100000000000D+01
0.360939279199D-06 0.000000000000D+00 0.000000000000D+00 0.130737459297D-06 0.000000000000D+00  6 -1 1 25 23 1 -1 4 0.35223782D-02 0.32558247D+00 0.34489809D+05 0.34489809D+05 0.34489809D+05 0.12085923D+01  1  2 12  4  6  1       21 0.655554954249D-04 0.100000000000D+01
0.361989257279D-06 0.000000000000D+00 0.000000000000D+00 0.130737459297D-06 0.000000000000D+00  6 -1 1 25 23 1 -1 4 0.35655149D-02 0.32558247D+00 0.34489809D+05 0.34489809D+05 0.34489809D+05 0.12085923D+01  1  2 12  4  6  1       21 0.645767511506D-04 0.100000000000D+01
-.198786480501D-05 0.000000000000D+00 -.531741597046D-06 0.132036517081D-06 0.000000000000D+00  6 -1 1 25 23 1 -1 4 0.36324619D-02 0.32558247D+00 0.30209044D+05 0.30209044D+05 0.30209044D+05 0.12145820D+01  1  2  5  4  6  1       21 -.352569727799D-03 0.100000000000D+01
0.360939279199D-06 0.000000000000D+00 0.000000000000D+00 0.130737459297D-06 0.000000000000D+00  6 1 1 25 23 1 1 4 0.35223782D-02 0.32558247D+00 0.34489809D+05 0.34489809D+05 0.34489809D+05 0.12085923D+01  1  2 12  5  6  1       21 0.713756444163D-04 0.100000000000D+01
0.361989257279D-06 0.000000000000D+00 0.000000000000D+00 0.130737459297D-06 0.000000000000D+00  6 1 1 25 23 1 1 4 0.35655149D-02 0.32558247D+00 0.34489809D+05 0.34489809D+05 0.34489809D+05 0.12085923D+01  1  2 12  5  6  1       21 0.703804813717D-04 0.100000000000D+01
-.198786480501D-05 0.000000000000D+00 -.531741597046D-06 0.132036517081D-06 0.000000000000D+00  6 1 1 25 23 1 1 4 0.36324619D-02 0.32558247D+00 0.30209044D+05 0.30209044D+05 0.30209044D+05 0.12145820D+01  1  2  5  5  6  1       21 -.384921368494D-03 0.100000000000D+01
0.360939279199D-06 0.000000000000D+00 0.000000000000D+00 0.130737459297D-06 0.000000000000D+00  6 -2 1 25 23 1 -2 4 0.35223782D-02 0.32558247D+00 0.34489809D+05 0.34489809D+05 0.34489809D+05 0.12085923D+01  1  2 12  6  6  1       21 0.645190424434D-04 0.100000000000D+01
0.360939279199D-06 0.000000000000D+00 0.000000000000D+00 0.130737459297D-06 0.000000000000D+00  6 -4 1 25 23 1 -4 4 0.35223782D-02 0.32558247D+00 0.34489809D+05 0.34489809D+05 0.34489809D+05 0.12085923D+01  1  2 12  6  6  1       21 0.441129702607D-04 0.100000000000D+01
0.361989257279D-06 0.000000000000D+00 0.000000000000D+00 0.130737459297D-06 0.000000000000D+00  6 -2 1 25 23 1 -2 4 0.35655149D-02 0.32558247D+00 0.34489809D+05 0.34489809D+05 0.34489809D+05 0.12085923D+01  1  2 12  6  6  1       21 0.635435916605D-04 0.100000000000D+01
0.361989257279D-06 0.000000000000D+00 0.000000000000D+00 0.130737459297D-06 0.000000000000D+00  6 -4 1 25 23 1 -4 4 0.35655149D-02 0.32558247D+00 0.34489809D+05 0.34489809D+05 0.34489809D+05 0.12085923D+01  1  2 12  6  6  1       21 0.433939532822D-04 0.100000000000D+01
-.198786480501D-05 0.000000000000D+00 -.531741597046D-06 0.132036517081D-06 0.000000000000D+00  6 -2 1 25 23 1 -2 4 0.36324619D-02 0.32558247D+00 0.30209044D+05 0.30209044D+05 0.30209044D+05 0.12145820D+01  1  2  5  6  6  1       21 -.346811589438D-03 0.100000000000D+01
-.198786480501D-05 0.000000000000D+00 -.531741597046D-06 0.132036517081D-06 0.000000000000D+00  6 -4 1 25 23 1 -4 4 0.36324619D-02 0.32558247D+00 0.30209044D+05 0.30209044D+05 0.30209044D+05 0.12145820D+01  1  2  5  6  6  1       21 -.235511065313D-03 0.100000000000D+01
0.360939279199D-06 0.000000000000D+00 0.000000000000D+00 0.130737459297D-06 0.000000000000D+00  6 2 1 25 23 1 2 4 0.35223782D-02 0.32558247D+00 0.34489809D+05 0.34489809D+05 0.34489809D+05 0.12085923D+01  1  2 12  7  6  1       21 0.753208332682D-04 0.100000000000D+01
0.360939279199D-06 0.000000000000D+00 0.000000000000D+00 0.130737459297D-06 0.000000000000D+00  6 4 1 25 23 1 4 4 0.35223782D-02 0.32558247D+00 0.34489809D+05 0.34489809D+05 0.34489809D+05 0.12085923D+01  1  2 12  7  6  1       21 0.441129702607D-04 0.100000000000D+01
0.361989257279D-06 0.000000000000D+00 0.000000000000D+00 0.130737459297D-06 0.000000000000D+00  6 2 1 25 23 1 2 4 0.35655149D-02 0.32558247D+00 0.34489809D+05 0.34489809D+05 0.34489809D+05 0.12085923D+01  1  2 12  7  6  1       21 0.743133752102D-04 0.100000000000D+01
0.361989257279D-06 0.000000000000D+00 0.000000000000D+00 0.130737459297D-06 0.000000000000D+00  6 4 1 25 23 1 4 4 0.35655149D-02 0.32558247D+00 0.34489809D+05 0.34489809D+05 0.34489809D+05 0.12085923D+01  1  2 12  7  6  1       21 0.433939532822D-04 0.100000000000D+01
-.198786480501D-05 0.000000000000D+00 -.531741597046D-06 0.132036517081D-06 0.000000000000D+00  6 2 1 25 23 1 2 4 0.36324619D-02 0.32558247D+00 0.30209044D+05 0.30209044D+05 0.30209044D+05 0.12145820D+01  1  2  5  7  6  1       21 -.406825614404D-03 0.100000000000D+01
-.198786480501D-05 0.000000000000D+00 -.531741597046D-06 0.132036517081D-06 0.000000000000D+00  6 4 1 25 23 1 4 4 0.36324619D-02 0.32558247D+00 0.30209044D+05 0.30209044D+05 0.30209044D+05 0.12145820D+01  1  2  5  7  6  1       21 -.235511065313D-03 0.100000000000D+01
0.360939279199D-06 0.000000000000D+00 0.000000000000D+00 0.130737459297D-06 0.000000000000D+00  6 -3 1 25 23 1 -3 4 0.35223782D-02 0.32558247D+00 0.34489809D+05 0.34489809D+05 0.34489809D+05 0.12085923D+01  1  2 12  8  6  1       21 0.488325715773D-04 0.100000000000D+01
0.361989257279D-06 0.000000000000D+00 0.000000000000D+00 0.130737459297D-06 0.000000000000D+00  6 -3 1 25 23 1 -3 4 0.35655149D-02 0.32558247D+00 0.34489809D+05 0.34489809D+05 0.34489809D+05 0.12085923D+01  1  2 12  8  6  1       21 0.480496214683D-04 0.100000000000D+01
-.198786480501D-05 0.000000000000D+00 -.531741597046D-06 0.132036517081D-06 0.000000000000D+00  6 -3 1 25 23 1 -3 4 0.36324619D-02 0.32558247D+00 0.30209044D+05 0.30209044D+05 0.30209044D+05 0.12145820D+01  1  2  5  8  6  1       21 -.261193764745D-03 0.100000000000D+01
0.360939279199D-06 0.000000000000D+00 0.000000000000D+00 0.130737459297D-06 0.000000000000D+00  6 3 1 25 23 1 3 4 0.35223782D-02 0.32558247D+00 0.34489809D+05 0.34489809D+05 0.34489809D+05 0.12085923D+01  1  2 12  9  6  1       21 0.488287608281D-04 0.100000000000D+01
0.361989257279D-06 0.000000000000D+00 0.000000000000D+00 0.130737459297D-06 0.000000000000D+00  6 3 1 25 23 1 3 4 0.35655149D-02 0.32558247D+00 0.34489809D+05 0.34489809D+05 0.34489809D+05 0.12085923D+01  1  2 12  9  6  1       21 0.480458451513D-04 0.100000000000D+01
-.198786480501D-05 0.000000000000D+00 -.531741597046D-06 0.132036517081D-06 0.000000000000D+00  6 3 1 25 23 1 3 4 0.36324619D-02 0.32558247D+00 0.30209044D+05 0.30209044D+05 0.30209044D+05 0.12145820D+01  1  2  5  9  6  1       21 -.261172797868D-03 0.100000000000D+01
  </mgrwgt>
  </event>
  <event>
  5     66 0.44737074E-03 0.35786273E+02 0.75467711E-02 0.11729195E+00
       21 -1    0    0  501  502 0.00000000E+00 0.00000000E+00 0.18082515E+02 0.18098062E+02 0.75000000E+00 0.0000E+00 0.9000E+01
        1 -1    0    0  502    0 0.00000000E+00 0.00000000E+00 -.22832258E+04 0.22832258E+04 0.32000000E+00 0.0000E+00 0.9000E+01
       25  1    1    2    0    0 -.10335312E+03 0.42561826E+02 -.10994848E+04 0.11121983E+04 0.12500000E+03 0.0000E+00 0.9000E+01
       23  1    1    2    0    0 0.87995332E+02 -.10238696E+02 -.11347163E+04 0.11418162E+04 0.91188000E+02 0.0000E+00 0.9000E+01
        1  1    1    2  501    0 0.15357784E+02 -.32323130E+02 -.30942191E+02 0.47309279E+02 0.32000000E+00 0.0000E+00 0.9000E+01
#aMCatNLO 1  0  0  2  1 0.20271931D+02 0.00000000D+00  -5  6  0 0.00000000D+00 0.00000000D+00 0.00000000D+00 0.00000000D+00 0.00000000D+00
  <mgrwgt>
 0.1015728641D+00    9    2    0
 0.203234788047194D+03 0.000000000000000D+00 0.000000000000000D+00 0.203234788047194D+03
 0.203234788047194D+03 0.000000000000000D+00 0.000000000000000D+00 -.203234788047194D+03
 0.169848080449195D+03 -.103353152494258D+03 0.425619020538568D+02 -.270181567715674D+02
 0.141201254171831D+03 0.879953024481325D+02 -.102386325806338D+02 -.614372849793885D+02
 0.954202414733615D+02 0.153578500461251D+02 -.323232694732230D+02 0.884554417509559D+02
 0.000000000000000D+00 0.000000000000000D+00 -.000000000000000D+00 -.000000000000000D+00
 0.205525693558984D+03 0.000000000000000D+00 0.000000000000000D+00 0.205525693558984D+03
 0.253890904998416D+03 0.000000000000000D+00 0.000000000000000D+00 -.253890904998416D+03
 0.175364686958473D+03 -.111929597687538D+03 0.432383833904095D+02 -.270181567715674D+02
 0.136961582998273D+03 0.810846416816973D+02 -.969354275304381D+01 -.614372849793885D+02
 0.946485050263801D+02 0.106357935603478D+02 -.319508094375338D+02 0.884554417509559D+02
 0.524418235742746D+02 0.202091624454926D+02 -.159403119983180D+01 -.483652114394323D+02
0.974666436916D-05 0.000000000000D+00 0.000000000000D+00 0.881349603787D-06 0.000000000000D+00  6 21 1 25 23 1 21 2 0.27831230D-02 0.35126670D+00 0.27325156D+05 0.27325156D+05 0.27325156D+05 0.12191784D+01  1  2  2  2  6  2        1 0.265546503438D-01 0.100000000000D+01
0.107510607805D-05 0.514345609608D-06 -.196757072228D-07 0.881349603787D-06 0.000000000000D+00  6 21 1 25 23 1 21 4 0.27831230D-02 0.35126670D+00 0.27325156D+05 0.27325156D+05 0.27325156D+05 0.12191784D+01  1  2  3  2  6  2        1 0.435381910017D-02 0.100000000000D+01
0.734308901770D-06 0.000000000000D+00 0.000000000000D+00 0.881349603787D-06 0.000000000000D+00  6 21 1 25 23 1 21 4 0.27831230D-02 0.35126670D+00 0.27325156D+05 0.27325156D+05 0.27325156D+05 0.12191784D+01  1  2 15  2  6  2        1 0.297370481593D-02 0.100000000000D+01
0.140628467237D-03 0.000000000000D+00 0.000000000000D+00 0.873960460982D-06 0.000000000000D+00  6 21 1 25 23 1 21 4 0.27831230D-02 0.44046452D+00 0.30559623D+05 0.30559623D+05 0.30559623D+05 0.12140569D+01  1  2 12  2  6  2        1 0.230566477664D+00 0.100000000000D+01
-.134150926454D-03 0.000000000000D+00 0.000000000000D+00 0.881349603787D-06 0.000000000000D+00  6 21 1 25 23 1 21 4 0.27831230D-02 0.35126670D+00 0.27325156D+05 0.27325156D+05 0.27325156D+05 0.12191784D+01  1  2  4  2  6  2        1 -.543266267227D+00 0.100000000000D+01
-.162280738820D-03 0.000000000000D+00 -.131373029772D-04 0.881349603787D-06 0.000000000000D+00  6 21 1 25 23 1 21 4 0.27831230D-02 0.44009636D+00 0.27325156D+05 0.27325156D+05 0.27325156D+05 0.12191784D+01  1  2  5  2  6  2        1 -.272909801386D+00 0.100000000000D+01
0.161449076961D-03 0.000000000000D+00 0.128103669056D-04 0.881349603787D-06 0.000000000000D+00  6 21 1 25 23 1 21 4 0.27831230D-02 0.35126670D+00 0.27325156D+05 0.27325156D+05 0.27325156D+05 0.12191784D+01  1  2  6  2  6  2        1 0.653814622878D+00 0.100000000000D+01
0.441933225524D-05 0.000000000000D+00 0.000000000000D+00 0.873960460982D-06 0.000000000000D+00  6 21 21 25 23 1 -1 4 0.27831230D-02 0.44046452D+00 0.30559623D+05 0.30559623D+05 0.30559623D+05 0.12140569D+01  1  2 12 10  6  2        1 0.339816306331D-02 0.100000000000D+01
-.490016069346D-05 0.000000000000D+00 -.411702577879D-06 0.881349603787D-06 0.000000000000D+00  6 21 21 25 23 1 -1 4 0.27831230D-02 0.44009636D+00 0.27325156D+05 0.27325156D+05 0.27325156D+05 0.12191784D+01  1  2  5 10  6  2        1 -.391250511833D-02 0.100000000000D+01
  </mgrwgt>
  </event>
  <event>
  5     66 0.44737074E-03 0.43619365E+02 0.75467711E-02 0.12052905E+00
       21 -1    0    0  501  502 0.00000000E+00 0.00000000E+00 0.62722464E+02 0.62726948E+02 0.75000000E+00 0.0000E+00 0.9000E+01
        1 -1    0    0  502    0 -.00000000E+00 -.00000000E+00 -.56141364E+03 0.56141373E+03 0.32000000E+00 0.0000E+00 0.9000E+01
       25  1    1    2    0    0 0.33915754E+01 0.72749459E+02 -.20373939E+03 0.24987742E+03 0.12500000E+03 0.0000E+00 0.9000E+01
       23  1    1    2    0    0 -.31167246E+02 -.39116970E+02 -.33600443E+02 0.10929673E+03 0.91188000E+02 0.0000E+00 0.9000E+01
        1  1    1    2  501    0 0.27775671E+02 -.33632489E+02 -.26135135E+03 0.26496653E+03 0.32000000E+00 0.0000E+00 0.9000E+01
#aMCatNLO 1  0  0  5  1 0.27640599D+03 0.00000000D+00  -5  6  0 0.00000000D+00 0.00000000D+00 0.00000000D+00 0.00000000D+00 0.00000000D+00
  <mgrwgt>
 0.2264129286D-01    1    2    0
 0.187655733560658D+03 0.000000000000000D+00 0.000000000000000D+00 0.187655733560658D+03
 0.187655733560658D+03 -.000000000000000D+00 -.000000000000000D+00 -.187655733560658D+03
 0.144828075924323D+03 0.339151248800386D+01 0.727495352748676D+02 -.679517006968180D+01
 0.137113670509268D+03 -.311673059007211D+02 -.391168977428482D+02 0.893497322345769D+02
 0.933697206877245D+02 0.277757934127172D+02 -.336326375320194D+02 -.825545621648951D+02
 0.000000000000000D+00 0.000000000000000D+00 0.000000000000000D+00 0.000000000000000D+00
 0.187655733560658D+03 0.000000000000000D+00 0.000000000000000D+00 0.187655733560658D+03
 0.187655733560658D+03 -.000000000000000D+00 -.000000000000000D+00 -.187655733560658D+03
 0.143572565503200D+03 0.836537403958461D+01 0.667268780562921D+02 -.215783647946092D+02
 0.129408172589592D+03 -.265707740016095D+02 -.446826610306902D+02 0.756880278587662D+02
 0.453055543719993D+02 -.227953551944063D+02 -.353728723574906D+02 -.167846638243284D+02
 0.570251746565244D+02 0.410007551564311D+02 0.133286553318887D+02 -.373249992398287D+02
0.266616620587D-05 0.000000000000D+00 0.000000000000D+00 0.955879595254D-07 0.000000000000D+00  6 21 1 25 23 1 21 4 0.96499617D-02 0.86371681D-01 0.21358611D+05 0.21358611D+05 0.21358611D+05 0.12306960D+01  1  2 14  3  6  5        1 0.226412928585D-01 0.100000000000D+01
  </mgrwgt>
  </event>
  <event>
  6     66 -.44737074E-03 0.10260542E+03 0.75467711E-02 0.11682546E+00
       21 -1    0    0  501  503 0.00000000E+00 0.00000000E+00 0.35900633E+03 0.35900711E+03 0.75000000E+00 0.0000E+00 0.9000E+01
        3 -1    0    0  502    0 0.00000000E+00 0.00000000E+00 -.11427839E+03 0.11427948E+03 0.50000000E+00 0.0000E+00 0.9000E+01
       25  1    1    2    0    0 -.59430722E+02 -.16250098E+02 0.92689156E+02 0.16736892E+03 0.12500000E+03 0.0000E+00 0.9000E+01
       23  1    1    2    0    0 -.30094819E+02 -.18954600E+02 -.42127397E+01 0.97969248E+02 0.91188000E+02 0.0000E+00 0.9000E+01
        3  1    1    2  501    0 0.10154369E+03 0.39657041E+02 0.92657755E+02 0.14307170E+03 0.50000000E+00 0.0000E+00 0.9000E+01
       21  1    1    2  502  503 -.12018151E+02 -.44523431E+01 0.63593768E+02 0.64876722E+02 0.75000000E+00 0.0000E+00 0.9000E+01
#aMCatNLO 2  0  0  1  2 0.12816369D+02 0.00000000D+00  -5  6  0 0.00000000D+00 0.00000000D+00 0.00000000D+00 0.00000000D+00 0.00000000D+00
  <mgrwgt>
 -.5924940310D-02    3    2    0
 0.182910343911932D+03 0.000000000000000D+00 0.000000000000000D+00 0.182910343911932D+03
 0.182910343911932D+03 0.000000000000000D+00 0.000000000000000D+00 -.182910343911932D+03
 0.143110030527379D+03 -.640944738748776D+02 -.179778782401704D+02 0.205955128664359D+02
 0.112680383619546D+03 -.337746837094071D+02 -.203178794446467D+02 -.531796203808415D+02
 0.110030273676939D+03 0.978691575842847D+02 0.382957576848172D+02 0.325841075144056D+02
 0.000000000000000D+00 -.000000000000000D+00 -.000000000000000D+00 0.000000000000000D+00
 0.222901784667334D+03 0.000000000000000D+00 0.000000000000000D+00 0.222901784667334D+03
 0.184052293335472D+03 0.000000000000000D+00 0.000000000000000D+00 -.184052293335472D+03
 0.140873357588229D+03 -.594311120382317D+02 -.162502507626364D+02 0.205955128664359D+02
 0.111392644744046D+03 -.300951247886329D+02 -.189547197072271D+02 -.531796203808415D+02
 0.113779124587721D+03 0.101544387369645D+03 0.396573136150358D+02 0.325841075144056D+02
 0.409089510828100D+02 -.120181505427807D+02 -.445234314517221D+01 0.388494913318622D+02
-.226028477630D-04 0.000000000000D+00 0.000000000000D+00 0.206130380880D-06 0.000000000000D+00  6 21 3 25 23 3 21 4 0.55352028D-01 0.17472027D-01 0.32232533D+05 0.32232533D+05 0.32232533D+05 0.12116402D+01  1  2 13  1  6  1       21 -.210136096273D-01 0.100000000000D+01
-.213340354552D-04 0.000000000000D+00 0.000000000000D+00 0.206130380880D-06 0.000000000000D+00  6 21 3 25 23 3 21 4 0.55921832D-01 0.17472027D-01 0.32232533D+05 0.32232533D+05 0.32232533D+05 0.12116402D+01  1  2 13  1  6  1       21 -.194089059005D-01 0.100000000000D+01
0.373388389304D-04 0.000000000000D+00 0.000000000000D+00 0.207272198604D-06 0.200534658189D-07  6 21 3 25 23 3 21 4 0.55230861D-01 0.17581108D-01 0.32232533D+05 0.32232533D+05 0.32232533D+05 0.12116402D+01  1  2  1  1  6  1       21 0.344975752178D-01 0.100000000000D+01
  </mgrwgt>
  </event>
  <event>
  5     66 0.44737074E-03 0.42000970E+02 0.75467711E-02 0.96441833E-01
       21 -1    0    0  501  502 0.00000000E+00 0.00000000E+00 0.20405712E+03 0.20405850E+03 0.75000000E+00 0.0000E+00 0.9000E+01
        1 -1    0    0  502    0 0.00000000E+00 0.00000000E+00 -.12877629E+03 0.12877668E+03 0.32000000E+00 0.0000E+00 0.9000E+01
       25  1    1    2    0    0 -.10135781E+02 -.70356948E+02 -.70419759E+01 0.14397022E+03 0.12500000E+03 0.0000E+00 0.9000E+01
       23  1    1    2    0    0 0.38444977E+02 0.39330514E+02 0.12282535E+02 0.10719616E+03 0.91188000E+02 0.0000E+00 0.9000E+01
        1  1    1    2  501    0 -.28309196E+02 0.31026434E+02 0.70040280E+02 0.81668803E+02 0.32000000E+00 0.0000E+00 0.9000E+01
#aMCatNLO 1  0  0  1  1 0.38943394D+02 0.00000000D+00  -5  6  0 0.00000000D+00 0.00000000D+00 0.00000000D+00 0.00000000D+00 0.00000000D+00
  <mgrwgt>
 0.3141857138D-01    3    2    0
 0.162104947433755D+03 0.000000000000000D+00 0.000000000000000D+00 0.162104947433755D+03
 0.162104947433755D+03 0.000000000000000D+00 0.000000000000000D+00 -.162104947433755D+03
 0.149435677969612D+03 -.101356348767035D+02 -.703571086239473D+02 -.406591689777575D+02
 0.107196054286546D+03 0.384450824041922D+02 0.393303991567037D+02 -.122816143773257D+02
 0.675781626113513D+02 -.283094475274888D+02 0.310267094672436D+02 0.529407833550832D+02
 0.000000000000000D+00 -.000000000000000D+00 0.000000000000000D+00 -.000000000000000D+00
 0.523556487568546D+03 0.000000000000000D+00 0.000000000000000D+00 0.523556487568546D+03
 0.141798130661875D+04 0.000000000000000D+00 0.000000000000000D+00 -.141798130661875D+04
 0.455652757879466D+03 0.275723648838588D+03 -.338109061121314D+03 -.406591689777575D+02
 0.264416392899226D+03 0.214004325778506D+03 -.125108305024931D+03 -.122816143773257D+02
 0.717478600618593D+02 0.375117360956574D+02 -.306251291637447D+02 0.529407833550832D+02
 0.114972078334675D+04 -.527239710712752D+03 0.493842495309989D+03 -.894424819050206D+03
0.643741733588D-05 0.000000000000D+00 0.000000000000D+00 0.638258761665D-06 0.000000000000D+00  6 21 1 25 23 1 21 2 0.31393540D-01 0.19811873D-01 0.21358230D+05 0.21358230D+05 0.21358230D+05 0.12306969D+01  1  2  2  1  6  1       21 0.264705188292D-01 0.100000000000D+01
0.207979349706D-06 0.339711845870D-06 -.129952908990D-07 0.638258761665D-06 0.000000000000D+00  6 21 1 25 23 1 21 4 0.31393540D-01 0.19811873D-01 0.21358230D+05 0.21358230D+05 0.21358230D+05 0.12306969D+01  1  2  3  1  6  1       21 0.129530846204D-02 0.100000000000D+01
0.586497627593D-06 0.000000000000D+00 0.000000000000D+00 0.638258761665D-06 0.000000000000D+00  6 21 1 25 23 1 21 4 0.31393540D-01 0.19811873D-01 0.21358230D+05 0.21358230D+05 0.21358230D+05 0.12306969D+01  1  2 15  1  6  1       21 0.365274408765D-02 0.100000000000D+01
  </mgrwgt>
  </event>
  <event>
  5     66 0.44737074E-03 0.69506028E+02 0.75467711E-02 0.11220368E+00
       21 -1    0    0  501  502 0.00000000E+00 0.00000000E+00 0.83947276E+02 0.83950626E+02 0.75000000E+00 0.0000E+00 0.9000E+01
        1 -1    0    0  502    0 0.00000000E+00 0.00000000E+00 -.50272539E+03 0.50272549E+03 0.32000000E+00 0.0000E+00 0.9000E+01
       25  1    1    2    0    0 0.34445081E+02 -.82617385E+02 -.79782997E+02 0.17321207E+03 0.12500000E+03 0.0000E+00 0.9000E+01
       23  1    1    2    0    0 -.94837642E+02 0.48211614E+02 -.30593342E+03 0.33649524E+03 0.91188000E+02 0.0000E+00 0.9000E+01
        1  1    1    2  501    0 0.60392561E+02 0.34405771E+02 -.33061696E+02 0.76968803E+02 0.32000000E+00 0.0000E+00 0.9000E+01
#aMCatNLO 1  0  0  1  5 0.31301281D+02 0.00000000D+00  -5  6  0 0.00000000D+00 0.00000000D+00 0.00000000D+00 0.00000000D+00 0.00000000D+00
  <mgrwgt>
 0.3370519890D-01    4    2    0
 0.205434757547047D+03 0.000000000000000D+00 0.000000000000000D+00 0.205434757547047D+03
 0.205434757547047D+03 0.000000000000000D+00 0.000000000000000D+00 -.205434757547047D+03
 0.166008917034126D+03 0.344448654808712D+02 -.826175070770600D+02 0.626247499094396D+02
 0.168655886890068D+03 -.948378602793741D+02 0.482114891078509D+02 -.938668706962630D+02
 0.762047111699008D+02 0.603929947985029D+02 0.344060179692091D+02 0.312421207868234D+02
 0.000000000000000D+00 -.000000000000000D+00 0.000000000000000D+00 -.000000000000000D+00
 0.248065330355705D+03 0.000000000000000D+00 0.000000000000000D+00 0.248065330355705D+03
 0.280223519268768D+03 0.000000000000000D+00 0.000000000000000D+00 -.280223519268768D+03
 0.182834552999957D+03 0.757123195590296D+02 -.902732470694707D+02 0.626247499094396D+02
 0.148695527858657D+03 -.572958505822969D+02 0.412468756744890D+02 -.938668706962630D+02
 0.914096785880293D+02 0.802214271079800D+02 0.307275423857392D+02 0.312421207868234D+02
 0.105349090177829D+03 -.986378960847128D+02 0.182988290092424D+02 -.321581889130631D+02
0.106527894937D-04 0.000000000000D+00 0.000000000000D+00 0.119304382549D-06 0.000000000000D+00  6 21 1 25 23 1 21 2 0.12915231D-01 0.77342633D-01 0.33009508D+05 0.33009508D+05 0.33009508D+05 0.12105650D+01  1  2  2  1  6  1       21 0.398280436445D-01 0.100000000000D+01
-.356530196588D-06 0.562163146144D-06 -.215049127831D-07 0.119304382549D-06 0.000000000000D+00  6 21 1 25 23 1 21 4 0.12915231D-01 0.77342633D-01 0.33009508D+05 0.33009508D+05 0.33009508D+05 0.12105650D+01  1  2  3  1  6  1       21 -.195343129796D-02 0.100000000000D+01
0.870624199395D-06 0.000000000000D+00 0.000000000000D+00 0.119304382549D-06 0.000000000000D+00  6 21 1 25 23 1 21 4 0.12915231D-01 0.77342633D-01 0.33009508D+05 0.33009508D+05 0.33009508D+05 0.12105650D+01  1  2 15  1  6  1       21 0.477015572912D-02 0.100000000000D+01
-.163160401862D-05 0.000000000000D+00 0.000000000000D+00 0.119304382549D-06 0.000000000000D+00  6 21 1 25 23 1 21 4 0.12915231D-01 0.77342633D-01 0.33009508D+05 0.33009508D+05 0.33009508D+05 0.12105650D+01  1  2  4  1  6  1       21 -.893956917631D-02 0.100000000000D+01
  </mgrwgt>
  </event>
  <event>
  5     66 0.44737074E-03 0.26601734E+02 0.75467711E-02 0.11383668E+00
       21 -1    0    0  501  502 0.00000000E+00 0.00000000E+00 0.94608308E+02 0.94611281E+02 0.75000000E+00 0.0000E+00 0.9000E+01
        3 -1    0    0  502    0 0.00000000E+00 0.00000000E+00 -.10449898E+04 0.10449900E+04 0.50000000E+00 0.0000E+00 0.9000E+01
       25  1    1    2    0    0 0.15593471E+03 0.27194564E+02 -.22817361E+03 0.30453797E+03 0.12500000E+03 0.0000E+00 0.9000E+01
       23  1    1    2    0    0 -.15588975E+03 -.59297449E+00 -.76425553E+03 0.78530487E+03 0.91188000E+02 0.0000E+00 0.9000E+01
        3  1    1    2  501    0 -.44963248E-01 -.26601590E+02 0.42047613E+02 0.49758400E+02 0.50000000E+00 0.0000E+00 0.9000E+01
#aMCatNLO 1  0  0  1  2 0.23635243D+02 0.00000000D+00  -5  6  0 0.00000000D+00 0.00000000D+00 0.00000000D+00 0.00000000D+00 0.00000000D+00
  <mgrwgt>
 0.1615657513D-01   23    2    0
 0.314430409686380D+03 0.000000000000000D+00 0.000000000000000D+00 0.314430409686380D+03
 0.314430409686380D+03 0.000000000000000D+00 0.000000000000000D+00 -.314430409686380D+03
 0.207040770979241D+03 0.155934710895717D+03 0.271946107963712D+02 0.467514698077135D+02
 0.268104183656460D+03 -.155889747468483D+03 -.592914495479601D+00 -.198148017998441D+03
 0.153715864737059D+03 -.449634272342639D-01 -.266016963008916D+02 0.151396548190728D+03
 0.000000000000000D+00 -.000000000000000D+00 -.000000000000000D+00 0.000000000000000D+00
 0.354079096971135D+03 0.000000000000000D+00 0.000000000000000D+00 0.354079096971135D+03
 0.318194583193695D+03 0.000000000000000D+00 0.000000000000000D+00 -.318194583193695D+03
 0.208296327403113D+03 0.156051070569854D+03 0.349960491262302D+02 0.467514698077135D+02
 0.268183815423510D+03 -.155739502529951D+03 0.948039166513290D+01 -.198148017998441D+03
 0.152824675895452D+03 0.409161090671172D-01 -.208438260488472D+02 0.151396548190728D+03
 0.429688614427552D+02 -.352484148970852D+00 -.236326147425159D+02 0.358845137774395D+02
0.130155819770D-04 0.000000000000D+00 0.000000000000D+00 0.102032357044D-05 0.000000000000D+00  6 21 3 25 23 3 21 2 0.14555362D-01 0.16076791D+00 0.41799269D+05 0.41799269D+05 0.41799269D+05 0.12000646D+01  1  2  2  1  6  1       21 0.110629935373D-02 0.100000000000D+01
0.336632442471D-05 0.686851131096D-06 -.262747100562D-07 0.102032357044D-05 0.000000000000D+00  6 21 3 25 23 3 21 4 0.14555362D-01 0.16076791D+00 0.41799269D+05 0.41799269D+05 0.41799269D+05 0.12000646D+01  1  2  3  1  6  1       21 0.412073122752D-03 0.100000000000D+01
0.146989569452D-05 0.000000000000D+00 0.000000000000D+00 0.102032357044D-05 0.000000000000D+00  6 21 3 25 23 3 21 4 0.14555362D-01 0.16076791D+00 0.41799269D+05 0.41799269D+05 0.41799269D+05 0.12000646D+01  1  2 15  1  6  1       21 0.179930521406D-03 0.100000000000D+01
0.959293331314D-04 0.000000000000D+00 0.000000000000D+00 0.101349303226D-05 0.000000000000D+00  6 21 3 25 23 3 21 4 0.16470993D-01 0.16076791D+00 0.45834869D+05 0.45834869D+05 0.45834869D+05 0.11960410D+01  1  2 12  1  6  1       21 0.922660709576D-02 0.100000000000D+01
-.104027645600D-04 0.000000000000D+00 0.000000000000D+00 0.102032357044D-05 0.000000000000D+00  6 21 3 25 23 3 21 4 0.14555362D-01 0.16076791D+00 0.41799269D+05 0.41799269D+05 0.41799269D+05 0.12000646D+01  1  2  4  1  6  1       21 -.127340658139D-02 0.100000000000D+01
-.266760039976D-03 0.000000000000D+00 -.335870130800D-04 0.102032357044D-05 0.000000000000D+00  6 21 3 25 23 3 21 4 0.16559382D-01 0.16076791D+00 0.41799269D+05 0.41799269D+05 0.41799269D+05 0.12000646D+01  1  2  5  1  6  1       21 -.257930036776D-01 0.100000000000D+01
0.265512827115D-03 0.000000000000D+00 0.324951004943D-04 0.102032357044D-05 0.000000000000D+00  6 21 3 25 23 3 21 4 0.14555362D-01 0.16076791D+00 0.41799269D+05 0.41799269D+05 0.41799269D+05 0.12000646D+01  1  2  6  1  6  1       21 0.325015316400D-01 0.100000000000D+01
0.312151184825D-05 0.000000000000D+00 0.000000000000D+00 0.101349303226D-05 0.000000000000D+00  6 -3 3 25 23 3 -3 4 0.16470993D-01 0.16076791D+00 0.45834869D+05 0.45834869D+05 0.45834869D+05 0.11960410D+01  1  2 12  4  6  1       21 0.142537251716D-04 0.100000000000D+01
-.687016550635D-05 0.000000000000D+00 -.114767763903D-05 0.102032357044D-05 0.000000000000D+00  6 -3 3 25 23 3 -3 4 0.16559382D-01 0.16076791D+00 0.41799269D+05 0.41799269D+05 0.41799269D+05 0.12000646D+01  1  2  5  4  6  1       21 -.314256932198D-04 0.100000000000D+01
0.312151184825D-05 0.000000000000D+00 0.000000000000D+00 0.101349303226D-05 0.000000000000D+00  6 3 3 25 23 3 3 4 0.16470993D-01 0.16076791D+00 0.45834869D+05 0.45834869D+05 0.45834869D+05 0.11960410D+01  1  2 12  5  6  1       21 0.142522474109D-04 0.100000000000D+01
-.687016550635D-05 0.000000000000D+00 -.114767763903D-05 0.102032357044D-05 0.000000000000D+00  6 3 3 25 23 3 3 4 0.16559382D-01 0.16076791D+00 0.41799269D+05 0.41799269D+05 0.41799269D+05 0.12000646D+01  1  2  5  5  6  1       21 -.314224096081D-04 0.100000000000D+01
0.312151184825D-05 0.000000000000D+00 0.000000000000D+00 0.101349303226D-05 0.000000000000D+00  6 -2 3 25 23 3 -2 4 0.16470993D-01 0.16076791D+00 0.45834869D+05 0.45834869D+05 0.45834869D+05 0.11960410D+01  1  2 12  6  6  1       21 0.211635978247D-04 0.100000000000D+01
0.312151184825D-05 0.000000000000D+00 0.000000000000D+00 0.101349303226D-05 0.000000000000D+00  6 -4 3 25 23 3 -4 4 0.16470993D-01 0.16076791D+00 0.45834869D+05 0.45834869D+05 0.45834869D+05 0.11960410D+01  1  2 12  6  6  1       21 0.123398230541D-04 0.100000000000D+01
-.687016550635D-05 0.000000000000D+00 -.114767763903D-05 0.102032357044D-05 0.000000000000D+00  6 -2 3 25 23 3 -2 4 0.16559382D-01 0.16076791D+00 0.41799269D+05 0.41799269D+05 0.41799269D+05 0.12000646D+01  1  2  5  6  6  1       21 -.467648877957D-04 0.100000000000D+01
-.687016550635D-05 0.000000000000D+00 -.114767763903D-05 0.102032357044D-05 0.000000000000D+00  6 -4 3 25 23 3 -4 4 0.16559382D-01 0.16076791D+00 0.41799269D+05 0.41799269D+05 0.41799269D+05 0.12000646D+01  1  2  5  6  6  1       21 -.271778333277D-04 0.100000000000D+01
0.312151184825D-05 0.000000000000D+00 0.000000000000D+00 0.101349303226D-05 0.000000000000D+00  6 2 3 25 23 3 2 4 0.16470993D-01 0.16076791D+00 0.45834869D+05 0.45834869D+05 0.45834869D+05 0.11960410D+01  1  2 12  7  6  1       21 0.387874535448D-04 0.100000000000D+01
0.312151184825D-05 0.000000000000D+00 0.000000000000D+00 0.101349303226D-05 0.000000000000D+00  6 4 3 25 23 3 4 4 0.16470993D-01 0.16076791D+00 0.45834869D+05 0.45834869D+05 0.45834869D+05 0.11960410D+01  1  2 12  7  6  1       21 0.123398230541D-04 0.100000000000D+01
-.687016550635D-05 0.000000000000D+00 -.114767763903D-05 0.102032357044D-05 0.000000000000D+00  6 2 3 25 23 3 2 4 0.16559382D-01 0.16076791D+00 0.41799269D+05 0.41799269D+05 0.41799269D+05 0.12000646D+01  1  2  5  7  6  1       21 -.859410341638D-04 0.100000000000D+01
-.687016550635D-05 0.000000000000D+00 -.114767763903D-05 0.102032357044D-05 0.000000000000D+00  6 4 3 25 23 3 4 4 0.16559382D-01 0.16076791D+00 0.41799269D+05 0.41799269D+05 0.41799269D+05 0.12000646D+01  1  2  5  7  6  1       21 -.271778333277D-04 0.100000000000D+01
0.312151184825D-05 0.000000000000D+00 0.000000000000D+00 0.101349303226D-05 0.000000000000D+00  6 -1 3 25 23 3 -1 4 0.16470993D-01 0.16076791D+00 0.45834869D+05 0.45834869D+05 0.45834869D+05 0.11960410D+01  1  2 12  8  6  1       21 0.227725610576D-04 0.100000000000D+01
-.687016550635D-05 0.000000000000D+00 -.114767763903D-05 0.102032357044D-05 0.000000000000D+00  6 -1 3 25 23 3 -1 4 0.16559382D-01 0.16076791D+00 0.41799269D+05 0.41799269D+05 0.41799269D+05 0.12000646D+01  1  2  5  8  6  1       21 -.503430898734D-04 0.100000000000D+01
0.312151184825D-05 0.000000000000D+00 0.000000000000D+00 0.101349303226D-05 0.000000000000D+00  6 1 3 25 23 3 1 4 0.16470993D-01 0.16076791D+00 0.45834869D+05 0.45834869D+05 0.45834869D+05 0.11960410D+01  1  2 12  9  6  1       21 0.322094727091D-04 0.100000000000D+01
-.687016550635D-05 0.000000000000D+00 -.114767763903D-05 0.102032357044D-05 0.000000000000D+00  6 1 3 25 23 3 1 4 0.16559382D-01 0.16076791D+00 0.41799269D+05 0.41799269D+05 0.41799269D+05 0.12000646D+01  1  2  5  9  6  1       21 -.713222687732D-04 0.100000000000D+01
  </mgrwgt>
  </event>
  <event>
  6     66 -.44737074E-03 0.17263153E+02 0.75467711E-02 0.12218595E+00
       21 -1    0    0  501  503 0.00000000E+00 0.00000000E+00 0.36470135E+03 0.36470213E+03 0.75000000E+00 0.0000E+00 0.9000E+01
        3 -1    0    0  502    0 0.00000000E+00 0.00000000E+00 -.12783925E+03 0.12784023E+03 0.50000000E+00 0.0000E+00 0.9000E+01
       25  1    1    2    0    0 -.10170393E+02 -.33764355E+02 -.54729442E+02 0.14093892E+03 0.12500000E+03 0.0000E+00 0.9000E+01
       23  1    1    2    0    0 -.79252569E+01 0.31944224E+02 0.59840094E+02 0.11392687E+03 0.91188000E+02 0.0000E+00 0.9000E+01
        3  1    1    2  501    0 0.21118524E+02 -.13621554E+02 0.20572020E+03 0.20725006E+03 0.50000000E+00 0.0000E+00 0.9000E+01
       21  1    1    2  502  503 -.30228738E+01 0.15441685E+02 0.26031253E+02 0.30426502E+02 0.75000000E+00 0.0000E+00 0.9000E+01
#aMCatNLO 2  0  0  1  2 0.15734783D+02 0.00000000D+00  -5  6  0 0.00000000D+00 0.00000000D+00 0.00000000D+00 0.00000000D+00 0.00000000D+00
  <mgrwgt>
 -.4148749374D-01    3    2    0
 0.205459139995006D+03 0.000000000000000D+00 0.000000000000000D+00 0.205459139995006D+03
 0.205459139995006D+03 0.000000000000000D+00 0.000000000000000D+00 -.205459139995006D+03
 0.185385428046355D+03 -.115376168872713D+02 -.267805252289842D+02 -.133762639765192D+03
 0.986777693834685D+02 -.864605012488446D+01 0.356260618285436D+02 0.883630931575932D+01
 0.126855082560190D+03 0.201836670121557D+02 -.884553659955939D+01 0.124926330449433D+03
 0.000000000000000D+00 -.000000000000000D+00 0.000000000000000D+00 0.000000000000000D+00
 0.222852503794243D+03 0.000000000000000D+00 0.000000000000000D+00 0.222852503794243D+03
 0.209199378173476D+03 0.000000000000000D+00 0.000000000000000D+00 -.209199378173476D+03
 0.186442786022732D+03 -.101704617580315D+02 -.337643357789563D+02 -.133762639765192D+03
 0.973477094928122D+02 -.792529460185792D+01 0.319442411499623D+02 0.883630931575932D+01
 0.127428930360179D+03 0.211186302005144D+02 -.136215899083934D+02 0.124926330449433D+03
 0.208324560919962D+02 -.302287384062499D+01 0.154416845373875D+02 0.136531256207663D+02
-.572412002977D-04 0.000000000000D+00 0.000000000000D+00 0.460019692961D-05 0.000000000000D+00  6 21 3 25 23 3 21 4 0.56551074D-01 0.19315460D-01 0.17914462D+05 0.17914462D+05 0.17914462D+05 0.12391263D+01  1  2 13  1  6  1       21 -.464270180319D-01 0.100000000000D+01
-.763033965910D-07 0.000000000000D+00 0.000000000000D+00 0.465384395274D-05 0.000000000000D+00  6 21 3 25 23 3 21 4 0.51727222D-01 0.19315460D-01 0.15459741D+05 0.15459741D+05 0.15459741D+05 0.12463306D+01  1  2  8  1  6  1       21 -.761419220502D-04 0.100000000000D+01
0.627779536251D-05 0.000000000000D+00 0.000000000000D+00 0.465384395274D-05 0.126309207624D-06  6 21 3 25 23 3 21 4 0.56106246D-01 0.19667085D-01 0.17914462D+05 0.17914462D+05 0.17914462D+05 0.12391263D+01  1  2  1  1  6  1       21 0.501566621849D-02 0.100000000000D+01
  </mgrwgt>
  </event>
  <event>
  6     66 -.44737074E-03 0.22127749E+02 0.75467711E-02 0.11874375E+00
       21 -1    0    0  501  502 0.00000000E+00 0.00000000E+00 0.54995800E+02 0.55000913E+02 0.75000000E+00 0.0000E+00 0.9000E+01
        1 -1    0    0  503    0 0.00000000E+00 0.00000000E+00 -.10052285E+04 0.10052285E+04 0.32000000E+00 0.0000E+00 0.9000E+01
       25  1    1    2    0    0 -.44656061E+02 -.52668292E+02 -.32526394E+03 0.35523195E+03 0.12500000E+03 0.0000E+00 0.9000E+01
       23  1    1    2    0    0 0.67098001E+02 -.12926943E+01 -.51678576E+03 0.52904308E+03 0.91188000E+02 0.0000E+00 0.9000E+01
        1  1    1    2  501    0 -.27092091E+02 0.24939618E+02 0.21728550E+02 0.42757435E+02 0.32000000E+00 0.0000E+00 0.9000E+01
       21  1    1    2  503  502 0.46501523E+01 0.29021369E+02 -.12991152E+03 0.13319696E+03 0.75000000E+00 0.0000E+00 0.9000E+01
#aMCatNLO 2  0  0  2  1 0.29391559D+02 0.00000000D+00  -5  6  0 0.00000000D+00 0.00000000D+00 0.00000000D+00 0.00000000D+00 0.00000000D+00
  <mgrwgt>
 -.7472805686D-01    2    2    0
 0.215405756410825D+03 0.000000000000000D+00 0.000000000000000D+00 0.215405756410825D+03
 0.215405756410825D+03 0.000000000000000D+00 0.000000000000000D+00 -.215405756410825D+03
 0.141023431385465D+03 -.431156961146389D+02 -.430551280985947D+02 -.234499657290706D+02
 0.155019938648458D+03 0.687639936485304D+02 0.910448829389667D+01 -.104424860569611D+03
 0.134768142787728D+03 -.256482975338916D+02 0.339506398046980D+02 0.127874826298682D+03
 0.000000000000000D+00 0.000000000000000D+00 0.000000000000000D+00 -.000000000000000D+00
 0.222550298205164D+03 0.000000000000000D+00 0.000000000000000D+00 0.222550298205164D+03
 0.248412747874653D+03 0.000000000000000D+00 0.000000000000000D+00 -.248412747874653D+03
 0.144717017303567D+03 -.446560380184960D+02 -.526683251398494D+02 -.234499657290706D+02
 0.154024735193260D+03 0.670980255874237D+02 -.129273533272377D+01 -.104424860569611D+03
 0.133071196985223D+03 -.270921398755920D+02 0.249396917206938D+02 0.127874826298682D+03
 0.391500965977683D+02 0.465015230666429D+01 0.290213687518794D+02 -.258624496694890D+02
-.209275445008D-04 0.000000000000D+00 0.000000000000D+00 0.129657258719D-05 0.000000000000D+00  6 21 1 25 23 1 21 4 0.81895268D-02 0.15663900D+00 0.25959795D+05 0.25959795D+05 0.25959795D+05 0.12215474D+01  1  2 13  2  6  2        1 -.941751551238D-01 0.100000000000D+01
0.447482046287D-05 0.000000000000D+00 0.000000000000D+00 0.131338951507D-05 0.139342162339D-07  6 21 1 25 23 1 21 4 0.84611556D-02 0.15464848D+00 0.25959795D+05 0.25959795D+05 0.25959795D+05 0.12215474D+01  1  2  1  2  6  2        1 0.194470982602D-01 0.100000000000D+01
  </mgrwgt>
  </event>
  <event>
  5     66 0.44737074E-03 0.11001812E+03 0.75467711E-02 0.10346171E+00
       21 -1    0    0  501  502 0.00000000E+00 0.00000000E+00 0.18819045E+03 0.18819194E+03 0.75000000E+00 0.0000E+00 0.9000E+01
        1 -1    0    0  502    0 0.00000000E+00 0.00000000E+00 -.30956416E+03 0.30956432E+03 0.32000000E+00 0.0000E+00 0.9000E+01
       25  1    1    2    0    0 0.14303323E+02 0.39585304E+02 -.13446288E+03 0.18835299E+03 0.12500000E+03 0.0000E+00 0.9000E+01
       23  1    1    2    0    0 0.64044775E+02 -.11682214E+03 -.65471483E+02 0.17421513E+03 0.91188000E+02 0.0000E+00 0.9000E+01
        1  1    1    2  501    0 -.78348098E+02 0.77236840E+02 0.78560659E+02 0.13518814E+03 0.32000000E+00 0.0000E+00 0.9000E+01
#aMCatNLO 1  0  0  1  2 0.13384285D+03 0.00000000D+00  -5  6  0 0.00000000D+00 0.00000000D+00 0.00000000D+00 0.00000000D+00 0.00000000D+00
  <mgrwgt>
 0.7787013582D-02   12    2    0
 0.241365760687589D+03 0.000000000000000D+00 0.000000000000000D+00 0.241365760687589D+03
 0.241365760687589D+03 0.000000000000000D+00 0.000000000000000D+00 -.241365760687589D+03
 0.160407256235001D+03 0.143033754780008D+02 0.395852522788370D+02 -.912902464932441D+02
 0.163175985147679D+03 0.640448288277252D+02 -.116822196537215D+03 -.237062245320324D+02
 0.159148279992499D+03 -.783482043057260D+02 0.772369442583781D+02 0.114996471025276D+03
 0.000000000000000D+00 -.000000000000000D+00 -.000000000000000D+00 0.000000000000000D+00
 0.548117261235284D+03 0.000000000000000D+00 0.000000000000000D+00 0.548117261235284D+03
 0.405571137953141D+03 0.000000000000000D+00 0.000000000000000D+00 -.405571137953141D+03
 0.214679099960000D+03 0.124306512141682D+03 0.817073919177957D+02 -.912902464932441D+02
 0.211449032802266D+03 0.173912666904345D+03 -.747518651116400D+02 -.237062245320324D+02
 0.162235890627349D+03 0.159054689040228D+02 0.113328336784430D+03 0.114996471025276D+03
 0.365324375798809D+03 -.314124647950050D+03 -.120283863590585D+03 0.142546123282144D+03
0.512172960665D-05 0.000000000000D+00 0.000000000000D+00 0.209295316750D-06 0.000000000000D+00  6 21 1 25 23 1 21 2 0.28952504D-01 0.47625383D-01 0.40674619D+05 0.40674619D+05 0.40674619D+05 0.12012634D+01  1  2  2  1  6  1       21 0.775780809576D-02 0.100000000000D+01
-.144945882836D-06 0.270281096897D-06 -.103392964401D-07 0.209295316750D-06 0.000000000000D+00  6 21 1 25 23 1 21 4 0.28952504D-01 0.47625383D-01 0.40674619D+05 0.40674619D+05 0.40674619D+05 0.12012634D+01  1  2  3  1  6  1       21 -.316814263605D-03 0.100000000000D+01
0.542633397280D-06 0.000000000000D+00 0.000000000000D+00 0.209295316750D-06 0.000000000000D+00  6 21 1 25 23 1 21 4 0.28952504D-01 0.47625383D-01 0.40674619D+05 0.40674619D+05 0.40674619D+05 0.12012634D+01  1  2 15  1  6  1       21 0.118605645640D-02 0.100000000000D+01
-.335663898545D-05 0.000000000000D+00 -.169383024984D-04 0.209295316750D-06 0.000000000000D+00  6 21 1 25 23 1 21 4 0.10251649D+00 0.47625383D-01 0.40674619D+05 0.40674619D+05 0.40674619D+05 0.12012634D+01  1  2  5  1  6  1       21 -.495548268233D-03 0.100000000000D+01
-.149106260103D-05 0.000000000000D+00 -.643621462808D-05 0.209295316750D-06 0.000000000000D+00  6 -1 1 25 23 1 -1 4 0.10251649D+00 0.47625383D-01 0.40674619D+05 0.40674619D+05 0.40674619D+05 0.12012634D+01  1  2  5  4  6  1       21 -.255392457699D-04 0.100000000000D+01
-.149106260103D-05 0.000000000000D+00 -.643621462808D-05 0.209295316750D-06 0.000000000000D+00  6 1 1 25 23 1 1 4 0.10251649D+00 0.47625383D-01 0.40674619D+05 0.40674619D+05 0.40674619D+05 0.12012634D+01  1  2  5  5  6  1       21 -.961858854280D-04 0.100000000000D+01
-.149106260103D-05 0.000000000000D+00 -.643621462808D-05 0.209295316750D-06 0.000000000000D+00  6 -2 1 25 23 1 -2 4 0.10251649D+00 0.47625383D-01 0.40674619D+05 0.40674619D+05 0.40674619D+05 0.12012634D+01  1  2  5  6  6  1       21 -.189756816171D-04 0.100000000000D+01
-.149106260103D-05 0.000000000000D+00 -.643621462808D-05 0.209295316750D-06 0.000000000000D+00  6 -4 1 25 23 1 -4 4 0.10251649D+00 0.47625383D-01 0.40674619D+05 0.40674619D+05 0.40674619D+05 0.12012634D+01  1  2  5  6  6  1       21 -.970673774880D-05 0.100000000000D+01
-.149106260103D-05 0.000000000000D+00 -.643621462808D-05 0.209295316750D-06 0.000000000000D+00  6 2 1 25 23 1 2 4 0.10251649D+00 0.47625383D-01 0.40674619D+05 0.40674619D+05 0.40674619D+05 0.12012634D+01  1  2  5  7  6  1       21 -.160191015092D-03 0.100000000000D+01
-.149106260103D-05 0.000000000000D+00 -.643621462808D-05 0.209295316750D-06 0.000000000000D+00  6 4 1 25 23 1 4 4 0.10251649D+00 0.47625383D-01 0.40674619D+05 0.40674619D+05 0.40674619D+05 0.12012634D+01  1  2  5  7  6  1       21 -.970673774880D-05 0.100000000000D+01
-.149106260103D-05 0.000000000000D+00 -.643621462808D-05 0.209295316750D-06 0.000000000000D+00  6 -3 1 25 23 1 -3 4 0.10251649D+00 0.47625383D-01 0.40674619D+05 0.40674619D+05 0.40674619D+05 0.12012634D+01  1  2  5  8  6  1       21 -.120791543170D-04 0.100000000000D+01
-.149106260103D-05 0.000000000000D+00 -.643621462808D-05 0.209295316750D-06 0.000000000000D+00  6 3 1 25 23 1 3 4 0.10251649D+00 0.47625383D-01 0.40674619D+05 0.40674619D+05 0.40674619D+05 0.12012634D+01  1  2  5  9  6  1       21 -.121039805495D-04 0.100000000000D+01
  </mgrwgt>
  </event>
  <event>
  6     66 0.44737074E-03 0.45557439E+02 0.75467711E-02 0.10949508E+00
       21 -1    0    0  501  502 0.00000000E+00 0.00000000E+00 0.37387641E+03 0.37387716E+03 0.75000000E+00 0.0000E+00 0.9000E+01
        1 -1    0    0  502    0 -.00000000E+00 -.00000000E+00 -.47038144E+03 0.47038155E+03 0.32000000E+00 0.0000E+00 0.9000E+01
       25  1    1    2    0    0 0.12664794E+03 -.13524117E+03 -.12992317E+02 0.22388318E+03 0.12500000E+03 0.0000E+00 0.9000E+01
       23  1    1    2    0    0 -.94312983E+02 0.17441898E+03 -.30067415E+03 0.37153346E+03 0.91188000E+02 0.0000E+00 0.9000E+01
        1  1    1    2  503    0 -.39569607E+02 0.31165065E+02 0.80310853E+02 0.94799528E+02 0.32000000E+00 0.0000E+00 0.9000E+01
       21  1    1    2  501  503 0.72346452E+01 -.70342869E+02 0.13685058E+03 0.15404254E+03 0.75000000E+00 0.0000E+00 0.9000E+01
#aMCatNLO 2  0  0  5  1 0.53149627D+02 0.00000000D+00  -5  6  0 0.00000000D+00 0.00000000D+00 0.00000000D+00 0.00000000D+00 0.00000000D+00
  <mgrwgt>
 0.1586814557D-01    1    2    0
 0.419362476951273D+03 0.000000000000000D+00 0.000000000000000D+00 0.419362476951273D+03
 0.419362476951273D+03 -.000000000000000D+00 -.000000000000000D+00 -.419362476951273D+03
 0.223472828450256D+03 0.127447464819003D+03 -.134272455623059D+03 0.656935519821936D+01
 0.347044012318634D+03 -.930861341483679D+02 0.175905456260834D+03 -.269288947469435D+03
 0.268208113133655D+03 -.343613306706348D+02 -.416330006377745D+02 0.262719592271215D+03
 0.000000000000000D+00 0.000000000000000D+00 -.000000000000000D+00 0.000000000000000D+00
 0.419362476951273D+03 0.000000000000000D+00 0.000000000000000D+00 0.419362476951273D+03
 0.419362476951273D+03 -.000000000000000D+00 -.000000000000000D+00 -.419362476951273D+03
 0.223864377910340D+03 0.126649653288087D+03 -.135239102936395D+03 0.126692563376834D+02
 0.339404785697049D+03 -.943103935183750D+02 0.174422114663244D+03 -.259928514789877D+03
 0.104197188226239D+03 -.394516395263994D+02 0.311487450273934D+02 0.912709036667856D+02
 0.171258602068917D+03 0.711237975668691D+01 -.703317567542417D+02 0.155988354785408D+03
0.566174203956D-04 0.000000000000D+00 0.000000000000D+00 0.468926458377D-06 0.637371537832D-09  6 21 1 25 23 1 21 4 0.57519514D-01 0.72366442D-01 0.79161045D+05 0.79161045D+05 0.79161045D+05 0.11730114D+01  1  2  1  3  6  5        1 0.158681455729D-01 0.100000000000D+01
  </mgrwgt>
  </event>
  <event>
  6     66 -.44737074E-03 0.12504129E+02 0.75467711E-02 0.12050441E+00
       21 -1    0    0  501  503 0.00000000E+00 0.00000000E+00 0.13832028E+02 0.13852346E+02 0.75000000E+00 0.0000E+00 0.9000E+01
        1 -1    0    0  502    0 0.00000000E+00 0.00000000E+00 -.23999122E+04 0.23999122E+04 0.32000000E+00 0.0000E+00 0.9000E+01
       25  1    1    2    0    0 0.16615935E+02 0.55151676E+02 -.15914498E+04 0.15973902E+04 0.12500000E+03 0.0000E+00 0.9000E+01
       23  1    1    2    0    0 -.53434880E+02 -.52803789E+02 -.72016720E+03 0.72979420E+03 0.91188000E+02 0.0000E+00 0.9000E+01
        1  1    1    2  501    0 0.20609337E+02 -.10250343E+01 -.63956325E+02 0.67203492E+02 0.32000000E+00 0.0000E+00 0.9000E+01
       21  1    1    2  502  503 0.16209608E+02 -.13228525E+01 -.10506835E+02 0.19376724E+02 0.75000000E+00 0.0000E+00 0.9000E+01
#aMCatNLO 2  0  0  1  5 0.16263497D+02 0.00000000D+00  -5  6  0 0.00000000D+00 0.00000000D+00 0.00000000D+00 0.00000000D+00 0.00000000D+00
  <mgrwgt>
 -.2768037157D+00    3    2    0
 0.149566014645977D+03 0.000000000000000D+00 0.000000000000000D+00 0.149566014645977D+03
 0.149566014645977D+03 0.000000000000000D+00 0.000000000000000D+00 -.149566014645977D+03
 0.148303211361000D+03 0.246221202055241D+02 0.544982803973282D+02 -.528444049101152D+02
 0.119693206417136D+03 -.468869188775674D+02 -.533381763021341D+02 0.311105786726332D+02
 0.311356115138176D+02 0.222647986720433D+02 -.116010409519413D+01 0.217338262374820D+02
 0.000000000000000D+00 0.000000000000000D+00 -.000000000000000D+00 0.000000000000000D+00
 0.220399405641054D+03 0.000000000000000D+00 0.000000000000000D+00 0.220399405641054D+03
 0.150723362525571D+03 0.000000000000000D+00 0.000000000000000D+00 -.150723362525571D+03
 0.147429005145146D+03 0.166153448145876D+02 0.551517066324835D+02 -.528444049101152D+02
 0.122174850064306D+03 -.534353538954648D+02 -.528037640036765D+02 0.311105786726332D+02
 0.299699625250574D+02 0.206104012842858D+02 -.102509010969420D+01 0.217338262374820D+02
 0.715489504321159D+02 0.162096077965914D+02 -.132285251911277D+01 0.696760431154837D+02
-.499888970162D-04 0.000000000000D+00 0.000000000000D+00 0.865022969567D-06 0.000000000000D+00  6 21 1 25 23 1 21 4 0.21330467D-02 0.36637899D+00 0.21415340D+05 0.21415340D+05 0.21415340D+05 0.12305702D+01  1  2 13  1  6  1       21 -.282061558199D+00 0.100000000000D+01
-.402796212684D-04 0.000000000000D+00 0.000000000000D+00 0.865022969567D-06 0.000000000000D+00  6 21 1 25 23 1 21 4 0.23207484D-02 0.36637899D+00 0.21415340D+05 0.21415340D+05 0.21415340D+05 0.12305702D+01  1  2 13  1  6  1       21 -.198169498464D+00 0.100000000000D+01
0.369596749393D-04 0.000000000000D+00 0.000000000000D+00 0.872702402583D-06 0.758017925502D-07  6 21 1 25 23 1 21 4 0.21295413D-02 0.36921404D+00 0.21415340D+05 0.21415340D+05 0.21415340D+05 0.12305702D+01  1  2  1  1  6  1       21 0.203427340963D+00 0.100000000000D+01
  </mgrwgt>
  </event>
  <event>
  5     66 -.44737074E-03 0.35375212E+02 0.75467711E-02 0.12161605E+00
       21 -1    0    0  501  502 0.00000000E+00 0.00000000E+00 0.20244590E+02 0.20258477E+02 0.75000000E+00 0.0000E+00 0.9000E+01
        1 -1    0    0  502    0 -.00000000E+00 -.00000000E+00 -.10183399E+04 0.10183399E+04 0.32000000E+00 0.0000E+00 0.9000E+01
       25  1    1    2    0    0 0.37884964E+02 0.93016885E+01 -.56650062E+03 0.58143765E+03 0.12500000E+03 0.0000E+00 0.9000E+01
       23  1    1    2    0    0 0.52574463E+01 -.37984061E+02 -.28544740E+03 0.30210247E+03 0.91188000E+02 0.0000E+00 0.9000E+01
        1  1    1    2  501    0 -.43142411E+02 0.28682372E+02 -.14614726E+03 0.15505828E+03 0.32000000E+00 0.0000E+00 0.9000E+01
#aMCatNLO 1  0  0  5  1 0.12263411D+02 0.00000000D+00  -5  6  0 0.00000000D+00 0.00000000D+00 0.00000000D+00 0.00000000D+00 0.00000000D+00
  <mgrwgt>
 -.2695922034D+00    7    2    0
 0.143607488321007D+03 0.000000000000000D+00 0.000000000000000D+00 0.143607488321007D+03
 0.143607488321007D+03 -.000000000000000D+00 -.000000000000000D+00 -.143607488321007D+03
 0.133901965930333D+03 0.378853333479904D+02 0.930144326142415D+01 -.279807281959247D+02
 0.100480322962043D+03 0.525772316520085D+01 -.379842447048502D+02 0.176237754149488D+02
 0.528326877496384D+02 -.431430565131913D+02 0.286828014434261D+02 0.103569527809760D+02
 0.000000000000000D+00 0.000000000000000D+00 0.000000000000000D+00 0.000000000000000D+00
 0.143607488321007D+03 0.000000000000000D+00 0.000000000000000D+00 0.143607488321007D+03
 0.143607488321007D+03 -.000000000000000D+00 -.000000000000000D+00 -.143607488321007D+03
 0.133271843530797D+03 0.355916236043584D+02 0.108263704794420D+02 -.274300986061830D+02
 0.100051255031145D+03 0.353614261328754D+01 -.368396861795567D+02 0.180370592646770D+02
 0.294909121447157D+02 -.242349336874403D+02 0.153875081131768D+02 -.675325716670334D+01
 0.244009659353558D+02 -.148928325302057D+02 0.106258075869379D+02 0.161462965082094D+02
0.321307685518D-05 0.000000000000D+00 0.000000000000D+00 0.328087633807D-06 0.000000000000D+00  6 21 1 25 23 1 21 2 0.31156244D-02 0.15666874D+00 0.19835360D+05 0.19835360D+05 0.19835360D+05 0.12342215D+01  1  2  2  3  6  5        1 0.506054557478D-01 0.100000000000D+01
-.121121768709D-06 0.169558724011D-06 -.648627644212D-08 0.328087633807D-06 0.000000000000D+00  6 21 1 25 23 1 21 4 0.31156244D-02 0.15666874D+00 0.19835360D+05 0.19835360D+05 0.19835360D+05 0.12342215D+01  1  2  3  3  6  5        1 -.290592644279D-02 0.100000000000D+01
0.329661019257D-06 0.000000000000D+00 0.000000000000D+00 0.328087633807D-06 0.000000000000D+00  6 21 1 25 23 1 21 4 0.31156244D-02 0.15666874D+00 0.19835360D+05 0.19835360D+05 0.19835360D+05 0.12342215D+01  1  2 15  3  6  5        1 0.790915359993D-02 0.100000000000D+01
0.238032580376D-05 0.000000000000D+00 0.000000000000D+00 0.329158014124D-06 0.000000000000D+00  6 21 1 25 23 1 21 4 0.31156244D-02 0.15666874D+00 0.19020910D+05 0.19020910D+05 0.19020910D+05 0.12362331D+01  1  2 12  3  6  5        1 0.574679875728D-01 0.100000000000D+01
-.175787153890D-04 0.000000000000D+00 0.000000000000D+00 0.328087633807D-06 0.000000000000D+00  6 21 1 25 23 1 21 4 0.31156244D-02 0.15666874D+00 0.19835360D+05 0.19835360D+05 0.19835360D+05 0.12342215D+01  1  2  4  3  6  5        1 -.421744616376D+00 0.100000000000D+01
-.211350041817D-05 0.000000000000D+00 0.000000000000D+00 0.328087633807D-06 0.000000000000D+00  6 21 1 25 23 1 21 4 0.31156244D-02 0.15666874D+00 0.19835360D+05 0.19835360D+05 0.19835360D+05 0.12342215D+01  1  2  5  3  6  5        1 -.507066303397D-01 0.100000000000D+01
0.374221440590D-05 0.000000000000D+00 -.000000000000D+00 0.328087633807D-06 0.000000000000D+00  6 21 1 25 23 1 21 4 0.31156244D-02 0.15666874D+00 0.19835360D+05 0.19835360D+05 0.19835360D+05 0.12342215D+01  1  2  6  3  6  5        1 0.897823728351D-01 0.100000000000D+01
  </mgrwgt>
  </event>
  <event>
  5     66 -.44737074E-03 0.23170076E+02 0.75467711E-02 0.12391495E+00
       21 -1    0    0  501  502 0.00000000E+00 0.00000000E+00 0.86548816E+03 0.86548849E+03 0.75000000E+00 0.0000E+00 0.9000E+01
        1 -1    0    0  502    0 0.00000000E+00 0.00000000E+00 -.23038108E+02 0.23040330E+02 0.32000000E+00 0.0000E+00 0.9000E+01
       25  1    1    2    0    0 -.29749400E+02 0.13035607E+02 0.42490133E+03 0.44409581E+03 0.12500000E+03 0.0000E+00 0.9000E+01
       23  1    1    2    0    0 0.14946014E+02 0.47882789E+01 0.15251538E+03 0.17838863E+03 0.91188000E+02 0.0000E+00 0.9000E+01
        1  1    1    2  501    0 0.14803385E+02 -.17823886E+02 0.26503335E+03 0.26604437E+03 0.32000000E+00 0.0000E+00 0.9000E+01
#aMCatNLO 1  0  0  5  1 0.12263411D+02 0.00000000D+00  -5  6  0 0.00000000D+00 0.00000000D+00 0.00000000D+00 0.00000000D+00 0.00000000D+00
  <mgrwgt>
 -.4169018365D-02    1    2    0
 0.141210273019558D+03 0.000000000000000D+00 0.000000000000000D+00 0.141210273019558D+03
 0.141210273019558D+03 -.000000000000000D+00 -.000000000000000D+00 -.141210273019558D+03
 0.129713601777699D+03 -.297495614069525D+02 0.130358012221689D+02 0.120685528848116D+02
 0.106284388875096D+03 0.149458821133761D+02 0.478843830291266D+01 -.522954246662650D+02
 0.464225553863209D+02 0.148036792935764D+02 -.178242395250816D+02 0.402268717814534D+02
 0.000000000000000D+00 0.000000000000000D+00 -.000000000000000D+00 0.000000000000000D+00
 0.141210273019558D+03 0.000000000000000D+00 0.000000000000000D+00 0.141210273019558D+03
 0.141210273019558D+03 -.000000000000000D+00 -.000000000000000D+00 -.141210273019558D+03
 0.129712271585775D+03 -.297358492526011D+02 0.130192912236263D+02 0.121058136943712D+02
 0.106270343018789D+03 0.149571168574440D+02 0.477491120837769D+01 -.522648958632455D+02
 0.416239514890965D+00 0.277270707610901D+00 0.704225445521765D-01 0.302352366745773D+00
 0.460216919196616D+02 0.145014616875462D+02 -.178646249765561D+02 0.398567298021285D+02
-.147784360089D-05 0.000000000000D+00 0.000000000000D+00 0.164169765072D-05 0.000000000000D+00  6 21 1 25 23 1 21 4 0.13315222D+00 0.35445202D-02 0.14987847D+05 0.14987847D+05 0.14987847D+05 0.12478627D+01  1  2 14  3  6  5        1 -.416901836502D-02 0.100000000000D+01
  </mgrwgt>
  </event>
  <event>
  5     66 0.44737074E-03 0.44231790E+02 0.75467711E-02 0.12018777E+00
       21 -1    0    0  501  502 0.00000000E+00 0.00000000E+00 0.20864005E+04 0.20864007E+04 0.75000000E+00 0.0000E+00 0.9000E+01
        1 -1    0    0  502    0 0.00000000E+00 0.00000000E+00 -.16985513E+02 0.16988527E+02 0.32000000E+00 0.0000E+00 0.9000E+01
       25  1    1    2    0    0 -.16631962E+00 -.23055820E+02 0.45187707E+03 0.46941398E+03 0.12500000E+03 0.0000E+00 0.9000E+01
       23  1    1    2    0    0 0.50238917E+02 0.21332497E+02 0.35800001E+03 0.37344114E+03 0.91188000E+02 0.0000E+00 0.9000E+01
        1  1    1    2  501    0 -.50072597E+02 0.17233236E+01 0.12595379E+04 0.12605341E+04 0.32000000E+00 0.0000E+00 0.9000E+01
#aMCatNLO 1  0  0  1  2 0.12126047D+02 0.00000000D+00  -5  6  0 0.00000000D+00 0.00000000D+00 0.00000000D+00 0.00000000D+00 0.00000000D+00
  <mgrwgt>
 0.3056750564D-01   23    2    0
 0.188260176020816D+03 0.000000000000000D+00 0.000000000000000D+00 0.188260176020816D+03
 0.188260176020816D+03 0.000000000000000D+00 0.000000000000000D+00 -.188260176020816D+03
 0.138741820882327D+03 -.166253148147980D+00 -.230558225368594D+02 -.556119975255646D+02
 0.118563266884797D+03 0.502389738041019D+02 0.213324947210074D+02 -.525639333619981D+02
 0.119215264274508D+03 -.500727206559539D+02 0.172332781585201D+01 0.108175930887563D+03
 0.000000000000000D+00 0.000000000000000D+00 0.000000000000000D+00 0.000000000000000D+00
 0.198982746752191D+03 0.000000000000000D+00 0.000000000000000D+00 0.198982746752191D+03
 0.191817582504460D+03 0.000000000000000D+00 0.000000000000000D+00 -.191817582504460D+03
 0.139025529269302D+03 -.446128399511719D+01 -.243002153270517D+02 -.556119975255646D+02
 0.116879487521008D+03 0.465983951244395D+02 0.202777153672581D+02 -.525639333619981D+02
 0.120810547689929D+03 -.537841657408184D+02 0.648016445723254D+00 0.108175930887563D+03
 0.140847647764124D+02 0.116470546114960D+02 0.337448351407029D+01 0.716516424773120D+01
0.198739020829D-04 0.000000000000D+00 0.000000000000D+00 0.126262446290D-05 0.000000000000D+00  6 21 1 25 23 1 21 2 0.32098494D+00 0.26133980D-02 0.20091012D+05 0.20091012D+05 0.20091012D+05 0.12336090D+01  1  2  2  1  6  1       21 0.355095124013D-02 0.100000000000D+01
0.104219142374D-05 0.104877462637D-05 -.401196823803D-07 0.126262446290D-05 0.000000000000D+00  6 21 1 25 23 1 21 4 0.32098494D+00 0.26133980D-02 0.20091012D+05 0.20091012D+05 0.20091012D+05 0.12336090D+01  1  2  3  1  6  1       21 0.283376697264D-03 0.100000000000D+01
0.176580596742D-05 0.000000000000D+00 0.000000000000D+00 0.126262446290D-05 0.000000000000D+00  6 21 1 25 23 1 21 4 0.32098494D+00 0.26133980D-02 0.20091012D+05 0.20091012D+05 0.20091012D+05 0.12336090D+01  1  2 15  1  6  1       21 0.480130858552D-03 0.100000000000D+01
0.662278268375D-04 0.000000000000D+00 0.000000000000D+00 0.125311017309D-05 0.000000000000D+00  6 21 1 25 23 1 21 4 0.34218053D+00 0.26133980D-02 0.22160058D+05 0.22160058D+05 0.22160058D+05 0.12289524D+01  1  2 12  1  6  1       21 0.133004682149D-01 0.100000000000D+01
-.388265332234D-04 0.000000000000D+00 0.000000000000D+00 0.126262446290D-05 0.000000000000D+00  6 21 1 25 23 1 21 4 0.32098494D+00 0.26133980D-02 0.20091012D+05 0.20091012D+05 0.20091012D+05 0.12336090D+01  1  2  4  1  6  1       21 -.105571150370D-01 0.100000000000D+01
-.427938539305D-03 0.000000000000D+00 -.684858408074D-04 0.126262446290D-05 0.000000000000D+00  6 21 1 25 23 1 21 4 0.34179789D+00 0.26133980D-02 0.20091012D+05 0.20091012D+05 0.20091012D+05 0.12336090D+01  1  2  5  1  6  1       21 -.884594965155D-01 0.100000000000D+01
0.429209551833D-03 0.000000000000D+00 0.679482174819D-04 0.126262446290D-05 0.000000000000D+00  6 21 1 25 23 1 21 4 0.32098494D+00 0.26133980D-02 0.20091012D+05 0.20091012D+05 0.20091012D+05 0.12336090D+01  1  2  6  1  6  1       21 0.116704074186D+00 0.100000000000D+01
0.119648465915D-05 0.000000000000D+00 0.000000000000D+00 0.125311017309D-05 0.000000000000D+00  6 -1 1 25 23 1 -1 4 0.34218053D+00 0.26133980D-02 0.22160058D+05 0.22160058D+05 0.22160058D+05 0.12289524D+01  1  2 12  4  6  1       21 0.241464525898D-04 0.100000000000D+01
-.546280808615D-05 0.000000000000D+00 -.104642173326D-05 0.126262446290D-05 0.000000000000D+00  6 -1 1 25 23 1 -1 4 0.34179789D+00 0.26133980D-02 0.20091012D+05 0.20091012D+05 0.20091012D+05 0.12336090D+01  1  2  5  4  6  1       21 -.112719996053D-03 0.100000000000D+01
0.119648465915D-05 0.000000000000D+00 0.000000000000D+00 0.125311017309D-05 0.000000000000D+00  6 1 1 25 23 1 1 4 0.34218053D+00 0.26133980D-02 0.22160058D+05 0.22160058D+05 0.22160058D+05 0.12289524D+01  1  2 12  5  6  1       21 0.328593018870D-03 0.100000000000D+01
-.546280808615D-05 0.000000000000D+00 -.104642173326D-05 0.126262446290D-05 0.000000000000D+00  6 1 1 25 23 1 1 4 0.34179789D+00 0.26133980D-02 0.20091012D+05 0.20091012D+05 0.20091012D+05 0.12336090D+01  1  2  5  5  6  1       21 -.153032690181D-02 0.100000000000D+01
0.119648465915D-05 0.000000000000D+00 0.000000000000D+00 0.125311017309D-05 0.000000000000D+00  6 -2 1 25 23 1 -2 4 0.34218053D+00 0.26133980D-02 0.22160058D+05 0.22160058D+05 0.22160058D+05 0.12289524D+01  1  2 12  6  6  1       21 0.206996026544D-04 0.100000000000D+01
0.119648465915D-05 0.000000000000D+00 0.000000000000D+00 0.125311017309D-05 0.000000000000D+00  6 -4 1 25 23 1 -4 4 0.34218053D+00 0.26133980D-02 0.22160058D+05 0.22160058D+05 0.22160058D+05 0.12289524D+01  1  2 12  6  6  1       21 0.102951885113D-04 0.100000000000D+01
-.546280808615D-05 0.000000000000D+00 -.104642173326D-05 0.126262446290D-05 0.000000000000D+00  6 -2 1 25 23 1 -2 4 0.34179789D+00 0.26133980D-02 0.20091012D+05 0.20091012D+05 0.20091012D+05 0.12336090D+01  1  2  5  6  6  1       21 -.965563059216D-04 0.100000000000D+01
-.546280808615D-05 0.000000000000D+00 -.104642173326D-05 0.126262446290D-05 0.000000000000D+00  6 -4 1 25 23 1 -4 4 0.34179789D+00 0.26133980D-02 0.20091012D+05 0.20091012D+05 0.20091012D+05 0.12336090D+01  1  2  5  6  6  1       21 -.479625782232D-04 0.100000000000D+01
0.119648465915D-05 0.000000000000D+00 0.000000000000D+00 0.125311017309D-05 0.000000000000D+00  6 2 1 25 23 1 2 4 0.34218053D+00 0.26133980D-02 0.22160058D+05 0.22160058D+05 0.22160058D+05 0.12289524D+01  1  2 12  7  6  1       21 0.870467554518D-03 0.100000000000D+01
0.119648465915D-05 0.000000000000D+00 0.000000000000D+00 0.125311017309D-05 0.000000000000D+00  6 4 1 25 23 1 4 4 0.34218053D+00 0.26133980D-02 0.22160058D+05 0.22160058D+05 0.22160058D+05 0.12289524D+01  1  2 12  7  6  1       21 0.102951885113D-04 0.100000000000D+01
-.546280808615D-05 0.000000000000D+00 -.104642173326D-05 0.126262446290D-05 0.000000000000D+00  6 2 1 25 23 1 2 4 0.34179789D+00 0.26133980D-02 0.20091012D+05 0.20091012D+05 0.20091012D+05 0.12336090D+01  1  2  5  7  6  1       21 -.404857220497D-02 0.100000000000D+01
-.546280808615D-05 0.000000000000D+00 -.104642173326D-05 0.126262446290D-05 0.000000000000D+00  6 4 1 25 23 1 4 4 0.34179789D+00 0.26133980D-02 0.20091012D+05 0.20091012D+05 0.20091012D+05 0.12336090D+01  1  2  5  7  6  1       21 -.479625782232D-04 0.100000000000D+01
0.119648465915D-05 0.000000000000D+00 0.000000000000D+00 0.125311017309D-05 0.000000000000D+00  6 -3 1 25 23 1 -3 4 0.34218053D+00 0.26133980D-02 0.22160058D+05 0.22160058D+05 0.22160058D+05 0.12289524D+01  1  2 12  8  6  1       21 0.155750275180D-04 0.100000000000D+01
-.546280808615D-05 0.000000000000D+00 -.104642173326D-05 0.126262446290D-05 0.000000000000D+00  6 -3 1 25 23 1 -3 4 0.34179789D+00 0.26133980D-02 0.20091012D+05 0.20091012D+05 0.20091012D+05 0.12336090D+01  1  2  5  8  6  1       21 -.725211646175D-04 0.100000000000D+01
0.119648465915D-05 0.000000000000D+00 0.000000000000D+00 0.125311017309D-05 0.000000000000D+00  6 3 1 25 23 1 3 4 0.34218053D+00 0.26133980D-02 0.22160058D+05 0.22160058D+05 0.22160058D+05 0.12289524D+01  1  2 12  9  6  1       21 0.159583697379D-04 0.100000000000D+01
-.546280808615D-05 0.000000000000D+00 -.104642173326D-05 0.126262446290D-05 0.000000000000D+00  6 3 1 25 23 1 3 4 0.34179789D+00 0.26133980D-02 0.20091012D+05 0.20091012D+05 0.20091012D+05 0.12336090D+01  1  2  5  9  6  1       21 -.742926814530D-04 0.100000000000D+01
  </mgrwgt>
  </event>
  <event>
  6     66 0.44737074E-03 0.58535495E+02 0.75467711E-02 0.11400821E+00
       21 -1    0    0  503  502 0.00000000E+00 0.00000000E+00 0.17727327E+03 0.17727486E+03 0.75000000E+00 0.0000E+00 0.9000E+01
        3 -1    0    0  502    0 0.00000000E+00 0.00000000E+00 -.10727293E+04 0.10727294E+04 0.50000000E+00 0.0000E+00 0.9000E+01
       25  1    1    2    0    0 -.50822504E+02 -.74055670E+02 -.40848122E+03 0.43651927E+03 0.12500000E+03 0.0000E+00 0.9000E+01
       23  1    1    2    0    0 0.10856672E+03 0.80592228E+02 -.61185221E+03 0.63321419E+03 0.91188000E+02 0.0000E+00 0.9000E+01
        3  1    1    2  501    0 0.64442593E+01 0.31497347E+02 -.29201164E+01 0.32286041E+02 0.50000000E+00 0.0000E+00 0.9000E+01
       21  1    1    2  503  501 -.64188480E+02 -.38033905E+02 0.12779748E+03 0.14798479E+03 0.75000000E+00 0.0000E+00 0.9000E+01
#aMCatNLO 2  0  0  1  2 0.50489181D+01 0.00000000D+00  -5  6  0 0.00000000D+00 0.00000000D+00 0.00000000D+00 0.00000000D+00 0.00000000D+00
  <mgrwgt>
 0.3341078669D-02    1    2    0
 0.201142017076232D+03 0.000000000000000D+00 0.000000000000000D+00 0.201142017076232D+03
 0.201142017076232D+03 0.000000000000000D+00 0.000000000000000D+00 -.201142017076232D+03
 0.171897933329074D+03 -.766152691468388D+02 -.893390294265837D+02 -.851691478648457D+01
 0.153375616461567D+03 0.825645176318633D+02 0.651847943753154D+02 -.643651411202617D+02
 0.770104843618229D+02 -.594924848502444D+01 0.241542350512682D+02 0.728820559067462D+02
 0.000000000000000D+00 -.000000000000000D+00 -.000000000000000D+00 0.000000000000000D+00
 0.920837505268299D+03 0.000000000000000D+00 0.000000000000000D+00 0.920837505268299D+03
 0.206515200055618D+03 0.000000000000000D+00 0.000000000000000D+00 -.206515200055618D+03
 0.154158134001609D+03 -.508224314712642D+02 -.740558768817600D+02 -.851691478648457D+01
 0.175328125726664D+03 0.108566801027548D+03 0.805920507869013D+02 -.643651411202617D+02
 0.796581926929945D+02 0.644411008426619D+01 0.314977306347935D+02 0.728820559067462D+02
 0.718208252902650D+03 -.641884796405502D+02 -.380339045399348D+02 0.714322305212681D+03
0.957473406346D-04 0.000000000000D+00 0.000000000000D+00 0.125895470708D-05 0.239002679073D-07  6 21 3 25 23 3 21 4 0.27272916D-01 0.16503526D+00 0.44895158D+05 0.44895158D+05 0.44895158D+05 0.11969417D+01  1  2  1  1  6  1       21 0.334107866860D-02 0.100000000000D+01
  </mgrwgt>
  </event>
  <event>
  5     66 0.44737074E-03 0.10224321E+03 0.75467711E-02 0.84639996E-01
       21 -1    0    0  501  502 0.00000000E+00 0.00000000E+00 0.20855718E+03 0.20855853E+03 0.75000000E+00 0.0000E+00 0.9000E+01
        1 -1    0    0  502    0 0.00000000E+00 0.00000000E+00 -.10796559E+04 0.10796560E+04 0.32000000E+00 0.0000E+00 0.9000E+01
       25  1    1    2    0    0 0.65688771E+02 -.17352247E+03 -.72273227E+01 0.22383542E+03 0.12500000E+03 0.0000E+00 0.9000E+01
       23  1    1    2    0    0 -.15365117E+03 0.12140447E+03 -.22912873E+02 0.21722794E+03 0.91188000E+02 0.0000E+00 0.9000E+01
        1  1    1    2  501    0 0.87962398E+02 0.52118001E+02 -.84095854E+03 0.84715113E+03 0.32000000E+00 0.0000E+00 0.9000E+01
#aMCatNLO 1  0  0  2  1 0.24587947D+03 0.00000000D+00  -5  6  0 0.00000000D+00 0.00000000D+00 0.00000000D+00 0.00000000D+00 0.00000000D+00
  <mgrwgt>
 0.5578487333D-01    3    2    0
 0.474521748828709D+03 0.000000000000000D+00 0.000000000000000D+00 0.474521748828709D+03
 0.474521748828709D+03 0.000000000000000D+00 0.000000000000000D+00 -.474521748828709D+03
 0.297196437142762D+03 0.656887614738221D+02 -.173522473012348D+03 0.195641662807456D+03
 0.273830259325134D+03 -.153651178158884D+03 0.121404461228414D+03 0.168285566292226D+03
 0.378016801189523D+03 0.879624166850624D+02 0.521180117839343D+02 -.363927229099682D+03
 0.000000000000000D+00 0.000000000000000D+00 0.000000000000000D+00 0.000000000000000D+00
 0.726118117744133D+04 0.000000000000000D+00 0.000000000000000D+00 0.726118117744133D+04
 0.146972005487665D+04 0.000000000000000D+00 0.000000000000000D+00 -.146972005487665D+04
 0.829835260252651D+03 -.608102863173692D+03 -.514720124662401D+03 0.195641662807456D+03
 0.920285198091212D+03 -.867548574238051D+03 -.240102132429121D+03 0.168285566292226D+03
 0.746087939559801D+03 -.584079338035635D+03 -.288193532814794D+03 -.363927229099682D+03
 0.623469283441431D+04 0.205973077544738D+04 0.104301578990632D+04 0.579146112256469D+04
0.291394364945D-03 0.000000000000D+00 0.000000000000D+00 0.219994067093D-07 0.000000000000D+00  6 21 1 25 23 1 21 2 0.32085827D-01 0.16610102D+00 0.73435059D+05 0.73435059D+05 0.73435059D+05 0.11760949D+01  1  2  2  2  6  2        1 0.570835510374D-01 0.100000000000D+01
-.338009080925D-04 0.153773031057D-04 -.588241268386D-06 0.219994067093D-07 0.000000000000D+00  6 21 1 25 23 1 21 4 0.32085827D-01 0.16610102D+00 0.73435059D+05 0.73435059D+05 0.73435059D+05 0.11760949D+01  1  2  3  2  6  2        1 -.915889115519D-02 0.100000000000D+01
0.290081351212D-04 0.000000000000D+00 0.000000000000D+00 0.219994067093D-07 0.000000000000D+00  6 21 1 25 23 1 21 4 0.32085827D-01 0.16610102D+00 0.73435059D+05 0.73435059D+05 0.73435059D+05 0.11760949D+01  1  2 15  2  6  2        1 0.786021344348D-02 0.100000000000D+01
  </mgrwgt>
  </event>
  <event>
  6     66 0.44737074E-03 0.17578160E+02 0.75467711E-02 0.11714732E+00
        2 -1    0    0  501    0 0.00000000E+00 0.00000000E+00 0.17211625E+04 0.17211625E+04 0.32000000E+00 0.0000E+00 0.9000E+01
        1 -1    0    0  502    0 0.00000000E+00 0.00000000E+00 -.70405047E+02 0.70405774E+02 0.32000000E+00 0.0000E+00 0.9000E+01
       25  1    1    2    0    0 0.10666125E+03 0.23039794E+02 0.16207785E+03 0.23195190E+03 0.12500000E+03 0.0000E+00 0.9000E+01
       23  1    1    2    0    0 -.11330059E+03 -.15547359E+02 0.11739996E+03 0.18755465E+03 0.91188000E+02 0.0000E+00 0.9000E+01
        1  1    1    2  501    0 -.10809141E+02 0.10633749E+02 0.22728985E+03 0.22779528E+03 0.32000000E+00 0.0000E+00 0.9000E+01
        2  1    1    2  502    0 0.17448478E+02 -.18126184E+02 0.11439898E+04 0.11442664E+04 0.32000000E+00 0.0000E+00 0.9000E+01
#aMCatNLO 2  0  0  1  1 0.65470897D+02 0.00000000D+00  -5  6  0 0.00000000D+00 0.00000000D+00 0.00000000D+00 0.00000000D+00 0.00000000D+00
  <mgrwgt>
 0.1980915994D+00    1    2    0
 0.200968400425447D+03 0.000000000000000D+00 0.000000000000000D+00 0.200968400425447D+03
 0.200968400425447D+03 0.000000000000000D+00 0.000000000000000D+00 -.200968400425447D+03
 0.172789741204842D+03 0.114069874430633D+03 0.153434177942806D+02 -.313677851211426D+02
 0.149811809434758D+03 -.106718519758674D+03 -.223850748544340D+02 -.473116567707704D+02
 0.793352502112941D+02 -.735135467195812D+01 0.704165706015333D+01 0.786794418919130D+02
 0.000000000000000D+00 0.000000000000000D+00 -.000000000000000D+00 0.000000000000000D+00
 0.600615889072095D+03 0.000000000000000D+00 0.000000000000000D+00 0.600615889072095D+03
 0.201758108090171D+03 0.000000000000000D+00 0.000000000000000D+00 -.201758108090171D+03
 0.168867984506870D+03 0.106661272909411D+03 0.230397723372101D+02 -.313677851211426D+02
 0.153728279177208D+03 -.113300567793906D+03 -.155473774627433D+02 -.473116567707704D+02
 0.801272144172962D+02 -.108091832797091D+02 0.106337891025780D+02 0.786794418919130D+02
 0.399650519060892D+03 0.174484781642034D+02 -.181261839770448D+02 0.398857780981924D+03
0.110540152863D-02 0.000000000000D+00 0.000000000000D+00 0.806520435494D-05 0.306520430921D-06  6 2 1 25 23 1 2 4 0.26479420D+00 0.10831600D-01 0.31067332D+05 0.31067332D+05 0.31067332D+05 0.12133081D+01  1  2  1  7  6  1       21 0.198091599372D+00 0.100000000000D+01
  </mgrwgt>
  </event>
  <event>
  5     66 0.44737074E-03 0.20061064E+02 0.75467711E-02 0.12089144E+00
       21 -1    0    0  501  502 0.00000000E+00 0.00000000E+00 0.27891318E+03 0.27891419E+03 0.75000000E+00 0.0000E+00 0.9000E+01
        3 -1    0    0  502    0 0.00000000E+00 0.00000000E+00 -.83123455E+02 0.83124958E+02 0.50000000E+00 0.0000E+00 0.9000E+01
       25  1    1    2    0    0 -.32552879E+02 -.17241514E+02 0.72076212E+02 0.14891924E+03 0.12500000E+03 0.0000E+00 0.9000E+01
       23  1    1    2    0    0 0.52142187E+02 0.21563656E+02 0.22027273E+02 0.10947260E+03 0.91188000E+02 0.0000E+00 0.9000E+01
        3  1    1    2  501    0 -.19589308E+02 -.43221420E+01 0.10168624E+03 0.10364731E+03 0.50000000E+00 0.0000E+00 0.9000E+01
#aMCatNLO 1  0  0  2  1 0.29315149D+02 0.00000000D+00  -5  6  0 0.00000000D+00 0.00000000D+00 0.00000000D+00 0.00000000D+00 0.00000000D+00
  <mgrwgt>
 0.4950580197D-02    4    2    0
 0.152265170518913D+03 0.000000000000000D+00 0.000000000000000D+00 0.152265170518913D+03
 0.152265170518913D+03 0.000000000000000D+00 0.000000000000000D+00 -.152265170518913D+03
 0.130702270184881D+03 -.325525644324497D+02 -.172414444842637D+02 -.100571652292725D+02
 0.115984456244813D+03 0.521424657848530D+02 0.215637172513662D+02 -.441962906428084D+02
 0.578436146081308D+02 -.195899013524033D+02 -.432227276710253D+01 0.542534558720809D+02
 0.000000000000000D+00 -.000000000000000D+00 0.000000000000000D+00 0.000000000000000D+00
 0.168367847707375D+03 0.000000000000000D+00 0.000000000000000D+00 0.168367847707375D+03
 0.166921057977442D+03 0.000000000000000D+00 0.000000000000000D+00 -.166921057977442D+03
 0.129952305228309D+03 -.229140216118367D+02 -.252270227192013D+02 -.100571652292725D+02
 0.119061462330859D+03 0.608340460013546D+02 0.143627020049872D+02 -.441962906428084D+02
 0.569243088415258D+02 -.153459875716887D+02 -.783837537192253D+01 0.542534558720809D+02
 0.293508292841231D+02 -.225740368178292D+02 0.187026960861366D+02 0.144678972993306D+01
0.423752074346D-05 0.000000000000D+00 0.000000000000D+00 0.259198162193D-05 0.000000000000D+00  6 21 3 25 23 3 21 2 0.42909914D-01 0.12788417D-01 0.16590676D+05 0.16590676D+05 0.16590676D+05 0.12428631D+01  1  2  2  2  6  2        3 0.806078952829D-02 0.100000000000D+01
0.658945392524D-06 0.223620113248D-06 -.855433349720D-08 0.259198162193D-05 0.000000000000D+00  6 21 3 25 23 3 21 4 0.42909914D-01 0.12788417D-01 0.16590676D+05 0.16590676D+05 0.16590676D+05 0.12428631D+01  1  2  3  2  6  2        3 0.193625131847D-02 0.100000000000D+01
0.465188582083D-06 0.000000000000D+00 0.000000000000D+00 0.259198162193D-05 0.000000000000D+00  6 21 3 25 23 3 21 4 0.42909914D-01 0.12788417D-01 0.16590676D+05 0.16590676D+05 0.16590676D+05 0.12428631D+01  1  2 15  2  6  2        3 0.136691449035D-02 0.100000000000D+01
-.218260096637D-05 0.000000000000D+00 0.000000000000D+00 0.259198162193D-05 0.000000000000D+00  6 21 3 25 23 3 21 4 0.42909914D-01 0.12788417D-01 0.16590676D+05 0.16590676D+05 0.16590676D+05 0.12428631D+01  1  2  4  2  6  2        3 -.641337513968D-02 0.100000000000D+01
  </mgrwgt>
  </event>
  <event>
  6     66 -.44737074E-03 0.20300862E+02 0.75467711E-02 0.12227433E+00
       21 -1    0    0  501  502 0.00000000E+00 0.00000000E+00 0.33090821E+03 0.33090906E+03 0.75000000E+00 0.0000E+00 0.9000E+01
        1 -1    0    0  503    0 0.00000000E+00 0.00000000E+00 -.13542663E+03 0.13542700E+03 0.32000000E+00 0.0000E+00 0.9000E+01
       25  1    1    2    0    0 0.30373130E+02 -.15818288E+02 -.69454925E+02 0.14704330E+03 0.12500000E+03 0.0000E+00 0.9000E+01
       23  1    1    2    0    0 0.22605950E+01 0.26985077E+02 0.20140267E+03 0.22273659E+03 0.91188000E+02 0.0000E+00 0.9000E+01
        1  1    1    2  501    0 -.27360907E+02 0.21074546E+01 0.73939713E+02 0.78868525E+02 0.32000000E+00 0.0000E+00 0.9000E+01
       21  1    1    2  503  502 -.52728184E+01 -.13274244E+02 -.10405871E+02 0.17687646E+02 0.75000000E+00 0.0000E+00 0.9000E+01
#aMCatNLO 2  0  0  2  1 0.14283143D+02 0.00000000D+00  -5  6  0 0.00000000D+00 0.00000000D+00 0.00000000D+00 0.00000000D+00 0.00000000D+00
  <mgrwgt>
 -.9265299383D-01    2    2    0
 0.199180666090778D+03 0.000000000000000D+00 0.000000000000000D+00 0.199180666090778D+03
 0.199180666090778D+03 0.000000000000000D+00 0.000000000000000D+00 -.199180666090778D+03
 0.201627527183371D+03 0.277071595959150D+02 -.225305398517378D+02 -.154121211386353D+03
 0.145832221871358D+03 0.325616379859486D+00 0.221132825594755D+02 0.111636384303483D+03
 0.509015831268268D+02 -.280327759757745D+02 0.417257292262309D+00 0.424848270828698D+02
 0.000000000000000D+00 -.000000000000000D+00 -.000000000000000D+00 -.000000000000000D+00
 0.201520469067621D+03 0.000000000000000D+00 0.000000000000000D+00 0.201520469067621D+03
 0.222367568942173D+03 0.000000000000000D+00 0.000000000000000D+00 -.222367568942173D+03
 0.201373062075782D+03 0.303734154004827D+02 -.158182795363391D+02 -.154121211386353D+03
 0.146667101370915D+03 0.226079473744079D+01 0.269850660059695D+02 0.111636384303483D+03
 0.505771456884436D+02 -.273613917223637D+02 0.210745741215797D+01 0.424848270828698D+02
 0.252707288746534D+02 -.527281841555975D+01 -.132742438817884D+02 -.208470998745528D+02
-.950262978028D-04 0.000000000000D+00 0.000000000000D+00 0.331508735881D-06 0.000000000000D+00  6 21 1 25 23 1 21 4 0.50316581D-01 0.20936054D-01 0.17749654D+05 0.17749654D+05 0.17749654D+05 0.12395743D+01  1  2 13  2  6  2        1 -.220956393109D+00 0.100000000000D+01
0.561809124298D-04 0.000000000000D+00 0.000000000000D+00 0.334456609686D-06 0.137349335032D-07  6 21 1 25 23 1 21 4 0.50907657D-01 0.20834390D-01 0.17749654D+05 0.17749654D+05 0.17749654D+05 0.12395743D+01  1  2  1  2  6  2        1 0.128303399275D+00 0.100000000000D+01
  </mgrwgt>
  </event>
  <event>
  5     66 0.44737074E-03 0.11280087E+03 0.75467711E-02 0.11089433E+00
       21 -1    0    0  501  502 0.00000000E+00 0.00000000E+00 0.25448325E+03 0.25448436E+03 0.75000000E+00 0.0000E+00 0.9000E+01
        1 -1    0    0  502    0 0.00000000E+00 0.00000000E+00 -.35206335E+03 0.35206350E+03 0.32000000E+00 0.0000E+00 0.9000E+01
       25  1    1    2    0    0 -.24240297E+02 -.40639672E+02 -.18816318E+03 0.23080199E+03 0.12500000E+03 0.0000E+00 0.9000E+01
       23  1    1    2    0    0 0.96644461E+01 -.71215451E+02 -.10069291E+03 0.15368590E+03 0.91188000E+02 0.0000E+00 0.9000E+01
        1  1    1    2  501    0 0.14575851E+02 0.11185512E+03 0.19127599E+03 0.22205997E+03 0.32000000E+00 0.0000E+00 0.9000E+01
#aMCatNLO 1  0  0  1  1 0.13723702D+03 0.00000000D+00  -5  6  0 0.00000000D+00 0.00000000D+00 0.00000000D+00 0.00000000D+00 0.00000000D+00
  <mgrwgt>
 0.1599300916D-01    3    2    0
 0.299323578803003D+03 0.000000000000000D+00 0.000000000000000D+00 0.299323578803003D+03
 0.299323578803003D+03 0.000000000000000D+00 0.000000000000000D+00 -.299323578803003D+03
 0.203177275402791D+03 -.242403004947114D+02 -.406397014681024D+02 -.153025578700462D+03
 0.139301164455076D+03 0.966444348183478D+01 -.712154712060348D+02 -.769708923400853D+02
 0.256168717748140D+03 0.145758570128766D+02 0.111855172674137D+03 0.229996471040547D+03
 0.000000000000000D+00 -.000000000000000D+00 0.000000000000000D+00 -.000000000000000D+00
 0.313648578398206D+03 0.000000000000000D+00 0.000000000000000D+00 0.313648578398206D+03
 0.102479555030121D+04 0.000000000000000D+00 0.000000000000000D+00 -.102479555030121D+04
 0.209042804290649D+03 0.144484841817841D+02 -.666956339945579D+02 -.153025578700462D+03
 0.153871962690441D+03 0.371801142310690D+02 -.897465898869939D+02 -.769708923400853D+02
 0.251261444808360D+03 0.622005537819117D+02 0.797811259967091D+02 0.229996471040547D+03
 0.724267916909970D+03 -.113829152194765D+03 0.766610978848427D+02 -.711146971903009D+03
0.188966804359D-04 0.000000000000D+00 0.000000000000D+00 0.114001023761D-05 0.000000000000D+00  6 21 1 25 23 1 21 2 0.39151365D-01 0.54163688D-01 0.32862888D+05 0.32862888D+05 0.32862888D+05 0.12107657D+01  1  2  2  1  6  1       21 0.136969796565D-01 0.100000000000D+01
0.119475218349D-06 0.997205223270D-06 -.381469534251D-07 0.114001023761D-05 0.000000000000D+00  6 21 1 25 23 1 21 4 0.39151365D-01 0.54163688D-01 0.32862888D+05 0.32862888D+05 0.32862888D+05 0.12107657D+01  1  2  3  1  6  1       21 0.126951352958D-03 0.100000000000D+01
0.204134165824D-05 0.000000000000D+00 0.000000000000D+00 0.114001023761D-05 0.000000000000D+00  6 21 1 25 23 1 21 4 0.39151365D-01 0.54163688D-01 0.32862888D+05 0.32862888D+05 0.32862888D+05 0.12107657D+01  1  2 15  1  6  1       21 0.216907814814D-02 0.100000000000D+01
  </mgrwgt>
  </event>
  <event>
  5     66 0.44737074E-03 0.21638032E+02 0.75467711E-02 0.11855960E+00
       21 -1    0    0  501  502 0.00000000E+00 0.00000000E+00 0.11120933E+03 0.11121186E+03 0.75000000E+00 0.0000E+00 0.9000E+01
        1 -1    0    0  502    0 0.00000000E+00 0.00000000E+00 -.20462978E+03 0.20463003E+03 0.32000000E+00 0.0000E+00 0.9000E+01
       25  1    1    2    0    0 -.35270956E+01 -.17545967E+02 -.14437397E+03 0.19180496E+03 0.12500000E+03 0.0000E+00 0.9000E+01
       23  1    1    2    0    0 0.36053328E+01 -.40904794E+01 0.43202550E+02 0.10105168E+03 0.91188000E+02 0.0000E+00 0.9000E+01
        1  1    1    2  501    0 -.78237247E-01 0.21636447E+02 0.77509690E+01 0.22985253E+02 0.32000000E+00 0.0000E+00 0.9000E+01
#aMCatNLO 1  0  0  2  1 0.14283143D+02 0.00000000D+00  -5  6  0 0.00000000D+00 0.00000000D+00 0.00000000D+00 0.00000000D+00 0.00000000D+00
  <mgrwgt>
 0.7150771269D-01    7    2    0
 0.150854833254234D+03 0.000000000000000D+00 0.000000000000000D+00 0.150854833254234D+03
 0.150854833254234D+03 0.000000000000000D+00 0.000000000000000D+00 -.150854833254234D+03
 0.156086123074615D+03 -.352709260259858D+01 -.175467858392729D+02 -.917471947306693D+02
 0.119161833342737D+03 0.360533506909258D+01 -.409110429349783D+01 0.765150678383115D+02
 0.264617100911167D+02 -.782424664939985D-01 0.216378901327707D+02 0.152321268923578D+02
 0.000000000000000D+00 0.000000000000000D+00 -.000000000000000D+00 -.000000000000000D+00
 0.189796740411675D+03 0.000000000000000D+00 0.000000000000000D+00 0.189796740411675D+03
 0.196311152393681D+03 0.000000000000000D+00 0.000000000000000D+00 -.196311152393681D+03
 0.160255207974786D+03 -.401668032602440D+02 -.508053717114757D+01 -.917471947306693D+02
 0.121608073451509D+03 -.242814405562896D+02 0.539705686439299D+01 0.765150678383115D+02
 0.290156136456506D+02 -.650381159156747D+01 0.238241176195503D+02 0.152321268923578D+02
 0.752289977334106D+02 0.709520554081011D+02 -.241406373127957D+02 -.651441198200671D+01
0.393222960846D-05 0.000000000000D+00 0.000000000000D+00 0.579444775956D-06 0.000000000000D+00  6 21 1 25 23 1 21 2 0.17109342D-01 0.31481719D-01 0.14311786D+05 0.14311786D+05 0.14311786D+05 0.12501546D+01  1  2  2  2  6  2        1 0.291222415720D-01 0.100000000000D+01
0.196677013488D-06 0.207509457439D-06 -.793803865391D-08 0.579444775956D-06 0.000000000000D+00  6 21 1 25 23 1 21 4 0.17109342D-01 0.31481719D-01 0.14311786D+05 0.14311786D+05 0.14311786D+05 0.12501546D+01  1  2  3  2  6  2        1 0.227649643252D-02 0.100000000000D+01
0.390432989665D-06 0.000000000000D+00 0.000000000000D+00 0.579444775956D-06 0.000000000000D+00  6 21 1 25 23 1 21 4 0.17109342D-01 0.31481719D-01 0.14311786D+05 0.14311786D+05 0.14311786D+05 0.12501546D+01  1  2 15  2  6  2        1 0.451918245223D-02 0.100000000000D+01
-.100766864922D-05 0.000000000000D+00 0.000000000000D+00 0.579444775956D-06 0.000000000000D+00  6 21 1 25 23 1 21 4 0.17109342D-01 0.31481719D-01 0.14311786D+05 0.14311786D+05 0.14311786D+05 0.12501546D+01  1  2  4  2  6  2        1 -.116635596831D-01 0.100000000000D+01
-.593480990681D-05 0.000000000000D+00 -.459866599609D-05 0.579444775956D-06 0.000000000000D+00  6 21 1 25 23 1 21 4 0.17109342D-01 0.50564662D-01 0.14311786D+05 0.14311786D+05 0.14311786D+05 0.12501546D+01  1  2  5  2  6  2        1 -.382997099297D-01 0.100000000000D+01
0.770461689722D-05 0.000000000000D+00 0.412665378905D-05 0.579444775956D-06 0.000000000000D+00  6 21 1 25 23 1 21 4 0.17109342D-01 0.31481719D-01 0.14311786D+05 0.14311786D+05 0.14311786D+05 0.12501546D+01  1  2  6  2  6  2        1 0.891793736818D-01 0.100000000000D+01
-.125950273730D-06 0.000000000000D+00 -.248607249993D-06 0.579444775956D-06 0.000000000000D+00  6 21 21 25 23 1 -1 4 0.17109342D-01 0.50564662D-01 0.14311786D+05 0.14311786D+05 0.14311786D+05 0.12501546D+01  1  2  5 10  6  2        1 -.362631184010D-02 0.100000000000D+01
  </mgrwgt>
  </event>
  <event>
  6     66 -.44737074E-03 0.43742070E+02 0.75467711E-02 0.11865731E+00
       21 -1    0    0  501  503 0.00000000E+00 0.00000000E+00 0.20857672E+03 0.20857807E+03 0.75000000E+00 0.0000E+00 0.9000E+01
        1 -1    0    0  502    0 0.00000000E+00 0.00000000E+00 -.14825016E+03 0.14825050E+03 0.32000000E+00 0.0000E+00 0.9000E+01
       25  1    1    2    0    0 -.38613358E+02 -.75201659E+02 -.15381394E+02 0.15168345E+03 0.12500000E+03 0.0000E+00 0.9000E+01
       23  1    1    2    0    0 -.49495703E+01 0.74951847E+02 0.91338455E+01 0.11849454E+03 0.91188000E+02 0.0000E+00 0.9000E+01
        1  1    1    2  501    0 0.46998623E+02 -.62329899E+01 0.61692895E+02 0.77806404E+02 0.32000000E+00 0.0000E+00 0.9000E+01
       21  1    1    2  502  503 -.34356949E+01 0.64828021E+01 0.48812164E+01 0.88441786E+01 0.75000000E+00 0.0000E+00 0.9000E+01
#aMCatNLO 2  0  0  1  2 0.73369423D+01 0.00000000D+00  -5  6  0 0.00000000D+00 0.00000000D+00 0.00000000D+00 0.00000000D+00 0.00000000D+00
  <mgrwgt>
 -.1256356995D-01    3    2    0
 0.171730253034561D+03 0.000000000000000D+00 0.000000000000000D+00 0.171730253034561D+03
 0.171730253034561D+03 0.000000000000000D+00 0.000000000000000D+00 -.171730253034561D+03
 0.155131325258392D+03 -.401702036395450D+02 -.722644601376897D+02 -.400615853030151D+02
 0.120045060070406D+03 -.614298438310554D+01 0.772033795038292D+02 -.987253966130634D+01
 0.682841207403235D+02 0.463131880226506D+02 -.493891936613955D+01 0.499341249643215D+02
 0.000000000000000D+00 -.000000000000000D+00 0.000000000000000D+00 0.000000000000000D+00
 0.177595836670969D+03 0.000000000000000D+00 0.000000000000000D+00 0.177595836670969D+03
 0.174079205288847D+03 0.000000000000000D+00 0.000000000000000D+00 -.174079205288847D+03
 0.156128875604647D+03 -.386135863826032D+02 -.752016364665937D+02 -.400615853030151D+02
 0.118553787112502D+03 -.494974772136228D+01 0.749518649057332D+02 -.987253966130634D+01
 0.688561996426477D+02 0.469990289645338D+02 -.623303053631262D+01 0.499341249643215D+02
 0.813617960001967D+01 -.343569486056832D+01 0.648280209717303D+01 0.351663138212261D+01
-.394113669441D-05 0.000000000000D+00 0.000000000000D+00 0.439458102324D-06 0.000000000000D+00  6 21 1 25 23 1 21 4 0.32292722D-01 0.22497871D-01 0.26210168D+05 0.26210168D+05 0.26210168D+05 0.12211027D+01  1  2 13  1  6  1       21 -.191496381375D-01 0.100000000000D+01
-.253311702026D-05 0.000000000000D+00 0.000000000000D+00 0.441070034154D-06 0.000000000000D+00  6 21 1 25 23 1 21 4 0.31025979D-01 0.22497871D-01 0.24977190D+05 0.24977190D+05 0.24977190D+05 0.12233401D+01  1  2  8  1  6  1       21 -.134082719356D-01 0.100000000000D+01
0.413415343636D-05 0.000000000000D+00 0.000000000000D+00 0.441070034154D-06 0.811676445668D-07  6 21 1 25 23 1 21 4 0.32085696D-01 0.22805600D-01 0.26210168D+05 0.26210168D+05 0.26210168D+05 0.12211027D+01  1  2  1  1  6  1       21 0.199943401249D-01 0.100000000000D+01
  </mgrwgt>
  </event>
  <event>
  5     66 0.44737074E-03 0.10049260E+03 0.75467711E-02 0.11042037E+00
       21 -1    0    0  501  502 0.00000000E+00 0.00000000E+00 0.56457615E+02 0.56462597E+02 0.75000000E+00 0.0000E+00 0.9000E+01
        1 -1    0    0  502    0 0.00000000E+00 0.00000000E+00 -.17011037E+04 0.17011038E+04 0.32000000E+00 0.0000E+00 0.9000E+01
       25  1    1    2    0    0 0.59750296E+02 -.89803737E+02 -.54459505E+03 0.56907256E+03 0.12500000E+03 0.0000E+00 0.9000E+01
       23  1    1    2    0    0 -.78320173E+02 0.20151856E+03 -.10276078E+04 0.10540573E+04 0.91188000E+02 0.0000E+00 0.9000E+01
        1  1    1    2  501    0 0.18569877E+02 -.11171482E+03 -.72443288E+02 0.13443651E+03 0.32000000E+00 0.0000E+00 0.9000E+01
#aMCatNLO 1  0  0  1  2 0.15423155D+02 0.00000000D+00  -5  6  0 0.00000000D+00 0.00000000D+00 0.00000000D+00 0.00000000D+00 0.00000000D+00
  <mgrwgt>
 0.3981950831D-01   32    2    0
 0.309910734455578D+03 0.000000000000000D+00 0.000000000000000D+00 0.309910734455578D+03
 0.309910734455578D+03 0.000000000000000D+00 0.000000000000000D+00 -.309910734455578D+03
 0.168623785909518D+03 0.597502883457805D+02 -.898036936643765D+02 -.342663219690957D+02
 0.262211882726163D+03 -.783201839358321D+02 0.201518626999798D+03 -.117029961373883D+03
 0.188985800275476D+03 0.185698955900516D+02 -.111714933335422D+03 0.151296283342979D+03
 0.000000000000000D+00 0.000000000000000D+00 0.000000000000000D+00 0.000000000000000D+00
 0.341038439876374D+03 0.000000000000000D+00 0.000000000000000D+00 0.341038439876374D+03
 0.311923036208799D+03 0.000000000000000D+00 0.000000000000000D+00 -.311923036208799D+03
 0.170866746325254D+03 0.596284044746146D+02 -.940250900467571D+02 -.342663219690957D+02
 0.257336949385280D+03 -.785067123273622D+02 0.195058294966655D+03 -.117029961373883D+03
 0.191809632409737D+03 0.184331824359250D+02 -.116449935667837D+03 0.151296283342979D+03
 0.329481479649008D+02 0.445125416822587D+00 0.154167307479391D+02 0.291154036675751D+02
0.336607277845D-05 0.000000000000D+00 0.000000000000D+00 0.102437533547D-06 0.000000000000D+00  6 21 1 25 23 1 21 2 0.86861724D-02 0.26170865D+00 0.65792226D+05 0.65792226D+05 0.65792226D+05 0.11806536D+01  1  2  2  1  6  1       21 0.286389774698D-02 0.100000000000D+01
-.574304442766D-09 0.177632540697D-06 -.679513113113D-08 0.102437533547D-06 0.000000000000D+00  6 21 1 25 23 1 21 4 0.86861724D-02 0.26170865D+00 0.65792226D+05 0.65792226D+05 0.65792226D+05 0.11806536D+01  1  2  3  1  6  1       21 -.681116138786D-06 0.100000000000D+01
0.371308496128D-06 0.000000000000D+00 0.000000000000D+00 0.102437533547D-06 0.000000000000D+00  6 21 1 25 23 1 21 4 0.86861724D-02 0.26170865D+00 0.65792226D+05 0.65792226D+05 0.65792226D+05 0.11806536D+01  1  2 15  1  6  1       21 0.440366102625D-03 0.100000000000D+01
0.438160876357D-04 0.000000000000D+00 0.000000000000D+00 0.101970183643D-06 0.000000000000D+00  6 21 1 25 23 1 21 4 0.95851240D-02 0.26170865D+00 0.70199740D+05 0.70199740D+05 0.70199740D+05 0.11779573D+01  1  2 12  1  6  1       21 0.431436126566D-01 0.100000000000D+01
0.289327431586D-04 0.000000000000D+00 0.000000000000D+00 0.101970183643D-06 0.000000000000D+00  6 21 1 25 23 1 21 4 0.10019196D-01 0.26170865D+00 0.70199740D+05 0.70199740D+05 0.70199740D+05 0.11779573D+01  1  2 12  1  6  1       21 0.263325165218D-01 0.100000000000D+01
-.470785486484D-04 0.000000000000D+00 0.000000000000D+00 0.102437533547D-06 0.000000000000D+00  6 21 1 25 23 1 21 4 0.86861724D-02 0.26170865D+00 0.65792226D+05 0.65792226D+05 0.65792226D+05 0.11806536D+01  1  2  4  1  6  1       21 -.558344266337D-01 0.100000000000D+01
-.122271244090D-03 0.000000000000D+00 -.107925235745D-04 0.102437533547D-06 0.000000000000D+00  6 21 1 25 23 1 21 4 0.96168133D-02 0.26170865D+00 0.65792226D+05 0.65792226D+05 0.65792226D+05 0.11806536D+01  1  2  5  1  6  1       21 -.121138334436D+00 0.100000000000D+01
0.121628456637D-03 0.000000000000D+00 0.105721579479D-04 0.102437533547D-06 0.000000000000D+00  6 21 1 25 23 1 21 4 0.86861724D-02 0.26170865D+00 0.65792226D+05 0.65792226D+05 0.65792226D+05 0.11806536D+01  1  2  6  1  6  1       21 0.144249458270D+00 0.100000000000D+01
0.110125765163D-05 0.000000000000D+00 0.000000000000D+00 0.101970183643D-06 0.000000000000D+00  6 -1 1 25 23 1 -1 4 0.95851240D-02 0.26170865D+00 0.70199740D+05 0.70199740D+05 0.70199740D+05 0.11779573D+01  1  2 12  4  6  1       21 0.730982697485D-04 0.100000000000D+01
0.111335210998D-05 0.000000000000D+00 0.000000000000D+00 0.101970183643D-06 0.000000000000D+00  6 -1 1 25 23 1 -1 4 0.10019196D-01 0.26170865D+00 0.70199740D+05 0.70199740D+05 0.70199740D+05 0.11779573D+01  1  2 12  4  6  1       21 0.690001004724D-04 0.100000000000D+01
-.262728414563D-05 0.000000000000D+00 -.281290924789D-06 0.102437533547D-06 0.000000000000D+00  6 -1 1 25 23 1 -1 4 0.96168133D-02 0.26170865D+00 0.65792226D+05 0.65792226D+05 0.65792226D+05 0.11806536D+01  1  2  5  4  6  1       21 -.175355414091D-03 0.100000000000D+01
0.110125765163D-05 0.000000000000D+00 0.000000000000D+00 0.101970183643D-06 0.000000000000D+00  6 1 1 25 23 1 1 4 0.95851240D-02 0.26170865D+00 0.70199740D+05 0.70199740D+05 0.70199740D+05 0.11779573D+01  1  2 12  5  6  1       21 0.906907516573D-04 0.100000000000D+01
0.111335210998D-05 0.000000000000D+00 0.000000000000D+00 0.101970183643D-06 0.000000000000D+00  6 1 1 25 23 1 1 4 0.10019196D-01 0.26170865D+00 0.70199740D+05 0.70199740D+05 0.70199740D+05 0.11779573D+01  1  2 12  5  6  1       21 0.863601740354D-04 0.100000000000D+01
-.262728414563D-05 0.000000000000D+00 -.281290924789D-06 0.102437533547D-06 0.000000000000D+00  6 1 1 25 23 1 1 4 0.96168133D-02 0.26170865D+00 0.65792226D+05 0.65792226D+05 0.65792226D+05 0.11806536D+01  1  2  5  5  6  1       21 -.217714469887D-03 0.100000000000D+01
0.110125765163D-05 0.000000000000D+00 0.000000000000D+00 0.101970183643D-06 0.000000000000D+00  6 -2 1 25 23 1 -2 4 0.95851240D-02 0.26170865D+00 0.70199740D+05 0.70199740D+05 0.70199740D+05 0.11779573D+01  1  2 12  6  6  1       21 0.700554684997D-04 0.100000000000D+01
0.110125765163D-05 0.000000000000D+00 0.000000000000D+00 0.101970183643D-06 0.000000000000D+00  6 -4 1 25 23 1 -4 4 0.95851240D-02 0.26170865D+00 0.70199740D+05 0.70199740D+05 0.70199740D+05 0.11779573D+01  1  2 12  6  6  1       21 0.439116395044D-04 0.100000000000D+01
0.111335210998D-05 0.000000000000D+00 0.000000000000D+00 0.101970183643D-06 0.000000000000D+00  6 -2 1 25 23 1 -2 4 0.10019196D-01 0.26170865D+00 0.70199740D+05 0.70199740D+05 0.70199740D+05 0.11779573D+01  1  2 12  6  6  1       21 0.660000177182D-04 0.100000000000D+01
0.111335210998D-05 0.000000000000D+00 0.000000000000D+00 0.101970183643D-06 0.000000000000D+00  6 -4 1 25 23 1 -4 4 0.10019196D-01 0.26170865D+00 0.70199740D+05 0.70199740D+05 0.70199740D+05 0.11779573D+01  1  2 12  6  6  1       21 0.411655016599D-04 0.100000000000D+01
-.262728414563D-05 0.000000000000D+00 -.281290924789D-06 0.102437533547D-06 0.000000000000D+00  6 -2 1 25 23 1 -2 4 0.96168133D-02 0.26170865D+00 0.65792226D+05 0.65792226D+05 0.65792226D+05 0.11806536D+01  1  2  5  6  6  1       21 -.168027490363D-03 0.100000000000D+01
-.262728414563D-05 0.000000000000D+00 -.281290924789D-06 0.102437533547D-06 0.000000000000D+00  6 -4 1 25 23 1 -4 4 0.96168133D-02 0.26170865D+00 0.65792226D+05 0.65792226D+05 0.65792226D+05 0.11806536D+01  1  2  5  6  6  1       21 -.105101617289D-03 0.100000000000D+01
0.110125765163D-05 0.000000000000D+00 0.000000000000D+00 0.101970183643D-06 0.000000000000D+00  6 2 1 25 23 1 2 4 0.95851240D-02 0.26170865D+00 0.70199740D+05 0.70199740D+05 0.70199740D+05 0.11779573D+01  1  2 12  7  6  1       21 0.102665017889D-03 0.100000000000D+01
0.110125765163D-05 0.000000000000D+00 0.000000000000D+00 0.101970183643D-06 0.000000000000D+00  6 4 1 25 23 1 4 4 0.95851240D-02 0.26170865D+00 0.70199740D+05 0.70199740D+05 0.70199740D+05 0.11779573D+01  1  2 12  7  6  1       21 0.439116395044D-04 0.100000000000D+01
0.111335210998D-05 0.000000000000D+00 0.000000000000D+00 0.101970183643D-06 0.000000000000D+00  6 2 1 25 23 1 2 4 0.10019196D-01 0.26170865D+00 0.70199740D+05 0.70199740D+05 0.70199740D+05 0.11779573D+01  1  2 12  7  6  1       21 0.981942396880D-04 0.100000000000D+01
0.111335210998D-05 0.000000000000D+00 0.000000000000D+00 0.101970183643D-06 0.000000000000D+00  6 4 1 25 23 1 4 4 0.10019196D-01 0.26170865D+00 0.70199740D+05 0.70199740D+05 0.70199740D+05 0.11779573D+01  1  2 12  7  6  1       21 0.411655016599D-04 0.100000000000D+01
-.262728414563D-05 0.000000000000D+00 -.281290924789D-06 0.102437533547D-06 0.000000000000D+00  6 2 1 25 23 1 2 4 0.96168133D-02 0.26170865D+00 0.65792226D+05 0.65792226D+05 0.65792226D+05 0.11806536D+01  1  2  5  7  6  1       21 -.246537783213D-03 0.100000000000D+01
-.262728414563D-05 0.000000000000D+00 -.281290924789D-06 0.102437533547D-06 0.000000000000D+00  6 4 1 25 23 1 4 4 0.96168133D-02 0.26170865D+00 0.65792226D+05 0.65792226D+05 0.65792226D+05 0.11806536D+01  1  2  5  7  6  1       21 -.105101617289D-03 0.100000000000D+01
0.110125765163D-05 0.000000000000D+00 0.000000000000D+00 0.101970183643D-06 0.000000000000D+00  6 -3 1 25 23 1 -3 4 0.95851240D-02 0.26170865D+00 0.70199740D+05 0.70199740D+05 0.70199740D+05 0.11779573D+01  1  2 12  8  6  1       21 0.496279965335D-04 0.100000000000D+01
0.111335210998D-05 0.000000000000D+00 0.000000000000D+00 0.101970183643D-06 0.000000000000D+00  6 -3 1 25 23 1 -3 4 0.10019196D-01 0.26170865D+00 0.70199740D+05 0.70199740D+05 0.70199740D+05 0.11779573D+01  1  2 12  8  6  1       21 0.465887282764D-04 0.100000000000D+01
-.262728414563D-05 0.000000000000D+00 -.281290924789D-06 0.102437533547D-06 0.000000000000D+00  6 -3 1 25 23 1 -3 4 0.96168133D-02 0.26170865D+00 0.65792226D+05 0.65792226D+05 0.65792226D+05 0.11806536D+01  1  2  5  8  6  1       21 -.118858386456D-03 0.100000000000D+01
0.110125765163D-05 0.000000000000D+00 0.000000000000D+00 0.101970183643D-06 0.000000000000D+00  6 3 1 25 23 1 3 4 0.95851240D-02 0.26170865D+00 0.70199740D+05 0.70199740D+05 0.70199740D+05 0.11779573D+01  1  2 12  9  6  1       21 0.496224293175D-04 0.100000000000D+01
0.111335210998D-05 0.000000000000D+00 0.000000000000D+00 0.101970183643D-06 0.000000000000D+00  6 3 1 25 23 1 3 4 0.10019196D-01 0.26170865D+00 0.70199740D+05 0.70199740D+05 0.70199740D+05 0.11779573D+01  1  2 12  9  6  1       21 0.465834735923D-04 0.100000000000D+01
-.262728414563D-05 0.000000000000D+00 -.281290924789D-06 0.102437533547D-06 0.000000000000D+00  6 3 1 25 23 1 3 4 0.96168133D-02 0.26170865D+00 0.65792226D+05 0.65792226D+05 0.65792226D+05 0.11806536D+01  1  2  5  9  6  1       21 -.118844972011D-03 0.100000000000D+01
  </mgrwgt>
  </event>
  <event>
  5     66 0.44737074E-03 0.77580863E+02 0.75467711E-02 0.11245130E+00
       21 -1    0    0  501  502 0.00000000E+00 0.00000000E+00 0.77832787E+03 0.77832824E+03 0.75000000E+00 0.0000E+00 0.9000E+01
        1 -1    0    0  502    0 0.00000000E+00 0.00000000E+00 -.86243735E+02 0.86244329E+02 0.32000000E+00 0.0000E+00 0.9000E+01
       25  1    1    2    0    0 0.35016580E+02 0.71666582E+02 0.24332475E+03 0.28494595E+03 0.12500000E+03 0.0000E+00 0.9000E+01
       23  1    1    2    0    0 0.38287703E+02 -.97068444E+02 0.15459689E+02 0.13943631E+03 0.91188000E+02 0.0000E+00 0.9000E+01
        1  1    1    2  501    0 -.73304283E+02 0.25401862E+02 0.43329970E+03 0.44019031E+03 0.32000000E+00 0.0000E+00 0.9000E+01
#aMCatNLO 1  0  0  1  1 0.94436040D+02 0.00000000D+00  -5  6  0 0.00000000D+00 0.00000000D+00 0.00000000D+00 0.00000000D+00 0.00000000D+00
  <mgrwgt>
 0.1007379999D-01    4    2    0
 0.259087467515535D+03 0.000000000000000D+00 0.000000000000000D+00 0.259087467515535D+03
 0.259087467515535D+03 0.000000000000000D+00 0.000000000000000D+00 -.259087467515535D+03
 0.150441942739804D+03 0.350166254278657D+02 0.716665664901334D+02 0.254070330122665D+02
 0.212000719177793D+03 0.382877662485881D+02 -.970684660195276D+02 -.160439438568610D+03
 0.155732273113473D+03 -.733043916764538D+02 0.254018995293942D+02 0.135032405556344D+03
 0.000000000000000D+00 -.000000000000000D+00 0.000000000000000D+00 -.000000000000000D+00
 0.309949906994312D+03 0.000000000000000D+00 0.000000000000000D+00 0.309949906994312D+03
 0.311204471110194D+03 0.000000000000000D+00 0.000000000000000D+00 -.311204471110194D+03
 0.145889908893531D+03 0.503930925207194D+02 0.497381585573359D+02 0.254070330122665D+02
 0.233983197539633D+03 0.614295816881001D+02 -.130071051476819D+03 -.160439438568610D+03
 0.146836898250760D+03 -.576042741185518D+02 0.301193307457985D+01 0.135032405556344D+03
 0.944443734205819D+02 -.542184000902676D+02 0.773209598449031D+02 -.125456411588266D+01
0.291275261329D-04 0.000000000000D+00 0.000000000000D+00 0.234811330269D-06 0.000000000000D+00  6 21 1 25 23 1 21 2 0.11974282D+00 0.13268340D-01 0.33203863D+05 0.33203863D+05 0.33203863D+05 0.12103004D+01  1  2  2  1  6  1       21 0.106560494654D-01 0.100000000000D+01
0.287659653986D-06 0.153710178352D-05 -.588000832500D-07 0.234811330269D-06 0.000000000000D+00  6 21 1 25 23 1 21 4 0.11974282D+00 0.13268340D-01 0.33203863D+05 0.33203863D+05 0.33203863D+05 0.12103004D+01  1  2  3  1  6  1       21 0.154155112069D-03 0.100000000000D+01
0.269293933511D-05 0.000000000000D+00 0.000000000000D+00 0.234811330269D-06 0.000000000000D+00  6 21 1 25 23 1 21 4 0.11974282D+00 0.13268340D-01 0.33203863D+05 0.33203863D+05 0.33203863D+05 0.12103004D+01  1  2 15  1  6  1       21 0.144313030780D-02 0.100000000000D+01
-.406709998969D-05 0.000000000000D+00 0.000000000000D+00 0.234811330269D-06 0.000000000000D+00  6 21 1 25 23 1 21 4 0.11974282D+00 0.13268340D-01 0.33203863D+05 0.33203863D+05 0.33203863D+05 0.12103004D+01  1  2  4  1  6  1       21 -.217953489834D-02 0.100000000000D+01
  </mgrwgt>
  </event>
  <event>
  6     66 0.44737074E-03 0.31816906E+02 0.75467711E-02 0.12246714E+00
       21 -1    0    0  501  502 0.00000000E+00 0.00000000E+00 0.36630336E+03 0.36630412E+03 0.75000000E+00 0.0000E+00 0.9000E+01
        1 -1    0    0  502    0 0.00000000E+00 0.00000000E+00 -.11506412E+03 0.11506456E+03 0.32000000E+00 0.0000E+00 0.9000E+01
       25  1    1    2    0    0 0.37924491E+02 0.85744477E+01 0.15385716E+03 0.20201192E+03 0.12500000E+03 0.0000E+00 0.9000E+01
       23  1    1    2    0    0 -.83153846E+01 0.15328425E+02 -.64189305E+02 0.11286994E+03 0.91188000E+02 0.0000E+00 0.9000E+01
        1  1    1    2  503    0 -.10446865E+02 -.16441709E+02 0.84363483E+02 0.86583869E+02 0.32000000E+00 0.0000E+00 0.9000E+01
       21  1    1    2  501  503 -.19162241E+02 -.74611640E+01 0.77207899E+02 0.79902957E+02 0.75000000E+00 0.0000E+00 0.9000E+01
#aMCatNLO 2  0  0  5  1 0.63697293D+01 0.00000000D+00  -5  6  0 0.00000000D+00 0.00000000D+00 0.00000000D+00 0.00000000D+00 0.00000000D+00
  <mgrwgt>
 0.1518282590D-01    2    2    0
 0.205301399367117D+03 0.000000000000000D+00 0.000000000000000D+00 0.205301399367117D+03
 0.205301399367117D+03 -.000000000000000D+00 -.000000000000000D+00 -.205301399367117D+03
 0.142606486789040D+03 0.380170191864314D+02 0.864914423561267D+01 0.564934388268479D+02
 0.171878551117885D+03 -.820398505148440D+01 0.154183558847139D+02 -.144644232244050D+03
 0.961177608273086D+02 -.298130341349470D+02 -.240675001203266D+02 0.881507934172022D+02
 0.000000000000000D+00 -.000000000000000D+00 0.000000000000000D+00 0.000000000000000D+00
 0.205301399367117D+03 0.000000000000000D+00 0.000000000000000D+00 0.205301399367117D+03
 0.205301399367117D+03 -.000000000000000D+00 -.000000000000000D+00 -.205301399367117D+03
 0.142684935180007D+03 0.379256803637805D+02 0.857540812692977D+01 0.567635082753323D+02
 0.171602346998695D+03 -.831395380070411D+01 0.153295801877118D+02 -.144319078069841D+03
 0.493674920560407D+02 -.102950277612243D+02 -.163035624194079D+02 0.454461827630806D+02
 0.469480244994910D+02 -.193166988018521D+02 -.760142589523361D+01 0.421093870314281D+02
-.248970768287D-04 0.000000000000D+00 0.000000000000D+00 0.534216766980D-06 0.000000000000D+00  6 21 1 25 23 1 21 4 0.56354456D-01 0.17702265D-01 0.17396160D+05 0.17396160D+05 0.17396160D+05 0.12405513D+01  1  2 13  3  6  5        1 -.567907100210D-01 0.100000000000D+01
0.315532356065D-04 0.000000000000D+00 0.000000000000D+00 0.534755284107D-06 0.446402820497D-07  6 21 1 25 23 1 21 4 0.56354456D-01 0.17702265D-01 0.17396160D+05 0.17396160D+05 0.17396160D+05 0.12405513D+01  1  2  1  3  6  5        1 0.719735359249D-01 0.100000000000D+01
  </mgrwgt>
  </event>
  <event>
  6     66 0.44737074E-03 0.69283132E+02 0.75467711E-02 0.11722388E+00
       21 -1    0    0  501  502 0.00000000E+00 0.00000000E+00 0.11187523E+03 0.11187774E+03 0.75000000E+00 0.0000E+00 0.9000E+01
        1 -1    0    0  503    0 0.00000000E+00 0.00000000E+00 -.57941067E+03 0.57941076E+03 0.32000000E+00 0.0000E+00 0.9000E+01
       25  1    1    2    0    0 -.68429249E+01 -.36719074E+02 -.61910793E+02 0.14440589E+03 0.12500000E+03 0.0000E+00 0.9000E+01
       23  1    1    2    0    0 -.70924016E+02 0.68339093E+02 -.42115060E+03 0.44202209E+03 0.91188000E+02 0.0000E+00 0.9000E+01
        1  1    1    2  501    0 0.66712973E+02 -.34170774E+02 -.11227103E+02 0.75791904E+02 0.32000000E+00 0.0000E+00 0.9000E+01
       21  1    1    2  503  502 0.11053969E+02 0.25507548E+01 0.26753050E+02 0.29068622E+02 0.75000000E+00 0.0000E+00 0.9000E+01
#aMCatNLO 2  0  0  2  1 0.11344451D+02 0.00000000D+00  -5  6  0 0.00000000D+00 0.00000000D+00 0.00000000D+00 0.00000000D+00 0.00000000D+00
  <mgrwgt>
 0.6197011552D-02    1    2    0
 0.220275602744496D+03 0.000000000000000D+00 0.000000000000000D+00 0.220275602744496D+03
 0.220275602744496D+03 0.000000000000000D+00 0.000000000000000D+00 -.220275602744496D+03
 0.147218600115556D+03 -.314554595878379D+01 -.358658062975157D+02 0.689352282888380D+02
 0.190525693596135D+03 -.661278742357482D+02 0.694459289607146D+02 -.137073541488257D+03
 0.102806911777301D+03 0.692734201945320D+02 -.335801226631989D+02 0.681383131994186D+02
 0.000000000000000D+00 0.000000000000000D+00 0.000000000000000D+00 0.000000000000000D+00
 0.293591647634400D+03 0.000000000000000D+00 0.000000000000000D+00 0.293591647634400D+03
 0.220787901473724D+03 0.000000000000000D+00 0.000000000000000D+00 -.220787901473724D+03
 0.147553987438395D+03 -.684303548483850D+01 -.367190192555464D+02 0.689352282888380D+02
 0.191845994309882D+03 -.709241659222457D+02 0.683391622779212D+02 -.137073541488257D+03
 0.101297262659619D+03 0.667132328532772D+02 -.341708978362325D+02 0.681383131994186D+02
 0.736823047002276D+02 0.110539685538070D+02 0.255075481385772D+01 0.728037461606764D+02
0.227882243796D-05 0.000000000000D+00 0.000000000000D+00 0.126621322506D-06 0.216727482680D-07  6 21 1 25 23 1 21 4 0.17211626D-01 0.89139535D-01 0.30797381D+05 0.30797381D+05 0.30797381D+05 0.12137045D+01  1  2  1  2  6  2        1 0.619701155230D-02 0.100000000000D+01
  </mgrwgt>
  </event>
  <event>
  5     66 0.44737074E-03 0.28051070E+02 0.75467711E-02 0.11918490E+00
       21 -1    0    0  501  502 0.00000000E+00 0.00000000E+00 0.64923330E+03 0.64923374E+03 0.75000000E+00 0.0000E+00 0.9000E+01
        1 -1    0    0  502    0 0.00000000E+00 0.00000000E+00 -.13364585E+03 0.13364623E+03 0.32000000E+00 0.0000E+00 0.9000E+01
       25  1    1    2    0    0 -.54970459E+02 -.33492648E+01 -.51692042E+01 0.13669195E+03 0.12500000E+03 0.0000E+00 0.9000E+01
       23  1    1    2    0    0 0.65613411E+02 -.22604334E+02 -.96891756E+01 0.11500090E+03 0.91188000E+02 0.0000E+00 0.9000E+01
        1  1    1    2  501    0 -.10642952E+02 0.25953599E+02 0.53044584E+03 0.53118711E+03 0.32000000E+00 0.0000E+00 0.9000E+01
#aMCatNLO 1  0  0  1  2 0.27406126D+02 0.00000000D+00  -5  6  0 0.00000000D+00 0.00000000D+00 0.00000000D+00 0.00000000D+00 0.00000000D+00
  <mgrwgt>
 0.1704642804D+00   23    2    0
 0.294563496941274D+03 0.000000000000000D+00 0.000000000000000D+00 0.294563496941274D+03
 0.294563496941274D+03 0.000000000000000D+00 0.000000000000000D+00 -.294563496941274D+03
 0.186171393510808D+03 -.549704562516940D+02 -.334927196037524D+01 -.126498296741784D+03
 0.161302307161009D+03 0.656134134190278D+02 -.226043403383228D+02 -.113521393265047D+03
 0.241653293210731D+03 -.106429571673338D+02 0.259536122986980D+02 0.240019690006830D+03
 0.000000000000000D+00 0.000000000000000D+00 -.000000000000000D+00 0.000000000000000D+00
 0.315312807289103D+03 0.000000000000000D+00 0.000000000000000D+00 0.315312807289103D+03
 0.304072807939770D+03 0.000000000000000D+00 0.000000000000000D+00 -.304072807939770D+03
 0.188684643760737D+03 -.630481514826484D+02 -.794176613008224D-01 -.126498296741784D+03
 0.158252874452622D+03 0.587273848910217D+02 -.198168732029491D+02 -.113521393265047D+03
 0.242826596197179D+03 -.210829141189373D+02 0.301797110984567D+02 0.240019690006830D+03
 0.296215008183344D+02 0.254036807105640D+02 -.102834202342067D+02 0.112399993493332D+02
0.745204625621D-04 0.000000000000D+00 0.000000000000D+00 0.127275125891D-04 0.000000000000D+00  6 21 1 25 23 1 21 2 0.99882109D-01 0.20560962D-01 0.19493360D+05 0.19493360D+05 0.19493360D+05 0.12350547D+01  1  2  2  1  6  1       21 0.253949912018D-01 0.100000000000D+01
0.216704084980D-04 0.393255285019D-05 -.150435343616D-06 0.127275125891D-04 0.000000000000D+00  6 21 1 25 23 1 21 4 0.99882109D-01 0.20560962D-01 0.19493360D+05 0.19493360D+05 0.19493360D+05 0.12350547D+01  1  2  3  1  6  1       21 0.112645025324D-01 0.100000000000D+01
0.702468678771D-05 0.000000000000D+00 0.000000000000D+00 0.127275125891D-04 0.000000000000D+00  6 21 1 25 23 1 21 4 0.99882109D-01 0.20560962D-01 0.19493360D+05 0.19493360D+05 0.19493360D+05 0.12350547D+01  1  2 15  1  6  1       21 0.365150486741D-02 0.100000000000D+01
0.215313534436D-03 0.000000000000D+00 0.000000000000D+00 0.124968985943D-04 0.000000000000D+00  6 21 1 25 23 1 21 4 0.10844511D+00 0.20560962D-01 0.24724265D+05 0.24724265D+05 0.24724265D+05 0.12238144D+01  1  2 12  1  6  1       21 0.879989297555D-01 0.100000000000D+01
-.100291454736D-03 0.000000000000D+00 0.000000000000D+00 0.127275125891D-04 0.000000000000D+00  6 21 1 25 23 1 21 4 0.99882109D-01 0.20560962D-01 0.19493360D+05 0.19493360D+05 0.19493360D+05 0.12350547D+01  1  2  4  1  6  1       21 -.521325357550D-01 0.100000000000D+01
-.998530692770D-03 0.000000000000D+00 -.239437675907D-03 0.127275125891D-04 0.000000000000D+00  6 21 1 25 23 1 21 4 0.10944013D+00 0.20560962D-01 0.19493360D+05 0.19493360D+05 0.19493360D+05 0.12350547D+01  1  2  5  1  6  1       21 -.417819330447D+00 0.100000000000D+01
0.100353168015D-02 0.000000000000D+00 0.235485137690D-03 0.127275125891D-04 0.000000000000D+00  6 21 1 25 23 1 21 4 0.99882109D-01 0.20560962D-01 0.19493360D+05 0.19493360D+05 0.19493360D+05 0.12350547D+01  1  2  6  1  6  1       21 0.521646149558D+00 0.100000000000D+01
0.443352924499D-05 0.000000000000D+00 0.000000000000D+00 0.124968985943D-04 0.000000000000D+00  6 -1 1 25 23 1 -1 4 0.10844511D+00 0.20560962D-01 0.24724265D+05 0.24724265D+05 0.24724265D+05 0.12238144D+01  1  2 12  4  6  1       21 0.208677116418D-03 0.100000000000D+01
-.185014074467D-04 0.000000000000D+00 -.552866313911D-05 0.127275125891D-04 0.000000000000D+00  6 -1 1 25 23 1 -1 4 0.10944013D+00 0.20560962D-01 0.19493360D+05 0.19493360D+05 0.19493360D+05 0.12350547D+01  1  2  5  4  6  1       21 -.886590043573D-03 0.100000000000D+01
0.443352924499D-05 0.000000000000D+00 0.000000000000D+00 0.124968985943D-04 0.000000000000D+00  6 1 1 25 23 1 1 4 0.10844511D+00 0.20560962D-01 0.24724265D+05 0.24724265D+05 0.24724265D+05 0.12238144D+01  1  2 12  5  6  1       21 0.822068354965D-03 0.100000000000D+01
-.185014074467D-04 0.000000000000D+00 -.552866313911D-05 0.127275125891D-04 0.000000000000D+00  6 1 1 25 23 1 1 4 0.10944013D+00 0.20560962D-01 0.19493360D+05 0.19493360D+05 0.19493360D+05 0.12350547D+01  1  2  5  5  6  1       21 -.351717318048D-02 0.100000000000D+01
0.443352924499D-05 0.000000000000D+00 0.000000000000D+00 0.124968985943D-04 0.000000000000D+00  6 -2 1 25 23 1 -2 4 0.10844511D+00 0.20560962D-01 0.24724265D+05 0.24724265D+05 0.24724265D+05 0.12238144D+01  1  2 12  6  6  1       21 0.153775689572D-03 0.100000000000D+01
0.443352924499D-05 0.000000000000D+00 0.000000000000D+00 0.124968985943D-04 0.000000000000D+00  6 -4 1 25 23 1 -4 4 0.10844511D+00 0.20560962D-01 0.24724265D+05 0.24724265D+05 0.24724265D+05 0.12238144D+01  1  2 12  6  6  1       21 0.775626484904D-04 0.100000000000D+01
-.185014074467D-04 0.000000000000D+00 -.552866313911D-05 0.127275125891D-04 0.000000000000D+00  6 -2 1 25 23 1 -2 4 0.10944013D+00 0.20560962D-01 0.19493360D+05 0.19493360D+05 0.19493360D+05 0.12350547D+01  1  2  5  6  6  1       21 -.651760309532D-03 0.100000000000D+01
-.185014074467D-04 0.000000000000D+00 -.552866313911D-05 0.127275125891D-04 0.000000000000D+00  6 -4 1 25 23 1 -4 4 0.10944013D+00 0.20560962D-01 0.19493360D+05 0.19493360D+05 0.19493360D+05 0.12350547D+01  1  2  5  6  6  1       21 -.326468630976D-03 0.100000000000D+01
0.443352924499D-05 0.000000000000D+00 0.000000000000D+00 0.124968985943D-04 0.000000000000D+00  6 2 1 25 23 1 2 4 0.10844511D+00 0.20560962D-01 0.24724265D+05 0.24724265D+05 0.24724265D+05 0.12238144D+01  1  2 12  7  6  1       21 0.138427135651D-02 0.100000000000D+01
0.443352924499D-05 0.000000000000D+00 0.000000000000D+00 0.124968985943D-04 0.000000000000D+00  6 4 1 25 23 1 4 4 0.10844511D+00 0.20560962D-01 0.24724265D+05 0.24724265D+05 0.24724265D+05 0.12238144D+01  1  2 12  7  6  1       21 0.775626484904D-04 0.100000000000D+01
-.185014074467D-04 0.000000000000D+00 -.552866313911D-05 0.127275125891D-04 0.000000000000D+00  6 2 1 25 23 1 2 4 0.10944013D+00 0.20560962D-01 0.19493360D+05 0.19493360D+05 0.19493360D+05 0.12350547D+01  1  2  5  7  6  1       21 -.592826350272D-02 0.100000000000D+01
-.185014074467D-04 0.000000000000D+00 -.552866313911D-05 0.127275125891D-04 0.000000000000D+00  6 4 1 25 23 1 4 4 0.10944013D+00 0.20560962D-01 0.19493360D+05 0.19493360D+05 0.19493360D+05 0.12350547D+01  1  2  5  7  6  1       21 -.326468630976D-03 0.100000000000D+01
0.443352924499D-05 0.000000000000D+00 0.000000000000D+00 0.124968985943D-04 0.000000000000D+00  6 -3 1 25 23 1 -3 4 0.10844511D+00 0.20560962D-01 0.24724265D+05 0.24724265D+05 0.24724265D+05 0.12238144D+01  1  2 12  8  6  1       21 0.972259867051D-04 0.100000000000D+01
-.185014074467D-04 0.000000000000D+00 -.552866313911D-05 0.127275125891D-04 0.000000000000D+00  6 -3 1 25 23 1 -3 4 0.10944013D+00 0.20560962D-01 0.19493360D+05 0.19493360D+05 0.19493360D+05 0.12350547D+01  1  2  5  8  6  1       21 -.410426229187D-03 0.100000000000D+01
0.443352924499D-05 0.000000000000D+00 0.000000000000D+00 0.124968985943D-04 0.000000000000D+00  6 3 1 25 23 1 3 4 0.10844511D+00 0.20560962D-01 0.24724265D+05 0.24724265D+05 0.24724265D+05 0.12238144D+01  1  2 12  9  6  1       21 0.974464093283D-04 0.100000000000D+01
-.185014074467D-04 0.000000000000D+00 -.552866313911D-05 0.127275125891D-04 0.000000000000D+00  6 3 1 25 23 1 3 4 0.10944013D+00 0.20560962D-01 0.19493360D+05 0.19493360D+05 0.19493360D+05 0.12350547D+01  1  2  5  9  6  1       21 -.411371028977D-03 0.100000000000D+01
  </mgrwgt>
  </event>
  <event>
  5     66 0.44737074E-03 0.65403704E+02 0.75467711E-02 0.11968326E+00
       21 -1    0    0  501  502 0.00000000E+00 0.00000000E+00 0.18163017E+03 0.18163172E+03 0.75000000E+00 0.0000E+00 0.9000E+01
        1 -1    0    0  502    0 0.00000000E+00 0.00000000E+00 -.15773053E+03 0.15773086E+03 0.32000000E+00 0.0000E+00 0.9000E+01
       25  1    1    2    0    0 0.15587730E+02 -.33660386E+02 -.33859991E+02 0.13471265E+03 0.12500000E+03 0.0000E+00 0.9000E+01
       23  1    1    2    0    0 -.66677434E+02 -.71739573E+01 -.59444194E+01 0.11334872E+03 0.91188000E+02 0.0000E+00 0.9000E+01
        1  1    1    2  501    0 0.51089704E+02 0.40834344E+02 0.63704048E+02 0.91301202E+02 0.32000000E+00 0.0000E+00 0.9000E+01
#aMCatNLO 1  0  0  5  1 0.82531167D+01 0.00000000D+00  -5  6  0 0.00000000D+00 0.00000000D+00 0.00000000D+00 0.00000000D+00 0.00000000D+00
  <mgrwgt>
 0.5650429222D-02    8    2    0
 0.169259981658326D+03 0.000000000000000D+00 0.000000000000000D+00 0.169259981658326D+03
 0.169259981658326D+03 -.000000000000000D+00 -.000000000000000D+00 -.169259981658326D+03
 0.137438553370286D+03 0.155875899043935D+02 -.336604984375668D+02 -.434551934574443D+02
 0.114050630023180D+03 -.666775505561741D+02 -.717405025127192D+01 -.139618093206223D+02
 0.870307799231866D+02 0.510899606517806D+02 0.408345486888387D+02 0.574170027780666D+02
 0.000000000000000D+00 0.000000000000000D+00 0.000000000000000D+00 0.000000000000000D+00
 0.169259981658326D+03 0.000000000000000D+00 0.000000000000000D+00 0.169259981658326D+03
 0.169259981658326D+03 -.000000000000000D+00 -.000000000000000D+00 -.169259981658326D+03
 0.136900800235121D+03 0.168524450862148D+02 -.326495407103051D+02 -.420336970898217D+02
 0.113252250321010D+03 -.656295593647252D+02 -.633642487856176D+01 -.127840336405638D+02
 0.789134579485832D+02 0.400928129925146D+02 0.363312394108115D+02 0.574451149761611D+02
 0.945345481193782D+01 0.868430128599582D+01 0.265472617805531D+01 -.262738424577556D+01
0.182514445239D-05 0.000000000000D+00 0.000000000000D+00 0.394520884088D-06 0.000000000000D+00  6 21 1 25 23 1 21 2 0.27943247D-01 0.24266380D-01 0.23867842D+05 0.23867842D+05 0.23867842D+05 0.12254614D+01  1  2  2  3  6  5        1 0.720755386662D-02 0.100000000000D+01
-.316302061628D-07 0.963155188719D-07 -.368444080194D-08 0.394520884088D-06 0.000000000000D+00  6 21 1 25 23 1 21 4 0.27943247D-01 0.24266380D-01 0.23867842D+05 0.23867842D+05 0.23867842D+05 0.12254614D+01  1  2  3  3  6  5        1 -.187582337736D-03 0.100000000000D+01
0.167622611300D-06 0.000000000000D+00 0.000000000000D+00 0.394520884088D-06 0.000000000000D+00  6 21 1 25 23 1 21 4 0.27943247D-01 0.24266380D-01 0.23867842D+05 0.23867842D+05 0.23867842D+05 0.12254614D+01  1  2 15  3  6  5        1 0.994082717108D-03 0.100000000000D+01
0.258570314481D-05 0.000000000000D+00 0.000000000000D+00 0.395106336670D-06 0.000000000000D+00  6 21 1 25 23 1 21 4 0.27943247D-01 0.24266380D-01 0.23409447D+05 0.23409447D+05 0.23409447D+05 0.12263703D+01  1  2 12  3  6  5        1 0.153798861568D-01 0.100000000000D+01
-.357516497654D-05 0.000000000000D+00 0.000000000000D+00 0.394520884088D-06 0.000000000000D+00  6 21 1 25 23 1 21 4 0.27943247D-01 0.24266380D-01 0.23867842D+05 0.23867842D+05 0.23867842D+05 0.12254614D+01  1  2  4  3  6  5        1 -.212024480852D-01 0.100000000000D+01
-.495290323000D-05 0.000000000000D+00 0.000000000000D+00 0.394520884088D-06 0.000000000000D+00  6 21 1 25 23 1 21 4 0.27943247D-01 0.24266380D-01 0.23867842D+05 0.23867842D+05 0.23867842D+05 0.12254614D+01  1  2  5  3  6  5        1 -.293730986665D-01 0.100000000000D+01
0.551992422151D-05 0.000000000000D+00 -.000000000000D+00 0.394520884088D-06 0.000000000000D+00  6 21 1 25 23 1 21 4 0.27943247D-01 0.24266380D-01 0.23867842D+05 0.23867842D+05 0.23867842D+05 0.12254614D+01  1  2  6  3  6  5        1 0.327358059023D-01 0.100000000000D+01
0.161783613645D-07 0.000000000000D+00 0.000000000000D+00 0.394520884088D-06 0.503552058109D-07  6 21 1 25 23 1 21 4 0.27943247D-01 0.24266380D-01 0.23409447D+05 0.23409447D+05 0.23409447D+05 0.12263703D+01  1  2 11  3  6  5        1 0.962296683165D-04 0.100000000000D+01
  </mgrwgt>
  </event>
  <event>
  6     66 0.44737074E-03 0.29003209E+02 0.75467711E-02 0.11921457E+00
       21 -1    0    0  501  502 0.00000000E+00 0.00000000E+00 0.11123489E+03 0.11123742E+03 0.75000000E+00 0.0000E+00 0.9000E+01
        1 -1    0    0  502    0 -.00000000E+00 -.00000000E+00 -.33451102E+03 0.33451117E+03 0.32000000E+00 0.0000E+00 0.9000E+01
       25  1    1    2    0    0 -.36966037E+02 0.33881439E+02 -.77226155E+02 0.15525244E+03 0.12500000E+03 0.0000E+00 0.9000E+01
       23  1    1    2    0    0 0.65355173E+02 -.54224714E+02 -.16232968E+03 0.20464065E+03 0.91188000E+02 0.0000E+00 0.9000E+01
        1  1    1    2  503    0 -.17427331E+02 0.33310814E+02 0.41146181E+02 0.55735382E+02 0.32000000E+00 0.0000E+00 0.9000E+01
       21  1    1    2  501  503 -.10961805E+02 -.12967539E+02 -.24866471E+02 0.30120129E+02 0.75000000E+00 0.0000E+00 0.9000E+01
#aMCatNLO 2  0  0  5  2 0.18226050D+02 0.00000000D+00  -5  6  0 0.00000000D+00 0.00000000D+00 0.00000000D+00 0.00000000D+00 0.00000000D+00
  <mgrwgt>
 0.1275173479D-01    1    2    0
 0.192898666283425D+03 0.000000000000000D+00 0.000000000000000D+00 0.192898666283425D+03
 0.192898666283425D+03 -.000000000000000D+00 -.000000000000000D+00 -.192898666283425D+03
 0.133189534525341D+03 -.327241234067078D+02 0.308417403939566D+02 -.961097829627224D+01
 0.151617804664672D+03 0.700125851972934D+02 -.575621528402891D+02 -.803588440790289D+02
 0.100989993376836D+03 -.372884617905856D+02 0.267204124463325D+02 0.899698223753011D+02
 0.000000000000000D+00 0.000000000000000D+00 0.000000000000000D+00 -.000000000000000D+00
 0.192898666283425D+03 0.000000000000000D+00 0.000000000000000D+00 0.192898666283425D+03
 0.192898666283425D+03 -.000000000000000D+00 -.000000000000000D+00 -.192898666283425D+03
 0.134697877822377D+03 -.369953824827957D+02 0.339024674579790D+02 0.694741005121564D+00
 0.142435331597676D+03 0.653241337463442D+02 -.542024713064266D+02 -.690465205343871D+02
 0.881167287357372D+02 -.172597173586709D+02 0.333652312178725D+02 0.797083520439621D+02
 0.205473944110600D+02 -.110690339048776D+02 -.130652273694249D+02 -.113565725146966D+02
0.220069374067D-05 0.000000000000D+00 0.000000000000D+00 0.675740267111D-06 0.229112652108D-07  6 21 1 25 23 1 21 4 0.17113267D-01 0.51463440D-01 0.24643641D+05 0.24643641D+05 0.24643641D+05 0.12239667D+01  1  2  1  3  6  5        1 0.127517347922D-01 0.100000000000D+01
  </mgrwgt>
  </event>
  <event>
  5     66 0.44737074E-03 0.56158226E+02 0.75467711E-02 0.12016633E+00
       21 -1    0    0  501  502 0.00000000E+00 0.00000000E+00 0.12511150E+03 0.12511375E+03 0.75000000E+00 0.0000E+00 0.9000E+01
        1 -1    0    0  502    0 0.00000000E+00 0.00000000E+00 -.97062815E+03 0.97062820E+03 0.32000000E+00 0.0000E+00 0.9000E+01
       25  1    1    2    0    0 0.18476423E+01 0.44032368E+02 -.46905849E+03 0.48742500E+03 0.12500000E+03 0.0000E+00 0.9000E+01
       23  1    1    2    0    0 0.29306360E+01 0.14163559E+02 -.48034839E+03 0.48914111E+03 0.91188000E+02 0.0000E+00 0.9000E+01
        1  1    1    2  501    0 -.47782782E+01 -.58195926E+02 0.10389024E+03 0.11917584E+03 0.32000000E+00 0.0000E+00 0.9000E+01
#aMCatNLO 1  0  0  1  2 0.15965839D+02 0.00000000D+00  -5  6  0 0.00000000D+00 0.00000000D+00 0.00000000D+00 0.00000000D+00 0.00000000D+00
  <mgrwgt>
 0.1158457794D+00   23    2    0
 0.348479564385456D+03 0.000000000000000D+00 0.000000000000000D+00 0.348479564385456D+03
 0.348479564385456D+03 0.000000000000000D+00 0.000000000000000D+00 -.348479564385456D+03
 0.197278833360466D+03 0.184764297506605D+01 0.440323762501819D+02 -.146122120670573D+03
 0.186280505604388D+03 0.293063661941800D+01 0.141635667401851D+02 -.161789926047414D+03
 0.313399789806058D+03 -.477827959448405D+01 -.581959429903670D+02 0.307912046717988D+03
 0.000000000000000D+00 -.000000000000000D+00 -.000000000000000D+00 0.000000000000000D+00
 0.422642914989614D+03 0.000000000000000D+00 0.000000000000000D+00 0.422642914989614D+03
 0.349431327640778D+03 0.000000000000000D+00 0.000000000000000D+00 -.349431327640778D+03
 0.197645873255884D+03 0.619971989254331D+01 0.452634569942416D+02 -.146122120670573D+03
 0.186482290652960D+03 0.703848891153063D+01 0.153255631736472D+02 -.161789926047414D+03
 0.313013812438374D+03 0.212480885110702D+01 -.562432524885561D+02 0.307912046717988D+03
 0.749322662831735D+02 -.153630176551810D+02 -.434576767933270D+01 0.732115873488363D+02
0.640093429762D-05 0.000000000000D+00 0.000000000000D+00 0.762446423307D-05 0.000000000000D+00  6 21 1 25 23 1 21 2 0.19248101D-01 0.14932758D+00 0.20059236D+05 0.20059236D+05 0.20059236D+05 0.12336847D+01  1  2  2  1  6  1       21 0.466243489588D-02 0.100000000000D+01
0.868539212672D-06 0.337786583048D-06 -.129216421560D-07 0.762446423307D-05 0.000000000000D+00  6 21 1 25 23 1 21 4 0.19248101D-01 0.14932758D+00 0.20059236D+05 0.20059236D+05 0.20059236D+05 0.12336847D+01  1  2  3  1  6  1       21 0.962868942418D-03 0.100000000000D+01
0.812923454230D-06 0.000000000000D+00 0.000000000000D+00 0.762446423307D-05 0.000000000000D+00  6 21 1 25 23 1 21 4 0.19248101D-01 0.14932758D+00 0.20059236D+05 0.20059236D+05 0.20059236D+05 0.12336847D+01  1  2 15  1  6  1       21 0.901212904634D-03 0.100000000000D+01
0.214163400552D-03 0.000000000000D+00 0.000000000000D+00 0.756473377486D-05 0.000000000000D+00  6 21 1 25 23 1 21 4 0.23367136D-01 0.14932758D+00 0.22211557D+05 0.22211557D+05 0.22211557D+05 0.12288428D+01  1  2 12  1  6  1       21 0.162222633838D+00 0.100000000000D+01
-.142761684343D-03 0.000000000000D+00 0.000000000000D+00 0.762446423307D-05 0.000000000000D+00  6 21 1 25 23 1 21 4 0.19248101D-01 0.14932758D+00 0.20059236D+05 0.20059236D+05 0.20059236D+05 0.12336847D+01  1  2  4  1  6  1       21 -.158266650504D+00 0.100000000000D+01
-.435664384133D-03 0.000000000000D+00 -.117359729744D-04 0.762446423307D-05 0.000000000000D+00  6 21 1 25 23 1 21 4 0.23378627D-01 0.14932758D+00 0.20059236D+05 0.20059236D+05 0.20059236D+05 0.12336847D+01  1  2  5  1  6  1       21 -.336165885979D+00 0.100000000000D+01
0.403784649319D-03 0.000000000000D+00 0.108942176488D-04 0.762446423307D-05 0.000000000000D+00  6 21 1 25 23 1 21 4 0.19248101D-01 0.14932758D+00 0.20059236D+05 0.20059236D+05 0.20059236D+05 0.12336847D+01  1  2  6  1  6  1       21 0.447638624235D+00 0.100000000000D+01
0.123407523163D-04 0.000000000000D+00 0.000000000000D+00 0.756473377486D-05 0.000000000000D+00  6 -1 1 25 23 1 -1 4 0.23367136D-01 0.14932758D+00 0.22211557D+05 0.22211557D+05 0.22211557D+05 0.12288428D+01  1  2 12  4  6  1       21 0.761119552841D-03 0.100000000000D+01
-.248800627253D-04 0.000000000000D+00 -.650701287576D-06 0.762446423307D-05 0.000000000000D+00  6 -1 1 25 23 1 -1 4 0.23378627D-01 0.14932758D+00 0.20059236D+05 0.20059236D+05 0.20059236D+05 0.12336847D+01  1  2  5  4  6  1       21 -.156036064534D-02 0.100000000000D+01
0.123407523163D-04 0.000000000000D+00 0.000000000000D+00 0.756473377486D-05 0.000000000000D+00  6 1 1 25 23 1 1 4 0.23367136D-01 0.14932758D+00 0.22211557D+05 0.22211557D+05 0.22211557D+05 0.12288428D+01  1  2 12  5  6  1       21 0.120934081369D-02 0.100000000000D+01
-.248800627253D-04 0.000000000000D+00 -.650701287576D-06 0.762446423307D-05 0.000000000000D+00  6 1 1 25 23 1 1 4 0.23378627D-01 0.14932758D+00 0.20059236D+05 0.20059236D+05 0.20059236D+05 0.12336847D+01  1  2  5  5  6  1       21 -.247981375335D-02 0.100000000000D+01
0.123407523163D-04 0.000000000000D+00 0.000000000000D+00 0.756473377486D-05 0.000000000000D+00  6 -2 1 25 23 1 -2 4 0.23367136D-01 0.14932758D+00 0.22211557D+05 0.22211557D+05 0.22211557D+05 0.12288428D+01  1  2 12  6  6  1       21 0.686228094911D-03 0.100000000000D+01
0.123407523163D-04 0.000000000000D+00 0.000000000000D+00 0.756473377486D-05 0.000000000000D+00  6 -4 1 25 23 1 -4 4 0.23367136D-01 0.14932758D+00 0.22211557D+05 0.22211557D+05 0.22211557D+05 0.12288428D+01  1  2 12  6  6  1       21 0.376851005823D-03 0.100000000000D+01
-.248800627253D-04 0.000000000000D+00 -.650701287576D-06 0.762446423307D-05 0.000000000000D+00  6 -2 1 25 23 1 -2 4 0.23378627D-01 0.14932758D+00 0.20059236D+05 0.20059236D+05 0.20059236D+05 0.12336847D+01  1  2  5  6  6  1       21 -.140658320528D-02 0.100000000000D+01
-.248800627253D-04 0.000000000000D+00 -.650701287576D-06 0.762446423307D-05 0.000000000000D+00  6 -4 1 25 23 1 -4 4 0.23378627D-01 0.14932758D+00 0.20059236D+05 0.20059236D+05 0.20059236D+05 0.12336847D+01  1  2  5  6  6  1       21 -.769763006484D-03 0.100000000000D+01
0.123407523163D-04 0.000000000000D+00 0.000000000000D+00 0.756473377486D-05 0.000000000000D+00  6 2 1 25 23 1 2 4 0.23367136D-01 0.14932758D+00 0.22211557D+05 0.22211557D+05 0.22211557D+05 0.12288428D+01  1  2 12  7  6  1       21 0.152819020690D-02 0.100000000000D+01
0.123407523163D-04 0.000000000000D+00 0.000000000000D+00 0.756473377486D-05 0.000000000000D+00  6 4 1 25 23 1 4 4 0.23367136D-01 0.14932758D+00 0.22211557D+05 0.22211557D+05 0.22211557D+05 0.12288428D+01  1  2 12  7  6  1       21 0.376851005823D-03 0.100000000000D+01
-.248800627253D-04 0.000000000000D+00 -.650701287576D-06 0.762446423307D-05 0.000000000000D+00  6 2 1 25 23 1 2 4 0.23378627D-01 0.14932758D+00 0.20059236D+05 0.20059236D+05 0.20059236D+05 0.12336847D+01  1  2  5  7  6  1       21 -.313335669661D-02 0.100000000000D+01
-.248800627253D-04 0.000000000000D+00 -.650701287576D-06 0.762446423307D-05 0.000000000000D+00  6 4 1 25 23 1 4 4 0.23378627D-01 0.14932758D+00 0.20059236D+05 0.20059236D+05 0.20059236D+05 0.12336847D+01  1  2  5  7  6  1       21 -.769763006484D-03 0.100000000000D+01
0.123407523163D-04 0.000000000000D+00 0.000000000000D+00 0.756473377486D-05 0.000000000000D+00  6 -3 1 25 23 1 -3 4 0.23367136D-01 0.14932758D+00 0.22211557D+05 0.22211557D+05 0.22211557D+05 0.12288428D+01  1  2 12  8  6  1       21 0.444248943373D-03 0.100000000000D+01
-.248800627253D-04 0.000000000000D+00 -.650701287576D-06 0.762446423307D-05 0.000000000000D+00  6 -3 1 25 23 1 -3 4 0.23378627D-01 0.14932758D+00 0.20059236D+05 0.20059236D+05 0.20059236D+05 0.12336847D+01  1  2  5  8  6  1       21 -.908463541952D-03 0.100000000000D+01
0.123407523163D-04 0.000000000000D+00 0.000000000000D+00 0.756473377486D-05 0.000000000000D+00  6 3 1 25 23 1 3 4 0.23367136D-01 0.14932758D+00 0.22211557D+05 0.22211557D+05 0.22211557D+05 0.12288428D+01  1  2 12  9  6  1       21 0.444221875498D-03 0.100000000000D+01
-.248800627253D-04 0.000000000000D+00 -.650701287576D-06 0.762446423307D-05 0.000000000000D+00  6 3 1 25 23 1 3 4 0.23378627D-01 0.14932758D+00 0.20059236D+05 0.20059236D+05 0.20059236D+05 0.12336847D+01  1  2  5  9  6  1       21 -.908406619974D-03 0.100000000000D+01
  </mgrwgt>
  </event>
  <event>
  5     66 -.44737074E-03 0.69645658E+02 0.75467711E-02 0.11902401E+00
       21 -1    0    0  501  502 0.00000000E+00 0.00000000E+00 0.28317962E+03 0.28318061E+03 0.75000000E+00 0.0000E+00 0.9000E+01
        1 -1    0    0  502    0 -.00000000E+00 -.00000000E+00 -.54161336E+03 0.54161346E+03 0.32000000E+00 0.0000E+00 0.9000E+01
       25  1    1    2    0    0 -.93701933E+01 -.81468430E+02 -.29383703E+03 0.32968182E+03 0.12500000E+03 0.0000E+00 0.9000E+01
       23  1    1    2    0    0 -.28340689E+02 0.22915848E+02 -.21437973E+03 0.23580129E+03 0.91188000E+02 0.0000E+00 0.9000E+01
        1  1    1    2  501    0 0.37710883E+02 0.58552582E+02 0.24978301E+03 0.25931095E+03 0.32000000E+00 0.0000E+00 0.9000E+01
#aMCatNLO 1  0  0  5  1 0.97865932D+01 0.00000000D+00  -5  6  0 0.00000000D+00 0.00000000D+00 0.00000000D+00 0.00000000D+00 0.00000000D+00
  <mgrwgt>
 -.1663107639D+00    8    2    0
 0.391630326024472D+03 0.000000000000000D+00 0.000000000000000D+00 0.391630326024472D+03
 0.391630326024472D+03 -.000000000000000D+00 -.000000000000000D+00 -.391630326024472D+03
 0.250213306080262D+03 -.937019818064404D+01 -.814684378940422D+02 -.200640951833804D+03
 0.177571248101717D+03 -.283406928933006D+02 0.229158430182401D+02 -.147945821412748D+03
 0.355476097866965D+03 0.377108910739448D+02 0.585525948758022D+02 0.348586773246552D+03
 0.000000000000000D+00 0.000000000000000D+00 0.000000000000000D+00 0.000000000000000D+00
 0.391630326024472D+03 0.000000000000000D+00 0.000000000000000D+00 0.391630326024472D+03
 0.391630326024472D+03 -.000000000000000D+00 -.000000000000000D+00 -.391630326024472D+03
 0.250067157906326D+03 -.935182483412393D+01 -.814399101376125D+02 -.200471114808086D+03
 0.177471372084324D+03 -.283276535652443D+02 0.229360888005961D+02 -.147825290256814D+03
 0.191557795502430D+03 0.250529828843962D+02 0.398464407809649D+02 0.185685212721514D+03
 0.164164326555864D+03 0.126264955149722D+02 0.186573805560516D+02 0.162611192343385D+03
0.265981563560D-05 0.000000000000D+00 0.000000000000D+00 0.541619270505D-05 0.000000000000D+00  6 21 1 25 23 1 21 2 0.43566178D-01 0.83325216D-01 0.25177161D+05 0.25177161D+05 0.25177161D+05 0.12229690D+01  1  2  2  3  6  5        1 0.917779563123D-03 0.100000000000D+01
0.330663542077D-06 0.140362327328D-06 -.536940144142D-08 0.541619270505D-05 0.000000000000D+00  6 21 1 25 23 1 21 4 0.43566178D-01 0.83325216D-01 0.25177161D+05 0.25177161D+05 0.25177161D+05 0.12229690D+01  1  2  3  3  6  5        1 0.170649118395D-03 0.100000000000D+01
0.284404797867D-06 0.000000000000D+00 0.000000000000D+00 0.541619270505D-05 0.000000000000D+00  6 21 1 25 23 1 21 4 0.43566178D-01 0.83325216D-01 0.25177161D+05 0.25177161D+05 0.25177161D+05 0.12229690D+01  1  2 15  3  6  5        1 0.146775866848D-03 0.100000000000D+01
0.111169667070D-03 0.000000000000D+00 0.000000000000D+00 0.541636181215D-05 0.000000000000D+00  6 21 1 25 23 1 21 4 0.43566178D-01 0.83325216D-01 0.25166831D+05 0.25166831D+05 0.25166831D+05 0.12229881D+01  1  2 12  3  6  5        1 0.573769690597D-01 0.100000000000D+01
-.502321131748D-03 0.000000000000D+00 0.000000000000D+00 0.541619270505D-05 0.000000000000D+00  6 21 1 25 23 1 21 4 0.43566178D-01 0.83325216D-01 0.25177161D+05 0.25177161D+05 0.25177161D+05 0.12229690D+01  1  2  4  3  6  5        1 -.259238311383D+00 0.100000000000D+01
-.120715461358D-03 0.000000000000D+00 0.000000000000D+00 0.541619270505D-05 0.000000000000D+00  6 21 1 25 23 1 21 4 0.43566178D-01 0.83325216D-01 0.25177161D+05 0.25177161D+05 0.25177161D+05 0.12229690D+01  1  2  5  3  6  5        1 -.622989366412D-01 0.100000000000D+01
0.187207607175D-03 0.000000000000D+00 -.000000000000D+00 0.541619270505D-05 0.000000000000D+00  6 21 1 25 23 1 21 4 0.43566178D-01 0.83325216D-01 0.25177161D+05 0.25177161D+05 0.25177161D+05 0.12229690D+01  1  2  6  3  6  5        1 0.966142590760D-01 0.100000000000D+01
0.996055766545D-10 0.000000000000D+00 0.000000000000D+00 0.541619270505D-05 0.556282804179D-06  6 21 1 25 23 1 21 4 0.43566178D-01 0.83325216D-01 0.25166831D+05 0.25166831D+05 0.25166831D+05 0.12229881D+01  1  2 11  3  6  5        1 0.514085023414D-07 0.100000000000D+01
  </mgrwgt>
  </event>
  <event>
  6     66 -.44737074E-03 0.12465941E+03 0.75467711E-02 0.11273867E+00
       21 -1    0    0  501  503 0.00000000E+00 0.00000000E+00 0.36149350E+02 0.36157130E+02 0.75000000E+00 0.0000E+00 0.9000E+01
        1 -1    0    0  502    0 0.00000000E+00 0.00000000E+00 -.18611459E+04 0.18611459E+04 0.32000000E+00 0.0000E+00 0.9000E+01
       25  1    1    2    0    0 -.10095826E+03 -.91711524E+02 -.67662958E+03 0.70146715E+03 0.12500000E+03 0.0000E+00 0.9000E+01
       23  1    1    2    0    0 -.29935708E+02 0.45278508E+02 -.17873194E+03 0.20786209E+03 0.91188000E+02 0.0000E+00 0.9000E+01
        1  1    1    2  501    0 0.13736542E+03 0.19126630E+02 -.92432469E+03 0.93467178E+03 0.32000000E+00 0.0000E+00 0.9000E+01
       21  1    1    2  502  503 -.64714546E+01 0.27306386E+02 -.45310307E+02 0.53302015E+02 0.75000000E+00 0.0000E+00 0.9000E+01
#aMCatNLO 2  0  0  1  2 0.28062759D+02 0.00000000D+00  -5  6  0 0.00000000D+00 0.00000000D+00 0.00000000D+00 0.00000000D+00 0.00000000D+00
  <mgrwgt>
 -.1056296720D-01    3    2    0
 0.240971573433073D+03 0.000000000000000D+00 0.000000000000000D+00 0.240971573433073D+03
 0.240971573433073D+03 0.000000000000000D+00 0.000000000000000D+00 -.240971573433073D+03
 0.181487935949123D+03 -.103416944490006D+03 -.813374965541486D+02 0.142061315201021D+01
 0.138276205898609D+03 -.317695216290161D+02 0.530159726122100D+02 0.835766828556822D+02
 0.162179005018414D+03 0.135186466119022D+03 0.283215239419387D+02 -.849972960076924D+02
 0.000000000000000D+00 -.000000000000000D+00 0.000000000000000D+00 0.000000000000000D+00
 0.271369266026095D+03 0.000000000000000D+00 0.000000000000000D+00 0.271369266026095D+03
 0.247944685699011D+03 0.000000000000000D+00 0.000000000000000D+00 -.247944685699011D+03
 0.185015176913249D+03 -.100958354464394D+03 -.917115489475291D+02 0.142061315201021D+01
 0.135079998533605D+03 -.299357832129699D+02 0.452784896623713D+02 0.835766828556822D+02
 0.162664304284497D+03 0.137365592276783D+03 0.191266729513743D+02 -.849972960076924D+02
 0.365544719937547D+02 -.647145459941866D+01 0.273063863337835D+02 0.234245803270843D+02
-.102125366590D-04 0.000000000000D+00 0.000000000000D+00 0.765773216917D-07 0.000000000000D+00  6 21 1 25 23 1 21 4 0.56273065D-02 0.27827382D+00 0.52414370D+05 0.52414370D+05 0.52414370D+05 0.11902588D+01  1  2 13  1  6  1       21 -.228308882587D-01 0.100000000000D+01
-.923128452196D-05 0.000000000000D+00 0.000000000000D+00 0.765773216917D-07 0.000000000000D+00  6 21 1 25 23 1 21 4 0.56965393D-02 0.27827382D+00 0.52414370D+05 0.52414370D+05 0.52414370D+05 0.11902588D+01  1  2 13  1  6  1       21 -.202094938607D-01 0.100000000000D+01
0.153944320446D-04 0.000000000000D+00 0.000000000000D+00 0.772817405530D-07 0.159728065530D-08  6 21 1 25 23 1 21 4 0.55619542D-02 0.28632637D+00 0.52414370D+05 0.52414370D+05 0.52414370D+05 0.11902588D+01  1  2  1  1  6  1       21 0.324774149200D-01 0.100000000000D+01
  </mgrwgt>
  </event>
  <event>
  6     66 0.44737074E-03 0.20251289E+02 0.75467711E-02 0.11002489E+00
       21 -1    0    0  501  502 0.00000000E+00 0.00000000E+00 0.61112373E+02 0.61116975E+02 0.75000000E+00 0.0000E+00 0.9000E+01
        1 -1    0    0  502    0 -.00000000E+00 -.00000000E+00 -.25473932E+04 0.25473932E+04 0.32000000E+00 0.0000E+00 0.9000E+01
       25  1    1    2    0    0 0.14570822E+03 -.14943301E+03 -.63735574E+03 0.68220851E+03 0.12500000E+03 0.0000E+00 0.9000E+01
       23  1    1    2    0    0 -.14404181E+03 0.15197889E+03 -.18351746E+04 0.18493314E+04 0.91188000E+02 0.0000E+00 0.9000E+01
        1  1    1    2  503    0 -.24054819E+02 -.28656821E+02 0.50662460E+01 0.37757343E+02 0.32000000E+00 0.0000E+00 0.9000E+01
       21  1    1    2  501  503 0.22388408E+02 0.26110942E+02 -.18816744E+02 0.39212937E+02 0.75000000E+00 0.0000E+00 0.9000E+01
#aMCatNLO 2  0  0  5  2 0.17393380D+02 0.00000000D+00  -5  6  0 0.00000000D+00 0.00000000D+00 0.00000000D+00 0.00000000D+00 0.00000000D+00
  <mgrwgt>
 0.3461525268D-01    1    2    0
 0.394567195150942D+03 0.000000000000000D+00 0.000000000000000D+00 0.394567195150942D+03
 0.394567195150942D+03 -.000000000000000D+00 -.000000000000000D+00 -.394567195150942D+03
 0.246245885288285D+03 0.145745624780684D+03 -.149375870522991D+03 0.381719554673069D+02
 0.335411658479883D+03 -.143991273483653D+03 0.152056101298216D+03 -.245624071537722D+03
 0.207476846533715D+03 -.175435129703102D+01 -.268023077522499D+01 0.207452116070415D+03
 0.000000000000000D+00 0.000000000000000D+00 0.000000000000000D+00 0.000000000000000D+00
 0.394567195150942D+03 0.000000000000000D+00 0.000000000000000D+00 0.394567195150942D+03
 0.394567195150942D+03 -.000000000000000D+00 -.000000000000000D+00 -.394567195150942D+03
 0.246983975405293D+03 0.145708158257036D+03 -.149433110444032D+03 0.426023734945203D+02
 0.331039409341071D+03 -.144041898165332D+03 0.151978758846877D+03 -.239637700759243D+03
 0.140512415322159D+03 -.240998911714576D+02 -.287089022763253D+02 0.135420578330175D+03
 0.705985902333603D+02 0.224336310797530D+02 0.261632538734805D+02 0.616147489345471D+02
0.122807515705D-03 0.000000000000D+00 0.000000000000D+00 0.834874368492D-04 0.314490925717D-08  6 21 1 25 23 1 21 4 0.94022591D-02 0.39190700D+00 0.73879902D+05 0.73879902D+05 0.73879902D+05 0.11758459D+01  1  2  1  3  6  5        1 0.346152526842D-01 0.100000000000D+01
  </mgrwgt>
  </event>
  <event>
  6     66 0.44737074E-03 0.53666489E+02 0.75467711E-02 0.11303413E+00
       21 -1    0    0  503  502 0.00000000E+00 0.00000000E+00 0.50296292E+02 0.50301884E+02 0.75000000E+00 0.0000E+00 0.9000E+01
        1 -1    0    0  502    0 0.00000000E+00 0.00000000E+00 -.21523459E+04 0.21523460E+04 0.32000000E+00 0.0000E+00 0.9000E+01
       25  1    1    2    0    0 -.78928387E+01 0.35150277E+01 -.70955996E+03 0.72053799E+03 0.12500000E+03 0.0000E+00 0.9000E+01
       23  1    1    2    0    0 -.35708777E+02 -.59528573E+02 -.11213217E+04 0.11271630E+04 0.91188000E+02 0.0000E+00 0.9000E+01
        1  1    1    2  501    0 -.57538256E+02 0.86686843E+02 -.20598695E+03 0.23077258E+03 0.32000000E+00 0.0000E+00 0.9000E+01
       21  1    1    2  503  501 0.10113987E+03 -.30673298E+02 -.65181018E+02 0.12417428E+03 0.75000000E+00 0.0000E+00 0.9000E+01
#aMCatNLO 2  0  0  1  2 0.65026549D+00 0.00000000D+00  -5  6  0 0.00000000D+00 0.00000000D+00 0.00000000D+00 0.00000000D+00 0.00000000D+00
  <mgrwgt>
 0.1447552085D-01    1    2    0
 0.200030261111754D+03 0.000000000000000D+00 0.000000000000000D+00 0.200030261111754D+03
 0.200030261111754D+03 0.000000000000000D+00 0.000000000000000D+00 -.200030261111754D+03
 0.128562156258208D+03 0.238032156328300D+02 -.609769397941290D+01 -.173047125208777D+02
 0.142498073830294D+03 -.342285964215618D+00 -.702544571209753D+02 -.839919269709876D+02
 0.129000292135007D+03 -.234609296686143D+02 0.763521511003882D+02 0.101296639491865D+03
 0.000000000000000D+00 0.000000000000000D+00 -.000000000000000D+00 0.000000000000000D+00
 0.500253191816734D+03 0.000000000000000D+00 0.000000000000000D+00 0.500253191816734D+03
 0.216411929164670D+03 0.000000000000000D+00 0.000000000000000D+00 -.216411929164670D+03
 0.126487566865308D+03 -.789281944923835D+01 0.351495337342619D+01 -.173047125208777D+02
 0.142086846217541D+03 -.357087764633857D+02 -.595286486595761D+02 -.839919269709876D+02
 0.145211215187254D+03 -.575382752526521D+02 0.866869928233994D+02 0.101296639491865D+03
 0.302879492711301D+03 0.101139871165276D+03 -.306732975372495D+02 0.283841262652064D+03
0.185992336277D-04 0.000000000000D+00 0.000000000000D+00 0.448632794865D-06 0.227157865810D-08  6 21 1 25 23 1 21 4 0.77383071D-02 0.33112989D+00 0.50543019D+05 0.50543019D+05 0.50543019D+05 0.11918174D+01  1  2  1  1  6  1       21 0.144755208491D-01 0.100000000000D+01
  </mgrwgt>
  </event>
  <event>
  5     66 0.44737074E-03 0.25210721E+03 0.75467711E-02 0.11153590E+00
       21 -1    0    0  501  502 0.00000000E+00 0.00000000E+00 0.15130007E+03 0.15130193E+03 0.75000000E+00 0.0000E+00 0.9000E+01
        1 -1    0    0  502    0 -.00000000E+00 -.00000000E+00 -.64522038E+03 0.64522046E+03 0.32000000E+00 0.0000E+00 0.9000E+01
       25  1    1    2    0    0 -.50471060E+02 0.35263135E+02 -.48817750E+02 0.14764481E+03 0.12500000E+03 0.0000E+00 0.9000E+01
       23  1    1    2    0    0 -.20004337E+03 -.69698807E+01 -.21356685E+03 0.30658111E+03 0.91188000E+02 0.0000E+00 0.9000E+01
        1  1    1    2  501    0 0.25051443E+03 -.28293255E+02 -.23153571E+03 0.34229647E+03 0.32000000E+00 0.0000E+00 0.9000E+01
#aMCatNLO 1  0  0  5  5 0.11944565D+03 0.00000000D+00  -5  6  0 0.00000000D+00 0.00000000D+00 0.00000000D+00 0.00000000D+00 0.00000000D+00
  <mgrwgt>
 0.2134538932D-01    4    2    0
 0.312446252456747D+03 0.000000000000000D+00 0.000000000000000D+00 0.312446252456747D+03
 0.312446252456747D+03 -.000000000000000D+00 -.000000000000000D+00 -.312446252456747D+03
 0.149610257903739D+03 -.504711078670908D+02 0.352631407269870D+02 0.544739152875994D+02
 0.221980184228441D+03 -.200043436023889D+03 -.696987268245226D+01 -.298997562638754D+02
 0.253302062781314D+03 0.250514543890980D+03 -.282932680445347D+02 -.245741590237239D+02
 0.000000000000000D+00 0.000000000000000D+00 0.000000000000000D+00 0.000000000000000D+00
 0.312446252456747D+03 0.000000000000000D+00 0.000000000000000D+00 0.312446252456747D+03
 0.312446252456747D+03 -.000000000000000D+00 -.000000000000000D+00 -.312446252456747D+03
 0.140006223328240D+03 -.184457771608405D+02 0.316461800036163D+02 0.513323988018131D+02
 0.183632611865632D+03 -.155191416973237D+03 -.120354875470764D+02 -.342995034065622D+02
 0.169804390778240D+03 0.111075152925118D+03 0.138712634302089D+02 -.127684883917716D+03
 0.131449278941383D+03 0.625620412089595D+02 -.334819558867488D+02 0.110651988522465D+03
0.353442033141D-04 0.000000000000D+00 0.000000000000D+00 0.746778400472D-07 0.000000000000D+00  6 21 1 25 23 1 21 2 0.23277083D-01 0.99264823D-01 0.93454068D+05 0.93454068D+05 0.93454068D+05 0.11662823D+01  1  2  2  3  6  5        1 0.285709622473D-01 0.100000000000D+01
-.383622377301D-05 0.186516485140D-05 -.713497633748D-07 0.746778400472D-07 0.000000000000D+00  6 21 1 25 23 1 21 4 0.23277083D-01 0.99264823D-01 0.93454068D+05 0.93454068D+05 0.93454068D+05 0.11662823D+01  1  2  3  3  6  5        1 -.421811046965D-02 0.100000000000D+01
0.295966684124D-05 0.000000000000D+00 0.000000000000D+00 0.746778400472D-07 0.000000000000D+00  6 21 1 25 23 1 21 4 0.23277083D-01 0.99264823D-01 0.93454068D+05 0.93454068D+05 0.93454068D+05 0.11662823D+01  1  2 15  3  6  5        1 0.325429443860D-02 0.100000000000D+01
-.569484864310D-05 0.000000000000D+00 0.000000000000D+00 0.746778400472D-07 0.000000000000D+00  6 21 1 25 23 1 21 4 0.23277083D-01 0.99264823D-01 0.93454068D+05 0.93454068D+05 0.93454068D+05 0.11662823D+01  1  2  4  3  6  5        1 -.626175690102D-02 0.100000000000D+01
  </mgrwgt>
  </event>
  <event>
  5     66 -.44737074E-03 0.20116151E+02 0.75467711E-02 0.11841513E+00
       21 -1    0    0  501  502 0.00000000E+00 0.00000000E+00 0.53528989E+02 0.53534243E+02 0.75000000E+00 0.0000E+00 0.9000E+01
        1 -1    0    0  502    0 -.00000000E+00 -.00000000E+00 -.82746326E+03 0.82746332E+03 0.32000000E+00 0.0000E+00 0.9000E+01
       25  1    1    2    0    0 -.90725448E+02 0.45400528E+02 -.10672640E+03 0.19315237E+03 0.12500000E+03 0.0000E+00 0.9000E+01
       23  1    1    2    0    0 0.10917724E+03 -.37392541E+02 -.59088658E+03 0.60891713E+03 0.91188000E+02 0.0000E+00 0.9000E+01
        1  1    1    2  501    0 -.18451792E+02 -.80079864E+01 -.76321291E+02 0.78928058E+02 0.32000000E+00 0.0000E+00 0.9000E+01
#aMCatNLO 1  0  0  5  5 0.55238890D+00 0.00000000D+00  -5  6  0 0.00000000D+00 0.00000000D+00 0.00000000D+00 0.00000000D+00 0.00000000D+00
  <mgrwgt>
 -.2254429875D+01    6    2    0
 0.210465229948196D+03 0.000000000000000D+00 0.000000000000000D+00 0.210465229948196D+03
 0.210465229948196D+03 -.000000000000000D+00 -.000000000000000D+00 -.210465229948196D+03
 0.208033420284154D+03 -.907246929701459D+02 0.454008553445519D+02 0.131759995349799D+03
 0.188029005844585D+03 0.109177922683123D+03 -.373922450548717D+02 -.117139476280447D+03
 0.248680337676534D+02 -.184532297129768D+02 -.800861028968024D+01 -.146205190693520D+02
 0.000000000000000D+00 0.000000000000000D+00 0.000000000000000D+00 -.000000000000000D+00
 0.210465229948196D+03 0.000000000000000D+00 0.000000000000000D+00 0.210465229948196D+03
 0.210465229948196D+03 -.000000000000000D+00 -.000000000000000D+00 -.210465229948196D+03
 0.208009332399254D+03 -.908754580680541D+02 0.453354240388557D+02 0.131640543957103D+03
 0.188028993985915D+03 0.109041647214321D+03 -.374513879333083D+02 -.117247447520241D+03
 0.243127732762221D+02 -.180516544822414D+02 -.830379966577389D+01 -.140105540913073D+02
 0.579360235000786D+00 -.114534664025278D+00 0.419763560226509D+00 -.382542345555037D+00
0.929396203604D-05 0.000000000000D+00 0.000000000000D+00 0.970684116779D-07 0.000000000000D+00  6 21 1 25 23 1 21 2 0.82356379D-02 0.12730245D+00 0.26926649D+05 0.26926649D+05 0.26926649D+05 0.12198559D+01  1  2  2  3  6  5        1 0.387274144182D-01 0.100000000000D+01
0.425776010182D-06 0.490455851156D-06 -.187618316416D-07 0.970684116779D-07 0.000000000000D+00  6 21 1 25 23 1 21 4 0.82356379D-02 0.12730245D+00 0.26926649D+05 0.26926649D+05 0.26926649D+05 0.12198559D+01  1  2  3  3  6  5        1 0.264007249966D-02 0.100000000000D+01
0.854998711694D-06 0.000000000000D+00 0.000000000000D+00 0.970684116779D-07 0.000000000000D+00  6 21 1 25 23 1 21 4 0.82356379D-02 0.12730245D+00 0.26926649D+05 0.26926649D+05 0.26926649D+05 0.12198559D+01  1  2 15  3  6  5        1 0.530151660030D-02 0.100000000000D+01
-.377356839742D-03 0.000000000000D+00 0.000000000000D+00 0.970684116779D-07 0.000000000000D+00  6 21 1 25 23 1 21 4 0.82356379D-02 0.12730245D+00 0.26926649D+05 0.26926649D+05 0.26926649D+05 0.12198559D+01  1  2  4  3  6  5        1 -.233984393517D+01 0.100000000000D+01
-.107791103376D-03 0.000000000000D+00 0.000000000000D+00 0.970684116779D-07 0.000000000000D+00  6 21 1 25 23 1 21 4 0.82356379D-02 0.12730245D+00 0.26926649D+05 0.26926649D+05 0.26926649D+05 0.12198559D+01  1  2  5  3  6  5        1 -.668370976585D+00 0.100000000000D+01
0.114039687728D-03 0.000000000000D+00 -.000000000000D+00 0.970684116779D-07 0.000000000000D+00  6 21 1 25 23 1 21 4 0.82356379D-02 0.12730245D+00 0.26926649D+05 0.26926649D+05 0.26926649D+05 0.12198559D+01  1  2  6  3  6  5        1 0.707116033412D+00 0.100000000000D+01
  </mgrwgt>
  </event>
  <event>
  5     66 0.44737074E-03 0.10813985E+03 0.75467711E-02 0.11439397E+00
       21 -1    0    0  501  502 0.00000000E+00 0.00000000E+00 0.39943225E+02 0.39950266E+02 0.75000000E+00 0.0000E+00 0.9000E+01
        1 -1    0    0  502    0 -.00000000E+00 -.00000000E+00 -.10999572E+04 0.10999573E+04 0.32000000E+00 0.0000E+00 0.9000E+01
       25  1    1    2    0    0 -.44672285E+02 -.77154462E+02 -.43675385E+03 0.46295502E+03 0.12500000E+03 0.0000E+00 0.9000E+01
       23  1    1    2    0    0 0.12552707E+03 0.53446058E+01 -.34056752E+03 0.37428211E+03 0.91188000E+02 0.0000E+00 0.9000E+01
        1  1    1    2  501    0 -.80854786E+02 0.71809857E+02 -.28269265E+03 0.30267043E+03 0.32000000E+00 0.0000E+00 0.9000E+01
#aMCatNLO 1  0  0  5  1 0.46566061D+01 0.00000000D+00  -5  6  0 0.00000000D+00 0.00000000D+00 0.00000000D+00 0.00000000D+00 0.00000000D+00
  <mgrwgt>
 0.4854130197D-02    8    2    0
 0.209618413638183D+03 0.000000000000000D+00 0.000000000000000D+00 0.209618413638183D+03
 0.209618413638183D+03 -.000000000000000D+00 -.000000000000000D+00 -.209618413638183D+03
 0.154472900974048D+03 -.446721546664879D+02 -.771545780896869D+02 -.169837219888299D+02
 0.156571889699960D+03 0.125527203250207D+03 0.534448848206109D+01 0.203436227664277D+02
 0.108192036602359D+03 -.808550485837192D+02 0.718100896076259D+02 -.335990077759782D+01
 0.000000000000000D+00 0.000000000000000D+00 0.000000000000000D+00 0.000000000000000D+00
 0.209618413638183D+03 0.000000000000000D+00 0.000000000000000D+00 0.209618413638183D+03
 0.209618413638183D+03 -.000000000000000D+00 -.000000000000000D+00 -.209618413638183D+03
 0.154352853561755D+03 -.454995094895518D+02 -.764197764289100D+02 -.170181024036841D+02
 0.155924225314806D+03 0.124690015405123D+03 0.608802318059797D+01 0.203088337440851D+02
 0.519615937371520D+01 -.213320148139286D+01 0.853858066176861D+00 -.466052036575945D+01
 0.103763589026091D+03 -.770573044341786D+02 0.694778951821352D+02 0.136978902535842D+01
0.363732334661D-05 0.000000000000D+00 0.000000000000D+00 0.888691727622D-07 0.000000000000D+00  6 21 1 25 23 1 21 2 0.61456567D-02 0.16922474D+00 0.43455758D+05 0.43455758D+05 0.43455758D+05 0.11983628D+01  1  2  2  3  6  5        1 0.149845574982D-01 0.100000000000D+01
-.286187454500D-06 0.191946826442D-06 -.734270787749D-08 0.888691727622D-07 0.000000000000D+00  6 21 1 25 23 1 21 4 0.61456567D-02 0.16922474D+00 0.43455758D+05 0.43455758D+05 0.43455758D+05 0.11983628D+01  1  2  3  3  6  5        1 -.169312594167D-02 0.100000000000D+01
0.383813332932D-06 0.000000000000D+00 0.000000000000D+00 0.888691727622D-07 0.000000000000D+00  6 21 1 25 23 1 21 4 0.61456567D-02 0.16922474D+00 0.43455758D+05 0.43455758D+05 0.43455758D+05 0.11983628D+01  1  2 15  3  6  5        1 0.227069461127D-02 0.100000000000D+01
0.200786336478D-06 0.000000000000D+00 0.000000000000D+00 0.889585023138D-07 0.000000000000D+00  6 21 1 25 23 1 21 4 0.61456567D-02 0.16922474D+00 0.42861439D+05 0.42861439D+05 0.42861439D+05 0.11989650D+01  1  2 12  3  6  5        1 0.119058269953D-02 0.100000000000D+01
-.373137275961D-05 0.000000000000D+00 0.000000000000D+00 0.888691727622D-07 0.000000000000D+00  6 21 1 25 23 1 21 4 0.61456567D-02 0.16922474D+00 0.43455758D+05 0.43455758D+05 0.43455758D+05 0.11983628D+01  1  2  4  3  6  5        1 -.220753353021D-01 0.100000000000D+01
-.633789262546D-06 0.000000000000D+00 0.000000000000D+00 0.888691727622D-07 0.000000000000D+00  6 21 1 25 23 1 21 4 0.61456567D-02 0.16922474D+00 0.43455758D+05 0.43455758D+05 0.43455758D+05 0.11983628D+01  1  2  5  3  6  5        1 -.374958798891D-02 0.100000000000D+01
0.126545840580D-05 0.000000000000D+00 -.000000000000D+00 0.888691727622D-07 0.000000000000D+00  6 21 1 25 23 1 21 4 0.61456567D-02 0.16922474D+00 0.43455758D+05 0.43455758D+05 0.43455758D+05 0.11983628D+01  1  2  6  3  6  5        1 0.748663304863D-02 0.100000000000D+01
0.108602795506D-05 0.000000000000D+00 0.000000000000D+00 0.888691727622D-07 0.117574532477D-08  6 21 1 25 23 1 21 4 0.61456567D-02 0.16922474D+00 0.42861439D+05 0.42861439D+05 0.42861439D+05 0.11989650D+01  1  2 11  3  6  5        1 0.643971157196D-02 0.100000000000D+01
  </mgrwgt>
  </event>
  <event>
  5     66 -.44737074E-03 0.31546862E+02 0.75467711E-02 0.12045925E+00
       21 -1    0    0  501  502 0.00000000E+00 0.00000000E+00 0.15060407E+02 0.15079071E+02 0.75000000E+00 0.0000E+00 0.9000E+01
        1 -1    0    0  502    0 -.00000000E+00 -.00000000E+00 -.17945522E+04 0.17945522E+04 0.32000000E+00 0.0000E+00 0.9000E+01
       25  1    1    2    0    0 0.87951388E+02 -.82211014E+01 -.10409555E+04 0.10521484E+04 0.12500000E+03 0.0000E+00 0.9000E+01
       23  1    1    2    0    0 -.59168467E+02 -.46911469E+01 -.69638188E+03 0.70483039E+03 0.91188000E+02 0.0000E+00 0.9000E+01
        1  1    1    2  501    0 -.28782921E+02 0.12912248E+02 -.42154422E+02 0.52652449E+02 0.32000000E+00 0.0000E+00 0.9000E+01
#aMCatNLO 1  0  0  5  1 0.78613267D+00 0.00000000D+00  -5  6  0 0.00000000D+00 0.00000000D+00 0.00000000D+00 0.00000000D+00 0.00000000D+00
  <mgrwgt>
 -.5327458758D-01    8    2    0
 0.164449382284155D+03 0.000000000000000D+00 0.000000000000000D+00 0.164449382284155D+03
 0.164449382284155D+03 -.000000000000000D+00 -.000000000000000D+00 -.164449382284155D+03
 0.156975595255253D+03 0.879515733205668D+02 -.822118444964434D+01 -.348320309833185D+02
 0.110299281641127D+03 -.591683369014959D+02 -.469120531379185D+01 -.181047145120700D+02
 0.616238876719294D+02 -.287832364190709D+02 0.129123897634362D+02 0.529367454953886D+02
 0.000000000000000D+00 0.000000000000000D+00 0.000000000000000D+00 0.000000000000000D+00
 0.164449382284155D+03 0.000000000000000D+00 0.000000000000000D+00 0.164449382284155D+03
 0.164449382284155D+03 -.000000000000000D+00 -.000000000000000D+00 -.164449382284155D+03
 0.156962498053191D+03 0.879383668912537D+02 -.821525993996826D+01 -.348077423530453D+02
 0.110301283000875D+03 -.591776169023160D+02 -.468704223130002D+01 -.180876471804309D+02
 0.558545353379387D+02 -.266127944476882D+02 0.121345539086694D+02 0.475840402965084D+02
 0.578044817630491D+01 -.214795554124954D+01 0.767748262598907D+00 0.531134923696781D+01
0.144198231205D-06 0.000000000000D+00 0.000000000000D+00 0.923464979963D-06 0.000000000000D+00  6 21 1 25 23 1 21 2 0.23184236D-02 0.27608639D+00 0.21522713D+05 0.21522713D+05 0.21522713D+05 0.12303331D+01  1  2  2  3  6  5        1 0.111384212762D-02 0.100000000000D+01
0.113902586012D-07 0.760954972124D-08 -.291094683450D-09 0.923464979963D-06 0.000000000000D+00  6 21 1 25 23 1 21 4 0.23184236D-02 0.27608639D+00 0.21522713D+05 0.21522713D+05 0.21522713D+05 0.12303331D+01  1  2  3  3  6  5        1 0.133181137079D-03 0.100000000000D+01
0.153299806890D-07 0.000000000000D+00 0.000000000000D+00 0.923464979963D-06 0.000000000000D+00  6 21 1 25 23 1 21 4 0.23184236D-02 0.27608639D+00 0.21522713D+05 0.21522713D+05 0.21522713D+05 0.12303331D+01  1  2 15  3  6  5        1 0.179246523808D-03 0.100000000000D+01
0.516319799598D-11 0.000000000000D+00 0.000000000000D+00 0.923474742283D-06 0.000000000000D+00  6 21 1 25 23 1 21 4 0.23184236D-02 0.27608639D+00 0.21519760D+05 0.21519760D+05 0.21519760D+05 0.12303396D+01  1  2 12  3  6  5        1 0.603723056755D-07 0.100000000000D+01
-.588067546971D-04 0.000000000000D+00 0.000000000000D+00 0.923464979963D-06 0.000000000000D+00  6 21 1 25 23 1 21 4 0.23184236D-02 0.27608639D+00 0.21522713D+05 0.21522713D+05 0.21522713D+05 0.12303331D+01  1  2  4  3  6  5        1 -.687600758916D+00 0.100000000000D+01
-.246670304254D-04 0.000000000000D+00 0.000000000000D+00 0.923464979963D-06 0.000000000000D+00  6 21 1 25 23 1 21 4 0.23184236D-02 0.27608639D+00 0.21522713D+05 0.21522713D+05 0.21522713D+05 0.12303331D+01  1  2  5  3  6  5        1 -.288420419186D+00 0.100000000000D+01
0.278216824380D-04 0.000000000000D+00 -.000000000000D+00 0.923464979963D-06 0.000000000000D+00  6 21 1 25 23 1 21 4 0.23184236D-02 0.27608639D+00 0.21522713D+05 0.21522713D+05 0.21522713D+05 0.12303331D+01  1  2  6  3  6  5        1 0.325306336955D+00 0.100000000000D+01
0.509726746477D-04 0.000000000000D+00 0.000000000000D+00 0.923464979963D-06 0.207020604032D-04  6 21 1 25 23 1 21 4 0.23184236D-02 0.27608639D+00 0.21519760D+05 0.21519760D+05 0.21519760D+05 0.12303396D+01  1  2 11  3  6  5        1 0.596013923410D+00 0.100000000000D+01
  </mgrwgt>
  </event>
  <event>
  5     66 0.44737074E-03 0.50435768E+02 0.75467711E-02 0.11893703E+00
       21 -1    0    0  501  502 0.00000000E+00 0.00000000E+00 0.77804920E+02 0.77808535E+02 0.75000000E+00 0.0000E+00 0.9000E+01
        1 -1    0    0  502    0 -.00000000E+00 -.00000000E+00 -.76709837E+03 0.76709844E+03 0.32000000E+00 0.0000E+00 0.9000E+01
       25  1    1    2    0    0 -.14899783E+02 -.77131712E+02 -.58558791E+03 0.60391184E+03 0.12500000E+03 0.0000E+00 0.9000E+01
       23  1    1    2    0    0 -.34238792E+02 0.65766884E+02 -.13704260E+03 0.18053671E+03 0.91188000E+02 0.0000E+00 0.9000E+01
        1  1    1    2  501    0 0.49138575E+02 0.11364827E+02 0.33337064E+02 0.60458424E+02 0.32000000E+00 0.0000E+00 0.9000E+01
#aMCatNLO 1  0  0  5  1 0.16441455D+02 0.00000000D+00  -5  6  0 0.00000000D+00 0.00000000D+00 0.00000000D+00 0.00000000D+00 0.00000000D+00
  <mgrwgt>
 0.7119932490D-01    4    2    0
 0.244306329881529D+03 0.000000000000000D+00 0.000000000000000D+00 0.244306329881529D+03
 0.244306329881529D+03 -.000000000000000D+00 -.000000000000000D+00 -.244306329881529D+03
 0.218183999841732D+03 -.148998316746589D+02 -.771317228271995D+02 -.160648529830534D+03
 0.118855198184589D+03 -.342388186862623D+02 0.657668781855811D+02 0.177123634840245D+02
 0.151573461736737D+03 0.491386503609213D+02 0.113648446416184D+02 0.142936166346509D+03
 0.000000000000000D+00 0.000000000000000D+00 0.000000000000000D+00 -.000000000000000D+00
 0.244306329881529D+03 0.000000000000000D+00 0.000000000000000D+00 0.244306329881529D+03
 0.244306329881529D+03 -.000000000000000D+00 -.000000000000000D+00 -.244306329881529D+03
 0.184724320438749D+03 0.979223482845965D+00 -.734591963415260D+02 -.114458997705664D+03
 0.125020629089863D+03 -.246274070624534D+02 0.679898167296585D+02 0.456703623422531D+02
 0.125159606153800D+03 0.379503227429447D+02 -.684888395082842D+01 0.119070537098431D+03
 0.537081040806473D+02 -.143021391633372D+02 0.123182635626960D+02 -.502819017350193D+02
0.261473273356D-04 0.000000000000D+00 0.000000000000D+00 0.707861276345D-06 0.000000000000D+00  6 21 1 25 23 1 21 2 0.11970271D-01 0.11801542D+00 0.24900760D+05 0.24900760D+05 0.24900760D+05 0.12234829D+01  1  2  2  3  6  5        1 0.637582150660D-01 0.100000000000D+01
0.196661789610D-05 0.137983237225D-05 -.527839205116D-07 0.707861276345D-06 0.000000000000D+00  6 21 1 25 23 1 21 4 0.11970271D-01 0.11801542D+00 0.24900760D+05 0.24900760D+05 0.24900760D+05 0.12234829D+01  1  2  3  3  6  5        1 0.717835002233D-02 0.100000000000D+01
0.251846937580D-05 0.000000000000D+00 0.000000000000D+00 0.707861276345D-06 0.000000000000D+00  6 21 1 25 23 1 21 4 0.11970271D-01 0.11801542D+00 0.24900760D+05 0.24900760D+05 0.24900760D+05 0.12234829D+01  1  2 15  3  6  5        1 0.919266255835D-02 0.100000000000D+01
-.244648233821D-05 0.000000000000D+00 0.000000000000D+00 0.707861276345D-06 0.000000000000D+00  6 21 1 25 23 1 21 4 0.11970271D-01 0.11801542D+00 0.24900760D+05 0.24900760D+05 0.24900760D+05 0.12234829D+01  1  2  4  3  6  5        1 -.892990274420D-02 0.100000000000D+01
  </mgrwgt>
  </event>
  <event>
  6     66 0.44737074E-03 0.37257851E+02 0.75467711E-02 0.12117727E+00
       21 -1    0    0  501  502 0.00000000E+00 0.00000000E+00 0.34736709E+02 0.34744804E+02 0.75000000E+00 0.0000E+00 0.9000E+01
        1 -1    0    0  502    0 -.00000000E+00 -.00000000E+00 -.86861178E+03 0.86861184E+03 0.32000000E+00 0.0000E+00 0.9000E+01
       25  1    1    2    0    0 -.26382024E+01 0.34348680E+02 -.14728554E+03 0.19622646E+03 0.12500000E+03 0.0000E+00 0.9000E+01
       23  1    1    2    0    0 0.38897514E+02 -.21553246E+02 -.29238772E+03 0.30948892E+03 0.91188000E+02 0.0000E+00 0.9000E+01
        1  1    1    2  503    0 0.54307750E+01 -.81350181E+01 -.56249226E+02 0.57094217E+02 0.32000000E+00 0.0000E+00 0.9000E+01
       21  1    1    2  501  503 -.41690087E+02 -.46604163E+01 -.33795259E+03 0.34054705E+03 0.75000000E+00 0.0000E+00 0.9000E+01
#aMCatNLO 2  0  0  5  1 0.10918440D+02 0.00000000D+00  -5  6  0 0.00000000D+00 0.00000000D+00 0.00000000D+00 0.00000000D+00 0.00000000D+00
  <mgrwgt>
 0.3077361148D-01    2    2    0
 0.173713550390212D+03 0.000000000000000D+00 0.000000000000000D+00 0.173713550390212D+03
 0.173713550390212D+03 -.000000000000000D+00 -.000000000000000D+00 -.173713550390212D+03
 0.158501903745993D+03 -.110662427672833D+01 0.348891542386757D+02 0.909910753333762D+02
 0.102937966529663D+03 0.398978548291078D+02 -.212002389073893D+02 -.154817524707978D+02
 0.859872305047679D+02 -.387912305523795D+02 -.136889153312864D+02 -.755093228625784D+02
 0.000000000000000D+00 -.000000000000000D+00 0.000000000000000D+00 0.000000000000000D+00
 0.173713550390212D+03 0.000000000000000D+00 0.000000000000000D+00 0.173713550390212D+03
 0.173713550390212D+03 -.000000000000000D+00 -.000000000000000D+00 -.173713550390212D+03
 0.156804389252495D+03 -.255504212067174D+01 0.343780266217445D+02 0.881716481313811D+02
 0.102938361719505D+03 0.389521237920077D+02 -.215339749582617D+02 -.173226713899625D+02
 0.127087760210868D+02 0.518794184067130D+01 -.770334606220406D+01 -.867506235469741D+01
 0.749755737873380D+02 -.415850235120073D+02 -.514070560127870D+01 -.621739143867213D+02
-.636498511742D-06 0.000000000000D+00 0.000000000000D+00 0.120201387113D-06 0.000000000000D+00  6 21 1 25 23 1 21 4 0.53447363D-02 0.13363321D+00 0.19926956D+05 0.19926956D+05 0.19926956D+05 0.12340010D+01  1  2 13  3  6  5        1 -.804807102678D-02 0.100000000000D+01
0.307029386975D-05 0.000000000000D+00 0.000000000000D+00 0.120852497964D-06 0.289893786842D-08  6 21 1 25 23 1 21 4 0.53447363D-02 0.13363321D+00 0.19926956D+05 0.19926956D+05 0.19926956D+05 0.12340010D+01  1  2  1  3  6  5        1 0.388216825036D-01 0.100000000000D+01
  </mgrwgt>
  </event>
  <event>
  5     66 0.44737074E-03 0.89925736E+02 0.75467711E-02 0.11382077E+00
       21 -1    0    0  501  502 0.00000000E+00 0.00000000E+00 0.39282501E+03 0.39282573E+03 0.75000000E+00 0.0000E+00 0.9000E+01
        1 -1    0    0  502    0 0.00000000E+00 0.00000000E+00 -.20061805E+03 0.20061830E+03 0.32000000E+00 0.0000E+00 0.9000E+01
       25  1    1    2    0    0 -.91365613E+01 0.19461683E+02 -.41105150E+02 0.13332992E+03 0.12500000E+03 0.0000E+00 0.9000E+01
       23  1    1    2    0    0 0.85638006E+02 -.66728554E+02 -.59533194E+02 0.15377263E+03 0.91188000E+02 0.0000E+00 0.9000E+01
        1  1    1    2  501    0 -.76501445E+02 0.47266870E+02 0.29284531E+03 0.30634148E+03 0.32000000E+00 0.0000E+00 0.9000E+01
#aMCatNLO 1  0  0  5  1 0.64797000D+02 0.00000000D+00  -5  6  0 0.00000000D+00 0.00000000D+00 0.00000000D+00 0.00000000D+00 0.00000000D+00
  <mgrwgt>
 0.2331227805D-02    6    2    0
 0.280727758500857D+03 0.000000000000000D+00 0.000000000000000D+00 0.280727758500857D+03
 0.280727758500857D+03 -.000000000000000D+00 -.000000000000000D+00 -.280727758500857D+03
 0.154998132993820D+03 -.913653964939515D+01 0.194616700477990D+02 -.890908989389806D+02
 0.182914179655675D+03 0.856380315667324D+02 -.667285695162756D+02 -.115567172392489D+03
 0.223543204352220D+03 -.765014919173372D+02 0.472668994684766D+02 0.204658071331470D+03
 0.000000000000000D+00 0.000000000000000D+00 0.000000000000000D+00 0.000000000000000D+00
 0.280727758500857D+03 0.000000000000000D+00 0.000000000000000D+00 0.280727758500857D+03
 0.280727758500857D+03 -.000000000000000D+00 -.000000000000000D+00 -.280727758500857D+03
 0.148923392575278D+03 -.138179149428984D+02 0.223540854743024D+02 -.765672054169978D+02
 0.170196862182830D+03 0.801989784952837D+02 -.633680183912117D+02 -.101016526600182D+03
 0.164984735523547D+03 -.830902510933283D+02 0.837641842839643D+02 0.115323607991879D+03
 0.773505267200596D+02 0.167091875409430D+02 -.427502513670549D+02 0.622601240253011D+02
0.721773108972D-05 0.000000000000D+00 0.000000000000D+00 0.886419756617D-06 0.000000000000D+00  6 21 1 25 23 1 21 2 0.60434692D-01 0.30864390D-01 0.32138109D+05 0.32138109D+05 0.32138109D+05 0.12117729D+01  1  2  2  3  6  5        1 0.430249277695D-02 0.100000000000D+01
0.211487666372D-06 0.380890133970D-06 -.145705195496D-07 0.886419756617D-06 0.000000000000D+00  6 21 1 25 23 1 21 4 0.60434692D-01 0.30864390D-01 0.32138109D+05 0.32138109D+05 0.32138109D+05 0.12117729D+01  1  2  3  3  6  5        1 0.185117268718D-03 0.100000000000D+01
0.600618855737D-06 0.000000000000D+00 0.000000000000D+00 0.886419756617D-06 0.000000000000D+00  6 21 1 25 23 1 21 4 0.60434692D-01 0.30864390D-01 0.32138109D+05 0.32138109D+05 0.32138109D+05 0.12117729D+01  1  2 15  3  6  5        1 0.525727689096D-03 0.100000000000D+01
-.450219990472D-05 0.000000000000D+00 0.000000000000D+00 0.886419756617D-06 0.000000000000D+00  6 21 1 25 23 1 21 4 0.60434692D-01 0.30864390D-01 0.32138109D+05 0.32138109D+05 0.32138109D+05 0.12117729D+01  1  2  4  3  6  5        1 -.394082058722D-02 0.100000000000D+01
-.358728405874D-05 0.000000000000D+00 0.000000000000D+00 0.886419756617D-06 0.000000000000D+00  6 21 1 25 23 1 21 4 0.60434692D-01 0.30864390D-01 0.32138109D+05 0.32138109D+05 0.32138109D+05 0.12117729D+01  1  2  5  3  6  5        1 -.313998560038D-02 0.100000000000D+01
0.502530105980D-05 0.000000000000D+00 -.000000000000D+00 0.886419756617D-06 0.000000000000D+00  6 21 1 25 23 1 21 4 0.60434692D-01 0.30864390D-01 0.32138109D+05 0.32138109D+05 0.32138109D+05 0.12117729D+01  1  2  6  3  6  5        1 0.439869625795D-02 0.100000000000D+01
  </mgrwgt>
  </event>
  <event>
  6     66 0.44737074E-03 0.39068810E+02 0.75467711E-02 0.11950395E+00
       21 -1    0    0  501  502 0.00000000E+00 0.00000000E+00 0.29331413E+03 0.29331509E+03 0.75000000E+00 0.0000E+00 0.9000E+01
        3 -1    0    0  502    0 0.00000000E+00 0.00000000E+00 -.11441451E+03 0.11441560E+03 0.50000000E+00 0.0000E+00 0.9000E+01
       25  1    1    2    0    0 -.79272054E+02 0.40688108E+02 0.14593527E+03 0.21180577E+03 0.12500000E+03 0.0000E+00 0.9000E+01
       23  1    1    2    0    0 0.42330883E+02 -.44649020E+02 -.33530321E+02 0.11499988E+03 0.91188000E+02 0.0000E+00 0.9000E+01
        3  1    1    2  503    0 0.41083318E+02 0.31688855E+01 0.55502859E+02 0.69128130E+02 0.50000000E+00 0.0000E+00 0.9000E+01
       21  1    1    2  501  503 -.41421474E+01 0.79202646E+00 0.10991811E+02 0.11796911E+02 0.75000000E+00 0.0000E+00 0.9000E+01
#aMCatNLO 2  0  0  5  1 0.77318482D+01 0.00000000D+00  -5  6  0 0.00000000D+00 0.00000000D+00 0.00000000D+00 0.00000000D+00 0.00000000D+00
  <mgrwgt>
 0.6700211262D-02    3    2    0
 0.183193369043686D+03 0.000000000000000D+00 0.000000000000000D+00 0.183193369043686D+03
 0.183193369043686D+03 -.000000000000000D+00 -.000000000000000D+00 -.183193369043686D+03
 0.164753753079383D+03 -.815521674081607D+02 0.404436295527612D+02 0.568538123028940D+02
 0.145063633460369D+03 0.403263628775982D+02 -.448639491100707D+02 -.953373847765788D+02
 0.565693515476201D+02 0.412258045305625D+02 0.442031955730955D+01 0.384835724736848D+02
 0.000000000000000D+00 0.000000000000000D+00 0.000000000000000D+00 0.000000000000000D+00
 0.183193369043686D+03 0.000000000000000D+00 0.000000000000000D+00 0.183193369043686D+03
 0.183193369043686D+03 -.000000000000000D+00 -.000000000000000D+00 -.183193369043686D+03
 0.164444909186488D+03 -.792377581171189D+02 0.406917855019126D+02 0.590142731768485D+02
 0.144338593897902D+03 0.423609859809729D+02 -.446457924385876D+02 -.934380994491741D+02
 0.497320800760861D+02 0.410967192252767D+02 0.314691039026145D+01 0.278286976448537D+02
 0.787115492689571D+01 -.421994708913063D+01 0.807096546413612D+00 0.659512862747193D+01
-.254853513474D-05 0.000000000000D+00 0.000000000000D+00 0.281778635038D-06 0.000000000000D+00  6 21 3 25 23 3 21 4 0.45125409D-01 0.17602390D-01 0.23872990D+05 0.23872990D+05 0.23872990D+05 0.12254513D+01  1  2 13  3  6  5        3 -.372847417974D-02 0.100000000000D+01
-.133285594204D-04 0.000000000000D+00 0.000000000000D+00 0.282282283985D-06 0.000000000000D+00  6 21 3 25 23 3 21 4 0.45125409D-01 0.17602390D-01 0.23321995D+05 0.23321995D+05 0.23321995D+05 0.12265460D+01  1  2  8  3  6  5        3 -.195609623868D-01 0.100000000000D+01
0.204989138947D-04 0.000000000000D+00 0.000000000000D+00 0.282282283985D-06 0.171015308445D-06  6 21 3 25 23 3 21 4 0.45125409D-01 0.17602390D-01 0.23872990D+05 0.23872990D+05 0.23872990D+05 0.12254513D+01  1  2  1  3  6  5        3 0.299896478285D-01 0.100000000000D+01
  </mgrwgt>
  </event>
  <event>
  6     66 -.44737074E-03 0.49979052E+02 0.75467711E-02 0.11404317E+00
       -3 -1    0    0    0  502 0.00000000E+00 0.00000000E+00 0.17988537E+03 0.17988607E+03 0.50000000E+00 0.0000E+00 0.9000E+01
        1 -1    0    0  502    0 0.00000000E+00 0.00000000E+00 -.41743017E+03 0.41743029E+03 0.32000000E+00 0.0000E+00 0.9000E+01
       25  1    1    2    0    0 0.42736402E+02 -.41993161E+02 -.13691789E+03 0.19483669E+03 0.12500000E+03 0.0000E+00 0.9000E+01
       23  1    1    2    0    0 -.11984344E+03 -.38632220E+02 -.14274129E+03 0.21105740E+03 0.91188000E+02 0.0000E+00 0.9000E+01
        1  1    1    2  501    0 0.25288788E+02 0.71933889E+02 -.45839487E+02 0.88968355E+02 0.32000000E+00 0.0000E+00 0.9000E+01
       -3  1    1    2    0  501 0.51818248E+02 0.86914922E+01 0.87953872E+02 0.10245392E+03 0.50000000E+00 0.0000E+00 0.9000E+01
#aMCatNLO 2  0  0  1  2 0.52542105D+02 0.00000000D+00  -5  6  0 0.00000000D+00 0.00000000D+00 0.00000000D+00 0.00000000D+00 0.00000000D+00
  <mgrwgt>
 -.2861437528D-03    3    2    0
 0.184512044557347D+03 0.000000000000000D+00 0.000000000000000D+00 0.184512044557347D+03
 0.184512044557347D+03 0.000000000000000D+00 0.000000000000000D+00 -.184512044557347D+03
 0.145519808480515D+03 0.626194877499275D+02 -.386583577274346D+02 -.116338210386791D+02
 0.139385144868809D+03 -.992397801023899D+02 -.351765466025824D+02 -.520037310628105D+01
 0.841191357653702D+02 0.366202923524624D+02 0.738349043300170D+02 0.168341941449602D+02
 0.000000000000000D+00 0.000000000000000D+00 0.000000000000000D+00 0.000000000000000D+00
 0.395902692063362D+03 0.000000000000000D+00 0.000000000000000D+00 0.395902692063362D+03
 0.189666804071958D+03 0.000000000000000D+00 0.000000000000000D+00 -.189666804071958D+03
 0.139104924263913D+03 0.427362940031793D+02 -.419933725411849D+02 -.116338210386791D+02
 0.155554612634296D+03 -.119843556469635D+03 -.386324249830462D+02 -.520037310628105D+01
 0.780862896318492D+02 0.252890146070298D+02 0.719343052803338D+02 0.168341941449602D+02
 0.212823669605261D+03 0.518182478594262D+02 0.869149224389735D+01 0.206235887991404D+03
-.725878799667D-05 0.000000000000D+00 0.000000000000D+00 0.143285881762D-06 0.000000000000D+00  6 -3 1 25 23 1 -3 4 0.27643207D-01 0.62474622D-01 0.44706335D+05 0.44706335D+05 0.44706335D+05 0.11971252D+01  1  2 13  8  6  1       21 -.602735594551D-03 0.100000000000D+01
-.738342757939D-05 0.000000000000D+00 0.000000000000D+00 0.143285881762D-06 0.000000000000D+00  6 -3 1 25 23 1 -3 4 0.28692081D-01 0.62474622D-01 0.44706335D+05 0.44706335D+05 0.44706335D+05 0.11971252D+01  1  2 13  8  6  1       21 -.572236507578D-03 0.100000000000D+01
0.111129504662D-04 0.000000000000D+00 0.000000000000D+00 0.146318857547D-06 0.481711557269D-09  6 -3 1 25 23 1 -3 4 0.27674694D-01 0.64219992D-01 0.44706335D+05 0.44706335D+05 0.44706335D+05 0.11971252D+01  1  2  1  8  6  1       21 0.888828349362D-03 0.100000000000D+01
  </mgrwgt>
  </event>
  <event>
  5     66 -.44737074E-03 0.22274655E+02 0.75467711E-02 0.12190390E+00
       21 -1    0    0  501  502 0.00000000E+00 0.00000000E+00 0.32002727E+02 0.32011514E+02 0.75000000E+00 0.0000E+00 0.9000E+01
        1 -1    0    0  502    0 -.00000000E+00 -.00000000E+00 -.59214761E+03 0.59214769E+03 0.32000000E+00 0.0000E+00 0.9000E+01
       25  1    1    2    0    0 -.50584127E+02 -.40193938E+01 -.26777306E+03 0.29983716E+03 0.12500000E+03 0.0000E+00 0.9000E+01
       23  1    1    2    0    0 0.66371652E+02 0.19730648E+02 -.21227488E+03 0.24118535E+03 0.91188000E+02 0.0000E+00 0.9000E+01
        1  1    1    2  501    0 -.15787524E+02 -.15711254E+02 -.80096934E+02 0.83136699E+02 0.32000000E+00 0.0000E+00 0.9000E+01
#aMCatNLO 1  0  0  5  1 0.34712553D+01 0.00000000D+00  -5  6  0 0.00000000D+00 0.00000000D+00 0.00000000D+00 0.00000000D+00 0.00000000D+00
  <mgrwgt>
 -.1972678103D+01    5    2    0
 0.137670284329907D+03 0.000000000000000D+00 0.000000000000000D+00 0.137670284329907D+03
 0.137670284329907D+03 -.000000000000000D+00 -.000000000000000D+00 -.137670284329907D+03
 0.134939610275201D+03 -.505835185346738D+02 -.401878806804650D+01 0.297580515818543D+01
 0.114888563675922D+03 0.663721698650402D+02 0.197311639239498D+02 0.946292540015412D+01
 0.255123947086907D+02 -.157886513303665D+02 -.157123758559033D+02 -.124387305583395D+02
 0.000000000000000D+00 0.000000000000000D+00 0.000000000000000D+00 0.000000000000000D+00
 0.137670284329907D+03 0.000000000000000D+00 0.000000000000000D+00 0.137670284329907D+03
 0.137670284329907D+03 -.000000000000000D+00 -.000000000000000D+00 -.137670284329907D+03
 0.135419396821882D+03 -.517887768486135D+02 -.521822374091174D+01 0.202626975414110D+01
 0.114067128305530D+03 0.653514872022083D+02 0.187154122113779D+02 0.865880373308575D+01
 0.223775323870730D+02 -.116556049787295D+02 -.134234546021113D+02 -.135908680686472D+02
 0.347651114532866D+01 -.190710537486529D+01 -.737338683548902D-01 0.290579458142033D+01
0.888339379526D-05 0.000000000000D+00 0.000000000000D+00 0.346464589597D-06 0.000000000000D+00  6 21 1 25 23 1 21 2 0.49241790D-02 0.91100314D-01 0.18452456D+05 0.18452456D+05 0.18452456D+05 0.12376953D+01  1  2  2  3  6  5        1 0.148363704943D+00 0.100000000000D+01
0.653828053836D-07 0.468789569842D-06 -.179330126534D-07 0.346464589597D-06 0.000000000000D+00  6 21 1 25 23 1 21 4 0.49241790D-02 0.91100314D-01 0.18452456D+05 0.18452456D+05 0.18452456D+05 0.12376953D+01  1  2  3  3  6  5        1 0.167278359653D-02 0.100000000000D+01
0.915487722802D-06 0.000000000000D+00 0.000000000000D+00 0.346464589597D-06 0.000000000000D+00  6 21 1 25 23 1 21 4 0.49241790D-02 0.91100314D-01 0.18452456D+05 0.18452456D+05 0.18452456D+05 0.12376953D+01  1  2 15  3  6  5        1 0.234222566092D-01 0.100000000000D+01
0.865346690181D-07 0.000000000000D+00 0.000000000000D+00 0.347035874033D-06 0.000000000000D+00  6 21 1 25 23 1 21 4 0.49241790D-02 0.91100314D-01 0.18067171D+05 0.18067171D+05 0.18067171D+05 0.12387153D+01  1  2 12  3  6  5        1 0.222067963119D-02 0.100000000000D+01
-.839711977428D-04 0.000000000000D+00 0.000000000000D+00 0.346464589597D-06 0.000000000000D+00  6 21 1 25 23 1 21 4 0.49241790D-02 0.91100314D-01 0.18452456D+05 0.18452456D+05 0.18452456D+05 0.12376953D+01  1  2  4  3  6  5        1 -.214835752827D+01 0.100000000000D+01
  </mgrwgt>
  </event>
  <event>
  6     66 0.44737074E-03 0.76047611E+02 0.75467711E-02 0.11195562E+00
       21 -1    0    0  503  502 0.00000000E+00 0.00000000E+00 0.11630637E+03 0.11630879E+03 0.75000000E+00 0.0000E+00 0.9000E+01
        1 -1    0    0  502    0 0.00000000E+00 0.00000000E+00 -.98928673E+03 0.98928678E+03 0.32000000E+00 0.0000E+00 0.9000E+01
       25  1    1    2    0    0 0.21692410E+01 -.86281306E+01 -.36762621E+03 0.38839822E+03 0.12500000E+03 0.0000E+00 0.9000E+01
       23  1    1    2    0    0 0.67678251E+02 0.54363378E+02 -.40445475E+03 0.42359723E+03 0.91188000E+02 0.0000E+00 0.9000E+01
        1  1    1    2  501    0 -.76659496E+01 -.12696509E+03 -.13527030E+03 0.18567999E+03 0.32000000E+00 0.0000E+00 0.9000E+01
       21  1    1    2  503  501 -.62181542E+02 0.81229845E+02 0.34370901E+02 0.10792012E+03 0.75000000E+00 0.0000E+00 0.9000E+01
#aMCatNLO 2  0  0  1  2 0.10229776D+03 0.00000000D+00  -5  6  0 0.00000000D+00 0.00000000D+00 0.00000000D+00 0.00000000D+00 0.00000000D+00
  <mgrwgt>
 0.1193083318D-01    2    2    0
 0.201000719410251D+03 0.000000000000000D+00 0.000000000000000D+00 0.201000719410251D+03
 0.201000719410251D+03 0.000000000000000D+00 0.000000000000000D+00 -.201000719410251D+03
 0.132072986012501D+03 -.177821761629569D+02 0.174352125441280D+02 -.346133097046358D+02
 0.138899167142452D+03 0.468950577711910D+02 0.815133044927611D+02 -.461969916355371D+02
 0.131029285665549D+03 -.291128816082341D+02 -.989485170368892D+02 0.808103013401729D+02
 0.000000000000000D+00 -.000000000000000D+00 0.000000000000000D+00 0.000000000000000D+00
 0.534140860699856D+03 0.000000000000000D+00 0.000000000000000D+00 0.534140860699856D+03
 0.215413741641526D+03 0.000000000000000D+00 0.000000000000000D+00 -.215413741641526D+03
 0.130008576627237D+03 0.216927297153153D+01 -.862803817250352D+01 -.346133097046358D+02
 0.134108727844300D+03 0.676782943914234D+02 0.543634617377384D+02 -.461969916355371D+02
 0.150695892818697D+03 -.766602547757370D+01 -.126965268333950D+03 0.808103013401729D+02
 0.334741405051147D+03 -.621815418853812D+02 0.812298447687153D+02 0.318727119058330D+03
-.364615208779D-05 0.000000000000D+00 0.000000000000D+00 0.267641277378D-06 0.000000000000D+00  6 21 1 25 23 1 21 4 0.17690161D-01 0.14201452D+00 0.57770804D+05 0.57770804D+05 0.57770804D+05 0.11861179D+01  1  2 13  1  6  1       21 -.423194077270D-02 0.100000000000D+01
0.159775959157D-04 0.000000000000D+00 0.000000000000D+00 0.278991689384D-06 0.210068311319D-08  6 21 1 25 23 1 21 4 0.17893444D-01 0.15219786D+00 0.57770804D+05 0.57770804D+05 0.57770804D+05 0.11861179D+01  1  2  1  1  6  1       21 0.161627739561D-01 0.100000000000D+01
  </mgrwgt>
  </event>
  <event>
  6     66 0.44737074E-03 0.50333834E+02 0.75467711E-02 0.11963261E+00
       21 -1    0    0  501  502 0.00000000E+00 0.00000000E+00 0.68850604E+02 0.68854689E+02 0.75000000E+00 0.0000E+00 0.9000E+01
        1 -1    0    0  502    0 -.00000000E+00 -.00000000E+00 -.78203636E+03 0.78203642E+03 0.32000000E+00 0.0000E+00 0.9000E+01
       25  1    1    2    0    0 -.56886121E+02 -.15858693E+02 -.59032227E+03 0.60629441E+03 0.12500000E+03 0.0000E+00 0.9000E+01
       23  1    1    2    0    0 0.32780517E+02 -.31165197E+02 -.14103559E+03 0.17393137E+03 0.91188000E+02 0.0000E+00 0.9000E+01
        1  1    1    2  503    0 0.34583146E+02 0.43831988E+02 0.94137800E+01 0.56621186E+02 0.32000000E+00 0.0000E+00 0.9000E+01
       21  1    1    2  501  503 -.10477542E+02 0.31919024E+01 0.87583310E+01 0.14044144E+02 0.75000000E+00 0.0000E+00 0.9000E+01
#aMCatNLO 2  0  0  5  1 0.18494203D+02 0.00000000D+00  -5  6  0 0.00000000D+00 0.00000000D+00 0.00000000D+00 0.00000000D+00 0.00000000D+00
  <mgrwgt>
 0.4986846513D-01    1    2    0
 0.232046205107971D+03 0.000000000000000D+00 0.000000000000000D+00 0.232046205107971D+03
 0.232046205107971D+03 -.000000000000000D+00 -.000000000000000D+00 -.232046205107971D+03
 0.206499951882663D+03 -.573157927018951D+02 -.166968720248818D+02 -.153144848098395D+03
 0.102121108220677D+03 0.325669258888075D+02 -.315818595340417D+02 0.744653521741353D+01
 0.155471350112601D+03 0.247488668130876D+02 0.482787315589235D+02 0.145698312880981D+03
 0.000000000000000D+00 0.000000000000000D+00 0.000000000000000D+00 0.000000000000000D+00
 0.232046205107971D+03 0.000000000000000D+00 0.000000000000000D+00 0.232046205107971D+03
 0.232046205107971D+03 -.000000000000000D+00 -.000000000000000D+00 -.232046205107971D+03
 0.204439575985391D+03 -.568851104685514D+02 -.158567207529939D+02 -.150609391616290D+03
 0.102160978881942D+03 0.327810222692699D+02 -.311642120612041D+02 0.870693560919233D+01
 0.118121228044239D+03 0.346095221235876D+02 0.438047536043586D+02 0.104095864733991D+03
 0.393706273043686D+02 -.105054339243062D+02 0.321617920983937D+01 0.378065912731064D+02
0.112180904085D-04 0.000000000000D+00 0.000000000000D+00 0.919974939578D-06 0.789895312766D-07  6 21 1 25 23 1 21 4 0.10592720D-01 0.12031360D+00 0.23539323D+05 0.23539323D+05 0.23539323D+05 0.12261108D+01  1  2  1  3  6  5        1 0.498684651332D-01 0.100000000000D+01
  </mgrwgt>
  </event>
  <event>
  5     66 0.44737074E-03 0.21520645E+02 0.75467711E-02 0.10953405E+00
       21 -1    0    0  501  502 0.00000000E+00 0.00000000E+00 0.43936183E+02 0.43942584E+02 0.75000000E+00 0.0000E+00 0.9000E+01
        1 -1    0    0  502    0 0.00000000E+00 0.00000000E+00 -.77036461E+03 0.77036468E+03 0.32000000E+00 0.0000E+00 0.9000E+01
       25  1    1    2    0    0 -.15382174E+02 -.67504136E+01 -.44056963E+03 0.45826715E+03 0.12500000E+03 0.0000E+00 0.9000E+01
       23  1    1    2    0    0 0.36291384E+01 0.24778225E+02 -.30976206E+03 0.32387485E+03 0.91188000E+02 0.0000E+00 0.9000E+01
        1  1    1    2  501    0 0.11753036E+02 -.18027812E+02 0.23903265E+02 0.32165266E+02 0.32000000E+00 0.0000E+00 0.9000E+01
#aMCatNLO 1  0  0  1  2 0.35543301D+02 0.00000000D+00  -5  6  0 0.00000000D+00 0.00000000D+00 0.00000000D+00 0.00000000D+00 0.00000000D+00
  <mgrwgt>
 0.1065763512D+00   12    2    0
 0.183982374108743D+03 0.000000000000000D+00 0.000000000000000D+00 0.183982374108743D+03
 0.183982374108743D+03 0.000000000000000D+00 0.000000000000000D+00 -.183982374108743D+03
 0.144383375739817D+03 -.153821913030112D+02 -.675038778507127D+01 -.702807202972039D+02
 0.105210334667440D+03 0.362912609627258D+01 0.247782441379493D+02 -.461175805745736D+02
 0.118371037810229D+03 0.117530652067386D+02 -.180278563528780D+02 0.116398300871777D+03
 0.000000000000000D+00 -.000000000000000D+00 -.000000000000000D+00 0.000000000000000D+00
 0.345280816690239D+03 0.000000000000000D+00 0.000000000000000D+00 0.345280816690239D+03
 0.304753594902203D+03 0.000000000000000D+00 0.000000000000000D+00 -.304753594902203D+03
 0.158306767011080D+03 0.668937810641293D+02 0.467706007561277D+01 -.702807202972039D+02
 0.126504380329229D+03 0.666128536628993D+02 0.335261597460134D+02 -.461175805745736D+02
 0.143089534960816D+03 0.828221877916483D+02 -.815694666347800D+01 0.116398300871777D+03
 0.222133729291317D+03 -.216328822518677D+03 -.300462731581481D+02 0.405272217880367D+02
0.896644962448D-05 0.000000000000D+00 0.000000000000D+00 0.791097425914D-05 0.000000000000D+00  6 21 1 25 23 1 21 2 0.67599103D-02 0.11851813D+00 0.14666238D+05 0.14666238D+05 0.14666238D+05 0.12489382D+01  1  2  2  1  6  1       21 0.614433921863D-01 0.100000000000D+01
0.212163216965D-05 0.473172546366D-06 -.181006784432D-07 0.791097425914D-05 0.000000000000D+00  6 21 1 25 23 1 21 4 0.67599103D-02 0.11851813D+00 0.14666238D+05 0.14666238D+05 0.14666238D+05 0.12489382D+01  1  2  3  1  6  1       21 0.226780980717D-01 0.100000000000D+01
0.934882794973D-06 0.000000000000D+00 0.000000000000D+00 0.791097425914D-05 0.000000000000D+00  6 21 1 25 23 1 21 4 0.67599103D-02 0.11851813D+00 0.14666238D+05 0.14666238D+05 0.14666238D+05 0.12489382D+01  1  2 15  1  6  1       21 0.999294977385D-02 0.100000000000D+01
0.743608188752D-05 0.000000000000D+00 -.241794837662D-04 0.791097425914D-05 0.000000000000D+00  6 21 1 25 23 1 21 4 0.21208642D-01 0.11851813D+00 0.14666238D+05 0.14666238D+05 0.14666238D+05 0.12489382D+01  1  2  5  1  6  1       21 0.104750664880D-01 0.100000000000D+01
0.237659970219D-05 0.000000000000D+00 -.874507957253D-05 0.791097425914D-05 0.000000000000D+00  6 -1 1 25 23 1 -1 4 0.21208642D-01 0.11851813D+00 0.14666238D+05 0.14666238D+05 0.14666238D+05 0.12489382D+01  1  2  5  4  6  1       21 0.264084747482D-03 0.100000000000D+01
0.237659970219D-05 0.000000000000D+00 -.874507957253D-05 0.791097425914D-05 0.000000000000D+00  6 1 1 25 23 1 1 4 0.21208642D-01 0.11851813D+00 0.14666238D+05 0.14666238D+05 0.14666238D+05 0.12489382D+01  1  2  5  5  6  1       21 0.405336135390D-03 0.100000000000D+01
0.237659970219D-05 0.000000000000D+00 -.874507957253D-05 0.791097425914D-05 0.000000000000D+00  6 -2 1 25 23 1 -2 4 0.21208642D-01 0.11851813D+00 0.14666238D+05 0.14666238D+05 0.14666238D+05 0.12489382D+01  1  2  5  6  6  1       21 0.240175693030D-03 0.100000000000D+01
0.237659970219D-05 0.000000000000D+00 -.874507957253D-05 0.791097425914D-05 0.000000000000D+00  6 -4 1 25 23 1 -4 4 0.21208642D-01 0.11851813D+00 0.14666238D+05 0.14666238D+05 0.14666238D+05 0.12489382D+01  1  2  5  6  6  1       21 0.131326513770D-03 0.100000000000D+01
0.237659970219D-05 0.000000000000D+00 -.874507957253D-05 0.791097425914D-05 0.000000000000D+00  6 2 1 25 23 1 2 4 0.21208642D-01 0.11851813D+00 0.14666238D+05 0.14666238D+05 0.14666238D+05 0.12489382D+01  1  2  5  7  6  1       21 0.504693113795D-03 0.100000000000D+01
0.237659970219D-05 0.000000000000D+00 -.874507957253D-05 0.791097425914D-05 0.000000000000D+00  6 4 1 25 23 1 4 4 0.21208642D-01 0.11851813D+00 0.14666238D+05 0.14666238D+05 0.14666238D+05 0.12489382D+01  1  2  5  7  6  1       21 0.131326513770D-03 0.100000000000D+01
0.237659970219D-05 0.000000000000D+00 -.874507957253D-05 0.791097425914D-05 0.000000000000D+00  6 -3 1 25 23 1 -3 4 0.21208642D-01 0.11851813D+00 0.14666238D+05 0.14666238D+05 0.14666238D+05 0.12489382D+01  1  2  5  8  6  1       21 0.154957849379D-03 0.100000000000D+01
0.237659970219D-05 0.000000000000D+00 -.874507957253D-05 0.791097425914D-05 0.000000000000D+00  6 3 1 25 23 1 3 4 0.21208642D-01 0.11851813D+00 0.14666238D+05 0.14666238D+05 0.14666238D+05 0.12489382D+01  1  2  5  9  6  1       21 0.154944063915D-03 0.100000000000D+01
  </mgrwgt>
  </event>
  <event>
  5     66 0.44737074E-03 0.23080366E+02 0.75467711E-02 0.11813752E+00
       21 -1    0    0  501  502 0.00000000E+00 0.00000000E+00 0.22039936E+02 0.22052693E+02 0.75000000E+00 0.0000E+00 0.9000E+01
        1 -1    0    0  502    0 0.00000000E+00 0.00000000E+00 -.20124159E+04 0.20124160E+04 0.32000000E+00 0.0000E+00 0.9000E+01
       25  1    1    2    0    0 -.21154468E+02 0.37319002E+02 -.10957787E+04 0.11037193E+04 0.12500000E+03 0.0000E+00 0.9000E+01
       23  1    1    2    0    0 0.11324933E+02 -.58201572E+02 -.90040213E+03 0.90694813E+03 0.91188000E+02 0.0000E+00 0.9000E+01
        1  1    1    2  501    0 0.98295354E+01 0.20882570E+02 0.58048367E+01 0.23801261E+02 0.32000000E+00 0.0000E+00 0.9000E+01
#aMCatNLO 1  0  0  1  2 0.14644545D+02 0.00000000D+00  -5  6  0 0.00000000D+00 0.00000000D+00 0.00000000D+00 0.00000000D+00 0.00000000D+00
  <mgrwgt>
 0.2561414244D+00    3    2    0
 0.210633616596124D+03 0.000000000000000D+00 0.000000000000000D+00 0.210633616596124D+03
 0.210633616596124D+03 0.000000000000000D+00 0.000000000000000D+00 -.210633616596124D+03
 0.153039705826160D+03 -.211544770091646D+02 0.373189828986562D+02 -.771746925956700D+02
 0.125855484299360D+03 0.113249251433871D+02 -.582015882206285D+02 -.633140804507150D+02
 0.142372043066727D+03 0.982955186577755D+01 0.208826053219723D+02 0.140488773046385D+03
 0.000000000000000D+00 0.000000000000000D+00 -.000000000000000D+00 -.000000000000000D+00
 0.214285506438752D+03 0.000000000000000D+00 0.000000000000000D+00 0.214285506438752D+03
 0.588293599275692D+03 0.000000000000000D+00 0.000000000000000D+00 -.588293599275692D+03
 0.159690597800412D+03 -.277257320729550D+02 0.561376667633726D+02 -.771746925956700D+02
 0.119371201591996D+03 0.617209191055681D+01 -.434449643070979D+02 -.633140804507150D+02
 0.145642285432020D+03 0.377764198482298D+01 0.382139944891653D+02 0.140488773046385D+03
 0.377875020890016D+03 0.177759981775752D+02 -.509066969454400D+02 -.374008092836941D+03
0.553324585872D-04 0.000000000000D+00 0.000000000000D+00 0.724086654783D-05 0.000000000000D+00  6 21 1 25 23 1 21 2 0.33917426D-02 0.30960343D+00 0.17424856D+05 0.17424856D+05 0.17424856D+05 0.12404711D+01  1  2  2  1  6  1       21 0.169927372765D+00 0.100000000000D+01
0.142387770739D-04 0.291997406140D-05 -.111700291900D-06 0.724086654783D-05 0.000000000000D+00  6 21 1 25 23 1 21 4 0.33917426D-02 0.30960343D+00 0.17424856D+05 0.17424856D+05 0.17424856D+05 0.12404711D+01  1  2  3  1  6  1       21 0.672867255037D-01 0.100000000000D+01
0.400527705268D-05 0.000000000000D+00 0.000000000000D+00 0.724086654783D-05 0.000000000000D+00  6 21 1 25 23 1 21 4 0.33917426D-02 0.30960343D+00 0.17424856D+05 0.17424856D+05 0.17424856D+05 0.12404711D+01  1  2 15  1  6  1       21 0.189273261468D-01 0.100000000000D+01
  </mgrwgt>
  </event>
  <event>
  5     66 0.44737074E-03 0.18513325E+03 0.75467711E-02 0.11207503E+00
       21 -1    0    0  501  502 0.00000000E+00 0.00000000E+00 0.32594589E+03 0.32594676E+03 0.75000000E+00 0.0000E+00 0.9000E+01
        3 -1    0    0  502    0 0.00000000E+00 0.00000000E+00 -.28935015E+03 0.28935058E+03 0.50000000E+00 0.0000E+00 0.9000E+01
       25  1    1    2    0    0 -.51342050E+02 -.93239634E+02 -.86614363E+02 0.18562512E+03 0.12500000E+03 0.0000E+00 0.9000E+01
       23  1    1    2    0    0 -.70721200E+02 -.45953810E+02 -.85416581E+02 0.15074642E+03 0.91188000E+02 0.0000E+00 0.9000E+01
        3  1    1    2  501    0 0.12206325E+03 0.13919344E+03 0.20862669E+03 0.27892579E+03 0.50000000E+00 0.0000E+00 0.9000E+01
#aMCatNLO 1  0  0  5  1 0.13478390D+03 0.00000000D+00  -5  6  0 0.00000000D+00 0.00000000D+00 0.00000000D+00 0.00000000D+00 0.00000000D+00
  <mgrwgt>
 0.4198569553D-02    3    2    0
 0.307104037728889D+03 0.000000000000000D+00 0.000000000000000D+00 0.307104037728889D+03
 0.307104037728889D+03 -.000000000000000D+00 -.000000000000000D+00 -.307104037728889D+03
 0.191115075368654D+03 -.513421164440901D+02 -.932397103046951D+02 -.978279895250042D+02
 0.156103149168242D+03 -.707212542772514D+02 -.459538716988353D+02 -.945499217640162D+02
 0.266989850920883D+03 0.122063370721342D+03 0.139193582003530D+03 0.192377911289020D+03
 0.000000000000000D+00 -.000000000000000D+00 0.000000000000000D+00 0.000000000000000D+00
 0.307104037728889D+03 0.000000000000000D+00 0.000000000000000D+00 0.307104037728889D+03
 0.307104037728889D+03 -.000000000000000D+00 -.000000000000000D+00 -.307104037728889D+03
 0.159498237374703D+03 -.301108431338864D+02 -.690288683045199D+02 -.643664523801087D+02
 0.128130939524894D+03 -.535095529476505D+02 -.263267030708989D+02 -.674234289271264D+02
 0.155483213087706D+03 0.141807602745631D+03 0.587085521375308D+02 -.248784899366754D+02
 0.171095685470476D+03 -.581872066640942D+02 0.366470192378880D+02 0.156668371243911D+03
0.298105830012D-04 0.000000000000D+00 0.000000000000D+00 0.457141233250D-06 0.000000000000D+00  6 21 3 25 23 3 21 2 0.50145622D-01 0.44515507D-01 0.56056130D+05 0.56056130D+05 0.56056130D+05 0.11873954D+01  1  2  2  3  6  5        3 0.393669625275D-02 0.100000000000D+01
-.137547823680D-05 0.157314768476D-05 -.601789782697D-07 0.457141233250D-06 0.000000000000D+00  6 21 3 25 23 3 21 4 0.50145622D-01 0.44515507D-01 0.56056130D+05 0.56056130D+05 0.56056130D+05 0.11873954D+01  1  2  3  3  6  5        3 -.256097822646D-03 0.100000000000D+01
0.278197604354D-05 0.000000000000D+00 0.000000000000D+00 0.457141233250D-06 0.000000000000D+00  6 21 3 25 23 3 21 4 0.50145622D-01 0.44515507D-01 0.56056130D+05 0.56056130D+05 0.56056130D+05 0.11873954D+01  1  2 15  3  6  5        3 0.517971123312D-03 0.100000000000D+01
  </mgrwgt>
  </event>
  <event>
  5     66 0.44737074E-03 0.48228169E+02 0.75467711E-02 0.11699040E+00
       21 -1    0    0  501  502 0.00000000E+00 0.00000000E+00 0.41513893E+02 0.41520668E+02 0.75000000E+00 0.0000E+00 0.9000E+01
        1 -1    0    0  502    0 0.00000000E+00 0.00000000E+00 -.18336028E+04 0.18336028E+04 0.32000000E+00 0.0000E+00 0.9000E+01
       25  1    1    2    0    0 -.82370442E+02 -.18801930E+02 -.81152748E+03 0.82543337E+03 0.12500000E+03 0.0000E+00 0.9000E+01
       23  1    1    2    0    0 0.74897801E+02 -.31177594E+02 -.99066378E+03 0.99815415E+03 0.91188000E+02 0.0000E+00 0.9000E+01
        1  1    1    2  501    0 0.74726406E+01 0.49979524E+02 0.10102384E+02 0.51535946E+02 0.32000000E+00 0.0000E+00 0.9000E+01
#aMCatNLO 1  0  0  1  2 0.29225934D+02 0.00000000D+00  -5  6  0 0.00000000D+00 0.00000000D+00 0.00000000D+00 0.00000000D+00 0.00000000D+00
  <mgrwgt>
 0.8496719449D-01   13    2    0
 0.275910070921063D+03 0.000000000000000D+00 0.000000000000000D+00 0.275910070921063D+03
 0.275910070921063D+03 0.000000000000000D+00 0.000000000000000D+00 -.275910070921063D+03
 0.169367026706107D+03 -.823704442643833D+02 -.188019478810360D+02 -.769531442036914D+02
 0.174521994885044D+03 0.748977981137247D+02 -.311776132048393D+02 -.124743543428990D+03
 0.207931120250975D+03 0.747264615065857D+01 0.499795610858753D+02 0.201696687632682D+03
 0.000000000000000D+00 0.000000000000000D+00 -.000000000000000D+00 -.000000000000000D+00
 0.287847717335196D+03 0.000000000000000D+00 0.000000000000000D+00 0.287847717335196D+03
 0.294783466373574D+03 0.000000000000000D+00 0.000000000000000D+00 -.294783466373574D+03
 0.172939126537885D+03 -.902959061471902D+02 -.144154229181904D+02 -.769531442036914D+02
 0.170496308075557D+03 0.669095414520460D+02 -.267563330606388D+02 -.124743543428990D+03
 0.209158108748705D+03 -.218427866602753D+01 0.553244031151597D+02 0.201696687632682D+03
 0.300376403466230D+02 0.255706433611717D+02 -.141526471363305D+02 -.693574903837723D+01
0.273735577589D-04 0.000000000000D+00 0.000000000000D+00 0.202298828800D-05 0.000000000000D+00  6 21 1 25 23 1 21 2 0.63872761D-02 0.28209326D+00 0.26157196D+05 0.26157196D+05 0.26157196D+05 0.12211964D+01  1  2  2  1  6  1       21 0.361775851790D-01 0.100000000000D+01
0.345846594999D-05 0.144454232950D-05 -.552593264436D-07 0.202298828800D-05 0.000000000000D+00  6 21 1 25 23 1 21 4 0.63872761D-02 0.28209326D+00 0.26157196D+05 0.26157196D+05 0.26157196D+05 0.12211964D+01  1  2  3  1  6  1       21 0.681652218713D-02 0.100000000000D+01
0.214590753975D-05 0.000000000000D+00 0.000000000000D+00 0.202298828800D-05 0.000000000000D+00  6 21 1 25 23 1 21 4 0.63872761D-02 0.28209326D+00 0.26157196D+05 0.26157196D+05 0.26157196D+05 0.12211964D+01  1  2 15  1  6  1       21 0.422951290188D-02 0.100000000000D+01
0.407689788069D-04 0.000000000000D+00 0.000000000000D+00 0.199426305328D-05 0.000000000000D+00  6 21 1 25 23 1 21 4 0.68705194D-02 0.28209326D+00 0.31629231D+05 0.31629231D+05 0.31629231D+05 0.12124953D+01  1  2 12  1  6  1       21 0.684253684484D-01 0.100000000000D+01
-.158383026452D-04 0.000000000000D+00 0.000000000000D+00 0.202298828800D-05 0.000000000000D+00  6 21 1 25 23 1 21 4 0.63872761D-02 0.28209326D+00 0.26157196D+05 0.26157196D+05 0.26157196D+05 0.12211964D+01  1  2  4  1  6  1       21 -.312167715249D-01 0.100000000000D+01
0.733119448756D-06 0.000000000000D+00 0.000000000000D+00 0.199426305328D-05 0.000000000000D+00  6 -1 1 25 23 1 -1 4 0.68705194D-02 0.28209326D+00 0.31629231D+05 0.31629231D+05 0.31629231D+05 0.12124953D+01  1  2 12  4  6  1       21 0.758100728872D-04 0.100000000000D+01
0.733119448756D-06 0.000000000000D+00 0.000000000000D+00 0.199426305328D-05 0.000000000000D+00  6 1 1 25 23 1 1 4 0.68705194D-02 0.28209326D+00 0.31629231D+05 0.31629231D+05 0.31629231D+05 0.12124953D+01  1  2 12  5  6  1       21 0.889695469713D-04 0.100000000000D+01
0.733119448756D-06 0.000000000000D+00 0.000000000000D+00 0.199426305328D-05 0.000000000000D+00  6 -2 1 25 23 1 -2 4 0.68705194D-02 0.28209326D+00 0.31629231D+05 0.31629231D+05 0.31629231D+05 0.12124953D+01  1  2 12  6  6  1       21 0.735121205186D-04 0.100000000000D+01
0.733119448756D-06 0.000000000000D+00 0.000000000000D+00 0.199426305328D-05 0.000000000000D+00  6 -4 1 25 23 1 -4 4 0.68705194D-02 0.28209326D+00 0.31629231D+05 0.31629231D+05 0.31629231D+05 0.12124953D+01  1  2 12  6  6  1       21 0.467538399852D-04 0.100000000000D+01
0.733119448756D-06 0.000000000000D+00 0.000000000000D+00 0.199426305328D-05 0.000000000000D+00  6 2 1 25 23 1 2 4 0.68705194D-02 0.28209326D+00 0.31629231D+05 0.31629231D+05 0.31629231D+05 0.12124953D+01  1  2 12  7  6  1       21 0.978240481865D-04 0.100000000000D+01
0.733119448756D-06 0.000000000000D+00 0.000000000000D+00 0.199426305328D-05 0.000000000000D+00  6 4 1 25 23 1 4 4 0.68705194D-02 0.28209326D+00 0.31629231D+05 0.31629231D+05 0.31629231D+05 0.12124953D+01  1  2 12  7  6  1       21 0.467538399852D-04 0.100000000000D+01
0.733119448756D-06 0.000000000000D+00 0.000000000000D+00 0.199426305328D-05 0.000000000000D+00  6 -3 1 25 23 1 -3 4 0.68705194D-02 0.28209326D+00 0.31629231D+05 0.31629231D+05 0.31629231D+05 0.12124953D+01  1  2 12  8  6  1       21 0.526797986337D-04 0.100000000000D+01
0.733119448756D-06 0.000000000000D+00 0.000000000000D+00 0.199426305328D-05 0.000000000000D+00  6 3 1 25 23 1 3 4 0.68705194D-02 0.28209326D+00 0.31629231D+05 0.31629231D+05 0.31629231D+05 0.12124953D+01  1  2 12  9  6  1       21 0.526740314188D-04 0.100000000000D+01
  </mgrwgt>
  </event>
  <event>
  6     66 -.44737074E-03 0.22632360E+02 0.75467711E-02 0.12254140E+00
       21 -1    0    0  501  502 0.00000000E+00 0.00000000E+00 0.30939437E+02 0.30948526E+02 0.75000000E+00 0.0000E+00 0.9000E+01
        3 -1    0    0  502    0 -.00000000E+00 -.00000000E+00 -.59415403E+03 0.59415424E+03 0.50000000E+00 0.0000E+00 0.9000E+01
       25  1    1    2    0    0 0.28471333E+02 -.96502641E+01 -.33867295E+03 0.36225421E+03 0.12500000E+03 0.0000E+00 0.9000E+01
       23  1    1    2    0    0 -.43721056E+02 0.31627679E+02 -.19278341E+03 0.21998304E+03 0.91188000E+02 0.0000E+00 0.9000E+01
        3  1    1    2  503    0 0.13009183E+02 -.12168037E+02 -.14946143E+02 0.23258056E+02 0.50000000E+00 0.0000E+00 0.9000E+01
       21  1    1    2  501  503 0.22405398E+01 -.98093772E+01 -.16812088E+02 0.19607466E+02 0.75000000E+00 0.0000E+00 0.9000E+01
#aMCatNLO 2  0  0  5  1 0.49355025D+01 0.00000000D+00  -5  6  0 0.00000000D+00 0.00000000D+00 0.00000000D+00 0.00000000D+00 0.00000000D+00
  <mgrwgt>
 -.2098879461D-01    2    2    0
 0.135593869440595D+03 0.000000000000000D+00 0.000000000000000D+00 0.135593869440595D+03
 0.135593869440595D+03 -.000000000000000D+00 -.000000000000000D+00 -.135593869440595D+03
 0.131606170850241D+03 0.280478265566980D+02 -.903991975996655D+01 -.287538429091084D+02
 0.106939961946375D+03 -.440647372053755D+02 0.321229813006906D+02 0.121374265999320D+02
 0.326416060845730D+02 0.160169106486775D+02 -.230830615407241D+02 0.166164163091764D+02
 0.000000000000000D+00 0.000000000000000D+00 -.000000000000000D+00 0.000000000000000D+00
 0.135593869440595D+03 0.000000000000000D+00 0.000000000000000D+00 0.135593869440595D+03
 0.135593869440595D+03 -.000000000000000D+00 -.000000000000000D+00 -.135593869440595D+03
 0.131645167490207D+03 0.284711668980055D+02 -.965002437785555D+01 -.283146571319051D+02
 0.106692136741585D+03 -.437211906686591D+02 0.316278729728071D+02 0.124938319268311D+02
 0.222339880199840D+02 0.128757050101028D+02 -.118457729588779D+02 0.137202079711760D+02
 0.106164466294128D+02 0.237431876055075D+01 -.101320756360736D+02 0.210061723389796D+01
-.518456159479D-05 0.000000000000D+00 0.000000000000D+00 0.719656490082D-06 0.000000000000D+00  6 21 3 25 23 3 21 4 0.47606287D-02 0.91409028D-01 0.17216673D+05 0.17216673D+05 0.17216673D+05 0.12410559D+01  1  2 13  3  6  5        3 -.192588978334D-01 0.100000000000D+01
-.465838785611D-06 0.000000000000D+00 0.000000000000D+00 0.719507452544D-06 0.000000000000D+00  6 21 3 25 23 3 21 4 0.47606287D-02 0.91409028D-01 0.17262188D+05 0.17262188D+05 0.17262188D+05 0.12409273D+01  1  2  8  3  6  5        3 -.172989678105D-02 0.100000000000D+01
  </mgrwgt>
  </event>
  <event>
  5     66 0.44737074E-03 0.49457861E+02 0.75467711E-02 0.11955428E+00
       21 -1    0    0  501  502 0.00000000E+00 0.00000000E+00 0.11502733E+02 0.11527157E+02 0.75000000E+00 0.0000E+00 0.9000E+01
        1 -1    0    0  502    0 0.00000000E+00 0.00000000E+00 -.20506165E+04 0.20506165E+04 0.32000000E+00 0.0000E+00 0.9000E+01
       25  1    1    2    0    0 0.52979664E+02 0.46198878E+02 -.74726936E+03 0.76090582E+03 0.12500000E+03 0.0000E+00 0.9000E+01
       23  1    1    2    0    0 -.52098197E+02 0.32504114E+01 -.78860793E+03 0.79557684E+03 0.91188000E+02 0.0000E+00 0.9000E+01
        1  1    1    2  501    0 -.88146673E+00 -.49449289E+02 -.50323646E+03 0.50566100E+03 0.32000000E+00 0.0000E+00 0.9000E+01
#aMCatNLO 1  0  0  1  2 0.10142031D+02 0.00000000D+00  -5  6  0 0.00000000D+00 0.00000000D+00 0.00000000D+00 0.00000000D+00 0.00000000D+00
  <mgrwgt>
 0.1208556425D+00   23    2    0
 0.153664902405223D+03 0.000000000000000D+00 0.000000000000000D+00 0.153664902405223D+03
 0.153664902405223D+03 0.000000000000000D+00 0.000000000000000D+00 -.153664902405223D+03
 0.147496133015337D+03 0.529796714529931D+02 0.461992947102876D+02 0.344802673348542D+02
 0.105855210177336D+03 -.520981919491062D+02 0.325071071926420D+01 -.128563390256215D+02
 0.539784616177722D+02 -.881479503886813D+00 -.494500054295518D+02 -.216239283092328D+02
 0.000000000000000D+00 0.000000000000000D+00 -.000000000000000D+00 0.000000000000000D+00
 0.160264246307510D+03 0.000000000000000D+00 0.000000000000000D+00 0.160264246307510D+03
 0.157695208055326D+03 0.000000000000000D+00 0.000000000000000D+00 -.157695208055326D+03
 0.146890597898464D+03 0.488486657497352D+02 0.487520950314533D+02 0.344802673348542D+02
 0.107431769509853D+03 -.550911588086635D+02 0.510024744449570D+01 -.128563390256215D+02
 0.531747378088403D+02 -.238511547477327D+01 -.485208170756436D+02 -.216239283092328D+02
 0.104623491456789D+02 0.862760853370161D+01 -.533152540030534D+01 0.256903825218440D+01
0.200520919778D-05 0.000000000000D+00 0.000000000000D+00 0.185368132798D-06 0.000000000000D+00  6 21 1 25 23 1 21 2 0.17715319D-02 0.31548134D+00 0.22191872D+05 0.22191872D+05 0.22191872D+05 0.12288847D+01  1  2  2  1  6  1       21 0.163999758769D-01 0.100000000000D+01
-.132777304163D-06 0.105817796546D-06 -.404793964393D-08 0.185368132798D-06 0.000000000000D+00  6 21 1 25 23 1 21 4 0.17715319D-02 0.31548134D+00 0.22191872D+05 0.22191872D+05 0.22191872D+05 0.12288847D+01  1  2  3  1  6  1       21 -.163994625088D-02 0.100000000000D+01
0.217027730926D-06 0.000000000000D+00 0.000000000000D+00 0.185368132798D-06 0.000000000000D+00  6 21 1 25 23 1 21 4 0.17715319D-02 0.31548134D+00 0.22191872D+05 0.22191872D+05 0.22191872D+05 0.12288847D+01  1  2 15  1  6  1       21 0.268053200743D-02 0.100000000000D+01
0.551698257573D-05 0.000000000000D+00 0.000000000000D+00 0.184411419552D-06 0.000000000000D+00  6 21 1 25 23 1 21 4 0.18700368D-02 0.31548134D+00 0.23741815D+05 0.23741815D+05 0.23741815D+05 0.12257093D+01  1  2 12  1  6  1       21 0.617437933694D-01 0.100000000000D+01
-.218623886699D-05 0.000000000000D+00 0.000000000000D+00 0.185368132798D-06 0.000000000000D+00  6 21 1 25 23 1 21 4 0.17715319D-02 0.31548134D+00 0.22191872D+05 0.22191872D+05 0.22191872D+05 0.12288847D+01  1  2  4  1  6  1       21 -.270024629289D-01 0.100000000000D+01
-.512891029698D-04 0.000000000000D+00 -.884333116334D-05 0.185368132798D-06 0.000000000000D+00  6 21 1 25 23 1 21 4 0.19051501D-02 0.31548134D+00 0.22191872D+05 0.22191872D+05 0.22191872D+05 0.12288847D+01  1  2  5  1  6  1       21 -.563343624193D+00 0.100000000000D+01
0.513802016272D-04 0.000000000000D+00 0.875050651849D-05 0.185368132798D-06 0.000000000000D+00  6 21 1 25 23 1 21 4 0.17715319D-02 0.31548134D+00 0.22191872D+05 0.22191872D+05 0.22191872D+05 0.12288847D+01  1  2  6  1  6  1       21 0.634602197712D+00 0.100000000000D+01
0.913228330231D-07 0.000000000000D+00 0.000000000000D+00 0.184411419552D-06 0.000000000000D+00  6 -1 1 25 23 1 -1 4 0.18700368D-02 0.31548134D+00 0.23741815D+05 0.23741815D+05 0.23741815D+05 0.12257093D+01  1  2 12  4  6  1       21 0.488151879079D-04 0.100000000000D+01
-.785869341309D-06 0.000000000000D+00 -.158507020108D-06 0.185368132798D-06 0.000000000000D+00  6 -1 1 25 23 1 -1 4 0.19051501D-02 0.31548134D+00 0.22191872D+05 0.22191872D+05 0.22191872D+05 0.12288847D+01  1  2  5  4  6  1       21 -.413181892282D-03 0.100000000000D+01
0.913228330231D-07 0.000000000000D+00 0.000000000000D+00 0.184411419552D-06 0.000000000000D+00  6 1 1 25 23 1 1 4 0.18700368D-02 0.31548134D+00 0.23741815D+05 0.23741815D+05 0.23741815D+05 0.12257093D+01  1  2 12  5  6  1       21 0.511332431559D-04 0.100000000000D+01
-.785869341309D-06 0.000000000000D+00 -.158507020108D-06 0.185368132798D-06 0.000000000000D+00  6 1 1 25 23 1 1 4 0.19051501D-02 0.31548134D+00 0.22191872D+05 0.22191872D+05 0.22191872D+05 0.12288847D+01  1  2  5  5  6  1       21 -.433200877116D-03 0.100000000000D+01
0.913228330231D-07 0.000000000000D+00 0.000000000000D+00 0.184411419552D-06 0.000000000000D+00  6 -2 1 25 23 1 -2 4 0.18700368D-02 0.31548134D+00 0.23741815D+05 0.23741815D+05 0.23741815D+05 0.12257093D+01  1  2 12  6  6  1       21 0.484002568051D-04 0.100000000000D+01
0.913228330231D-07 0.000000000000D+00 0.000000000000D+00 0.184411419552D-06 0.000000000000D+00  6 -4 1 25 23 1 -4 4 0.18700368D-02 0.31548134D+00 0.23741815D+05 0.23741815D+05 0.23741815D+05 0.12257093D+01  1  2 12  6  6  1       21 0.347203455602D-04 0.100000000000D+01
-.785869341309D-06 0.000000000000D+00 -.158507020108D-06 0.185368132798D-06 0.000000000000D+00  6 -2 1 25 23 1 -2 4 0.19051501D-02 0.31548134D+00 0.22191872D+05 0.22191872D+05 0.22191872D+05 0.12288847D+01  1  2  5  6  6  1       21 -.409596577731D-03 0.100000000000D+01
-.785869341309D-06 0.000000000000D+00 -.158507020108D-06 0.185368132798D-06 0.000000000000D+00  6 -4 1 25 23 1 -4 4 0.19051501D-02 0.31548134D+00 0.22191872D+05 0.22191872D+05 0.22191872D+05 0.12288847D+01  1  2  5  6  6  1       21 -.292781888882D-03 0.100000000000D+01
0.913228330231D-07 0.000000000000D+00 0.000000000000D+00 0.184411419552D-06 0.000000000000D+00  6 2 1 25 23 1 2 4 0.18700368D-02 0.31548134D+00 0.23741815D+05 0.23741815D+05 0.23741815D+05 0.12257093D+01  1  2 12  7  6  1       21 0.527310697322D-04 0.100000000000D+01
0.913228330231D-07 0.000000000000D+00 0.000000000000D+00 0.184411419552D-06 0.000000000000D+00  6 4 1 25 23 1 4 4 0.18700368D-02 0.31548134D+00 0.23741815D+05 0.23741815D+05 0.23741815D+05 0.12257093D+01  1  2 12  7  6  1       21 0.347203455602D-04 0.100000000000D+01
-.785869341309D-06 0.000000000000D+00 -.158507020108D-06 0.185368132798D-06 0.000000000000D+00  6 2 1 25 23 1 2 4 0.19051501D-02 0.31548134D+00 0.22191872D+05 0.22191872D+05 0.22191872D+05 0.12288847D+01  1  2  5  7  6  1       21 -.446991822119D-03 0.100000000000D+01
-.785869341309D-06 0.000000000000D+00 -.158507020108D-06 0.185368132798D-06 0.000000000000D+00  6 4 1 25 23 1 4 4 0.19051501D-02 0.31548134D+00 0.22191872D+05 0.22191872D+05 0.22191872D+05 0.12288847D+01  1  2  5  7  6  1       21 -.292781888882D-03 0.100000000000D+01
0.913228330231D-07 0.000000000000D+00 0.000000000000D+00 0.184411419552D-06 0.000000000000D+00  6 -3 1 25 23 1 -3 4 0.18700368D-02 0.31548134D+00 0.23741815D+05 0.23741815D+05 0.23741815D+05 0.12257093D+01  1  2 12  8  6  1       21 0.380901735436D-04 0.100000000000D+01
-.785869341309D-06 0.000000000000D+00 -.158507020108D-06 0.185368132798D-06 0.000000000000D+00  6 -3 1 25 23 1 -3 4 0.19051501D-02 0.31548134D+00 0.22191872D+05 0.22191872D+05 0.22191872D+05 0.12288847D+01  1  2  5  8  6  1       21 -.321502240579D-03 0.100000000000D+01
0.913228330231D-07 0.000000000000D+00 0.000000000000D+00 0.184411419552D-06 0.000000000000D+00  6 3 1 25 23 1 3 4 0.18700368D-02 0.31548134D+00 0.23741815D+05 0.23741815D+05 0.23741815D+05 0.12257093D+01  1  2 12  9  6  1       21 0.380881248533D-04 0.100000000000D+01
-.785869341309D-06 0.000000000000D+00 -.158507020108D-06 0.185368132798D-06 0.000000000000D+00  6 3 1 25 23 1 3 4 0.19051501D-02 0.31548134D+00 0.22191872D+05 0.22191872D+05 0.22191872D+05 0.12288847D+01  1  2  5  9  6  1       21 -.321484634279D-03 0.100000000000D+01
  </mgrwgt>
  </event>
  <event>
  5     66 0.44737074E-03 0.20948300E+02 0.75467711E-02 0.12254620E+00
       21 -1    0    0  501  502 0.00000000E+00 0.00000000E+00 0.20631515E+03 0.20631652E+03 0.75000000E+00 0.0000E+00 0.9000E+01
        1 -1    0    0  502    0 0.00000000E+00 0.00000000E+00 -.15643238E+03 0.15643271E+03 0.32000000E+00 0.0000E+00 0.9000E+01
       25  1    1    2    0    0 0.44275196E+02 -.88472586E-01 -.96245388E+02 0.16385504E+03 0.12500000E+03 0.0000E+00 0.9000E+01
       23  1    1    2    0    0 -.57782073E+02 0.16100235E+02 0.99158676E+02 0.14746416E+03 0.91188000E+02 0.0000E+00 0.9000E+01
        1  1    1    2  501    0 0.13506877E+02 -.16011762E+02 0.46969481E+02 0.51430019E+02 0.32000000E+00 0.0000E+00 0.9000E+01
#aMCatNLO 1  0  0  2  1 0.10519067D+02 0.00000000D+00  -5  6  0 0.00000000D+00 0.00000000D+00 0.00000000D+00 0.00000000D+00 0.00000000D+00
  <mgrwgt>
 0.2052732901D+00    9    2    0
 0.179651545770579D+03 0.000000000000000D+00 0.000000000000000D+00 0.179651545770579D+03
 0.179651545770579D+03 0.000000000000000D+00 0.000000000000000D+00 -.179651545770579D+03
 0.178788838513964D+03 0.442750290648370D+02 -.882746853328449D-01 -.119917316456215D+03
 0.135111970298062D+03 -.577821987602634D+02 0.161003842124180D+02 0.796366015627633D+02
 0.454022827291312D+02 0.135071696954265D+02 -.160121095270852D+02 0.402807148934518D+02
 0.000000000000000D+00 0.000000000000000D+00 -.000000000000000D+00 -.000000000000000D+00
 0.183559883332593D+03 0.000000000000000D+00 0.000000000000000D+00 0.183559883332593D+03
 0.186948582561575D+03 0.000000000000000D+00 0.000000000000000D+00 -.186948582561575D+03
 0.177708867645457D+03 0.396244351754960D+02 0.227661828015714D+01 -.119917316456215D+03
 0.136891402627781D+03 -.613305448005136D+02 0.179047685102912D+02 0.796366015627633D+02
 0.448567679957639D+02 0.123297197918044D+02 -.154133595479320D+02 0.402807148934518D+02
 0.110514276251653D+02 0.937638983321329D+01 -.476802724251636D+01 -.338869922898204D+01
0.517574920037D-05 0.000000000000D+00 0.000000000000D+00 0.814237577252D-06 0.000000000000D+00  6 21 1 25 23 1 21 2 0.31740923D-01 0.24066651D-01 0.17253570D+05 0.17253570D+05 0.17253570D+05 0.12409517D+01  1  2  2  2  6  2        1 0.165610258134D-01 0.100000000000D+01
0.469562966877D-06 0.273131789176D-06 -.104483464361D-07 0.814237577252D-06 0.000000000000D+00  6 21 1 25 23 1 21 4 0.31740923D-01 0.24066651D-01 0.17253570D+05 0.17253570D+05 0.17253570D+05 0.12409517D+01  1  2  3  2  6  2        1 0.231375608427D-02 0.100000000000D+01
0.492134353332D-06 0.000000000000D+00 0.000000000000D+00 0.814237577252D-06 0.000000000000D+00  6 21 1 25 23 1 21 4 0.31740923D-01 0.24066651D-01 0.17253570D+05 0.17253570D+05 0.17253570D+05 0.12409517D+01  1  2 15  2  6  2        1 0.242497584907D-02 0.100000000000D+01
0.414827625796D-04 0.000000000000D+00 0.000000000000D+00 0.809473263023D-06 0.000000000000D+00  6 21 1 25 23 1 21 4 0.31740923D-01 0.25297722D-01 0.18598147D+05 0.18598147D+05 0.18598147D+05 0.12373158D+01  1  2 12  2  6  2        1 0.189716353425D+00 0.100000000000D+01
-.738438362277D-05 0.000000000000D+00 0.000000000000D+00 0.814237577252D-06 0.000000000000D+00  6 21 1 25 23 1 21 4 0.31740923D-01 0.24066651D-01 0.17253570D+05 0.17253570D+05 0.17253570D+05 0.12409517D+01  1  2  4  2  6  2        1 -.363863075688D-01 0.100000000000D+01
-.204154977102D-03 0.000000000000D+00 -.356015627278D-04 0.814237577252D-06 0.000000000000D+00  6 21 1 25 23 1 21 4 0.31740923D-01 0.25551813D-01 0.17253570D+05 0.17253570D+05 0.17253570D+05 0.12409517D+01  1  2  5  2  6  2        1 -.933167970136D+00 0.100000000000D+01
0.205981164888D-03 0.000000000000D+00 0.355378287333D-04 0.814237577252D-06 0.000000000000D+00  6 21 1 25 23 1 21 4 0.31740923D-01 0.24066651D-01 0.17253570D+05 0.17253570D+05 0.17253570D+05 0.12409517D+01  1  2  6  2  6  2        1 0.101496541917D+01 0.100000000000D+01
0.527734718277D-06 0.000000000000D+00 0.000000000000D+00 0.809473263023D-06 0.000000000000D+00  6 21 21 25 23 1 -1 4 0.31740923D-01 0.25297722D-01 0.18598147D+05 0.18598147D+05 0.18598147D+05 0.12373158D+01  1  2 12 10  6  2        1 0.178032756559D-01 0.100000000000D+01
-.205544255268D-05 0.000000000000D+00 -.366175194628D-06 0.814237577252D-06 0.000000000000D+00  6 21 21 25 23 1 -1 4 0.31740923D-01 0.25551813D-01 0.17253570D+05 0.17253570D+05 0.17253570D+05 0.12409517D+01  1  2  5 10  6  2        1 -.689572382304D-01 0.100000000000D+01
  </mgrwgt>
  </event>
  <event>
  5     66 0.44737074E-03 0.25181470E+02 0.75467711E-02 0.11517206E+00
       21 -1    0    0  501  502 0.00000000E+00 0.00000000E+00 0.45653627E+02 0.45659787E+02 0.75000000E+00 0.0000E+00 0.9000E+01
        1 -1    0    0  502    0 0.00000000E+00 0.00000000E+00 -.30245238E+04 0.30245238E+04 0.32000000E+00 0.0000E+00 0.9000E+01
       25  1    1    2    0    0 0.52686836E+02 0.12967448E+03 -.20405184E+04 0.20491295E+04 0.12500000E+03 0.0000E+00 0.9000E+01
       23  1    1    2    0    0 -.77174687E+02 -.12380497E+03 -.96741727E+03 0.98259606E+03 0.91188000E+02 0.0000E+00 0.9000E+01
        1  1    1    2  501    0 0.24487851E+02 -.58695036E+01 0.29065565E+02 0.38457969E+02 0.32000000E+00 0.0000E+00 0.9000E+01
#aMCatNLO 1  0  0  1  2 0.80853325D+01 0.00000000D+00  -5  6  0 0.00000000D+00 0.00000000D+00 0.00000000D+00 0.00000000D+00 0.00000000D+00
  <mgrwgt>
 0.3821649984D+00   32    2    0
 0.371604577116831D+03 0.000000000000000D+00 0.000000000000000D+00 0.371604577116831D+03
 0.371604577116831D+03 0.000000000000000D+00 0.000000000000000D+00 -.371604577116831D+03
 0.286278013367480D+03 0.526868296105192D+02 0.129674477047982D+03 -.216191417326303D+03
 0.181563817609435D+03 -.771746909239006D+02 -.123804970984344D+03 -.580221057983791D+02
 0.275367323256746D+03 0.244878613133814D+02 -.586950606363715D+01 0.274213523124682D+03
 0.000000000000000D+00 -.000000000000000D+00 0.000000000000000D+00 0.000000000000000D+00
 0.415816674657021D+03 0.000000000000000D+00 0.000000000000000D+00 0.415816674657021D+03
 0.371996403741220D+03 0.000000000000000D+00 0.000000000000000D+00 -.371996403741220D+03
 0.285909614809643D+03 0.551799078831999D+02 0.127811410605800D+03 -.216191417326303D+03
 0.181708277999152D+03 -.755918783567744D+02 -.124987799863161D+03 -.580221057983791D+02
 0.275635240072622D+03 0.268886341563806D+02 -.766359306367492D+01 0.274213523124682D+03
 0.445599455168239D+02 -.647666368280609D+01 0.483998232103585D+01 0.438202709158010D+02
0.406586250303D-04 0.000000000000D+00 0.000000000000D+00 0.557079368504D-05 0.000000000000D+00  6 21 1 25 23 1 21 2 0.70241100D-02 0.46531183D+00 0.37034098D+05 0.37034098D+05 0.37034098D+05 0.12054128D+01  1  2  2  1  6  1       21 0.718292427454D-02 0.100000000000D+01
0.161349132247D-04 0.214561459028D-05 -.820780496670D-07 0.557079368504D-05 0.000000000000D+00  6 21 1 25 23 1 21 4 0.70241100D-02 0.46531183D+00 0.37034098D+05 0.37034098D+05 0.37034098D+05 0.12054128D+01  1  2  3  1  6  1       21 0.414177835222D-02 0.100000000000D+01
0.443167164760D-05 0.000000000000D+00 0.000000000000D+00 0.557079368504D-05 0.000000000000D+00  6 21 1 25 23 1 21 4 0.70241100D-02 0.46531183D+00 0.37034098D+05 0.37034098D+05 0.37034098D+05 0.12054128D+01  1  2 15  1  6  1       21 0.113759531512D-02 0.100000000000D+01
0.318613988343D-02 0.000000000000D+00 0.000000000000D+00 0.554884329589D-05 0.000000000000D+00  6 21 1 25 23 1 21 4 0.78632561D-02 0.46531183D+00 0.39073065D+05 0.39073065D+05 0.39073065D+05 0.12030357D+01  1  2 12  1  6  1       21 0.664845371331D+00 0.100000000000D+01
-.218646854547D-02 0.000000000000D+00 0.000000000000D+00 0.557079368504D-05 0.000000000000D+00  6 21 1 25 23 1 21 4 0.70241100D-02 0.46531183D+00 0.37034098D+05 0.37034098D+05 0.37034098D+05 0.12054128D+01  1  2  4  1  6  1       21 -.561259175265D+00 0.100000000000D+01
-.664936969205D-02 0.000000000000D+00 -.118761499908D-03 0.557079368504D-05 0.000000000000D+00  6 21 1 25 23 1 21 4 0.78650046D-02 0.46531183D+00 0.37034098D+05 0.37034098D+05 0.37034098D+05 0.12054128D+01  1  2  5  1  6  1       21 -.140310348920D+01 0.100000000000D+01
0.653095547320D-02 0.000000000000D+00 0.115778714114D-03 0.557079368504D-05 0.000000000000D+00  6 21 1 25 23 1 21 4 0.70241100D-02 0.46531183D+00 0.37034098D+05 0.37034098D+05 0.37034098D+05 0.12054128D+01  1  2  6  1  6  1       21 0.167647446389D+01 0.100000000000D+01
0.690706702300D-05 0.000000000000D+00 0.000000000000D+00 0.557079368504D-05 0.756301470226D-06  6 21 1 25 23 1 21 4 0.78598119D-02 0.46580246D+00 0.39073065D+05 0.39073065D+05 0.39073065D+05 0.12030357D+01  1  2 11  1  6  1       21 0.143502087671D-02 0.100000000000D+01
0.862166872117D-04 0.000000000000D+00 0.000000000000D+00 0.554884329589D-05 0.000000000000D+00  6 -1 1 25 23 1 -1 4 0.78632561D-02 0.46531183D+00 0.39073065D+05 0.39073065D+05 0.39073065D+05 0.12030357D+01  1  2 12  4  6  1       21 0.114591801272D-02 0.100000000000D+01
-.177441136801D-03 0.000000000000D+00 -.348827252951D-05 0.557079368504D-05 0.000000000000D+00  6 -1 1 25 23 1 -1 4 0.78650046D-02 0.46531183D+00 0.37034098D+05 0.37034098D+05 0.37034098D+05 0.12054128D+01  1  2  5  4  6  1       21 -.238229301289D-02 0.100000000000D+01
0.863590228043D-06 0.000000000000D+00 0.000000000000D+00 0.557079368504D-05 0.757749884368D-07  6 -1 1 25 23 1 -1 4 0.78598119D-02 0.46580246D+00 0.39073065D+05 0.39073065D+05 0.39073065D+05 0.12030357D+01  1  2 11  4  6  1       21 0.114271278047D-04 0.100000000000D+01
0.862166872117D-04 0.000000000000D+00 0.000000000000D+00 0.554884329589D-05 0.000000000000D+00  6 1 1 25 23 1 1 4 0.78632561D-02 0.46531183D+00 0.39073065D+05 0.39073065D+05 0.39073065D+05 0.12030357D+01  1  2 12  5  6  1       21 0.137309099355D-02 0.100000000000D+01
-.177441136801D-03 0.000000000000D+00 -.348827252951D-05 0.557079368504D-05 0.000000000000D+00  6 1 1 25 23 1 1 4 0.78650046D-02 0.46531183D+00 0.37034098D+05 0.37034098D+05 0.37034098D+05 0.12054128D+01  1  2  5  5  6  1       21 -.285488866045D-02 0.100000000000D+01
0.142699482249D-05 0.000000000000D+00 0.000000000000D+00 0.557079368504D-05 0.567904428452D-07  6 1 1 25 23 1 1 4 0.78598119D-02 0.46580246D+00 0.39073065D+05 0.39073065D+05 0.39073065D+05 0.12030357D+01  1  2 11  5  6  1       21 0.226238283609D-04 0.100000000000D+01
0.862166872117D-04 0.000000000000D+00 0.000000000000D+00 0.554884329589D-05 0.000000000000D+00  6 -2 1 25 23 1 -2 4 0.78632561D-02 0.46531183D+00 0.39073065D+05 0.39073065D+05 0.39073065D+05 0.12030357D+01  1  2 12  6  6  1       21 0.110638805685D-02 0.100000000000D+01
0.862166872117D-04 0.000000000000D+00 0.000000000000D+00 0.554884329589D-05 0.000000000000D+00  6 -4 1 25 23 1 -4 4 0.78632561D-02 0.46531183D+00 0.39073065D+05 0.39073065D+05 0.39073065D+05 0.12030357D+01  1  2 12  6  6  1       21 0.697595413065D-03 0.100000000000D+01
-.177441136801D-03 0.000000000000D+00 -.348827252951D-05 0.557079368504D-05 0.000000000000D+00  6 -2 1 25 23 1 -2 4 0.78650046D-02 0.46531183D+00 0.37034098D+05 0.37034098D+05 0.37034098D+05 0.12054128D+01  1  2  5  6  6  1       21 -.230004239922D-02 0.100000000000D+01
-.177441136801D-03 0.000000000000D+00 -.348827252951D-05 0.557079368504D-05 0.000000000000D+00  6 -4 1 25 23 1 -4 4 0.78650046D-02 0.46531183D+00 0.37034098D+05 0.37034098D+05 0.37034098D+05 0.12054128D+01  1  2  5  6  6  1       21 -.144794588747D-02 0.100000000000D+01
0.495277740541D-06 0.000000000000D+00 0.000000000000D+00 0.557079368504D-05 0.286461097853D-07  6 -2 1 25 23 1 -2 4 0.78598119D-02 0.46580246D+00 0.39073065D+05 0.39073065D+05 0.39073065D+05 0.12030357D+01  1  2 11  6  6  1       21 0.632759622227D-05 0.100000000000D+01
0.495277740541D-06 0.000000000000D+00 0.000000000000D+00 0.557079368504D-05 0.286461097853D-07  6 -4 1 25 23 1 -4 4 0.78598119D-02 0.46580246D+00 0.39073065D+05 0.39073065D+05 0.39073065D+05 0.12030357D+01  1  2 11  6  6  1       21 0.398984480004D-05 0.100000000000D+01
0.862166872117D-04 0.000000000000D+00 0.000000000000D+00 0.554884329589D-05 0.000000000000D+00  6 2 1 25 23 1 2 4 0.78632561D-02 0.46531183D+00 0.39073065D+05 0.39073065D+05 0.39073065D+05 0.12030357D+01  1  2 12  7  6  1       21 0.152640133149D-02 0.100000000000D+01
0.862166872117D-04 0.000000000000D+00 0.000000000000D+00 0.554884329589D-05 0.000000000000D+00  6 4 1 25 23 1 4 4 0.78632561D-02 0.46531183D+00 0.39073065D+05 0.39073065D+05 0.39073065D+05 0.12030357D+01  1  2 12  7  6  1       21 0.697595413065D-03 0.100000000000D+01
-.177441136801D-03 0.000000000000D+00 -.348827252951D-05 0.557079368504D-05 0.000000000000D+00  6 2 1 25 23 1 2 4 0.78650046D-02 0.46531183D+00 0.37034098D+05 0.37034098D+05 0.37034098D+05 0.12054128D+01  1  2  5  7  6  1       21 -.317372817538D-02 0.100000000000D+01
-.177441136801D-03 0.000000000000D+00 -.348827252951D-05 0.557079368504D-05 0.000000000000D+00  6 4 1 25 23 1 4 4 0.78650046D-02 0.46531183D+00 0.37034098D+05 0.37034098D+05 0.37034098D+05 0.12054128D+01  1  2  5  7  6  1       21 -.144794588747D-02 0.100000000000D+01
0.494874363670D-06 0.000000000000D+00 0.000000000000D+00 0.557079368504D-05 0.286227790818D-07  6 2 1 25 23 1 2 4 0.78598119D-02 0.46580246D+00 0.39073065D+05 0.39073065D+05 0.39073065D+05 0.12030357D+01  1  2 11  7  6  1       21 0.872151233748D-05 0.100000000000D+01
0.494874363670D-06 0.000000000000D+00 0.000000000000D+00 0.557079368504D-05 0.286227790818D-07  6 4 1 25 23 1 4 4 0.78598119D-02 0.46580246D+00 0.39073065D+05 0.39073065D+05 0.39073065D+05 0.12030357D+01  1  2 11  7  6  1       21 0.398659528774D-05 0.100000000000D+01
0.862166872117D-04 0.000000000000D+00 0.000000000000D+00 0.554884329589D-05 0.000000000000D+00  6 -3 1 25 23 1 -3 4 0.78632561D-02 0.46531183D+00 0.39073065D+05 0.39073065D+05 0.39073065D+05 0.12030357D+01  1  2 12  8  6  1       21 0.787581438553D-03 0.100000000000D+01
-.177441136801D-03 0.000000000000D+00 -.348827252951D-05 0.557079368504D-05 0.000000000000D+00  6 -3 1 25 23 1 -3 4 0.78650046D-02 0.46531183D+00 0.37034098D+05 0.37034098D+05 0.37034098D+05 0.12054128D+01  1  2  5  8  6  1       21 -.163551044701D-02 0.100000000000D+01
0.497150401393D-06 0.000000000000D+00 0.000000000000D+00 0.557079368504D-05 0.287544216354D-07  6 -3 1 25 23 1 -3 4 0.78598119D-02 0.46580246D+00 0.39073065D+05 0.39073065D+05 0.39073065D+05 0.12030357D+01  1  2 11  8  6  1       21 0.452148621478D-05 0.100000000000D+01
0.862166872117D-04 0.000000000000D+00 0.000000000000D+00 0.554884329589D-05 0.000000000000D+00  6 3 1 25 23 1 3 4 0.78632561D-02 0.46531183D+00 0.39073065D+05 0.39073065D+05 0.39073065D+05 0.12030357D+01  1  2 12  9  6  1       21 0.787492709338D-03 0.100000000000D+01
-.177441136801D-03 0.000000000000D+00 -.348827252951D-05 0.557079368504D-05 0.000000000000D+00  6 3 1 25 23 1 3 4 0.78650046D-02 0.46531183D+00 0.37034098D+05 0.37034098D+05 0.37034098D+05 0.12054128D+01  1  2  5  9  6  1       21 -.163532534522D-02 0.100000000000D+01
0.497847221896D-06 0.000000000000D+00 0.000000000000D+00 0.557079368504D-05 0.287947246714D-07  6 3 1 25 23 1 3 4 0.78598119D-02 0.46580246D+00 0.39073065D+05 0.39073065D+05 0.39073065D+05 0.12030357D+01  1  2 11  9  6  1       21 0.452731362372D-05 0.100000000000D+01
  </mgrwgt>
  </event>
  <event>
  6     66 -.44737074E-03 0.12451892E+03 0.75467711E-02 0.10952508E+00
       21 -1    0    0  503  502 0.00000000E+00 0.00000000E+00 0.21186455E+03 0.21186587E+03 0.75000000E+00 0.0000E+00 0.9000E+01
        1 -1    0    0  502    0 0.00000000E+00 0.00000000E+00 -.47353551E+03 0.47353562E+03 0.32000000E+00 0.0000E+00 0.9000E+01
       25  1    1    2    0    0 0.14936634E+02 -.22253354E+03 -.26202939E+03 0.36609928E+03 0.12500000E+03 0.0000E+00 0.9000E+01
       23  1    1    2    0    0 0.63733280E+02 0.97420264E+02 0.45147337E+02 0.15461621E+03 0.91188000E+02 0.0000E+00 0.9000E+01
        1  1    1    2  501    0 -.86815244E+02 0.10429234E+03 -.42508241E+02 0.14219997E+03 0.32000000E+00 0.0000E+00 0.9000E+01
       21  1    1    2  503  501 0.81453291E+01 0.20820935E+02 -.22806709E+01 0.22486033E+02 0.75000000E+00 0.0000E+00 0.9000E+01
#aMCatNLO 2  0  0  1  2 0.22357498D+02 0.00000000D+00  -5  6  0 0.00000000D+00 0.00000000D+00 0.00000000D+00 0.00000000D+00 0.00000000D+00
  <mgrwgt>
 -.2024609510D-01    3    2    0
 0.304825246435439D+03 0.000000000000000D+00 0.000000000000000D+00 0.304825246435439D+03
 0.304825246435439D+03 0.000000000000000D+00 0.000000000000000D+00 -.304825246435439D+03
 0.279198278512953D+03 0.187138894442519D+02 -.212878590614725D+03 -.129070425444223D+03
 0.191512592129934D+03 0.662624795180913D+02 0.103885083016551D+03 0.114799803724071D+03
 0.138939622227992D+03 -.849763689623432D+02 0.108993507598174D+03 0.142706217201526D+02
 0.000000000000000D+00 0.000000000000000D+00 0.000000000000000D+00 0.000000000000000D+00
 0.320297580032222D+03 0.000000000000000D+00 0.000000000000000D+00 0.320297580032222D+03
 0.313215190822916D+03 0.000000000000000D+00 0.000000000000000D+00 -.313215190822916D+03
 0.286406212537682D+03 0.149367360934182D+02 -.222533677834846D+03 -.129070425444223D+03
 0.187208110740154D+03 0.637333514886821D+02 0.974201742753146D+02 0.114799803724071D+03
 0.136445986172577D+03 -.868154167245161D+02 0.104292568849731D+03 0.142706217201526D+02
 0.234524614047252D+02 0.814532914241571D+01 0.208209347097998D+02 0.708238920930604D+01
-.340287789595D-04 0.000000000000D+00 0.000000000000D+00 0.299510569297D-07 0.000000000000D+00  6 21 1 25 23 1 21 4 0.33004016D-01 0.70898937D-01 0.78850714D+05 0.78850714D+05 0.78850714D+05 0.11731721D+01  1  2 13  1  6  1       21 -.308789717648D-01 0.100000000000D+01
-.162398585904D-05 0.000000000000D+00 0.000000000000D+00 0.301232174267D-07 0.000000000000D+00  6 21 1 25 23 1 21 4 0.31019546D-01 0.70898937D-01 0.72648810D+05 0.72648810D+05 0.72648810D+05 0.11765390D+01  1  2  8  1  6  1       21 -.168983167953D-02 0.100000000000D+01
0.137297144891D-04 0.000000000000D+00 0.000000000000D+00 0.301232174267D-07 0.993416479202D-09  6 21 1 25 23 1 21 4 0.32594037D-01 0.72850344D-01 0.78850714D+05 0.78850714D+05 0.78850714D+05 0.11731721D+01  1  2  1  1  6  1       21 0.123227083479D-01 0.100000000000D+01
  </mgrwgt>
  </event>
  <event>
  6     66 0.44737074E-03 0.13297109E+03 0.75467711E-02 0.10696618E+00
       21 -1    0    0  503  502 0.00000000E+00 0.00000000E+00 0.49519288E+03 0.49519345E+03 0.75000000E+00 0.0000E+00 0.9000E+01
        1 -1    0    0  502    0 0.00000000E+00 0.00000000E+00 -.12783790E+04 0.12783791E+04 0.32000000E+00 0.0000E+00 0.9000E+01
       25  1    1    2    0    0 0.33066791E+02 0.22229259E+02 -.11556628E+03 0.17483741E+03 0.12500000E+03 0.0000E+00 0.9000E+01
       23  1    1    2    0    0 -.83785482E+02 -.61477802E+02 -.10938264E+03 0.17629334E+03 0.91188000E+02 0.0000E+00 0.9000E+01
        1  1    1    2  501    0 0.11422061E+01 -.17618737E+03 -.95345473E+03 0.96959751E+03 0.32000000E+00 0.0000E+00 0.9000E+01
       21  1    1    2  503  501 0.49576485E+02 0.21543591E+03 0.39521753E+03 0.45284425E+03 0.75000000E+00 0.0000E+00 0.9000E+01
#aMCatNLO 2  0  0  1  2 0.69639264D+00 0.00000000D+00  -5  6  0 0.00000000D+00 0.00000000D+00 0.00000000D+00 0.00000000D+00 0.00000000D+00
  <mgrwgt>
 0.4682899298D-01    1    2    0
 0.276955532157087D+03 0.000000000000000D+00 0.000000000000000D+00 0.276955532157087D+03
 0.276955532157087D+03 0.000000000000000D+00 0.000000000000000D+00 -.276955532157087D+03
 0.182623743280588D+03 0.477831689046211D+02 0.861797277191097D+02 0.895335406956885D+02
 0.156235179860226D+03 -.695408712847471D+02 0.422582916910009D+00 0.106104046702252D+03
 0.215052141173360D+03 0.217577023801260D+02 -.866023106360197D+02 -.195637587397941D+03
 0.000000000000000D+00 0.000000000000000D+00 0.000000000000000D+00 0.000000000000000D+00
 0.207505287789348D+04 0.000000000000000D+00 0.000000000000000D+00 0.207505287789348D+04
 0.305073867039537D+03 0.000000000000000D+00 0.000000000000000D+00 -.305073867039537D+03
 0.158835787727763D+03 0.330667797074348D+02 0.222292742430405D+02 0.895335406956885D+02
 0.174278075466872D+03 -.837854925605364D+02 -.614777907396769D+02 0.106104046702252D+03
 0.263281916209856D+03 0.114222817170946D+01 -.176187392043388D+03 -.195637587397941D+03
 0.178373096552853D+04 0.495764846813922D+02 0.215435908540024D+03 0.176997901085395D+04
0.161513878189D-02 0.000000000000D+00 0.000000000000D+00 0.857482668744D-07 0.127114034438D-08  6 21 1 25 23 1 21 4 0.76183548D-01 0.19667369D+00 0.11112574D+06 0.11112574D+06 0.11112574D+06 0.11593863D+01  1  2  1  1  6  1       21 0.468289929773D-01 0.100000000000D+01
  </mgrwgt>
  </event>
  <event>
  5     66 -.44737074E-03 0.66895823E+02 0.75467711E-02 0.11579626E+00
       21 -1    0    0  501  502 0.00000000E+00 0.00000000E+00 0.74994845E+02 0.74998595E+02 0.75000000E+00 0.0000E+00 0.9000E+01
        1 -1    0    0  502    0 -.00000000E+00 -.00000000E+00 -.19216204E+04 0.19216204E+04 0.32000000E+00 0.0000E+00 0.9000E+01
       25  1    1    2    0    0 0.28567276E+02 -.12569466E+03 -.56949876E+03 0.59713405E+03 0.12500000E+03 0.0000E+00 0.9000E+01
       23  1    1    2    0    0 0.20390462E+02 0.80107509E+02 -.13162475E+04 0.13219893E+04 0.91188000E+02 0.0000E+00 0.9000E+01
        1  1    1    2  501    0 -.48957738E+02 0.45587147E+02 0.39120700E+02 0.77495675E+02 0.32000000E+00 0.0000E+00 0.9000E+01
#aMCatNLO 1  0  0  5  1 0.13347293D+02 0.00000000D+00  -5  6  0 0.00000000D+00 0.00000000D+00 0.00000000D+00 0.00000000D+00 0.00000000D+00
  <mgrwgt>
 -.4714665129D-01    6    2    0
 0.379625333938462D+03 0.000000000000000D+00 0.000000000000000D+00 0.379625333938462D+03
 0.379625333938462D+03 -.000000000000000D+00 -.000000000000000D+00 -.379625333938462D+03
 0.185180278728489D+03 0.285672825465145D+02 -.125694662130734D+03 -.452934643156053D+02
 0.275130157561776D+03 0.203904721879023D+02 0.801074991983122D+02 -.246065782814503D+03
 0.298940231586660D+03 -.489577547344168D+02 0.455871629324221D+02 0.291359247130108D+03
 0.000000000000000D+00 0.000000000000000D+00 0.000000000000000D+00 0.000000000000000D+00
 0.379625333938462D+03 0.000000000000000D+00 0.000000000000000D+00 0.379625333938462D+03
 0.379625333938462D+03 -.000000000000000D+00 -.000000000000000D+00 -.379625333938462D+03
 0.184920448004661D+03 0.284508589914145D+02 -.125586253981621D+03 -.446006000381043D+02
 0.274244967545744D+03 0.202176538156904D+02 0.802684195537183D+02 -.245037299562134D+03
 0.264189657889386D+03 -.438401664351059D+02 0.533920671472381D+02 0.254997063332889D+03
 0.358955944371350D+02 -.482834637199895D+01 -.807423271933562D+01 0.346408362673491D+02
0.576203487359D-05 0.000000000000D+00 0.000000000000D+00 0.106481809298D-05 0.000000000000D+00  6 21 1 25 23 1 21 2 0.11537959D-01 0.29563420D+00 0.34138041D+05 0.34138041D+05 0.34138041D+05 0.12090524D+01  1  2  2  3  6  5        1 0.230944082941D-02 0.100000000000D+01
0.661835851099D-06 0.304070934156D-06 -.116318882939D-07 0.106481809298D-05 0.000000000000D+00  6 21 1 25 23 1 21 4 0.11537959D-01 0.29563420D+00 0.34138041D+05 0.34138041D+05 0.34138041D+05 0.12090524D+01  1  2  3  3  6  5        1 0.387767594864D-03 0.100000000000D+01
0.556850297920D-06 0.000000000000D+00 0.000000000000D+00 0.106481809298D-05 0.000000000000D+00  6 21 1 25 23 1 21 4 0.11537959D-01 0.29563420D+00 0.34138041D+05 0.34138041D+05 0.34138041D+05 0.12090524D+01  1  2 15  3  6  5        1 0.326256881318D-03 0.100000000000D+01
-.973969442440D-04 0.000000000000D+00 0.000000000000D+00 0.106481809298D-05 0.000000000000D+00  6 21 1 25 23 1 21 4 0.11537959D-01 0.29563420D+00 0.34138041D+05 0.34138041D+05 0.34138041D+05 0.12090524D+01  1  2  4  3  6  5        1 -.570645708508D-01 0.100000000000D+01
-.924911871000D-04 0.000000000000D+00 0.000000000000D+00 0.106481809298D-05 0.000000000000D+00  6 21 1 25 23 1 21 4 0.11537959D-01 0.29563420D+00 0.34138041D+05 0.34138041D+05 0.34138041D+05 0.12090524D+01  1  2  5  3  6  5        1 -.541903027894D-01 0.100000000000D+01
0.104258537073D-03 0.000000000000D+00 -.000000000000D+00 0.106481809298D-05 0.000000000000D+00  6 21 1 25 23 1 21 4 0.11537959D-01 0.29563420D+00 0.34138041D+05 0.34138041D+05 0.34138041D+05 0.12090524D+01  1  2  6  3  6  5        1 0.610847570403D-01 0.100000000000D+01
  </mgrwgt>
  </event>
  <event>
  5     66 0.44737074E-03 0.75880482E+02 0.75467711E-02 0.11825789E+00
       21 -1    0    0  501  502 0.00000000E+00 0.00000000E+00 0.10025405E+02 0.10053420E+02 0.75000000E+00 0.0000E+00 0.9000E+01
        1 -1    0    0  502    0 0.00000000E+00 0.00000000E+00 -.36151468E+04 0.36151468E+04 0.32000000E+00 0.0000E+00 0.9000E+01
       25  1    1    2    0    0 -.83763201E+02 -.59655807E+01 -.23959729E+04 0.24007005E+04 0.12500000E+03 0.0000E+00 0.9000E+01
       23  1    1    2    0    0 0.10297022E+02 -.29886045E+02 -.88315297E+03 0.88841073E+03 0.91188000E+02 0.0000E+00 0.9000E+01
        1  1    1    2  501    0 0.73466179E+02 0.35851625E+02 -.32599551E+03 0.33608897E+03 0.32000000E+00 0.0000E+00 0.9000E+01
#aMCatNLO 1  0  0  1  5 0.21261524D+01 0.00000000D+00  -5  6  0 0.00000000D+00 0.00000000D+00 0.00000000D+00 0.00000000D+00 0.00000000D+00
  <mgrwgt>
 0.1162427320D-01   41    2    0
 0.190510144200970D+03 0.000000000000000D+00 0.000000000000000D+00 0.190510144200970D+03
 0.190510144200970D+03 0.000000000000000D+00 0.000000000000000D+00 -.190510144200970D+03
 0.171242804399783D+03 -.837633327389375D+02 -.596564506818994D+01 -.815304435538571D+02
 0.965647178768030D+02 0.102969474024907D+02 -.298860810313181D+02 0.320755816882464D+01
 0.113212766125355D+03 0.734663853364468D+02 0.358517260995080D+02 0.783228853850324D+02
 0.000000000000000D+00 -.000000000000000D+00 -.000000000000000D+00 0.000000000000000D+00
 0.244809930403855D+03 0.000000000000000D+00 0.000000000000000D+00 0.244809930403855D+03
 0.190533924188688D+03 0.000000000000000D+00 0.000000000000000D+00 -.190533924188688D+03
 0.170778315901008D+03 -.828197280588422D+02 -.582345259747861D+01 -.815304435538571D+02
 0.965981884048803D+02 0.108298660194109D+02 -.298057751400626D+02 0.320755816882464D+01
 0.113649716180475D+03 0.740922779709530D+02 0.359460423126191D+02 0.783228853850324D+02
 0.543176341061801D+02 -.210241593152163D+01 -.316814575077908D+00 0.542760062151662D+02
0.347885572947D-06 0.000000000000D+00 0.000000000000D+00 0.326332110436D-06 0.000000000000D+00  6 21 1 25 23 1 21 2 0.15445260D-02 0.55617858D+00 0.27035154D+05 0.27035154D+05 0.27035154D+05 0.12196703D+01  1  2  2  1  6  1       21 0.295339574474D-03 0.100000000000D+01
-.930804926337D-08 0.183584260537D-07 -.702280741504D-09 0.326332110436D-06 0.000000000000D+00  6 21 1 25 23 1 21 4 0.15445260D-02 0.55617858D+00 0.27035154D+05 0.27035154D+05 0.27035154D+05 0.12196703D+01  1  2  3  1  6  1       21 -.117551669865D-04 0.100000000000D+01
0.350043931783D-07 0.000000000000D+00 0.000000000000D+00 0.326332110436D-06 0.000000000000D+00  6 21 1 25 23 1 21 4 0.15445260D-02 0.55617858D+00 0.27035154D+05 0.27035154D+05 0.27035154D+05 0.12196703D+01  1  2 15  1  6  1       21 0.442071668756D-04 0.100000000000D+01
0.482578745879D-06 0.000000000000D+00 0.000000000000D+00 0.325997964795D-06 0.000000000000D+00  6 21 1 25 23 1 21 4 0.19848291D-02 0.55617858D+00 0.27403941D+05 0.27403941D+05 0.27403941D+05 0.12190457D+01  1  2 12  1  6  1       21 0.405405598594D-03 0.100000000000D+01
0.481313438418D-06 0.000000000000D+00 0.000000000000D+00 0.325997964795D-06 0.000000000000D+00  6 21 1 25 23 1 21 4 0.19859040D-02 0.55617858D+00 0.27403941D+05 0.27403941D+05 0.27403941D+05 0.12190457D+01  1  2 12  1  6  1       21 0.403987725426D-03 0.100000000000D+01
-.465014780086D-03 0.000000000000D+00 0.000000000000D+00 0.326332110436D-06 0.000000000000D+00  6 21 1 25 23 1 21 4 0.15445260D-02 0.55617858D+00 0.27035154D+05 0.27035154D+05 0.27035154D+05 0.12196703D+01  1  2  4  1  6  1       21 -.587268743044D+00 0.100000000000D+01
-.532352137917D-03 0.000000000000D+00 -.542693895369D-06 0.326332110436D-06 0.000000000000D+00  6 21 1 25 23 1 21 4 0.19848708D-02 0.55617858D+00 0.27035154D+05 0.27035154D+05 0.27035154D+05 0.12196703D+01  1  2  5  1  6  1       21 -.448440975297D+00 0.100000000000D+01
0.488535449085D-03 0.000000000000D+00 0.480047740677D-06 0.326332110436D-06 0.000000000000D+00  6 21 1 25 23 1 21 4 0.15445260D-02 0.55617858D+00 0.27035154D+05 0.27035154D+05 0.27035154D+05 0.12196703D+01  1  2  6  1  6  1       21 0.616973075702D+00 0.100000000000D+01
0.511138653834D-03 0.000000000000D+00 0.000000000000D+00 0.326332110436D-06 0.135051759395D-05  6 21 1 25 23 1 21 4 0.19847516D-02 0.55624801D+00 0.27403941D+05 0.27403941D+05 0.27403941D+05 0.12190457D+01  1  2 11  1  6  1       21 0.429085017481D+00 0.100000000000D+01
0.298297988232D-07 0.000000000000D+00 0.000000000000D+00 0.325997964795D-06 0.000000000000D+00  6 -1 1 25 23 1 -1 4 0.19848291D-02 0.55617858D+00 0.27403941D+05 0.27403941D+05 0.27403941D+05 0.12190457D+01  1  2 12  4  6  1       21 0.121199577921D-05 0.100000000000D+01
0.298213801940D-07 0.000000000000D+00 0.000000000000D+00 0.325997964795D-06 0.000000000000D+00  6 -1 1 25 23 1 -1 4 0.19859040D-02 0.55617858D+00 0.27403941D+05 0.27403941D+05 0.27403941D+05 0.12190457D+01  1  2 12  4  6  1       21 0.121070325426D-05 0.100000000000D+01
-.328990124521D-04 0.000000000000D+00 -.410083350819D-07 0.326332110436D-06 0.000000000000D+00  6 -1 1 25 23 1 -1 4 0.19848708D-02 0.55617858D+00 0.27035154D+05 0.27035154D+05 0.27035154D+05 0.12196703D+01  1  2  5  4  6  1       21 -.134002614398D-02 0.100000000000D+01
0.342241209836D-04 0.000000000000D+00 0.000000000000D+00 0.326332110436D-06 0.904218808953D-07  6 -1 1 25 23 1 -1 4 0.19847516D-02 0.55624801D+00 0.27403941D+05 0.27403941D+05 0.27403941D+05 0.12190457D+01  1  2 11  4  6  1       21 0.138951498320D-02 0.100000000000D+01
0.298297988232D-07 0.000000000000D+00 0.000000000000D+00 0.325997964795D-06 0.000000000000D+00  6 1 1 25 23 1 1 4 0.19848291D-02 0.55617858D+00 0.27403941D+05 0.27403941D+05 0.27403941D+05 0.12190457D+01  1  2 12  5  6  1       21 0.127286200666D-05 0.100000000000D+01
0.298213801940D-07 0.000000000000D+00 0.000000000000D+00 0.325997964795D-06 0.000000000000D+00  6 1 1 25 23 1 1 4 0.19859040D-02 0.55617858D+00 0.27403941D+05 0.27403941D+05 0.27403941D+05 0.12190457D+01  1  2 12  5  6  1       21 0.127153738765D-05 0.100000000000D+01
-.328990124521D-04 0.000000000000D+00 -.410083350819D-07 0.326332110436D-06 0.000000000000D+00  6 1 1 25 23 1 1 4 0.19848708D-02 0.55617858D+00 0.27035154D+05 0.27035154D+05 0.27035154D+05 0.12196703D+01  1  2  5  5  6  1       21 -.140734399296D-02 0.100000000000D+01
0.332422230578D-04 0.000000000000D+00 0.000000000000D+00 0.326332110436D-06 0.439011291549D-07  6 1 1 25 23 1 1 4 0.19847516D-02 0.55624801D+00 0.27403941D+05 0.27403941D+05 0.27403941D+05 0.12190457D+01  1  2 11  5  6  1       21 0.141742601313D-02 0.100000000000D+01
0.298297988232D-07 0.000000000000D+00 0.000000000000D+00 0.325997964795D-06 0.000000000000D+00  6 -2 1 25 23 1 -2 4 0.19848291D-02 0.55617858D+00 0.27403941D+05 0.27403941D+05 0.27403941D+05 0.12190457D+01  1  2 12  6  6  1       21 0.120108899432D-05 0.100000000000D+01
0.298297988232D-07 0.000000000000D+00 0.000000000000D+00 0.325997964795D-06 0.000000000000D+00  6 -4 1 25 23 1 -4 4 0.19848291D-02 0.55617858D+00 0.27403941D+05 0.27403941D+05 0.27403941D+05 0.12190457D+01  1  2 12  6  6  1       21 0.860633389874D-06 0.100000000000D+01
0.298213801940D-07 0.000000000000D+00 0.000000000000D+00 0.325997964795D-06 0.000000000000D+00  6 -2 1 25 23 1 -2 4 0.19859040D-02 0.55617858D+00 0.27403941D+05 0.27403941D+05 0.27403941D+05 0.12190457D+01  1  2 12  6  6  1       21 0.119980211527D-05 0.100000000000D+01
0.298213801940D-07 0.000000000000D+00 0.000000000000D+00 0.325997964795D-06 0.000000000000D+00  6 -4 1 25 23 1 -4 4 0.19859040D-02 0.55617858D+00 0.27403941D+05 0.27403941D+05 0.27403941D+05 0.12190457D+01  1  2 12  6  6  1       21 0.859670624195D-06 0.100000000000D+01
-.328990124521D-04 0.000000000000D+00 -.410083350819D-07 0.326332110436D-06 0.000000000000D+00  6 -2 1 25 23 1 -2 4 0.19848708D-02 0.55617858D+00 0.27035154D+05 0.27035154D+05 0.27035154D+05 0.12196703D+01  1  2  5  6  6  1       21 -.132796300662D-02 0.100000000000D+01
-.328990124521D-04 0.000000000000D+00 -.410083350819D-07 0.326332110436D-06 0.000000000000D+00  6 -4 1 25 23 1 -4 4 0.19848708D-02 0.55617858D+00 0.27035154D+05 0.27035154D+05 0.27035154D+05 0.12196703D+01  1  2  5  6  6  1       21 -.951185904543D-03 0.100000000000D+01
0.331786304382D-04 0.000000000000D+00 0.000000000000D+00 0.326332110436D-06 0.876297894541D-07  6 -2 1 25 23 1 -2 4 0.19847516D-02 0.55624801D+00 0.27403941D+05 0.27403941D+05 0.27403941D+05 0.12190457D+01  1  2 11  6  6  1       21 0.133494576860D-02 0.100000000000D+01
0.331786304382D-04 0.000000000000D+00 0.000000000000D+00 0.326332110436D-06 0.876297894541D-07  6 -4 1 25 23 1 -4 4 0.19847516D-02 0.55624801D+00 0.27403941D+05 0.27403941D+05 0.27403941D+05 0.12190457D+01  1  2 11  6  6  1       21 0.956550952471D-03 0.100000000000D+01
0.298297988232D-07 0.000000000000D+00 0.000000000000D+00 0.325997964795D-06 0.000000000000D+00  6 2 1 25 23 1 2 4 0.19848291D-02 0.55617858D+00 0.27403941D+05 0.27403941D+05 0.27403941D+05 0.12190457D+01  1  2 12  7  6  1       21 0.131476014238D-05 0.100000000000D+01
0.298297988232D-07 0.000000000000D+00 0.000000000000D+00 0.325997964795D-06 0.000000000000D+00  6 4 1 25 23 1 4 4 0.19848291D-02 0.55617858D+00 0.27403941D+05 0.27403941D+05 0.27403941D+05 0.12190457D+01  1  2 12  7  6  1       21 0.860633389874D-06 0.100000000000D+01
0.298213801940D-07 0.000000000000D+00 0.000000000000D+00 0.325997964795D-06 0.000000000000D+00  6 2 1 25 23 1 2 4 0.19859040D-02 0.55617858D+00 0.27403941D+05 0.27403941D+05 0.27403941D+05 0.12190457D+01  1  2 12  7  6  1       21 0.131341282859D-05 0.100000000000D+01
0.298213801940D-07 0.000000000000D+00 0.000000000000D+00 0.325997964795D-06 0.000000000000D+00  6 4 1 25 23 1 4 4 0.19859040D-02 0.55617858D+00 0.27403941D+05 0.27403941D+05 0.27403941D+05 0.12190457D+01  1  2 12  7  6  1       21 0.859670624195D-06 0.100000000000D+01
-.328990124521D-04 0.000000000000D+00 -.410083350819D-07 0.326332110436D-06 0.000000000000D+00  6 2 1 25 23 1 2 4 0.19848708D-02 0.55617858D+00 0.27035154D+05 0.27035154D+05 0.27035154D+05 0.12196703D+01  1  2  5  7  6  1       21 -.145368215612D-02 0.100000000000D+01
-.328990124521D-04 0.000000000000D+00 -.410083350819D-07 0.326332110436D-06 0.000000000000D+00  6 4 1 25 23 1 4 4 0.19848708D-02 0.55617858D+00 0.27035154D+05 0.27035154D+05 0.27035154D+05 0.12196703D+01  1  2  5  7  6  1       21 -.951185904543D-03 0.100000000000D+01
0.331612764337D-04 0.000000000000D+00 0.000000000000D+00 0.326332110436D-06 0.875839548991D-07  6 2 1 25 23 1 2 4 0.19847516D-02 0.55624801D+00 0.27403941D+05 0.27403941D+05 0.27403941D+05 0.12190457D+01  1  2 11  7  6  1       21 0.146051588924D-02 0.100000000000D+01
0.331612764337D-04 0.000000000000D+00 0.000000000000D+00 0.326332110436D-06 0.875839548991D-07  6 4 1 25 23 1 4 4 0.19847516D-02 0.55624801D+00 0.27403941D+05 0.27403941D+05 0.27403941D+05 0.12190457D+01  1  2 11  7  6  1       21 0.956050630749D-03 0.100000000000D+01
0.298297988232D-07 0.000000000000D+00 0.000000000000D+00 0.325997964795D-06 0.000000000000D+00  6 -3 1 25 23 1 -3 4 0.19848291D-02 0.55617858D+00 0.27403941D+05 0.27403941D+05 0.27403941D+05 0.12190457D+01  1  2 12  8  6  1       21 0.943904441173D-06 0.100000000000D+01
0.298213801940D-07 0.000000000000D+00 0.000000000000D+00 0.325997964795D-06 0.000000000000D+00  6 -3 1 25 23 1 -3 4 0.19859040D-02 0.55617858D+00 0.27403941D+05 0.27403941D+05 0.27403941D+05 0.12190457D+01  1  2 12  8  6  1       21 0.942857401076D-06 0.100000000000D+01
-.328990124521D-04 0.000000000000D+00 -.410083350819D-07 0.326332110436D-06 0.000000000000D+00  6 -3 1 25 23 1 -3 4 0.19848708D-02 0.55617858D+00 0.27035154D+05 0.27035154D+05 0.27035154D+05 0.12196703D+01  1  2  5  8  6  1       21 -.104334379458D-02 0.100000000000D+01
0.335806432251D-04 0.000000000000D+00 0.000000000000D+00 0.326332110436D-06 0.886915661283D-07  6 -3 1 25 23 1 -3 4 0.19847516D-02 0.55624801D+00 0.27403941D+05 0.27403941D+05 0.27403941D+05 0.12190457D+01  1  2 11  8  6  1       21 0.106181341334D-02 0.100000000000D+01
0.298297988232D-07 0.000000000000D+00 0.000000000000D+00 0.325997964795D-06 0.000000000000D+00  6 3 1 25 23 1 3 4 0.19848291D-02 0.55617858D+00 0.27403941D+05 0.27403941D+05 0.27403941D+05 0.12190457D+01  1  2 12  9  6  1       21 0.943852211049D-06 0.100000000000D+01
0.298213801940D-07 0.000000000000D+00 0.000000000000D+00 0.325997964795D-06 0.000000000000D+00  6 3 1 25 23 1 3 4 0.19859040D-02 0.55617858D+00 0.27403941D+05 0.27403941D+05 0.27403941D+05 0.12190457D+01  1  2 12  9  6  1       21 0.942805210049D-06 0.100000000000D+01
-.328990124521D-04 0.000000000000D+00 -.410083350819D-07 0.326332110436D-06 0.000000000000D+00  6 3 1 25 23 1 3 4 0.19848708D-02 0.55617858D+00 0.27035154D+05 0.27035154D+05 0.27035154D+05 0.12196703D+01  1  2  5  9  6  1       21 -.104328599927D-02 0.100000000000D+01
0.336106217068D-04 0.000000000000D+00 0.000000000000D+00 0.326332110436D-06 0.887707438400D-07  6 3 1 25 23 1 3 4 0.19847516D-02 0.55624801D+00 0.27403941D+05 0.27403941D+05 0.27403941D+05 0.12190457D+01  1  2 11  9  6  1       21 0.106270252167D-02 0.100000000000D+01
  </mgrwgt>
  </event>
  <event>
  5     66 0.44737074E-03 0.20120800E+02 0.75467711E-02 0.12164058E+00
       21 -1    0    0  501  502 0.00000000E+00 0.00000000E+00 0.22817377E+02 0.22829700E+02 0.75000000E+00 0.0000E+00 0.9000E+01
        1 -1    0    0  502    0 -.00000000E+00 -.00000000E+00 -.13645926E+04 0.13645927E+04 0.32000000E+00 0.0000E+00 0.9000E+01
       25  1    1    2    0    0 0.31727576E+02 0.54041173E+02 -.10231956E+04 0.10327059E+04 0.12500000E+03 0.0000E+00 0.9000E+01
       23  1    1    2    0    0 -.17880263E+02 -.68638759E+02 -.31328755E+03 0.33390915E+03 0.91188000E+02 0.0000E+00 0.9000E+01
        1  1    1    2  501    0 -.13847313E+02 0.14597586E+02 -.52920693E+01 0.20807354E+02 0.32000000E+00 0.0000E+00 0.9000E+01
#aMCatNLO 1  0  0  5  1 0.53190350D+01 0.00000000D+00  -5  6  0 0.00000000D+00 0.00000000D+00 0.00000000D+00 0.00000000D+00 0.00000000D+00
  <mgrwgt>
 0.8089634537D-01    4    2    0
 0.176479460076054D+03 0.000000000000000D+00 0.000000000000000D+00 0.176479460076054D+03
 0.176479460076054D+03 -.000000000000000D+00 -.000000000000000D+00 -.176479460076054D+03
 0.169710118884513D+03 0.317276655881907D+02 0.540410786638744D+02 -.961740167870951D+02
 0.121576553179031D+03 -.178801991081086D+02 -.686388271766759D+02 0.378763359178078D+02
 0.616722480885630D+02 -.138474664800820D+02 0.145977485128015D+02 0.582976808692873D+02
 0.000000000000000D+00 0.000000000000000D+00 0.000000000000000D+00 0.000000000000000D+00
 0.176479460076054D+03 0.000000000000000D+00 0.000000000000000D+00 0.176479460076054D+03
 0.176479460076054D+03 -.000000000000000D+00 -.000000000000000D+00 -.176479460076054D+03
 0.167770978707100D+03 0.308454574393266D+02 0.549710865257159D+02 -.924599302286087D+02
 0.122158452868477D+03 -.185173459291693D+02 -.679671585307938D+02 0.405587169941225D+02
 0.573424371281202D+01 -.435705955109959D+01 0.107350295397055D+01 -.357003843591525D+01
 0.572952448637182D+02 -.797105195905772D+01 0.119225690511074D+02 0.554712516704014D+02
0.130303946829D-04 0.000000000000D+00 0.000000000000D+00 0.167548872856D-05 0.000000000000D+00  6 21 1 25 23 1 21 2 0.35113166D-02 0.20993828D+00 0.18971687D+05 0.18971687D+05 0.18971687D+05 0.12363578D+01  1  2  2  3  6  5        1 0.976309584043D-01 0.100000000000D+01
0.202156429880D-05 0.687632819062D-06 -.263046126417D-07 0.167548872856D-05 0.000000000000D+00  6 21 1 25 23 1 21 4 0.35113166D-02 0.20993828D+00 0.18971687D+05 0.18971687D+05 0.18971687D+05 0.12363578D+01  1  2  3  3  6  5        1 0.231529258963D-01 0.100000000000D+01
0.104785622601D-05 0.000000000000D+00 0.000000000000D+00 0.167548872856D-05 0.000000000000D+00  6 21 1 25 23 1 21 4 0.35113166D-02 0.20993828D+00 0.18971687D+05 0.18971687D+05 0.18971687D+05 0.12363578D+01  1  2 15  3  6  5        1 0.120010714303D-01 0.100000000000D+01
-.453057910260D-05 0.000000000000D+00 0.000000000000D+00 0.167548872856D-05 0.000000000000D+00  6 21 1 25 23 1 21 4 0.35113166D-02 0.20993828D+00 0.18971687D+05 0.18971687D+05 0.18971687D+05 0.12363578D+01  1  2  4  3  6  5        1 -.518886103658D-01 0.100000000000D+01
  </mgrwgt>
  </event>
  <event>
  5     66 -.44737074E-03 0.33424508E+02 0.75467711E-02 0.12192756E+00
       21 -1    0    0  501  502 0.00000000E+00 0.00000000E+00 0.93141966E+02 0.93144986E+02 0.75000000E+00 0.0000E+00 0.9000E+01
        3 -1    0    0  502    0 -.00000000E+00 -.00000000E+00 -.41978509E+03 0.41978539E+03 0.50000000E+00 0.0000E+00 0.9000E+01
       25  1    1    2    0    0 0.31385058E+02 0.37379096E+02 -.32595666E+03 0.35249817E+03 0.12500000E+03 0.0000E+00 0.9000E+01
       23  1    1    2    0    0 -.38374628E+02 -.46938703E+01 -.41748357E+02 0.10748405E+03 0.91188000E+02 0.0000E+00 0.9000E+01
        3  1    1    2  501    0 0.69895697E+01 -.32685226E+02 0.41061889E+02 0.52948152E+02 0.50000000E+00 0.0000E+00 0.9000E+01
#aMCatNLO 1  0  0  5  2 0.14772281D+02 0.00000000D+00  -5  6  0 0.00000000D+00 0.00000000D+00 0.00000000D+00 0.00000000D+00 0.00000000D+00
  <mgrwgt>
 -.8044952365D-02    6    2    0
 0.197738361672687D+03 0.000000000000000D+00 0.000000000000000D+00 0.197738361672687D+03
 0.197738361672687D+03 -.000000000000000D+00 -.000000000000000D+00 -.197738361672687D+03
 0.187964746270228D+03 0.313850186211303D+02 0.373792806732297D+02 -.131618827767665D+03
 0.104923955385584D+03 -.383746497900308D+02 -.469376734991082D+01 0.346285990376949D+02
 0.102588021689562D+03 0.698963116890046D+01 -.326855133233189D+02 0.969902287299703D+02
 0.000000000000000D+00 0.000000000000000D+00 0.000000000000000D+00 0.000000000000000D+00
 0.197738361672687D+03 0.000000000000000D+00 0.000000000000000D+00 0.197738361672687D+03
 0.197738361672687D+03 -.000000000000000D+00 -.000000000000000D+00 -.197738361672687D+03
 0.186502180340460D+03 0.315251120802039D+02 0.367241636130571D+02 -.129674848706283D+03
 0.105277539745754D+03 -.382960103896919D+02 -.506150766487193D+01 0.357198230582112D+02
 0.553160234654326D+02 0.133337746016794D+02 -.273103414206411D+02 0.462192401320912D+02
 0.483809797937271D+02 -.656287629219146D+01 -.435231452754406D+01 0.477357855159810D+02
0.324667371671D-05 0.000000000000D+00 0.000000000000D+00 0.107624415997D-05 0.000000000000D+00  6 21 3 25 23 3 21 2 0.14329788D-01 0.64582577D-01 0.17776949D+05 0.17776949D+05 0.17776949D+05 0.12394998D+01  1  2  2  3  6  5        3 0.244944794508D-02 0.100000000000D+01
0.308360898086D-06 0.171331679103D-06 -.655409882587D-08 0.107624415997D-05 0.000000000000D+00  6 21 3 25 23 3 21 4 0.14329788D-01 0.64582577D-01 0.17776949D+05 0.17776949D+05 0.17776949D+05 0.12394998D+01  1  2  3  3  6  5        3 0.357422430789D-03 0.100000000000D+01
0.294204090555D-06 0.000000000000D+00 0.000000000000D+00 0.107624415997D-05 0.000000000000D+00  6 21 3 25 23 3 21 4 0.14329788D-01 0.64582577D-01 0.17776949D+05 0.17776949D+05 0.17776949D+05 0.12394998D+01  1  2 15  3  6  5        3 0.341013214862D-03 0.100000000000D+01
-.126720312285D-04 0.000000000000D+00 0.000000000000D+00 0.107624415997D-05 0.000000000000D+00  6 21 3 25 23 3 21 4 0.14329788D-01 0.64582577D-01 0.17776949D+05 0.17776949D+05 0.17776949D+05 0.12394998D+01  1  2  4  3  6  5        3 -.146882053880D-01 0.100000000000D+01
-.535175083094D-05 0.000000000000D+00 0.000000000000D+00 0.107624415997D-05 0.000000000000D+00  6 21 3 25 23 3 21 4 0.14329788D-01 0.64582577D-01 0.17776949D+05 0.17776949D+05 0.17776949D+05 0.12394998D+01  1  2  5  3  6  5        3 -.620323719007D-02 0.100000000000D+01
0.836732893785D-05 0.000000000000D+00 -.000000000000D+00 0.107624415997D-05 0.000000000000D+00  6 21 3 25 23 3 21 4 0.14329788D-01 0.64582577D-01 0.17776949D+05 0.17776949D+05 0.17776949D+05 0.12394998D+01  1  2  6  3  6  5        3 0.969860662211D-02 0.100000000000D+01
  </mgrwgt>
  </event>
  <event>
  5     66 0.44737074E-03 0.51113546E+02 0.75467711E-02 0.11104483E+00
       21 -1    0    0  501  502 0.00000000E+00 0.00000000E+00 0.76823006E+02 0.76826667E+02 0.75000000E+00 0.0000E+00 0.9000E+01
        1 -1    0    0  502    0 0.00000000E+00 0.00000000E+00 -.72178801E+03 0.72178808E+03 0.32000000E+00 0.0000E+00 0.9000E+01
       25  1    1    2    0    0 -.34783960E+02 0.78302680E+01 -.26808837E+03 0.29793894E+03 0.12500000E+03 0.0000E+00 0.9000E+01
       23  1    1    2    0    0 0.85860232E+02 -.97803212E+01 -.41711496E+03 0.43562343E+03 0.91188000E+02 0.0000E+00 0.9000E+01
        1  1    1    2  501    0 -.51076272E+02 0.19500532E+01 0.40238318E+02 0.65052385E+02 0.32000000E+00 0.0000E+00 0.9000E+01
#aMCatNLO 1  0  0  2  1 0.24181419D+01 0.00000000D+00  -5  6  0 0.00000000D+00 0.00000000D+00 0.00000000D+00 0.00000000D+00 0.00000000D+00
  <mgrwgt>
 0.1562110681D-01    5    2    0
 0.235481242041461D+03 0.000000000000000D+00 0.000000000000000D+00 0.235481242041461D+03
 0.235481242041461D+03 0.000000000000000D+00 0.000000000000000D+00 -.235481242041461D+03
 0.138080688828203D+03 -.347839317924089D+02 0.783026688952762D+01 -.465837057002870D+02
 0.167467239181408D+03 0.858602654999652D+02 -.978032244925598D+01 -.110735653500158D+03
 0.165414556073310D+03 -.510763337075562D+02 0.195005555972836D+01 0.157319359200445D+03
 0.000000000000000D+00 0.000000000000000D+00 -.000000000000000D+00 -.000000000000000D+00
 0.275793490838079D+03 0.000000000000000D+00 0.000000000000000D+00 0.275793490838079D+03
 0.457494369551587D+03 0.000000000000000D+00 0.000000000000000D+00 -.457494369551587D+03
 0.156648445602944D+03 -.816082426622030D+02 0.915361145311732D+01 -.465837057002870D+02
 0.148068380746011D+03 0.357303793368915D+02 -.836355600688920D+01 -.110735653500158D+03
 0.190655848917406D+03 -.107646076522425D+03 0.354882466550107D+01 0.157319359200445D+03
 0.237915185123304D+03 0.153523939847736D+03 -.433888011172919D+01 -.181700878713508D+03
0.829109666160D-05 0.000000000000D+00 0.000000000000D+00 0.141018426614D-05 0.000000000000D+00  6 21 1 25 23 1 21 2 0.11819211D-01 0.11104460D+00 0.23520676D+05 0.23520676D+05 0.23520676D+05 0.12261480D+01  1  2  2  2  6  2        1 0.227295099556D-01 0.100000000000D+01
0.746859867550D-06 0.437533191378D-06 -.167373353889D-07 0.141018426614D-05 0.000000000000D+00  6 21 1 25 23 1 21 4 0.11819211D-01 0.11104460D+00 0.23520676D+05 0.23520676D+05 0.23520676D+05 0.12261480D+01  1  2  3  2  6  2        1 0.307824351093D-02 0.100000000000D+01
0.723943119352D-06 0.000000000000D+00 0.000000000000D+00 0.141018426614D-05 0.000000000000D+00  6 21 1 25 23 1 21 4 0.11819211D-01 0.11104460D+00 0.23520676D+05 0.23520676D+05 0.23520676D+05 0.12261480D+01  1  2 15  2  6  2        1 0.298379027479D-02 0.100000000000D+01
-.113921820361D-04 0.000000000000D+00 -.741737831141D-05 0.141018426614D-05 0.000000000000D+00  6 21 1 25 23 1 21 4 0.11819211D-01 0.23255795D+00 0.23520676D+05 0.23520676D+05 0.23520676D+05 0.12261480D+01  1  2  5  2  6  2        1 -.126279616513D-01 0.100000000000D+01
-.451982041238D-06 0.000000000000D+00 -.592960479640D-06 0.141018426614D-05 0.000000000000D+00  6 21 21 25 23 1 -1 4 0.11819211D-01 0.23255795D+00 0.23520676D+05 0.23520676D+05 0.23520676D+05 0.12261480D+01  1  2  5 10  6  2        1 -.542475275641D-03 0.100000000000D+01
  </mgrwgt>
  </event>
  <event>
  6     66 -.44737074E-03 0.16586198E+02 0.75467711E-02 0.11620185E+00
       21 -1    0    0  501  503 0.00000000E+00 0.00000000E+00 0.24385851E+04 0.24385853E+04 0.75000000E+00 0.0000E+00 0.9000E+01
        1 -1    0    0  502    0 0.00000000E+00 0.00000000E+00 -.23416330E+04 0.23416330E+04 0.32000000E+00 0.0000E+00 0.9000E+01
       25  1    1    2    0    0 0.94978038E+02 0.78661180E+02 -.51233702E+03 0.54159268E+03 0.12500000E+03 0.0000E+00 0.9000E+01
       23  1    1    2    0    0 -.95701272E+02 -.20656654E+02 -.11525455E+04 0.11602853E+04 0.91188000E+02 0.0000E+00 0.9000E+01
        1  1    1    2  501    0 0.12417378E+02 -.28217143E+02 -.65778587E+03 0.65850797E+03 0.32000000E+00 0.0000E+00 0.9000E+01
       21  1    1    2  502  503 -.11694145E+02 -.29787383E+02 0.24196206E+04 0.24198323E+04 0.75000000E+00 0.0000E+00 0.9000E+01
#aMCatNLO 2  0  0  1  2 0.32000644D+02 0.00000000D+00  -5  6  0 0.00000000D+00 0.00000000D+00 0.00000000D+00 0.00000000D+00 0.00000000D+00
  <mgrwgt>
 -.9358900581D-01    3    2    0
 0.209528651859475D+03 0.000000000000000D+00 0.000000000000000D+00 0.209528651859475D+03
 0.209528651859475D+03 0.000000000000000D+00 0.000000000000000D+00 -.209528651859475D+03
 0.202657269275480D+03 0.892245814795606D+02 0.640062980285711D+02 0.115702794532671D+03
 0.151469225337000D+03 -.998584272022140D+02 -.312455180114499D+02 -.606604236804130D+02
 0.649308091064701D+02 0.106338457226533D+02 -.327607800171212D+02 -.550423708522576D+02
 0.000000000000000D+00 -.000000000000000D+00 -.000000000000000D+00 0.000000000000000D+00
 0.271725953399364D+05 0.000000000000000D+00 0.000000000000000D+00 0.271725953399364D+05
 0.210148178447044D+03 0.000000000000000D+00 0.000000000000000D+00 -.210148178447044D+03
 0.210286870045594D+03 0.949779819509056D+02 0.786613882119836D+02 0.115702794532671D+03
 0.146902596655842D+03 -.957013211488095D+02 -.206565168775846D+02 -.606604236804130D+02
 0.630879000608381D+02 0.124174838265263D+02 -.282174882026511D+02 -.550423708522576D+02
 0.269624661516212D+05 -.116941446286225D+02 -.297873831317478D+02 0.269624471614894D+05
-.565312880189D+01 0.000000000000D+00 0.000000000000D+00 0.545882390767D-07 0.000000000000D+00  6 21 1 25 23 1 21 4 0.37408634D+00 0.35918919D+00 0.34636465D+05 0.34636465D+05 0.34636465D+05 0.12084021D+01  1  2 13  1  6  1       21 -.360717509500D+00 0.100000000000D+01
-.565344900903D+01 0.000000000000D+00 0.000000000000D+00 0.545882390767D-07 0.000000000000D+00  6 21 1 25 23 1 21 4 0.37410753D+00 0.35918919D+00 0.34636465D+05 0.34636465D+05 0.34636465D+05 0.12084021D+01  1  2 13  1  6  1       21 -.360631834871D+00 0.100000000000D+01
0.100908553756D+02 0.000000000000D+00 0.000000000000D+00 0.553412407678D-07 0.122083088632D-04  6 21 1 25 23 1 21 4 0.37516695D+00 0.36025123D+00 0.34636465D+05 0.34636465D+05 0.34636465D+05 0.12084021D+01  1  2  1  1  6  1       21 0.627760338563D+00 0.100000000000D+01
  </mgrwgt>
  </event>
  <event>
  5     66 0.44737074E-03 0.24320666E+02 0.75467711E-02 0.11944787E+00
       21 -1    0    0  501  502 0.00000000E+00 0.00000000E+00 0.23581281E+02 0.23593204E+02 0.75000000E+00 0.0000E+00 0.9000E+01
        1 -1    0    0  502    0 0.00000000E+00 0.00000000E+00 -.10551744E+04 0.10551745E+04 0.32000000E+00 0.0000E+00 0.9000E+01
       25  1    1    2    0    0 -.51427102E+02 -.60440780E+02 -.60123385E+03 0.61919704E+03 0.12500000E+03 0.0000E+00 0.9000E+01
       23  1    1    2    0    0 0.73470350E+02 0.70711929E+02 -.35895295E+03 0.38413609E+03 0.91188000E+02 0.0000E+00 0.9000E+01
        1  1    1    2  501    0 -.22043248E+02 -.10271149E+02 -.71406361E+02 0.75434555E+02 0.32000000E+00 0.0000E+00 0.9000E+01
#aMCatNLO 1  0  0  1  1 0.78706930D+00 0.00000000D+00  -5  6  0 0.00000000D+00 0.00000000D+00 0.00000000D+00 0.00000000D+00 0.00000000D+00
  <mgrwgt>
 0.3017939521D+00   31    2    0
 0.157761915809846D+03 0.000000000000000D+00 0.000000000000000D+00 0.157761915809846D+03
 0.157761915809846D+03 0.000000000000000D+00 0.000000000000000D+00 -.157761915809846D+03
 0.151306777123134D+03 -.514261964998579D+02 -.604403577723235D+02 -.311616795006501D+02
 0.139768834180855D+03 0.734711869331079D+02 0.707123187860850D+02 0.286675483222865D+02
 0.244482203157041D+02 -.220449904332501D+02 -.102719610137615D+02 0.249413117836351D+01
 0.000000000000000D+00 0.000000000000000D+00 -.000000000000000D+00 0.000000000000000D+00
 0.158232883545710D+03 0.000000000000000D+00 0.000000000000000D+00 0.158232883545710D+03
 0.158091582250029D+03 0.000000000000000D+00 0.000000000000000D+00 -.158091582250029D+03
 0.151362739400871D+03 -.517707559168124D+02 -.602861297599743D+02 -.311616795006501D+02
 0.139674053686644D+03 0.731530687439308D+02 0.708547114579863D+02 0.286675483222865D+02
 0.244880201967267D+02 -.221006995204834D+02 -.102470251061328D+02 0.249413117836351D+01
 0.799652511498504D+00 0.718386693364972D+00 -.321556591879227D+00 0.141301295680627D+00
0.278821289844D-05 0.000000000000D+00 0.000000000000D+00 0.368765682644D-06 0.000000000000D+00  6 21 1 25 23 1 21 2 0.36288103D-02 0.16233545D+00 0.23898236D+05 0.23898236D+05 0.23898236D+05 0.12254018D+01  1  2  2  1  6  1       21 0.316596431539D-01 0.100000000000D+01
0.172008558999D-06 0.147138037040D-06 -.562859852221D-08 0.368765682644D-06 0.000000000000D+00  6 21 1 25 23 1 21 4 0.36288103D-02 0.16233545D+00 0.23898236D+05 0.23898236D+05 0.23898236D+05 0.12254018D+01  1  2  3  1  6  1       21 0.293283196295D-02 0.100000000000D+01
0.328535228514D-06 0.000000000000D+00 0.000000000000D+00 0.368765682644D-06 0.000000000000D+00  6 21 1 25 23 1 21 4 0.36288103D-02 0.16233545D+00 0.23898236D+05 0.23898236D+05 0.23898236D+05 0.12254018D+01  1  2 15  1  6  1       21 0.560168996675D-02 0.100000000000D+01
-.295073757813D-04 0.000000000000D+00 0.000000000000D+00 0.368765682644D-06 0.000000000000D+00  6 21 1 25 23 1 21 4 0.36288103D-02 0.16233545D+00 0.23898236D+05 0.23898236D+05 0.23898236D+05 0.12254018D+01  1  2  4  1  6  1       21 -.503115515517D+00 0.100000000000D+01
-.182857742741D-02 0.000000000000D+00 -.165945399616D-03 0.368765682644D-06 0.000000000000D+00  6 21 1 25 23 1 21 4 0.36475336D-02 0.16233545D+00 0.23898236D+05 0.23898236D+05 0.23898236D+05 0.12254018D+01  1  2  5  1  6  1       21 -.309127866830D+02 0.100000000000D+01
0.182933451605D-02 0.000000000000D+00 0.165936609743D-03 0.368765682644D-06 0.000000000000D+00  6 21 1 25 23 1 21 4 0.36288103D-02 0.16233545D+00 0.23898236D+05 0.23898236D+05 0.23898236D+05 0.12254018D+01  1  2  6  1  6  1       21 0.311910684610D+02 0.100000000000D+01
0.293170945073D-04 0.000000000000D+00 0.000000000000D+00 0.368765682644D-06 0.689636630336D-05  6 21 1 25 23 1 21 4 0.36396434D-02 0.16267467D+00 0.24020119D+05 0.24020119D+05 0.24020119D+05 0.12251638D+01  1  2 11  1  6  1       21 0.495206808303D+00 0.100000000000D+01
0.107307166228D-12 0.000000000000D+00 0.000000000000D+00 0.368622417829D-06 0.000000000000D+00  6 -1 1 25 23 1 -1 4 0.36434252D-02 0.16233545D+00 0.24020119D+05 0.24020119D+05 0.24020119D+05 0.12251638D+01  1  2 12  4  6  1       21 0.979123575705D-10 0.100000000000D+01
-.191811413487D-05 0.000000000000D+00 -.191247610788D-06 0.368765682644D-06 0.000000000000D+00  6 -1 1 25 23 1 -1 4 0.36475336D-02 0.16233545D+00 0.23898236D+05 0.23898236D+05 0.23898236D+05 0.12254018D+01  1  2  5  4  6  1       21 -.174850863478D-02 0.100000000000D+01
0.256004249928D-05 0.000000000000D+00 0.000000000000D+00 0.368765682644D-06 0.555151847288D-06  6 -1 1 25 23 1 -1 4 0.36396434D-02 0.16267467D+00 0.24020119D+05 0.24020119D+05 0.24020119D+05 0.12251638D+01  1  2 11  4  6  1       21 0.233094814591D-02 0.100000000000D+01
0.107307166228D-12 0.000000000000D+00 0.000000000000D+00 0.368622417829D-06 0.000000000000D+00  6 1 1 25 23 1 1 4 0.36434252D-02 0.16233545D+00 0.24020119D+05 0.24020119D+05 0.24020119D+05 0.12251638D+01  1  2 12  5  6  1       21 0.106957395181D-09 0.100000000000D+01
-.191811413487D-05 0.000000000000D+00 -.191247610788D-06 0.368765682644D-06 0.000000000000D+00  6 1 1 25 23 1 1 4 0.36475336D-02 0.16233545D+00 0.23898236D+05 0.23898236D+05 0.23898236D+05 0.12254018D+01  1  2  5  5  6  1       21 -.191022982384D-02 0.100000000000D+01
0.223597306606D-06 0.000000000000D+00 0.000000000000D+00 0.368765682644D-06 0.558017810280D-08  6 1 1 25 23 1 1 4 0.36396434D-02 0.16267467D+00 0.24020119D+05 0.24020119D+05 0.24020119D+05 0.12251638D+01  1  2 11  5  6  1       21 0.222375628435D-03 0.100000000000D+01
0.107307166228D-12 0.000000000000D+00 0.000000000000D+00 0.368622417829D-06 0.000000000000D+00  6 -2 1 25 23 1 -2 4 0.36434252D-02 0.16233545D+00 0.24020119D+05 0.24020119D+05 0.24020119D+05 0.12251638D+01  1  2 12  6  6  1       21 0.963015386812D-10 0.100000000000D+01
0.107307166228D-12 0.000000000000D+00 0.000000000000D+00 0.368622417829D-06 0.000000000000D+00  6 -4 1 25 23 1 -4 4 0.36434252D-02 0.16233545D+00 0.24020119D+05 0.24020119D+05 0.24020119D+05 0.12251638D+01  1  2 12  6  6  1       21 0.649372577778D-10 0.100000000000D+01
-.191811413487D-05 0.000000000000D+00 -.191247610788D-06 0.368765682644D-06 0.000000000000D+00  6 -2 1 25 23 1 -2 4 0.36475336D-02 0.16233545D+00 0.23898236D+05 0.23898236D+05 0.23898236D+05 0.12254018D+01  1  2  5  6  6  1       21 -.171970846622D-02 0.100000000000D+01
-.191811413487D-05 0.000000000000D+00 -.191247610788D-06 0.368765682644D-06 0.000000000000D+00  6 -4 1 25 23 1 -4 4 0.36475336D-02 0.16233545D+00 0.23898236D+05 0.23898236D+05 0.23898236D+05 0.12254018D+01  1  2  5  6  6  1       21 -.115930944938D-02 0.100000000000D+01
0.209792336971D-06 0.000000000000D+00 0.000000000000D+00 0.368765682644D-06 0.659005814058D-08  6 -2 1 25 23 1 -2 4 0.36396434D-02 0.16267467D+00 0.24020119D+05 0.24020119D+05 0.24020119D+05 0.12251638D+01  1  2 11  6  6  1       21 0.187878936043D-03 0.100000000000D+01
0.209792336971D-06 0.000000000000D+00 0.000000000000D+00 0.368765682644D-06 0.659005814058D-08  6 -4 1 25 23 1 -4 4 0.36396434D-02 0.16267467D+00 0.24020119D+05 0.24020119D+05 0.24020119D+05 0.12251638D+01  1  2 11  6  6  1       21 0.126702116146D-03 0.100000000000D+01
0.107307166228D-12 0.000000000000D+00 0.000000000000D+00 0.368622417829D-06 0.000000000000D+00  6 2 1 25 23 1 2 4 0.36434252D-02 0.16233545D+00 0.24020119D+05 0.24020119D+05 0.24020119D+05 0.12251638D+01  1  2 12  7  6  1       21 0.113076630069D-09 0.100000000000D+01
0.107307166228D-12 0.000000000000D+00 0.000000000000D+00 0.368622417829D-06 0.000000000000D+00  6 4 1 25 23 1 4 4 0.36434252D-02 0.16233545D+00 0.24020119D+05 0.24020119D+05 0.24020119D+05 0.12251638D+01  1  2 12  7  6  1       21 0.649372577778D-10 0.100000000000D+01
-.191811413487D-05 0.000000000000D+00 -.191247610788D-06 0.368765682644D-06 0.000000000000D+00  6 2 1 25 23 1 2 4 0.36475336D-02 0.16233545D+00 0.23898236D+05 0.23898236D+05 0.23898236D+05 0.12254018D+01  1  2  5  7  6  1       21 -.201963420612D-02 0.100000000000D+01
-.191811413487D-05 0.000000000000D+00 -.191247610788D-06 0.368765682644D-06 0.000000000000D+00  6 4 1 25 23 1 4 4 0.36475336D-02 0.16233545D+00 0.23898236D+05 0.23898236D+05 0.23898236D+05 0.12254018D+01  1  2  5  7  6  1       21 -.115930944938D-02 0.100000000000D+01
0.213228132156D-06 0.000000000000D+00 0.000000000000D+00 0.368765682644D-06 0.669798434205D-08  6 2 1 25 23 1 2 4 0.36396434D-02 0.16267467D+00 0.24020119D+05 0.24020119D+05 0.24020119D+05 0.12251638D+01  1  2 11  7  6  1       21 0.224184420722D-03 0.100000000000D+01
0.213228132156D-06 0.000000000000D+00 0.000000000000D+00 0.368765682644D-06 0.669798434205D-08  6 4 1 25 23 1 4 4 0.36396434D-02 0.16267467D+00 0.24020119D+05 0.24020119D+05 0.24020119D+05 0.12251638D+01  1  2 11  7  6  1       21 0.128777132454D-03 0.100000000000D+01
0.107307166228D-12 0.000000000000D+00 0.000000000000D+00 0.368622417829D-06 0.000000000000D+00  6 -3 1 25 23 1 -3 4 0.36434252D-02 0.16233545D+00 0.24020119D+05 0.24020119D+05 0.24020119D+05 0.12251638D+01  1  2 12  8  6  1       21 0.721752662926D-10 0.100000000000D+01
-.191811413487D-05 0.000000000000D+00 -.191247610788D-06 0.368765682644D-06 0.000000000000D+00  6 -3 1 25 23 1 -3 4 0.36475336D-02 0.16233545D+00 0.23898236D+05 0.23898236D+05 0.23898236D+05 0.12254018D+01  1  2  5  8  6  1       21 -.128862333226D-02 0.100000000000D+01
0.226212565329D-06 0.000000000000D+00 0.000000000000D+00 0.368765682644D-06 0.710585514786D-08  6 -3 1 25 23 1 -3 4 0.36396434D-02 0.16267467D+00 0.24020119D+05 0.24020119D+05 0.24020119D+05 0.12251638D+01  1  2 11  8  6  1       21 0.151843150678D-03 0.100000000000D+01
0.107307166228D-12 0.000000000000D+00 0.000000000000D+00 0.368622417829D-06 0.000000000000D+00  6 3 1 25 23 1 3 4 0.36434252D-02 0.16233545D+00 0.24020119D+05 0.24020119D+05 0.24020119D+05 0.12251638D+01  1  2 12  9  6  1       21 0.721693554825D-10 0.100000000000D+01
-.191811413487D-05 0.000000000000D+00 -.191247610788D-06 0.368765682644D-06 0.000000000000D+00  6 3 1 25 23 1 3 4 0.36475336D-02 0.16233545D+00 0.23898236D+05 0.23898236D+05 0.23898236D+05 0.12254018D+01  1  2  5  9  6  1       21 -.128851768772D-02 0.100000000000D+01
0.220277340231D-06 0.000000000000D+00 0.000000000000D+00 0.368765682644D-06 0.691941612421D-08  6 3 1 25 23 1 3 4 0.36396434D-02 0.16267467D+00 0.24020119D+05 0.24020119D+05 0.24020119D+05 0.12251638D+01  1  2 11  9  6  1       21 0.147847082496D-03 0.100000000000D+01
  </mgrwgt>
  </event>
  <event>
  5     66 0.44737074E-03 0.37629454E+02 0.75467711E-02 0.11778213E+00
       21 -1    0    0  501  502 0.00000000E+00 0.00000000E+00 0.11826722E+03 0.11826960E+03 0.75000000E+00 0.0000E+00 0.9000E+01
        1 -1    0    0  502    0 -.00000000E+00 -.00000000E+00 -.33781076E+03 0.33781091E+03 0.32000000E+00 0.0000E+00 0.9000E+01
       25  1    1    2    0    0 -.11803023E+03 0.42925052E+02 -.53025414E+02 0.18496051E+03 0.12500000E+03 0.0000E+00 0.9000E+01
       23  1    1    2    0    0 0.83812976E+02 -.27268625E+02 -.18876095E+03 0.22740743E+03 0.91188000E+02 0.0000E+00 0.9000E+01
        1  1    1    2  501    0 0.34217252E+02 -.15656426E+02 0.22242819E+02 0.43712577E+02 0.32000000E+00 0.0000E+00 0.9000E+01
#aMCatNLO 1  0  0  5  1 0.97893202D+01 0.00000000D+00  -5  6  0 0.00000000D+00 0.00000000D+00 0.00000000D+00 0.00000000D+00 0.00000000D+00
  <mgrwgt>
 0.5650520911D-01    8    2    0
 0.199881257260744D+03 0.000000000000000D+00 0.000000000000000D+00 0.199881257260744D+03
 0.199881257260744D+03 -.000000000000000D+00 -.000000000000000D+00 -.199881257260744D+03
 0.181896822988454D+03 -.118030434081418D+03 0.429251463248892D+02 0.410816583992414D+02
 0.155779653568906D+03 0.838127985656057D+02 -.272685441867999D+02 -.904648573567783D+02
 0.620860379641272D+02 0.342176355158119D+02 -.156566021380892D+02 0.493831989575369D+02
 0.000000000000000D+00 0.000000000000000D+00 -.000000000000000D+00 0.000000000000000D+00
 0.199881257260744D+03 0.000000000000000D+00 0.000000000000000D+00 0.199881257260744D+03
 0.199881257260744D+03 -.000000000000000D+00 -.000000000000000D+00 -.199881257260744D+03
 0.181553003520911D+03 -.117219492402568D+03 0.425540923045997D+02 0.422520167149432D+02
 0.155631829176038D+03 0.845076305127154D+02 -.275864711032785D+02 -.894620696489510D+02
 0.266129174898955D+02 0.719800911391451D+01 -.178725962153528D+01 0.255585943503397D+02
 0.359647643346433D+02 0.255138527759381D+02 -.131803615797859D+02 0.216514585836680D+02
0.697603009016D-05 0.000000000000D+00 0.000000000000D+00 0.349423590171D-06 0.000000000000D+00  6 21 1 25 23 1 21 2 0.18195152D-01 0.51971081D-01 0.29180628D+05 0.29180628D+05 0.29180628D+05 0.12161627D+01  1  2  2  3  6  5        1 0.234838035950D-01 0.100000000000D+01
0.362526406693D-06 0.368135221802D-06 -.140825948687D-07 0.349423590171D-06 0.000000000000D+00  6 21 1 25 23 1 21 4 0.18195152D-01 0.51971081D-01 0.29180628D+05 0.29180628D+05 0.29180628D+05 0.12161627D+01  1  2  3  3  6  5        1 0.180502438839D-02 0.100000000000D+01
0.507722473341D-06 0.000000000000D+00 0.000000000000D+00 0.349423590171D-06 0.000000000000D+00  6 21 1 25 23 1 21 4 0.18195152D-01 0.51971081D-01 0.29180628D+05 0.29180628D+05 0.29180628D+05 0.12161627D+01  1  2 15  3  6  5        1 0.252795777079D-02 0.100000000000D+01
0.684950698799D-05 0.000000000000D+00 0.000000000000D+00 0.349669816460D-06 0.000000000000D+00  6 21 1 25 23 1 21 4 0.18195152D-01 0.51971081D-01 0.28908661D+05 0.28908661D+05 0.28908661D+05 0.12165911D+01  1  2 12  3  6  5        1 0.341545353403D-01 0.100000000000D+01
-.912586926568D-05 0.000000000000D+00 0.000000000000D+00 0.349423590171D-06 0.000000000000D+00  6 21 1 25 23 1 21 4 0.18195152D-01 0.51971081D-01 0.29180628D+05 0.29180628D+05 0.29180628D+05 0.12161627D+01  1  2  4  3  6  5        1 -.454378392462D-01 0.100000000000D+01
-.687445929809D-05 0.000000000000D+00 0.000000000000D+00 0.349423590171D-06 0.000000000000D+00  6 21 1 25 23 1 21 4 0.18195152D-01 0.51971081D-01 0.29180628D+05 0.29180628D+05 0.29180628D+05 0.12161627D+01  1  2  5  3  6  5        1 -.342280354230D-01 0.100000000000D+01
0.149024929167D-04 0.000000000000D+00 -.000000000000D+00 0.349423590171D-06 0.000000000000D+00  6 21 1 25 23 1 21 4 0.18195152D-01 0.51971081D-01 0.29180628D+05 0.29180628D+05 0.29180628D+05 0.12161627D+01  1  2  6  3  6  5        1 0.741997346008D-01 0.100000000000D+01
0.563165903209D-11 0.000000000000D+00 0.000000000000D+00 0.349423590171D-06 0.416464901528D-07  6 21 1 25 23 1 21 4 0.18195152D-01 0.51971081D-01 0.28908661D+05 0.28908661D+05 0.28908661D+05 0.12165911D+01  1  2 11  3  6  5        1 0.280818309658D-07 0.100000000000D+01
  </mgrwgt>
  </event>
  <event>
  5     66 -.44737074E-03 0.20066941E+02 0.75467711E-02 0.12344375E+00
       21 -1    0    0  501  502 0.00000000E+00 0.00000000E+00 0.35292676E+03 0.35292755E+03 0.75000000E+00 0.0000E+00 0.9000E+01
        1 -1    0    0  502    0 0.00000000E+00 0.00000000E+00 -.20330649E+03 0.20330674E+03 0.32000000E+00 0.0000E+00 0.9000E+01
       25  1    1    2    0    0 0.42000099E+02 0.26986037E+02 -.15196998E+03 0.20300770E+03 0.12500000E+03 0.0000E+00 0.9000E+01
       23  1    1    2    0    0 -.27498787E+02 -.13115448E+02 0.65614480E+02 0.11639892E+03 0.91188000E+02 0.0000E+00 0.9000E+01
        1  1    1    2  501    0 -.14501312E+02 -.13870589E+02 0.23597576E+03 0.23682767E+03 0.32000000E+00 0.0000E+00 0.9000E+01
#aMCatNLO 1  0  0  5  2 0.24117446D+01 0.00000000D+00  -5  6  0 0.00000000D+00 0.00000000D+00 0.00000000D+00 0.00000000D+00 0.00000000D+00
  <mgrwgt>
 -.1348210138D+01    4    2    0
 0.267866742986903D+03 0.000000000000000D+00 0.000000000000000D+00 0.267866742986903D+03
 0.267866742986903D+03 -.000000000000000D+00 -.000000000000000D+00 -.267866742986903D+03
 0.253218627380363D+03 0.420001094726327D+02 0.269860478250856D+02 -.214481741133048D+03
 0.102528231390700D+03 -.274987826665241D+02 -.131154441888777D+02 0.356172565436005D+02
 0.179986627202743D+03 -.145013268061087D+02 -.138706036362079D+02 0.178864484589448D+03
 0.000000000000000D+00 0.000000000000000D+00 0.000000000000000D+00 -.000000000000000D+00
 0.267866742986903D+03 0.000000000000000D+00 0.000000000000000D+00 0.267866742986903D+03
 0.267866742986903D+03 -.000000000000000D+00 -.000000000000000D+00 -.267866742986903D+03
 0.252209649619144D+03 0.419058824148242D+02 0.268959190949257D+02 -.213319511334724D+03
 0.102708064415004D+03 -.275370448951910D+02 -.131520422336755D+02 0.360891963806416D+02
 0.178403605733740D+03 -.122209394431813D+02 -.126882962495508D+02 0.177531693835804D+03
 0.241216620591733D+01 -.214789807645196D+01 -.105558061169945D+01 -.301378881721676D+00
0.875908832051D-04 0.000000000000D+00 0.000000000000D+00 0.464847416276D-05 0.000000000000D+00  6 21 1 25 23 1 21 2 0.54296505D-01 0.31278002D-01 0.15726434D+05 0.15726434D+05 0.15726434D+05 0.12454878D+01  1  2  2  3  6  5        1 0.692517910121D-01 0.100000000000D+01
0.262898434066D-04 0.462229789720D-05 -.176820757139D-06 0.464847416276D-05 0.000000000000D+00  6 21 1 25 23 1 21 4 0.54296505D-01 0.31278002D-01 0.15726434D+05 0.15726434D+05 0.15726434D+05 0.12454878D+01  1  2  3  3  6  5        1 0.322432708092D-01 0.100000000000D+01
0.947142480760D-05 0.000000000000D+00 0.000000000000D+00 0.464847416276D-05 0.000000000000D+00  6 21 1 25 23 1 21 4 0.54296505D-01 0.31278002D-01 0.15726434D+05 0.15726434D+05 0.15726434D+05 0.12454878D+01  1  2 15  3  6  5        1 0.116162622309D-01 0.100000000000D+01
-.119150171291D-02 0.000000000000D+00 0.000000000000D+00 0.464847416276D-05 0.000000000000D+00  6 21 1 25 23 1 21 4 0.54296505D-01 0.31278002D-01 0.15726434D+05 0.15726434D+05 0.15726434D+05 0.12454878D+01  1  2  4  3  6  5        1 -.146132146185D+01 0.100000000000D+01
  </mgrwgt>
  </event>
  <event>
  6     66 -.44737074E-03 0.26216648E+02 0.75467711E-02 0.11951853E+00
        2 -1    0    0  501    0 0.00000000E+00 0.00000000E+00 0.68398702E+03 0.68398710E+03 0.32000000E+00 0.0000E+00 0.9000E+01
        1 -1    0    0  502    0 0.00000000E+00 0.00000000E+00 -.13398883E+03 0.13398921E+03 0.32000000E+00 0.0000E+00 0.9000E+01
       25  1    1    2    0    0 0.22463820E+02 0.62270653E+01 -.23596723E+01 0.12717691E+03 0.12500000E+03 0.0000E+00 0.9000E+01
       23  1    1    2    0    0 -.35124221E+02 0.48480530E+02 0.12307940E+03 0.16446235E+03 0.91188000E+02 0.0000E+00 0.9000E+01
        1  1    1    2  501    0 -.14048044E+02 -.39214379E+02 -.38987112E+02 0.57054469E+02 0.32000000E+00 0.0000E+00 0.9000E+01
        2  1    1    2  502    0 0.26708445E+02 -.15493216E+02 0.46826558E+03 0.46928258E+03 0.32000000E+00 0.0000E+00 0.9000E+01
#aMCatNLO 2  0  0  1  5 0.30876865D+02 0.00000000D+00  -5  6  0 0.00000000D+00 0.00000000D+00 0.00000000D+00 0.00000000D+00 0.00000000D+00
  <mgrwgt>
 -.3863105879D-02    3    2    0
 0.168785155570493D+03 0.000000000000000D+00 0.000000000000000D+00 0.168785155570493D+03
 0.168785155570493D+03 0.000000000000000D+00 0.000000000000000D+00 -.168785155570493D+03
 0.133430380690963D+03 0.329183015160853D+02 0.162759496492612D+00 -.330911683984977D+02
 0.135077700730203D+03 -.242846002554695D+02 0.421928125208225D+02 0.869526230344601D+02
 0.690622297198212D+02 -.863370126061580D+01 -.423555720173151D+02 -.538614546359623D+02
 0.000000000000000D+00 0.000000000000000D+00 -.000000000000000D+00 0.000000000000000D+00
 0.538669529546386D+03 0.000000000000000D+00 0.000000000000000D+00 0.538669529546386D+03
 0.170135353174734D+03 0.000000000000000D+00 0.000000000000000D+00 -.170135353174734D+03
 0.131390368706102D+03 0.224638600285503D+02 0.622724299874733D+01 -.330911683984977D+02
 0.139499461395219D+03 -.351241998026697D+02 0.484807211291802D+02 0.869526230344601D+02
 0.680896615003620D+02 -.140481048710984D+02 -.392147479561283D+02 -.538614546359623D+02
 0.369825391119437D+03 0.267084446452178D+02 -.154932161717993D+02 0.368534176371652D+03
-.375130260870D-04 0.000000000000D+00 0.000000000000D+00 0.106751164362D-06 0.000000000000D+00  6 2 1 25 23 1 2 4 0.10499218D+00 0.20450102D-01 0.23834895D+05 0.23834895D+05 0.23834895D+05 0.12255261D+01  1  2 13  7  6  1       21 -.123257498327D-01 0.100000000000D+01
-.375514239025D-04 0.000000000000D+00 0.000000000000D+00 0.106751164362D-06 0.000000000000D+00  6 2 1 25 23 1 2 4 0.10534110D+00 0.20450102D-01 0.23834895D+05 0.23834895D+05 0.23834895D+05 0.12255261D+01  1  2 13  7  6  1       21 -.122899592220D-01 0.100000000000D+01
0.639745040373D-04 0.000000000000D+00 0.000000000000D+00 0.108623076080D-06 0.462516276517D-08  6 2 1 25 23 1 2 4 0.10522877D+00 0.20613692D-01 0.23834895D+05 0.23834895D+05 0.23834895D+05 0.12255261D+01  1  2  1  7  6  1       21 0.207526031756D-01 0.100000000000D+01
  </mgrwgt>
  </event>
  <event>
  6     66 -.44737074E-03 0.18730527E+02 0.75467711E-02 0.11499630E+00
       21 -1    0    0  501  502 0.00000000E+00 0.00000000E+00 0.11187301E+03 0.11187553E+03 0.75000000E+00 0.0000E+00 0.9000E+01
        1 -1    0    0  503    0 0.00000000E+00 0.00000000E+00 -.13074956E+04 0.13074957E+04 0.32000000E+00 0.0000E+00 0.9000E+01
       25  1    1    2    0    0 -.80998939E+02 0.14163187E+03 -.95402060E+03 0.97591020E+03 0.12500000E+03 0.0000E+00 0.9000E+01
       23  1    1    2    0    0 0.62128198E+02 -.10608026E+03 -.27759986E+03 0.31700137E+03 0.91188000E+02 0.0000E+00 0.9000E+01
        1  1    1    2  501    0 0.91315724E+01 -.24461420E+02 0.77830056E+02 0.82093646E+02 0.32000000E+00 0.0000E+00 0.9000E+01
       21  1    1    2  503  502 0.97391679E+01 -.11090196E+02 -.41832208E+02 0.44365977E+02 0.75000000E+00 0.0000E+00 0.9000E+01
#aMCatNLO 2  0  0  2  1 0.14759534D+02 0.00000000D+00  -5  6  0 0.00000000D+00 0.00000000D+00 0.00000000D+00 0.00000000D+00 0.00000000D+00
  <mgrwgt>
 -.7293748571D+00    3    2    0
 0.373894772614176D+03 0.000000000000000D+00 0.000000000000000D+00 0.373894772614176D+03
 0.373894772614176D+03 0.000000000000000D+00 0.000000000000000D+00 -.373894772614176D+03
 0.319317469519438D+03 -.768204388552732D+02 0.136873730798860D+03 -.248400580376901D+03
 0.156953263725032D+03 0.641564391497504D+02 -.108389855584999D+03 -.213229025188190D+02
 0.271518811983881D+03 0.126639997055228D+02 -.284838752138618D+02 0.269723482895720D+03
 0.000000000000000D+00 0.000000000000000D+00 -.000000000000000D+00 -.000000000000000D+00
 0.378242762431247D+03 0.000000000000000D+00 0.000000000000000D+00 0.378242762431247D+03
 0.386706500506538D+03 0.000000000000000D+00 0.000000000000000D+00 -.386706500506538D+03
 0.322410091498515D+03 -.809989433149345D+02 0.141631881828786D+03 -.248400580376901D+03
 0.154540772544960D+03 0.621281964829598D+02 -.106080252944366D+03 -.213229025188190D+02
 0.270984325517421D+03 0.913157891338225D+01 -.244614332630365D+02 0.269723482895720D+03
 0.170140733768900D+02 0.973916791859239D+01 -.110901956213827D+02 -.846373807529064D+01
-.495289056100D-03 0.000000000000D+00 0.000000000000D+00 0.272592502971D-05 0.000000000000D+00  6 21 1 25 23 1 21 4 0.17013210D-01 0.20225331D+00 0.39893953D+05 0.39893953D+05 0.39893953D+05 0.12021174D+01  1  2 13  2  6  2        1 -.346722271562D+00 0.100000000000D+01
-.589507658965D-03 0.000000000000D+00 0.000000000000D+00 0.273834018011D-05 0.000000000000D+00  6 21 1 25 23 1 21 4 0.17013210D-01 0.19448486D+00 0.37504442D+05 0.37504442D+05 0.37504442D+05 0.12048518D+01  1  2  8  2  6  2        1 -.451915776850D+00 0.100000000000D+01
0.999481900482D-04 0.000000000000D+00 0.000000000000D+00 0.273834018011D-05 0.126468308546D-06  6 21 1 25 23 1 21 4 0.17211056D-01 0.20114900D+00 0.39893953D+05 0.39893953D+05 0.39893953D+05 0.12021174D+01  1  2  1  2  6  2        1 0.692631913155D-01 0.100000000000D+01
  </mgrwgt>
  </event>
  <event>
  5     66 -.44737074E-03 0.20843277E+03 0.75467711E-02 0.10338920E+00
       21 -1    0    0  501  502 0.00000000E+00 0.00000000E+00 0.13366242E+03 0.13366453E+03 0.75000000E+00 0.0000E+00 0.9000E+01
        1 -1    0    0  502    0 -.00000000E+00 -.00000000E+00 -.18293688E+04 0.18293688E+04 0.32000000E+00 0.0000E+00 0.9000E+01
       25  1    1    2    0    0 0.16421293E+03 0.34129488E+02 -.42552929E+03 0.47416335E+03 0.12500000E+03 0.0000E+00 0.9000E+01
       23  1    1    2    0    0 0.12726863E+03 -.24530953E+03 -.99245049E+03 0.10342375E+04 0.91188000E+02 0.0000E+00 0.9000E+01
        1  1    1    2  501    0 -.29148155E+03 0.21118004E+03 -.27772658E+03 0.45463245E+03 0.32000000E+00 0.0000E+00 0.9000E+01
#aMCatNLO 1  0  0  5  1 0.14795966D+02 0.00000000D+00  -5  6  0 0.00000000D+00 0.00000000D+00 0.00000000D+00 0.00000000D+00 0.00000000D+00
  <mgrwgt>
 -.2340397368D-01    7    2    0
 0.494489594688726D+03 0.000000000000000D+00 0.000000000000000D+00 0.494489594688726D+03
 0.494489594688726D+03 -.000000000000000D+00 -.000000000000000D+00 -.494489594688726D+03
 0.211557290083469D+03 0.164212943541132D+03 0.341294749144939D+02 -.316350296835519D+02
 0.351208814572497D+03 0.127268657226414D+03 -.245309550078923D+03 -.196617124425318D+03
 0.426213084721485D+03 -.291481600767545D+03 0.211180075164429D+03 0.228252154108870D+03
 0.000000000000000D+00 0.000000000000000D+00 0.000000000000000D+00 0.000000000000000D+00
 0.494489594688726D+03 0.000000000000000D+00 0.000000000000000D+00 0.494489594688726D+03
 0.494489594688726D+03 -.000000000000000D+00 -.000000000000000D+00 -.494489594688726D+03
 0.211247493840264D+03 0.163813192684690D+03 0.344190966802869D+02 -.313219945079200D+02
 0.350342280617366D+03 0.126605359028751D+03 -.244828986767653D+03 -.196097711734999D+03
 0.381373424920468D+03 -.258827218831073D+03 0.200671677357779D+03 0.195409922813953D+03
 0.460159899993528D+02 -.315913328823675D+02 0.973821272958743D+01 0.320097834289657D+02
0.626271324869D-05 0.000000000000D+00 0.000000000000D+00 0.549929289068D-07 0.000000000000D+00  6 21 1 25 23 1 21 2 0.20563614D-01 0.28144152D+00 0.18495823D+06 0.18495823D+06 0.18495823D+06 0.11398069D+01  1  2  2  3  6  5        1 0.801950928517D-03 0.100000000000D+01
-.430451937474D-06 0.330492457901D-06 -.126426136814D-07 0.549929289068D-07 0.000000000000D+00  6 21 1 25 23 1 21 4 0.20563614D-01 0.28144152D+00 0.18495823D+06 0.18495823D+06 0.18495823D+06 0.11398069D+01  1  2  3  3  6  5        1 -.716098106828D-04 0.100000000000D+01
0.702077270723D-06 0.000000000000D+00 0.000000000000D+00 0.549929289068D-07 0.000000000000D+00  6 21 1 25 23 1 21 4 0.20563614D-01 0.28144152D+00 0.18495823D+06 0.18495823D+06 0.18495823D+06 0.11398069D+01  1  2 15  3  6  5        1 0.116797291554D-03 0.100000000000D+01
0.151835740624D-03 0.000000000000D+00 0.000000000000D+00 0.549957729246D-07 0.000000000000D+00  6 21 1 25 23 1 21 4 0.20563614D-01 0.28144152D+00 0.18481268D+06 0.18481268D+06 0.18481268D+06 0.11398364D+01  1  2 12  3  6  5        1 0.252631592193D-01 0.100000000000D+01
-.315414998541D-03 0.000000000000D+00 0.000000000000D+00 0.549929289068D-07 0.000000000000D+00  6 21 1 25 23 1 21 4 0.20563614D-01 0.28144152D+00 0.18495823D+06 0.18495823D+06 0.18495823D+06 0.11398069D+01  1  2  4  3  6  5        1 -.524723119255D-01 0.100000000000D+01
-.156309489543D-03 0.000000000000D+00 0.000000000000D+00 0.549929289068D-07 0.000000000000D+00  6 21 1 25 23 1 21 4 0.20563614D-01 0.28144152D+00 0.18495823D+06 0.18495823D+06 0.18495823D+06 0.11398069D+01  1  2  5  3  6  5        1 -.260035836284D-01 0.100000000000D+01
0.174090493345D-03 0.000000000000D+00 -.000000000000D+00 0.549929289068D-07 0.000000000000D+00  6 21 1 25 23 1 21 4 0.20563614D-01 0.28144152D+00 0.18495823D+06 0.18495823D+06 0.18495823D+06 0.11398069D+01  1  2  6  3  6  5        1 0.289616242484D-01 0.100000000000D+01
  </mgrwgt>
  </event>
  <event>
  6     66 0.44737074E-03 0.19765828E+03 0.75467711E-02 0.10168546E+00
       21 -1    0    0  501  502 0.00000000E+00 0.00000000E+00 0.83131143E+03 0.83131177E+03 0.75000000E+00 0.0000E+00 0.9000E+01
        1 -1    0    0  502    0 0.00000000E+00 0.00000000E+00 -.71825570E+03 0.71825578E+03 0.32000000E+00 0.0000E+00 0.9000E+01
       25  1    1    2    0    0 0.77553564E+02 0.31067760E+02 -.26541895E+03 0.30504423E+03 0.12500000E+03 0.0000E+00 0.9000E+01
       23  1    1    2    0    0 0.19702759E+02 0.63930798E+01 -.25764434E+03 0.27408927E+03 0.91188000E+02 0.0000E+00 0.9000E+01
        1  1    1    2  503    0 -.41372060E+03 0.35727988E+01 0.35584032E+03 0.54571049E+03 0.32000000E+00 0.0000E+00 0.9000E+01
       21  1    1    2  501  503 0.31646428E+03 -.41033639E+02 0.28027869E+03 0.42472356E+03 0.75000000E+00 0.0000E+00 0.9000E+01
#aMCatNLO 2  0  0  5  1 0.21397172D+01 0.00000000D+00  -5  6  0 0.00000000D+00 0.00000000D+00 0.00000000D+00 0.00000000D+00 0.00000000D+00
  <mgrwgt>
 0.4093580306D-02    1    2    0
 0.772718897204516D+03 0.000000000000000D+00 0.000000000000000D+00 0.772718897204516D+03
 0.772718897204516D+03 -.000000000000000D+00 -.000000000000000D+00 -.772718897204516D+03
 0.413688621630735D+03 0.934858441788099D+02 0.372044985388309D+02 -.381299748089855D+03
 0.375510490212203D+03 0.341304653904345D+02 0.119502916722754D+02 -.362470935078371D+03
 0.756238682566094D+03 -.127616309569244D+03 -.491547902111063D+02 0.743770683168226D+03
 0.000000000000000D+00 0.000000000000000D+00 0.000000000000000D+00 0.000000000000000D+00
 0.772718897204516D+03 0.000000000000000D+00 0.000000000000000D+00 0.772718897204516D+03
 0.772718897204516D+03 -.000000000000000D+00 -.000000000000000D+00 -.772718897204516D+03
 0.325256944368040D+03 0.775500697431679D+02 0.310664143716934D+02 -.288423203713832D+03
 0.293651870074905D+03 0.196996048169037D+02 0.639186480307699D+01 -.278365297925021D+03
 0.520906430380560D+03 -.413751612633559D+03 0.360765209768348D+01 0.316449201454655D+03
 0.405622549585526D+03 0.316501938073488D+03 -.410659312724539D+02 0.250339300184199D+03
0.213961126249D-03 0.000000000000D+00 0.000000000000D+00 0.686903703909D-05 0.366819802194D-09  6 21 1 25 23 1 21 4 0.12789410D+00 0.11050091D+00 0.23852447D+06 0.23852447D+06 0.23852447D+06 0.11304057D+01  1  2  1  3  6  5        1 0.409358030578D-02 0.100000000000D+01
  </mgrwgt>
  </event>
  <event>
  5     66 0.44737074E-03 0.15397864E+03 0.75467711E-02 0.97949551E-01
       21 -1    0    0  501  502 0.00000000E+00 0.00000000E+00 0.20425444E+02 0.20439209E+02 0.75000000E+00 0.0000E+00 0.9000E+01
        1 -1    0    0  502    0 0.00000000E+00 0.00000000E+00 -.32247102E+04 0.32247102E+04 0.32000000E+00 0.0000E+00 0.9000E+01
       25  1    1    2    0    0 -.31144794E+02 -.95340177E+02 -.20100017E+04 0.20163808E+04 0.12500000E+03 0.0000E+00 0.9000E+01
       23  1    1    2    0    0 -.50844310E+02 -.34994672E+02 -.76128022E+03 0.76920257E+03 0.91188000E+02 0.0000E+00 0.9000E+01
        1  1    1    2  501    0 0.81989104E+02 0.13033485E+03 -.43300282E+03 0.45956602E+03 0.32000000E+00 0.0000E+00 0.9000E+01
#aMCatNLO 1  0  0  1  1 0.26152849D+02 0.00000000D+00  -5  6  0 0.00000000D+00 0.00000000D+00 0.00000000D+00 0.00000000D+00 0.00000000D+00
  <mgrwgt>
 0.8103711375D-01   12    2    0
 0.256687546703353D+03 0.000000000000000D+00 0.000000000000000D+00 0.256687546703353D+03
 0.256687546703353D+03 0.000000000000000D+00 0.000000000000000D+00 -.256687546703353D+03
 0.200319933422818D+03 -.311448336561793D+02 -.953402409472567D+02 -.120180337489834D+03
 0.110676756026671D+03 -.508443324801751D+02 -.349947072324735D+02 -.111497668561337D+02
 0.202378403957217D+03 0.819891661363544D+02 0.130334948179730D+03 0.131330104345967D+03
 0.000000000000000D+00 -.000000000000000D+00 -.000000000000000D+00 0.000000000000000D+00
 0.122943649636846D+04 0.000000000000000D+00 0.000000000000000D+00 0.122943649636846D+04
 0.493923593579805D+03 0.000000000000000D+00 0.000000000000000D+00 -.493923593579805D+03
 0.208247762796733D+03 0.113279570236555D+03 0.215999110575789D+02 -.120180337489834D+03
 0.978346567190203D+02 0.228622693125569D+02 0.246853813473181D+02 -.111497668561337D+02
 0.475107992079850D+03 0.321473515482738D+03 0.324244948570974D+03 0.131330104345967D+03
 0.942169678352661D+03 -.457615355031850D+03 -.370530240975871D+03 0.735512902788655D+03
0.378497434924D-04 0.000000000000D+00 0.000000000000D+00 0.289165116683D-06 0.000000000000D+00  6 21 1 25 23 1 21 2 0.31434360D-02 0.49611032D+00 0.45019717D+05 0.45019717D+05 0.45019717D+05 0.11968211D+01  1  2  2  1  6  1       21 0.183400635400D-01 0.100000000000D+01
-.199148016700D-05 0.199738583917D-05 -.764077271167D-07 0.289165116683D-06 0.000000000000D+00  6 21 1 25 23 1 21 4 0.31434360D-02 0.49611032D+00 0.45019717D+05 0.45019717D+05 0.45019717D+05 0.11968211D+01  1  2  3  1  6  1       21 -.138220463553D-02 0.100000000000D+01
0.371674951325D-05 0.000000000000D+00 0.000000000000D+00 0.289165116683D-06 0.000000000000D+00  6 21 1 25 23 1 21 4 0.31434360D-02 0.49611032D+00 0.45019717D+05 0.45019717D+05 0.45019717D+05 0.11968211D+01  1  2 15  1  6  1       21 0.257964326809D-02 0.100000000000D+01
0.151001591724D+00 0.000000000000D+00 -.414378332917D-01 0.289165116683D-06 0.000000000000D+00  6 21 1 25 23 1 21 4 0.18965892D+00 0.49611032D+00 0.45019717D+05 0.45019717D+05 0.45019717D+05 0.11968211D+01  1  2  5  1  6  1       21 0.274693240433D-01 0.100000000000D+01
0.670911728098D-01 0.000000000000D+00 -.184091010540D-01 0.289165116683D-06 0.000000000000D+00  6 -1 1 25 23 1 -1 4 0.18965892D+00 0.49611032D+00 0.45019717D+05 0.45019717D+05 0.45019717D+05 0.11968211D+01  1  2  5  4  6  1       21 0.146578528169D-02 0.100000000000D+01
0.670911728098D-01 0.000000000000D+00 -.184091010540D-01 0.289165116683D-06 0.000000000000D+00  6 1 1 25 23 1 1 4 0.18965892D+00 0.49611032D+00 0.45019717D+05 0.45019717D+05 0.45019717D+05 0.11968211D+01  1  2  5  5  6  1       21 0.964143462295D-02 0.100000000000D+01
0.670911728098D-01 0.000000000000D+00 -.184091010540D-01 0.289165116683D-06 0.000000000000D+00  6 -2 1 25 23 1 -2 4 0.18965892D+00 0.49611032D+00 0.45019717D+05 0.45019717D+05 0.45019717D+05 0.11968211D+01  1  2  5  6  6  1       21 0.109753967288D-02 0.100000000000D+01
0.670911728098D-01 0.000000000000D+00 -.184091010540D-01 0.289165116683D-06 0.000000000000D+00  6 -4 1 25 23 1 -4 4 0.18965892D+00 0.49611032D+00 0.45019717D+05 0.45019717D+05 0.45019717D+05 0.11968211D+01  1  2  5  6  6  1       21 0.561019714599D-03 0.100000000000D+01
0.670911728098D-01 0.000000000000D+00 -.184091010540D-01 0.289165116683D-06 0.000000000000D+00  6 2 1 25 23 1 2 4 0.18965892D+00 0.49611032D+00 0.45019717D+05 0.45019717D+05 0.45019717D+05 0.11968211D+01  1  2  5  7  6  1       21 0.192525277392D-01 0.100000000000D+01
0.670911728098D-01 0.000000000000D+00 -.184091010540D-01 0.289165116683D-06 0.000000000000D+00  6 4 1 25 23 1 4 4 0.18965892D+00 0.49611032D+00 0.45019717D+05 0.45019717D+05 0.45019717D+05 0.11968211D+01  1  2  5  7  6  1       21 0.561019714599D-03 0.100000000000D+01
0.670911728098D-01 0.000000000000D+00 -.184091010540D-01 0.289165116683D-06 0.000000000000D+00  6 -3 1 25 23 1 -3 4 0.18965892D+00 0.49611032D+00 0.45019717D+05 0.45019717D+05 0.45019717D+05 0.11968211D+01  1  2  5  8  6  1       21 0.723376133961D-03 0.100000000000D+01
0.670911728098D-01 0.000000000000D+00 -.184091010540D-01 0.289165116683D-06 0.000000000000D+00  6 3 1 25 23 1 3 4 0.18965892D+00 0.49611032D+00 0.45019717D+05 0.45019717D+05 0.45019717D+05 0.11968211D+01  1  2  5  9  6  1       21 0.727584657618D-03 0.100000000000D+01
  </mgrwgt>
  </event>
  <event>
  5     66 0.44737074E-03 0.32516831E+02 0.75467711E-02 0.12227181E+00
       21 -1    0    0  501  502 0.00000000E+00 0.00000000E+00 0.81732708E+02 0.81736149E+02 0.75000000E+00 0.0000E+00 0.9000E+01
        1 -1    0    0  502    0 -.00000000E+00 -.00000000E+00 -.22264686E+03 0.22264709E+03 0.32000000E+00 0.0000E+00 0.9000E+01
       25  1    1    2    0    0 0.38499374E+02 -.43834566E+01 -.83336341E+02 0.15514948E+03 0.12500000E+03 0.0000E+00 0.9000E+01
       23  1    1    2    0    0 -.44054242E+02 -.27654036E+02 -.47182745E+02 0.11509555E+03 0.91188000E+02 0.0000E+00 0.9000E+01
        1  1    1    2  501    0 0.55548686E+01 0.32037492E+02 -.10395064E+02 0.34138208E+02 0.32000000E+00 0.0000E+00 0.9000E+01
#aMCatNLO 1  0  0  5  5 0.31978655D+01 0.00000000D+00  -5  6  0 0.00000000D+00 0.00000000D+00 0.00000000D+00 0.00000000D+00 0.00000000D+00
  <mgrwgt>
 0.2004546488D+00    5    2    0
 0.134900294225934D+03 0.000000000000000D+00 0.000000000000000D+00 0.134900294225934D+03
 0.134900294225934D+03 -.000000000000000D+00 -.000000000000000D+00 -.134900294225934D+03
 0.131510582874495D+03 0.384992469693341D+02 -.438418705540281D+01 -.129853877357202D+02
 0.105205439383351D+03 -.440543435720359D+02 -.276546202504313D+02 0.688258113540072D+01
 0.330845661940220D+02 0.555509660270185D+01 0.320388073058341D+02 0.610280660031949D+01
 0.000000000000000D+00 0.000000000000000D+00 -.000000000000000D+00 0.000000000000000D+00
 0.134900294225934D+03 0.000000000000000D+00 0.000000000000000D+00 0.134900294225934D+03
 0.134900294225934D+03 -.000000000000000D+00 -.000000000000000D+00 -.134900294225934D+03
 0.131609157466921D+03 0.393845385490896D+02 0.721698289501563D+00 -.120128099962960D+02
 0.103970577653409D+03 -.433505508184814D+02 -.235955224476301D+02 0.765576500038705D+01
 0.570096441253593D+01 -.215797160468107D+01 -.380262271391519D+01 -.365844424339193D+01
 0.285198889190022D+02 0.612398387407293D+01 0.266764468720438D+02 0.801548923930085D+01
0.227857436988D-04 0.000000000000D+00 0.000000000000D+00 0.483461294774D-06 0.000000000000D+00  6 21 1 25 23 1 21 2 0.12574545D-01 0.34253645D-01 0.18004919D+05 0.18004919D+05 0.18004919D+05 0.12388823D+01  1  2  2  3  6  5        1 0.260499279449D+00 0.100000000000D+01
0.163078898333D-06 0.120243673007D-05 -.459978516641D-07 0.483461294774D-06 0.000000000000D+00  6 21 1 25 23 1 21 4 0.12574545D-01 0.34253645D-01 0.18004919D+05 0.18004919D+05 0.18004919D+05 0.12388823D+01  1  2  3  3  6  5        1 0.286154918541D-02 0.100000000000D+01
0.219567909524D-05 0.000000000000D+00 0.000000000000D+00 0.483461294774D-06 0.000000000000D+00  6 21 1 25 23 1 21 4 0.12574545D-01 0.34253645D-01 0.18004919D+05 0.18004919D+05 0.18004919D+05 0.12388823D+01  1  2 15  3  6  5        1 0.385276316594D-01 0.100000000000D+01
-.148055960623D-04 0.000000000000D+00 0.000000000000D+00 0.483461294774D-06 0.000000000000D+00  6 21 1 25 23 1 21 4 0.12574545D-01 0.34253645D-01 0.18004919D+05 0.18004919D+05 0.18004919D+05 0.12388823D+01  1  2  4  3  6  5        1 -.259794135136D+00 0.100000000000D+01
0.900677569089D-05 0.000000000000D+00 0.000000000000D+00 0.483461294774D-06 0.232773949163D-07  6 21 1 25 23 1 21 4 0.12574545D-01 0.34253645D-01 0.17754326D+05 0.17754326D+05 0.17754326D+05 0.12395616D+01  1  2 11  3  6  5        1 0.158360323687D+00 0.100000000000D+01
  </mgrwgt>
  </event>
  <event>
  6     66 -.44737074E-03 0.43704641E+02 0.75467711E-02 0.11429656E+00
       21 -1    0    0  501  503 0.00000000E+00 0.00000000E+00 0.45749870E+02 0.45756018E+02 0.75000000E+00 0.0000E+00 0.9000E+01
        1 -1    0    0  502    0 0.00000000E+00 0.00000000E+00 -.18085120E+04 0.18085120E+04 0.32000000E+00 0.0000E+00 0.9000E+01
       25  1    1    2    0    0 -.47605263E+02 -.99241604E+02 -.77297155E+03 0.79071181E+03 0.12500000E+03 0.0000E+00 0.9000E+01
       23  1    1    2    0    0 -.44521140E+02 0.96652724E+02 -.75207176E+03 0.76501704E+03 0.91188000E+02 0.0000E+00 0.9000E+01
        1  1    1    2  501    0 0.59783148E+02 -.27327052E+02 -.24518838E+03 0.25384687E+03 0.32000000E+00 0.0000E+00 0.9000E+01
       21  1    1    2  502  503 0.32343255E+02 0.29915932E+02 0.74695361E+01 0.44692344E+02 0.75000000E+00 0.0000E+00 0.9000E+01
#aMCatNLO 2  0  0  1  2 0.44057339D+02 0.00000000D+00  -5  6  0 0.00000000D+00 0.00000000D+00 0.00000000D+00 0.00000000D+00 0.00000000D+00
  <mgrwgt>
 -.3344380747D-01    3    2    0
 0.186348480634454D+03 0.000000000000000D+00 0.000000000000000D+00 0.186348480634454D+03
 0.186348480634454D+03 0.000000000000000D+00 0.000000000000000D+00 -.186348480634454D+03
 0.155637336436963D+03 -.336730000490960D+02 -.863545895427100D+02 0.264469767575941D+01
 0.146141628910948D+03 -.320939355709720D+02 0.108147610939026D+03 -.177819544621116D+02
 0.709179959209963D+02 0.657669356200681D+02 -.217930213963163D+02 0.151372567863522D+02
 0.000000000000000D+00 0.000000000000000D+00 0.000000000000000D+00 0.000000000000000D+00
 0.436423653297075D+03 0.000000000000000D+00 0.000000000000000D+00 0.436423653297075D+03
 0.189596578759332D+03 0.000000000000000D+00 0.000000000000000D+00 -.189596578759332D+03
 0.166574788184792D+03 -.476055440032384D+02 -.992415125497796D+02 0.264469767575941D+01
 0.141263474794537D+03 -.445214140363530D+02 0.966528000356835D+02 -.177819544621116D+02
 0.674537220853297D+02 0.597837031597860D+02 -.273272193362502D+02 0.151372567863522D+02
 0.250728246991748D+03 0.323432548798054D+02 0.299159318503463D+02 0.246827074537743D+03
-.438415581846D-04 0.000000000000D+00 0.000000000000D+00 0.143122766653D-06 0.000000000000D+00  6 21 1 25 23 1 21 4 0.70268717D-02 0.27346571D+00 0.43364787D+05 0.43364787D+05 0.43364787D+05 0.11984544D+01  1  2 13  1  6  1       21 -.725258435174D-01 0.100000000000D+01
-.433230672457D-04 0.000000000000D+00 0.000000000000D+00 0.143122766653D-06 0.000000000000D+00  6 21 1 25 23 1 21 4 0.72282604D-02 0.27346571D+00 0.43364787D+05 0.43364787D+05 0.43364787D+05 0.11984544D+01  1  2 13  1  6  1       21 -.682451068057D-01 0.100000000000D+01
0.681373493204D-04 0.000000000000D+00 0.000000000000D+00 0.145640400284D-06 0.341298993440D-08  6 21 1 25 23 1 21 4 0.70388960D-02 0.27823228D+00 0.43364787D+05 0.43364787D+05 0.43364787D+05 0.11984544D+01  1  2  1  1  6  1       21 0.107327142854D+00 0.100000000000D+01
  </mgrwgt>
  </event>
  <event>
  5     66 0.44737074E-03 0.64452124E+02 0.75467711E-02 0.11460265E+00
       21 -1    0    0  501  502 0.00000000E+00 0.00000000E+00 0.23915874E+02 0.23927632E+02 0.75000000E+00 0.0000E+00 0.9000E+01
        1 -1    0    0  502    0 0.00000000E+00 0.00000000E+00 -.24922498E+04 0.24922498E+04 0.32000000E+00 0.0000E+00 0.9000E+01
       25  1    1    2    0    0 0.43277589E+02 -.10299664E+03 -.75259327E+03 0.77104013E+03 0.12500000E+03 0.0000E+00 0.9000E+01
       23  1    1    2    0    0 -.18490426E+02 0.43501587E+02 -.17402378E+03 0.20207377E+03 0.91188000E+02 0.0000E+00 0.9000E+01
        1  1    1    2  501    0 -.24787163E+02 0.59495053E+02 -.15417169E+04 0.15430636E+04 0.32000000E+00 0.0000E+00 0.9000E+01
#aMCatNLO 1  0  0  1  2 0.60249159D+02 0.00000000D+00  -5  6  0 0.00000000D+00 0.00000000D+00 0.00000000D+00 0.00000000D+00 0.00000000D+00
  <mgrwgt>
 0.4120282821D-01    4    2    0
 0.244170331600459D+03 0.000000000000000D+00 0.000000000000000D+00 0.244170331600459D+03
 0.244170331600459D+03 0.000000000000000D+00 0.000000000000000D+00 -.244170331600459D+03
 0.168780372375828D+03 0.432776065946287D+02 -.102996681904666D+03 0.195075980938871D+02
 0.161577192524036D+03 -.184904092779113D+02 0.435015468262905D+02 0.124730341089908D+03
 0.157983098301054D+03 -.247871973167175D+02 0.594951350783759D+02 -.144237939183795D+03
 0.000000000000000D+00 0.000000000000000D+00 -.000000000000000D+00 -.000000000000000D+00
 0.260692580660920D+03 0.000000000000000D+00 0.000000000000000D+00 0.260692580660920D+03
 0.307877885333770D+03 0.000000000000000D+00 0.000000000000000D+00 -.307877885333770D+03
 0.161623420779577D+03 0.236599617616008D+02 -.977588357671015D+02 0.195075980938871D+02
 0.166390796277230D+03 -.379634288200311D+02 0.487007784906185D+02 0.124730341089908D+03
 0.164029037582704D+03 -.439065895408892D+02 0.645999494210928D+02 -.144237939183795D+03
 0.765272113551795D+02 0.582100565993196D+02 -.155418921446098D+02 -.471853046728496D+02
0.450672419067D-04 0.000000000000D+00 0.000000000000D+00 0.651868873059D-07 0.000000000000D+00  6 21 1 25 23 1 21 2 0.36802713D-02 0.38342395D+00 0.28024815D+05 0.28024815D+05 0.28024815D+05 0.12180151D+01  1  2  2  1  6  1       21 0.563789762714D-01 0.100000000000D+01
-.573641170567D-05 0.237826369452D-05 -.909777769617D-07 0.651868873059D-07 0.000000000000D+00  6 21 1 25 23 1 21 4 0.36802713D-02 0.38342395D+00 0.28024815D+05 0.28024815D+05 0.28024815D+05 0.12180151D+01  1  2  3  1  6  1       21 -.106463771838D-01 0.100000000000D+01
0.386352479728D-05 0.000000000000D+00 0.000000000000D+00 0.651868873059D-07 0.000000000000D+00  6 21 1 25 23 1 21 4 0.36802713D-02 0.38342395D+00 0.28024815D+05 0.28024815D+05 0.28024815D+05 0.12180151D+01  1  2 15  1  6  1       21 0.717043063877D-02 0.100000000000D+01
-.630422647701D-05 0.000000000000D+00 0.000000000000D+00 0.651868873059D-07 0.000000000000D+00  6 21 1 25 23 1 21 4 0.36802713D-02 0.38342395D+00 0.28024815D+05 0.28024815D+05 0.28024815D+05 0.12180151D+01  1  2  4  1  6  1       21 -.117002015145D-01 0.100000000000D+01
  </mgrwgt>
  </event>
  <event>
  5     66 -.44737074E-03 0.52567266E+02 0.75467711E-02 0.11529793E+00
       21 -1    0    0  501  502 0.00000000E+00 0.00000000E+00 0.51812494E+02 0.51817922E+02 0.75000000E+00 0.0000E+00 0.9000E+01
        1 -1    0    0  502    0 0.00000000E+00 0.00000000E+00 -.70510239E+03 0.70510246E+03 0.32000000E+00 0.0000E+00 0.9000E+01
       25  1    1    2    0    0 0.68588448E+02 -.17517003E+02 -.33871010E+03 0.36791405E+03 0.12500000E+03 0.0000E+00 0.9000E+01
       23  1    1    2    0    0 -.99275111E+02 -.25163188E+02 -.10438400E+03 0.17233689E+03 0.91188000E+02 0.0000E+00 0.9000E+01
        1  1    1    2  501    0 0.30686664E+02 0.42680191E+02 -.21019580E+03 0.21666944E+03 0.32000000E+00 0.0000E+00 0.9000E+01
#aMCatNLO 1  0  0  1  2 0.55790558D+02 0.00000000D+00  -5  6  0 0.00000000D+00 0.00000000D+00 0.00000000D+00 0.00000000D+00 0.00000000D+00
  <mgrwgt>
 -.2589348878D+00   12    2    0
 0.191141820087097D+03 0.000000000000000D+00 0.000000000000000D+00 0.191141820087097D+03
 0.191141820087097D+03 0.000000000000000D+00 0.000000000000000D+00 -.191141820087097D+03
 0.149642104009087D+03 0.685883212671685D+02 -.175171786727078D+02 -.419112148400242D+02
 0.162843432497039D+03 -.992752487906670D+02 -.251633787359634D+02 0.878291609407688D+02
 0.697981036680670D+02 0.306869275234985D+02 0.426805574086712D+02 -.459179461007447D+02
 0.000000000000000D+00 0.000000000000000D+00 0.000000000000000D+00 0.000000000000000D+00
 0.115865428368828D+05 0.000000000000000D+00 0.000000000000000D+00 0.115865428368828D+05
 0.193234915304084D+03 0.000000000000000D+00 0.000000000000000D+00 -.193234915304084D+03
 0.150066055629873D+03 0.608700180246024D+02 -.378564661402272D+02 -.419112148400242D+02
 0.173142206735260D+03 -.107927796161637D+03 -.479645881175703D+02 0.878291609407688D+02
 0.631249719297091D+02 0.272637954785317D+02 0.336599132963896D+02 -.459179461007447D+02
 0.113934445178920D+05 0.197939826585028D+02 0.521611409614080D+02 0.113933079215787D+05
0.189405233385D-06 0.000000000000D+00 0.000000000000D+00 0.734369529829D-07 0.000000000000D+00  6 21 1 25 23 1 21 2 0.79715761D-02 0.10847771D+00 0.27780241D+05 0.27780241D+05 0.27780241D+05 0.12184180D+01  1  2  2  1  6  1       21 0.105720072594D-02 0.100000000000D+01
-.163262278994D-07 0.999518876803D-08 -.382354596137D-09 0.734369529829D-07 0.000000000000D+00  6 21 1 25 23 1 21 4 0.79715761D-02 0.10847771D+00 0.27780241D+05 0.27780241D+05 0.27780241D+05 0.12184180D+01  1  2  3  1  6  1       21 -.135283222426D-03 0.100000000000D+01
0.171859854576D-07 0.000000000000D+00 0.000000000000D+00 0.734369529829D-07 0.000000000000D+00  6 21 1 25 23 1 21 4 0.79715761D-02 0.10847771D+00 0.27780241D+05 0.27780241D+05 0.27780241D+05 0.12184180D+01  1  2 15  1  6  1       21 0.142407389361D-03 0.100000000000D+01
-.229241211794D+00 0.000000000000D+00 -.208373719935D-03 0.734369529829D-07 0.000000000000D+00  6 21 1 25 23 1 21 4 0.48329146D+00 0.10847771D+00 0.27780241D+05 0.27780241D+05 0.27780241D+05 0.12184180D+01  1  2  5  1  6  1       21 -.412208469306D-01 0.100000000000D+01
-.101831709044D+00 0.000000000000D+00 -.925721286098D-04 0.734369529829D-07 0.000000000000D+00  6 -1 1 25 23 1 -1 4 0.48329146D+00 0.10847771D+00 0.27780241D+05 0.27780241D+05 0.27780241D+05 0.12184180D+01  1  2  5  4  6  1       21 -.167394876842D-02 0.100000000000D+01
-.101831709044D+00 0.000000000000D+00 -.925721286098D-04 0.734369529829D-07 0.000000000000D+00  6 1 1 25 23 1 1 4 0.48329146D+00 0.10847771D+00 0.27780241D+05 0.27780241D+05 0.27780241D+05 0.12184180D+01  1  2  5  5  6  1       21 -.480928499665D-01 0.100000000000D+01
-.101831709044D+00 0.000000000000D+00 -.925721286098D-04 0.734369529829D-07 0.000000000000D+00  6 -2 1 25 23 1 -2 4 0.48329146D+00 0.10847771D+00 0.27780241D+05 0.27780241D+05 0.27780241D+05 0.12184180D+01  1  2  5  6  6  1       21 -.158645772001D-02 0.100000000000D+01
-.101831709044D+00 0.000000000000D+00 -.925721286098D-04 0.734369529829D-07 0.000000000000D+00  6 -4 1 25 23 1 -4 4 0.48329146D+00 0.10847771D+00 0.27780241D+05 0.27780241D+05 0.27780241D+05 0.12184180D+01  1  2  5  6  6  1       21 -.687167622337D-03 0.100000000000D+01
-.101831709044D+00 0.000000000000D+00 -.925721286098D-04 0.734369529829D-07 0.000000000000D+00  6 2 1 25 23 1 2 4 0.48329146D+00 0.10847771D+00 0.27780241D+05 0.27780241D+05 0.27780241D+05 0.12184180D+01  1  2  5  7  6  1       21 -.162452896485D+00 0.100000000000D+01
-.101831709044D+00 0.000000000000D+00 -.925721286098D-04 0.734369529829D-07 0.000000000000D+00  6 4 1 25 23 1 4 4 0.48329146D+00 0.10847771D+00 0.27780241D+05 0.27780241D+05 0.27780241D+05 0.12184180D+01  1  2  5  7  6  1       21 -.687167622337D-03 0.100000000000D+01
-.101831709044D+00 0.000000000000D+00 -.925721286098D-04 0.734369529829D-07 0.000000000000D+00  6 -3 1 25 23 1 -3 4 0.48329146D+00 0.10847771D+00 0.27780241D+05 0.27780241D+05 0.27780241D+05 0.12184180D+01  1  2  5  8  6  1       21 -.171320289558D-02 0.100000000000D+01
-.101831709044D+00 0.000000000000D+00 -.925721286098D-04 0.734369529829D-07 0.000000000000D+00  6 3 1 25 23 1 3 4 0.48329146D+00 0.10847771D+00 0.27780241D+05 0.27780241D+05 0.27780241D+05 0.12184180D+01  1  2  5  9  6  1       21 -.188467472700D-02 0.100000000000D+01
  </mgrwgt>
  </event>
  <event>
  5     66 0.44737074E-03 0.29907648E+02 0.75467711E-02 0.12214885E+00
       21 -1    0    0  501  502 0.00000000E+00 0.00000000E+00 0.13600096E+03 0.13600303E+03 0.75000000E+00 0.0000E+00 0.9000E+01
        1 -1    0    0  502    0 0.00000000E+00 0.00000000E+00 -.13510043E+03 0.13510081E+03 0.32000000E+00 0.0000E+00 0.9000E+01
       25  1    1    2    0    0 -.53853521E+02 -.25551250E+02 -.18742045E+02 0.13974739E+03 0.12500000E+03 0.0000E+00 0.9000E+01
       23  1    1    2    0    0 0.24786271E+02 0.32585040E+02 0.14287031E+02 0.10097284E+03 0.91188000E+02 0.0000E+00 0.9000E+01
        1  1    1    2  501    0 0.29067250E+02 -.70337905E+01 0.53555439E+01 0.30383605E+02 0.32000000E+00 0.0000E+00 0.9000E+01
#aMCatNLO 1  0  0  5  1 0.84033152D+00 0.00000000D+00  -5  6  0 0.00000000D+00 0.00000000D+00 0.00000000D+00 0.00000000D+00 0.00000000D+00
  <mgrwgt>
 0.4169707147D-01    8    2    0
 0.135551169260017D+03 0.000000000000000D+00 0.000000000000000D+00 0.135551169260017D+03
 0.135551169260017D+03 -.000000000000000D+00 -.000000000000000D+00 -.135551169260017D+03
 0.139810719166286D+03 -.538543533703530D+02 -.255510484289897D+02 -.192065025716440D+02
 0.100925825080556D+03 0.247856703464684D+02 0.325851857841648D+02 0.139515962197411D+02
 0.303657942731919D+02 0.290686830238846D+02 -.703413735517507D+01 0.525490635190289D+01
 0.000000000000000D+00 0.000000000000000D+00 0.000000000000000D+00 0.000000000000000D+00
 0.135551169260017D+03 0.000000000000000D+00 0.000000000000000D+00 0.135551169260017D+03
 0.135551169260017D+03 -.000000000000000D+00 -.000000000000000D+00 -.135551169260017D+03
 0.139777274310616D+03 -.537628469306141D+02 -.255731914640036D+02 -.191899604472200D+02
 0.100938562402962D+03 0.248517386034739D+02 0.325691983658764D+02 0.139635397433989D+02
 0.282569993672538D+02 0.268185555093119D+02 -.690886166656445D+01 0.561165965710810D+01
 0.212950243920214D+01 0.209255281782831D+01 -.871452353083814D-01 -.385238953287050D+00
0.181118469911D-05 0.000000000000D+00 0.000000000000D+00 0.499010338142D-06 0.000000000000D+00  6 21 1 25 23 1 21 2 0.20923413D-01 0.20784870D-01 0.18002891D+05 0.18002891D+05 0.18002891D+05 0.12388878D+01  1  2  2  3  6  5        1 0.153351554050D-01 0.100000000000D+01
0.304616369497D-07 0.955788424526D-07 -.365626008207D-08 0.499010338142D-06 0.000000000000D+00  6 21 1 25 23 1 21 4 0.20923413D-01 0.20784870D-01 0.18002891D+05 0.18002891D+05 0.18002891D+05 0.12388878D+01  1  2  3  3  6  5        1 0.395860921421D-03 0.100000000000D+01
0.178287766198D-06 0.000000000000D+00 0.000000000000D+00 0.499010338142D-06 0.000000000000D+00  6 21 1 25 23 1 21 4 0.20923413D-01 0.20784870D-01 0.18002891D+05 0.18002891D+05 0.18002891D+05 0.12388878D+01  1  2 15  3  6  5        1 0.231691945912D-02 0.100000000000D+01
0.340631577688D-11 0.000000000000D+00 0.000000000000D+00 0.499050873968D-06 0.000000000000D+00  6 21 1 25 23 1 21 4 0.20923413D-01 0.20784870D-01 0.17984194D+05 0.17984194D+05 0.17984194D+05 0.12389381D+01  1  2 12  3  6  5        1 0.442731230675D-07 0.100000000000D+01
-.466176329774D-04 0.000000000000D+00 0.000000000000D+00 0.499010338142D-06 0.000000000000D+00  6 21 1 25 23 1 21 4 0.20923413D-01 0.20784870D-01 0.18002891D+05 0.18002891D+05 0.18002891D+05 0.12388878D+01  1  2  4  3  6  5        1 -.605814427352D+00 0.100000000000D+01
-.514076326879D-04 0.000000000000D+00 0.000000000000D+00 0.499010338142D-06 0.000000000000D+00  6 21 1 25 23 1 21 4 0.20923413D-01 0.20784870D-01 0.18002891D+05 0.18002891D+05 0.18002891D+05 0.12388878D+01  1  2  5  3  6  5        1 -.668062352574D+00 0.100000000000D+01
0.582434341749D-04 0.000000000000D+00 -.000000000000D+00 0.499010338142D-06 0.000000000000D+00  6 21 1 25 23 1 21 4 0.20923413D-01 0.20784870D-01 0.18002891D+05 0.18002891D+05 0.18002891D+05 0.12388878D+01  1  2  6  3  6  5        1 0.756896274394D+00 0.100000000000D+01
0.415953291278D-04 0.000000000000D+00 0.000000000000D+00 0.499010338142D-06 0.393423580306D-05  6 21 1 25 23 1 21 4 0.20923413D-01 0.20784870D-01 0.17984194D+05 0.17984194D+05 0.17984194D+05 0.12389381D+01  1  2 11  3  6  5        1 0.540629596941D+00 0.100000000000D+01
  </mgrwgt>
  </event>
  <event>
  5     66 0.44737074E-03 0.14278523E+03 0.75467711E-02 0.11173577E+00
       21 -1    0    0  501  502 0.00000000E+00 0.00000000E+00 0.55399439E+02 0.55404515E+02 0.75000000E+00 0.0000E+00 0.9000E+01
        1 -1    0    0  502    0 0.00000000E+00 0.00000000E+00 -.11039758E+04 0.11039758E+04 0.32000000E+00 0.0000E+00 0.9000E+01
       25  1    1    2    0    0 -.22755299E+02 -.32102815E+02 -.38534068E+03 0.40701453E+03 0.12500000E+03 0.0000E+00 0.9000E+01
       23  1    1    2    0    0 0.17657262E+03 0.30689532E+02 -.39100638E+03 0.43968282E+03 0.91188000E+02 0.0000E+00 0.9000E+01
        1  1    1    2  501    0 -.15381733E+03 0.14132825E+01 -.27222929E+03 0.31268300E+03 0.32000000E+00 0.0000E+00 0.9000E+01
#aMCatNLO 1  0  0  2  2 0.14188278D+01 0.00000000D+00  -5  6  0 0.00000000D+00 0.00000000D+00 0.00000000D+00 0.00000000D+00 0.00000000D+00
  <mgrwgt>
 0.5681546948D-01   10    2    0
 0.247310753428111D+03 0.000000000000000D+00 0.000000000000000D+00 0.247310753428111D+03
 0.247310753428111D+03 0.000000000000000D+00 0.000000000000000D+00 -.247310753428111D+03
 0.137126120637012D+03 -.227552095521283D+02 -.321028154069816D+02 -.403755203327510D+02
 0.201688828444781D+03 0.176572757106794D+03 0.306895308607346D+02 0.155995614900355D+02
 0.155806557774429D+03 -.153817547554666D+03 0.141328454624700D+01 0.247759588427155D+02
 0.000000000000000D+00 0.000000000000000D+00 -.000000000000000D+00 -.000000000000000D+00
 0.247692787562728D+03 0.000000000000000D+00 0.000000000000000D+00 0.247692787562728D+03
 0.248632626768704D+03 0.000000000000000D+00 0.000000000000000D+00 -.248632626768704D+03
 0.137174247085083D+03 -.231421517494876D+02 -.320317379113718D+02 -.403755203327510D+02
 0.201207396739813D+03 0.176004410983253D+03 0.307939304826330D+02 0.155995614900355D+02
 0.156241897989533D+03 -.154257739145215D+03 0.149414343436589D+01 0.247759588427155D+02
 0.170187251700320D+01 0.139547991144957D+01 -.256336005627049D+00 -.939839205976574D+00
0.321699014092D-05 0.000000000000D+00 0.000000000000D+00 0.620050975334D-07 0.000000000000D+00  6 21 1 25 23 1 21 2 0.85233847D-02 0.16984282D+00 0.59038302D+05 0.59038302D+05 0.59038302D+05 0.11852004D+01  1  2  2  2  6  2        1 0.724669818518D-02 0.100000000000D+01
-.259693517792D-06 0.169765233773D-06 -.649417623857D-08 0.620050975334D-07 0.000000000000D+00  6 21 1 25 23 1 21 4 0.85233847D-02 0.16984282D+00 0.59038302D+05 0.59038302D+05 0.59038302D+05 0.11852004D+01  1  2  3  2  6  2        1 -.821741317234D-03 0.100000000000D+01
0.364049924603D-06 0.000000000000D+00 0.000000000000D+00 0.620050975334D-07 0.000000000000D+00  6 21 1 25 23 1 21 4 0.85233847D-02 0.16984282D+00 0.59038302D+05 0.59038302D+05 0.59038302D+05 0.11852004D+01  1  2 15  2  6  2        1 0.115195353017D-02 0.100000000000D+01
-.431140352348D-03 0.000000000000D+00 0.000000000000D+00 0.620050975334D-07 0.000000000000D+00  6 21 1 25 23 1 21 4 0.85233847D-02 0.16984282D+00 0.59038302D+05 0.59038302D+05 0.59038302D+05 0.11852004D+01  1  2  4  2  6  2        1 -.136424599298D+01 0.100000000000D+01
-.206101746227D-02 0.000000000000D+00 -.176689617484D-03 0.620050975334D-07 0.000000000000D+00  6 21 1 25 23 1 21 4 0.85233847D-02 0.17089915D+00 0.59038302D+05 0.59038302D+05 0.59038302D+05 0.11852004D+01  1  2  5  2  6  2        1 -.644800454018D+01 0.100000000000D+01
0.206207672633D-02 0.000000000000D+00 0.176686221393D-03 0.620050975334D-07 0.000000000000D+00  6 21 1 25 23 1 21 4 0.85233847D-02 0.16984282D+00 0.59038302D+05 0.59038302D+05 0.59038302D+05 0.11852004D+01  1  2  6  2  6  2        1 0.652497474615D+01 0.100000000000D+01
0.430641968234D-03 0.000000000000D+00 0.000000000000D+00 0.620050975334D-07 0.271305277101D-06  6 21 1 25 23 1 21 4 0.85365512D-02 0.17075063D+00 0.59385599D+05 0.59385599D+05 0.59385599D+05 0.11849528D+01  1  2 11  2  6  2        1 0.134445057866D+01 0.100000000000D+01
0.659192648664D-10 0.000000000000D+00 0.000000000000D+00 0.619791936483D-07 0.000000000000D+00  6 21 21 25 23 1 -1 4 0.85233847D-02 0.17088136D+00 0.59385599D+05 0.59385599D+05 0.59385599D+05 0.11849528D+01  1  2 12 10  6  2        1 0.284313537151D-06 0.100000000000D+01
-.237133571386D-05 0.000000000000D+00 -.203509662381D-06 0.620050975334D-07 0.000000000000D+00  6 21 21 25 23 1 -1 4 0.85233847D-02 0.17089915D+00 0.59038302D+05 0.59038302D+05 0.59038302D+05 0.11852004D+01  1  2  5 10  6  2        1 -.102374296972D-01 0.100000000000D+01
0.533786372528D-06 0.000000000000D+00 0.000000000000D+00 0.620050975334D-07 0.280574488003D-09  6 21 21 25 23 1 -1 4 0.85365512D-02 0.17075063D+00 0.59385599D+05 0.59385599D+05 0.59385599D+05 0.11849528D+01  1  2 11 10  6  2        1 0.230091281476D-02 0.100000000000D+01
  </mgrwgt>
  </event>
  <event>
  5     66 0.44737074E-03 0.58544176E+02 0.75467711E-02 0.10816044E+00
       21 -1    0    0  501  502 0.00000000E+00 0.00000000E+00 0.15136638E+02 0.15155207E+02 0.75000000E+00 0.0000E+00 0.9000E+01
        1 -1    0    0  502    0 0.00000000E+00 0.00000000E+00 -.19236018E+04 0.19236018E+04 0.32000000E+00 0.0000E+00 0.9000E+01
       25  1    1    2    0    0 -.97634463E+02 -.44473125E+02 -.12159925E+04 0.12270995E+04 0.12500000E+03 0.0000E+00 0.9000E+01
       23  1    1    2    0    0 0.45718461E+02 0.17416084E+02 -.49440304E+03 0.50511693E+03 0.91188000E+02 0.0000E+00 0.9000E+01
        1  1    1    2  501    0 0.51916003E+02 0.27057041E+02 -.19806959E+03 0.20654060E+03 0.32000000E+00 0.0000E+00 0.9000E+01
#aMCatNLO 1  0  0  2  2 0.14188278D+01 0.00000000D+00  -5  6  0 0.00000000D+00 0.00000000D+00 0.00000000D+00 0.00000000D+00 0.00000000D+00
  <mgrwgt>
 0.6800391521D-01    3    2    0
 0.170689454693683D+03 0.000000000000000D+00 0.000000000000000D+00 0.170689454693683D+03
 0.170689454693683D+03 0.000000000000000D+00 0.000000000000000D+00 -.170689454693683D+03
 0.170978617542391D+03 -.976347717849822D+02 -.444732857368907D+02 -.458068319245791D+02
 0.104716448946430D+03 0.457182716243944D+02 0.174159853596286D+02 0.160251811091691D+02
 0.656838428985448D+02 0.519165001605878D+02 0.270573003772621D+02 0.297816508154100D+02
 0.000000000000000D+00 -.000000000000000D+00 -.000000000000000D+00 0.000000000000000D+00
 0.936432690216014D+03 0.000000000000000D+00 0.000000000000000D+00 0.936432690216014D+03
 0.219790678936642D+03 0.000000000000000D+00 0.000000000000000D+00 -.219790678936642D+03
 0.150988060288775D+03 -.577538407618120D+02 0.416967909563731D+02 -.458068319245791D+02
 0.147281545597530D+03 0.769324168461397D+02 0.848598794379732D+02 0.160251811091691D+02
 0.108146789030289D+03 0.734483167087065D+02 0.735807449332259D+02 0.297816508154100D+02
 0.749806974236061D+03 -.926268927930342D+02 -.200137415327572D+03 0.716642011279372D+03
0.976736699631D-05 0.000000000000D+00 0.000000000000D+00 0.235089794560D-06 0.000000000000D+00  6 21 1 25 23 1 21 2 0.23301440D-02 0.29594017D+00 0.26692287D+05 0.26692287D+05 0.26692287D+05 0.12202596D+01  1  2  2  2  6  2        1 0.607078962046D-01 0.100000000000D+01
-.204819117001D-06 0.515438117258D-06 -.197174998624D-07 0.235089794560D-06 0.000000000000D+00  6 21 1 25 23 1 21 4 0.23301440D-02 0.29594017D+00 0.26692287D+05 0.26692287D+05 0.26692287D+05 0.12202596D+01  1  2  3  2  6  2        1 -.189558225697D-02 0.100000000000D+01
0.993159567898D-06 0.000000000000D+00 0.000000000000D+00 0.235089794560D-06 0.000000000000D+00  6 21 1 25 23 1 21 4 0.23301440D-02 0.29594017D+00 0.26692287D+05 0.26692287D+05 0.26692287D+05 0.12202596D+01  1  2 15  2  6  2        1 0.919160126658D-02 0.100000000000D+01
  </mgrwgt>
  </event>
  <event>
  6     66 -.44737074E-03 0.35738943E+02 0.75467711E-02 0.11804107E+00
       21 -1    0    0  501  502 0.00000000E+00 0.00000000E+00 0.95928108E+02 0.95931040E+02 0.75000000E+00 0.0000E+00 0.9000E+01
        1 -1    0    0  503    0 0.00000000E+00 0.00000000E+00 -.76054414E+03 0.76054421E+03 0.32000000E+00 0.0000E+00 0.9000E+01
       25  1    1    2    0    0 0.49131040E+01 0.71097896E+02 -.43514818E+03 0.45832083E+03 0.12500000E+03 0.0000E+00 0.9000E+01
       23  1    1    2    0    0 0.48957049E+02 -.56258775E+02 -.23976883E+03 0.26714450E+03 0.91188000E+02 0.0000E+00 0.9000E+01
        1  1    1    2  501    0 -.35857393E+02 -.32368738E+02 0.58969054E+02 0.76229519E+02 0.32000000E+00 0.0000E+00 0.9000E+01
       21  1    1    2  503  502 -.18012760E+02 0.17529617E+02 -.48668086E+02 0.54780399E+02 0.75000000E+00 0.0000E+00 0.9000E+01
#aMCatNLO 2  0  0  2  1 0.25134578D+02 0.00000000D+00  -5  6  0 0.00000000D+00 0.00000000D+00 0.00000000D+00 0.00000000D+00 0.00000000D+00
  <mgrwgt>
 -.1153650070D+00    3    2    0
 0.256266956563722D+03 0.000000000000000D+00 0.000000000000000D+00 0.256266956563722D+03
 0.256266956563722D+03 0.000000000000000D+00 0.000000000000000D+00 -.256266956563722D+03
 0.196206882550352D+03 -.193456679463631D+01 0.777619334261390D+02 -.129697648094611D+03
 0.126070139381230D+03 0.444677773740595D+02 -.518898923583358D+02 -.539303675683214D+02
 0.190256891195861D+03 -.425332105794232D+02 -.258720410678032D+02 0.183628015662932D+03
 0.000000000000000D+00 -.000000000000000D+00 0.000000000000000D+00 -.000000000000000D+00
 0.265012832058647D+03 0.000000000000000D+00 0.000000000000000D+00 0.265012832058647D+03
 0.275292437207738D+03 0.000000000000000D+00 0.000000000000000D+00 -.275292437207738D+03
 0.193715077571496D+03 0.491312950050921D+01 0.710979079563425D+02 -.129697648094611D+03
 0.129559171826008D+03 0.489570651452263D+02 -.562587671972375D+02 -.539303675683214D+02
 0.189875591407897D+03 -.358574342472135D+02 -.323687578599962D+02 0.183628015662932D+03
 0.271554284609840D+02 -.180127603985219D+02 0.175296171008911D+02 -.102796051490904D+02
-.543554825995D-04 0.000000000000D+00 0.000000000000D+00 0.202198079465D-05 0.000000000000D+00  6 21 1 25 23 1 21 4 0.14271073D-01 0.11875984D+00 0.28078183D+05 0.28078183D+05 0.28078183D+05 0.12179277D+01  1  2 13  2  6  2        1 -.140483352069D+00 0.100000000000D+01
-.105754626623D-09 0.000000000000D+00 0.000000000000D+00 0.204507797145D-05 0.000000000000D+00  6 21 1 25 23 1 21 4 0.14271073D-01 0.10891856D+00 0.24174507D+05 0.24174507D+05 0.24174507D+05 0.12248642D+01  1  2  8  2  6  2        1 -.318377598574D-06 0.100000000000D+01
0.101007606974D-04 0.000000000000D+00 0.000000000000D+00 0.204507797145D-05 0.245095781566D-07  6 21 1 25 23 1 21 4 0.14758116D-01 0.11700476D+00 0.28078183D+05 0.28078183D+05 0.28078183D+05 0.12179277D+01  1  2  1  2  6  2        1 0.251186634186D-01 0.100000000000D+01
  </mgrwgt>
  </event>
  <event>
  6     66 0.44737074E-03 0.25827981E+02 0.75467711E-02 0.12258879E+00
       21 -1    0    0  501  502 0.00000000E+00 0.00000000E+00 0.67805883E+02 0.67810030E+02 0.75000000E+00 0.0000E+00 0.9000E+01
        1 -1    0    0  502    0 -.00000000E+00 -.00000000E+00 -.41029516E+03 0.41029528E+03 0.32000000E+00 0.0000E+00 0.9000E+01
       25  1    1    2    0    0 0.15809627E+02 0.19301025E+02 -.30511988E+03 0.33067448E+03 0.12500000E+03 0.0000E+00 0.9000E+01
       23  1    1    2    0    0 0.45330275E+01 0.12907172E+02 -.41842086E+02 0.10125786E+03 0.91188000E+02 0.0000E+00 0.9000E+01
        1  1    1    2  503    0 -.96344256E+01 -.30052074E+02 -.46761994E+01 0.31904836E+02 0.32000000E+00 0.0000E+00 0.9000E+01
       21  1    1    2  501  503 -.10708229E+02 -.21561231E+01 0.91488847E+01 0.14268133E+02 0.75000000E+00 0.0000E+00 0.9000E+01
#aMCatNLO 2  0  0  5  1 0.12696718D+02 0.00000000D+00  -5  6  0 0.00000000D+00 0.00000000D+00 0.00000000D+00 0.00000000D+00 0.00000000D+00
  <mgrwgt>
 0.1190999484D+00    2    2    0
 0.166797622203386D+03 0.000000000000000D+00 0.000000000000000D+00 0.166797622203386D+03
 0.166797622203386D+03 -.000000000000000D+00 -.000000000000000D+00 -.166797622203386D+03
 0.162055655279913D+03 0.165362465186753D+02 0.204514695004561D+02 -.997262520831271D+02
 0.101763368038163D+03 0.499217934599598D+01 0.136341395463385D+02 0.427752278156285D+02
 0.697762210886975D+02 -.215284258646713D+02 -.340856090467946D+02 0.569510242674986D+02
 0.000000000000000D+00 0.000000000000000D+00 0.000000000000000D+00 0.000000000000000D+00
 0.166797622203386D+03 0.000000000000000D+00 0.000000000000000D+00 0.166797622203386D+03
 0.166797622203386D+03 -.000000000000000D+00 -.000000000000000D+00 -.166797622203386D+03
 0.160663780551903D+03 0.158092041416114D+02 0.193003550445813D+02 -.978029434157891D+02
 0.102164337966831D+03 0.453275835159288D+01 0.129067457042828D+02 0.439905742773587D+02
 0.405590677437231D+02 -.950401107733352D+01 -.298945543285696D+02 0.257104525665738D+02
 0.302080581443161D+02 -.108379514158708D+02 -.231254642029458D+01 0.281019165718566D+02
-.267861405962D-05 0.000000000000D+00 0.000000000000D+00 0.567561866391D-06 0.000000000000D+00  6 21 1 25 23 1 21 4 0.10432003D-01 0.63122661D-01 0.17177333D+05 0.17177333D+05 0.17177333D+05 0.12411672D+01  1  2 13  3  6  5        1 -.308164080911D-01 0.100000000000D+01
0.130309820323D-04 0.000000000000D+00 0.000000000000D+00 0.568154398116D-06 0.901414865829D-07  6 21 1 25 23 1 21 4 0.10432003D-01 0.63122661D-01 0.17177333D+05 0.17177333D+05 0.17177333D+05 0.12411672D+01  1  2  1  3  6  5        1 0.149916356443D+00 0.100000000000D+01
  </mgrwgt>
  </event>
  <event>
  5     66 0.44737074E-03 0.32795800E+02 0.75467711E-02 0.10418339E+00
       21 -1    0    0  501  502 0.00000000E+00 0.00000000E+00 0.23751191E+03 0.23751310E+03 0.75000000E+00 0.0000E+00 0.9000E+01
        1 -1    0    0  502    0 0.00000000E+00 0.00000000E+00 -.98223816E+03 0.98223822E+03 0.32000000E+00 0.0000E+00 0.9000E+01
       25  1    1    2    0    0 0.46308422E+01 0.10041851E+03 -.43486360E+03 0.46350477E+03 0.12500000E+03 0.0000E+00 0.9000E+01
       23  1    1    2    0    0 0.21848049E+02 -.81068255E+02 -.52458662E+03 0.53903226E+03 0.91188000E+02 0.0000E+00 0.9000E+01
        1  1    1    2  501    0 -.26478891E+02 -.19350259E+02 0.21472397E+03 0.21721429E+03 0.32000000E+00 0.0000E+00 0.9000E+01
#aMCatNLO 1  0  0  1  2 0.10549615D+03 0.00000000D+00  -5  6  0 0.00000000D+00 0.00000000D+00 0.00000000D+00 0.00000000D+00 0.00000000D+00
  <mgrwgt>
 0.1159383075D+01    3    2    0
 0.483005197847844D+03 0.000000000000000D+00 0.000000000000000D+00 0.483005197847844D+03
 0.483005197847844D+03 0.000000000000000D+00 0.000000000000000D+00 -.483005197847844D+03
 0.250003767116257D+03 0.463084399072847D+01 0.100418515975258D+03 -.191759121049248D+03
 0.276199828334881D+03 0.218480510367420D+02 -.810682539631210D+02 -.246823205338325D+03
 0.439806800244550D+03 -.264788950274705D+02 -.193502620121375D+02 0.438582326387572D+03
 0.000000000000000D+00 0.000000000000000D+00 -.000000000000000D+00 -.000000000000000D+00
 0.582574416217760D+03 0.000000000000000D+00 0.000000000000000D+00 0.582574416217760D+03
 0.888366798237800D+03 0.000000000000000D+00 0.000000000000000D+00 -.888366798237800D+03
 0.282664324615604D+03 -.677692373222811D+02 0.151360134703865D+03 -.191759121049248D+03
 0.269836390805761D+03 -.523690219947908D+02 -.288481767344770D+02 -.246823205338325D+03
 0.468388199295146D+03 -.149920476821790D+03 0.675048061173554D+02 0.438582326387572D+03
 0.450052299739048D+03 0.270058736138862D+03 -.190016764086743D+03 -.305792382020040D+03
0.332771490275D-02 0.000000000000D+00 0.000000000000D+00 0.206039804075D-04 0.000000000000D+00  6 21 1 25 23 1 21 2 0.36540390D-01 0.15111366D+00 0.25147104D+05 0.25147104D+05 0.25147104D+05 0.12230246D+01  1  2  2  1  6  1       21 0.679553925063D+00 0.100000000000D+01
0.119748039089D-02 0.175608339985D-03 -.671769763149D-05 0.206039804075D-04 0.000000000000D+00  6 21 1 25 23 1 21 4 0.36540390D-01 0.15111366D+00 0.25147104D+05 0.25147104D+05 0.25147104D+05 0.12230246D+01  1  2  3  1  6  1       21 0.365777159330D+00 0.100000000000D+01
0.373383135605D-03 0.000000000000D+00 0.000000000000D+00 0.206039804075D-04 0.000000000000D+00  6 21 1 25 23 1 21 4 0.36540390D-01 0.15111366D+00 0.25147104D+05 0.25147104D+05 0.25147104D+05 0.12230246D+01  1  2 15  1  6  1       21 0.114051990932D+00 0.100000000000D+01
  </mgrwgt>
  </event>
  <event>
  5     66 0.44737074E-03 0.15153077E+03 0.75467711E-02 0.10238595E+00
       21 -1    0    0  501  502 0.00000000E+00 0.00000000E+00 0.68817754E+03 0.68817795E+03 0.75000000E+00 0.0000E+00 0.9000E+01
        1 -1    0    0  502    0 0.00000000E+00 0.00000000E+00 -.30052675E+03 0.30052692E+03 0.32000000E+00 0.0000E+00 0.9000E+01
       25  1    1    2    0    0 -.44174494E+02 0.89681376E+02 0.21901505E+02 0.16155126E+03 0.12500000E+03 0.0000E+00 0.9000E+01
       23  1    1    2    0    0 0.18606769E+03 -.36503508E+02 -.16993053E+03 0.27045393E+03 0.91188000E+02 0.0000E+00 0.9000E+01
        1  1    1    2  501    0 -.14189320E+03 -.53177867E+02 0.53567982E+03 0.55669968E+03 0.32000000E+00 0.0000E+00 0.9000E+01
#aMCatNLO 1  0  0  2  1 0.35010455D+03 0.00000000D+00  -5  6  0 0.00000000D+00 0.00000000D+00 0.00000000D+00 0.00000000D+00 0.00000000D+00
  <mgrwgt>
 0.2774051562D-01    3    2    0
 0.454770326201848D+03 0.000000000000000D+00 0.000000000000000D+00 0.454770326201848D+03
 0.454770326201848D+03 0.000000000000000D+00 0.000000000000000D+00 -.454770326201848D+03
 0.166277770672743D+03 -.441744845250619D+02 0.896813790365773D+02 -.450462228265597D+02
 0.366418886058105D+03 0.186067710679069D+03 -.365035004179454D+02 -.299989750184818D+03
 0.376843995672849D+03 -.141893226154008D+03 -.531778786186318D+02 0.345035973011378D+03
 0.000000000000000D+00 -.000000000000000D+00 0.000000000000000D+00 0.000000000000000D+00
 0.771958803321463D+03 0.000000000000000D+00 0.000000000000000D+00 0.771958803321463D+03
 0.594946477994390D+03 0.000000000000000D+00 0.000000000000000D+00 -.594946477994390D+03
 0.157128934497376D+03 0.154815682589773D+02 0.824357987138059D+02 -.450462228265597D+02
 0.465420865075126D+03 0.339510033636977D+03 -.551399777579547D+02 -.299989750184818D+03
 0.352046216539736D+03 -.744111901340031D+01 -.695078819693358D+02 0.345035973011378D+03
 0.392309265203615D+03 -.347550482882554D+03 0.422120610134846D+02 0.177012325327073D+03
0.263201248863D-03 0.000000000000D+00 0.000000000000D+00 0.212994347327D-06 0.000000000000D+00  6 21 1 25 23 1 21 2 0.10587351D+00 0.46234930D-01 0.68119025D+05 0.68119025D+05 0.68119025D+05 0.11792060D+01  1  2  2  2  6  2        1 0.242071778266D-01 0.100000000000D+01
0.445226084020D-05 0.138895114953D-04 -.531327489814D-06 0.212994347327D-06 0.000000000000D+00  6 21 1 25 23 1 21 4 0.10587351D+00 0.46234930D-01 0.68119025D+05 0.68119025D+05 0.68119025D+05 0.11792060D+01  1  2  3  2  6  2        1 0.569398353502D-03 0.100000000000D+01
0.231757458414D-04 0.000000000000D+00 0.000000000000D+00 0.212994347327D-06 0.000000000000D+00  6 21 1 25 23 1 21 4 0.10587351D+00 0.46234930D-01 0.68119025D+05 0.68119025D+05 0.68119025D+05 0.11792060D+01  1  2 15  2  6  2        1 0.296393944490D-02 0.100000000000D+01
  </mgrwgt>
  </event>
  <event>
  5     66 0.44737074E-03 0.96224930E+02 0.75467711E-02 0.10875869E+00
       21 -1    0    0  501  502 0.00000000E+00 0.00000000E+00 0.69997973E+03 0.69998013E+03 0.75000000E+00 0.0000E+00 0.9000E+01
        1 -1    0    0  502    0 0.00000000E+00 0.00000000E+00 -.12398498E+03 0.12398539E+03 0.32000000E+00 0.0000E+00 0.9000E+01
       25  1    1    2    0    0 -.40516608E+02 0.11499958E+03 0.42480232E+03 0.45929131E+03 0.12500000E+03 0.0000E+00 0.9000E+01
       23  1    1    2    0    0 0.89476683E+02 -.19783723E+03 0.10269430E+03 0.25691830E+03 0.91188000E+02 0.0000E+00 0.9000E+01
        1  1    1    2  501    0 -.48960075E+02 0.82837641E+02 0.48498138E+02 0.10775591E+03 0.32000000E+00 0.0000E+00 0.9000E+01
#aMCatNLO 1  0  0  1  2 0.76905018D+02 0.00000000D+00  -5  6  0 0.00000000D+00 0.00000000D+00 0.00000000D+00 0.00000000D+00 0.00000000D+00
  <mgrwgt>
 0.7385936823D-01   23    2    0
 0.294596853913097D+03 0.000000000000000D+00 0.000000000000000D+00 0.294596853913097D+03
 0.294596853913097D+03 0.000000000000000D+00 0.000000000000000D+00 -.294596853913097D+03
 0.227015781029185D+03 -.405165173294325D+02 0.114999431111617D+03 0.145067940992450D+03
 0.258897074744203D+03 0.894767864904629D+02 -.197837400166141D+03 -.107548648257185D+03
 0.103280852052805D+03 -.489602691610304D+02 0.828379690545246D+02 -.375192927352657D+02
 0.000000000000000D+00 -.000000000000000D+00 -.000000000000000D+00 0.000000000000000D+00
 0.336709834174809D+03 0.000000000000000D+00 0.000000000000000D+00 0.336709834174809D+03
 0.334420800004116D+03 0.000000000000000D+00 0.000000000000000D+00 -.334420800004116D+03
 0.240223409357302D+03 -.274699247255580D+02 0.142418334967900D+03 0.145067940992450D+03
 0.242793456072921D+03 0.103485354486179D+03 -.168396795197401D+03 -.107548648257185D+03
 0.111174692204231D+03 -.429720854317302D+02 0.954228208187072D+02 -.375192927352657D+02
 0.769390765444707D+02 -.330433443288910D+02 -.694443605892060D+02 0.228903417069263D+01
0.813893754429D-04 0.000000000000D+00 0.000000000000D+00 0.276031896464D-07 0.000000000000D+00  6 21 1 25 23 1 21 2 0.10768925D+00 0.19074675D-01 0.64096193D+05 0.64096193D+05 0.64096193D+05 0.11817450D+01  1  2  2  1  6  1       21 0.223013219769D-01 0.100000000000D+01
-.591109535433D-05 0.429503534156D-05 -.164301699701D-06 0.276031896464D-07 0.000000000000D+00  6 21 1 25 23 1 21 4 0.10768925D+00 0.19074675D-01 0.64096193D+05 0.64096193D+05 0.64096193D+05 0.11817450D+01  1  2  3  1  6  1       21 -.226192599436D-02 0.100000000000D+01
0.930098972954D-05 0.000000000000D+00 0.000000000000D+00 0.276031896464D-07 0.000000000000D+00  6 21 1 25 23 1 21 4 0.10768925D+00 0.19074675D-01 0.64096193D+05 0.64096193D+05 0.64096193D+05 0.11817450D+01  1  2 15  1  6  1       21 0.355909508838D-02 0.100000000000D+01
0.662808657816D-04 0.000000000000D+00 0.000000000000D+00 0.270137930177D-07 0.000000000000D+00  6 21 1 25 23 1 21 4 0.12940241D+00 0.19074675D-01 0.87233416D+05 0.87233416D+05 0.87233416D+05 0.11690603D+01  1  2 12  1  6  1       21 0.151584229274D-01 0.100000000000D+01
-.353272830035D-04 0.000000000000D+00 0.000000000000D+00 0.276031896464D-07 0.000000000000D+00  6 21 1 25 23 1 21 4 0.10768925D+00 0.19074675D-01 0.64096193D+05 0.64096193D+05 0.64096193D+05 0.11817450D+01  1  2  4  1  6  1       21 -.135182559147D-01 0.100000000000D+01
-.351878718717D-03 0.000000000000D+00 -.119464858688D-03 0.276031896464D-07 0.000000000000D+00  6 21 1 25 23 1 21 4 0.13581709D+00 0.19074675D-01 0.64096193D+05 0.64096193D+05 0.64096193D+05 0.11817450D+01  1  2  5  1  6  1       21 -.753776492831D-01 0.100000000000D+01
0.341900429136D-03 0.000000000000D+00 0.107518158425D-03 0.276031896464D-07 0.000000000000D+00  6 21 1 25 23 1 21 4 0.10768925D+00 0.19074675D-01 0.64096193D+05 0.64096193D+05 0.64096193D+05 0.11817450D+01  1  2  6  1  6  1       21 0.130830822680D+00 0.100000000000D+01
0.343285117216D-05 0.000000000000D+00 0.000000000000D+00 0.270137930177D-07 0.000000000000D+00  6 -1 1 25 23 1 -1 4 0.12940241D+00 0.19074675D-01 0.87233416D+05 0.87233416D+05 0.87233416D+05 0.11690603D+01  1  2 12  4  6  1       21 0.961157535585D-04 0.100000000000D+01
-.191206195547D-04 0.000000000000D+00 -.820831809983D-05 0.276031896464D-07 0.000000000000D+00  6 -1 1 25 23 1 -1 4 0.13581709D+00 0.19074675D-01 0.64096193D+05 0.64096193D+05 0.64096193D+05 0.11817450D+01  1  2  5  4  6  1       21 -.497995297653D-03 0.100000000000D+01
0.343285117216D-05 0.000000000000D+00 0.000000000000D+00 0.270137930177D-07 0.000000000000D+00  6 1 1 25 23 1 1 4 0.12940241D+00 0.19074675D-01 0.87233416D+05 0.87233416D+05 0.87233416D+05 0.11690603D+01  1  2 12  5  6  1       21 0.441873233235D-03 0.100000000000D+01
-.191206195547D-04 0.000000000000D+00 -.820831809983D-05 0.276031896464D-07 0.000000000000D+00  6 1 1 25 23 1 1 4 0.13581709D+00 0.19074675D-01 0.64096193D+05 0.64096193D+05 0.64096193D+05 0.11817450D+01  1  2  5  5  6  1       21 -.238769988126D-02 0.100000000000D+01
0.343285117216D-05 0.000000000000D+00 0.000000000000D+00 0.270137930177D-07 0.000000000000D+00  6 -2 1 25 23 1 -2 4 0.12940241D+00 0.19074675D-01 0.87233416D+05 0.87233416D+05 0.87233416D+05 0.11690603D+01  1  2 12  6  6  1       21 0.707753063603D-04 0.100000000000D+01
0.343285117216D-05 0.000000000000D+00 0.000000000000D+00 0.270137930177D-07 0.000000000000D+00  6 -4 1 25 23 1 -4 4 0.12940241D+00 0.19074675D-01 0.87233416D+05 0.87233416D+05 0.87233416D+05 0.11690603D+01  1  2 12  6  6  1       21 0.367654582641D-04 0.100000000000D+01
-.191206195547D-04 0.000000000000D+00 -.820831809983D-05 0.276031896464D-07 0.000000000000D+00  6 -2 1 25 23 1 -2 4 0.13581709D+00 0.19074675D-01 0.64096193D+05 0.64096193D+05 0.64096193D+05 0.11817450D+01  1  2  5  6  6  1       21 -.365764644093D-03 0.100000000000D+01
-.191206195547D-04 0.000000000000D+00 -.820831809983D-05 0.276031896464D-07 0.000000000000D+00  6 -4 1 25 23 1 -4 4 0.13581709D+00 0.19074675D-01 0.64096193D+05 0.64096193D+05 0.64096193D+05 0.11817450D+01  1  2  5  6  6  1       21 -.188660547165D-03 0.100000000000D+01
0.343285117216D-05 0.000000000000D+00 0.000000000000D+00 0.270137930177D-07 0.000000000000D+00  6 2 1 25 23 1 2 4 0.12940241D+00 0.19074675D-01 0.87233416D+05 0.87233416D+05 0.87233416D+05 0.11690603D+01  1  2 12  7  6  1       21 0.784021064522D-03 0.100000000000D+01
0.343285117216D-05 0.000000000000D+00 0.000000000000D+00 0.270137930177D-07 0.000000000000D+00  6 4 1 25 23 1 4 4 0.12940241D+00 0.19074675D-01 0.87233416D+05 0.87233416D+05 0.87233416D+05 0.11690603D+01  1  2 12  7  6  1       21 0.367654582641D-04 0.100000000000D+01
-.191206195547D-04 0.000000000000D+00 -.820831809983D-05 0.276031896464D-07 0.000000000000D+00  6 2 1 25 23 1 2 4 0.13581709D+00 0.19074675D-01 0.64096193D+05 0.64096193D+05 0.64096193D+05 0.11817450D+01  1  2  5  7  6  1       21 -.428727970104D-02 0.100000000000D+01
-.191206195547D-04 0.000000000000D+00 -.820831809983D-05 0.276031896464D-07 0.000000000000D+00  6 4 1 25 23 1 4 4 0.13581709D+00 0.19074675D-01 0.64096193D+05 0.64096193D+05 0.64096193D+05 0.11817450D+01  1  2  5  7  6  1       21 -.188660547165D-03 0.100000000000D+01
0.343285117216D-05 0.000000000000D+00 0.000000000000D+00 0.270137930177D-07 0.000000000000D+00  6 -3 1 25 23 1 -3 4 0.12940241D+00 0.19074675D-01 0.87233416D+05 0.87233416D+05 0.87233416D+05 0.11690603D+01  1  2 12  8  6  1       21 0.459583177813D-04 0.100000000000D+01
-.191206195547D-04 0.000000000000D+00 -.820831809983D-05 0.276031896464D-07 0.000000000000D+00  6 -3 1 25 23 1 -3 4 0.13581709D+00 0.19074675D-01 0.64096193D+05 0.64096193D+05 0.64096193D+05 0.11817450D+01  1  2  5  8  6  1       21 -.236993239609D-03 0.100000000000D+01
0.343285117216D-05 0.000000000000D+00 0.000000000000D+00 0.270137930177D-07 0.000000000000D+00  6 3 1 25 23 1 3 4 0.12940241D+00 0.19074675D-01 0.87233416D+05 0.87233416D+05 0.87233416D+05 0.11690603D+01  1  2 12  9  6  1       21 0.461001390860D-04 0.100000000000D+01
-.191206195547D-04 0.000000000000D+00 -.820831809983D-05 0.276031896464D-07 0.000000000000D+00  6 3 1 25 23 1 3 4 0.13581709D+00 0.19074675D-01 0.64096193D+05 0.64096193D+05 0.64096193D+05 0.11817450D+01  1  2  5  9  6  1       21 -.237784125641D-03 0.100000000000D+01
  </mgrwgt>
  </event>
  <event>
  5     66 -.44737074E-03 0.29338232E+02 0.75467711E-02 0.12322159E+00
       21 -1    0    0  501  502 0.00000000E+00 0.00000000E+00 0.82554106E+01 0.82894092E+01 0.75000000E+00 0.0000E+00 0.9000E+01
        1 -1    0    0  502    0 0.00000000E+00 0.00000000E+00 -.28473380E+04 0.28473380E+04 0.32000000E+00 0.0000E+00 0.9000E+01
       25  1    1    2    0    0 0.13536595E+02 -.19223883E+02 -.16813249E+04 0.16861291E+04 0.12500000E+03 0.0000E+00 0.9000E+01
       23  1    1    2    0    0 0.13459882E+02 0.30709060E+02 -.11039022E+04 0.11081694E+04 0.91188000E+02 0.0000E+00 0.9000E+01
        1  1    1    2  501    0 -.26996476E+02 -.11485177E+02 -.53855464E+02 0.61328888E+02 0.32000000E+00 0.0000E+00 0.9000E+01
#aMCatNLO 1  0  0  2  1 0.35010455D+03 0.00000000D+00  -5  6  0 0.00000000D+00 0.00000000D+00 0.00000000D+00 0.00000000D+00 0.00000000D+00
  <mgrwgt>
 -.2956673936D-02    1    2    0
 0.153474796209543D+03 0.000000000000000D+00 0.000000000000000D+00 0.153474796209543D+03
 0.153474796209543D+03 0.000000000000000D+00 0.000000000000000D+00 -.153474796209543D+03
 0.135319215302394D+03 0.135367110382954D+02 -.192238338993992D+02 -.461897358135959D+02
 0.992005976848021D+02 0.134599666784229D+02 0.307090966529300D+02 -.200321720439573D+02
 0.724297794318902D+02 -.269966777167183D+02 -.114852627535308D+02 0.662219078575532D+02
 0.000000000000000D+00 -.000000000000000D+00 0.000000000000000D+00 0.000000000000000D+00
 0.206329840450291D+03 0.000000000000000D+00 0.000000000000000D+00 0.206329840450291D+03
 0.196386189427428D+03 0.000000000000000D+00 0.000000000000000D+00 -.196386189427428D+03
 0.145590877959866D+03 0.488587694185506D+02 -.324196345059529D+02 -.461897358135959D+02
 0.103349892730483D+03 0.389289705305505D+02 0.211942520517985D+02 -.200321720439573D+02
 0.692727567037235D+02 -.917878731667687D+01 -.181417640937756D+02 0.662219078575532D+02
 0.845025024836472D+02 -.786089526324243D+02 0.293671465479300D+02 0.994365102286313D+01
-.440921427044D-06 0.000000000000D+00 0.000000000000D+00 0.189356297650D-05 0.000000000000D+00  6 21 1 25 23 1 21 4 0.12726798D-02 0.43805461D+00 0.16089292D+05 0.16089292D+05 0.16089292D+05 0.12443666D+01  1  2 14  2  6  2        1 -.295667393583D-02 0.100000000000D+01
  </mgrwgt>
  </event>
  <event>
  5     66 -.44737074E-03 0.30888086E+02 0.75467711E-02 0.11920703E+00
       21 -1    0    0  501  502 0.00000000E+00 0.00000000E+00 0.41574041E+01 0.42245129E+01 0.75000000E+00 0.0000E+00 0.9000E+01
        1 -1    0    0  502    0 0.00000000E+00 0.00000000E+00 -.54650941E+04 0.54650941E+04 0.32000000E+00 0.0000E+00 0.9000E+01
       25  1    1    2    0    0 -.29856821E+02 0.33427537E+02 -.27659004E+04 0.27690863E+04 0.12500000E+03 0.0000E+00 0.9000E+01
       23  1    1    2    0    0 0.40342113E+02 -.43739189E+01 -.25495541E+04 0.25515070E+04 0.91188000E+02 0.0000E+00 0.9000E+01
        1  1    1    2  501    0 -.10485293E+02 -.29053619E+02 -.14548223E+03 0.14872537E+03 0.32000000E+00 0.0000E+00 0.9000E+01
#aMCatNLO 1  0  0  1  1 0.49460511D+02 0.00000000D+00  -5  6  0 0.00000000D+00 0.00000000D+00 0.00000000D+00 0.00000000D+00 0.00000000D+00
  <mgrwgt>
 -.6821484164D-02   12    2    0
 0.151341167019009D+03 0.000000000000000D+00 0.000000000000000D+00 0.151341167019009D+03
 0.151341167019009D+03 0.000000000000000D+00 0.000000000000000D+00 -.151341167019009D+03
 0.134161165614405D+03 -.298567598471092D+02 0.334277055814920D+02 -.191149352602837D+02
 0.105890695779690D+03 0.403421612614718D+02 -.437378622427852D+01 -.353690278001033D+02
 0.626304726439246D+02 -.104854014143626D+02 -.290539193572134D+02 0.544839630603870D+02
 0.000000000000000D+00 0.000000000000000D+00 -.000000000000000D+00 0.000000000000000D+00
 0.473622448992644D+03 0.000000000000000D+00 0.000000000000000D+00 0.473622448992644D+03
 0.155257977885132D+03 0.000000000000000D+00 0.000000000000000D+00 -.155257977885132D+03
 0.143124734725745D+03 -.412997595978142D+02 0.528075638282319D+02 -.191149352602837D+02
 0.103327942137454D+03 0.317081527576429D+02 0.102487659517838D+02 -.353690278001033D+02
 0.602441399706971D+02 -.155561755135586D+02 -.204660590596891D+02 0.544839630603870D+02
 0.322183610043880D+03 0.251477823537299D+02 -.425902707203265D+02 0.318364471107512D+03
0.730806653902D-05 0.000000000000D+00 0.000000000000D+00 0.129704312719D-05 0.000000000000D+00  6 21 1 25 23 1 21 2 0.64476357D-03 0.84078887D+00 0.17356708D+05 0.17356708D+05 0.17356708D+05 0.12406617D+01  1  2  2  1  6  1       21 0.303317432364D-03 0.100000000000D+01
0.535053648269D-06 0.385657266599D-06 -.147528807950D-07 0.129704312719D-05 0.000000000000D+00  6 21 1 25 23 1 21 4 0.64476357D-03 0.84078887D+00 0.17356708D+05 0.17356708D+05 0.17356708D+05 0.12406617D+01  1  2  3  1  6  1       21 0.341821159954D-04 0.100000000000D+01
0.692715914160D-06 0.000000000000D+00 0.000000000000D+00 0.129704312719D-05 0.000000000000D+00  6 21 1 25 23 1 21 4 0.64476357D-03 0.84078887D+00 0.17356708D+05 0.17356708D+05 0.17356708D+05 0.12406617D+01  1  2 15  1  6  1       21 0.442544328149D-04 0.100000000000D+01
-.747896354400D-03 0.000000000000D+00 -.252109045579D-04 0.129704312719D-05 0.000000000000D+00  6 21 1 25 23 1 21 4 0.22991209D-02 0.84078887D+00 0.17356708D+05 0.17356708D+05 0.17356708D+05 0.12406617D+01  1  2  5  1  6  1       21 -.634868371403D-02 0.100000000000D+01
-.289607848212D-03 0.000000000000D+00 -.960323900005D-05 0.129704312719D-05 0.000000000000D+00  6 -1 1 25 23 1 -1 4 0.22991209D-02 0.84078887D+00 0.17356708D+05 0.17356708D+05 0.17356708D+05 0.12406617D+01  1  2  5  4  6  1       21 -.121164700425D-03 0.100000000000D+01
-.289607848212D-03 0.000000000000D+00 -.960323900005D-05 0.129704312719D-05 0.000000000000D+00  6 1 1 25 23 1 1 4 0.22991209D-02 0.84078887D+00 0.17356708D+05 0.17356708D+05 0.17356708D+05 0.12406617D+01  1  2  5  5  6  1       21 -.128281233181D-03 0.100000000000D+01
-.289607848212D-03 0.000000000000D+00 -.960323900005D-05 0.129704312719D-05 0.000000000000D+00  6 -2 1 25 23 1 -2 4 0.22991209D-02 0.84078887D+00 0.17356708D+05 0.17356708D+05 0.17356708D+05 0.12406617D+01  1  2  5  6  6  1       21 -.119886663573D-03 0.100000000000D+01
-.289607848212D-03 0.000000000000D+00 -.960323900005D-05 0.129704312719D-05 0.000000000000D+00  6 -4 1 25 23 1 -4 4 0.22991209D-02 0.84078887D+00 0.17356708D+05 0.17356708D+05 0.17356708D+05 0.12406617D+01  1  2  5  6  6  1       21 -.836511220469D-04 0.100000000000D+01
-.289607848212D-03 0.000000000000D+00 -.960323900005D-05 0.129704312719D-05 0.000000000000D+00  6 2 1 25 23 1 2 4 0.22991209D-02 0.84078887D+00 0.17356708D+05 0.17356708D+05 0.17356708D+05 0.12406617D+01  1  2  5  7  6  1       21 -.133155659814D-03 0.100000000000D+01
-.289607848212D-03 0.000000000000D+00 -.960323900005D-05 0.129704312719D-05 0.000000000000D+00  6 4 1 25 23 1 4 4 0.22991209D-02 0.84078887D+00 0.17356708D+05 0.17356708D+05 0.17356708D+05 0.12406617D+01  1  2  5  7  6  1       21 -.836511220469D-04 0.100000000000D+01
-.289607848212D-03 0.000000000000D+00 -.960323900005D-05 0.129704312719D-05 0.000000000000D+00  6 -3 1 25 23 1 -3 4 0.22991209D-02 0.84078887D+00 0.17356708D+05 0.17356708D+05 0.17356708D+05 0.12406617D+01  1  2  5  8  6  1       21 -.923848889853D-04 0.100000000000D+01
-.289607848212D-03 0.000000000000D+00 -.960323900005D-05 0.129704312719D-05 0.000000000000D+00  6 3 1 25 23 1 3 4 0.22991209D-02 0.84078887D+00 0.17356708D+05 0.17356708D+05 0.17356708D+05 0.12406617D+01  1  2  5  9  6  1       21 -.923790411354D-04 0.100000000000D+01
  </mgrwgt>
  </event>
  <event>
  5     66 0.44737074E-03 0.29859377E+02 0.75467711E-02 0.10498092E+00
       21 -1    0    0  501  502 0.00000000E+00 0.00000000E+00 0.11419108E+04 0.11419111E+04 0.75000000E+00 0.0000E+00 0.9000E+01
        3 -1    0    0  502    0 0.00000000E+00 0.00000000E+00 -.36631839E+02 0.36635251E+02 0.50000000E+00 0.0000E+00 0.9000E+01
       25  1    1    2    0    0 -.76889819E+02 0.46313486E+02 0.35890602E+03 0.39050674E+03 0.12500000E+03 0.0000E+00 0.9000E+01
       23  1    1    2    0    0 0.55035407E+02 -.66659298E+02 0.17260485E+03 0.21349484E+03 0.91188000E+02 0.0000E+00 0.9000E+01
        3  1    1    2  501    0 0.21854412E+02 0.20345812E+02 0.57376811E+03 0.57454475E+03 0.50000000E+00 0.0000E+00 0.9000E+01
#aMCatNLO 1  0  0  1  2 0.18171003D+02 0.00000000D+00  -5  6  0 0.00000000D+00 0.00000000D+00 0.00000000D+00 0.00000000D+00 0.00000000D+00
  <mgrwgt>
 0.5537488747D-01   12    2    0
 0.204529823607115D+03 0.000000000000000D+00 0.000000000000000D+00 0.204529823607115D+03
 0.204529823607115D+03 0.000000000000000D+00 0.000000000000000D+00 -.204529823607115D+03
 0.155329506686461D+03 -.768899129200002D+02 0.463133984314312D+02 -.211013284971711D+02
 0.148724345512019D+03 0.550353170547452D+02 -.666593822772192D+02 -.795695936591455D+02
 0.105005795015751D+03 0.218545958652549D+02 0.203459838457880D+02 0.100670922156317D+03
 0.000000000000000D+00 0.000000000000000D+00 0.000000000000000D+00 0.000000000000000D+00
 0.483492992003428D+03 0.000000000000000D+00 0.000000000000000D+00 0.483492992003428D+03
 0.381695918841298D+03 0.000000000000000D+00 0.000000000000000D+00 -.381695918841298D+03
 0.227137763195617D+03 -.185814392419134D+03 -.315326652072246D+02 -.211013284971711D+02
 0.185461529925485D+03 -.401388988963756D+02 -.134678418087705D+03 -.795695936591455D+02
 0.110707808352976D+03 -.395793981470055D+02 -.235596159738857D+02 0.100670922156317D+03
 0.341881809370647D+03 0.265532689462515D+03 0.189770699268815D+03 0.101797073162129D+03
0.130334747026D-03 0.000000000000D+00 0.000000000000D+00 0.153940320040D-05 0.000000000000D+00  6 21 3 25 23 3 21 2 0.17567887D+00 0.56359489D-02 0.23931730D+05 0.23931730D+05 0.23931730D+05 0.12253363D+01  1  2  2  1  6  1       21 0.355906012707D-01 0.100000000000D+01
0.203439519719D-04 0.687795356168D-05 -.263108303141D-06 0.153940320040D-05 0.000000000000D+00  6 21 3 25 23 3 21 4 0.17567887D+00 0.56359489D-02 0.23931730D+05 0.23931730D+05 0.23931730D+05 0.12253363D+01  1  2  3  1  6  1       21 0.834105540779D-02 0.100000000000D+01
0.116091509660D-04 0.000000000000D+00 0.000000000000D+00 0.153940320040D-05 0.000000000000D+00  6 21 3 25 23 3 21 4 0.17567887D+00 0.56359489D-02 0.23931730D+05 0.23931730D+05 0.23931730D+05 0.12253363D+01  1  2 15  1  6  1       21 0.475977192529D-02 0.100000000000D+01
0.312930642495D-03 0.000000000000D+00 -.268817307261D-03 0.153940320040D-05 0.000000000000D+00  6 21 3 25 23 3 21 4 0.52681634D+00 0.56359489D-02 0.23931730D+05 0.23931730D+05 0.23931730D+05 0.12253363D+01  1  2  5  1  6  1       21 0.841392045316D-03 0.100000000000D+01
0.138859888624D-03 0.000000000000D+00 -.950710792000D-04 0.153940320040D-05 0.000000000000D+00  6 -3 3 25 23 3 -3 4 0.52681634D+00 0.56359489D-02 0.23931730D+05 0.23931730D+05 0.23931730D+05 0.12253363D+01  1  2  5  4  6  1       21 0.419654394281D-04 0.100000000000D+01
0.138859888624D-03 0.000000000000D+00 -.950710792000D-04 0.153940320040D-05 0.000000000000D+00  6 3 3 25 23 3 3 4 0.52681634D+00 0.56359489D-02 0.23931730D+05 0.23931730D+05 0.23931730D+05 0.12253363D+01  1  2  5  5  6  1       21 0.479355907189D-04 0.100000000000D+01
0.138859888624D-03 0.000000000000D+00 -.950710792000D-04 0.153940320040D-05 0.000000000000D+00  6 -2 3 25 23 3 -2 4 0.52681634D+00 0.56359489D-02 0.23931730D+05 0.23931730D+05 0.23931730D+05 0.12253363D+01  1  2  5  6  6  1       21 0.343355687269D-04 0.100000000000D+01
0.138859888624D-03 0.000000000000D+00 -.950710792000D-04 0.153940320040D-05 0.000000000000D+00  6 -4 3 25 23 3 -4 4 0.52681634D+00 0.56359489D-02 0.23931730D+05 0.23931730D+05 0.23931730D+05 0.12253363D+01  1  2  5  6  6  1       21 0.127907966372D-04 0.100000000000D+01
0.138859888624D-03 0.000000000000D+00 -.950710792000D-04 0.153940320040D-05 0.000000000000D+00  6 2 3 25 23 3 2 4 0.52681634D+00 0.56359489D-02 0.23931730D+05 0.23931730D+05 0.23931730D+05 0.12253363D+01  1  2  5  7  6  1       21 0.442886438722D-02 0.100000000000D+01
0.138859888624D-03 0.000000000000D+00 -.950710792000D-04 0.153940320040D-05 0.000000000000D+00  6 4 3 25 23 3 4 4 0.52681634D+00 0.56359489D-02 0.23931730D+05 0.23931730D+05 0.23931730D+05 0.12253363D+01  1  2  5  7  6  1       21 0.127907966372D-04 0.100000000000D+01
0.138859888624D-03 0.000000000000D+00 -.950710792000D-04 0.153940320040D-05 0.000000000000D+00  6 -1 3 25 23 3 -1 4 0.52681634D+00 0.56359489D-02 0.23931730D+05 0.23931730D+05 0.23931730D+05 0.12253363D+01  1  2  5  8  6  1       21 0.353148691098D-04 0.100000000000D+01
0.138859888624D-03 0.000000000000D+00 -.950710792000D-04 0.153940320040D-05 0.000000000000D+00  6 1 3 25 23 3 1 4 0.52681634D+00 0.56359489D-02 0.23931730D+05 0.23931730D+05 0.23931730D+05 0.12253363D+01  1  2  5  9  6  1       21 0.122806936858D-02 0.100000000000D+01
  </mgrwgt>
  </event>
  <event>
  5     66 0.44737074E-03 0.42273140E+02 0.75467711E-02 0.12054512E+00
       21 -1    0    0  501  502 0.00000000E+00 0.00000000E+00 0.26003270E+03 0.26003378E+03 0.75000000E+00 0.0000E+00 0.9000E+01
        3 -1    0    0  502    0 0.00000000E+00 0.00000000E+00 -.87371318E+02 0.87372749E+02 0.50000000E+00 0.0000E+00 0.9000E+01
       25  1    1    2    0    0 -.19222080E+02 0.50358142E+02 0.15874430E+03 0.20911763E+03 0.12500000E+03 0.0000E+00 0.9000E+01
       23  1    1    2    0    0 -.34768635E+01 -.13300225E+02 0.20121663E+02 0.94388120E+02 0.91188000E+02 0.0000E+00 0.9000E+01
        3  1    1    2  501    0 0.22698944E+02 -.37057917E+02 -.62045847E+01 0.43900776E+02 0.50000000E+00 0.0000E+00 0.9000E+01
#aMCatNLO 1  0  0  1  5 0.19295662D+02 0.00000000D+00  -5  6  0 0.00000000D+00 0.00000000D+00 0.00000000D+00 0.00000000D+00 0.00000000D+00
  <mgrwgt>
 0.3428691085D-01   32    2    0
 0.150731005480576D+03 0.000000000000000D+00 0.000000000000000D+00 0.150731005480576D+03
 0.150731005480576D+03 0.000000000000000D+00 0.000000000000000D+00 -.150731005480576D+03
 0.150068678951326D+03 -.192225621098974D+02 0.503589282584867D+02 0.631670788685368D+02
 0.972485881856596D+02 -.347717575700740D+01 -.132997149924263D+02 -.308717247652139D+02
 0.541447438241659D+02 0.226997378669048D+02 -.370592132660604D+02 -.322953541033229D+02
 0.000000000000000D+00 -.000000000000000D+00 0.000000000000000D+00 0.000000000000000D+00
 0.171382328843006D+03 0.000000000000000D+00 0.000000000000000D+00 0.171382328843006D+03
 0.155615043344238D+03 0.000000000000000D+00 0.000000000000000D+00 -.155615043344238D+03
 0.148456912601891D+03 -.991930034833381D+01 0.482284410602396D+02 0.631670788685368D+02
 0.974206718472725D+02 0.258950373131848D+01 -.146890108455373D+02 -.308717247652139D+02
 0.562013234892467D+02 0.261385664887142D+02 -.378467199001314D+02 -.322953541033229D+02
 0.249184642488341D+02 -.188087698716989D+02 0.430728968542919D+01 0.157672854987689D+02
0.299195582778D-05 0.000000000000D+00 0.000000000000D+00 0.170211663957D-06 0.000000000000D+00  6 21 3 25 23 3 21 2 0.40005224D-01 0.13441934D-01 0.18469352D+05 0.18469352D+05 0.18469352D+05 0.12376511D+01  1  2  2  1  6  1       21 0.599145592151D-02 0.100000000000D+01
-.242122711468D-06 0.157889846810D-06 -.603989679559D-08 0.170211663957D-06 0.000000000000D+00  6 21 3 25 23 3 21 4 0.40005224D-01 0.13441934D-01 0.18469352D+05 0.18469352D+05 0.18469352D+05 0.12376511D+01  1  2  3  1  6  1       21 -.742692721110D-03 0.100000000000D+01
0.313674319939D-06 0.000000000000D+00 0.000000000000D+00 0.170211663957D-06 0.000000000000D+00  6 21 3 25 23 3 21 4 0.40005224D-01 0.13441934D-01 0.18469352D+05 0.18469352D+05 0.18469352D+05 0.12376511D+01  1  2 15  1  6  1       21 0.962171754995D-03 0.100000000000D+01
0.878200060323D-05 0.000000000000D+00 0.000000000000D+00 0.168326454726D-06 0.000000000000D+00  6 21 3 25 23 3 21 4 0.46073558D-01 0.13441934D-01 0.21321704D+05 0.21321704D+05 0.21321704D+05 0.12307781D+01  1  2 12  1  6  1       21 0.198670676993D-01 0.100000000000D+01
0.686335666816D-05 0.000000000000D+00 0.000000000000D+00 0.168326454726D-06 0.000000000000D+00  6 21 3 25 23 3 21 4 0.47685384D-01 0.13441934D-01 0.21321704D+05 0.21321704D+05 0.21321704D+05 0.12307781D+01  1  2 12  1  6  1       21 0.144695065808D-01 0.100000000000D+01
-.102829064881D-04 0.000000000000D+00 0.000000000000D+00 0.170211663957D-06 0.000000000000D+00  6 21 3 25 23 3 21 4 0.40005224D-01 0.13441934D-01 0.18469352D+05 0.18469352D+05 0.18469352D+05 0.12376511D+01  1  2  4  1  6  1       21 -.315420216230D-01 0.100000000000D+01
-.345380620893D-04 0.000000000000D+00 -.645255282896D-05 0.170211663957D-06 0.000000000000D+00  6 21 3 25 23 3 21 4 0.46684902D-01 0.13441934D-01 0.18469352D+05 0.18469352D+05 0.18469352D+05 0.12376511D+01  1  2  5  1  6  1       21 -.775117576290D-01 0.100000000000D+01
0.338946753663D-04 0.000000000000D+00 0.615495504564D-05 0.170211663957D-06 0.000000000000D+00  6 21 3 25 23 3 21 4 0.40005224D-01 0.13441934D-01 0.18469352D+05 0.18469352D+05 0.18469352D+05 0.12376511D+01  1  2  6  1  6  1       21 0.103969299395D+00 0.100000000000D+01
0.333392467408D-06 0.000000000000D+00 0.000000000000D+00 0.168326454726D-06 0.000000000000D+00  6 -3 3 25 23 3 -3 4 0.46073558D-01 0.13441934D-01 0.21321704D+05 0.21321704D+05 0.21321704D+05 0.12307781D+01  1  2 12  4  6  1       21 0.377942671129D-04 0.100000000000D+01
0.336913403709D-06 0.000000000000D+00 0.000000000000D+00 0.168326454726D-06 0.000000000000D+00  6 -3 3 25 23 3 -3 4 0.47685384D-01 0.13441934D-01 0.21321704D+05 0.21321704D+05 0.21321704D+05 0.12307781D+01  1  2 12  4  6  1       21 0.356821310754D-04 0.100000000000D+01
-.126038008214D-05 0.000000000000D+00 -.271964349511D-06 0.170211663957D-06 0.000000000000D+00  6 -3 3 25 23 3 -3 4 0.46684902D-01 0.13441934D-01 0.18469352D+05 0.18469352D+05 0.18469352D+05 0.12376511D+01  1  2  5  4  6  1       21 -.140940101467D-03 0.100000000000D+01
0.333392467408D-06 0.000000000000D+00 0.000000000000D+00 0.168326454726D-06 0.000000000000D+00  6 3 3 25 23 3 3 4 0.46073558D-01 0.13441934D-01 0.21321704D+05 0.21321704D+05 0.21321704D+05 0.12307781D+01  1  2 12  5  6  1       21 0.378064932326D-04 0.100000000000D+01
0.336913403709D-06 0.000000000000D+00 0.000000000000D+00 0.168326454726D-06 0.000000000000D+00  6 3 3 25 23 3 3 4 0.47685384D-01 0.13441934D-01 0.21321704D+05 0.21321704D+05 0.21321704D+05 0.12307781D+01  1  2 12  5  6  1       21 0.356949885564D-04 0.100000000000D+01
-.126038008214D-05 0.000000000000D+00 -.271964349511D-06 0.170211663957D-06 0.000000000000D+00  6 3 3 25 23 3 3 4 0.46684902D-01 0.13441934D-01 0.18469352D+05 0.18469352D+05 0.18469352D+05 0.12376511D+01  1  2  5  5  6  1       21 -.140987246695D-03 0.100000000000D+01
0.333392467408D-06 0.000000000000D+00 0.000000000000D+00 0.168326454726D-06 0.000000000000D+00  6 -2 3 25 23 3 -2 4 0.46073558D-01 0.13441934D-01 0.21321704D+05 0.21321704D+05 0.21321704D+05 0.12307781D+01  1  2 12  6  6  1       21 0.602738041704D-04 0.100000000000D+01
0.333392467408D-06 0.000000000000D+00 0.000000000000D+00 0.168326454726D-06 0.000000000000D+00  6 -4 3 25 23 3 -4 4 0.46073558D-01 0.13441934D-01 0.21321704D+05 0.21321704D+05 0.21321704D+05 0.12307781D+01  1  2 12  6  6  1       21 0.311741974786D-04 0.100000000000D+01
0.336913403709D-06 0.000000000000D+00 0.000000000000D+00 0.168326454726D-06 0.000000000000D+00  6 -2 3 25 23 3 -2 4 0.47685384D-01 0.13441934D-01 0.21321704D+05 0.21321704D+05 0.21321704D+05 0.12307781D+01  1  2 12  6  6  1       21 0.569511168693D-04 0.100000000000D+01
0.336913403709D-06 0.000000000000D+00 0.000000000000D+00 0.168326454726D-06 0.000000000000D+00  6 -4 3 25 23 3 -4 4 0.47685384D-01 0.13441934D-01 0.21321704D+05 0.21321704D+05 0.21321704D+05 0.12307781D+01  1  2 12  6  6  1       21 0.293902388431D-04 0.100000000000D+01
-.126038008214D-05 0.000000000000D+00 -.271964349511D-06 0.170211663957D-06 0.000000000000D+00  6 -2 3 25 23 3 -2 4 0.46684902D-01 0.13441934D-01 0.18469352D+05 0.18469352D+05 0.18469352D+05 0.12376511D+01  1  2  5  6  6  1       21 -.225542691634D-03 0.100000000000D+01
-.126038008214D-05 0.000000000000D+00 -.271964349511D-06 0.170211663957D-06 0.000000000000D+00  6 -4 3 25 23 3 -4 4 0.46684902D-01 0.13441934D-01 0.18469352D+05 0.18469352D+05 0.18469352D+05 0.12376511D+01  1  2  5  6  6  1       21 -.116000770331D-03 0.100000000000D+01
0.333392467408D-06 0.000000000000D+00 0.000000000000D+00 0.168326454726D-06 0.000000000000D+00  6 2 3 25 23 3 2 4 0.46073558D-01 0.13441934D-01 0.21321704D+05 0.21321704D+05 0.21321704D+05 0.12307781D+01  1  2 12  7  6  1       21 0.223491303578D-03 0.100000000000D+01
0.333392467408D-06 0.000000000000D+00 0.000000000000D+00 0.168326454726D-06 0.000000000000D+00  6 4 3 25 23 3 4 4 0.46073558D-01 0.13441934D-01 0.21321704D+05 0.21321704D+05 0.21321704D+05 0.12307781D+01  1  2 12  7  6  1       21 0.311741974786D-04 0.100000000000D+01
0.336913403709D-06 0.000000000000D+00 0.000000000000D+00 0.168326454726D-06 0.000000000000D+00  6 2 3 25 23 3 2 4 0.47685384D-01 0.13441934D-01 0.21321704D+05 0.21321704D+05 0.21321704D+05 0.12307781D+01  1  2 12  7  6  1       21 0.217753384154D-03 0.100000000000D+01
0.336913403709D-06 0.000000000000D+00 0.000000000000D+00 0.168326454726D-06 0.000000000000D+00  6 4 3 25 23 3 4 4 0.47685384D-01 0.13441934D-01 0.21321704D+05 0.21321704D+05 0.21321704D+05 0.12307781D+01  1  2 12  7  6  1       21 0.293902388431D-04 0.100000000000D+01
-.126038008214D-05 0.000000000000D+00 -.271964349511D-06 0.170211663957D-06 0.000000000000D+00  6 2 3 25 23 3 2 4 0.46684902D-01 0.13441934D-01 0.18469352D+05 0.18469352D+05 0.18469352D+05 0.12376511D+01  1  2  5  7  6  1       21 -.845961112728D-03 0.100000000000D+01
-.126038008214D-05 0.000000000000D+00 -.271964349511D-06 0.170211663957D-06 0.000000000000D+00  6 4 3 25 23 3 4 4 0.46684902D-01 0.13441934D-01 0.18469352D+05 0.18469352D+05 0.18469352D+05 0.12376511D+01  1  2  5  7  6  1       21 -.116000770331D-03 0.100000000000D+01
0.333392467408D-06 0.000000000000D+00 0.000000000000D+00 0.168326454726D-06 0.000000000000D+00  6 -1 3 25 23 3 -1 4 0.46073558D-01 0.13441934D-01 0.21321704D+05 0.21321704D+05 0.21321704D+05 0.12307781D+01  1  2 12  8  6  1       21 0.727412732939D-04 0.100000000000D+01
0.336913403709D-06 0.000000000000D+00 0.000000000000D+00 0.168326454726D-06 0.000000000000D+00  6 -1 3 25 23 3 -1 4 0.47685384D-01 0.13441934D-01 0.21321704D+05 0.21321704D+05 0.21321704D+05 0.12307781D+01  1  2 12  8  6  1       21 0.690831122338D-04 0.100000000000D+01
-.126038008214D-05 0.000000000000D+00 -.271964349511D-06 0.170211663957D-06 0.000000000000D+00  6 -1 3 25 23 3 -1 4 0.46684902D-01 0.13441934D-01 0.18469352D+05 0.18469352D+05 0.18469352D+05 0.12376511D+01  1  2  5  8  6  1       21 -.272840050560D-03 0.100000000000D+01
0.333392467408D-06 0.000000000000D+00 0.000000000000D+00 0.168326454726D-06 0.000000000000D+00  6 1 3 25 23 3 1 4 0.46073558D-01 0.13441934D-01 0.21321704D+05 0.21321704D+05 0.21321704D+05 0.12307781D+01  1  2 12  9  6  1       21 0.158176826969D-03 0.100000000000D+01
0.336913403709D-06 0.000000000000D+00 0.000000000000D+00 0.168326454726D-06 0.000000000000D+00  6 1 3 25 23 3 1 4 0.47685384D-01 0.13441934D-01 0.21321704D+05 0.21321704D+05 0.21321704D+05 0.12307781D+01  1  2 12  9  6  1       21 0.153167691025D-03 0.100000000000D+01
-.126038008214D-05 0.000000000000D+00 -.271964349511D-06 0.170211663957D-06 0.000000000000D+00  6 1 3 25 23 3 1 4 0.46684902D-01 0.13441934D-01 0.18469352D+05 0.18469352D+05 0.18469352D+05 0.12376511D+01  1  2  5  9  6  1       21 -.597591048633D-03 0.100000000000D+01
  </mgrwgt>
  </event>
  <event>
  5     66 0.44737074E-03 0.78772988E+02 0.75467711E-02 0.10825180E+00
       21 -1    0    0  501  502 0.00000000E+00 0.00000000E+00 0.88547621E+02 0.88550797E+02 0.75000000E+00 0.0000E+00 0.9000E+01
        1 -1    0    0  502    0 0.00000000E+00 0.00000000E+00 -.62077239E+03 0.62077247E+03 0.32000000E+00 0.0000E+00 0.9000E+01
       25  1    1    2    0    0 -.56798983E+02 0.58645893E+02 -.23059646E+03 0.27470929E+03 0.12500000E+03 0.0000E+00 0.9000E+01
       23  1    1    2    0    0 0.12148020E+03 -.10360690E+03 -.30459115E+03 0.35578484E+03 0.91188000E+02 0.0000E+00 0.9000E+01
        1  1    1    2  501    0 -.64681219E+02 0.44961009E+02 0.29628472E+01 0.78829140E+02 0.32000000E+00 0.0000E+00 0.9000E+01
#aMCatNLO 1  0  0  1  2 0.50745336D+01 0.00000000D+00  -5  6  0 0.00000000D+00 0.00000000D+00 0.00000000D+00 0.00000000D+00 0.00000000D+00
  <mgrwgt>
 0.2994676819D-01    3    2    0
 0.234454843458092D+03 0.000000000000000D+00 0.000000000000000D+00 0.234454843458092D+03
 0.234454843458092D+03 0.000000000000000D+00 0.000000000000000D+00 -.234454843458092D+03
 0.153821801192462D+03 -.567989105929737D+02 0.586458426636722D+02 -.370229039354369D+02
 0.192479643289580D+03 0.121480292494748D+03 -.103606964626483D+03 -.569323910718771D+02
 0.122608242434142D+03 -.646813819017747D+02 0.449611219628110D+02 0.939552950073140D+02
 0.000000000000000D+00 0.000000000000000D+00 0.000000000000000D+00 -.000000000000000D+00
 0.282058650809688D+03 0.000000000000000D+00 0.000000000000000D+00 0.282058650809688D+03
 0.461895852116027D+03 0.000000000000000D+00 0.000000000000000D+00 -.461895852116027D+03
 0.152192164519091D+03 -.778989846447306D+02 0.992510536535910D+01 -.370229039354369D+02
 0.221169714585364D+03 0.929586135500364D+02 -.169464421987228D+03 -.569323910718771D+02
 0.124654582264807D+03 -.817304858512074D+02 0.559420255511445D+01 0.939552950073140D+02
 0.245938041556454D+03 0.666708569459017D+02 0.153945114066755D+03 -.179837201306340D+03
0.106281284453D-04 0.000000000000D+00 0.000000000000D+00 0.182513897730D-06 0.000000000000D+00  6 21 1 25 23 1 21 2 0.13622962D-01 0.95503695D-01 0.42423635D+05 0.42423635D+05 0.42423635D+05 0.11994145D+01  1  2  2  1  6  1       21 0.265303999915D-01 0.100000000000D+01
0.526183878578D-07 0.560861746863D-06 -.214551292314D-07 0.182513897730D-06 0.000000000000D+00  6 21 1 25 23 1 21 4 0.13622962D-01 0.95503695D-01 0.42423635D+05 0.42423635D+05 0.42423635D+05 0.11994145D+01  1  2  3  1  6  1       21 0.188957062944D-03 0.100000000000D+01
0.898728886081D-06 0.000000000000D+00 0.000000000000D+00 0.182513897730D-06 0.000000000000D+00  6 21 1 25 23 1 21 4 0.13622962D-01 0.95503695D-01 0.42423635D+05 0.42423635D+05 0.42423635D+05 0.11994145D+01  1  2 15  1  6  1       21 0.322741113156D-02 0.100000000000D+01
  </mgrwgt>
  </event>
  <event>
  5     66 -.44737074E-03 0.66108664E+02 0.75467711E-02 0.11577963E+00
       21 -1    0    0  501  502 0.00000000E+00 0.00000000E+00 0.40912829E+03 0.40912898E+03 0.75000000E+00 0.0000E+00 0.9000E+01
        1 -1    0    0  502    0 0.00000000E+00 0.00000000E+00 -.10645184E+03 0.10645232E+03 0.32000000E+00 0.0000E+00 0.9000E+01
       25  1    1    2    0    0 -.37145606E+02 -.42618710E+02 0.83938505E+02 0.16083166E+03 0.12500000E+03 0.0000E+00 0.9000E+01
       23  1    1    2    0    0 0.22420226E+02 -.28718962E+02 -.24192443E+02 0.10113343E+03 0.91188000E+02 0.0000E+00 0.9000E+01
        1  1    1    2  501    0 0.14725379E+02 0.71337672E+02 0.24293039E+03 0.25361620E+03 0.32000000E+00 0.0000E+00 0.9000E+01
#aMCatNLO 1  0  0  1  5 0.63800513D+02 0.00000000D+00  -5  6  0 0.00000000D+00 0.00000000D+00 0.00000000D+00 0.00000000D+00 0.00000000D+00
  <mgrwgt>
 -.1730138263D-01   30    2    0
 0.208692977991053D+03 0.000000000000000D+00 0.000000000000000D+00 0.208692977991053D+03
 0.208692977991053D+03 0.000000000000000D+00 0.000000000000000D+00 -.208692977991053D+03
 0.137799559213665D+03 -.371456189807342D+02 -.426187738858610D+02 -.129445595708958D+02
 0.142470117257636D+03 0.224202128032947D+02 -.287190287496433D+02 -.103223226131219D+03
 0.137116279510805D+03 0.147254061774394D+02 0.713378026355043D+02 0.116167785702114D+03
 0.000000000000000D+00 0.000000000000000D+00 -.000000000000000D+00 0.000000000000000D+00
 0.943573937583430D+03 0.000000000000000D+00 0.000000000000000D+00 0.943573937583430D+03
 0.212506327379811D+03 0.000000000000000D+00 0.000000000000000D+00 -.212506327379811D+03
 0.138067634459539D+03 -.506354850486007D+02 -.265736282178676D+02 -.129445595708958D+02
 0.138559368662843D+03 0.867791138749258D+01 -.123736308842597D+02 -.103223226131219D+03
 0.145606986241143D+03 0.900279171646950D+00 0.877817150932305D+02 0.116167785702114D+03
 0.733846275599715D+03 0.410572944894611D+02 -.488344559911032D+02 0.731067610203619D+03
0.183793987381D-05 0.000000000000D+00 0.000000000000D+00 0.569240627493D-06 0.000000000000D+00  6 21 1 25 23 1 21 2 0.62942904D-01 0.16377295D-01 0.23751312D+05 0.23751312D+05 0.23751312D+05 0.12256906D+01  1  2  2  1  6  1       21 0.231351703429D-02 0.100000000000D+01
0.353071739634D-08 0.969907518115D-07 -.371027107127D-08 0.569240627493D-06 0.000000000000D+00  6 21 1 25 23 1 21 4 0.62942904D-01 0.16377295D-01 0.23751312D+05 0.23751312D+05 0.23751312D+05 0.12256906D+01  1  2  3  1  6  1       21 0.667676458694D-05 0.100000000000D+01
0.172631019053D-06 0.000000000000D+00 0.000000000000D+00 0.569240627493D-06 0.000000000000D+00  6 21 1 25 23 1 21 4 0.62942904D-01 0.16377295D-01 0.23751312D+05 0.23751312D+05 0.23751312D+05 0.12256906D+01  1  2 15  1  6  1       21 0.326453959702D-03 0.100000000000D+01
0.255275600069D-03 0.000000000000D+00 0.000000000000D+00 0.551285060302D-06 0.000000000000D+00  6 21 1 25 23 1 21 4 0.28226342D+00 0.16377295D-01 0.36381418D+05 0.36381418D+05 0.36381418D+05 0.12062047D+01  1  2 12  1  6  1       21 0.831662807432D-02 0.100000000000D+01
0.257039424905D-03 0.000000000000D+00 0.000000000000D+00 0.551285060302D-06 0.000000000000D+00  6 21 1 25 23 1 21 4 0.29907306D+00 0.16377295D-01 0.36381418D+05 0.36381418D+05 0.36381418D+05 0.12062047D+01  1  2 12  1  6  1       21 0.670206089999D-02 0.100000000000D+01
-.655604538944D-03 0.000000000000D+00 -.954830412638D-05 0.569240627493D-06 0.000000000000D+00  6 21 1 25 23 1 21 4 0.28535602D+00 0.16377295D-01 0.23751312D+05 0.23751312D+05 0.23751312D+05 0.12256906D+01  1  2  5  1  6  1       21 -.228296574872D-01 0.100000000000D+01
0.104939469032D-03 0.000000000000D+00 0.000000000000D+00 0.551285060302D-06 0.000000000000D+00  6 -1 1 25 23 1 -1 4 0.28226342D+00 0.16377295D-01 0.36381418D+05 0.36381418D+05 0.36381418D+05 0.12062047D+01  1  2 12  4  6  1       21 0.379251567466D-03 0.100000000000D+01
0.106665519880D-03 0.000000000000D+00 0.000000000000D+00 0.551285060302D-06 0.000000000000D+00  6 -1 1 25 23 1 -1 4 0.29907306D+00 0.16377295D-01 0.36381418D+05 0.36381418D+05 0.36381418D+05 0.12062047D+01  1  2 12  4  6  1       21 0.303365853848D-03 0.100000000000D+01
-.270158264303D-03 0.000000000000D+00 -.387700548596D-05 0.569240627493D-06 0.000000000000D+00  6 -1 1 25 23 1 -1 4 0.28535602D+00 0.16377295D-01 0.23751312D+05 0.23751312D+05 0.23751312D+05 0.12256906D+01  1  2  5  4  6  1       21 -.101329495453D-02 0.100000000000D+01
0.104939469032D-03 0.000000000000D+00 0.000000000000D+00 0.551285060302D-06 0.000000000000D+00  6 1 1 25 23 1 1 4 0.28226342D+00 0.16377295D-01 0.36381418D+05 0.36381418D+05 0.36381418D+05 0.12062047D+01  1  2 12  5  6  1       21 0.390015408178D-02 0.100000000000D+01
0.106665519880D-03 0.000000000000D+00 0.000000000000D+00 0.551285060302D-06 0.000000000000D+00  6 1 1 25 23 1 1 4 0.29907306D+00 0.16377295D-01 0.36381418D+05 0.36381418D+05 0.36381418D+05 0.12062047D+01  1  2 12  5  6  1       21 0.337249920461D-02 0.100000000000D+01
-.270158264303D-03 0.000000000000D+00 -.387700548596D-05 0.569240627493D-06 0.000000000000D+00  6 1 1 25 23 1 1 4 0.28535602D+00 0.16377295D-01 0.23751312D+05 0.23751312D+05 0.23751312D+05 0.12256906D+01  1  2  5  5  6  1       21 -.105547983671D-01 0.100000000000D+01
0.104939469032D-03 0.000000000000D+00 0.000000000000D+00 0.551285060302D-06 0.000000000000D+00  6 -2 1 25 23 1 -2 4 0.28226342D+00 0.16377295D-01 0.36381418D+05 0.36381418D+05 0.36381418D+05 0.12062047D+01  1  2 12  6  6  1       21 0.308694854392D-03 0.100000000000D+01
0.104939469032D-03 0.000000000000D+00 0.000000000000D+00 0.551285060302D-06 0.000000000000D+00  6 -4 1 25 23 1 -4 4 0.28226342D+00 0.16377295D-01 0.36381418D+05 0.36381418D+05 0.36381418D+05 0.12062047D+01  1  2 12  6  6  1       21 0.156439968401D-03 0.100000000000D+01
0.106665519880D-03 0.000000000000D+00 0.000000000000D+00 0.551285060302D-06 0.000000000000D+00  6 -2 1 25 23 1 -2 4 0.29907306D+00 0.16377295D-01 0.36381418D+05 0.36381418D+05 0.36381418D+05 0.12062047D+01  1  2 12  6  6  1       21 0.250875878053D-03 0.100000000000D+01
0.106665519880D-03 0.000000000000D+00 0.000000000000D+00 0.551285060302D-06 0.000000000000D+00  6 -4 1 25 23 1 -4 4 0.29907306D+00 0.16377295D-01 0.36381418D+05 0.36381418D+05 0.36381418D+05 0.12062047D+01  1  2 12  6  6  1       21 0.126839909609D-03 0.100000000000D+01
-.270158264303D-03 0.000000000000D+00 -.387700548596D-05 0.569240627493D-06 0.000000000000D+00  6 -2 1 25 23 1 -2 4 0.28535602D+00 0.16377295D-01 0.23751312D+05 0.23751312D+05 0.23751312D+05 0.12256906D+01  1  2  5  6  6  1       21 -.825213495518D-03 0.100000000000D+01
-.270158264303D-03 0.000000000000D+00 -.387700548596D-05 0.569240627493D-06 0.000000000000D+00  6 -4 1 25 23 1 -4 4 0.28535602D+00 0.16377295D-01 0.23751312D+05 0.23751312D+05 0.23751312D+05 0.12256906D+01  1  2  5  6  6  1       21 -.415162100326D-03 0.100000000000D+01
0.104939469032D-03 0.000000000000D+00 0.000000000000D+00 0.551285060302D-06 0.000000000000D+00  6 2 1 25 23 1 2 4 0.28226342D+00 0.16377295D-01 0.36381418D+05 0.36381418D+05 0.36381418D+05 0.12062047D+01  1  2 12  7  6  1       21 0.927971381825D-02 0.100000000000D+01
0.104939469032D-03 0.000000000000D+00 0.000000000000D+00 0.551285060302D-06 0.000000000000D+00  6 4 1 25 23 1 4 4 0.28226342D+00 0.16377295D-01 0.36381418D+05 0.36381418D+05 0.36381418D+05 0.12062047D+01  1  2 12  7  6  1       21 0.156439968401D-03 0.100000000000D+01
0.106665519880D-03 0.000000000000D+00 0.000000000000D+00 0.551285060302D-06 0.000000000000D+00  6 2 1 25 23 1 2 4 0.29907306D+00 0.16377295D-01 0.36381418D+05 0.36381418D+05 0.36381418D+05 0.12062047D+01  1  2 12  7  6  1       21 0.827955387503D-02 0.100000000000D+01
0.106665519880D-03 0.000000000000D+00 0.000000000000D+00 0.551285060302D-06 0.000000000000D+00  6 4 1 25 23 1 4 4 0.29907306D+00 0.16377295D-01 0.36381418D+05 0.36381418D+05 0.36381418D+05 0.12062047D+01  1  2 12  7  6  1       21 0.126839909609D-03 0.100000000000D+01
-.270158264303D-03 0.000000000000D+00 -.387700548596D-05 0.569240627493D-06 0.000000000000D+00  6 2 1 25 23 1 2 4 0.28535602D+00 0.16377295D-01 0.23751312D+05 0.23751312D+05 0.23751312D+05 0.12256906D+01  1  2  5  7  6  1       21 -.251880400486D-01 0.100000000000D+01
-.270158264303D-03 0.000000000000D+00 -.387700548596D-05 0.569240627493D-06 0.000000000000D+00  6 4 1 25 23 1 4 4 0.28535602D+00 0.16377295D-01 0.23751312D+05 0.23751312D+05 0.23751312D+05 0.12256906D+01  1  2  5  7  6  1       21 -.415162100326D-03 0.100000000000D+01
0.104939469032D-03 0.000000000000D+00 0.000000000000D+00 0.551285060302D-06 0.000000000000D+00  6 -3 1 25 23 1 -3 4 0.28226342D+00 0.16377295D-01 0.36381418D+05 0.36381418D+05 0.36381418D+05 0.12062047D+01  1  2 12  8  6  1       21 0.216513841764D-03 0.100000000000D+01
0.106665519880D-03 0.000000000000D+00 0.000000000000D+00 0.551285060302D-06 0.000000000000D+00  6 -3 1 25 23 1 -3 4 0.29907306D+00 0.16377295D-01 0.36381418D+05 0.36381418D+05 0.36381418D+05 0.12062047D+01  1  2 12  8  6  1       21 0.179120516175D-03 0.100000000000D+01
-.270158264303D-03 0.000000000000D+00 -.387700548596D-05 0.569240627493D-06 0.000000000000D+00  6 -3 1 25 23 1 -3 4 0.28535602D+00 0.16377295D-01 0.23751312D+05 0.23751312D+05 0.23751312D+05 0.12256906D+01  1  2  5  8  6  1       21 -.577573196754D-03 0.100000000000D+01
0.104939469032D-03 0.000000000000D+00 0.000000000000D+00 0.551285060302D-06 0.000000000000D+00  6 3 1 25 23 1 3 4 0.28226342D+00 0.16377295D-01 0.36381418D+05 0.36381418D+05 0.36381418D+05 0.12062047D+01  1  2 12  9  6  1       21 0.219478695587D-03 0.100000000000D+01
0.106665519880D-03 0.000000000000D+00 0.000000000000D+00 0.551285060302D-06 0.000000000000D+00  6 3 1 25 23 1 3 4 0.29907306D+00 0.16377295D-01 0.36381418D+05 0.36381418D+05 0.36381418D+05 0.12062047D+01  1  2 12  9  6  1       21 0.182015769562D-03 0.100000000000D+01
-.270158264303D-03 0.000000000000D+00 -.387700548596D-05 0.569240627493D-06 0.000000000000D+00  6 3 1 25 23 1 3 4 0.28535602D+00 0.16377295D-01 0.23751312D+05 0.23751312D+05 0.23751312D+05 0.12256906D+01  1  2  5  9  6  1       21 -.585615329805D-03 0.100000000000D+01
  </mgrwgt>
  </event>
  <event>
  5     66 0.44737074E-03 0.59196851E+02 0.75467711E-02 0.12042469E+00
       21 -1    0    0  501  502 0.00000000E+00 0.00000000E+00 0.14943178E+02 0.14961987E+02 0.75000000E+00 0.0000E+00 0.9000E+01
        1 -1    0    0  502    0 -.00000000E+00 -.00000000E+00 -.19909979E+04 0.19909979E+04 0.32000000E+00 0.0000E+00 0.9000E+01
       25  1    1    2    0    0 -.49907560E+01 -.68706402E+02 -.12088089E+04 0.12172056E+04 0.12500000E+03 0.0000E+00 0.9000E+01
       23  1    1    2    0    0 0.77864468E+01 0.95758348E+01 -.65887005E+03 0.66526484E+03 0.91188000E+02 0.0000E+00 0.9000E+01
        1  1    1    2  501    0 -.27956908E+01 0.59130567E+02 -.10837572E+03 0.12348943E+03 0.32000000E+00 0.0000E+00 0.9000E+01
#aMCatNLO 1  0  0  5  5 0.25276112D-01 0.00000000D+00  -5  6  0 0.00000000D+00 0.00000000D+00 0.00000000D+00 0.00000000D+00 0.00000000D+00
  <mgrwgt>
 0.3541353098D-01    4    2    0
 0.172541957636139D+03 0.000000000000000D+00 0.000000000000000D+00 0.172541957636139D+03
 0.172541957636139D+03 -.000000000000000D+00 -.000000000000000D+00 -.172541957636139D+03
 0.153565892212806D+03 -.499074928869396D+01 -.687065446992453D+02 -.566743891730931D+02
 0.942708414220483D+02 0.778645093606683D+01 0.957574731986189D+01 -.204796592624821D+02
 0.972471816374228D+02 -.279570164737286D+01 0.591307973793834D+02 0.771540484355752D+02
 0.000000000000000D+00 0.000000000000000D+00 -.000000000000000D+00 0.000000000000000D+00
 0.172541957636139D+03 0.000000000000000D+00 0.000000000000000D+00 0.172541957636139D+03
 0.172541957636139D+03 -.000000000000000D+00 -.000000000000000D+00 -.172541957636139D+03
 0.153557838034497D+03 -.499115991622271D+01 -.686978596762122D+02 -.566630569280118D+02
 0.942698512697054D+02 0.778619885525677D+01 0.958107898295864D+01 -.204727024918814D+02
 0.260001098172647D-01 0.209597842987587D-01 0.806517966119842D-02 -.131013751379536D-01
 0.972302258582572D+02 -.281599872333281D+01 0.591087155135924D+02 0.771488607950311D+02
0.383807971452D-05 0.000000000000D+00 0.000000000000D+00 0.627281356661D-06 0.000000000000D+00  6 21 1 25 23 1 21 2 0.23003993D-02 0.30630882D+00 0.21600406D+05 0.21600406D+05 0.21600406D+05 0.12301624D+01  1  2  2  3  6  5        1 0.225001005461D-01 0.100000000000D+01
0.214806180590D-07 0.202541031036D-06 -.774797714384D-08 0.627281356661D-06 0.000000000000D+00  6 21 1 25 23 1 21 4 0.23003993D-02 0.30630882D+00 0.21600406D+05 0.21600406D+05 0.21600406D+05 0.12301624D+01  1  2  3  3  6  5        1 0.190564553645D-03 0.100000000000D+01
0.360061223652D-06 0.000000000000D+00 0.000000000000D+00 0.627281356661D-06 0.000000000000D+00  6 21 1 25 23 1 21 4 0.23003993D-02 0.30630882D+00 0.21600406D+05 0.21600406D+05 0.21600406D+05 0.12301624D+01  1  2 15  3  6  5        1 0.319427058299D-02 0.100000000000D+01
0.107406952116D-05 0.000000000000D+00 0.000000000000D+00 0.627282102734D-06 0.120618296950D-05  6 21 1 25 23 1 21 4 0.23003993D-02 0.30630882D+00 0.21600072D+05 0.21600072D+05 0.21600072D+05 0.12301631D+01  1  2 11  3  6  5        1 0.952859530070D-02 0.100000000000D+01
  </mgrwgt>
  </event>
  <event>
  5     66 -.44737074E-03 0.10818531E+03 0.75467711E-02 0.11073966E+00
       21 -1    0    0  501  502 0.00000000E+00 0.00000000E+00 0.14439887E+03 0.14440081E+03 0.75000000E+00 0.0000E+00 0.9000E+01
        1 -1    0    0  502    0 -.00000000E+00 -.00000000E+00 -.62786561E+03 0.62786569E+03 0.32000000E+00 0.0000E+00 0.9000E+01
       25  1    1    2    0    0 -.39659279E+02 -.15022446E+03 -.37883873E+03 0.42811684E+03 0.12500000E+03 0.0000E+00 0.9000E+01
       23  1    1    2    0    0 0.14754622E+03 0.79349492E+02 -.99097853E+02 0.21494619E+03 0.91188000E+02 0.0000E+00 0.9000E+01
        1  1    1    2  501    0 -.10788694E+03 0.70874965E+02 -.55301695E+01 0.12920348E+03 0.32000000E+00 0.0000E+00 0.9000E+01
#aMCatNLO 1  0  0  5  1 0.10668541D+02 0.00000000D+00  -5  6  0 0.00000000D+00 0.00000000D+00 0.00000000D+00 0.00000000D+00 0.00000000D+00
  <mgrwgt>
 -.5320053462D-01    7    2    0
 0.301104409784245D+03 0.000000000000000D+00 0.000000000000000D+00 0.301104409784245D+03
 0.301104409784245D+03 -.000000000000000D+00 -.000000000000000D+00 -.301104409784245D+03
 0.244872546754186D+03 -.396591925253007D+02 -.150224514018033D+03 -.142117233262430D+03
 0.196086866703348D+03 0.147546292865658D+03 0.793494463449411D+02 0.454814772834965D+02
 0.161249406110955D+03 -.107887100340358D+03 0.708750676730923D+02 0.966357559789335D+02
 0.000000000000000D+00 0.000000000000000D+00 0.000000000000000D+00 0.000000000000000D+00
 0.301104409784245D+03 0.000000000000000D+00 0.000000000000000D+00 0.301104409784245D+03
 0.301104409784245D+03 -.000000000000000D+00 -.000000000000000D+00 -.301104409784245D+03
 0.244326540225367D+03 -.403790732531327D+02 -.149751597467856D+03 -.141472427552301D+03
 0.195927833236419D+03 0.146969423785105D+03 0.797284132000494D+02 0.459981857641609D+02
 0.135228427208728D+03 -.899737510782503D+02 0.679699844435833D+02 0.746427012975436D+02
 0.267260188979764D+02 -.166165994537220D+02 0.205319982422291D+01 0.208315404905968D+02
0.293911778360D-05 0.000000000000D+00 0.000000000000D+00 0.607038247458D-07 0.000000000000D+00  6 21 1 25 23 1 21 2 0.22215366D-01 0.96594866D-01 0.67401629D+05 0.67401629D+05 0.67401629D+05 0.11796464D+01  1  2  2  3  6  5        1 0.279048297591D-02 0.100000000000D+01
-.115668690604D-06 0.155101506614D-06 -.593323200772D-08 0.607038247458D-07 0.000000000000D+00  6 21 1 25 23 1 21 4 0.22215366D-01 0.96594866D-01 0.67401629D+05 0.67401629D+05 0.67401629D+05 0.11796464D+01  1  2  3  3  6  5        1 -.152820607419D-03 0.100000000000D+01
0.330029845356D-06 0.000000000000D+00 0.000000000000D+00 0.607038247458D-07 0.000000000000D+00  6 21 1 25 23 1 21 4 0.22215366D-01 0.96594866D-01 0.67401629D+05 0.67401629D+05 0.67401629D+05 0.11796464D+01  1  2 15  3  6  5        1 0.436032959053D-03 0.100000000000D+01
0.247530854465D-04 0.000000000000D+00 0.000000000000D+00 0.607051302535D-07 0.000000000000D+00  6 21 1 25 23 1 21 4 0.22215366D-01 0.96594866D-01 0.67381090D+05 0.67381090D+05 0.67381090D+05 0.11796591D+01  1  2 12  3  6  5        1 0.327053006931D-01 0.100000000000D+01
-.719180831429D-04 0.000000000000D+00 0.000000000000D+00 0.607038247458D-07 0.000000000000D+00  6 21 1 25 23 1 21 4 0.22215366D-01 0.96594866D-01 0.67401629D+05 0.67401629D+05 0.67401629D+05 0.11796464D+01  1  2  4  3  6  5        1 -.950176326276D-01 0.100000000000D+01
-.254952855752D-04 0.000000000000D+00 0.000000000000D+00 0.607038247458D-07 0.000000000000D+00  6 21 1 25 23 1 21 4 0.22215366D-01 0.96594866D-01 0.67401629D+05 0.67401629D+05 0.67401629D+05 0.11796464D+01  1  2  5  3  6  5        1 -.336841802875D-01 0.100000000000D+01
0.300654764814D-04 0.000000000000D+00 -.000000000000D+00 0.607038247458D-07 0.000000000000D+00  6 21 1 25 23 1 21 4 0.22215366D-01 0.96594866D-01 0.67401629D+05 0.67401629D+05 0.67401629D+05 0.11796464D+01  1  2  6  3  6  5        1 0.397222822722D-01 0.100000000000D+01
  </mgrwgt>
  </event>
  <event>
  5     66 0.44737074E-03 0.15307072E+03 0.75467711E-02 0.11215219E+00
       21 -1    0    0  501  502 0.00000000E+00 0.00000000E+00 0.56273198E+02 0.56278195E+02 0.75000000E+00 0.0000E+00 0.9000E+01
        1 -1    0    0  502    0 -.00000000E+00 -.00000000E+00 -.13482849E+04 0.13482850E+04 0.32000000E+00 0.0000E+00 0.9000E+01
       25  1    1    2    0    0 0.43445993E+02 0.54825409E+02 -.16135423E+03 0.21576276E+03 0.12500000E+03 0.0000E+00 0.9000E+01
       23  1    1    2    0    0 -.14311966E+03 0.61345746E+02 -.85169628E+03 0.87060228E+03 0.91188000E+02 0.0000E+00 0.9000E+01
        1  1    1    2  501    0 0.99673665E+02 -.11617116E+03 -.27896121E+03 0.31819811E+03 0.32000000E+00 0.0000E+00 0.9000E+01
#aMCatNLO 1  0  0  5  1 0.27034547D+02 0.00000000D+00  -5  6  0 0.00000000D+00 0.00000000D+00 0.00000000D+00 0.00000000D+00 0.00000000D+00
  <mgrwgt>
 0.2272791385D-01    7    2    0
 0.275455695719327D+03 0.000000000000000D+00 0.000000000000000D+00 0.275455695719327D+03
 0.275455695719327D+03 -.000000000000000D+00 -.000000000000000D+00 -.275455695719327D+03
 0.171680709280091D+03 0.434459288220450D+02 0.548254838553101D+02 0.946355299437581D+02
 0.222203373254955D+03 -.143119741944825D+03 0.613458437741002D+02 -.129663081326841D+03
 0.157027308903608D+03 0.996738131227800D+02 -.116171327629410D+03 0.350275513830833D+02
 0.000000000000000D+00 0.000000000000000D+00 0.000000000000000D+00 0.000000000000000D+00
 0.275455695719327D+03 0.000000000000000D+00 0.000000000000000D+00 0.275455695719327D+03
 0.275455695719327D+03 -.000000000000000D+00 -.000000000000000D+00 -.275455695719327D+03
 0.172000370949564D+03 0.467061508851451D+02 0.510256460285934D+02 0.957812430679749D+02
 0.217365208989797D+03 -.138949913366765D+03 0.564858458797333D+02 -.128197712638711D+03
 0.340890392564404D+02 -.699494238566153D+01 -.292072825708362D+02 0.161266246708895D+02
 0.127456772242851D+03 0.992387048672820D+02 -.783042093374906D+02 0.162898448998472D+02
0.167130262495D-04 0.000000000000D+00 0.000000000000D+00 0.463642344476D-07 0.000000000000D+00  6 21 1 25 23 1 21 2 0.86578024D-02 0.20742884D+00 0.56825517D+05 0.56825517D+05 0.56825517D+05 0.11868169D+01  1  2  2  3  6  5        1 0.248707011741D-01 0.100000000000D+01
-.135123255515D-05 0.881970625963D-06 -.337387847615D-07 0.463642344476D-07 0.000000000000D+00  6 21 1 25 23 1 21 4 0.86578024D-02 0.20742884D+00 0.56825517D+05 0.56825517D+05 0.56825517D+05 0.11868169D+01  1  2  3  3  6  5        1 -.283224278870D-02 0.100000000000D+01
0.180509472955D-05 0.000000000000D+00 0.000000000000D+00 0.463642344476D-07 0.000000000000D+00  6 21 1 25 23 1 21 4 0.86578024D-02 0.20742884D+00 0.56825517D+05 0.56825517D+05 0.56825517D+05 0.11868169D+01  1  2 15  3  6  5        1 0.378355784223D-02 0.100000000000D+01
0.436611320895D-05 0.000000000000D+00 0.000000000000D+00 0.463909507580D-07 0.000000000000D+00  6 21 1 25 23 1 21 4 0.86578024D-02 0.20742884D+00 0.56369409D+05 0.56369409D+05 0.56369409D+05 0.11871588D+01  1  2 12  3  6  5        1 0.916455410803D-02 0.100000000000D+01
-.930073527459D-05 0.000000000000D+00 0.000000000000D+00 0.463642344476D-07 0.000000000000D+00  6 21 1 25 23 1 21 4 0.86578024D-02 0.20742884D+00 0.56825517D+05 0.56825517D+05 0.56825517D+05 0.11868169D+01  1  2  4  3  6  5        1 -.194947496719D-01 0.100000000000D+01
-.370611538636D-05 0.000000000000D+00 0.000000000000D+00 0.463642344476D-07 0.000000000000D+00  6 21 1 25 23 1 21 4 0.86578024D-02 0.20742884D+00 0.56825517D+05 0.56825517D+05 0.56825517D+05 0.11868169D+01  1  2  5  3  6  5        1 -.776818064156D-02 0.100000000000D+01
0.715837757479D-05 0.000000000000D+00 -.000000000000D+00 0.463642344476D-07 0.000000000000D+00  6 21 1 25 23 1 21 4 0.86578024D-02 0.20742884D+00 0.56825517D+05 0.56825517D+05 0.56825517D+05 0.11868169D+01  1  2  6  3  6  5        1 0.150042738297D-01 0.100000000000D+01
  </mgrwgt>
  </event>
  <event>
  6     66 0.44737074E-03 0.59097028E+02 0.75467711E-02 0.12037267E+00
       21 -1    0    0  501  502 0.00000000E+00 0.00000000E+00 0.36144516E+02 0.36152297E+02 0.75000000E+00 0.0000E+00 0.9000E+01
        1 -1    0    0  502    0 -.00000000E+00 -.00000000E+00 -.81923936E+03 0.81923942E+03 0.32000000E+00 0.0000E+00 0.9000E+01
       25  1    1    2    0    0 -.29101535E+01 0.36648925E+02 -.14530828E+03 0.19516943E+03 0.12500000E+03 0.0000E+00 0.9000E+01
       23  1    1    2    0    0 0.33406666E+02 0.14742665E+02 -.46085730E+03 0.47120914E+03 0.91188000E+02 0.0000E+00 0.9000E+01
        1  1    1    2  503    0 -.43949710E+01 0.33441853E+01 -.10310282E+02 0.11700583E+02 0.32000000E+00 0.0000E+00 0.9000E+01
       21  1    1    2  501  503 -.26101541E+02 -.54735776E+02 -.16661898E+03 0.17731256E+03 0.75000000E+00 0.0000E+00 0.9000E+01
#aMCatNLO 2  0  0  5  1 0.46279839D+01 0.00000000D+00  -5  6  0 0.00000000D+00 0.00000000D+00 0.00000000D+00 0.00000000D+00 0.00000000D+00
  <mgrwgt>
 0.1101754029D-01    2    2    0
 0.172088246850293D+03 0.000000000000000D+00 0.000000000000000D+00 0.172088246850293D+03
 0.172088246850293D+03 -.000000000000000D+00 -.000000000000000D+00 -.172088246850293D+03
 0.155312344782509D+03 -.138532128182988D+01 0.392185160131806D+02 0.834081130856647D+02
 0.122902506613707D+03 0.346148715057473D+02 0.167786885183341D+02 -.728701658443127D+02
 0.659616423043700D+02 -.332295502239174D+02 -.559972045315146D+02 -.105379472413520D+02
 0.000000000000000D+00 0.000000000000000D+00 0.000000000000000D+00 0.000000000000000D+00
 0.172088246850293D+03 0.000000000000000D+00 0.000000000000000D+00 0.172088246850293D+03
 0.172088246850293D+03 -.000000000000000D+00 -.000000000000000D+00 -.172088246850293D+03
 0.154590359309904D+03 -.264700373969738D+01 0.370923755697815D+02 0.830080010442210D+02
 0.122594628224996D+03 0.336153983666218D+02 0.150944134854724D+02 -.731871245493894D+02
 0.467623115982773D+01 -.365181171557876D+01 0.279941244935947D+01 0.833486048159461D+00
 0.623152750058592D+02 -.273165829113456D+02 -.549862015046134D+02 -.106543625429911D+02
-.254717673906D-06 0.000000000000D+00 0.000000000000D+00 0.119589916459D-06 0.000000000000D+00  6 21 1 25 23 1 21 4 0.55612981D-02 0.12603743D+00 0.21721611D+05 0.21721611D+05 0.21721611D+05 0.12298974D+01  1  2 13  3  6  5        1 -.325320897144D-02 0.100000000000D+01
0.111736199207D-05 0.000000000000D+00 0.000000000000D+00 0.119569055071D-06 0.458795565087D-08  6 21 1 25 23 1 21 4 0.55612981D-02 0.12603743D+00 0.21721611D+05 0.21721611D+05 0.21721611D+05 0.12298974D+01  1  2  1  3  6  5        1 0.142707492621D-01 0.100000000000D+01
  </mgrwgt>
  </event>
  <event>
  5     66 0.44737074E-03 0.24531968E+02 0.75467711E-02 0.12196478E+00
       21 -1    0    0  501  502 0.00000000E+00 0.00000000E+00 0.65316854E+02 0.65321160E+02 0.75000000E+00 0.0000E+00 0.9000E+01
        1 -1    0    0  502    0 0.00000000E+00 0.00000000E+00 -.13132181E+04 0.13132181E+04 0.32000000E+00 0.0000E+00 0.9000E+01
       25  1    1    2    0    0 0.47429898E+02 0.17075618E+02 -.77776377E+03 0.78935585E+03 0.12500000E+03 0.0000E+00 0.9000E+01
       23  1    1    2    0    0 -.23150635E+02 -.13563598E+02 -.52264948E+03 0.53122279E+03 0.91188000E+02 0.0000E+00 0.9000E+01
        1  1    1    2  501    0 -.24279263E+02 -.35120192E+01 0.52512042E+02 0.57960623E+02 0.32000000E+00 0.0000E+00 0.9000E+01
#aMCatNLO 1  0  0  1  2 0.19416934D+02 0.00000000D+00  -5  6  0 0.00000000D+00 0.00000000D+00 0.00000000D+00 0.00000000D+00 0.00000000D+00
  <mgrwgt>
 0.3510861687D+00   23    2    0
 0.292879271531805D+03 0.000000000000000D+00 0.000000000000000D+00 0.292879271531805D+03
 0.292879271531805D+03 0.000000000000000D+00 0.000000000000000D+00 -.292879271531805D+03
 0.200740922643232D+03 0.474299046318699D+02 0.170756185592976D+02 -.148764059574499D+03
 0.136739919341967D+03 -.231506303395495D+02 -.135635976435130D+02 -.982986842816025D+02
 0.248277701078410D+03 -.242792742923204D+02 -.351202091578464D+01 0.247062743856102D+03
 0.000000000000000D+00 -.000000000000000D+00 0.000000000000000D+00 0.000000000000000D+00
 0.304049519774935D+03 0.000000000000000D+00 0.000000000000000D+00 0.304049519774935D+03
 0.301601410251510D+03 0.000000000000000D+00 0.000000000000000D+00 -.301601410251510D+03
 0.201592158467074D+03 0.522353034550307D+02 0.124549591444296D+02 -.148764059574499D+03
 0.136573490422753D+03 -.198862208258874D+02 -.167025097522411D+02 -.982986842816025D+02
 0.247914625553625D+03 -.183528363869937D+02 -.921062203332238D+01 0.247062743856102D+03
 0.195706555829929D+02 -.139962462421495D+02 0.134581726411339D+02 0.244810952342469D+01
0.361612799351D-04 0.000000000000D+00 0.000000000000D+00 0.241126190030D-04 0.000000000000D+00  6 21 1 25 23 1 21 2 0.10049081D-01 0.20203388D+00 0.16175699D+05 0.16175699D+05 0.16175699D+05 0.12441037D+01  1  2  2  1  6  1       21 0.499127675975D-01 0.100000000000D+01
0.116952104522D-04 0.190828316930D-05 -.729992056625D-07 0.241126190030D-04 0.000000000000D+00  6 21 1 25 23 1 21 4 0.10049081D-01 0.20203388D+00 0.16175699D+05 0.16175699D+05 0.16175699D+05 0.12441037D+01  1  2  3  1  6  1       21 0.249855599034D-01 0.100000000000D+01
0.431419384934D-05 0.000000000000D+00 0.000000000000D+00 0.241126190030D-04 0.000000000000D+00  6 21 1 25 23 1 21 4 0.10049081D-01 0.20203388D+00 0.16175699D+05 0.16175699D+05 0.16175699D+05 0.12441037D+01  1  2 15  1  6  1       21 0.921681138601D-02 0.100000000000D+01
0.915238203865D-04 0.000000000000D+00 0.000000000000D+00 0.238767657481D-04 0.000000000000D+00  6 21 1 25 23 1 21 4 0.10576930D-01 0.20203388D+00 0.18334760D+05 0.18334760D+05 0.18334760D+05 0.12380043D+01  1  2 12  1  6  1       21 0.174658898626D+00 0.100000000000D+01
-.367648694619D-04 0.000000000000D+00 0.000000000000D+00 0.241126190030D-04 0.000000000000D+00  6 21 1 25 23 1 21 4 0.10049081D-01 0.20203388D+00 0.16175699D+05 0.16175699D+05 0.16175699D+05 0.12441037D+01  1  2  4  1  6  1       21 -.785441914052D-01 0.100000000000D+01
-.694262125017D-03 0.000000000000D+00 -.167621149323D-03 0.241126190030D-04 0.000000000000D+00  6 21 1 25 23 1 21 4 0.10760270D-01 0.20203388D+00 0.16175699D+05 0.16175699D+05 0.16175699D+05 0.12441037D+01  1  2  5  1  6  1       21 -.131563797764D+01 0.100000000000D+01
0.699087915898D-03 0.000000000000D+00 0.166063962596D-03 0.241126190030D-04 0.000000000000D+00  6 21 1 25 23 1 21 4 0.10049081D-01 0.20203388D+00 0.16175699D+05 0.16175699D+05 0.16175699D+05 0.12441037D+01  1  2  6  1  6  1       21 0.149352618081D+01 0.100000000000D+01
0.145823157631D-05 0.000000000000D+00 0.000000000000D+00 0.238767657481D-04 0.000000000000D+00  6 -1 1 25 23 1 -1 4 0.10576930D-01 0.20203388D+00 0.18334760D+05 0.18334760D+05 0.18334760D+05 0.12380043D+01  1  2 12  4  6  1       21 0.186826039969D-03 0.100000000000D+01
-.922882381307D-05 0.000000000000D+00 -.280874011063D-05 0.241126190030D-04 0.000000000000D+00  6 -1 1 25 23 1 -1 4 0.10760270D-01 0.20203388D+00 0.16175699D+05 0.16175699D+05 0.16175699D+05 0.12441037D+01  1  2  5  4  6  1       21 -.117633856648D-02 0.100000000000D+01
0.145823157631D-05 0.000000000000D+00 0.000000000000D+00 0.238767657481D-04 0.000000000000D+00  6 1 1 25 23 1 1 4 0.10576930D-01 0.20203388D+00 0.18334760D+05 0.18334760D+05 0.18334760D+05 0.12380043D+01  1  2 12  5  6  1       21 0.236871347777D-03 0.100000000000D+01
-.922882381307D-05 0.000000000000D+00 -.280874011063D-05 0.241126190030D-04 0.000000000000D+00  6 1 1 25 23 1 1 4 0.10760270D-01 0.20203388D+00 0.16175699D+05 0.16175699D+05 0.16175699D+05 0.12441037D+01  1  2  5  5  6  1       21 -.149715291198D-02 0.100000000000D+01
0.145823157631D-05 0.000000000000D+00 0.000000000000D+00 0.238767657481D-04 0.000000000000D+00  6 -2 1 25 23 1 -2 4 0.10576930D-01 0.20203388D+00 0.18334760D+05 0.18334760D+05 0.18334760D+05 0.12380043D+01  1  2 12  6  6  1       21 0.178134332408D-03 0.100000000000D+01
0.145823157631D-05 0.000000000000D+00 0.000000000000D+00 0.238767657481D-04 0.000000000000D+00  6 -4 1 25 23 1 -4 4 0.10576930D-01 0.20203388D+00 0.18334760D+05 0.18334760D+05 0.18334760D+05 0.12380043D+01  1  2 12  6  6  1       21 0.106082814081D-03 0.100000000000D+01
-.922882381307D-05 0.000000000000D+00 -.280874011063D-05 0.241126190030D-04 0.000000000000D+00  6 -2 1 25 23 1 -2 4 0.10760270D-01 0.20203388D+00 0.16175699D+05 0.16175699D+05 0.16175699D+05 0.12441037D+01  1  2  5  6  6  1       21 -.112060285201D-02 0.100000000000D+01
-.922882381307D-05 0.000000000000D+00 -.280874011063D-05 0.241126190030D-04 0.000000000000D+00  6 -4 1 25 23 1 -4 4 0.10760270D-01 0.20203388D+00 0.16175699D+05 0.16175699D+05 0.16175699D+05 0.12441037D+01  1  2  5  6  6  1       21 -.663165731844D-03 0.100000000000D+01
0.145823157631D-05 0.000000000000D+00 0.000000000000D+00 0.238767657481D-04 0.000000000000D+00  6 2 1 25 23 1 2 4 0.10576930D-01 0.20203388D+00 0.18334760D+05 0.18334760D+05 0.18334760D+05 0.12380043D+01  1  2 12  7  6  1       21 0.270755757138D-03 0.100000000000D+01
0.145823157631D-05 0.000000000000D+00 0.000000000000D+00 0.238767657481D-04 0.000000000000D+00  6 4 1 25 23 1 4 4 0.10576930D-01 0.20203388D+00 0.18334760D+05 0.18334760D+05 0.18334760D+05 0.12380043D+01  1  2 12  7  6  1       21 0.106082814081D-03 0.100000000000D+01
-.922882381307D-05 0.000000000000D+00 -.280874011063D-05 0.241126190030D-04 0.000000000000D+00  6 2 1 25 23 1 2 4 0.10760270D-01 0.20203388D+00 0.16175699D+05 0.16175699D+05 0.16175699D+05 0.12441037D+01  1  2  5  7  6  1       21 -.171431571925D-02 0.100000000000D+01
-.922882381307D-05 0.000000000000D+00 -.280874011063D-05 0.241126190030D-04 0.000000000000D+00  6 4 1 25 23 1 4 4 0.10760270D-01 0.20203388D+00 0.16175699D+05 0.16175699D+05 0.16175699D+05 0.12441037D+01  1  2  5  7  6  1       21 -.663165731844D-03 0.100000000000D+01
0.145823157631D-05 0.000000000000D+00 0.000000000000D+00 0.238767657481D-04 0.000000000000D+00  6 -3 1 25 23 1 -3 4 0.10576930D-01 0.20203388D+00 0.18334760D+05 0.18334760D+05 0.18334760D+05 0.12380043D+01  1  2 12  8  6  1       21 0.121779395078D-03 0.100000000000D+01
-.922882381307D-05 0.000000000000D+00 -.280874011063D-05 0.241126190030D-04 0.000000000000D+00  6 -3 1 25 23 1 -3 4 0.10760270D-01 0.20203388D+00 0.16175699D+05 0.16175699D+05 0.16175699D+05 0.12441037D+01  1  2  5  8  6  1       21 -.762767410174D-03 0.100000000000D+01
0.145823157631D-05 0.000000000000D+00 0.000000000000D+00 0.238767657481D-04 0.000000000000D+00  6 3 1 25 23 1 3 4 0.10576930D-01 0.20203388D+00 0.18334760D+05 0.18334760D+05 0.18334760D+05 0.12380043D+01  1  2 12  9  6  1       21 0.121763736889D-03 0.100000000000D+01
-.922882381307D-05 0.000000000000D+00 -.280874011063D-05 0.241126190030D-04 0.000000000000D+00  6 3 1 25 23 1 3 4 0.10760270D-01 0.20203388D+00 0.16175699D+05 0.16175699D+05 0.16175699D+05 0.12441037D+01  1  2  5  9  6  1       21 -.762667912237D-03 0.100000000000D+01
  </mgrwgt>
  </event>
  <event>
  5     66 0.44737074E-03 0.49917406E+02 0.75467711E-02 0.10758543E+00
       21 -1    0    0  501  502 0.00000000E+00 0.00000000E+00 0.60382603E+02 0.60387261E+02 0.75000000E+00 0.0000E+00 0.9000E+01
        1 -1    0    0  502    0 0.00000000E+00 0.00000000E+00 -.11071316E+04 0.11071316E+04 0.32000000E+00 0.0000E+00 0.9000E+01
       25  1    1    2    0    0 0.11761605E+03 -.54938974E+02 -.80527843E+03 0.82519705E+03 0.12500000E+03 0.0000E+00 0.9000E+01
       23  1    1    2    0    0 -.14621951E+03 0.14029689E+02 -.23534886E+03 0.29202965E+03 0.91188000E+02 0.0000E+00 0.9000E+01
        1  1    1    2  501    0 0.28603458E+02 0.40909285E+02 -.61216921E+01 0.50292195E+02 0.32000000E+00 0.0000E+00 0.9000E+01
#aMCatNLO 1  0  0  2  1 0.20436709D+03 0.00000000D+00  -5  6  0 0.00000000D+00 0.00000000D+00 0.00000000D+00 0.00000000D+00 0.00000000D+00
  <mgrwgt>
 0.7938388629D-01    3    2    0
 0.258561856015208D+03 0.000000000000000D+00 0.000000000000000D+00 0.258561856015208D+03
 0.258561856015208D+03 0.000000000000000D+00 0.000000000000000D+00 -.258561856015208D+03
 0.233036754671881D+03 0.117615985058913D+03 -.549390660153923D+02 -.147747447057403D+03
 0.182932899584993D+03 -.146219558133153D+03 0.140296168474531D+02 0.597679268256151D+02
 0.101154057773543D+03 0.286035730742402D+02 0.409094491679392D+02 0.879795202317882D+02
 0.000000000000000D+00 -.000000000000000D+00 -.000000000000000D+00 0.000000000000000D+00
 0.411521624960161D+03 0.000000000000000D+00 0.000000000000000D+00 0.411521624960161D+03
 0.335303750044860D+03 0.000000000000000D+00 0.000000000000000D+00 -.335303750044860D+03
 0.279559626408044D+03 0.200241763970343D+03 -.245461314155741D+02 -.147747447057403D+03
 0.147196272273346D+03 -.930057997591405D+02 0.336036807701132D+02 0.597679268256151D+02
 0.121803334347746D+03 0.645422352810850D+02 0.541290692967667D+02 0.879795202317882D+02
 0.198266141975886D+03 -.171778199492287D+03 -.631866186513058D+02 0.762178749153010D+02
0.330981886921D-04 0.000000000000D+00 0.000000000000D+00 0.223950960499D-06 0.000000000000D+00  6 21 1 25 23 1 21 2 0.92899931D-02 0.17032830D+00 0.40607166D+05 0.40607166D+05 0.40607166D+05 0.12013364D+01  1  2  2  2  6  2        1 0.661530701200D-01 0.100000000000D+01
0.176643514236D-05 0.174663940349D-05 -.668157069586D-07 0.223950960499D-06 0.000000000000D+00  6 21 1 25 23 1 21 4 0.92899931D-02 0.17032830D+00 0.40607166D+05 0.40607166D+05 0.40607166D+05 0.12013364D+01  1  2  3  2  6  2        1 0.509533520058D-02 0.100000000000D+01
0.282038353207D-05 0.000000000000D+00 0.000000000000D+00 0.223950960499D-06 0.000000000000D+00  6 21 1 25 23 1 21 4 0.92899931D-02 0.17032830D+00 0.40607166D+05 0.40607166D+05 0.40607166D+05 0.12013364D+01  1  2 15  2  6  2        1 0.813548097264D-02 0.100000000000D+01
  </mgrwgt>
  </event>
  <event>
  6     66 0.44737074E-03 0.72250385E+02 0.75467711E-02 0.11334716E+00
       21 -1    0    0  501  502 0.00000000E+00 0.00000000E+00 0.41493013E+02 0.41499791E+02 0.75000000E+00 0.0000E+00 0.9000E+01
        1 -1    0    0  502    0 -.00000000E+00 -.00000000E+00 -.16273800E+04 0.16273801E+04 0.32000000E+00 0.0000E+00 0.9000E+01
       25  1    1    2    0    0 -.27064057E+02 0.31542343E+02 -.26565643E+03 0.29652272E+03 0.12500000E+03 0.0000E+00 0.9000E+01
       23  1    1    2    0    0 0.70359891E+02 -.13585680E+02 -.19362143E+03 0.22569801E+03 0.91188000E+02 0.0000E+00 0.9000E+01
        1  1    1    2  503    0 0.65171031E+02 -.47367067E+02 -.73005405E+03 0.73448616E+03 0.32000000E+00 0.0000E+00 0.9000E+01
       21  1    1    2  501  503 -.10846687E+03 0.29410404E+02 -.39655512E+03 0.41217298E+03 0.75000000E+00 0.0000E+00 0.9000E+01
#aMCatNLO 2  0  0  5  1 0.41017536D+02 0.00000000D+00  -5  6  0 0.00000000D+00 0.00000000D+00 0.00000000D+00 0.00000000D+00 0.00000000D+00
  <mgrwgt>
 0.3923701682D-01    1    2    0
 0.259866472178239D+03 0.000000000000000D+00 0.000000000000000D+00 0.259866472178239D+03
 0.259866472178239D+03 -.000000000000000D+00 -.000000000000000D+00 -.259866472178239D+03
 0.157279867365285D+03 -.142525039024690D+02 0.368558505439032D+02 0.868934352620332D+02
 0.159905821000722D+03 0.829574758678469D+02 -.836091442496007D+01 0.101502574122675D+03
 0.202547255990470D+03 -.687049719653779D+02 -.284949361189431D+02 -.188396009384708D+03
 0.000000000000000D+00 0.000000000000000D+00 0.000000000000000D+00 0.000000000000000D+00
 0.259866472178239D+03 0.000000000000000D+00 0.000000000000000D+00 0.259866472178239D+03
 0.259866472178239D+03 -.000000000000000D+00 -.000000000000000D+00 -.259866472178239D+03
 0.141526365687882D+03 -.270721230086534D+02 0.315389976721199D+02 0.517407379775606D+02
 0.133903010347146D+03 0.703522592047706D+02 -.135888452908776D+02 0.669377901074815D+02
 0.130515267534891D+03 0.654597832448157D+02 -.473156151786856D+02 -.102520653516784D+03
 0.113788300786558D+03 -.108739919440933D+03 0.293654627974432D+02 -.161578745682583D+02
0.164008031999D-04 0.000000000000D+00 0.000000000000D+00 0.105844417850D-06 0.130184084013D-09  6 21 1 25 23 1 21 4 0.63840642D-02 0.25036669D+00 0.48643541D+05 0.48643541D+05 0.48643541D+05 0.11934665D+01  1  2  1  3  6  5        1 0.392370168163D-01 0.100000000000D+01
  </mgrwgt>
  </event>
  <event>
  5     66 0.44737074E-03 0.24641438E+02 0.75467711E-02 0.12141060E+00
       21 -1    0    0  501  502 0.00000000E+00 0.00000000E+00 0.92987219E+02 0.92990243E+02 0.75000000E+00 0.0000E+00 0.9000E+01
        3 -1    0    0  502    0 0.00000000E+00 0.00000000E+00 -.31083394E+03 0.31083434E+03 0.50000000E+00 0.0000E+00 0.9000E+01
       25  1    1    2    0    0 -.63778025E+02 -.26495280E+02 -.23571668E+03 0.27560296E+03 0.12500000E+03 0.0000E+00 0.9000E+01
       23  1    1    2    0    0 0.45289201E+02 0.10209505E+02 0.14559251E+02 0.10335651E+03 0.91188000E+02 0.0000E+00 0.9000E+01
        3  1    1    2  501    0 0.18488824E+02 0.16285775E+02 0.33107102E+01 0.24865113E+02 0.50000000E+00 0.0000E+00 0.9000E+01
#aMCatNLO 1  0  0  1  2 0.88663529D+01 0.00000000D+00  -5  6  0 0.00000000D+00 0.00000000D+00 0.00000000D+00 0.00000000D+00 0.00000000D+00
  <mgrwgt>
 0.2491800764D-01   32    2    0
 0.170012573568364D+03 0.000000000000000D+00 0.000000000000000D+00 0.170012573568364D+03
 0.170012573568364D+03 0.000000000000000D+00 0.000000000000000D+00 -.170012573568364D+03
 0.176297550936648D+03 -.637792210743148D+02 -.264963340790350D+02 -.103373022137238D+03
 0.132076271345140D+03 0.452883050262203D+02 0.102087158102675D+02 0.835083328644043D+02
 0.316513248549408D+02 0.184909160480945D+02 0.162876182687675D+02 0.198646892728335D+02
 0.000000000000000D+00 -.000000000000000D+00 0.000000000000000D+00 0.000000000000000D+00
 0.174933471412018D+03 0.000000000000000D+00 0.000000000000000D+00 0.174933471412018D+03
 0.174111615638967D+03 0.000000000000000D+00 0.000000000000000D+00 -.174111615638967D+03
 0.175175981465532D+03 -.596767911814474D+02 -.285363517449662D+02 -.103373022137238D+03
 0.133060036521468D+03 0.483829992629170D+02 0.866981543210550D+01 0.835083328644043D+02
 0.319047071540300D+02 0.192327476272852D+02 0.159187272538776D+02 0.198646892728335D+02
 0.890436190995496D+01 -.793895570875479D+01 0.394780905898310D+01 0.821855773051118D+00
0.209357621505D-05 0.000000000000D+00 0.000000000000D+00 0.436821639561D-06 0.000000000000D+00  6 21 3 25 23 3 21 2 0.14305990D-01 0.47820869D-01 0.18194964D+05 0.18194964D+05 0.18194964D+05 0.12383743D+01  1  2  2  1  6  1       21 0.291222890863D-02 0.100000000000D+01
0.105370064886D-06 0.110481052163D-06 -.422632719213D-08 0.436821639561D-06 0.000000000000D+00  6 21 3 25 23 3 21 4 0.14305990D-01 0.47820869D-01 0.18194964D+05 0.18194964D+05 0.18194964D+05 0.12383743D+01  1  2  3  1  6  1       21 0.224780075168D-03 0.100000000000D+01
0.225538633179D-06 0.000000000000D+00 0.000000000000D+00 0.436821639561D-06 0.000000000000D+00  6 21 3 25 23 3 21 4 0.14305990D-01 0.47820869D-01 0.18194964D+05 0.18194964D+05 0.18194964D+05 0.12383743D+01  1  2 15  1  6  1       21 0.481128971250D-03 0.100000000000D+01
0.458968631999D-05 0.000000000000D+00 0.000000000000D+00 0.434577034708D-06 0.000000000000D+00  6 21 3 25 23 3 21 4 0.14887983D-01 0.47820869D-01 0.19439078D+05 0.19439078D+05 0.19439078D+05 0.12351885D+01  1  2 12  1  6  1       21 0.903451568122D-02 0.100000000000D+01
-.751389302878D-06 0.000000000000D+00 0.000000000000D+00 0.436821639561D-06 0.000000000000D+00  6 21 3 25 23 3 21 4 0.14305990D-01 0.47820869D-01 0.18194964D+05 0.18194964D+05 0.18194964D+05 0.12383743D+01  1  2  4  1  6  1       21 -.160289683948D-02 0.100000000000D+01
-.740973819121D-04 0.000000000000D+00 -.126269074704D-04 0.436821639561D-06 0.000000000000D+00  6 21 3 25 23 3 21 4 0.15064914D-01 0.47820869D-01 0.18194964D+05 0.18194964D+05 0.18194964D+05 0.12383743D+01  1  2  5  1  6  1       21 -.144011120355D+00 0.100000000000D+01
0.743446463607D-04 0.000000000000D+00 0.125596870121D-04 0.436821639561D-06 0.000000000000D+00  6 21 3 25 23 3 21 4 0.14305990D-01 0.47820869D-01 0.18194964D+05 0.18194964D+05 0.18194964D+05 0.12383743D+01  1  2  6  1  6  1       21 0.158595282402D+00 0.100000000000D+01
0.433343093573D-09 0.000000000000D+00 0.000000000000D+00 0.436821639561D-06 0.522896629901D-07  6 21 3 25 23 3 21 4 0.14720067D-01 0.48973841D-01 0.19439078D+05 0.19439078D+05 0.19439078D+05 0.12351885D+01  1  2 11  1  6  1       21 0.830431085044D-06 0.100000000000D+01
0.828706036808D-07 0.000000000000D+00 0.000000000000D+00 0.434577034708D-06 0.000000000000D+00  6 -3 3 25 23 3 -3 4 0.14887983D-01 0.47820869D-01 0.19439078D+05 0.19439078D+05 0.19439078D+05 0.12351885D+01  1  2 12  4  6  1       21 0.739664625589D-05 0.100000000000D+01
-.779927786332D-06 0.000000000000D+00 -.156313531949D-06 0.436821639561D-06 0.000000000000D+00  6 -3 3 25 23 3 -3 4 0.15064914D-01 0.47820869D-01 0.18194964D+05 0.18194964D+05 0.18194964D+05 0.12383743D+01  1  2  5  4  6  1       21 -.686236739961D-04 0.100000000000D+01
0.177910965903D-09 0.000000000000D+00 0.000000000000D+00 0.436821639561D-06 0.188286548765D-07  6 -3 3 25 23 3 -3 4 0.14720067D-01 0.48973841D-01 0.19439078D+05 0.19439078D+05 0.19439078D+05 0.12351885D+01  1  2 11  4  6  1       21 0.154424934961D-07 0.100000000000D+01
0.828706036808D-07 0.000000000000D+00 0.000000000000D+00 0.434577034708D-06 0.000000000000D+00  6 3 3 25 23 3 3 4 0.14887983D-01 0.47820869D-01 0.19439078D+05 0.19439078D+05 0.19439078D+05 0.12351885D+01  1  2 12  5  6  1       21 0.739573776138D-05 0.100000000000D+01
-.779927786332D-06 0.000000000000D+00 -.156313531949D-06 0.436821639561D-06 0.000000000000D+00  6 3 3 25 23 3 3 4 0.15064914D-01 0.47820869D-01 0.18194964D+05 0.18194964D+05 0.18194964D+05 0.12383743D+01  1  2  5  5  6  1       21 -.686152187276D-04 0.100000000000D+01
0.226758424379D-10 0.000000000000D+00 0.000000000000D+00 0.436821639561D-06 0.319354185033D-09  6 3 3 25 23 3 3 4 0.14720067D-01 0.48973841D-01 0.19439078D+05 0.19439078D+05 0.19439078D+05 0.12351885D+01  1  2 11  5  6  1       21 0.196799755005D-08 0.100000000000D+01
0.828706036808D-07 0.000000000000D+00 0.000000000000D+00 0.434577034708D-06 0.000000000000D+00  6 -2 3 25 23 3 -2 4 0.14887983D-01 0.47820869D-01 0.19439078D+05 0.19439078D+05 0.19439078D+05 0.12351885D+01  1  2 12  6  6  1       21 0.111012467974D-04 0.100000000000D+01
0.828706036808D-07 0.000000000000D+00 0.000000000000D+00 0.434577034708D-06 0.000000000000D+00  6 -4 3 25 23 3 -4 4 0.14887983D-01 0.47820869D-01 0.19439078D+05 0.19439078D+05 0.19439078D+05 0.12351885D+01  1  2 12  6  6  1       21 0.637214815971D-05 0.100000000000D+01
-.779927786332D-06 0.000000000000D+00 -.156313531949D-06 0.436821639561D-06 0.000000000000D+00  6 -2 3 25 23 3 -2 4 0.15064914D-01 0.47820869D-01 0.18194964D+05 0.18194964D+05 0.18194964D+05 0.12383743D+01  1  2  5  6  6  1       21 -.103242930160D-03 0.100000000000D+01
-.779927786332D-06 0.000000000000D+00 -.156313531949D-06 0.436821639561D-06 0.000000000000D+00  6 -4 3 25 23 3 -4 4 0.15064914D-01 0.47820869D-01 0.18194964D+05 0.18194964D+05 0.18194964D+05 0.12383743D+01  1  2  5  6  6  1       21 -.590515786715D-04 0.100000000000D+01
0.224858666629D-10 0.000000000000D+00 0.000000000000D+00 0.436821639561D-06 0.283238271410D-09  6 -2 3 25 23 3 -2 4 0.14720067D-01 0.48973841D-01 0.19439078D+05 0.19439078D+05 0.19439078D+05 0.12351885D+01  1  2 11  6  6  1       21 0.292673924562D-08 0.100000000000D+01
0.224858666629D-10 0.000000000000D+00 0.000000000000D+00 0.436821639561D-06 0.283238271410D-09  6 -4 3 25 23 3 -4 4 0.14720067D-01 0.48973841D-01 0.19439078D+05 0.19439078D+05 0.19439078D+05 0.12351885D+01  1  2 11  6  6  1       21 0.168209735835D-08 0.100000000000D+01
0.828706036808D-07 0.000000000000D+00 0.000000000000D+00 0.434577034708D-06 0.000000000000D+00  6 2 3 25 23 3 2 4 0.14887983D-01 0.47820869D-01 0.19439078D+05 0.19439078D+05 0.19439078D+05 0.12351885D+01  1  2 12  7  6  1       21 0.194018252513D-04 0.100000000000D+01
0.828706036808D-07 0.000000000000D+00 0.000000000000D+00 0.434577034708D-06 0.000000000000D+00  6 4 3 25 23 3 4 4 0.14887983D-01 0.47820869D-01 0.19439078D+05 0.19439078D+05 0.19439078D+05 0.12351885D+01  1  2 12  7  6  1       21 0.637214815971D-05 0.100000000000D+01
-.779927786332D-06 0.000000000000D+00 -.156313531949D-06 0.436821639561D-06 0.000000000000D+00  6 2 3 25 23 3 2 4 0.15064914D-01 0.47820869D-01 0.18194964D+05 0.18194964D+05 0.18194964D+05 0.12383743D+01  1  2  5  7  6  1       21 -.181443535765D-03 0.100000000000D+01
-.779927786332D-06 0.000000000000D+00 -.156313531949D-06 0.436821639561D-06 0.000000000000D+00  6 4 3 25 23 3 4 4 0.15064914D-01 0.47820869D-01 0.18194964D+05 0.18194964D+05 0.18194964D+05 0.12383743D+01  1  2  5  7  6  1       21 -.590515786715D-04 0.100000000000D+01
0.237116004095D-10 0.000000000000D+00 0.000000000000D+00 0.436821639561D-06 0.298677956827D-09  6 2 3 25 23 3 2 4 0.14720067D-01 0.48973841D-01 0.19439078D+05 0.19439078D+05 0.19439078D+05 0.12351885D+01  1  2 11  7  6  1       21 0.536591710046D-08 0.100000000000D+01
0.237116004095D-10 0.000000000000D+00 0.000000000000D+00 0.436821639561D-06 0.298677956827D-09  6 4 3 25 23 3 4 4 0.14720067D-01 0.48973841D-01 0.19439078D+05 0.19439078D+05 0.19439078D+05 0.12351885D+01  1  2 11  7  6  1       21 0.177379066634D-08 0.100000000000D+01
0.828706036808D-07 0.000000000000D+00 0.000000000000D+00 0.434577034708D-06 0.000000000000D+00  6 -1 3 25 23 3 -1 4 0.14887983D-01 0.47820869D-01 0.19439078D+05 0.19439078D+05 0.19439078D+05 0.12351885D+01  1  2 12  8  6  1       21 0.118696651064D-04 0.100000000000D+01
-.779927786332D-06 0.000000000000D+00 -.156313531949D-06 0.436821639561D-06 0.000000000000D+00  6 -1 3 25 23 3 -1 4 0.15064914D-01 0.47820869D-01 0.18194964D+05 0.18194964D+05 0.18194964D+05 0.12383743D+01  1  2  5  8  6  1       21 -.110481976100D-03 0.100000000000D+01
0.268389783925D-10 0.000000000000D+00 0.000000000000D+00 0.436821639561D-06 0.338071285411D-09  6 -1 3 25 23 3 -1 4 0.14720067D-01 0.48973841D-01 0.19439078D+05 0.19439078D+05 0.19439078D+05 0.12351885D+01  1  2 11  8  6  1       21 0.373234586393D-08 0.100000000000D+01
0.828706036808D-07 0.000000000000D+00 0.000000000000D+00 0.434577034708D-06 0.000000000000D+00  6 1 3 25 23 3 1 4 0.14887983D-01 0.47820869D-01 0.19439078D+05 0.19439078D+05 0.19439078D+05 0.12351885D+01  1  2 12  9  6  1       21 0.163309324427D-04 0.100000000000D+01
-.779927786332D-06 0.000000000000D+00 -.156313531949D-06 0.436821639561D-06 0.000000000000D+00  6 1 3 25 23 3 1 4 0.15064914D-01 0.47820869D-01 0.18194964D+05 0.18194964D+05 0.18194964D+05 0.12383743D+01  1  2  5  9  6  1       21 -.152509097459D-03 0.100000000000D+01
0.247215629745D-10 0.000000000000D+00 0.000000000000D+00 0.436821639561D-06 0.311399728035D-09  6 1 3 25 23 3 1 4 0.14720067D-01 0.48973841D-01 0.19439078D+05 0.19439078D+05 0.19439078D+05 0.12351885D+01  1  2 11  9  6  1       21 0.471556146099D-08 0.100000000000D+01
  </mgrwgt>
  </event>
  <event>
  6     66 0.44737074E-03 0.25442324E+03 0.75467711E-02 0.99068686E-01
       21 -1    0    0  501  502 0.00000000E+00 0.00000000E+00 0.36765201E+03 0.36765277E+03 0.75000000E+00 0.0000E+00 0.9000E+01
       21 -1    0    0  502  503 0.00000000E+00 0.00000000E+00 -.14756252E+04 0.14756253E+04 0.75000000E+00 0.0000E+00 0.9000E+01
       25  1    1    2    0    0 -.47127414E+02 0.13519195E+02 0.33738260E+02 0.13844505E+03 0.12500000E+03 0.0000E+00 0.9000E+01
       23  1    1    2    0    0 0.80507608E+02 -.20657972E+02 -.23723932E+03 0.26740601E+03 0.91188000E+02 0.0000E+00 0.9000E+01
        3  1    1    2  501    0 -.42661263E+03 -.22702988E+03 -.73589446E+02 0.48883183E+03 0.50000000E+00 0.0000E+00 0.9000E+01
       -3  1    1    2    0  503 0.39323243E+03 0.23416865E+03 -.83088264E+03 0.94859523E+03 0.50000000E+00 0.0000E+00 0.9000E+01
#aMCatNLO 2  0  0  2  1 0.32844581D+02 0.00000000D+00  -5  6  0 0.00000000D+00 0.00000000D+00 0.00000000D+00 0.00000000D+00 0.00000000D+00
  <mgrwgt>
 0.5589897783D-03    1    2    0
 0.358542749720455D+03 0.000000000000000D+00 0.000000000000000D+00 0.358542749720455D+03
 0.358542749720455D+03 0.000000000000000D+00 0.000000000000000D+00 -.358542749720455D+03
 0.164341248751655D+03 0.333699890964949D+02 0.614551303090451D+02 0.805776447139745D+02
 0.279363731066566D+03 0.201735533870419D+03 0.515328511588256D+02 -.162406842580268D+03
 0.273380519622688D+03 -.235105522966914D+03 -.112987981467871D+03 0.818291978662932D+02
 0.000000000000000D+00 0.000000000000000D+00 0.000000000000000D+00 -.000000000000000D+00
 0.506417021392832D+03 0.000000000000000D+00 0.000000000000000D+00 0.506417021392832D+03
 0.107128561392022D+04 0.000000000000000D+00 0.000000000000000D+00 -.107128561392022D+04
 0.156593457363736D+03 -.471273186095095D+02 0.135192419223357D+02 0.805776447139745D+02
 0.203959491890844D+03 0.805077032291555D+02 -.206579329131870D+02 -.162406842580268D+03
 0.490139897444528D+03 -.426612819564429D+03 -.227029961958284D+03 0.818291978662932D+02
 0.727009788613938D+03 0.393232434944783D+03 0.234168652949135D+03 -.564868592527384D+03
0.179822047900D-04 0.000000000000D+00 0.000000000000D+00 0.441818248593D-07 0.724833768490D-12  6 21 21 25 23 3 -3 4 0.56561913D-01 0.22701929D+00 0.35915506D+06 0.35915506D+06 0.35915506D+06 0.11157660D+01  1  2  1 10  6  2        3 0.558989778330D-03 0.100000000000D+01
  </mgrwgt>
  </event>
  <event>
  6     66 0.44737074E-03 0.16791124E+03 0.75467711E-02 0.10954503E+00
       21 -1    0    0  501  502 0.00000000E+00 0.00000000E+00 0.69001455E+02 0.69005531E+02 0.75000000E+00 0.0000E+00 0.9000E+01
        1 -1    0    0  502    0 -.00000000E+00 -.00000000E+00 -.12403588E+04 0.12403588E+04 0.32000000E+00 0.0000E+00 0.9000E+01
       25  1    1    2    0    0 0.55461502E+02 0.21913742E+03 -.37286288E+03 0.45359554E+03 0.12500000E+03 0.0000E+00 0.9000E+01
       23  1    1    2    0    0 -.71190626E+02 -.48245175E+02 -.25740804E+03 0.28630378E+03 0.91188000E+02 0.0000E+00 0.9000E+01
        1  1    1    2  503    0 -.65074913E+01 -.18136158E+01 -.26848008E+02 0.27686722E+02 0.32000000E+00 0.0000E+00 0.9000E+01
       21  1    1    2  501  503 0.22236615E+02 -.16907863E+03 -.51423842E+03 0.54177834E+03 0.75000000E+00 0.0000E+00 0.9000E+01
#aMCatNLO 2  0  0  5  1 0.69163851D+01 0.00000000D+00  -5  6  0 0.00000000D+00 0.00000000D+00 0.00000000D+00 0.00000000D+00 0.00000000D+00
  <mgrwgt>
 0.4302368108D-02    2    2    0
 0.292556417094114D+03 0.000000000000000D+00 0.000000000000000D+00 0.292556417094114D+03
 0.292556417094114D+03 -.000000000000000D+00 -.000000000000000D+00 -.292556417094114D+03
 0.270738189914144D+03 0.552465467280901D+02 0.221472845677966D+03 0.746442575146415D+02
 0.125010290874728D+03 -.712904171668250D+02 -.471609754918431D+02 -.241666948958098D+01
 0.189364353399357D+03 0.160438704387349D+02 -.174311870186123D+03 -.722275880250605D+02
 0.000000000000000D+00 0.000000000000000D+00 0.000000000000000D+00 0.000000000000000D+00
 0.292556417094114D+03 0.000000000000000D+00 0.000000000000000D+00 0.292556417094114D+03
 0.292556417094114D+03 -.000000000000000D+00 -.000000000000000D+00 -.292556417094114D+03
 0.268839516532717D+03 0.554381328665735D+02 0.219391319388639D+03 0.737817596071365D+02
 0.125335653244278D+03 -.712015276294225D+02 -.481267338207805D+02 -.281683956772761D+01
 0.740852377912194D+01 -.585938441214652D+01 -.167871917431914D+01 -.421138229448280D+01
 0.183529140632111D+03 0.216227791749955D+02 -.169585866393540D+03 -.667535377449261D+02
-.206902906591D-05 0.000000000000D+00 0.000000000000D+00 0.324771262658D-07 0.000000000000D+00  6 21 1 25 23 1 21 4 0.10615925D-01 0.19082475D+00 0.78645112D+05 0.78645112D+05 0.78645112D+05 0.11732789D+01  1  2 13  3  6  5        1 -.338348213860D-02 0.100000000000D+01
0.469996497813D-05 0.000000000000D+00 0.000000000000D+00 0.324819310381D-07 0.175470235877D-09  6 21 1 25 23 1 21 4 0.10615925D-01 0.19082475D+00 0.78645112D+05 0.78645112D+05 0.78645112D+05 0.11732789D+01  1  2  1  3  6  5        1 0.768585024616D-02 0.100000000000D+01
  </mgrwgt>
  </event>
  <event>
  6     66 -.44737074E-03 0.98296126E+02 0.75467711E-02 0.11437167E+00
       21 -1    0    0  503  502 0.00000000E+00 0.00000000E+00 0.85332536E+02 0.85335832E+02 0.75000000E+00 0.0000E+00 0.9000E+01
        3 -1    0    0  502    0 0.00000000E+00 0.00000000E+00 -.55303300E+03 0.55303323E+03 0.50000000E+00 0.0000E+00 0.9000E+01
       25  1    1    2    0    0 -.42088883E+02 0.91262952E+02 -.21741212E+03 0.27017296E+03 0.12500000E+03 0.0000E+00 0.9000E+01
       23  1    1    2    0    0 0.99141674E+02 0.13039794E+02 -.17376987E+03 0.22025060E+03 0.91188000E+02 0.0000E+00 0.9000E+01
        3  1    1    2  501    0 -.29891501E+02 -.53749112E+02 -.13998636E+02 0.63076784E+02 0.50000000E+00 0.0000E+00 0.9000E+01
       21  1    1    2  503  501 -.27161290E+02 -.50553633E+02 -.62519847E+02 0.84868718E+02 0.75000000E+00 0.0000E+00 0.9000E+01
#aMCatNLO 2  0  0  1  2 0.57388200D+02 0.00000000D+00  -5  6  0 0.00000000D+00 0.00000000D+00 0.00000000D+00 0.00000000D+00 0.00000000D+00
  <mgrwgt>
 -.2139290660D-02    2    2    0
 0.186345036339576D+03 0.000000000000000D+00 0.000000000000000D+00 0.186345036339576D+03
 0.186345036339576D+03 0.000000000000000D+00 0.000000000000000D+00 -.186345036339576D+03
 0.155569556984953D+03 -.536277231994803D+02 0.697864089114808D+02 -.288238008627268D+02
 0.129192159355514D+03 0.895141394425766D+02 -.487935341406614D+01 -.184057992235076D+02
 0.879283563386856D+02 -.358864162430963D+02 -.649070554974147D+02 0.472296000862344D+02
 0.000000000000000D+00 -.000000000000000D+00 -.000000000000000D+00 -.000000000000000D+00
 0.216948332549286D+03 0.000000000000000D+00 0.000000000000000D+00 0.216948332549286D+03
 0.217525379907349D+03 0.000000000000000D+00 0.000000000000000D+00 -.217525379907349D+03
 0.162960962973658D+03 -.420886259068257D+02 0.912634183361715D+02 -.288238008627268D+02
 0.136576665275528D+03 0.991418897918070D+02 0.130401839418253D+02 -.184057992235076D+02
 0.775449830934901D+02 -.298919735024244D+02 -.537499692911018D+02 0.472296000862344D+02
 0.573911011139594D+02 -.271612903825570D+02 -.505536329868950D+02 -.577047358063153D+00
-.266028237552D-05 0.000000000000D+00 0.000000000000D+00 0.212472571621D-06 0.000000000000D+00  6 21 3 25 23 3 21 4 0.13926520D-01 0.72885657D-01 0.42976048D+05 0.42976048D+05 0.42976048D+05 0.11988481D+01  1  2 13  1  6  1       21 -.222813379101D-02 0.100000000000D+01
0.133599179069D-06 0.000000000000D+00 0.000000000000D+00 0.217408330861D-06 0.873717818047D-09  6 21 3 25 23 3 21 4 0.13128205D-01 0.85081312D-01 0.42976048D+05 0.42976048D+05 0.42976048D+05 0.11988481D+01  1  2  1  1  6  1       21 0.888431314663D-04 0.100000000000D+01
  </mgrwgt>
  </event>
  <event>
  5     66 -.44737074E-03 0.38873142E+02 0.75467711E-02 0.11687263E+00
       21 -1    0    0  501  502 0.00000000E+00 0.00000000E+00 0.48631901E+02 0.48637684E+02 0.75000000E+00 0.0000E+00 0.9000E+01
        1 -1    0    0  502    0 -.00000000E+00 -.00000000E+00 -.68521651E+03 0.68521658E+03 0.32000000E+00 0.0000E+00 0.9000E+01
       25  1    1    2    0    0 0.96928565E+02 -.93210670E+02 -.27284297E+03 0.32886420E+03 0.12500000E+03 0.0000E+00 0.9000E+01
       23  1    1    2    0    0 -.89505329E+02 0.55054071E+02 -.28878481E+03 0.32055276E+03 0.91188000E+02 0.0000E+00 0.9000E+01
        1  1    1    2  501    0 -.74232364E+01 0.38156598E+02 -.74956831E+02 0.84437310E+02 0.32000000E+00 0.0000E+00 0.9000E+01
#aMCatNLO 1  0  0  5  1 0.76065309D+01 0.00000000D+00  -5  6  0 0.00000000D+00 0.00000000D+00 0.00000000D+00 0.00000000D+00 0.00000000D+00
  <mgrwgt>
 -.2924856046D+00    8    2    0
 0.182552816981247D+03 0.000000000000000D+00 0.000000000000000D+00 0.182552816981247D+03
 0.182552816981247D+03 -.000000000000000D+00 -.000000000000000D+00 -.182552816981247D+03
 0.185291329636719D+03 0.969286916145182D+02 -.932113206504416D+02 0.249871023338350D+02
 0.140789257708007D+03 -.895052322775165D+02 0.550535766293543D+02 -.215471770131337D+02
 0.390250466177678D+02 -.742345933700173D+01 0.381577440210874D+02 -.343992532070129D+01
 0.000000000000000D+00 0.000000000000000D+00 0.000000000000000D+00 0.000000000000000D+00
 0.182552816981247D+03 0.000000000000000D+00 0.000000000000000D+00 0.182552816981247D+03
 0.182552816981247D+03 -.000000000000000D+00 -.000000000000000D+00 -.182552816981247D+03
 0.184061101396111D+03 0.965384824949772D+02 -.912055846421730D+02 0.248062849857844D+02
 0.141606111301959D+03 -.898035740211886D+02 0.565870999328499D+02 -.216854243277198D+02
 0.111691180649139D+02 -.387922958783934D+01 0.689941999023911D+01 -.788027791077866D+01
 0.282693031995106D+02 -.285567888594924D+01 0.277190647190841D+02 0.475941725271406D+01
0.851979384031D-05 0.000000000000D+00 0.000000000000D+00 0.161117900326D-06 0.000000000000D+00  6 21 1 25 23 1 21 2 0.74822816D-02 0.10541838D+00 0.32689107D+05 0.32689107D+05 0.32689107D+05 0.12110049D+01  1  2  2  3  6  5        1 0.545765014841D-01 0.100000000000D+01
0.590039952324D-07 0.449601873067D-06 -.171990091022D-07 0.161117900326D-06 0.000000000000D+00  6 21 1 25 23 1 21 4 0.74822816D-02 0.10541838D+00 0.32689107D+05 0.32689107D+05 0.32689107D+05 0.12110049D+01  1  2  3  3  6  5        1 0.554306317118D-03 0.100000000000D+01
0.825007692518D-06 0.000000000000D+00 0.000000000000D+00 0.161117900326D-06 0.000000000000D+00  6 21 1 25 23 1 21 4 0.74822816D-02 0.10541838D+00 0.32689107D+05 0.32689107D+05 0.32689107D+05 0.12110049D+01  1  2 15  3  6  5        1 0.775044086138D-02 0.100000000000D+01
0.285415727393D-05 0.000000000000D+00 0.000000000000D+00 0.161352115816D-06 0.000000000000D+00  6 21 1 25 23 1 21 4 0.74822816D-02 0.10541838D+00 0.32058659D+05 0.32058659D+05 0.32058659D+05 0.12118848D+01  1  2 12  3  6  5        1 0.268937988550D-01 0.100000000000D+01
-.460732935115D-04 0.000000000000D+00 0.000000000000D+00 0.161117900326D-06 0.000000000000D+00  6 21 1 25 23 1 21 4 0.74822816D-02 0.10541838D+00 0.32689107D+05 0.32689107D+05 0.32689107D+05 0.12110049D+01  1  2  4  3  6  5        1 -.432830311630D+00 0.100000000000D+01
-.263658418194D-05 0.000000000000D+00 0.000000000000D+00 0.161117900326D-06 0.000000000000D+00  6 21 1 25 23 1 21 4 0.74822816D-02 0.10541838D+00 0.32689107D+05 0.32689107D+05 0.32689107D+05 0.12110049D+01  1  2  5  3  6  5        1 -.247690899897D-01 0.100000000000D+01
0.791741031172D-05 0.000000000000D+00 -.000000000000D+00 0.161117900326D-06 0.000000000000D+00  6 21 1 25 23 1 21 4 0.74822816D-02 0.10541838D+00 0.32689107D+05 0.32689107D+05 0.32689107D+05 0.12110049D+01  1  2  6  3  6  5        1 0.743792099793D-01 0.100000000000D+01
0.101833017633D-06 0.000000000000D+00 0.000000000000D+00 0.161117900326D-06 0.928255015534D-08  6 21 1 25 23 1 21 4 0.74822816D-02 0.10541838D+00 0.32058659D+05 0.32058659D+05 0.32058659D+05 0.12118848D+01  1  2 11  3  6  5        1 0.959539517329D-03 0.100000000000D+01
  </mgrwgt>
  </event>
  <event>
  5     66 0.44737074E-03 0.20586931E+02 0.75467711E-02 0.12043789E+00
       21 -1    0    0  501  502 0.00000000E+00 0.00000000E+00 0.80510717E+01 0.80859295E+01 0.75000000E+00 0.0000E+00 0.9000E+01
        1 -1    0    0  502    0 0.00000000E+00 0.00000000E+00 -.29278374E+04 0.29278375E+04 0.32000000E+00 0.0000E+00 0.9000E+01
       25  1    1    2    0    0 0.77900474E+02 -.39658254E+02 -.11505540E+04 0.11606209E+04 0.12500000E+03 0.0000E+00 0.9000E+01
       23  1    1    2    0    0 -.57316107E+02 0.39933388E+02 -.11488106E+04 0.11545392E+04 0.91188000E+02 0.0000E+00 0.9000E+01
        1  1    1    2  501    0 -.20584367E+02 -.27513383E+00 -.62042175E+03 0.62076328E+03 0.32000000E+00 0.0000E+00 0.9000E+01
#aMCatNLO 1  0  0  2  1 0.59013129D+01 0.00000000D+00  -5  6  0 0.00000000D+00 0.00000000D+00 0.00000000D+00 0.00000000D+00 0.00000000D+00
  <mgrwgt>
 0.1367872503D+00    8    2    0
 0.153699136025191D+03 0.000000000000000D+00 0.000000000000000D+00 0.153699136025191D+03
 0.153699136025191D+03 0.000000000000000D+00 0.000000000000000D+00 -.153699136025191D+03
 0.156546519658910D+03 0.779008922881673D+02 -.396582488541684D+02 0.352205493404886D+02
 0.115020731051788D+03 -.573158000247116D+02 0.399333923742557D+02 -.589410457141893D+01
 0.358310213396844D+02 -.205850922634556D+02 -.275143520087257D+00 -.293264447690696D+02
 0.000000000000000D+00 -.000000000000000D+00 -.000000000000000D+00 0.000000000000000D+00
 0.157130327088585D+03 0.000000000000000D+00 0.000000000000000D+00 0.157130327088585D+03
 0.156285993889852D+03 0.000000000000000D+00 0.000000000000000D+00 -.156285993889852D+03
 0.157319691473287D+03 0.803165241046123D+02 -.378583436663260D+02 0.352205493404886D+02
 0.114617643774571D+03 -.555484171563670D+02 0.412502824615533D+02 -.589410457141893D+01
 0.355175771431412D+02 -.200359667493324D+02 0.134013974411030D+00 -.293264447690696D+02
 0.596140858743713D+01 -.473214019891289D+01 -.352595276963829D+01 0.844333198732497D+00
0.110078149862D-04 0.000000000000D+00 0.000000000000D+00 0.184151038048D-06 0.000000000000D+00  6 21 1 25 23 1 21 2 0.12413091D-02 0.45043921D+00 0.20734499D+05 0.20734499D+05 0.20734499D+05 0.12321053D+01  1  2  2  2  6  2        1 0.426115203779D-01 0.100000000000D+01
-.494318960333D-06 0.580898356100D-06 -.222216069650D-07 0.184151038048D-06 0.000000000000D+00  6 21 1 25 23 1 21 4 0.12413091D-02 0.45043921D+00 0.20734499D+05 0.20734499D+05 0.20734499D+05 0.12321053D+01  1  2  3  2  6  2        1 -.290488443756D-02 0.100000000000D+01
0.962448442885D-06 0.000000000000D+00 0.000000000000D+00 0.184151038048D-06 0.000000000000D+00  6 21 1 25 23 1 21 4 0.12413091D-02 0.45043921D+00 0.20734499D+05 0.20734499D+05 0.20734499D+05 0.12321053D+01  1  2 15  2  6  2        1 0.565586539875D-02 0.100000000000D+01
0.245177218089D-04 0.000000000000D+00 0.000000000000D+00 0.183591045329D-06 0.000000000000D+00  6 21 1 25 23 1 21 4 0.12413091D-02 0.46295134D+00 0.21569352D+05 0.21569352D+05 0.21569352D+05 0.12302305D+01  1  2 12  2  6  2        1 0.125805258240D+00 0.100000000000D+01
-.115164835978D-04 0.000000000000D+00 0.000000000000D+00 0.184151038048D-06 0.000000000000D+00  6 21 1 25 23 1 21 4 0.12413091D-02 0.45043921D+00 0.20734499D+05 0.20734499D+05 0.20734499D+05 0.12321053D+01  1  2  4  2  6  2        1 -.676770600829D-01 0.100000000000D+01
0.601030502434D-05 0.000000000000D+00 0.000000000000D+00 0.184151038048D-06 0.117472383917D-06  6 21 1 25 23 1 21 4 0.12690202D-02 0.45802040D+00 0.21569352D+05 0.21569352D+05 0.21569352D+05 0.12302305D+01  1  2 11  2  6  2        1 0.313265512906D-01 0.100000000000D+01
0.442124782334D-06 0.000000000000D+00 0.000000000000D+00 0.183591045329D-06 0.000000000000D+00  6 21 21 25 23 1 -1 4 0.12413091D-02 0.46295134D+00 0.21569352D+05 0.21569352D+05 0.21569352D+05 0.12302305D+01  1  2 12 10  6  2        1 0.984487282553D-03 0.100000000000D+01
0.425008369807D-06 0.000000000000D+00 0.000000000000D+00 0.183591045329D-06 0.133785263611D-08  6 21 21 25 23 1 -1 4 0.12690202D-02 0.45802040D+00 0.21569352D+05 0.21569352D+05 0.21569352D+05 0.12302305D+01  1  2 11 10  6  2        1 0.985512182680D-03 0.100000000000D+01
  </mgrwgt>
  </event>
</LesHouchesEvents>
