<event>
 5    0  0.1911311E+001  0.2519603E+03  0.7546771E-02  0.1112072E+00
         21   -1    0    0  504  501  0.00000000000E+00  0.00000000000E+00  0.34353512596E+03  0.34353512596E+03  0.00000000000E+00 0. -1.
         21   -1    0    0  503  502 -0.00000000000E+00 -0.00000000000E+00 -0.37837597104E+03  0.37837597104E+03  0.00000000000E+00 0. -1.
         25    1    1    2    0    0  0.15014723025E+03  0.21572625443E+03 -0.13655306340E+03  0.32148677535E+03  0.12500000000E+03 0.  0.
         21    1    1    2  503  501 -0.95478911779E+02 -0.10933319594E+02 -0.77023910782E+02  0.12316023264E+03  0.00000000000E+00 0. -1.
         21    1    1    2  504  502 -0.54668318473E+02 -0.20479293483E+03  0.17873612911E+03  0.27726408901E+03  0.00000000000E+00 0. -1.
<mgrwt>
<rscale>  4 0.25196035E+03</rscale>
<asrwt>0</asrwt>
<pdfrwt beam="1">  1       21 0.52851558E-01 0.25196035E+03</pdfrwt>
<pdfrwt beam="2">  1       21 0.58211688E-01 0.25196035E+03</pdfrwt>
<totfact> 0.90349565E+03</totfact>
</mgrwt>
</event>
<event>
 5    0  0.1911311E+001  0.2506754E+03  0.7546771E-02  0.1112879E+00
         21   -1    0    0  502  501  0.00000000000E+00  0.00000000000E+00  0.80255438294E+03  0.80255438294E+03  0.00000000000E+00 0.  1.
         21   -1    0    0  504  502 -0.00000000000E+00 -0.00000000000E+00 -0.29365062407E+04  0.29365062407E+04  0.00000000000E+00 0.  1.
         25    1    1    2    0    0 -0.28435195681E+02  0.25054133102E+03 -0.19053169484E+04  0.19259899254E+04  0.12500000000E+03 0.  0.
         21    1    1    2  503  501 -0.23369549931E+01 -0.21701742809E+03  0.77682964109E+03  0.80657691309E+03  0.00000000000E+00 0.  1.
         21    1    1    2  504  503  0.30772150674E+02 -0.33523902929E+02 -0.10054645505E+04  0.10064937852E+04  0.00000000000E+00 0. -1.
<mgrwt>
<rscale>  4 0.25067538E+03</rscale>
<asrwt>0</asrwt>
<pdfrwt beam="1">  1       21 0.12346990E+00 0.25067538E+03</pdfrwt>
<pdfrwt beam="2">  1       21 0.45177019E+00 0.25067538E+03</pdfrwt>
<totfact> 0.17641258E+00</totfact>
</mgrwt>
</event>
<event>
 5    0  0.1911311E+001  0.3121925E+03  0.7546771E-02  0.1079300E+00
         21   -1    0    0  502  501  0.00000000000E+00  0.00000000000E+00  0.15444270504E+04  0.15444270504E+04  0.00000000000E+00 0.  1.
         21   -1    0    0  504  502 -0.00000000000E+00 -0.00000000000E+00 -0.11186340219E+03  0.11186340219E+03  0.00000000000E+00 0.  1.
         25    1    1    2    0    0  0.27981022195E+03 -0.19325312165E+03  0.47121096819E+03  0.59439490734E+03  0.12500000000E+03 0.  0.
         21    1    1    2  503  501 -0.63739460396E+02  0.63131985702E+02  0.67233971483E+03  0.67829864999E+03  0.00000000000E+00 0.  1.
         21    1    1    2  504  503 -0.21607076155E+03  0.13012113595E+03  0.28901296521E+03  0.38359689529E+03  0.00000000000E+00 0.  1.
<mgrwt>
<rscale>  4 0.31219249E+03</rscale>
<asrwt>0</asrwt>
<pdfrwt beam="1">  1       21 0.23760414E+00 0.31219249E+03</pdfrwt>
<pdfrwt beam="2">  1       21 0.17209755E-01 0.31219249E+03</pdfrwt>
<totfact> 0.21654087E+03</totfact>
</mgrwt>
</event>
<event>
 5    0  0.1911311E+001  0.2501922E+03  0.7546771E-02  0.1113183E+00
         21   -1    0    0  504  501  0.00000000000E+00  0.00000000000E+00  0.27220186916E+03  0.27220186916E+03  0.00000000000E+00 0.  1.
         21   -1    0    0  503  502 -0.00000000000E+00 -0.00000000000E+00 -0.35984218570E+03  0.35984218570E+03  0.00000000000E+00 0.  1.
         25    1    1    2    0    0  0.23477344840E+02 -0.23052765123E+03 -0.18258319282E+03  0.32039944757E+03  0.12500000000E+03 0.  0.
         21    1    1    2  503  501 -0.23517118352E+02  0.16992533656E+02 -0.47001863419E+02  0.55235642664E+02  0.00000000000E+00 0.  1.
         21    1    1    2  504  502  0.39773511530E-01  0.21353511757E+03  0.14194473970E+03  0.25640896464E+03  0.00000000000E+00 0.  1.
<mgrwt>
<rscale>  4 0.25019224E+03</rscale>
<asrwt>0</asrwt>
<pdfrwt beam="1">  1       21 0.41877211E-01 0.25019224E+03</pdfrwt>
<pdfrwt beam="2">  1       21 0.55360336E-01 0.25019224E+03</pdfrwt>
<totfact> 0.16343242E+04</totfact>
</mgrwt>
</event>
<event>
 5    0  0.4690662E+001  0.2960216E+03  0.7546771E-02  0.1087246E+00
         21   -1    0    0  504  501  0.00000000000E+00  0.00000000000E+00  0.14148895794E+03  0.14148895794E+03  0.00000000000E+00 0. -1.
         21   -1    0    0  503  502 -0.00000000000E+00 -0.00000000000E+00 -0.66789466924E+03  0.66789466924E+03  0.00000000000E+00 0. -1.
         25    1    1    2    0    0  0.20484858026E+03 -0.17658430634E+03 -0.23499638563E+03  0.37946443751E+03  0.12500000000E+03 0.  0.
         21    1    1    2  503  501 -0.18602133730E+03  0.19194582381E+03 -0.30209757745E+03  0.40337337978E+03  0.00000000000E+00 0. -1.
         21    1    1    2  504  502 -0.18827242956E+02 -0.15361517475E+02  0.10688251789E+02  0.26545809891E+02  0.00000000000E+00 0.  1.
<mgrwt>
<rscale>  4 0.29602161E+03</rscale>
<asrwt>0</asrwt>
<pdfrwt beam="1">  1       21 0.21767532E-01 0.29602161E+03</pdfrwt>
<pdfrwt beam="2">  1       21 0.10275303E+00 0.29602161E+03</pdfrwt>
<totfact> 0.14319759E+04</totfact>
</mgrwt>
</event>
