<event>
 5    0  0.1911311E+001  0.3506509E+03  0.7546771E-02  0.1062348E+00
         21   -1    0    0  504  501  0.00000000000E+00  0.00000000000E+00  0.10315131469E+04  0.10315131469E+04  0.00000000000E+00 0. -1.
         21   -1    0    0  503  502 -0.00000000000E+00 -0.00000000000E+00 -0.21573652419E+03  0.21573652419E+03  0.00000000000E+00 0.  1.
         25    1    1    2    0    0  0.63433908902E+02  0.31496693971E+03  0.62205953207E+03  0.71120397591E+03  0.12500000000E+03 0.  0.
         21    1    1    2  503  501 -0.11558483572E+03 -0.30904514108E+03 -0.55326001391E+01  0.32999903506E+03  0.00000000000E+00 0.  1.
         21    1    1    2  504  502  0.52150926819E+02 -0.59217986250E+01  0.19924969075E+03  0.20604666008E+03  0.00000000000E+00 0.  1.
<mgrwt>
<rscale>  4 0.35065088E+03</rscale>
<asrwt>0</asrwt>
<pdfrwt beam="1">  1       21 0.15869433E+00 0.35065088E+03</pdfrwt>
<pdfrwt beam="2">  1       21 0.33190235E-01 0.35065088E+03</pdfrwt>
<totfact> 0.20100973E+03</totfact>
</mgrwt>
</event>
<event>
 5    0  0.2592388E+001  0.2924773E+03  0.7546771E-02  0.1089063E+00
         21   -1    0    0  502  501  0.00000000000E+00  0.00000000000E+00  0.23472306932E+03  0.23472306932E+03  0.00000000000E+00 0. -1.
         21   -1    0    0  504  502 -0.00000000000E+00 -0.00000000000E+00 -0.85403723590E+03  0.85403723590E+03  0.00000000000E+00 0. -1.
         25    1    1    2    0    0  0.27423906162E+03  0.34337499190E+02 -0.66020242577E+03  0.72655238611E+03  0.12500000000E+03 0.  0.
         21    1    1    2  503  501 -0.25423431746E+03 -0.68068788680E+02  0.10799315044E+03  0.28448368795E+03  0.00000000000E+00 0. -1.
         21    1    1    2  504  503 -0.20004744160E+02  0.33731289490E+02 -0.67104891252E+02  0.77724231161E+02  0.00000000000E+00 0.  1.
<mgrwt>
<rscale>  4 0.29247735E+03</rscale>
<asrwt>0</asrwt>
<pdfrwt beam="1">  1       21 0.36111241E-01 0.29247735E+03</pdfrwt>
<pdfrwt beam="2">  1       21 0.13139034E+00 0.29247735E+03</pdfrwt>
<totfact> 0.28934770E+03</totfact>
</mgrwt>
</event>
<event>
 5    0  0.1911311E+001  0.1729664E+03  0.7546771E-02  0.1174789E+00
         21   -1    0    0  502  501  0.00000000000E+00  0.00000000000E+00  0.52942196142E+03  0.52942196142E+03  0.00000000000E+00 0.  1.
         21   -1    0    0  504  502 -0.00000000000E+00 -0.00000000000E+00 -0.36465392060E+03  0.36465392060E+03  0.00000000000E+00 0.  1.
         25    1    1    2    0    0  0.22781688557E+02 -0.20609973340E+03 -0.23570095283E+03  0.33789945932E+03  0.12500000000E+03 0.  0.
         21    1    1    2  503  501 -0.57996076589E+01  0.11707506086E+03  0.44142402248E+03  0.45672242440E+03  0.00000000000E+00 0.  1.
         21    1    1    2  504  503 -0.16982080898E+02  0.89024672533E+02 -0.40955028827E+02  0.99453998298E+02  0.00000000000E+00 0.  1.
<mgrwt>
<rscale>  4 0.17296641E+03</rscale>
<asrwt>0</asrwt>
<pdfrwt beam="1">  1       21 0.81449533E-01 0.17296641E+03</pdfrwt>
<pdfrwt beam="2">  1       21 0.56100603E-01 0.17296641E+03</pdfrwt>
<totfact> 0.40156439E+03</totfact>
</mgrwt>
</event>
<event>
 5    0  0.1911311E+001  0.1870912E+03  0.7546771E-02  0.1161111E+00
         21   -1    0    0  502  501  0.00000000000E+00  0.00000000000E+00  0.15471452758E+04  0.15471452758E+04  0.00000000000E+00 0. -1.
         21   -1    0    0  504  502 -0.00000000000E+00 -0.00000000000E+00 -0.62017660971E+02  0.62017660971E+02  0.00000000000E+00 0. -1.
         25    1    1    2    0    0 -0.17707500378E+03  0.14498982503E+03  0.89138710028E+03  0.92874838836E+03  0.12500000000E+03 0.  0.
         21    1    1    2  503  501  0.52510252704E+02 -0.10878563325E+03  0.51431668026E+03  0.52831173395E+03  0.00000000000E+00 0. -1.
         21    1    1    2  504  503  0.12456475108E+03 -0.36204191786E+02  0.79423834285E+02  0.15210281446E+03  0.00000000000E+00 0. -1.
<mgrwt>
<rscale>  4 0.18709119E+03</rscale>
<asrwt>0</asrwt>
<pdfrwt beam="1">  1       21 0.23802232E+00 0.18709119E+03</pdfrwt>
<pdfrwt beam="2">  1       21 0.95411798E-02 0.18709119E+03</pdfrwt>
<totfact> 0.69386026E+03</totfact>
</mgrwt>
</event>
<event>
 5    0  0.1911311E+001  0.2676123E+03  0.7546771E-02  0.1102654E+00
         21   -1    0    0  502  501  0.00000000000E+00  0.00000000000E+00  0.46457662086E+03  0.46457662086E+03  0.00000000000E+00 0.  1.
         21   -1    0    0  504  502 -0.00000000000E+00 -0.00000000000E+00 -0.23441050316E+03  0.23441050316E+03  0.00000000000E+00 0.  1.
         25    1    1    2    0    0 -0.28049366650E+03  0.15256846477E+02  0.36338936577E+02  0.30960456492E+03  0.12500000000E+03 0.  0.
         21    1    1    2  503  501  0.83413864201E+02 -0.80391852690E+02  0.12565614907E+03  0.17090989005E+03  0.00000000000E+00 0.  1.
         21    1    1    2  504  503  0.19707980230E+03  0.65135006213E+02  0.68171032061E+02  0.21847266904E+03  0.00000000000E+00 0.  1.
<mgrwt>
<rscale>  4 0.26761227E+03</rscale>
<asrwt>0</asrwt>
<pdfrwt beam="1">  1       21 0.71473326E-01 0.26761227E+03</pdfrwt>
<pdfrwt beam="2">  1       21 0.36063154E-01 0.26761227E+03</pdfrwt>
<totfact> 0.12564810E+04</totfact>
</mgrwt>
</event>
<event>
 5    0  0.1911311E+001  0.4248957E+03  0.7546771E-02  0.1035485E+00
         21   -1    0    0  502  501  0.00000000000E+00  0.00000000000E+00  0.20492639197E+04  0.20492639197E+04  0.00000000000E+00 0.  1.
         21   -1    0    0  504  502 -0.00000000000E+00 -0.00000000000E+00 -0.11250577660E+04  0.11250577660E+04  0.00000000000E+00 0.  1.
         25    1    1    2    0    0  0.84559303180E+02  0.42093241498E+03  0.13766665037E+04  0.14474702195E+04  0.12500000000E+03 0.  0.
         21    1    1    2  503  501  0.75013088175E+00 -0.24535687741E+02  0.59921538683E+03  0.59971796912E+03  0.00000000000E+00 0. -1.
         21    1    1    2  504  503 -0.85309434062E+02 -0.39639672724E+03 -0.10516757368E+04  0.11271334971E+04  0.00000000000E+00 0.  1.
<mgrwt>
<rscale>  4 0.42489569E+03</rscale>
<asrwt>0</asrwt>
<pdfrwt beam="1">  1       21 0.31527137E+00 0.42489569E+03</pdfrwt>
<pdfrwt beam="2">  1       21 0.17308581E+00 0.42489569E+03</pdfrwt>
<totfact> 0.41150292E+00</totfact>
</mgrwt>
</event>
<event>
 5    0  0.1911311E+001  0.2748863E+03  0.7546771E-02  0.1098515E+00
         21   -1    0    0  503  501  0.00000000000E+00  0.00000000000E+00  0.24036746337E+03  0.24036746337E+03  0.00000000000E+00 0.  1.
         21   -1    0    0  504  502 -0.00000000000E+00 -0.00000000000E+00 -0.41831134688E+03  0.41831134688E+03  0.00000000000E+00 0.  1.
         25    1    1    2    0    0  0.17608712565E+03 -0.21327413806E+03 -0.65868010846E+02  0.31057386986E+03  0.12500000000E+03 0.  0.
         21    1    1    2  503  502 -0.14609947312E+03  0.17679182473E+03 -0.16091480050E+03  0.28016776823E+03  0.00000000000E+00 0.  1.
         21    1    1    2  504  501 -0.29987652533E+02  0.36482313327E+02  0.48838927828E+02  0.67937172163E+02  0.00000000000E+00 0.  1.
<mgrwt>
<rscale>  4 0.27488629E+03</rscale>
<asrwt>0</asrwt>
<pdfrwt beam="1">  1       21 0.36979609E-01 0.27488629E+03</pdfrwt>
<pdfrwt beam="2">  1       21 0.64355592E-01 0.27488629E+03</pdfrwt>
<totfact> 0.15013969E+04</totfact>
</mgrwt>
</event>
<event>
 5    0  0.1911311E+001  0.1938932E+03  0.7546771E-02  0.1154996E+00
         21   -1    0    0  504  501  0.00000000000E+00  0.00000000000E+00  0.94917765790E+03  0.94917765790E+03  0.00000000000E+00 0.  1.
         21   -1    0    0  503  502 -0.00000000000E+00 -0.00000000000E+00 -0.90093743114E+02  0.90093743114E+02  0.00000000000E+00 0.  1.
         25    1    1    2    0    0  0.31200647456E+02  0.20379791956E+03  0.48423631887E+03  0.54094074068E+03  0.12500000000E+03 0.  0.
         21    1    1    2  503  501  0.66721390703E+01 -0.13911154348E+03  0.26197672347E+02  0.14171399721E+03  0.00000000000E+00 0.  1.
         21    1    1    2  504  502 -0.37872786526E+02 -0.64686376075E+02  0.34864992357E+03  0.35661666312E+03  0.00000000000E+00 0.  1.
<mgrwt>
<rscale>  4 0.19389321E+03</rscale>
<asrwt>0</asrwt>
<pdfrwt beam="1">  1       21 0.14602733E+00 0.19389321E+03</pdfrwt>
<pdfrwt beam="2">  1       21 0.13860576E-01 0.19389321E+03</pdfrwt>
<totfact> 0.14508264E+04</totfact>
</mgrwt>
</event>
