<event>
 5    0  0.1911311E+001  0.3106712E+03  0.7546771E-02  0.1080025E+00
         21   -1    0    0  504  501  0.00000000000E+00  0.00000000000E+00  0.80137536255E+03  0.80137536255E+03  0.00000000000E+00 0.  1.
         21   -1    0    0  503  502 -0.00000000000E+00 -0.00000000000E+00 -0.45826305206E+03  0.45826305206E+03  0.00000000000E+00 0.  1.
         25    1    1    2    0    0  0.49110884598E+01 -0.28310652269E+03 -0.63245967532E+02  0.31590896535E+03  0.12500000000E+03 0.  0.
         21    1    1    2  503  501  0.23768925839E+03  0.10046022888E+03 -0.15820149725E+03  0.30268160643E+03  0.00000000000E+00 0.  1.
         21    1    1    2  504  502 -0.24260034685E+03  0.18264629381E+03  0.56455977527E+03  0.64104784283E+03  0.00000000000E+00 0.  1.
<mgrwt>
<rscale>  4 0.31067124E+03</rscale>
<asrwt>0</asrwt>
<pdfrwt beam="1">  1       21 0.12328852E+00 0.31067124E+03</pdfrwt>
<pdfrwt beam="2">  1       21 0.70502008E-01 0.31067124E+03</pdfrwt>
<totfact> 0.81729865E+02</totfact>
</mgrwt>
</event>
<event>
 5    0  0.4878608E+001  0.3053965E+03  0.7546771E-02  0.1082574E+00
         21   -1    0    0  502  501  0.00000000000E+00  0.00000000000E+00  0.66493769020E+03  0.66493769020E+03  0.00000000000E+00 0.  1.
         21   -1    0    0  504  502 -0.00000000000E+00 -0.00000000000E+00 -0.18959536709E+03  0.18959536709E+03  0.00000000000E+00 0.  1.
         25    1    1    2    0    0  0.26014783053E+03  0.91813749572E+02  0.34444912151E+03  0.45866856842E+03  0.12500000000E+03 0.  0.
         21    1    1    2  503  501  0.14705516662E+02 -0.36145532001E+02  0.10760834370E+03  0.11446531063E+03  0.00000000000E+00 0. -1.
         21    1    1    2  504  503 -0.27485334719E+03 -0.55668217571E+02  0.23284857890E+02  0.28139917825E+03  0.00000000000E+00 0.  1.
<mgrwt>
<rscale>  4 0.30539650E+03</rscale>
<asrwt>0</asrwt>
<pdfrwt beam="1">  1       21 0.10229810E+00 0.30539650E+03</pdfrwt>
<pdfrwt beam="2">  1       21 0.29168518E-01 0.30539650E+03</pdfrwt>
<totfact> 0.81893430E+03</totfact>
</mgrwt>
</event>
<event>
 5    0  0.1911311E+001  0.1886880E+03  0.7546771E-02  0.1159650E+00
         21   -1    0    0  504  501  0.00000000000E+00  0.00000000000E+00  0.17050060730E+03  0.17050060730E+03  0.00000000000E+00 0.  1.
         21   -1    0    0  503  502 -0.00000000000E+00 -0.00000000000E+00 -0.12789149604E+04  0.12789149604E+04  0.00000000000E+00 0.  1.
         25    1    1    2    0    0 -0.18969939763E+03 -0.12151287284E+03  0.20750949653E+02  0.25847019487E+03  0.12500000000E+03 0.  0.
         21    1    1    2  503  501  0.13530517119E+03  0.31802146216E+02 -0.10509091371E+04  0.10600607908E+04  0.00000000000E+00 0.  1.
         21    1    1    2  504  502  0.54394226441E+02  0.89710726620E+02 -0.78256165700E+02  0.13088458202E+03  0.00000000000E+00 0.  1.
<mgrwt>
<rscale>  4 0.18868802E+03</rscale>
<asrwt>0</asrwt>
<pdfrwt beam="1">  1       21 0.26230862E-01 0.18868802E+03</pdfrwt>
<pdfrwt beam="2">  1       21 0.19675615E+00 0.18868802E+03</pdfrwt>
<totfact> 0.19546694E+03</totfact>
</mgrwt>
</event>
<event>
 5    0  0.1911311E+001  0.3045198E+03  0.7546771E-02  0.1083003E+00
         21   -1    0    0  502  501  0.00000000000E+00  0.00000000000E+00  0.33256064434E+03  0.33256064434E+03  0.00000000000E+00 0.  1.
         21   -1    0    0  504  502 -0.00000000000E+00 -0.00000000000E+00 -0.41491533962E+03  0.41491533962E+03  0.00000000000E+00 0.  1.
         25    1    1    2    0    0 -0.17222926781E+03 -0.19983770066E+03  0.14280562610E+03  0.32498688303E+03  0.12500000000E+03 0.  0.
         21    1    1    2  503  501  0.32940431049E+01 -0.25320246300E+02  0.32192676041E+02  0.41089341481E+02  0.00000000000E+00 0.  1.
         21    1    1    2  504  503  0.16893522471E+03  0.22515794696E+03 -0.25735299742E+03  0.38139975945E+03  0.00000000000E+00 0.  1.
<mgrwt>
<rscale>  4 0.30451978E+03</rscale>
<asrwt>0</asrwt>
<pdfrwt beam="1">  1       21 0.51163176E-01 0.30451978E+03</pdfrwt>
<pdfrwt beam="2">  1       21 0.63833129E-01 0.30451978E+03</pdfrwt>
<totfact> 0.77128676E+03</totfact>
</mgrwt>
</event>
