<event>
 5    0  0.2159162E+000  0.2988266E+03  0.7546771E-02  0.1085829E+00
         21   -1    0    0  502  501  0.00000000000E+00  0.00000000000E+00  0.92398281431E+03  0.92398281431E+03  0.00000000000E+00 0. -1.
         21   -1    0    0  503  502 -0.00000000000E+00 -0.00000000000E+00 -0.35275973955E+03  0.35275973955E+03  0.00000000000E+00 0. -1.
         25    1    1    2    0    0  0.20433952427E+03  0.17395163578E+03  0.79265641979E+03  0.84613415757E+03  0.12500000000E+03 0.  0.
         21    1    1    2  503  504  0.28477339494E+02  0.26755277971E+02  0.15975894479E+02  0.42214132330E+02  0.00000000000E+00 0.  1.
         21    1    1    2  504  501 -0.23281686377E+03 -0.20070691375E+03 -0.23740923950E+03  0.38839426396E+03  0.00000000000E+00 0. -1.
<mgrwt>
<rscale>  4 0.29882657E+03</rscale>
<asrwt>0</asrwt>
<pdfrwt beam="1">  1       21 0.14215120E+00 0.29882657E+03</pdfrwt>
<pdfrwt beam="2">  1       21 0.54270729E-01 0.29882657E+03</pdfrwt>
<totfact> 0.10101690E+03</totfact>
</mgrwt>
</event>
<event>
 5    0  0.5638203E+000  0.2412336E+03  0.7546771E-02  0.1118974E+00
         21   -1    0    0  502  501  0.00000000000E+00  0.00000000000E+00  0.11586208952E+04  0.11586208952E+04  0.00000000000E+00 0.  1.
         21   -1    0    0  503  502 -0.00000000000E+00 -0.00000000000E+00 -0.45508298222E+02  0.45508298222E+02  0.00000000000E+00 0.  1.
         25    1    1    2    0    0 -0.11856011902E+03  0.16885538413E+03  0.65190318910E+03  0.69510532333E+03  0.12500000000E+03 0.  0.
         21    1    1    2  503  504  0.92378275161E+02 -0.13808301235E+03  0.30106766795E+03  0.34386393342E+03  0.00000000000E+00 0.  1.
         21    1    1    2  504  501  0.26181843863E+02 -0.30772371774E+02  0.16014173996E+03  0.16515993670E+03  0.00000000000E+00 0. -1.
<mgrwt>
<rscale>  4 0.24123359E+03</rscale>
<asrwt>0</asrwt>
<pdfrwt beam="1">  1       21 0.17824935E+00 0.24123359E+03</pdfrwt>
<pdfrwt beam="2">  1       21 0.70012775E-02 0.24123359E+03</pdfrwt>
<totfact> 0.27429138E+04</totfact>
</mgrwt>
</event>
<event>
 5    0  0.2159162E+000  0.2752073E+03  0.7546771E-02  0.1098336E+00
         21   -1    0    0  502  501  0.00000000000E+00  0.00000000000E+00  0.18998160557E+04  0.18998160557E+04  0.00000000000E+00 0. -1.
         21   -1    0    0  503  502 -0.00000000000E+00 -0.00000000000E+00 -0.85398263141E+02  0.85398263141E+02  0.00000000000E+00 0.  1.
         25    1    1    2    0    0 -0.15025836148E+03 -0.19374334241E+03  0.16714675879E+04  0.16939725368E+04  0.12500000000E+03 0.  0.
         21    1    1    2  503  504  0.97366849252E+02  0.95801767153E+02  0.47525816638E+02  0.14462705546E+03  0.00000000000E+00 0.  1.
         21    1    1    2  504  501  0.52891512223E+02  0.97941575258E+02  0.95424387995E+02  0.14661472659E+03  0.00000000000E+00 0.  1.
<mgrwt>
<rscale>  4 0.27520730E+03</rscale>
<asrwt>0</asrwt>
<pdfrwt beam="1">  1       21 0.29227936E+00 0.27520730E+03</pdfrwt>
<pdfrwt beam="2">  1       21 0.13138196E-01 0.27520730E+03</pdfrwt>
<totfact> 0.17281477E+03</totfact>
</mgrwt>
</event>
<event>
 5    0  0.2159162E+000  0.2505143E+03  0.7546771E-02  0.1112980E+00
         21   -1    0    0  502  501  0.00000000000E+00  0.00000000000E+00  0.79911811969E+03  0.79911811969E+03  0.00000000000E+00 0. -1.
         21   -1    0    0  503  502 -0.00000000000E+00 -0.00000000000E+00 -0.95685687793E+02  0.95685687793E+02  0.00000000000E+00 0. -1.
         25    1    1    2    0    0  0.67136809812E+02 -0.20645840063E+03  0.58261076345E+03  0.63418666346E+03  0.12500000000E+03 0.  0.
         21    1    1    2  503  504 -0.66767135212E+02  0.87322340069E+02  0.74508679113E+02  0.13279527357E+03  0.00000000000E+00 0. -1.
         21    1    1    2  504  501 -0.36967460026E+00  0.11913606056E+03  0.46312989339E+02  0.12782187046E+03  0.00000000000E+00 0. -1.
<mgrwt>
<rscale>  4 0.25051432E+03</rscale>
<asrwt>0</asrwt>
<pdfrwt beam="1">  1       21 0.12294124E+00 0.25051432E+03</pdfrwt>
<pdfrwt beam="2">  1       21 0.14720876E-01 0.25051432E+03</pdfrwt>
<totfact> 0.19513415E+04</totfact>
</mgrwt>
</event>
<event>
 5    0  0.2159162E+000  0.2980932E+03  0.7546771E-02  0.1086198E+00
         21   -1    0    0  502  501  0.00000000000E+00  0.00000000000E+00  0.55151584672E+03  0.55151584672E+03  0.00000000000E+00 0.  1.
         21   -1    0    0  503  502 -0.00000000000E+00 -0.00000000000E+00 -0.19867815362E+03  0.19867815362E+03  0.00000000000E+00 0.  1.
         25    1    1    2    0    0  0.31000471451E+02  0.26883733154E+03  0.37082901312E+03  0.47578744943E+03  0.12500000000E+03 0.  0.
         21    1    1    2  503  504 -0.13983175363E+02 -0.22410386466E+03 -0.25414386774E+02  0.22597336659E+03  0.00000000000E+00 0.  1.
         21    1    1    2  504  501 -0.17017296088E+02 -0.44733466875E+02  0.74230667574E+01  0.48433184336E+02  0.00000000000E+00 0.  1.
<mgrwt>
<rscale>  4 0.29809317E+03</rscale>
<asrwt>0</asrwt>
<pdfrwt beam="1">  1       21 0.84848591E-01 0.29809317E+03</pdfrwt>
<pdfrwt beam="2">  1       21 0.30565870E-01 0.29809317E+03</pdfrwt>
<totfact> 0.11658531E+04</totfact>
</mgrwt>
</event>
<event>
 5    0  0.2159162E+000  0.3262951E+03  0.7546771E-02  0.1072788E+00
         21   -1    0    0  502  501  0.00000000000E+00  0.00000000000E+00  0.11056154909E+03  0.11056154909E+03  0.00000000000E+00 0.  1.
         21   -1    0    0  503  502 -0.00000000000E+00 -0.00000000000E+00 -0.18800274732E+04  0.18800274732E+04  0.00000000000E+00 0.  1.
         25    1    1    2    0    0 -0.27003932073E+03  0.21877581145E+03 -0.32730371464E+03  0.49349449038E+03  0.12500000000E+03 0.  0.
         21    1    1    2  503  504  0.10824268275E+03 -0.46740924108E+02 -0.87232672321E+03  0.88025854405E+03  0.00000000000E+00 0.  1.
         21    1    1    2  504  501  0.16179663798E+03 -0.17203488734E+03 -0.56983548631E+03  0.61683598791E+03  0.00000000000E+00 0.  1.
<mgrwt>
<rscale>  4 0.32629509E+03</rscale>
<asrwt>0</asrwt>
<pdfrwt beam="1">  1       21 0.17009469E-01 0.32629509E+03</pdfrwt>
<pdfrwt beam="2">  1       21 0.28923500E+00 0.32629509E+03</pdfrwt>
<totfact> 0.10747387E+03</totfact>
</mgrwt>
</event>
<event>
 5    0  0.3546398E+000  0.3151277E+03  0.7546771E-02  0.1077914E+00
         21   -1    0    0  502  501  0.00000000000E+00  0.00000000000E+00  0.86471513152E+03  0.86471513152E+03  0.00000000000E+00 0.  1.
         21   -1    0    0  503  502 -0.00000000000E+00 -0.00000000000E+00 -0.11021209941E+03  0.11021209941E+03  0.00000000000E+00 0.  1.
         25    1    1    2    0    0  0.23345457115E+03  0.17081991290E+03  0.42117734433E+03  0.52601885404E+03  0.12500000000E+03 0.  0.
         21    1    1    2  503  504 -0.20340812595E+03 -0.13967693744E+03  0.23182029572E+03  0.33856337968E+03  0.00000000000E+00 0.  1.
         21    1    1    2  504  501 -0.30046445194E+02 -0.31142975458E+02  0.10150539207E+03  0.11034499721E+03  0.00000000000E+00 0.  1.
<mgrwt>
<rscale>  4 0.31512772E+03</rscale>
<asrwt>0</asrwt>
<pdfrwt beam="1">  1       21 0.13303309E+00 0.31512772E+03</pdfrwt>
<pdfrwt beam="2">  1       21 0.16955708E-01 0.31512772E+03</pdfrwt>
<totfact> 0.11924005E+04</totfact>
</mgrwt>
</event>
<event>
 5    0  0.2159162E+000  0.7071619E+03  0.7546771E-02  0.9705062E-01
         21   -1    0    0  502  501  0.00000000000E+00  0.00000000000E+00  0.98229886518E+03  0.98229886518E+03  0.00000000000E+00 0.  1.
         21   -1    0    0  503  502 -0.00000000000E+00 -0.00000000000E+00 -0.60917247855E+03  0.60917247855E+03  0.00000000000E+00 0.  1.
         25    1    1    2    0    0 -0.34107245141E+03 -0.58842480970E+03 -0.50727336860E+02  0.69337755696E+03  0.12500000000E+03 0.  0.
         21    1    1    2  503  504  0.41623222029E+03  0.57020310076E+03  0.41824291904E+03  0.82055345752E+03  0.00000000000E+00 0.  1.
         21    1    1    2  504  501 -0.75159768877E+02  0.18221708943E+02  0.56108044474E+01  0.77540329256E+02  0.00000000000E+00 0.  1.
<mgrwt>
<rscale>  4 0.70716186E+03</rscale>
<asrwt>0</asrwt>
<pdfrwt beam="1">  1       21 0.15112290E+00 0.70716186E+03</pdfrwt>
<pdfrwt beam="2">  1       21 0.93718843E-01 0.70716186E+03</pdfrwt>
<totfact> 0.20735236E+02</totfact>
</mgrwt>
</event>
<event>
 5    0  0.2973142E+000  0.2511976E+03  0.7546771E-02  0.1112550E+00
         21   -1    0    0  502  501  0.00000000000E+00  0.00000000000E+00  0.71406540146E+03  0.71406540146E+03  0.00000000000E+00 0. -1.
         21   -1    0    0  503  502 -0.00000000000E+00 -0.00000000000E+00 -0.85775257459E+02  0.85775257459E+02  0.00000000000E+00 0. -1.
         25    1    1    2    0    0  0.20196493645E+03  0.81764159694E+02  0.44183643508E+03  0.50825156048E+03  0.12500000000E+03 0.  0.
         21    1    1    2  503  504 -0.14306574388E+03 -0.82758340149E+02  0.13766902258E+03  0.21510348606E+03  0.00000000000E+00 0. -1.
         21    1    1    2  504  501 -0.58899192564E+02  0.99418045524E+00  0.48784686331E+02  0.76485612372E+02  0.00000000000E+00 0. -1.
<mgrwt>
<rscale>  4 0.25119756E+03</rscale>
<asrwt>0</asrwt>
<pdfrwt beam="1">  1       21 0.10985621E+00 0.25119756E+03</pdfrwt>
<pdfrwt beam="2">  1       21 0.13196194E-01 0.25119756E+03</pdfrwt>
<totfact> 0.31440345E+04</totfact>
</mgrwt>
</event>
<event>
 5    0  0.2159162E+000  0.2498757E+03  0.7546771E-02  0.1113383E+00
         21   -1    0    0  502  501  0.00000000000E+00  0.00000000000E+00  0.25546751949E+03  0.25546751949E+03  0.00000000000E+00 0. -1.
         21   -1    0    0  503  502 -0.00000000000E+00 -0.00000000000E+00 -0.21683369370E+03  0.21683369370E+03  0.00000000000E+00 0. -1.
         25    1    1    2    0    0 -0.18292019012E+03 -0.11555553112E+03  0.15111913783E+02  0.25033227252E+03  0.12500000000E+03 0.  0.
         21    1    1    2  503  504  0.14074152785E+03  0.94344556632E+02  0.35818617530E+02  0.17318211914E+03  0.00000000000E+00 0. -1.
         21    1    1    2  504  501  0.42178662266E+02  0.21210974484E+02 -0.12296705522E+02  0.48786821539E+02  0.00000000000E+00 0. -1.
<mgrwt>
<rscale>  4 0.24987572E+03</rscale>
<asrwt>0</asrwt>
<pdfrwt beam="1">  1       21 0.39302695E-01 0.24987572E+03</pdfrwt>
<pdfrwt beam="2">  1       21 0.33359030E-01 0.24987572E+03</pdfrwt>
<totfact> 0.52673460E+04</totfact>
</mgrwt>
</event>
<event>
 5    0  0.2159162E+000  0.2479344E+03  0.7546771E-02  0.1114617E+00
         21   -1    0    0  502  501  0.00000000000E+00  0.00000000000E+00  0.16153604653E+03  0.16153604653E+03  0.00000000000E+00 0. -1.
         21   -1    0    0  503  502 -0.00000000000E+00 -0.00000000000E+00 -0.10217934380E+04  0.10217934380E+04  0.00000000000E+00 0. -1.
         25    1    1    2    0    0  0.17872922737E+03  0.11910314182E+03  0.35062886826E+02  0.25096633468E+03  0.12500000000E+03 0.  0.
         21    1    1    2  503  504 -0.15611561239E+03 -0.14405170597E+03 -0.62850628834E+03  0.66343283979E+03  0.00000000000E+00 0. -1.
         21    1    1    2  504  501 -0.22613614975E+02  0.24948564149E+02 -0.26681398996E+03  0.26893031007E+03  0.00000000000E+00 0. -1.
<mgrwt>
<rscale>  4 0.24793436E+03</rscale>
<asrwt>0</asrwt>
<pdfrwt beam="1">  1       21 0.24851700E-01 0.24793436E+03</pdfrwt>
<pdfrwt beam="2">  1       21 0.15719899E+00 0.24793436E+03</pdfrwt>
<totfact> 0.38692113E+03</totfact>
</mgrwt>
</event>
<event>
 5    0  0.2247517E+001  0.2632978E+03  0.7546771E-02  0.1105178E+00
         21   -1    0    0  502  501  0.00000000000E+00  0.00000000000E+00  0.11219970395E+03  0.11219970395E+03  0.00000000000E+00 0. -1.
         21   -1    0    0  503  502 -0.00000000000E+00 -0.00000000000E+00 -0.85958914827E+03  0.85958914827E+03  0.00000000000E+00 0. -1.
         25    1    1    2    0    0  0.23157067680E+03 -0.87023104374E+01 -0.98442786245E+02  0.28109907635E+03  0.12500000000E+03 0.  0.
         21    1    1    2  503  504 -0.21039781707E+03 -0.48302259264E+01 -0.59643625254E+03  0.63247669985E+03  0.00000000000E+00 0. -1.
         21    1    1    2  504  501 -0.21172859737E+02  0.13532536364E+02 -0.52510405536E+02  0.58213076017E+02  0.00000000000E+00 0.  1.
<mgrwt>
<rscale>  4 0.26329776E+03</rscale>
<asrwt>0</asrwt>
<pdfrwt beam="1">  1       21 0.17261492E-01 0.26329776E+03</pdfrwt>
<pdfrwt beam="2">  1       21 0.13224449E+00 0.26329776E+03</pdfrwt>
<totfact> 0.12012584E+04</totfact>
</mgrwt>
</event>
<event>
 5    0  0.2159162E+000  0.2906336E+03  0.7546771E-02  0.1090019E+00
         21   -1    0    0  502  501  0.00000000000E+00  0.00000000000E+00  0.82559110287E+03  0.82559110287E+03  0.00000000000E+00 0.  1.
         21   -1    0    0  503  502 -0.00000000000E+00 -0.00000000000E+00 -0.27053190058E+03  0.27053190058E+03  0.00000000000E+00 0.  1.
         25    1    1    2    0    0 -0.12179078257E+03  0.28315526785E+03  0.63721298376E+03  0.71880128485E+03  0.12500000000E+03 0.  0.
         21    1    1    2  503  504  0.10747442114E+03 -0.98824646157E+02 -0.11953522960E+03  0.18869481446E+03  0.00000000000E+00 0.  1.
         21    1    1    2  504  501  0.14316361426E+02 -0.18433062170E+03  0.37381448137E+02  0.18862690414E+03  0.00000000000E+00 0.  1.
<mgrwt>
<rscale>  4 0.29063363E+03</rscale>
<asrwt>0</asrwt>
<pdfrwt beam="1">  1       21 0.12701401E+00 0.29063363E+03</pdfrwt>
<pdfrwt beam="2">  1       21 0.41620293E-01 0.29063363E+03</pdfrwt>
<totfact> 0.23671136E+03</totfact>
</mgrwt>
</event>
<event>
 5    0  0.2292409E+000  0.2701126E+03  0.7546771E-02  0.1101215E+00
         21   -1    0    0  502  501  0.00000000000E+00  0.00000000000E+00  0.10106369081E+03  0.10106369081E+03  0.00000000000E+00 0. -1.
         21   -1    0    0  503  502 -0.00000000000E+00 -0.00000000000E+00 -0.91345550126E+03  0.91345550126E+03  0.00000000000E+00 0. -1.
         25    1    1    2    0    0 -0.24439279126E+03 -0.93030294498E+02 -0.43452729537E+03  0.52232312081E+03  0.12500000000E+03 0.  0.
         21    1    1    2  503  504  0.69252779974E+02 -0.50499028005E+02 -0.73969949923E+02  0.11321507344E+03  0.00000000000E+00 0. -1.
         21    1    1    2  504  501  0.17514001129E+03  0.14352932250E+03 -0.30389456515E+03  0.37898099781E+03  0.00000000000E+00 0. -1.
<mgrwt>
<rscale>  4 0.27011256E+03</rscale>
<asrwt>0</asrwt>
<pdfrwt beam="1">  1       21 0.15548259E-01 0.27011256E+03</pdfrwt>
<pdfrwt beam="2">  1       21 0.14053162E+00 0.27011256E+03</pdfrwt>
<totfact> 0.12406005E+04</totfact>
</mgrwt>
</event>
<event>
 5    0  0.2159162E+000  0.2133766E+03  0.7546771E-02  0.1138920E+00
         21   -1    0    0  502  501  0.00000000000E+00  0.00000000000E+00  0.17423562236E+03  0.17423562236E+03  0.00000000000E+00 0. -1.
         21   -1    0    0  503  502 -0.00000000000E+00 -0.00000000000E+00 -0.67490135470E+03  0.67490135470E+03  0.00000000000E+00 0. -1.
         25    1    1    2    0    0 -0.10012658000E+03  0.18757285489E+03 -0.18243279069E+03  0.30678270980E+03  0.12500000000E+03 0.  0.
         21    1    1    2  503  504  0.11871106110E+03 -0.11425636999E+03  0.45428217698E+02  0.17091096242E+03  0.00000000000E+00 0. -1.
         21    1    1    2  504  501 -0.18584481105E+02 -0.73316484900E+02 -0.36366115935E+03  0.37144330484E+03  0.00000000000E+00 0. -1.
<mgrwt>
<rscale>  4 0.21337657E+03</rscale>
<asrwt>0</asrwt>
<pdfrwt beam="1">  1       21 0.26805480E-01 0.21337657E+03</pdfrwt>
<pdfrwt beam="2">  1       21 0.10383098E+00 0.21337657E+03</pdfrwt>
<totfact> 0.98032622E+03</totfact>
</mgrwt>
</event>
<event>
 5    0  0.2159162E+000  0.4938091E+03  0.7546771E-02  0.1015408E+00
         21   -1    0    0  502  501  0.00000000000E+00  0.00000000000E+00  0.14752480678E+04  0.14752480678E+04  0.00000000000E+00 0. -1.
         21   -1    0    0  503  502 -0.00000000000E+00 -0.00000000000E+00 -0.17182634971E+03  0.17182634971E+03  0.00000000000E+00 0. -1.
         25    1    1    2    0    0  0.35674669321E+03 -0.31773292827E+03  0.45963151854E+03  0.67461733572E+03  0.12500000000E+03 0.  0.
         21    1    1    2  503  504 -0.34921040513E+03  0.29166424310E+03  0.81082373426E+03  0.92975860619E+03  0.00000000000E+00 0. -1.
         21    1    1    2  504  501 -0.75362880811E+01  0.26068685173E+02  0.32966465289E+02  0.42698475597E+02  0.00000000000E+00 0.  1.
<mgrwt>
<rscale>  4 0.49380909E+03</rscale>
<asrwt>0</asrwt>
<pdfrwt beam="1">  1       21 0.22696123E+00 0.49380909E+03</pdfrwt>
<pdfrwt beam="2">  1       21 0.26434824E-01 0.49380909E+03</pdfrwt>
<totfact> 0.10078762E+03</totfact>
</mgrwt>
</event>
<event>
 5    0  0.2159162E+000  0.2809760E+03  0.7546771E-02  0.1095157E+00
         21   -1    0    0  502  501  0.00000000000E+00  0.00000000000E+00  0.66041715371E+03  0.66041715371E+03  0.00000000000E+00 0. -1.
         21   -1    0    0  503  502 -0.00000000000E+00 -0.00000000000E+00 -0.12908709056E+04  0.12908709056E+04  0.00000000000E+00 0.  1.
         25    1    1    2    0    0  0.47568466854E+02  0.24647661249E+03  0.61213917915E+03  0.67331482547E+03  0.12500000000E+03 0.  0.
         21    1    1    2  503  504  0.46832462557E+01  0.23293017758E+02 -0.10744532831E+03  0.11004088352E+03  0.00000000000E+00 0.  1.
         21    1    1    2  504  501 -0.52251713109E+02 -0.26976963025E+03 -0.11351476028E+04  0.11679323504E+04  0.00000000000E+00 0.  1.
<mgrwt>
<rscale>  4 0.28097597E+03</rscale>
<asrwt>0</asrwt>
<pdfrwt beam="1">  1       21 0.10160264E+00 0.28097597E+03</pdfrwt>
<pdfrwt beam="2">  1       21 0.19859552E+00 0.28097597E+03</pdfrwt>
<totfact> 0.97544288E+01</totfact>
</mgrwt>
</event>
<event>
 5    0  0.2159162E+000  0.2173985E+03  0.7546771E-02  0.1135838E+00
         21   -1    0    0  502  501  0.00000000000E+00  0.00000000000E+00  0.57803657855E+02  0.57803657855E+02  0.00000000000E+00 0.  1.
         21   -1    0    0  503  502 -0.00000000000E+00 -0.00000000000E+00 -0.10603176303E+04  0.10603176303E+04  0.00000000000E+00 0.  1.
         25    1    1    2    0    0  0.16757798673E+03  0.14074765948E+03 -0.46436042632E+03  0.52834448121E+03  0.12500000000E+03 0.  0.
         21    1    1    2  503  504 -0.49910617480E+02 -0.38972890357E+02 -0.29042103582E+03  0.29724456928E+03  0.00000000000E+00 0.  1.
         21    1    1    2  504  501 -0.11766736925E+03 -0.10177476912E+03 -0.24773251030E+03  0.29253223767E+03  0.00000000000E+00 0.  1.
<mgrwt>
<rscale>  4 0.21739852E+03</rscale>
<asrwt>0</asrwt>
<pdfrwt beam="1">  1       21 0.88928711E-02 0.21739852E+03</pdfrwt>
<pdfrwt beam="2">  1       21 0.16312578E+00 0.21739852E+03</pdfrwt>
<totfact> 0.23443000E+04</totfact>
</mgrwt>
</event>
<event>
 5    0  0.2159162E+000  0.2928081E+03  0.7546771E-02  0.1088892E+00
         21   -1    0    0  502  501  0.00000000000E+00  0.00000000000E+00  0.78927108315E+03  0.78927108315E+03  0.00000000000E+00 0. -1.
         21   -1    0    0  503  502 -0.00000000000E+00 -0.00000000000E+00 -0.32966800628E+03  0.32966800628E+03  0.00000000000E+00 0.  1.
         25    1    1    2    0    0 -0.26407890598E+03 -0.19336832711E+02  0.69925337506E+03  0.75808433845E+03  0.12500000000E+03 0.  0.
         21    1    1    2  503  504  0.21984948644E+03  0.54440619441E+01 -0.17370457467E+03  0.28024402538E+03  0.00000000000E+00 0.  1.
         21    1    1    2  504  501  0.44229419535E+02  0.13892770767E+02 -0.65945723513E+02  0.80610725599E+02  0.00000000000E+00 0. -1.
<mgrwt>
<rscale>  4 0.29280810E+03</rscale>
<asrwt>0</asrwt>
<pdfrwt beam="1">  1       21 0.12142632E+00 0.29280810E+03</pdfrwt>
<pdfrwt beam="2">  1       21 0.50718155E-01 0.29280810E+03</pdfrwt>
<totfact> 0.17558612E+03</totfact>
</mgrwt>
</event>
<event>
 5    0  0.2159162E+000  0.2693041E+03  0.7546771E-02  0.1101679E+00
         21   -1    0    0  502  501  0.00000000000E+00  0.00000000000E+00  0.47670177127E+03  0.47670177127E+03  0.00000000000E+00 0. -1.
         21   -1    0    0  503  502 -0.00000000000E+00 -0.00000000000E+00 -0.69755953010E+03  0.69755953010E+03  0.00000000000E+00 0. -1.
         25    1    1    2    0    0 -0.70040403989E+02 -0.22916096763E+03  0.41055478173E+03  0.49152887614E+03  0.12500000000E+03 0.  0.
         21    1    1    2  503  504 -0.14359464456E+02  0.23170213982E+02 -0.25921382419E+02  0.37616101631E+02  0.00000000000E+00 0.  1.
         21    1    1    2  504  501  0.84399868445E+02  0.20599075365E+03 -0.60549115814E+03  0.64511632359E+03  0.00000000000E+00 0. -1.
<mgrwt>
<rscale>  4 0.26930411E+03</rscale>
<asrwt>0</asrwt>
<pdfrwt beam="1">  1       21 0.73338734E-01 0.26930411E+03</pdfrwt>
<pdfrwt beam="2">  1       21 0.10731685E+00 0.26930411E+03</pdfrwt>
<totfact> 0.10851635E+03</totfact>
</mgrwt>
</event>
<event>
 5    0  0.3033720E+000  0.2401363E+03  0.7546771E-02  0.1119702E+00
         21   -1    0    0  502  501  0.00000000000E+00  0.00000000000E+00  0.99269659150E+03  0.99269659150E+03  0.00000000000E+00 0.  1.
         21   -1    0    0  503  502 -0.00000000000E+00 -0.00000000000E+00 -0.52123547178E+02  0.52123547178E+02  0.00000000000E+00 0.  1.
         25    1    1    2    0    0  0.95695624297E+02 -0.18133611544E+03  0.59247530386E+03  0.63929056379E+03  0.12500000000E+03 0.  0.
         21    1    1    2  503  504 -0.18569342730E+02  0.12694442386E+02  0.33724408172E+02  0.40537699287E+02  0.00000000000E+00 0.  1.
         21    1    1    2  504  501 -0.77126281567E+02  0.16864167305E+03  0.31437333229E+03  0.36499187560E+03  0.00000000000E+00 0.  1.
<mgrwt>
<rscale>  4 0.24013629E+03</rscale>
<asrwt>0</asrwt>
<pdfrwt beam="1">  1       21 0.15272254E+00 0.24013629E+03</pdfrwt>
<pdfrwt beam="2">  1       21 0.80190080E-02 0.24013629E+03</pdfrwt>
<totfact> 0.33146472E+04</totfact>
</mgrwt>
</event>
