<event>
 5    0  0.1531977E+001  0.3235379E+03  0.7546771E-02  0.1074032E+00
         21   -1    0    0  502  501  0.00000000000E+00  0.00000000000E+00  0.37050322029E+03  0.37050322029E+03  0.00000000000E+00 0.  1.
         21   -1    0    0  504  502 -0.00000000000E+00 -0.00000000000E+00 -0.45322840311E+03  0.45322840311E+03  0.00000000000E+00 0.  1.
         25    1    1    2    0    0  0.22679222121E+03 -0.16514601188E+03 -0.24572883998E+03  0.39333901363E+03  0.12500000000E+03 0.  0.
         21    1    1    2  503  501 -0.24512818175E+03  0.17770713938E+03  0.21666834317E+03  0.37230743184E+03  0.00000000000E+00 0.  1.
         21    1    1    2  504  503  0.18335960532E+02 -0.12561127503E+02 -0.53664686000E+02  0.58085177939E+02  0.00000000000E+00 0. -1.
<mgrwt>
<rscale>  4 0.32353788E+03</rscale>
<asrwt>0</asrwt>
<pdfrwt beam="1">  1       21 0.57000496E-01 0.32353788E+03</pdfrwt>
<pdfrwt beam="2">  1       21 0.69727446E-01 0.32353788E+03</pdfrwt>
<totfact> 0.49919157E+03</totfact>
</mgrwt>
</event>
<event>
 5    0  0.1531977E+001  0.2821579E+03  0.7546771E-02  0.1094516E+00
         21   -1    0    0  502  501  0.00000000000E+00  0.00000000000E+00  0.17370142317E+04  0.17370142317E+04  0.00000000000E+00 0.  1.
         21   -1    0    0  504  502 -0.00000000000E+00 -0.00000000000E+00 -0.50761200291E+02  0.50761200291E+02  0.00000000000E+00 0.  1.
         25    1    1    2    0    0  0.20534968329E+03 -0.13175950959E+03  0.62741503987E+03  0.68469240761E+03  0.12500000000E+03 0.  0.
         21    1    1    2  503  501 -0.22711478626E+03  0.12268955946E+03  0.10435001785E+04  0.10749541742E+04  0.00000000000E+00 0.  1.
         21    1    1    2  504  503  0.21765102964E+02  0.90699501248E+01  0.15337813041E+02  0.28128850157E+02  0.00000000000E+00 0.  1.
<mgrwt>
<rscale>  4 0.28215791E+03</rscale>
<asrwt>0</asrwt>
<pdfrwt beam="1">  1       21 0.26723291E+00 0.28215791E+03</pdfrwt>
<pdfrwt beam="2">  1       21 0.78094168E-02 0.28215791E+03</pdfrwt>
<totfact> 0.61031270E+03</totfact>
</mgrwt>
</event>
<event>
 5    0  0.1531977E+001  0.4203856E+03  0.7546771E-02  0.1036941E+00
         21   -1    0    0  504  501  0.00000000000E+00  0.00000000000E+00  0.19623881741E+03  0.19623881741E+03  0.00000000000E+00 0.  1.
         21   -1    0    0  503  502 -0.00000000000E+00 -0.00000000000E+00 -0.11637677394E+04  0.11637677394E+04  0.00000000000E+00 0.  1.
         25    1    1    2    0    0  0.40580526419E+03  0.92760931155E+02 -0.71988315973E+03  0.84091573089E+03  0.12500000000E+03 0.  0.
         21    1    1    2  503  501 -0.26070026410E+02  0.19398500828E+02 -0.85062733773E+02  0.91058315317E+02  0.00000000000E+00 0.  1.
         21    1    1    2  504  502 -0.37973523779E+03 -0.11215943198E+03 -0.16258302851E+03  0.42803251063E+03  0.00000000000E+00 0.  1.
<mgrwt>
<rscale>  4 0.42038555E+03</rscale>
<asrwt>0</asrwt>
<pdfrwt beam="1">  1       21 0.30190587E-01 0.42038555E+03</pdfrwt>
<pdfrwt beam="2">  1       21 0.17904119E+00 0.42038555E+03</pdfrwt>
<totfact> 0.16686816E+03</totfact>
</mgrwt>
</event>
<event>
 5    0  0.1531977E+001  0.2318301E+03  0.7546771E-02  0.1125358E+00
         21   -1    0    0  502  501  0.00000000000E+00  0.00000000000E+00  0.29328569424E+03  0.29328569424E+03  0.00000000000E+00 0. -1.
         21   -1    0    0  504  502 -0.00000000000E+00 -0.00000000000E+00 -0.71708590440E+03  0.71708590440E+03  0.00000000000E+00 0. -1.
         25    1    1    2    0    0 -0.22675999969E+03  0.78351605242E+02 -0.25315489836E+03  0.37050165191E+03  0.12500000000E+03 0.  0.
         21    1    1    2  503  501  0.48435693249E+02 -0.49899580433E+02  0.20856801861E+03  0.21985586846E+03  0.00000000000E+00 0. -1.
         21    1    1    2  504  503  0.17832430644E+03 -0.28452024810E+02 -0.37921333041E+03  0.42001407827E+03  0.00000000000E+00 0. -1.
<mgrwt>
<rscale>  4 0.23183012E+03</rscale>
<asrwt>0</asrwt>
<pdfrwt beam="1">  1       21 0.45120877E-01 0.23183012E+03</pdfrwt>
<pdfrwt beam="2">  1       21 0.11032091E+00 0.23183012E+03</pdfrwt>
<totfact> 0.29603964E+03</totfact>
</mgrwt>
</event>
<event>
 5    0  0.1531977E+001  0.2064868E+03  0.7546771E-02  0.1144379E+00
         21   -1    0    0  502  501  0.00000000000E+00  0.00000000000E+00  0.50318196049E+03  0.50318196049E+03  0.00000000000E+00 0. -1.
         21   -1    0    0  504  502 -0.00000000000E+00 -0.00000000000E+00 -0.32815670474E+03  0.32815670474E+03  0.00000000000E+00 0. -1.
         25    1    1    2    0    0 -0.15200758593E+03 -0.18996669967E+03  0.21329479316E+03  0.34686210798E+03  0.12500000000E+03 0.  0.
         21    1    1    2  503  501  0.33015506124E+02  0.86524067053E+02  0.18748716120E+03  0.20911210735E+03  0.00000000000E+00 0. -1.
         21    1    1    2  504  503  0.11899207980E+03  0.10344263262E+03 -0.22575669862E+03  0.27536444990E+03  0.00000000000E+00 0. -1.
<mgrwt>
<rscale>  4 0.20648679E+03</rscale>
<asrwt>0</asrwt>
<pdfrwt beam="1">  1       21 0.77412609E-01 0.20648679E+03</pdfrwt>
<pdfrwt beam="2">  1       21 0.50485647E-01 0.20648679E+03</pdfrwt>
<totfact> 0.54728145E+03</totfact>
</mgrwt>
</event>
<event>
 5    0  0.1531977E+001  0.3066680E+03  0.7546771E-02  0.1081954E+00
         21   -1    0    0  502  501  0.00000000000E+00  0.00000000000E+00  0.14252692790E+03  0.14252692790E+03  0.00000000000E+00 0.  1.
         21   -1    0    0  504  502 -0.00000000000E+00 -0.00000000000E+00 -0.18880750291E+04  0.18880750291E+04  0.00000000000E+00 0.  1.
         25    1    1    2    0    0  0.22443494495E+03 -0.10870718665E+03 -0.12518890172E+04  0.12825908967E+04  0.12500000000E+03 0.  0.
         21    1    1    2  503  501 -0.20553974493E+03  0.19817433981E+03 -0.43683951370E+02  0.28883895740E+03  0.00000000000E+00 0.  1.
         21    1    1    2  504  503 -0.18895200017E+02 -0.89467153160E+02 -0.44997513267E+03  0.45917210292E+03  0.00000000000E+00 0.  1.
<mgrwt>
<rscale>  4 0.30666798E+03</rscale>
<asrwt>0</asrwt>
<pdfrwt beam="1">  1       21 0.21927219E-01 0.30666798E+03</pdfrwt>
<pdfrwt beam="2">  1       21 0.29047309E+00 0.30666798E+03</pdfrwt>
<totfact> 0.66549645E+02</totfact>
</mgrwt>
</event>
<event>
 5    0  0.1531977E+001  0.2971663E+03  0.7546771E-02  0.1086666E+00
         21   -1    0    0  503  501  0.00000000000E+00  0.00000000000E+00  0.17134646919E+03  0.17134646919E+03  0.00000000000E+00 0. -1.
         21   -1    0    0  504  502 -0.00000000000E+00 -0.00000000000E+00 -0.95641245706E+03  0.95641245706E+03  0.00000000000E+00 0. -1.
         25    1    1    2    0    0  0.26935934343E+03  0.11765824491E+03 -0.54229902148E+03  0.62937361494E+03  0.12500000000E+03 0.  0.
         21    1    1    2  503  502 -0.78320699802E+01 -0.73196110146E+02 -0.22016341361E+03  0.23214422360E+03  0.00000000000E+00 0. -1.
         21    1    1    2  504  501 -0.26152727345E+03 -0.44462134759E+02 -0.22603552784E+02  0.26624108771E+03  0.00000000000E+00 0. -1.
<mgrwt>
<rscale>  4 0.29716626E+03</rscale>
<asrwt>0</asrwt>
<pdfrwt beam="1">  1       21 0.26360996E-01 0.29716626E+03</pdfrwt>
<pdfrwt beam="2">  1       21 0.14714037E+00 0.29716626E+03</pdfrwt>
<totfact> 0.39968367E+03</totfact>
</mgrwt>
</event>
<event>
 5    0  0.1531977E+001  0.2430629E+03  0.7546771E-02  0.1117769E+00
         21   -1    0    0  504  501  0.00000000000E+00  0.00000000000E+00  0.31293503226E+03  0.31293503226E+03  0.00000000000E+00 0. -1.
         21   -1    0    0  503  502 -0.00000000000E+00 -0.00000000000E+00 -0.16977224306E+03  0.16977224306E+03  0.00000000000E+00 0. -1.
         25    1    1    2    0    0  0.20549706683E+03 -0.35007426734E+02  0.69111618054E+02  0.25269740828E+03  0.12500000000E+03 0.  0.
         21    1    1    2  503  501 -0.48384265238E+02  0.34736520535E+02  0.10255754716E+02  0.60438758147E+02  0.00000000000E+00 0.  1.
         21    1    1    2  504  502 -0.15711280159E+03  0.27090619928E+00  0.63795416432E+02  0.16957110889E+03  0.00000000000E+00 0. -1.
<mgrwt>
<rscale>  4 0.24306288E+03</rscale>
<asrwt>0</asrwt>
<pdfrwt beam="1">  1       21 0.48143851E-01 0.24306288E+03</pdfrwt>
<pdfrwt beam="2">  1       21 0.26118807E-01 0.24306288E+03</pdfrwt>
<totfact> 0.56165929E+04</totfact>
</mgrwt>
</event>
<event>
 5    0  0.1531977E+001  0.3742670E+03  0.7546771E-02  0.1053073E+00
         21   -1    0    0  503  501  0.00000000000E+00  0.00000000000E+00  0.54864422932E+03  0.54864422932E+03  0.00000000000E+00 0.  1.
         21   -1    0    0  504  502 -0.00000000000E+00 -0.00000000000E+00 -0.12521975366E+04  0.12521975366E+04  0.00000000000E+00 0.  1.
         25    1    1    2    0    0 -0.15721230795E+03  0.28228292039E+03  0.41857448560E+03  0.54334975560E+03  0.12500000000E+03 0.  0.
         21    1    1    2  503  502  0.16254211970E+03 -0.31495191795E+03 -0.11566092951E+04  0.12096940576E+04  0.00000000000E+00 0.  1.
         21    1    1    2  504  501 -0.53298117540E+01  0.32668997562E+02  0.34481502230E+02  0.47797952791E+02  0.00000000000E+00 0. -1.
<mgrwt>
<rscale>  4 0.37426700E+03</rscale>
<asrwt>0</asrwt>
<pdfrwt beam="1">  1       21 0.84406805E-01 0.37426700E+03</pdfrwt>
<pdfrwt beam="2">  1       21 0.19264577E+00 0.37426700E+03</pdfrwt>
<totfact> 0.15367320E+02</totfact>
</mgrwt>
</event>
<event>
 5    0  0.1531977E+001  0.2135885E+03  0.7546771E-02  0.1138755E+00
         21   -1    0    0  503  501  0.00000000000E+00  0.00000000000E+00  0.43044605929E+02  0.43044605929E+02  0.00000000000E+00 0.  1.
         21   -1    0    0  504  502 -0.00000000000E+00 -0.00000000000E+00 -0.20153089278E+04  0.20153089278E+04  0.00000000000E+00 0.  1.
         25    1    1    2    0    0  0.20947085967E+03  0.10354467577E+03 -0.12685999636E+04  0.12959824106E+04  0.12500000000E+03 0.  0.
         21    1    1    2  503  502 -0.10999040427E+03  0.25753929442E+02 -0.42214201635E+03  0.43699546437E+03  0.00000000000E+00 0.  1.
         21    1    1    2  504  501 -0.99480455399E+02 -0.12929860521E+03 -0.28152234194E+03  0.32537565878E+03  0.00000000000E+00 0.  1.
<mgrwt>
<rscale>  4 0.21358851E+03</rscale>
<asrwt>0</asrwt>
<pdfrwt beam="1">  1       21 0.66222465E-02 0.21358851E+03</pdfrwt>
<pdfrwt beam="2">  1       21 0.31004755E+00 0.21358851E+03</pdfrwt>
<totfact> 0.48562775E+03</totfact>
</mgrwt>
</event>
<event>
 5    0  0.1531977E+001  0.2115847E+03  0.7546771E-02  0.1140317E+00
         21   -1    0    0  503  501  0.00000000000E+00  0.00000000000E+00  0.10037948785E+04  0.10037948785E+04  0.00000000000E+00 0.  1.
         21   -1    0    0  504  502 -0.00000000000E+00 -0.00000000000E+00 -0.15985920667E+03  0.15985920667E+03  0.00000000000E+00 0.  1.
         25    1    1    2    0    0  0.50587102704E+02 -0.22910931671E+03  0.35219042700E+02  0.26817068246E+03  0.12500000000E+03 0.  0.
         21    1    1    2  503  502 -0.23951325144E+02  0.12519389964E+03  0.63170823086E+02  0.14225938062E+03  0.00000000000E+00 0.  1.
         21    1    1    2  504  501 -0.26635777560E+02  0.10391541706E+03  0.74554580600E+03  0.75322402205E+03  0.00000000000E+00 0.  1.
<mgrwt>
<rscale>  4 0.21158472E+03</rscale>
<asrwt>0</asrwt>
<pdfrwt beam="1">  1       21 0.15442998E+00 0.21158472E+03</pdfrwt>
<pdfrwt beam="2">  1       21 0.24593725E-01 0.21158472E+03</pdfrwt>
<totfact> 0.42562832E+03</totfact>
</mgrwt>
</event>
<event>
 5    0  0.1531977E+001  0.3048088E+03  0.7546771E-02  0.1082861E+00
         21   -1    0    0  502  501  0.00000000000E+00  0.00000000000E+00  0.14814283692E+04  0.14814283692E+04  0.00000000000E+00 0. -1.
         21   -1    0    0  504  502 -0.00000000000E+00 -0.00000000000E+00 -0.54512879761E+03  0.54512879761E+03  0.00000000000E+00 0.  1.
         25    1    1    2    0    0 -0.20729893947E+03  0.33620055266E+03  0.25184180860E+03  0.48482260516E+03  0.12500000000E+03 0.  0.
         21    1    1    2  503  501  0.27263711543E+02 -0.14106459288E+03  0.10666996000E+04  0.10763319962E+04  0.00000000000E+00 0. -1.
         21    1    1    2  504  503  0.18003522793E+03 -0.19513595978E+03 -0.38224183696E+03  0.46540256554E+03  0.00000000000E+00 0.  1.
<mgrwt>
<rscale>  4 0.30480879E+03</rscale>
<asrwt>0</asrwt>
<pdfrwt beam="1">  1       21 0.22791206E+00 0.30480879E+03</pdfrwt>
<pdfrwt beam="2">  1       21 0.83865969E-01 0.30480879E+03</pdfrwt>
<totfact> 0.97590723E+01</totfact>
</mgrwt>
</event>
<event>
 5    0  0.1531977E+001  0.2361371E+03  0.7546771E-02  0.1122393E+00
         21   -1    0    0  502  501  0.00000000000E+00  0.00000000000E+00  0.45022753359E+03  0.45022753359E+03  0.00000000000E+00 0. -1.
         21   -1    0    0  504  502 -0.00000000000E+00 -0.00000000000E+00 -0.16929187821E+03  0.16929187821E+03  0.00000000000E+00 0. -1.
         25    1    1    2    0    0 -0.18636549371E+03  0.93775750819E+02  0.29864030375E+03  0.38514545266E+03  0.12500000000E+03 0.  0.
         21    1    1    2  503  501 -0.37676763435E-03 -0.25138355550E+02  0.20122536582E+02  0.32200208049E+02  0.00000000000E+00 0. -1.
         21    1    1    2  504  503  0.18636587047E+03 -0.68637395269E+02 -0.37827184945E+02  0.20217375108E+03  0.00000000000E+00 0. -1.
<mgrwt>
<rscale>  4 0.23613708E+03</rscale>
<asrwt>0</asrwt>
<pdfrwt beam="1">  1       21 0.69265774E-01 0.23613708E+03</pdfrwt>
<pdfrwt beam="2">  1       21 0.26044905E-01 0.23613708E+03</pdfrwt>
<totfact> 0.25947637E+04</totfact>
</mgrwt>
</event>
<event>
 5    0  0.1531977E+001  0.2406342E+03  0.7546771E-02  0.1119371E+00
         21   -1    0    0  504  501  0.00000000000E+00  0.00000000000E+00  0.64781763940E+02  0.64781763940E+02  0.00000000000E+00 0.  1.
         21   -1    0    0  501  502 -0.00000000000E+00 -0.00000000000E+00 -0.12440119945E+04  0.12440119945E+04  0.00000000000E+00 0.  1.
         25    1    1    2    0    0 -0.50141758988E+02  0.20742530892E+03 -0.27432345456E+03  0.36934782048E+03  0.12500000000E+03 0.  0.
         21    1    1    2  503  502 -0.26365748749E+01 -0.19417326912E+03 -0.63177674925E+03  0.66094785790E+03  0.00000000000E+00 0.  1.
         21    1    1    2  504  503  0.52778333863E+02 -0.13252039796E+02 -0.27313002679E+03  0.27849808010E+03  0.00000000000E+00 0.  1.
<mgrwt>
<rscale>  4 0.24063424E+03</rscale>
<asrwt>0</asrwt>
<pdfrwt beam="1">  1       21 0.99664260E-02 0.24063424E+03</pdfrwt>
<pdfrwt beam="2">  1       21 0.19138645E+00 0.24063424E+03</pdfrwt>
<totfact> 0.12032652E+04</totfact>
</mgrwt>
</event>
<event>
 5    0  0.1531977E+001  0.2625558E+03  0.7546771E-02  0.1105617E+00
         21   -1    0    0  503  501  0.00000000000E+00  0.00000000000E+00  0.30334616541E+02  0.30334616541E+02  0.00000000000E+00 0.  1.
         21   -1    0    0  504  502 -0.00000000000E+00 -0.00000000000E+00 -0.29921677612E+04  0.29921677612E+04  0.00000000000E+00 0. -1.
         25    1    1    2    0    0 -0.50348539667E+02  0.20409071183E+03 -0.19970250600E+04  0.20119448513E+04  0.12500000000E+03 0.  0.
         21    1    1    2  503  502  0.32030417784E+02  0.33775600558E+02 -0.31337692861E+03  0.31681514837E+03  0.00000000000E+00 0.  1.
         21    1    1    2  504  501  0.18318121883E+02 -0.23786631238E+03 -0.65143115606E+03  0.69374237815E+03  0.00000000000E+00 0.  1.
<mgrwt>
<rscale>  4 0.26255584E+03</rscale>
<asrwt>0</asrwt>
<pdfrwt beam="1">  1       21 0.46668648E-02 0.26255584E+03</pdfrwt>
<pdfrwt beam="2">  1       21 0.46033344E+00 0.26255584E+03</pdfrwt>
<totfact> 0.97614803E+02</totfact>
</mgrwt>
</event>
<event>
 5    0  0.1531977E+001  0.1821269E+03  0.7546771E-02  0.1165760E+00
         21   -1    0    0  504  501  0.00000000000E+00  0.00000000000E+00  0.76397710125E+03  0.76397710125E+03  0.00000000000E+00 0. -1.
         21   -1    0    0  503  502 -0.00000000000E+00 -0.00000000000E+00 -0.19305139615E+03  0.19305139615E+03  0.00000000000E+00 0. -1.
         25    1    1    2    0    0  0.21154801103E+03  0.84042804391E+02  0.24438883645E+03  0.35660434282E+03  0.12500000000E+03 0.  0.
         21    1    1    2  503  501 -0.10601087119E+03 -0.63233227452E+02 -0.10104395260E+03  0.15951998690E+03  0.00000000000E+00 0. -1.
         21    1    1    2  504  502 -0.10553713984E+03 -0.20809576939E+02  0.42758082124E+03  0.44090416768E+03  0.00000000000E+00 0. -1.
<mgrwt>
<rscale>  4 0.18212690E+03</rscale>
<asrwt>0</asrwt>
<pdfrwt beam="1">  1       21 0.11753494E+00 0.18212690E+03</pdfrwt>
<pdfrwt beam="2">  1       21 0.29700215E-01 0.18212690E+03</pdfrwt>
<totfact> 0.60907222E+03</totfact>
</mgrwt>
</event>
<event>
 5    0  0.1531977E+001  0.3341738E+03  0.7546771E-02  0.1069305E+00
         21   -1    0    0  503  501  0.00000000000E+00  0.00000000000E+00  0.33272975270E+03  0.33272975270E+03  0.00000000000E+00 0.  1.
         21   -1    0    0  504  502 -0.00000000000E+00 -0.00000000000E+00 -0.10011393685E+04  0.10011393685E+04  0.00000000000E+00 0.  1.
         25    1    1    2    0    0 -0.29308926164E+03 -0.12848399377E+03 -0.85076654186E+03  0.91751738986E+03  0.12500000000E+03 0.  0.
         21    1    1    2  503  502  0.10265705479E+03 -0.15039610204E+02 -0.17495451870E+02  0.10521763925E+03  0.00000000000E+00 0.  1.
         21    1    1    2  504  501  0.19043220685E+03  0.14352360397E+03  0.19985237793E+03  0.31113409210E+03  0.00000000000E+00 0.  1.
<mgrwt>
<rscale>  4 0.33417377E+03</rscale>
<asrwt>0</asrwt>
<pdfrwt beam="1">  1       21 0.51189193E-01 0.33417377E+03</pdfrwt>
<pdfrwt beam="2">  1       21 0.15402144E+00 0.33417377E+03</pdfrwt>
<totfact> 0.90274846E+02</totfact>
</mgrwt>
</event>
<event>
 5    0  0.1531977E+001  0.2655805E+03  0.7546771E-02  0.1103836E+00
         21   -1    0    0  503  501  0.00000000000E+00  0.00000000000E+00  0.56545629393E+03  0.56545629393E+03  0.00000000000E+00 0.  1.
         21   -1    0    0  504  502 -0.00000000000E+00 -0.00000000000E+00 -0.13035262819E+03  0.13035262819E+03  0.00000000000E+00 0.  1.
         25    1    1    2    0    0  0.24428586617E+03  0.11003783941E+02  0.18661747705E+03  0.33203576677E+03  0.12500000000E+03 0.  0.
         21    1    1    2  503  502 -0.22547436948E+03 -0.31736950525E+01  0.16921845495E+03  0.28192844682E+03  0.00000000000E+00 0.  1.
         21    1    1    2  504  501 -0.18811496691E+02 -0.78300888883E+01  0.79267733751E+02  0.81844708526E+02  0.00000000000E+00 0.  1.
<mgrwt>
<rscale>  4 0.26558049E+03</rscale>
<asrwt>0</asrwt>
<pdfrwt beam="1">  1       21 0.86993275E-01 0.26558049E+03</pdfrwt>
<pdfrwt beam="2">  1       21 0.20054251E-01 0.26558049E+03</pdfrwt>
<totfact> 0.25134084E+04</totfact>
</mgrwt>
</event>
<event>
 5    0  0.1531977E+001  0.3991474E+03  0.7546771E-02  0.1044075E+00
         21   -1    0    0  502  501  0.00000000000E+00  0.00000000000E+00  0.45069148243E+03  0.45069148243E+03  0.00000000000E+00 0. -1.
         21   -1    0    0  504  502 -0.00000000000E+00 -0.00000000000E+00 -0.41740626308E+03  0.41740626308E+03  0.00000000000E+00 0. -1.
         25    1    1    2    0    0 -0.28221586358E+03  0.27323920018E+03 -0.76948552404E+02  0.41934655583E+03  0.12500000000E+03 0.  0.
         21    1    1    2  503  501  0.26586676022E+03 -0.26040160742E+03  0.15208272131E+03  0.40202398617E+03  0.00000000000E+00 0. -1.
         21    1    1    2  504  503  0.16349103360E+02 -0.12837592760E+02 -0.41848949560E+02  0.46727203510E+02  0.00000000000E+00 0. -1.
<mgrwt>
<rscale>  4 0.39914741E+03</rscale>
<asrwt>0</asrwt>
<pdfrwt beam="1">  1       21 0.69337151E-01 0.39914741E+03</pdfrwt>
<pdfrwt beam="2">  1       21 0.64216348E-01 0.39914741E+03</pdfrwt>
<totfact> 0.37729265E+03</totfact>
</mgrwt>
</event>
<event>
 5    0  0.1531977E+001  0.4112037E+03  0.7546771E-02  0.1039968E+00
         21   -1    0    0  502  501  0.00000000000E+00  0.00000000000E+00  0.33957732358E+03  0.33957732358E+03  0.00000000000E+00 0.  1.
         21   -1    0    0  504  502 -0.00000000000E+00 -0.00000000000E+00 -0.52600128887E+03  0.52600128887E+03  0.00000000000E+00 0. -1.
         25    1    1    2    0    0 -0.18348966187E+03  0.34611412448E+03  0.98353975154E+01  0.41132125914E+03  0.12500000000E+03 0.  0.
         21    1    1    2  503  501  0.18370040918E+03 -0.27461533641E+03 -0.12482040765E+03  0.35318487721E+03  0.00000000000E+00 0.  1.
         21    1    1    2  504  503 -0.21074731543E+00 -0.71498788073E+02 -0.71438955155E+02  0.10107247610E+03  0.00000000000E+00 0.  1.
<mgrwt>
<rscale>  4 0.41120365E+03</rscale>
<asrwt>0</asrwt>
<pdfrwt beam="1">  1       21 0.52242665E-01 0.41120365E+03</pdfrwt>
<pdfrwt beam="2">  1       21 0.80923275E-01 0.41120365E+03</pdfrwt>
<totfact> 0.41377151E+03</totfact>
</mgrwt>
</event>
<event>
 5    0  0.1531977E+001  0.1938600E+03  0.7546771E-02  0.1155025E+00
         21   -1    0    0  502  501  0.00000000000E+00  0.00000000000E+00  0.17475677090E+03  0.17475677090E+03  0.00000000000E+00 0. -1.
         21   -1    0    0  504  502 -0.00000000000E+00 -0.00000000000E+00 -0.47590517943E+03  0.47590517943E+03  0.00000000000E+00 0. -1.
         25    1    1    2    0    0 -0.41870920528E+02 -0.20268669931E+03 -0.12364734406E+03  0.27156718829E+03  0.12500000000E+03 0.  0.
         21    1    1    2  503  501  0.38646408908E+02  0.12850984505E+03  0.47349003633E+02  0.14230338485E+03  0.00000000000E+00 0. -1.
         21    1    1    2  504  503  0.32245116207E+01  0.74176854262E+02 -0.22485006810E+03  0.23679137718E+03  0.00000000000E+00 0. -1.
<mgrwt>
<rscale>  4 0.19385996E+03</rscale>
<asrwt>0</asrwt>
<pdfrwt beam="1">  1       21 0.26885657E-01 0.19385996E+03</pdfrwt>
<pdfrwt beam="2">  1       21 0.73216181E-01 0.19385996E+03</pdfrwt>
<totfact> 0.22089078E+04</totfact>
</mgrwt>
</event>
<event>
 5    0  0.1531977E+001  0.2456447E+03  0.7546771E-02  0.1116089E+00
         21   -1    0    0  502  501  0.00000000000E+00  0.00000000000E+00  0.72203018294E+02  0.72203018294E+02  0.00000000000E+00 0.  1.
         21   -1    0    0  504  502 -0.00000000000E+00 -0.00000000000E+00 -0.10323441324E+04  0.10323441324E+04  0.00000000000E+00 0.  1.
         25    1    1    2    0    0  0.16407030558E+03 -0.15510428165E+03 -0.53723623766E+03  0.59600686105E+03  0.12500000000E+03 0.  0.
         21    1    1    2  503  501 -0.15605734998E+03  0.13330393239E+03 -0.20739218397E+03  0.29177963062E+03  0.00000000000E+00 0.  1.
         21    1    1    2  504  503 -0.80129555969E+01  0.21800349259E+02 -0.21551269246E+03  0.21676065901E+03  0.00000000000E+00 0.  1.
<mgrwt>
<rscale>  4 0.24564470E+03</rscale>
<asrwt>0</asrwt>
<pdfrwt beam="1">  1       21 0.11108156E-01 0.24564470E+03</pdfrwt>
<pdfrwt beam="2">  1       21 0.15882218E+00 0.24564470E+03</pdfrwt>
<totfact> 0.16709410E+04</totfact>
</mgrwt>
</event>
<event>
 5    0  0.1531977E+001  0.2295278E+03  0.7546771E-02  0.1126973E+00
         21   -1    0    0  502  501  0.00000000000E+00  0.00000000000E+00  0.26805812568E+03  0.26805812568E+03  0.00000000000E+00 0. -1.
         21   -1    0    0  504  502 -0.00000000000E+00 -0.00000000000E+00 -0.26768380265E+03  0.26768380265E+03  0.00000000000E+00 0. -1.
         25    1    1    2    0    0  0.31127829598E+01 -0.20489383179E+03  0.78311354589E+02  0.25248532627E+03  0.12500000000E+03 0.  0.
         21    1    1    2  503  501  0.77635452273E+02  0.38402760774E+02 -0.15661799033E+02  0.88018903842E+02  0.00000000000E+00 0. -1.
         21    1    1    2  504  503 -0.80748235232E+02  0.16649107102E+03 -0.62275232519E+02  0.19523769822E+03  0.00000000000E+00 0. -1.
<mgrwt>
<rscale>  4 0.22952777E+03</rscale>
<asrwt>0</asrwt>
<pdfrwt beam="1">  1       21 0.41239712E-01 0.22952777E+03</pdfrwt>
<pdfrwt beam="2">  1       21 0.41182123E-01 0.22952777E+03</pdfrwt>
<totfact> 0.31547990E+04</totfact>
</mgrwt>
</event>
<event>
 5    0  0.1531977E+001  0.2197602E+03  0.7546771E-02  0.1134062E+00
         21   -1    0    0  502  501  0.00000000000E+00  0.00000000000E+00  0.23866780437E+03  0.23866780437E+03  0.00000000000E+00 0. -1.
         21   -1    0    0  504  502 -0.00000000000E+00 -0.00000000000E+00 -0.10454674342E+04  0.10454674342E+04  0.00000000000E+00 0.  1.
         25    1    1    2    0    0  0.20855237234E+03  0.57891128574E+01 -0.60319966298E+03  0.65038637690E+03  0.12500000000E+03 0.  0.
         21    1    1    2  503  501 -0.17392327798E+03  0.44453791346E+02  0.17474066888E+03  0.25051895647E+03  0.00000000000E+00 0. -1.
         21    1    1    2  504  503 -0.34629094366E+02 -0.50242904203E+02 -0.37834063575E+03  0.38322990522E+03  0.00000000000E+00 0.  1.
<mgrwt>
<rscale>  4 0.21976022E+03</rscale>
<asrwt>0</asrwt>
<pdfrwt beam="1">  1       21 0.36718124E-01 0.21976022E+03</pdfrwt>
<pdfrwt beam="2">  1       21 0.16084114E+00 0.21976022E+03</pdfrwt>
<totfact> 0.17300626E+03</totfact>
</mgrwt>
</event>
<event>
 5    0  0.1531977E+001  0.2654929E+03  0.7546771E-02  0.1103887E+00
         21   -1    0    0  502  501  0.00000000000E+00  0.00000000000E+00  0.66937727752E+03  0.66937727752E+03  0.00000000000E+00 0. -1.
         21   -1    0    0  504  502 -0.00000000000E+00 -0.00000000000E+00 -0.31396190785E+03  0.31396190785E+03  0.00000000000E+00 0. -1.
         25    1    1    2    0    0 -0.26884138994E+03 -0.11658276344E+03 -0.14969767186E+03  0.35199662873E+03  0.12500000000E+03 0.  0.
         21    1    1    2  503  501  0.20577118484E+03  0.99544967455E+02  0.51668870638E+03  0.56499398258E+03  0.00000000000E+00 0. -1.
         21    1    1    2  504  503  0.63070205099E+02  0.17037795981E+02 -0.11575664853E+02  0.66348574061E+02  0.00000000000E+00 0. -1.
<mgrwt>
<rscale>  4 0.26549291E+03</rscale>
<asrwt>0</asrwt>
<pdfrwt beam="1">  1       21 0.10298112E+00 0.26549291E+03</pdfrwt>
<pdfrwt beam="2">  1       21 0.48301832E-01 0.26549291E+03</pdfrwt>
<totfact> 0.29678217E+03</totfact>
</mgrwt>
</event>
<event>
 5    0  0.1531977E+001  0.4665262E+03  0.7546771E-02  0.1022905E+00
         21   -1    0    0  503  501  0.00000000000E+00  0.00000000000E+00  0.25352175623E+03  0.25352175623E+03  0.00000000000E+00 0. -1.
         21   -1    0    0  501  502 -0.00000000000E+00 -0.00000000000E+00 -0.11625194750E+04  0.11625194750E+04  0.00000000000E+00 0. -1.
         25    1    1    2    0    0  0.44352676734E+03 -0.78458273804E+02 -0.45625495450E+03  0.65319620145E+03  0.12500000000E+03 0.  0.
         21    1    1    2  503  504 -0.45471555896E+03 -0.45133326874E+02 -0.44605581844E+03  0.63856796813E+03  0.00000000000E+00 0. -1.
         21    1    1    2  504  502  0.11188791618E+02  0.12359160068E+03 -0.66869458719E+01  0.12427706169E+03  0.00000000000E+00 0. -1.
<mgrwt>
<rscale>  4 0.46652619E+03</rscale>
<asrwt>0</asrwt>
<pdfrwt beam="1">  1       21 0.39003347E-01 0.46652619E+03</pdfrwt>
<pdfrwt beam="2">  1       21 0.17884915E+00 0.46652619E+03</pdfrwt>
<totfact> 0.97809057E+02</totfact>
</mgrwt>
</event>
<event>
 5    0  0.1531977E+001  0.1943830E+03  0.7546771E-02  0.1154566E+00
         21   -1    0    0  502  501  0.00000000000E+00  0.00000000000E+00  0.86534847780E+03  0.86534847780E+03  0.00000000000E+00 0. -1.
         21   -1    0    0  504  502 -0.00000000000E+00 -0.00000000000E+00 -0.14854804385E+03  0.14854804385E+03  0.00000000000E+00 0. -1.
         25    1    1    2    0    0 -0.17961771980E+03  0.10857816093E+03  0.37316311501E+03  0.44601283917E+03  0.12500000000E+03 0.  0.
         21    1    1    2  503  501  0.73107044169E+02 -0.14269351563E+02  0.40583837698E+03  0.41261730760E+03  0.00000000000E+00 0. -1.
         21    1    1    2  504  503  0.10651067563E+03 -0.94308809369E+02 -0.62201058049E+02  0.15526637488E+03  0.00000000000E+00 0. -1.
<mgrwt>
<rscale>  4 0.19438304E+03</rscale>
<asrwt>0</asrwt>
<pdfrwt beam="1">  1       21 0.13313053E+00 0.19438304E+03</pdfrwt>
<pdfrwt beam="2">  1       21 0.22853546E-01 0.19438304E+03</pdfrwt>
<totfact> 0.73019676E+03</totfact>
</mgrwt>
</event>
<event>
 5    0  0.1531977E+001  0.3895747E+03  0.7546771E-02  0.1047451E+00
         21   -1    0    0  504  501  0.00000000000E+00  0.00000000000E+00  0.60831286183E+03  0.60831286183E+03  0.00000000000E+00 0.  1.
         21   -1    0    0  503  502 -0.00000000000E+00 -0.00000000000E+00 -0.62576127080E+03  0.62576127080E+03  0.00000000000E+00 0. -1.
         25    1    1    2    0    0 -0.14967603172E+03 -0.29051151332E+03 -0.44455982165E+03  0.56573694317E+03  0.12500000000E+03 0.  0.
         21    1    1    2  503  501 -0.53585982357E+02 -0.24226721870E+02 -0.38809246307E+02  0.70459556886E+02  0.00000000000E+00 0.  1.
         21    1    1    2  504  502  0.20326201408E+03  0.31473823519E+03  0.46592065899E+03  0.59787763257E+03  0.00000000000E+00 0.  1.
<mgrwt>
<rscale>  4 0.38957470E+03</rscale>
<asrwt>0</asrwt>
<pdfrwt beam="1">  1       21 0.93586594E-01 0.38957470E+03</pdfrwt>
<pdfrwt beam="2">  1       21 0.96270965E-01 0.38957470E+03</pdfrwt>
<totfact> 0.74795160E+02</totfact>
</mgrwt>
</event>
<event>
 5    0  0.1531977E+001  0.2266086E+03  0.7546771E-02  0.1129050E+00
         21   -1    0    0  502  501  0.00000000000E+00  0.00000000000E+00  0.33950125331E+03  0.33950125331E+03  0.00000000000E+00 0. -1.
         21   -1    0    0  504  502 -0.00000000000E+00 -0.00000000000E+00 -0.25489681919E+03  0.25489681919E+03  0.00000000000E+00 0. -1.
         25    1    1    2    0    0 -0.94642892595E+02 -0.18269540152E+03  0.19664202011E+03  0.31085039960E+03  0.12500000000E+03 0.  0.
         21    1    1    2  503  501  0.21101215397E+02  0.11687699980E+02  0.37625625944E+02  0.44693974423E+02  0.00000000000E+00 0.  1.
         21    1    1    2  504  503  0.73541677197E+02  0.17100770154E+03 -0.14966321194E+03  0.23885369848E+03  0.00000000000E+00 0. -1.
<mgrwt>
<rscale>  4 0.22660859E+03</rscale>
<asrwt>0</asrwt>
<pdfrwt beam="1">  1       21 0.52230962E-01 0.22660859E+03</pdfrwt>
<pdfrwt beam="2">  1       21 0.39214895E-01 0.22660859E+03</pdfrwt>
<totfact> 0.21388442E+04</totfact>
</mgrwt>
</event>
<event>
 5    0  0.1531977E+001  0.2816085E+03  0.7546771E-02  0.1094814E+00
         21   -1    0    0  504  501  0.00000000000E+00  0.00000000000E+00  0.67658097252E+03  0.67658097252E+03  0.00000000000E+00 0. -1.
         21   -1    0    0  503  502 -0.00000000000E+00 -0.00000000000E+00 -0.30578167901E+03  0.30578167901E+03  0.00000000000E+00 0. -1.
         25    1    1    2    0    0 -0.24984293414E+03  0.12848983859E+03 -0.75007948711E+02  0.31651591229E+03  0.12500000000E+03 0.  0.
         21    1    1    2  503  501  0.20101233088E+03 -0.10046728182E+03  0.84493142426E+01  0.22488001866E+03  0.00000000000E+00 0. -1.
         21    1    1    2  504  502  0.48830603263E+02 -0.28022556765E+02  0.43735792798E+03  0.44096672059E+03  0.00000000000E+00 0. -1.
<mgrwt>
<rscale>  4 0.28160849E+03</rscale>
<asrwt>0</asrwt>
<pdfrwt beam="1">  1       21 0.10408938E+00 0.28160849E+03</pdfrwt>
<pdfrwt beam="2">  1       21 0.47043335E-01 0.28160849E+03</pdfrwt>
<totfact> 0.30254365E+03</totfact>
</mgrwt>
</event>
<event>
 5    0  0.1531977E+001  0.3098340E+03  0.7546771E-02  0.1080425E+00
         21   -1    0    0  502  501  0.00000000000E+00  0.00000000000E+00  0.39908347786E+03  0.39908347786E+03  0.00000000000E+00 0. -1.
         21   -1    0    0  504  502 -0.00000000000E+00 -0.00000000000E+00 -0.33402863164E+03  0.33402863164E+03  0.00000000000E+00 0. -1.
         25    1    1    2    0    0 -0.26701487054E+03  0.43388704524E+02 -0.14528597451E+03  0.33153059460E+03  0.12500000000E+03 0.  0.
         21    1    1    2  503  501  0.28784498742E+03 -0.83657581833E+01  0.21662760432E+03  0.36035016532E+03  0.00000000000E+00 0. -1.
         21    1    1    2  504  503 -0.20830116884E+02 -0.35022946340E+02 -0.62867835831E+01  0.41231349573E+02  0.00000000000E+00 0.  1.
<mgrwt>
<rscale>  4 0.30983404E+03</rscale>
<asrwt>0</asrwt>
<pdfrwt beam="1">  1       21 0.61397458E-01 0.30983404E+03</pdfrwt>
<pdfrwt beam="2">  1       21 0.51389021E-01 0.30983404E+03</pdfrwt>
<totfact> 0.83000469E+03</totfact>
</mgrwt>
</event>
<event>
 5    0  0.1531977E+001  0.2910797E+03  0.7546771E-02  0.1089787E+00
         21   -1    0    0  504  501  0.00000000000E+00  0.00000000000E+00  0.71719535224E+03  0.71719535224E+03  0.00000000000E+00 0. -1.
         21   -1    0    0  503  502 -0.00000000000E+00 -0.00000000000E+00 -0.13926653719E+03  0.13926653719E+03  0.00000000000E+00 0. -1.
         25    1    1    2    0    0  0.31328859466E+02  0.24605822567E+03  0.11512671084E+03  0.30067475352E+03  0.12500000000E+03 0.  0.
         21    1    1    2  503  501 -0.64353514088E+01  0.21507509149E+02  0.22382592739E+01  0.22560950824E+02  0.00000000000E+00 0. -1.
         21    1    1    2  504  502 -0.24893508057E+02 -0.26756573482E+03  0.46056384494E+03  0.53322618508E+03  0.00000000000E+00 0. -1.
<mgrwt>
<rscale>  4 0.29107966E+03</rscale>
<asrwt>0</asrwt>
<pdfrwt beam="1">  1       21 0.11033774E+00 0.29107966E+03</pdfrwt>
<pdfrwt beam="2">  1       21 0.21425621E-01 0.29107966E+03</pdfrwt>
<totfact> 0.12433049E+04</totfact>
</mgrwt>
</event>
<event>
 5    0  0.1531977E+001  0.2523981E+03  0.7546771E-02  0.1111799E+00
         21   -1    0    0  502  501  0.00000000000E+00  0.00000000000E+00  0.34124398891E+03  0.34124398891E+03  0.00000000000E+00 0.  1.
         21   -1    0    0  504  502 -0.00000000000E+00 -0.00000000000E+00 -0.34300337373E+03  0.34300337373E+03  0.00000000000E+00 0.  1.
         25    1    1    2    0    0  0.91810910213E+02  0.23874021707E+03 -0.13196457254E+03  0.31379257940E+03  0.12500000000E+03 0.  0.
         21    1    1    2  503  501 -0.59007683084E+02 -0.20345926696E+03  0.19620347531E+03  0.28874449553E+03  0.00000000000E+00 0.  1.
         21    1    1    2  504  503 -0.32803227129E+02 -0.35280950117E+02 -0.65998287594E+02  0.81710287704E+02  0.00000000000E+00 0. -1.
<mgrwt>
<rscale>  4 0.25239805E+03</rscale>
<asrwt>0</asrwt>
<pdfrwt beam="1">  1       21 0.52499075E-01 0.25239805E+03</pdfrwt>
<pdfrwt beam="2">  1       21 0.52769750E-01 0.25239805E+03</pdfrwt>
<totfact> 0.11294979E+04</totfact>
</mgrwt>
</event>
<event>
 5    0  0.1531977E+001  0.3303000E+03  0.7546771E-02  0.1071004E+00
         21   -1    0    0  503  501  0.00000000000E+00  0.00000000000E+00  0.15819991874E+04  0.15819991874E+04  0.00000000000E+00 0.  1.
         21   -1    0    0  504  502 -0.00000000000E+00 -0.00000000000E+00 -0.11677383751E+04  0.11677383751E+04  0.00000000000E+00 0. -1.
         25    1    1    2    0    0  0.31332143539E+03  0.15876538875E+03 -0.94049657438E+03  0.10116993511E+04  0.12500000000E+03 0.  0.
         21    1    1    2  503  502 -0.49173995706E+02 -0.62049541209E+01 -0.17308538495E+03  0.18004203341E+03  0.00000000000E+00 0. -1.
         21    1    1    2  504  501 -0.26414743969E+03 -0.15256043463E+03  0.15278427716E+04  0.15579961780E+04  0.00000000000E+00 0.  1.
<mgrwt>
<rscale>  4 0.33029998E+03</rscale>
<asrwt>0</asrwt>
<pdfrwt beam="1">  1       21 0.24338449E+00 0.33029998E+03</pdfrwt>
<pdfrwt beam="2">  1       21 0.17965206E+00 0.33029998E+03</pdfrwt>
<totfact> 0.10955668E+01</totfact>
</mgrwt>
</event>
<event>
 5    0  0.1531977E+001  0.2850751E+03  0.7546771E-02  0.1092949E+00
         21   -1    0    0  502  501  0.00000000000E+00  0.00000000000E+00  0.66868784754E+03  0.66868784754E+03  0.00000000000E+00 0. -1.
         21   -1    0    0  504  502 -0.00000000000E+00 -0.00000000000E+00 -0.26241828159E+03  0.26241828159E+03  0.00000000000E+00 0.  1.
         25    1    1    2    0    0 -0.96642588017E+02  0.20118815066E+03 -0.11925846426E+03  0.28224819411E+03  0.12500000000E+03 0.  0.
         21    1    1    2  503  501  0.77900330219E+02 -0.24961794207E+03  0.53554120899E+03  0.59597144645E+03  0.00000000000E+00 0. -1.
         21    1    1    2  504  503  0.18742257798E+02  0.48429791408E+02 -0.10013178783E+02  0.52886488563E+02  0.00000000000E+00 0.  1.
<mgrwt>
<rscale>  4 0.28507507E+03</rscale>
<asrwt>0</asrwt>
<pdfrwt beam="1">  1       21 0.10287505E+00 0.28507507E+03</pdfrwt>
<pdfrwt beam="2">  1       21 0.40372044E-01 0.28507507E+03</pdfrwt>
<totfact> 0.42594607E+03</totfact>
</mgrwt>
</event>
<event>
 5    0  0.1531977E+001  0.3857227E+03  0.7546771E-02  0.1048839E+00
         21   -1    0    0  503  501  0.00000000000E+00  0.00000000000E+00  0.49899762158E+03  0.49899762158E+03  0.00000000000E+00 0. -1.
         21   -1    0    0  504  502 -0.00000000000E+00 -0.00000000000E+00 -0.13476495018E+04  0.13476495018E+04  0.00000000000E+00 0. -1.
         25    1    1    2    0    0  0.12380479588E+02  0.45798170605E+03  0.12866951331E+03  0.49201764502E+03  0.12500000000E+03 0.  0.
         21    1    1    2  503  502  0.72440129433E+00 -0.35661341257E+03 -0.11221007543E+04  0.11774055179E+04  0.00000000000E+00 0. -1.
         21    1    1    2  504  501 -0.13104880882E+02 -0.10136829348E+03  0.14477936082E+03  0.17722396041E+03  0.00000000000E+00 0. -1.
<mgrwt>
<rscale>  4 0.38572266E+03</rscale>
<asrwt>0</asrwt>
<pdfrwt beam="1">  1       21 0.76768867E-01 0.38572266E+03</pdfrwt>
<pdfrwt beam="2">  1       21 0.20733069E+00 0.38572266E+03</pdfrwt>
<totfact> 0.15165984E+02</totfact>
</mgrwt>
</event>
<event>
 5    0  0.1531977E+001  0.3565414E+03  0.7546771E-02  0.1059962E+00
         21   -1    0    0  503  501  0.00000000000E+00  0.00000000000E+00  0.10647136673E+04  0.10647136673E+04  0.00000000000E+00 0.  1.
         21   -1    0    0  504  502 -0.00000000000E+00 -0.00000000000E+00 -0.37360256118E+03  0.37360256118E+03  0.00000000000E+00 0. -1.
         25    1    1    2    0    0  0.31792305188E+03 -0.10964560943E+03  0.77528418023E+03  0.85427617706E+03  0.12500000000E+03 0.  0.
         21    1    1    2  503  502 -0.32417451486E+03  0.79568571971E+02 -0.24895954143E+03  0.41641460949E+03  0.00000000000E+00 0. -1.
         21    1    1    2  504  501  0.62514629797E+01  0.30077037463E+02  0.16478646728E+03  0.16762544189E+03  0.00000000000E+00 0. -1.
<mgrwt>
<rscale>  4 0.35654144E+03</rscale>
<asrwt>0</asrwt>
<pdfrwt beam="1">  1       21 0.16380210E+00 0.35654144E+03</pdfrwt>
<pdfrwt beam="2">  1       21 0.57477318E-01 0.35654144E+03</pdfrwt>
<totfact> 0.58672496E+02</totfact>
</mgrwt>
</event>
<event>
 5    0  0.1531977E+001  0.3500437E+03  0.7546771E-02  0.1062597E+00
         21   -1    0    0  504  501  0.00000000000E+00  0.00000000000E+00  0.13816964359E+04  0.13816964359E+04  0.00000000000E+00 0.  1.
         21   -1    0    0  501  502 -0.00000000000E+00 -0.00000000000E+00 -0.18420746578E+03  0.18420746578E+03  0.00000000000E+00 0.  1.
         25    1    1    2    0    0 -0.26455458701E+03 -0.17801367716E+03  0.59792809875E+02  0.34767539297E+03  0.12500000000E+03 0.  0.
         21    1    1    2  503  502  0.32893591642E+03  0.16895142142E+03  0.99208680181E+03  0.10587632607E+04  0.00000000000E+00 0.  1.
         21    1    1    2  504  503 -0.64381329410E+02  0.90622557355E+01  0.14560935841E+03  0.15946524797E+03  0.00000000000E+00 0.  1.
<mgrwt>
<rscale>  4 0.35004373E+03</rscale>
<asrwt>0</asrwt>
<pdfrwt beam="1">  1       21 0.21256868E+00 0.35004373E+03</pdfrwt>
<pdfrwt beam="2">  1       21 0.28339611E-01 0.35004373E+03</pdfrwt>
<totfact> 0.11690233E+03</totfact>
</mgrwt>
</event>
<event>
 5    0  0.1531977E+001  0.2324705E+03  0.7546771E-02  0.1124913E+00
         21   -1    0    0  502  501  0.00000000000E+00  0.00000000000E+00  0.67747159898E+03  0.67747159898E+03  0.00000000000E+00 0.  1.
         21   -1    0    0  504  502 -0.00000000000E+00 -0.00000000000E+00 -0.11081113099E+03  0.11081113099E+03  0.00000000000E+00 0.  1.
         25    1    1    2    0    0  0.20592113759E+03 -0.73111722774E+01  0.41506092816E+03  0.47995577112E+03  0.12500000000E+03 0.  0.
         21    1    1    2  503  501 -0.13742906409E+02 -0.14605946384E+02  0.10826667997E+03  0.11010846988E+03  0.00000000000E+00 0.  1.
         21    1    1    2  504  503 -0.19217823118E+03  0.21917118662E+02  0.43332859855E+02  0.19821848898E+03  0.00000000000E+00 0.  1.
<mgrwt>
<rscale>  4 0.23247050E+03</rscale>
<asrwt>0</asrwt>
<pdfrwt beam="1">  1       21 0.10422640E+00 0.23247050E+03</pdfrwt>
<pdfrwt beam="2">  1       21 0.17047867E-01 0.23247050E+03</pdfrwt>
<totfact> 0.22557028E+04</totfact>
</mgrwt>
</event>
<event>
 5    0  0.1531977E+001  0.2481122E+03  0.7546771E-02  0.1114504E+00
         21   -1    0    0  502  501  0.00000000000E+00  0.00000000000E+00  0.38947973563E+03  0.38947973563E+03  0.00000000000E+00 0.  1.
         21   -1    0    0  504  502 -0.00000000000E+00 -0.00000000000E+00 -0.24871123629E+03  0.24871123629E+03  0.00000000000E+00 0.  1.
         25    1    1    2    0    0 -0.21118467536E+03  0.10052500325E+03 -0.11318854935E+02  0.26543805278E+03  0.12500000000E+03 0.  0.
         21    1    1    2  503  501  0.20299745335E+03 -0.50866143896E+02  0.20969580870E+03  0.29625607647E+03  0.00000000000E+00 0.  1.
         21    1    1    2  504  503  0.81872220183E+01 -0.49658859355E+02 -0.57608454427E+02  0.76496842669E+02  0.00000000000E+00 0.  1.
<mgrwt>
<rscale>  4 0.24811220E+03</rscale>
<asrwt>0</asrwt>
<pdfrwt beam="1">  1       21 0.59919960E-01 0.24811220E+03</pdfrwt>
<pdfrwt beam="2">  1       21 0.38263267E-01 0.24811220E+03</pdfrwt>
<totfact> 0.16584789E+04</totfact>
</mgrwt>
</event>
