<event>
 5    0  0.1856407E+000  0.2482318E+03  0.7546771E-02  0.1114427E+00
         21   -1    0    0  502  501  0.00000000000E+00  0.00000000000E+00  0.70319236160E+03  0.70319236160E+03  0.00000000000E+00 0. -1.
         21   -1    0    0  503  502 -0.00000000000E+00 -0.00000000000E+00 -0.25009710398E+03  0.25009710398E+03  0.00000000000E+00 0. -1.
         25    1    1    2    0    0  0.21258204037E+03 -0.38187532548E+02  0.61583178431E+03  0.66447211988E+03  0.12500000000E+03 0.  0.
         21    1    1    2  503  504 -0.11067398621E+02  0.23668388810E+02  0.45392726280E+01  0.26519519926E+02  0.00000000000E+00 0.  1.
         21    1    1    2  504  501 -0.20151464175E+03  0.14519143737E+02 -0.16727579931E+03  0.26229782578E+03  0.00000000000E+00 0. -1.
<mgrwt>
<rscale>  4 0.24823176E+03</rscale>
<asrwt>0</asrwt>
<pdfrwt beam="1">  1       21 0.10818344E+00 0.24823176E+03</pdfrwt>
<pdfrwt beam="2">  1       21 0.38476478E-01 0.24823176E+03</pdfrwt>
<totfact> 0.42504915E+03</totfact>
</mgrwt>
</event>
<event>
 5    0  0.1856407E+000  0.2635390E+03  0.7546771E-02  0.1105035E+00
         21   -1    0    0  502  501  0.00000000000E+00  0.00000000000E+00  0.45553880412E+02  0.45553880412E+02  0.00000000000E+00 0.  1.
         21   -1    0    0  503  502 -0.00000000000E+00 -0.00000000000E+00 -0.17658767473E+04  0.17658767473E+04  0.00000000000E+00 0.  1.
         25    1    1    2    0    0 -0.71720629767E+02  0.22423291052E+03 -0.78924184646E+03  0.83303777771E+03  0.12500000000E+03 0.  0.
         21    1    1    2  503  504  0.65521566876E+02  0.90791853562E+01 -0.24092405171E+03  0.24983976070E+03  0.00000000000E+00 0.  1.
         21    1    1    2  504  501  0.61990628913E+01 -0.23331209588E+03 -0.69015696874E+03  0.72855308933E+03  0.00000000000E+00 0.  1.
<mgrwt>
<rscale>  4 0.26353897E+03</rscale>
<asrwt>0</asrwt>
<pdfrwt beam="1">  1       21 0.70082887E-02 0.26353897E+03</pdfrwt>
<pdfrwt beam="2">  1       21 0.27167337E+00 0.26353897E+03</pdfrwt>
<totfact> 0.70390674E+03</totfact>
</mgrwt>
</event>
<event>
 5    0  0.1856407E+000  0.2572934E+03  0.7546771E-02  0.1108780E+00
         21   -1    0    0  502  501  0.00000000000E+00  0.00000000000E+00  0.12704181295E+03  0.12704181295E+03  0.00000000000E+00 0. -1.
         21   -1    0    0  503  502 -0.00000000000E+00 -0.00000000000E+00 -0.50033187652E+03  0.50033187652E+03  0.00000000000E+00 0.  1.
         25    1    1    2    0    0 -0.21430190820E+03  0.68187736476E+02 -0.12224464149E+03  0.28485720570E+03  0.12500000000E+03 0.  0.
         21    1    1    2  503  504  0.17600587226E+03 -0.69226470693E+02 -0.23319908018E+03  0.30025353006E+03  0.00000000000E+00 0.  1.
         21    1    1    2  504  501  0.38296035942E+02  0.10387342172E+01 -0.17846341903E+02  0.42262953718E+02  0.00000000000E+00 0. -1.
<mgrwt>
<rscale>  4 0.25729336E+03</rscale>
<asrwt>0</asrwt>
<pdfrwt beam="1">  1       21 0.19544895E-01 0.25729336E+03</pdfrwt>
<pdfrwt beam="2">  1       21 0.76974133E-01 0.25729336E+03</pdfrwt>
<totfact> 0.35033475E+04</totfact>
</mgrwt>
</event>
<event>
 5    0  0.1856407E+000  0.3653706E+03  0.7546771E-02  0.1057361E+00
         21   -1    0    0  502  501  0.00000000000E+00  0.00000000000E+00  0.14511141453E+04  0.14511141453E+04  0.00000000000E+00 0. -1.
         21   -1    0    0  503  502 -0.00000000000E+00 -0.00000000000E+00 -0.12623190875E+03  0.12623190875E+03  0.00000000000E+00 0. -1.
         25    1    1    2    0    0  0.32907085355E+03 -0.55718941983E+02  0.10805511690E+04  0.11378084443E+04  0.12500000000E+03 0.  0.
         21    1    1    2  503  504 -0.14512440633E+03 -0.21614834008E+02  0.36032907609E+02  0.15108495885E+03  0.00000000000E+00 0. -1.
         21    1    1    2  504  501 -0.18394644722E+03  0.77333775991E+02  0.20829815993E+03  0.28845265085E+03  0.00000000000E+00 0. -1.
<mgrwt>
<rscale>  4 0.36310563E+03</rscale>
<asrwt>0</asrwt>
<pdfrwt beam="1">  1       21 0.22324832E+00 0.36537055E+03</pdfrwt>
<pdfrwt beam="2">  1       21 0.19420295E-01 0.36537055E+03</pdfrwt>
<totfact> 0.20513005E+03</totfact>
</mgrwt>
</event>
<event>
 5    0  0.1856407E+000  0.3945217E+03  0.7546771E-02  0.1046657E+00
         21   -1    0    0  502  501  0.00000000000E+00  0.00000000000E+00  0.16694994605E+04  0.16694994605E+04  0.00000000000E+00 0.  1.
         21   -1    0    0  503  502 -0.00000000000E+00 -0.00000000000E+00 -0.90792562482E+02  0.90792562482E+02  0.00000000000E+00 0. -1.
         25    1    1    2    0    0  0.14929695011E+03 -0.33066922243E+03  0.75027418111E+03  0.84271469716E+03  0.12500000000E+03 0.  0.
         21    1    1    2  503  504 -0.71070051537E+02  0.24541393585E+03  0.69762024042E+03  0.74293536191E+03  0.00000000000E+00 0. -1.
         21    1    1    2  504  501 -0.78226898576E+02  0.85255286586E+02  0.13081247649E+03  0.17464196391E+03  0.00000000000E+00 0. -1.
<mgrwt>
<rscale>  4 0.39179832E+03</rscale>
<asrwt>0</asrwt>
<pdfrwt beam="1">  1       21 0.25684605E+00 0.39452171E+03</pdfrwt>
<pdfrwt beam="2">  1       21 0.13968088E-01 0.39452171E+03</pdfrwt>
<totfact> 0.23150851E+03</totfact>
</mgrwt>
</event>
<event>
 5    0  0.1856407E+000  0.2375242E+03  0.7546771E-02  0.1121453E+00
         21   -1    0    0  502  501  0.00000000000E+00  0.00000000000E+00  0.74713200902E+03  0.74713200902E+03  0.00000000000E+00 0. -1.
         21   -1    0    0  503  502 -0.00000000000E+00 -0.00000000000E+00 -0.91311911780E+02  0.91311911780E+02  0.00000000000E+00 0. -1.
         25    1    1    2    0    0  0.18960377953E+03  0.69592739801E+02  0.53610551119E+03  0.58636751425E+03  0.12500000000E+03 0.  0.
         21    1    1    2  503  504 -0.10222502516E+03 -0.31645321035E+02  0.11070639682E+02  0.10758225307E+03  0.00000000000E+00 0. -1.
         21    1    1    2  504  501 -0.87378754364E+02 -0.37947418766E+02  0.10864394636E+03  0.14449415347E+03  0.00000000000E+00 0. -1.
<mgrwt>
<rscale>  4 0.23752419E+03</rscale>
<asrwt>0</asrwt>
<pdfrwt beam="1">  1       21 0.11494338E+00 0.23752419E+03</pdfrwt>
<pdfrwt beam="2">  1       21 0.14047987E-01 0.23752419E+03</pdfrwt>
<totfact> 0.25287026E+04</totfact>
</mgrwt>
</event>
<event>
 5    0  0.1856407E+000  0.3908904E+03  0.7546771E-02  0.1046980E+00
         21   -1    0    0  502  501  0.00000000000E+00  0.00000000000E+00  0.52048341183E+03  0.52048341183E+03  0.00000000000E+00 0.  1.
         21   -1    0    0  503  502 -0.00000000000E+00 -0.00000000000E+00 -0.84774561136E+03  0.84774561136E+03  0.00000000000E+00 0. -1.
         25    1    1    2    0    0 -0.32918507743E+03 -0.17951932802E+03  0.38437264802E+03  0.55132325987E+03  0.12500000000E+03 0.  0.
         21    1    1    2  503  504  0.28368614436E+03  0.16968545983E+03 -0.69098040203E+03  0.76597969931E+03  0.00000000000E+00 0. -1.
         21    1    1    2  504  501  0.45498933075E+02  0.98338681909E+01 -0.20654445524E+02  0.50926063999E+02  0.00000000000E+00 0. -1.
<mgrwt>
<rscale>  4 0.39089039E+03</rscale>
<asrwt>0</asrwt>
<pdfrwt beam="1">  1       21 0.80074372E-01 0.39089039E+03</pdfrwt>
<pdfrwt beam="2">  1       21 0.13042240E+00 0.39089039E+03</pdfrwt>
<totfact> 0.50588048E+02</totfact>
</mgrwt>
</event>
<event>
 5    0  0.1856407E+000  0.4524905E+03  0.7546771E-02  0.1027354E+00
         21   -1    0    0  502  501  0.00000000000E+00  0.00000000000E+00  0.78365158292E+03  0.78365158292E+03  0.00000000000E+00 0.  1.
         21   -1    0    0  503  502 -0.00000000000E+00 -0.00000000000E+00 -0.28002323604E+03  0.28002323604E+03  0.00000000000E+00 0. -1.
         25    1    1    2    0    0 -0.16654088550E+03 -0.39609884742E+03  0.39831390637E+03  0.59909025320E+03  0.12500000000E+03 0.  0.
         21    1    1    2  503  504  0.59405500789E+02  0.13358384260E+03  0.10678897990E+03  0.18104569245E+03  0.00000000000E+00 0. -1.
         21    1    1    2  504  501  0.10713538471E+03  0.26251500482E+03 -0.14745393814E+01  0.28353887331E+03  0.00000000000E+00 0.  1.
<mgrwt>
<rscale>  4 0.45123740E+03</rscale>
<asrwt>0</asrwt>
<pdfrwt beam="1">  1       21 0.12056178E+00 0.45249054E+03</pdfrwt>
<pdfrwt beam="2">  1       21 0.43080498E-01 0.45249054E+03</pdfrwt>
<totfact> 0.23322037E+03</totfact>
</mgrwt>
</event>
<event>
 5    0  0.1856407E+000  0.3035849E+03  0.7546771E-02  0.1083462E+00
         21   -1    0    0  502  501  0.00000000000E+00  0.00000000000E+00  0.42901260116E+03  0.42901260116E+03  0.00000000000E+00 0. -1.
         21   -1    0    0  503  502 -0.00000000000E+00 -0.00000000000E+00 -0.14312384072E+04  0.14312384072E+04  0.00000000000E+00 0. -1.
         25    1    1    2    0    0 -0.19917174203E+03  0.19170762715E+03  0.35327833614E+03  0.46567346920E+03  0.12500000000E+03 0.  0.
         21    1    1    2  503  504  0.22889986253E+03 -0.16697457064E+03 -0.10877133510E+04  0.11240088915E+04  0.00000000000E+00 0. -1.
         21    1    1    2  504  501 -0.29728120502E+02 -0.24733056512E+02 -0.26779079118E+03  0.27056864762E+03  0.00000000000E+00 0.  1.
<mgrwt>
<rscale>  4 0.30358487E+03</rscale>
<asrwt>0</asrwt>
<pdfrwt beam="1">  1       21 0.66001939E-01 0.30358487E+03</pdfrwt>
<pdfrwt beam="2">  1       21 0.22019052E+00 0.30358487E+03</pdfrwt>
<totfact> 0.18741119E+02</totfact>
</mgrwt>
</event>
<event>
 5    0  0.1856407E+000  0.2452457E+03  0.7546771E-02  0.1116347E+00
         21   -1    0    0  502  501  0.00000000000E+00  0.00000000000E+00  0.12769439115E+03  0.12769439115E+03  0.00000000000E+00 0.  1.
         21   -1    0    0  503  502 -0.00000000000E+00 -0.00000000000E+00 -0.11109990995E+04  0.11109990995E+04  0.00000000000E+00 0.  1.
         25    1    1    2    0    0  0.20691972231E+03  0.41287779628E+02 -0.14435435957E+02  0.24567017328E+03  0.12500000000E+03 0.  0.
         21    1    1    2  503  504 -0.22895987666E+02 -0.23266927867E+02 -0.15853387913E+03  0.16185971400E+03  0.00000000000E+00 0.  1.
         21    1    1    2  504  501 -0.18402373464E+03 -0.18020851761E+02 -0.81033539322E+03  0.83116360334E+03  0.00000000000E+00 0.  1.
<mgrwt>
<rscale>  4 0.24524570E+03</rscale>
<asrwt>0</asrwt>
<pdfrwt beam="1">  1       21 0.19645292E-01 0.24524570E+03</pdfrwt>
<pdfrwt beam="2">  1       21 0.17092293E+00 0.24524570E+03</pdfrwt>
<totfact> 0.48114607E+03</totfact>
</mgrwt>
</event>
<event>
 5    0  0.1856407E+000  0.2645833E+03  0.7546771E-02  0.1104420E+00
         21   -1    0    0  502  501  0.00000000000E+00  0.00000000000E+00  0.40900396279E+03  0.40900396279E+03  0.00000000000E+00 0. -1.
         21   -1    0    0  503  502 -0.00000000000E+00 -0.00000000000E+00 -0.40711415602E+03  0.40711415602E+03  0.00000000000E+00 0. -1.
         25    1    1    2    0    0 -0.12046969554E+03  0.30070842784E+03  0.16947293694E+03  0.38637363067E+03  0.12500000000E+03 0.  0.
         21    1    1    2  503  504  0.82029915259E+02 -0.20258316356E+03 -0.22166277950E+03  0.31129284118E+03  0.00000000000E+00 0. -1.
         21    1    1    2  504  501  0.38439780284E+02 -0.98125264283E+02  0.54079649331E+02  0.11845164697E+03  0.00000000000E+00 0. -1.
<mgrwt>
<rscale>  4 0.26458327E+03</rscale>
<asrwt>0</asrwt>
<pdfrwt beam="1">  1       21 0.62923687E-01 0.26458327E+03</pdfrwt>
<pdfrwt beam="2">  1       21 0.62632947E-01 0.26458327E+03</pdfrwt>
<totfact> 0.52626143E+03</totfact>
</mgrwt>
</event>
<event>
 5    0  0.2932419E+000  0.3757785E+03  0.7546771E-02  0.1052505E+00
         21   -1    0    0  502  501  0.00000000000E+00  0.00000000000E+00  0.11508391802E+04  0.11508391802E+04  0.00000000000E+00 0. -1.
         21   -1    0    0  503  502 -0.00000000000E+00 -0.00000000000E+00 -0.12508399026E+03  0.12508399026E+03  0.00000000000E+00 0. -1.
         25    1    1    2    0    0 -0.27840112800E+03  0.21926537418E+03  0.68703309566E+03  0.78308618103E+03  0.12500000000E+03 0.  0.
         21    1    1    2  503  504  0.30942038209E+02 -0.11009567159E+02  0.46623826518E+02  0.57029829885E+02  0.00000000000E+00 0. -1.
         21    1    1    2  504  501  0.24745908979E+03 -0.20825580702E+03  0.29209826777E+03  0.43580715955E+03  0.00000000000E+00 0. -1.
<mgrwt>
<rscale>  4 0.37577852E+03</rscale>
<asrwt>0</asrwt>
<pdfrwt beam="1">  1       21 0.17705217E+00 0.37577852E+03</pdfrwt>
<pdfrwt beam="2">  1       21 0.19243692E-01 0.37577852E+03</pdfrwt>
<totfact> 0.42049331E+03</totfact>
</mgrwt>
</event>
