<event>
 5    0  0.3086470E+000  0.2767760E+03  0.7546771E-02  0.1097463E+00
         21   -1    0    0  502  501  0.00000000000E+00  0.00000000000E+00  0.14503620905E+03  0.14503620905E+03  0.00000000000E+00 0.  1.
         21   -1    0    0  503  502 -0.00000000000E+00 -0.00000000000E+00 -0.49910430439E+03  0.49910430439E+03  0.00000000000E+00 0.  1.
         25    1    1    2    0    0  0.23931927474E+03 -0.60878835510E+02 -0.13368591240E+03  0.30737090144E+03  0.12500000000E+03 0.  0.
         21    1    1    2  503  504 -0.20187785526E+03  0.73193080321E+02 -0.17828677489E+03  0.27910225644E+03  0.00000000000E+00 0.  1.
         21    1    1    2  504  501 -0.37441419482E+02 -0.12314244811E+02 -0.42095408041E+02  0.57667355551E+02  0.00000000000E+00 0.  1.
<mgrwt>
<rscale>  4 0.27677599E+03</rscale>
<asrwt>0</asrwt>
<pdfrwt beam="1">  1       21 0.22313263E-01 0.27677599E+03</pdfrwt>
<pdfrwt beam="2">  1       21 0.76785277E-01 0.27677599E+03</pdfrwt>
<totfact> 0.27203709E+04</totfact>
</mgrwt>
</event>
<event>
 5    0  0.2535592E+000  0.2396587E+03  0.7546771E-02  0.1120020E+00
         21   -1    0    0  502  501  0.00000000000E+00  0.00000000000E+00  0.13242074549E+04  0.13242074549E+04  0.00000000000E+00 0.  1.
         21   -1    0    0  503  502 -0.00000000000E+00 -0.00000000000E+00 -0.61869538710E+02  0.61869538710E+02  0.00000000000E+00 0.  1.
         25    1    1    2    0    0  0.57752738337E+02  0.20582444213E+03  0.10310432307E+04  0.10603651368E+04  0.12500000000E+03 0.  0.
         21    1    1    2  503  504 -0.71014806819E+02 -0.18973547349E+03  0.18258348638E+03  0.27272583704E+03  0.00000000000E+00 0.  1.
         21    1    1    2  504  501  0.13262068482E+02 -0.16088968633E+02  0.48711199026E+02  0.52986019691E+02  0.00000000000E+00 0.  1.
<mgrwt>
<rscale>  4 0.23965874E+03</rscale>
<asrwt>0</asrwt>
<pdfrwt beam="1">  1       21 0.20372420E+00 0.23965874E+03</pdfrwt>
<pdfrwt beam="2">  1       21 0.95183916E-02 0.23965874E+03</pdfrwt>
<totfact> 0.10850922E+04</totfact>
</mgrwt>
</event>
<event>
 5    0  0.1856407E+000  0.2619622E+03  0.7546771E-02  0.1105970E+00
         21   -1    0    0  502  501  0.00000000000E+00  0.00000000000E+00  0.44870875563E+03  0.44870875563E+03  0.00000000000E+00 0.  1.
         21   -1    0    0  503  502 -0.00000000000E+00 -0.00000000000E+00 -0.37009618571E+03  0.37009618571E+03  0.00000000000E+00 0.  1.
         25    1    1    2    0    0  0.18755407664E+03 -0.13350160148E+03  0.36258888634E+03  0.44731969525E+03  0.12500000000E+03 0.  0.
         21    1    1    2  503  504 -0.79557722780E+02  0.49102078289E+02 -0.16656318072E+03  0.19100716876E+03  0.00000000000E+00 0.  1.
         21    1    1    2  504  501 -0.10799635386E+03  0.84399523190E+02 -0.11741313569E+03  0.18047807732E+03  0.00000000000E+00 0.  1.
<mgrwt>
<rscale>  4 0.26196223E+03</rscale>
<asrwt>0</asrwt>
<pdfrwt beam="1">  1       21 0.69032117E-01 0.26196223E+03</pdfrwt>
<pdfrwt beam="2">  1       21 0.56937874E-01 0.26196223E+03</pdfrwt>
<totfact> 0.52832735E+03</totfact>
</mgrwt>
</event>
<event>
 5    0  0.1856407E+000  0.3320577E+03  0.7546771E-02  0.1070230E+00
         21   -1    0    0  502  501  0.00000000000E+00  0.00000000000E+00  0.41164951481E+03  0.41164951481E+03  0.00000000000E+00 0. -1.
         21   -1    0    0  503  502 -0.00000000000E+00 -0.00000000000E+00 -0.39362743808E+03  0.39362743808E+03  0.00000000000E+00 0.  1.
         25    1    1    2    0    0 -0.28198689187E+03  0.11184331641E+03  0.18147489094E+03  0.37494489015E+03  0.12500000000E+03 0.  0.
         21    1    1    2  503  504  0.26340956400E+03 -0.16360461658E+03 -0.19561058707E+03  0.36662592754E+03  0.00000000000E+00 0.  1.
         21    1    1    2  504  501  0.18577327870E+02  0.51761300169E+02  0.32157772867E+02  0.63706135197E+02  0.00000000000E+00 0.  1.
<mgrwt>
<rscale>  4 0.33205772E+03</rscale>
<asrwt>0</asrwt>
<pdfrwt beam="1">  1       21 0.63330694E-01 0.33205772E+03</pdfrwt>
<pdfrwt beam="2">  1       21 0.60558067E-01 0.33205772E+03</pdfrwt>
<totfact> 0.53962451E+03</totfact>
</mgrwt>
</event>
<event>
 5    0  0.1856407E+000  0.3108908E+03  0.7546771E-02  0.1079920E+00
         21   -1    0    0  502  501  0.00000000000E+00  0.00000000000E+00  0.13697930878E+03  0.13697930878E+03  0.00000000000E+00 0.  1.
         21   -1    0    0  503  502 -0.00000000000E+00 -0.00000000000E+00 -0.18977734599E+04  0.18977734599E+04  0.00000000000E+00 0. -1.
         25    1    1    2    0    0  0.88137995775E+02  0.27298702742E+03 -0.74525080041E+02  0.32166630379E+03  0.12500000000E+03 0.  0.
         21    1    1    2  503  504 -0.10754004970E+03 -0.24631146993E+03 -0.15196608771E+04  0.15432444342E+04  0.00000000000E+00 0. -1.
         21    1    1    2  504  501  0.19402053924E+02 -0.26675557495E+02 -0.16660819399E+03  0.16984203063E+03  0.00000000000E+00 0.  1.
<mgrwt>
<rscale>  4 0.31089082E+03</rscale>
<asrwt>0</asrwt>
<pdfrwt beam="1">  1       21 0.21073741E-01 0.31089082E+03</pdfrwt>
<pdfrwt beam="2">  1       21 0.29196514E+00 0.31089082E+03</pdfrwt>
<totfact> 0.70078361E+02</totfact>
</mgrwt>
</event>
<event>
 5    0  0.1856407E+000  0.1951336E+03  0.7546771E-02  0.1153911E+00
         21   -1    0    0  502  501  0.00000000000E+00  0.00000000000E+00  0.57383136763E+02  0.57383136763E+02  0.00000000000E+00 0. -1.
         21   -1    0    0  503  502 -0.00000000000E+00 -0.00000000000E+00 -0.98889296617E+03  0.98889296617E+03  0.00000000000E+00 0. -1.
         25    1    1    2    0    0  0.12046342001E+03  0.16338588650E+03 -0.47679945744E+03  0.53307514112E+03  0.12500000000E+03 0.  0.
         21    1    1    2  503  504 -0.36168092533E+02 -0.63792405774E+02 -0.52046212133E+02  0.89924469136E+02  0.00000000000E+00 0. -1.
         21    1    1    2  504  501 -0.84295327475E+02 -0.99593480726E+02 -0.40266415984E+03  0.42327649268E+03  0.00000000000E+00 0. -1.
<mgrwt>
<rscale>  4 0.19513361E+03</rscale>
<asrwt>0</asrwt>
<pdfrwt beam="1">  1       21 0.88281751E-02 0.19513361E+03</pdfrwt>
<pdfrwt beam="2">  1       21 0.15213738E+00 0.19513361E+03</pdfrwt>
<totfact> 0.29049642E+04</totfact>
</mgrwt>
</event>
<event>
 5    0  0.2449373E+000  0.2714378E+03  0.7546771E-02  0.1100460E+00
         21   -1    0    0  502  501  0.00000000000E+00  0.00000000000E+00  0.10357798281E+04  0.10357798281E+04  0.00000000000E+00 0.  1.
         21   -1    0    0  503  502 -0.00000000000E+00 -0.00000000000E+00 -0.69561628150E+02  0.69561628150E+02  0.00000000000E+00 0.  1.
         25    1    1    2    0    0  0.82415806411E+02 -0.22640921486E+03  0.59132302842E+03  0.65064692550E+03  0.12500000000E+03 0.  0.
         21    1    1    2  503  504 -0.36558785974E+02  0.33943357752E+02  0.33437518237E+02  0.60056340158E+02  0.00000000000E+00 0.  1.
         21    1    1    2  504  501 -0.45857020437E+02  0.19246585711E+03  0.34145765325E+03  0.39463819055E+03  0.00000000000E+00 0.  1.
<mgrwt>
<rscale>  4 0.27143783E+03</rscale>
<asrwt>0</asrwt>
<pdfrwt beam="1">  1       21 0.15935073E+00 0.27143783E+03</pdfrwt>
<pdfrwt beam="2">  1       21 0.10701790E-01 0.27143783E+03</pdfrwt>
<totfact> 0.17453161E+04</totfact>
</mgrwt>
</event>
<event>
 5    0  0.1856407E+000  0.3464434E+03  0.7546771E-02  0.1064084E+00
         21   -1    0    0  502  501  0.00000000000E+00  0.00000000000E+00  0.13212652045E+04  0.13212652045E+04  0.00000000000E+00 0. -1.
         21   -1    0    0  503  502 -0.00000000000E+00 -0.00000000000E+00 -0.23912697259E+03  0.23912697259E+03  0.00000000000E+00 0. -1.
         25    1    1    2    0    0 -0.15678782440E+02 -0.32272620647E+03  0.11655044554E+04  0.12159044634E+04  0.12500000000E+03 0.  0.
         21    1    1    2  503  504 -0.13659643400E+02  0.54956221602E+02 -0.45136509078E+02  0.72415996868E+02  0.00000000000E+00 0.  1.
         21    1    1    2  504  501  0.29338425840E+02  0.26776998487E+03 -0.38229714407E+02  0.27207171682E+03  0.00000000000E+00 0. -1.
<mgrwt>
<rscale>  4 0.34644340E+03</rscale>
<asrwt>0</asrwt>
<pdfrwt beam="1">  1       21 0.20327157E+00 0.34644340E+03</pdfrwt>
<pdfrwt beam="2">  1       21 0.36788766E-01 0.34644340E+03</pdfrwt>
<totfact> 0.79997067E+02</totfact>
</mgrwt>
</event>
<event>
 5    0  0.2340669E+000  0.2347011E+03  0.7546771E-02  0.1123374E+00
         21   -1    0    0  502  501  0.00000000000E+00  0.00000000000E+00  0.53728253927E+03  0.53728253927E+03  0.00000000000E+00 0. -1.
         21   -1    0    0  503  502 -0.00000000000E+00 -0.00000000000E+00 -0.21556054093E+03  0.21556054093E+03  0.00000000000E+00 0. -1.
         25    1    1    2    0    0  0.19163581301E+03  0.89990611994E+02  0.41599055591E+03  0.48321396677E+03  0.12500000000E+03 0.  0.
         21    1    1    2  503  504 -0.16061377491E+03 -0.44282316669E+02 -0.75089156187E+01  0.16677557397E+03  0.00000000000E+00 0. -1.
         21    1    1    2  504  501 -0.31022038097E+02 -0.45708295326E+02 -0.86759641950E+02  0.10285353947E+03  0.00000000000E+00 0. -1.
<mgrwt>
<rscale>  4 0.23470114E+03</rscale>
<asrwt>0</asrwt>
<pdfrwt beam="1">  1       21 0.82658852E-01 0.23470114E+03</pdfrwt>
<pdfrwt beam="2">  1       21 0.33163160E-01 0.23470114E+03</pdfrwt>
<totfact> 0.10883103E+04</totfact>
</mgrwt>
</event>
<event>
 5    0  0.1856407E+000  0.2739397E+03  0.7546771E-02  0.1099046E+00
         21   -1    0    0  502  501  0.00000000000E+00  0.00000000000E+00  0.40355511806E+03  0.40355511806E+03  0.00000000000E+00 0.  1.
         21   -1    0    0  503  502 -0.00000000000E+00 -0.00000000000E+00 -0.17608243292E+03  0.17608243292E+03  0.00000000000E+00 0.  1.
         25    1    1    2    0    0 -0.17885570207E+02  0.24310093009E+03  0.16843614345E+03  0.32157999044E+03  0.12500000000E+03 0.  0.
         21    1    1    2  503  504 -0.16308753861E+02 -0.87540025973E+02  0.40107696515E+02  0.97661962501E+02  0.00000000000E+00 0.  1.
         21    1    1    2  504  501  0.34194324068E+02 -0.15556090412E+03  0.18928845171E+02  0.16039559803E+03  0.00000000000E+00 0.  1.
<mgrwt>
<rscale>  4 0.27393969E+03</rscale>
<asrwt>0</asrwt>
<pdfrwt beam="1">  1       21 0.62085403E-01 0.27393969E+03</pdfrwt>
<pdfrwt beam="2">  1       21 0.27089605E-01 0.27393969E+03</pdfrwt>
<totfact> 0.30070419E+04</totfact>
</mgrwt>
</event>
<event>
 5    0  0.1856407E+000  0.2782686E+03  0.7546771E-02  0.1096638E+00
         21   -1    0    0  502  501  0.00000000000E+00  0.00000000000E+00  0.84993937167E+03  0.84993937167E+03  0.00000000000E+00 0. -1.
         21   -1    0    0  503  502 -0.00000000000E+00 -0.00000000000E+00 -0.18013569827E+03  0.18013569827E+03  0.00000000000E+00 0. -1.
         25    1    1    2    0    0  0.20962956268E+03 -0.16558751468E+03  0.64217041965E+03  0.70666231430E+03  0.12500000000E+03 0.  0.
         21    1    1    2  503  504 -0.10694739642E+03  0.15035032237E+03 -0.53000129646E+02  0.19196869219E+03  0.00000000000E+00 0. -1.
         21    1    1    2  504  501 -0.10268216627E+03  0.15237192312E+02  0.80633383401E+02  0.13144406346E+03  0.00000000000E+00 0. -1.
<mgrwt>
<rscale>  4 0.27826858E+03</rscale>
<asrwt>0</asrwt>
<pdfrwt beam="1">  1       21 0.13075990E+00 0.27826858E+03</pdfrwt>
<pdfrwt beam="2">  1       21 0.27713185E-01 0.27826858E+03</pdfrwt>
<totfact> 0.49880979E+03</totfact>
</mgrwt>
</event>
<event>
 5    0  0.1856407E+000  0.2436687E+03  0.7546771E-02  0.1117373E+00
         21   -1    0    0  502  501  0.00000000000E+00  0.00000000000E+00  0.10675336899E+04  0.10675336899E+04  0.00000000000E+00 0. -1.
         21   -1    0    0  503  502 -0.00000000000E+00 -0.00000000000E+00 -0.16529810050E+03  0.16529810050E+03  0.00000000000E+00 0. -1.
         25    1    1    2    0    0 -0.37931926343E+02 -0.20719042508E+03  0.96443472349E+03  0.99505077215E+03  0.12500000000E+03 0.  0.
         21    1    1    2  503  504  0.51832174155E+02  0.18904542658E+03 -0.76941421449E+02  0.21058188413E+03  0.00000000000E+00 0. -1.
         21    1    1    2  504  501 -0.13900247813E+02  0.18144998505E+02  0.14742287331E+02  0.27199134099E+02  0.00000000000E+00 0. -1.
<mgrwt>
<rscale>  4 0.24366871E+03</rscale>
<asrwt>0</asrwt>
<pdfrwt beam="1">  1       21 0.16423595E+00 0.24366871E+03</pdfrwt>
<pdfrwt beam="2">  1       21 0.25430478E-01 0.24366871E+03</pdfrwt>
<totfact> 0.32950297E+03</totfact>
</mgrwt>
</event>
<event>
 5    0  0.4853114E+000  0.2668681E+03  0.7546771E-02  0.1103086E+00
         21   -1    0    0  502  501  0.00000000000E+00  0.00000000000E+00  0.16227141643E+03  0.16227141643E+03  0.00000000000E+00 0. -1.
         21   -1    0    0  503  502 -0.00000000000E+00 -0.00000000000E+00 -0.52385554788E+03  0.52385554788E+03  0.00000000000E+00 0. -1.
         25    1    1    2    0    0 -0.23358772004E+03  0.68077947222E+02 -0.43122258022E+02  0.27691579765E+03  0.12500000000E+03 0.  0.
         21    1    1    2  503  504  0.21393594209E+03 -0.61403060089E+02 -0.23691899747E+03  0.32506850735E+03  0.00000000000E+00 0. -1.
         21    1    1    2  504  501  0.19651777952E+02 -0.66748871333E+01 -0.81542875959E+02  0.84142659303E+02  0.00000000000E+00 0.  1.
<mgrwt>
<rscale>  4 0.26686807E+03</rscale>
<asrwt>0</asrwt>
<pdfrwt beam="1">  1       21 0.24964833E-01 0.26686807E+03</pdfrwt>
<pdfrwt beam="2">  1       21 0.80593162E-01 0.26686807E+03</pdfrwt>
<totfact> 0.19742492E+04</totfact>
</mgrwt>
</event>
<event>
 5    0  0.2125657E+000  0.3021600E+03  0.7546771E-02  0.1084166E+00
         21   -1    0    0  502  501  0.00000000000E+00  0.00000000000E+00  0.25969642391E+03  0.25969642391E+03  0.00000000000E+00 0.  1.
         21   -1    0    0  503  502 -0.00000000000E+00 -0.00000000000E+00 -0.34738191045E+03  0.34738191045E+03  0.00000000000E+00 0.  1.
         25    1    1    2    0    0 -0.52038270041E+02  0.27012536694E+03  0.19044979992E+02  0.30275965166E+03  0.12500000000E+03 0.  0.
         21    1    1    2  503  504  0.68914740522E+02 -0.18959815279E+03 -0.87090461091E+02  0.21973040166E+03  0.00000000000E+00 0.  1.
         21    1    1    2  504  501 -0.16876470481E+02 -0.80527214149E+02 -0.19640005443E+02  0.84588281034E+02  0.00000000000E+00 0.  1.
<mgrwt>
<rscale>  4 0.30216005E+03</rscale>
<asrwt>0</asrwt>
<pdfrwt beam="1">  1       21 0.39953296E-01 0.30216005E+03</pdfrwt>
<pdfrwt beam="2">  1       21 0.53443371E-01 0.30216005E+03</pdfrwt>
<totfact> 0.18951494E+04</totfact>
</mgrwt>
</event>
<event>
 5    0  0.1856407E+000  0.5013029E+03  0.7546771E-02  0.1013439E+00
         21   -1    0    0  502  501  0.00000000000E+00  0.00000000000E+00  0.95334786909E+03  0.95334786909E+03  0.00000000000E+00 0. -1.
         21   -1    0    0  503  502 -0.00000000000E+00 -0.00000000000E+00 -0.42939420183E+03  0.42939420183E+03  0.00000000000E+00 0. -1.
         25    1    1    2    0    0  0.41685721793E+03 -0.26899305234E+03  0.36604932300E+03  0.62908211644E+03  0.12500000000E+03 0.  0.
         21    1    1    2  503  504 -0.79804095384E+02 -0.73807566030E+02 -0.14815596298E+03  0.18375646876E+03  0.00000000000E+00 0. -1.
         21    1    1    2  504  501 -0.33705312255E+03  0.34280061837E+03  0.30606030724E+03  0.56990348573E+03  0.00000000000E+00 0. -1.
<mgrwt>
<rscale>  4 0.50130293E+03</rscale>
<asrwt>0</asrwt>
<pdfrwt beam="1">  1       21 0.14666890E+00 0.50130293E+03</pdfrwt>
<pdfrwt beam="2">  1       21 0.66060647E-01 0.50130293E+03</pdfrwt>
<totfact> 0.54491207E+02</totfact>
</mgrwt>
</event>
<event>
 5    0  0.1856407E+000  0.3151129E+03  0.7546771E-02  0.1078637E+00
         21   -1    0    0  502  501  0.00000000000E+00  0.00000000000E+00  0.21010152531E+03  0.21010152531E+03  0.00000000000E+00 0.  1.
         21   -1    0    0  503  502 -0.00000000000E+00 -0.00000000000E+00 -0.47736795647E+03  0.47736795647E+03  0.00000000000E+00 0.  1.
         25    1    1    2    0    0 -0.20538543374E+03 -0.19421098175E+03 -0.73993664798E+02  0.31780677188E+03  0.12500000000E+03 0.  0.
         21    1    1    2  503  504  0.81999441662E+02  0.15924626145E+03 -0.15206088995E+03  0.23495913362E+03  0.00000000000E+00 0.  1.
         21    1    1    2  504  501  0.12338599208E+03  0.34964720297E+02 -0.41211876408E+02  0.13470357628E+03  0.00000000000E+00 0.  1.
<mgrwt>
<rscale>  4 0.31359195E+03</rscale>
<asrwt>0</asrwt>
<pdfrwt beam="1">  1       21 0.32323312E-01 0.31511293E+03</pdfrwt>
<pdfrwt beam="2">  1       21 0.73441223E-01 0.31511293E+03</pdfrwt>
<totfact> 0.14405746E+04</totfact>
</mgrwt>
</event>
