<event>
 5    0  0.3120399E-003  0.3542929E+03  0.7546771E-02  0.1060867E+00
         21   -1    0    0  503  501  0.00000000000E+00  0.00000000000E+00  0.47495341166E+03  0.47495341166E+03  0.00000000000E+00 0. -1.
         21   -1    0    0  501  502 -0.00000000000E+00 -0.00000000000E+00 -0.45824135514E+03  0.45824135514E+03  0.00000000000E+00 0. -1.
         25    1    1    2    0    0 -0.13388765888E+03  0.15596568389E+03  0.12071369958E+03  0.26916165592E+03  0.12500000000E+03 0.  0.
         21    1    1    2  503  504 -0.82639171647E+02  0.88375797155E+02  0.18962589158E+03  0.22493886496E+03  0.00000000000E+00 0. -1.
         21    1    1    2  504  502  0.21652683052E+03 -0.24434148104E+03 -0.29362753465E+03  0.43909424592E+03  0.00000000000E+00 0. -1.
<mgrwt>
<rscale>  4 0.35429286E+03</rscale>
<asrwt>0</asrwt>
<pdfrwt beam="1">  1       21 0.73069756E-01 0.35429286E+03</pdfrwt>
<pdfrwt beam="2">  1       21 0.70498670E-01 0.35429286E+03</pdfrwt>
<totfact> 0.27763944E+03</totfact>
</mgrwt>
</event>
<event>
 5    0  0.3120399E-003  0.3411569E+03  0.7546771E-02  0.1066304E+00
         21   -1    0    0  504  501  0.00000000000E+00  0.00000000000E+00  0.65803825379E+03  0.65803825379E+03  0.00000000000E+00 0.  1.
         21   -1    0    0  501  502 -0.00000000000E+00 -0.00000000000E+00 -0.18972612176E+03  0.18972612176E+03  0.00000000000E+00 0.  1.
         25    1    1    2    0    0 -0.26402022610E+03 -0.89039991350E+02  0.34339195251E+03  0.45954089360E+03  0.12500000000E+03 0.  0.
         21    1    1    2  503  502  0.51116099846E+02 -0.68596558188E+02 -0.17703289279E+02  0.87359887305E+02  0.00000000000E+00 0. -1.
         21    1    1    2  504  503  0.21290412625E+03  0.15763654954E+03  0.14262346881E+03  0.30086359464E+03  0.00000000000E+00 0.  1.
<mgrwt>
<rscale>  4 0.34115686E+03</rscale>
<asrwt>0</asrwt>
<pdfrwt beam="1">  1       21 0.10123665E+00 0.34115686E+03</pdfrwt>
<pdfrwt beam="2">  1       21 0.29188634E-01 0.34115686E+03</pdfrwt>
<totfact> 0.82553719E+03</totfact>
</mgrwt>
</event>
<event>
 5    0  0.3120399E-003  0.1407083E+03  0.7546771E-02  0.1212379E+00
         21   -1    0    0  503  501  0.00000000000E+00  0.00000000000E+00  0.48625443885E+03  0.48625443885E+03  0.00000000000E+00 0. -1.
         21   -1    0    0  501  502 -0.00000000000E+00 -0.00000000000E+00 -0.17588364490E+03  0.17588364490E+03  0.00000000000E+00 0. -1.
         25    1    1    2    0    0  0.15809255057E+03 -0.16268201026E+03  0.64461409376E+02  0.26690628375E+03  0.12500000000E+03 0.  0.
         21    1    1    2  503  504 -0.29218422869E+02 -0.27672303663E+02  0.13332471330E+03  0.13926575961E+03  0.00000000000E+00 0.  1.
         21    1    1    2  504  502 -0.12887412770E+03  0.19035431392E+03  0.11258467128E+03  0.25596604038E+03  0.00000000000E+00 0. -1.
<mgrwt>
<rscale>  4 0.14070831E+03</rscale>
<asrwt>0</asrwt>
<pdfrwt beam="1">  1       21 0.74808374E-01 0.14070831E+03</pdfrwt>
<pdfrwt beam="2">  1       21 0.27059023E-01 0.14070831E+03</pdfrwt>
<totfact> 0.21504410E+04</totfact>
</mgrwt>
</event>
<event>
 5    0  0.3120399E-003  0.4384618E+03  0.7546771E-02  0.1031220E+00
         21   -1    0    0  503  501  0.00000000000E+00  0.00000000000E+00  0.45972681966E+03  0.45972681966E+03  0.00000000000E+00 0. -1.
         21   -1    0    0  501  502 -0.00000000000E+00 -0.00000000000E+00 -0.50087893740E+03  0.50087893740E+03  0.00000000000E+00 0. -1.
         25    1    1    2    0    0 -0.24611961202E+03  0.13620122066E+02 -0.16670330685E+01  0.27638406276E+03  0.12500000000E+03 0.  0.
         21    1    1    2  503  504 -0.77715351517E+02  0.18274044596E+03  0.16106007092E+03  0.25568357964E+03  0.00000000000E+00 0. -1.
         21    1    1    2  504  502  0.32383496354E+03 -0.19636056803E+03 -0.20054515559E+03  0.42853811466E+03  0.00000000000E+00 0. -1.
<mgrwt>
<rscale>  4 0.43846175E+03</rscale>
<asrwt>0</asrwt>
<pdfrwt beam="1">  1       21 0.70727204E-01 0.43846175E+03</pdfrwt>
<pdfrwt beam="2">  1       21 0.77058297E-01 0.43846175E+03</pdfrwt>
<totfact> 0.23582443E+03</totfact>
</mgrwt>
</event>
<event>
 5    0  0.3120399E-003  0.3397717E+03  0.7546771E-02  0.1066893E+00
         21   -1    0    0  502  501  0.00000000000E+00  0.00000000000E+00  0.52954858256E+03  0.52954858256E+03  0.00000000000E+00 0.  1.
         21   -1    0    0  503  502 -0.00000000000E+00 -0.00000000000E+00 -0.23815180905E+03  0.23815180905E+03  0.00000000000E+00 0.  1.
         25    1    1    2    0    0  0.41149309039E+02  0.19917944725E+03  0.37600369555E+02  0.24167024151E+03  0.12500000000E+03 0.  0.
         21    1    1    2  503  504  0.12783203814E+03  0.55219580150E+02  0.18454344682E+02  0.14046634773E+03  0.00000000000E+00 0. -1.
         21    1    1    2  504  501 -0.16898134718E+03 -0.25439902740E+03  0.23534205928E+03  0.38556380237E+03  0.00000000000E+00 0.  1.
<mgrwt>
<rscale>  4 0.33977173E+03</rscale>
<asrwt>0</asrwt>
<pdfrwt beam="1">  1       21 0.81469012E-01 0.33977173E+03</pdfrwt>
<pdfrwt beam="2">  1       21 0.36638740E-01 0.33977173E+03</pdfrwt>
<totfact> 0.87579184E+03</totfact>
</mgrwt>
</event>
<event>
 5    0  0.3120399E-003  0.3796145E+03  0.7546771E-02  0.1051076E+00
         21   -1    0    0  502  501  0.00000000000E+00  0.00000000000E+00  0.64452406374E+03  0.64452406374E+03  0.00000000000E+00 0.  1.
         21   -1    0    0  503  502 -0.00000000000E+00 -0.00000000000E+00 -0.44014951742E+03  0.44014951742E+03  0.00000000000E+00 0.  1.
         25    1    1    2    0    0  0.20591779742E+03 -0.14402526900E+03  0.28543165621E+03  0.40030194575E+03  0.12500000000E+03 0.  0.
         21    1    1    2  503  504 -0.24338425652E+03  0.25756738423E+03 -0.28042387296E+03  0.45190087659E+03  0.00000000000E+00 0.  1.
         21    1    1    2  504  501  0.37466459100E+02 -0.11354211522E+03  0.19936676307E+03  0.23247075882E+03  0.00000000000E+00 0. -1.
<mgrwt>
<rscale>  4 0.37961447E+03</rscale>
<asrwt>0</asrwt>
<pdfrwt beam="1">  1       21 0.99157548E-01 0.37961447E+03</pdfrwt>
<pdfrwt beam="2">  1       21 0.67715311E-01 0.37961447E+03</pdfrwt>
<totfact> 0.14741651E+03</totfact>
</mgrwt>
</event>
<event>
 5    0  0.3120399E-003  0.3139302E+03  0.7546771E-02  0.1078477E+00
         21   -1    0    0  502  501  0.00000000000E+00  0.00000000000E+00  0.63405419447E+03  0.63405419447E+03  0.00000000000E+00 0. -1.
         21   -1    0    0  503  502 -0.00000000000E+00 -0.00000000000E+00 -0.17787536547E+03  0.17787536547E+03  0.00000000000E+00 0. -1.
         25    1    1    2    0    0 -0.15919807035E+03  0.15144078464E+03  0.39312482708E+03  0.46738684890E+03  0.12500000000E+03 0.  0.
         21    1    1    2  503  504 -0.69213722567E+02 -0.17139420667E+02 -0.33372151300E+01  0.71382323703E+02  0.00000000000E+00 0.  1.
         21    1    1    2  504  501  0.22841179292E+03 -0.13430136397E+03  0.66391217060E+02  0.27316038734E+03  0.00000000000E+00 0. -1.
<mgrwt>
<rscale>  4 0.31393023E+03</rscale>
<asrwt>0</asrwt>
<pdfrwt beam="1">  1       21 0.97546798E-01 0.31393023E+03</pdfrwt>
<pdfrwt beam="2">  1       21 0.27365441E-01 0.31393023E+03</pdfrwt>
<totfact> 0.10363148E+04</totfact>
</mgrwt>
</event>
<event>
 5    0  0.3120399E-003  0.4846012E+03  0.7546771E-02  0.1017878E+00
         21   -1    0    0  502  501  0.00000000000E+00  0.00000000000E+00  0.21759070240E+03  0.21759070240E+03  0.00000000000E+00 0.  1.
         21   -1    0    0  504  502 -0.00000000000E+00 -0.00000000000E+00 -0.11032793422E+04  0.11032793422E+04  0.00000000000E+00 0.  1.
         25    1    1    2    0    0  0.49382921379E+02  0.19895056335E+03 -0.23225088460E+03  0.33404411831E+03  0.12500000000E+03 0.  0.
         21    1    1    2  503  501 -0.35182121731E+02 -0.46270285370E+03 -0.33089965678E+03  0.56993534315E+03  0.00000000000E+00 0.  1.
         21    1    1    2  504  503 -0.14200799647E+02  0.26375229035E+03 -0.32253809843E+03  0.41689058314E+03  0.00000000000E+00 0.  1.
<mgrwt>
<rscale>  4 0.48460125E+03</rscale>
<asrwt>0</asrwt>
<pdfrwt beam="1">  1       21 0.33475492E-01 0.48460125E+03</pdfrwt>
<pdfrwt beam="2">  1       21 0.16973529E+00 0.48460125E+03</pdfrwt>
<totfact> 0.15407398E+03</totfact>
</mgrwt>
</event>
<event>
 5    0  0.3120399E-003  0.4157057E+03  0.7546771E-02  0.1038473E+00
         21   -1    0    0  504  501  0.00000000000E+00  0.00000000000E+00  0.75756300329E+03  0.75756300329E+03  0.00000000000E+00 0. -1.
         21   -1    0    0  501  502 -0.00000000000E+00 -0.00000000000E+00 -0.25631425392E+03  0.25631425392E+03  0.00000000000E+00 0. -1.
         25    1    1    2    0    0 -0.17548704184E+02  0.21157940821E+03  0.36258302902E+03  0.43836657711E+03  0.12500000000E+03 0.  0.
         21    1    1    2  503  502 -0.16777957853E+03  0.98984520842E+02  0.72463213669E+02  0.20784330558E+03  0.00000000000E+00 0. -1.
         21    1    1    2  504  503  0.18532828271E+03 -0.31056392905E+03  0.66202506685E+02  0.36766737453E+03  0.00000000000E+00 0. -1.
<mgrwt>
<rscale>  4 0.41570570E+03</rscale>
<asrwt>0</asrwt>
<pdfrwt beam="1">  1       21 0.11654815E+00 0.41570570E+03</pdfrwt>
<pdfrwt beam="2">  1       21 0.39432962E-01 0.41570570E+03</pdfrwt>
<totfact> 0.30935599E+03</totfact>
</mgrwt>
</event>
<event>
 5    0  0.3120399E-003  0.3045926E+03  0.7546771E-02  0.1082967E+00
         21   -1    0    0  503  501  0.00000000000E+00  0.00000000000E+00  0.56134968768E+03  0.56134968768E+03  0.00000000000E+00 0.  1.
         21   -1    0    0  501  502 -0.00000000000E+00 -0.00000000000E+00 -0.23046994397E+03  0.23046994397E+03  0.00000000000E+00 0.  1.
         25    1    1    2    0    0 -0.13520824041E+03  0.21412062679E+03  0.42189634980E+03  0.50769128520E+03  0.12500000000E+03 0.  0.
         21    1    1    2  503  504  0.10170444648E+03 -0.19820134575E+03 -0.49031562640E+02  0.22810449804E+03  0.00000000000E+00 0.  1.
         21    1    1    2  504  502  0.33503793933E+02 -0.15919281041E+02 -0.41985043455E+02  0.56023848411E+02  0.00000000000E+00 0. -1.
<mgrwt>
<rscale>  4 0.30459264E+03</rscale>
<asrwt>0</asrwt>
<pdfrwt beam="1">  1       21 0.86361490E-01 0.30459264E+03</pdfrwt>
<pdfrwt beam="2">  1       21 0.35456915E-01 0.30459264E+03</pdfrwt>
<totfact> 0.83021505E+03</totfact>
</mgrwt>
</event>
<event>
 5    0  0.3120399E-003  0.6267347E+03  0.7546771E-02  0.9851442E-01
         21   -1    0    0  504  501  0.00000000000E+00  0.00000000000E+00  0.58152047326E+03  0.58152047326E+03  0.00000000000E+00 0. -1.
         21   -1    0    0  501  502 -0.00000000000E+00 -0.00000000000E+00 -0.92036392394E+03  0.92036392394E+03  0.00000000000E+00 0. -1.
         25    1    1    2    0    0  0.15878453201E+03 -0.38302526233E+03 -0.45983849901E+03  0.63166234996E+03  0.12500000000E+03 0.  0.
         21    1    1    2  503  502 -0.41042712177E+03  0.37591045993E+02 -0.38763263310E+02  0.41396388684E+03  0.00000000000E+00 0. -1.
         21    1    1    2  504  503  0.25164258976E+03  0.34543421633E+03  0.15975831164E+03  0.45625816040E+03  0.00000000000E+00 0. -1.
<mgrwt>
<rscale>  4 0.62673471E+03</rscale>
<asrwt>0</asrwt>
<pdfrwt beam="1">  1       21 0.89464689E-01 0.62673471E+03</pdfrwt>
<pdfrwt beam="2">  1       21 0.14159445E+00 0.62673471E+03</pdfrwt>
<totfact> 0.28428764E+02</totfact>
</mgrwt>
</event>
<event>
 5    0  0.3120399E-003  0.5102994E+03  0.7546771E-02  0.1011125E+00
         21   -1    0    0  504  501  0.00000000000E+00  0.00000000000E+00  0.14279949453E+04  0.14279949453E+04  0.00000000000E+00 0.  1.
         21   -1    0    0  501  502 -0.00000000000E+00 -0.00000000000E+00 -0.19075515045E+03  0.19075515045E+03  0.00000000000E+00 0.  1.
         25    1    1    2    0    0  0.18974028210E+03 -0.26739504280E+03  0.82995764260E+03  0.90108610691E+03  0.12500000000E+03 0.  0.
         21    1    1    2  503  502  0.10985869675E+03 -0.28203130170E+02 -0.23040361954E+02  0.11573766925E+03  0.00000000000E+00 0.  1.
         21    1    1    2  504  503 -0.29959897885E+03  0.29559817297E+03  0.43032251422E+03  0.60192631961E+03  0.00000000000E+00 0.  1.
<mgrwt>
<rscale>  4 0.51029944E+03</rscale>
<asrwt>0</asrwt>
<pdfrwt beam="1">  1       21 0.21969152E+00 0.51029944E+03</pdfrwt>
<pdfrwt beam="2">  1       21 0.29346947E-01 0.51029944E+03</pdfrwt>
<totfact> 0.90622823E+02</totfact>
</mgrwt>
</event>
<event>
 5    0  0.3120399E-003  0.8157396E+03  0.7546771E-02  0.9537510E-01
         21   -1    0    0  502  501  0.00000000000E+00  0.00000000000E+00  0.54654813785E+03  0.54654813785E+03  0.00000000000E+00 0.  1.
         21   -1    0    0  503  502 -0.00000000000E+00 -0.00000000000E+00 -0.12300765374E+04  0.12300765374E+04  0.00000000000E+00 0.  1.
         25    1    1    2    0    0 -0.73189761833E+03 -0.13073367020E+03 -0.48362208285E+03  0.89570125336E+03  0.12500000000E+03 0.  0.
         21    1    1    2  503  504 -0.39673609029E+02  0.43829946788E+00  0.45954171002E+02  0.60712216170E+02  0.00000000000E+00 0. -1.
         21    1    1    2  504  501  0.77157122736E+03  0.13029537073E+03 -0.24586048766E+03  0.82021120568E+03  0.00000000000E+00 0.  1.
<mgrwt>
<rscale>  4 0.81573956E+03</rscale>
<asrwt>0</asrwt>
<pdfrwt beam="1">  1       21 0.84084329E-01 0.81573956E+03</pdfrwt>
<pdfrwt beam="2">  1       21 0.18924254E+00 0.81573956E+03</pdfrwt>
<totfact> 0.13549842E+02</totfact>
</mgrwt>
</event>
<event>
 5    0  0.3120399E-003  0.2590604E+03  0.7546771E-02  0.1107709E+00
         21   -1    0    0  503  501  0.00000000000E+00  0.00000000000E+00  0.21695241098E+04  0.21695241098E+04  0.00000000000E+00 0. -1.
         21   -1    0    0  501  502 -0.00000000000E+00 -0.00000000000E+00 -0.47489747313E+02  0.47489747313E+02  0.00000000000E+00 0. -1.
         25    1    1    2    0    0  0.10475550971E+03 -0.26136190976E+03  0.10377638076E+04  0.10825259743E+04  0.12500000000E+03 0.  0.
         21    1    1    2  503  504  0.38444422669E+02  0.12723347422E+03  0.34788267447E+03  0.37240929875E+03  0.00000000000E+00 0. -1.
         21    1    1    2  504  502 -0.14319993238E+03  0.13412843555E+03  0.73638788038E+03  0.76207858403E+03  0.00000000000E+00 0. -1.
<mgrwt>
<rscale>  4 0.25906044E+03</rscale>
<asrwt>0</asrwt>
<pdfrwt beam="1">  1       21 0.33377286E+00 0.25906044E+03</pdfrwt>
<pdfrwt beam="2">  1       21 0.73061166E-02 0.25906044E+03</pdfrwt>
<totfact> 0.28388803E+03</totfact>
</mgrwt>
</event>
<event>
 5    0  0.3120399E-003  0.2447789E+03  0.7546771E-02  0.1116650E+00
         21   -1    0    0  503  501  0.00000000000E+00  0.00000000000E+00  0.14805688022E+03  0.14805688022E+03  0.00000000000E+00 0.  1.
         21   -1    0    0  501  502 -0.00000000000E+00 -0.00000000000E+00 -0.52974600177E+03  0.52974600177E+03  0.00000000000E+00 0.  1.
         25    1    1    2    0    0 -0.10067459686E+03 -0.22313687422E+03 -0.14503007147E+03  0.31077992329E+03  0.12500000000E+03 0.  0.
         21    1    1    2  503  504  0.96510987942E+02  0.11054889113E+03 -0.62289597559E+02  0.15942215056E+03  0.00000000000E+00 0.  1.
         21    1    1    2  504  502  0.41636089182E+01  0.11258798308E+03 -0.17436945251E+03  0.20760080815E+03  0.00000000000E+00 0.  1.
<mgrwt>
<rscale>  4 0.24477887E+03</rscale>
<asrwt>0</asrwt>
<pdfrwt beam="1">  1       21 0.22777981E-01 0.24477887E+03</pdfrwt>
<pdfrwt beam="2">  1       21 0.81499386E-01 0.24477887E+03</pdfrwt>
<totfact> 0.23172824E+04</totfact>
</mgrwt>
</event>
<event>
 5    0  0.3120399E-003  0.4294141E+03  0.7546771E-02  0.1034045E+00
         21   -1    0    0  502  501  0.00000000000E+00  0.00000000000E+00  0.14311519232E+03  0.14311519232E+03  0.00000000000E+00 0. -1.
         21   -1    0    0  504  502 -0.00000000000E+00 -0.00000000000E+00 -0.16878687191E+04  0.16878687191E+04  0.00000000000E+00 0. -1.
         25    1    1    2    0    0  0.16680635282E+01  0.31074209818E+03 -0.16680949906E+03  0.37418423670E+03  0.12500000000E+03 0.  0.
         21    1    1    2  503  501  0.96709916193E+02  0.42382458745E+02 -0.27772475217E+03  0.29711970427E+03  0.00000000000E+00 0. -1.
         21    1    1    2  504  503 -0.98377979721E+02 -0.35312455692E+03 -0.11002192755E+04  0.11596799704E+04  0.00000000000E+00 0. -1.
<mgrwt>
<rscale>  4 0.42941412E+03</rscale>
<asrwt>0</asrwt>
<pdfrwt beam="1">  1       21 0.22017723E-01 0.42941412E+03</pdfrwt>
<pdfrwt beam="2">  1       21 0.25967210E+00 0.42941412E+03</pdfrwt>
<totfact> 0.92940205E+02</totfact>
</mgrwt>
</event>
<event>
 5    0  0.3120399E-003  0.4526314E+03  0.7546771E-02  0.1026940E+00
         21   -1    0    0  503  501  0.00000000000E+00  0.00000000000E+00  0.13416260514E+03  0.13416260514E+03  0.00000000000E+00 0.  1.
         21   -1    0    0  501  502 -0.00000000000E+00 -0.00000000000E+00 -0.19537248023E+04  0.19537248023E+04  0.00000000000E+00 0.  1.
         25    1    1    2    0    0  0.15453812626E+03 -0.32220253529E+03 -0.11085161681E+04  0.11713793584E+04  0.12500000000E+03 0.  0.
         21    1    1    2  503  504 -0.29361977188E+03  0.11241707387E+03 -0.30030176634E+03  0.43477732209E+03  0.00000000000E+00 0.  1.
         21    1    1    2  504  502  0.13908164562E+03  0.20978546143E+03 -0.41074426263E+03  0.48173072692E+03  0.00000000000E+00 0. -1.
<mgrwt>
<rscale>  4 0.45263136E+03</rscale>
<asrwt>0</asrwt>
<pdfrwt beam="1">  1       21 0.20640402E-01 0.45263136E+03</pdfrwt>
<pdfrwt beam="2">  1       21 0.30057302E+00 0.45263136E+03</pdfrwt>
<totfact> 0.58854167E+02</totfact>
</mgrwt>
</event>
<event>
 5    0  0.3120399E-003  0.5847002E+03  0.7546771E-02  0.9937667E-01
         21   -1    0    0  503  501  0.00000000000E+00  0.00000000000E+00  0.66217271315E+03  0.66217271315E+03  0.00000000000E+00 0.  1.
         21   -1    0    0  501  502 -0.00000000000E+00 -0.00000000000E+00 -0.12424196454E+04  0.12424196454E+04  0.00000000000E+00 0.  1.
         25    1    1    2    0    0  0.14770474315E+03 -0.34756613279E+03  0.34782488016E+03  0.52841844695E+03  0.12500000000E+03 0.  0.
         21    1    1    2  503  504 -0.25137727421E+03 -0.12360476831E+03  0.50967618886E+02  0.28472156735E+03  0.00000000000E+00 0.  1.
         21    1    1    2  504  502  0.10367253106E+03  0.47117090110E+03 -0.97903943129E+03  0.10914523443E+04  0.00000000000E+00 0.  1.
<mgrwt>
<rscale>  4 0.58470017E+03</rscale>
<asrwt>0</asrwt>
<pdfrwt beam="1">  1       21 0.10187273E+00 0.58470017E+03</pdfrwt>
<pdfrwt beam="2">  1       21 0.19114148E+00 0.58470017E+03</pdfrwt>
<totfact> 0.89719972E+01</totfact>
</mgrwt>
</event>
<event>
 5    0  0.3120399E-003  0.3550469E+03  0.7546771E-02  0.1060562E+00
         21   -1    0    0  502  501  0.00000000000E+00  0.00000000000E+00  0.58767998551E+03  0.58767998551E+03  0.00000000000E+00 0.  1.
         21   -1    0    0  503  502 -0.00000000000E+00 -0.00000000000E+00 -0.23424789354E+03  0.23424789354E+03  0.00000000000E+00 0.  1.
         25    1    1    2    0    0  0.46595516190E+02  0.23888933931E+03  0.18532226432E+03  0.33046724530E+03  0.12500000000E+03 0.  0.
         21    1    1    2  503  504 -0.18357292434E+03 -0.24501795829E+03  0.49440345111E+02  0.31012443658E+03  0.00000000000E+00 0.  1.
         21    1    1    2  504  501  0.13697740815E+03  0.61286189825E+01  0.11866948254E+03  0.18133619716E+03  0.00000000000E+00 0. -1.
<mgrwt>
<rscale>  4 0.35504688E+03</rscale>
<asrwt>0</asrwt>
<pdfrwt beam="1">  1       21 0.90412305E-01 0.35504688E+03</pdfrwt>
<pdfrwt beam="2">  1       21 0.36038138E-01 0.35504688E+03</pdfrwt>
<totfact> 0.70610819E+03</totfact>
</mgrwt>
</event>
<event>
 5    0  0.3120399E-003  0.3912044E+03  0.7546771E-02  0.1046869E+00
         21   -1    0    0  504  501  0.00000000000E+00  0.00000000000E+00  0.31056223089E+04  0.31056223089E+04  0.00000000000E+00 0. -1.
         21   -1    0    0  501  502 -0.00000000000E+00 -0.00000000000E+00 -0.53689345003E+02  0.53689345003E+02  0.00000000000E+00 0. -1.
         25    1    1    2    0    0 -0.22716408524E+03 -0.17259957039E+03  0.10887067692E+04  0.11323875497E+04  0.12500000000E+03 0.  0.
         21    1    1    2  503  502 -0.90843864856E+02  0.70882669228E+01  0.12866452348E+03  0.15766233194E+03  0.00000000000E+00 0.  1.
         21    1    1    2  504  503  0.31800795010E+03  0.16551130347E+03  0.18345616712E+04  0.18692617722E+04  0.00000000000E+00 0. -1.
<mgrwt>
<rscale>  4 0.39120437E+03</rscale>
<asrwt>0</asrwt>
<pdfrwt beam="1">  1       21 0.47778791E+00 0.39120437E+03</pdfrwt>
<pdfrwt beam="2">  1       21 0.82599017E-02 0.39120437E+03</pdfrwt>
<totfact> 0.24353469E+02</totfact>
</mgrwt>
</event>
<event>
 5    0  0.3120399E-003  0.2140025E+03  0.7546771E-02  0.1138435E+00
         21   -1    0    0  502  501  0.00000000000E+00  0.00000000000E+00  0.22897477026E+03  0.22897477026E+03  0.00000000000E+00 0.  1.
         21   -1    0    0  504  502 -0.00000000000E+00 -0.00000000000E+00 -0.27090229106E+03  0.27090229106E+03  0.00000000000E+00 0.  1.
         25    1    1    2    0    0 -0.14569649420E+03 -0.15060020552E+03  0.68001935010E+01  0.24408837120E+03  0.12500000000E+03 0.  0.
         21    1    1    2  503  501  0.11537483388E+03  0.46742131989E+02  0.22159668330E+02  0.12644061885E+03  0.00000000000E+00 0.  1.
         21    1    1    2  504  503  0.30321660323E+02  0.10385807353E+03 -0.70887382634E+02  0.12934807126E+03  0.00000000000E+00 0.  1.
<mgrwt>
<rscale>  4 0.21400248E+03</rscale>
<asrwt>0</asrwt>
<pdfrwt beam="1">  1       21 0.35226888E-01 0.21400248E+03</pdfrwt>
<pdfrwt beam="2">  1       21 0.41677275E-01 0.21400248E+03</pdfrwt>
<totfact> 0.42604320E+04</totfact>
</mgrwt>
</event>
<event>
 5    0  0.3120399E-003  0.3660360E+03  0.7546771E-02  0.1056219E+00
         21   -1    0    0  503  501  0.00000000000E+00  0.00000000000E+00  0.20619074854E+03  0.20619074854E+03  0.00000000000E+00 0.  1.
         21   -1    0    0  501  502 -0.00000000000E+00 -0.00000000000E+00 -0.68083950385E+03  0.68083950385E+03  0.00000000000E+00 0.  1.
         25    1    1    2    0    0  0.21059961177E+03 -0.20612981865E+03 -0.28098968138E+03  0.42593649721E+03  0.12500000000E+03 0.  0.
         21    1    1    2  503  504 -0.73774320027E+02 -0.75139916370E+02 -0.57245948394E+02  0.11985723147E+03  0.00000000000E+00 0. -1.
         21    1    1    2  504  502 -0.13682529174E+03  0.28126973502E+03 -0.13641312554E+03  0.34123652371E+03  0.00000000000E+00 0.  1.
<mgrwt>
<rscale>  4 0.36603604E+03</rscale>
<asrwt>0</asrwt>
<pdfrwt beam="1">  1       21 0.31721654E-01 0.36603604E+03</pdfrwt>
<pdfrwt beam="2">  1       21 0.10474454E+00 0.36603604E+03</pdfrwt>
<totfact> 0.63789130E+03</totfact>
</mgrwt>
</event>
<event>
 5    0  0.3120399E-003  0.2715786E+03  0.7546771E-02  0.1100379E+00
         21   -1    0    0  502  501  0.00000000000E+00  0.00000000000E+00  0.21512540917E+03  0.21512540917E+03  0.00000000000E+00 0. -1.
         21   -1    0    0  503  502 -0.00000000000E+00 -0.00000000000E+00 -0.56855653639E+03  0.56855653639E+03  0.00000000000E+00 0. -1.
         25    1    1    2    0    0 -0.78540133133E+02 -0.19362094125E+03 -0.40634084950E+03  0.47370402930E+03  0.12500000000E+03 0.  0.
         21    1    1    2  503  504  0.47729836544E+02 -0.35078221969E+02 -0.27896443206E+02  0.65473891718E+02  0.00000000000E+00 0.  1.
         21    1    1    2  504  501  0.30810296589E+02  0.22869916322E+03  0.80806165491E+02  0.24450402454E+03  0.00000000000E+00 0. -1.
<mgrwt>
<rscale>  4 0.27157864E+03</rscale>
<asrwt>0</asrwt>
<pdfrwt beam="1">  1       21 0.33096217E-01 0.27157864E+03</pdfrwt>
<pdfrwt beam="2">  1       21 0.87470236E-01 0.27157864E+03</pdfrwt>
<totfact> 0.93995596E+03</totfact>
</mgrwt>
</event>
<event>
 5    0  0.3120399E-003  0.3509424E+03  0.7546771E-02  0.1062229E+00
         21   -1    0    0  502  501  0.00000000000E+00  0.00000000000E+00  0.40577122171E+03  0.40577122171E+03  0.00000000000E+00 0. -1.
         21   -1    0    0  503  502 -0.00000000000E+00 -0.00000000000E+00 -0.31065757723E+03  0.31065757723E+03  0.00000000000E+00 0. -1.
         25    1    1    2    0    0  0.25089438287E+03  0.41645094861E+02 -0.40985764393E+02  0.28633396265E+03  0.12500000000E+03 0.  0.
         21    1    1    2  503  504 -0.27368709472E+03 -0.12709302543E+03  0.48521689869E+02  0.30563314172E+03  0.00000000000E+00 0. -1.
         21    1    1    2  504  501  0.22792711846E+02  0.85447930567E+02  0.87577718999E+02  0.12446169458E+03  0.00000000000E+00 0.  1.
<mgrwt>
<rscale>  4 0.35094240E+03</rscale>
<asrwt>0</asrwt>
<pdfrwt beam="1">  1       21 0.62426342E-01 0.35094240E+03</pdfrwt>
<pdfrwt beam="2">  1       21 0.47793473E-01 0.35094240E+03</pdfrwt>
<totfact> 0.91680313E+03</totfact>
</mgrwt>
</event>
<event>
 5    0  0.3120399E-003  0.3826119E+03  0.7546771E-02  0.1049973E+00
         21   -1    0    0  502  501  0.00000000000E+00  0.00000000000E+00  0.42350398953E+03  0.42350398953E+03  0.00000000000E+00 0.  1.
         21   -1    0    0  503  502 -0.00000000000E+00 -0.00000000000E+00 -0.35911713972E+03  0.35911713972E+03  0.00000000000E+00 0.  1.
         25    1    1    2    0    0  0.79105484137E+02 -0.19289870549E+03 -0.54769442232E+02  0.24918322577E+03  0.12500000000E+03 0.  0.
         21    1    1    2  503  504  0.14339132445E+02  0.34256455727E+03  0.91282465961E+02  0.35480780038E+03  0.00000000000E+00 0.  1.
         21    1    1    2  504  501 -0.93444616582E+02 -0.14966585178E+03  0.27873826089E+02  0.17863010311E+03  0.00000000000E+00 0.  1.
<mgrwt>
<rscale>  4 0.38261189E+03</rscale>
<asrwt>0</asrwt>
<pdfrwt beam="1">  1       21 0.65154460E-01 0.38261189E+03</pdfrwt>
<pdfrwt beam="2">  1       21 0.55248791E-01 0.38261189E+03</pdfrwt>
<totfact> 0.60560913E+03</totfact>
</mgrwt>
</event>
<event>
 5    0  0.3120399E-003  0.5074475E+03  0.7546771E-02  0.1011853E+00
         21   -1    0    0  504  501  0.00000000000E+00  0.00000000000E+00  0.47950536188E+03  0.47950536188E+03  0.00000000000E+00 0.  1.
         21   -1    0    0  501  502 -0.00000000000E+00 -0.00000000000E+00 -0.98293204803E+03  0.98293204803E+03  0.00000000000E+00 0.  1.
         25    1    1    2    0    0  0.13873824665E+03 -0.41201637837E+03  0.26428310301E+03  0.52390491090E+03  0.12500000000E+03 0.  0.
         21    1    1    2  503  502 -0.16173823188E+03  0.45500638076E+03 -0.73632709037E+03  0.88054962733E+03  0.00000000000E+00 0.  1.
         21    1    1    2  504  503  0.22999985225E+02 -0.42990002384E+02 -0.31382698792E+02  0.57982871685E+02  0.00000000000E+00 0.  1.
<mgrwt>
<rscale>  4 0.50744750E+03</rscale>
<asrwt>0</asrwt>
<pdfrwt beam="1">  1       21 0.73770057E-01 0.50744750E+03</pdfrwt>
<pdfrwt beam="2">  1       21 0.15122031E+00 0.50744750E+03</pdfrwt>
<totfact> 0.38989899E+02</totfact>
</mgrwt>
</event>
<event>
 5    0  0.3120399E-003  0.5113234E+03  0.7546771E-02  0.1010865E+00
         21   -1    0    0  502  501  0.00000000000E+00  0.00000000000E+00  0.18786303474E+04  0.18786303474E+04  0.00000000000E+00 0. -1.
         21   -1    0    0  504  502 -0.00000000000E+00 -0.00000000000E+00 -0.14042573191E+03  0.14042573191E+03  0.00000000000E+00 0. -1.
         25    1    1    2    0    0  0.32426848728E+03  0.34758434447E+02  0.68134735184E+03  0.76564836215E+03  0.12500000000E+03 0.  0.
         21    1    1    2  503  501 -0.48677954847E+03  0.98974895620E-01  0.90815978292E+03  0.10303924155E+04  0.00000000000E+00 0. -1.
         21    1    1    2  504  503  0.16251106119E+03 -0.34857409342E+02  0.14869748074E+03  0.22301530166E+03  0.00000000000E+00 0. -1.
<mgrwt>
<rscale>  4 0.51132335E+03</rscale>
<asrwt>0</asrwt>
<pdfrwt beam="1">  1       21 0.28902003E+00 0.51132335E+03</pdfrwt>
<pdfrwt beam="2">  1       21 0.21603960E-01 0.51132335E+03</pdfrwt>
<totfact> 0.61410362E+02</totfact>
</mgrwt>
</event>
<event>
 5    0  0.3120399E-003  0.2907103E+03  0.7546771E-02  0.1089979E+00
         21   -1    0    0  504  501  0.00000000000E+00  0.00000000000E+00  0.37667473183E+03  0.37667473183E+03  0.00000000000E+00 0. -1.
         21   -1    0    0  501  502 -0.00000000000E+00 -0.00000000000E+00 -0.25265277724E+03  0.25265277724E+03  0.00000000000E+00 0. -1.
         25    1    1    2    0    0  0.74751279226E+02  0.18700557987E+03  0.16334333392E+03  0.28786261547E+03  0.12500000000E+03 0.  0.
         21    1    1    2  503  502  0.46685975967E+02 -0.20370566504E+03  0.10255946456E+02  0.20923853077E+03  0.00000000000E+00 0. -1.
         21    1    1    2  504  503 -0.12143725519E+03  0.16700085171E+02 -0.49577325786E+02  0.13222636282E+03  0.00000000000E+00 0. -1.
<mgrwt>
<rscale>  4 0.29071028E+03</rscale>
<asrwt>0</asrwt>
<pdfrwt beam="1">  1       21 0.57949959E-01 0.29071028E+03</pdfrwt>
<pdfrwt beam="2">  1       21 0.38869658E-01 0.29071028E+03</pdfrwt>
<totfact> 0.16930641E+04</totfact>
</mgrwt>
</event>
<event>
 5    0  0.3120399E-003  0.1302303E+04  0.7546771E-02  0.9027741E-01
         21   -1    0    0  504  501  0.00000000000E+00  0.00000000000E+00  0.12032546794E+04  0.12032546794E+04  0.00000000000E+00 0.  1.
         21   -1    0    0  501  502 -0.00000000000E+00 -0.00000000000E+00 -0.14949748025E+04  0.14949748025E+04  0.00000000000E+00 0.  1.
         25    1    1    2    0    0  0.23865497384E+03 -0.31661899096E+03 -0.91851710378E+02  0.42575288452E+03  0.12500000000E+03 0.  0.
         21    1    1    2  503  502  0.67620373746E+02  0.12270383037E+04  0.17512994260E+03  0.12413162412E+04  0.00000000000E+00 0.  1.
         21    1    1    2  504  503 -0.30627534759E+03 -0.91041931278E+03 -0.37499835528E+03  0.10311603561E+04  0.00000000000E+00 0.  1.
<mgrwt>
<rscale>  4 0.13023027E+04</rscale>
<asrwt>0</asrwt>
<pdfrwt beam="1">  1       21 0.18511611E+00 0.13023027E+04</pdfrwt>
<pdfrwt beam="2">  1       21 0.22999612E+00 0.13023027E+04</pdfrwt>
<totfact> 0.77948683E+00</totfact>
</mgrwt>
</event>
<event>
 5    0  0.3120399E-003  0.2914360E+03  0.7546771E-02  0.1089602E+00
         21   -1    0    0  502  501  0.00000000000E+00  0.00000000000E+00  0.30820843683E+03  0.30820843683E+03  0.00000000000E+00 0.  1.
         21   -1    0    0  504  502 -0.00000000000E+00 -0.00000000000E+00 -0.35214292224E+03  0.35214292224E+03  0.00000000000E+00 0.  1.
         25    1    1    2    0    0 -0.23128009517E+03 -0.25919136308E+02 -0.15681777792E+03  0.30721181540E+03  0.12500000000E+03 0.  0.
         21    1    1    2  503  501  0.18709857033E+03 -0.89649986486E+02  0.94791435538E+02  0.22809737251E+03  0.00000000000E+00 0.  1.
         21    1    1    2  504  503  0.44181524839E+02  0.11556912279E+03  0.18091856972E+02  0.12504217116E+03  0.00000000000E+00 0.  1.
<mgrwt>
<rscale>  4 0.29143603E+03</rscale>
<asrwt>0</asrwt>
<pdfrwt beam="1">  1       21 0.47416683E-01 0.29143603E+03</pdfrwt>
<pdfrwt beam="2">  1       21 0.54175834E-01 0.29143603E+03</pdfrwt>
<totfact> 0.12982280E+04</totfact>
</mgrwt>
</event>
<event>
 5    0  0.3120399E-003  0.2646489E+03  0.7546771E-02  0.1104382E+00
         21   -1    0    0  502  501  0.00000000000E+00  0.00000000000E+00  0.79568709725E+03  0.79568709725E+03  0.00000000000E+00 0.  1.
         21   -1    0    0  504  502 -0.00000000000E+00 -0.00000000000E+00 -0.12024038252E+03  0.12024038252E+03  0.00000000000E+00 0.  1.
         25    1    1    2    0    0  0.16995652994E+03 -0.17088890412E+03  0.36411197443E+03  0.45419243669E+03  0.12500000000E+03 0.  0.
         21    1    1    2  503  501 -0.13761489346E+03  0.93001289633E+02  0.33519503156E+03  0.37408930478E+03  0.00000000000E+00 0.  1.
         21    1    1    2  504  503 -0.32341636484E+02  0.77887614492E+02 -0.23860291256E+02  0.87645738291E+02  0.00000000000E+00 0.  1.
<mgrwt>
<rscale>  4 0.26464889E+03</rscale>
<asrwt>0</asrwt>
<pdfrwt beam="1">  1       21 0.12241340E+00 0.26464889E+03</pdfrwt>
<pdfrwt beam="2">  1       21 0.18498521E-01 0.26464889E+03</pdfrwt>
<totfact> 0.12839602E+04</totfact>
</mgrwt>
</event>
<event>
 5    0  0.3120399E-003  0.2704542E+03  0.7546771E-02  0.1101020E+00
         21   -1    0    0  502  501  0.00000000000E+00  0.00000000000E+00  0.18783918063E+03  0.18783918063E+03  0.00000000000E+00 0. -1.
         21   -1    0    0  503  502 -0.00000000000E+00 -0.00000000000E+00 -0.45646776114E+03  0.45646776114E+03  0.00000000000E+00 0. -1.
         25    1    1    2    0    0  0.30204120199E+01 -0.21385982875E+03 -0.26456309383E+02  0.24913868738E+03  0.12500000000E+03 0.  0.
         21    1    1    2  503  504  0.46656842185E+02  0.23712754737E+03 -0.23950303828E+03  0.34024702790E+03  0.00000000000E+00 0. -1.
         21    1    1    2  504  501 -0.49677254205E+02 -0.23267718620E+02 -0.26692328439E+01  0.54921226490E+02  0.00000000000E+00 0.  1.
<mgrwt>
<rscale>  4 0.27045422E+03</rscale>
<asrwt>0</asrwt>
<pdfrwt beam="1">  1       21 0.28898336E-01 0.27045422E+03</pdfrwt>
<pdfrwt beam="2">  1       21 0.70225809E-01 0.27045422E+03</pdfrwt>
<totfact> 0.20241315E+04</totfact>
</mgrwt>
</event>
<event>
 5    0  0.3120399E-003  0.3944871E+03  0.7546771E-02  0.1045706E+00
         21   -1    0    0  503  501  0.00000000000E+00  0.00000000000E+00  0.10769448126E+03  0.10769448126E+03  0.00000000000E+00 0.  1.
         21   -1    0    0  501  502 -0.00000000000E+00 -0.00000000000E+00 -0.16814792536E+04  0.16814792536E+04  0.00000000000E+00 0.  1.
         25    1    1    2    0    0 -0.26004079004E+03 -0.79503851433E+02 -0.32046112815E+03  0.43847737631E+03  0.12500000000E+03 0.  0.
         21    1    1    2  503  504 -0.10752920725E+03  0.52450266948E+02 -0.18249739869E+03  0.21821746365E+03  0.00000000000E+00 0.  1.
         21    1    1    2  504  502  0.36756999729E+03  0.27053584484E+02 -0.10708262455E+04  0.11324788949E+04  0.00000000000E+00 0.  1.
<mgrwt>
<rscale>  4 0.39448706E+03</rscale>
<asrwt>0</asrwt>
<pdfrwt beam="1">  1       21 0.16568382E-01 0.39448706E+03</pdfrwt>
<pdfrwt beam="2">  1       21 0.25868910E+00 0.39448706E+03</pdfrwt>
<totfact> 0.16446153E+03</totfact>
</mgrwt>
</event>
<event>
 5    0  0.3120399E-003  0.2881632E+03  0.7546771E-02  0.1091312E+00
         21   -1    0    0  504  501  0.00000000000E+00  0.00000000000E+00  0.18981394160E+03  0.18981394160E+03  0.00000000000E+00 0.  1.
         21   -1    0    0  501  502 -0.00000000000E+00 -0.00000000000E+00 -0.43986600063E+03  0.43986600063E+03  0.00000000000E+00 0.  1.
         25    1    1    2    0    0 -0.37686705077E+02 -0.21322596213E+03 -0.13148160986E+03  0.28248541979E+03  0.12500000000E+03 0.  0.
         21    1    1    2  503  502 -0.34167215248E+02 -0.45001676910E+02 -0.72774537647E+01  0.56969385251E+02  0.00000000000E+00 0.  1.
         21    1    1    2  504  503  0.71853920324E+02  0.25822763904E+03 -0.11129299541E+03  0.29022513719E+03  0.00000000000E+00 0. -1.
<mgrwt>
<rscale>  4 0.28816316E+03</rscale>
<asrwt>0</asrwt>
<pdfrwt beam="1">  1       21 0.29202145E-01 0.28816316E+03</pdfrwt>
<pdfrwt beam="2">  1       21 0.67671692E-01 0.28816316E+03</pdfrwt>
<totfact> 0.21368058E+04</totfact>
</mgrwt>
</event>
<event>
 5    0  0.3120399E-003  0.4425205E+03  0.7546771E-02  0.1029976E+00
         21   -1    0    0  502  501  0.00000000000E+00  0.00000000000E+00  0.20792084568E+03  0.20792084568E+03  0.00000000000E+00 0. -1.
         21   -1    0    0  504  502 -0.00000000000E+00 -0.00000000000E+00 -0.95337352736E+03  0.95337352736E+03  0.00000000000E+00 0. -1.
         25    1    1    2    0    0  0.26698370092E+03  0.10013188792E+03 -0.16093451290E+03  0.35047340695E+03  0.12500000000E+03 0.  0.
         21    1    1    2  503  501  0.14146150418E+03 -0.10126778950E+02 -0.17770801633E+03  0.22736325096E+03  0.00000000000E+00 0. -1.
         21    1    1    2  504  503 -0.40844520510E+03 -0.90005108966E+02 -0.40681015244E+03  0.58345771513E+03  0.00000000000E+00 0. -1.
<mgrwt>
<rscale>  4 0.44252047E+03</rscale>
<asrwt>0</asrwt>
<pdfrwt beam="1">  1       21 0.31987822E-01 0.44252047E+03</pdfrwt>
<pdfrwt beam="2">  1       21 0.14667285E+00 0.44252047E+03</pdfrwt>
<totfact> 0.25725110E+03</totfact>
</mgrwt>
</event>
<event>
 5    0  0.3120399E-003  0.5946053E+03  0.7546771E-02  0.9916662E-01
         21   -1    0    0  502  501  0.00000000000E+00  0.00000000000E+00  0.65672564033E+03  0.65672564033E+03  0.00000000000E+00 0. -1.
         21   -1    0    0  503  502 -0.00000000000E+00 -0.00000000000E+00 -0.73431822235E+03  0.73431822235E+03  0.00000000000E+00 0. -1.
         25    1    1    2    0    0  0.47358293794E+02  0.29350327052E+03 -0.11975956046E+03  0.34402664158E+03  0.12500000000E+03 0.  0.
         21    1    1    2  503  504 -0.21010390574E+03 -0.42550944839E+03 -0.35857604738E+03  0.59479300907E+03  0.00000000000E+00 0. -1.
         21    1    1    2  504  501  0.16274561195E+03  0.13200617787E+03  0.40074302582E+03  0.45222421203E+03  0.00000000000E+00 0.  1.
<mgrwt>
<rscale>  4 0.59460525E+03</rscale>
<asrwt>0</asrwt>
<pdfrwt beam="1">  1       21 0.10103471E+00 0.59460525E+03</pdfrwt>
<pdfrwt beam="2">  1       21 0.11297203E+00 0.59460525E+03</pdfrwt>
<totfact> 0.38538232E+02</totfact>
</mgrwt>
</event>
<event>
 5    0  0.3120399E-003  0.2855055E+03  0.7546771E-02  0.1092719E+00
         21   -1    0    0  504  501  0.00000000000E+00  0.00000000000E+00  0.20531406592E+03  0.20531406592E+03  0.00000000000E+00 0.  1.
         21   -1    0    0  501  502 -0.00000000000E+00 -0.00000000000E+00 -0.43529317780E+03  0.43529317780E+03  0.00000000000E+00 0.  1.
         25    1    1    2    0    0 -0.19029423894E+03 -0.12265605432E+03  0.65435388049E+01  0.25869716453E+03  0.12500000000E+03 0.  0.
         21    1    1    2  503  502  0.20573388330E+03  0.58382205559E+02 -0.11315310247E+03  0.24194738532E+03  0.00000000000E+00 0. -1.
         21    1    1    2  504  503 -0.15439644357E+02  0.64273848761E+02 -0.12336954821E+03  0.13996269388E+03  0.00000000000E+00 0. -1.
<mgrwt>
<rscale>  4 0.28550548E+03</rscale>
<asrwt>0</asrwt>
<pdfrwt beam="1">  1       21 0.31586780E-01 0.28550548E+03</pdfrwt>
<pdfrwt beam="2">  1       21 0.66968180E-01 0.28550548E+03</pdfrwt>
<totfact> 0.18755017E+04</totfact>
</mgrwt>
</event>
<event>
 5    0  0.3120399E-003  0.3234561E+03  0.7546771E-02  0.1074070E+00
         21   -1    0    0  502  501  0.00000000000E+00  0.00000000000E+00  0.22752650018E+03  0.22752650018E+03  0.00000000000E+00 0.  1.
         21   -1    0    0  503  502 -0.00000000000E+00 -0.00000000000E+00 -0.47342464426E+03  0.47342464426E+03  0.00000000000E+00 0.  1.
         25    1    1    2    0    0 -0.23549408805E+03 -0.59381628195E+02 -0.16628445851E+01  0.27315088930E+03  0.12500000000E+03 0.  0.
         21    1    1    2  503  504 -0.27368667786E+02 -0.22274521016E+02 -0.12132275769E+03  0.12635034545E+03  0.00000000000E+00 0. -1.
         21    1    1    2  504  501  0.26286275584E+03  0.81656149212E+02 -0.12291254181E+03  0.30144990968E+03  0.00000000000E+00 0.  1.
<mgrwt>
<rscale>  4 0.32345605E+03</rscale>
<asrwt>0</asrwt>
<pdfrwt beam="1">  1       21 0.35004077E-01 0.32345605E+03</pdfrwt>
<pdfrwt beam="2">  1       21 0.72834561E-01 0.32345605E+03</pdfrwt>
<totfact> 0.12474080E+04</totfact>
</mgrwt>
</event>
<event>
 5    0  0.3120399E-003  0.3297849E+03  0.7546771E-02  0.1071232E+00
         21   -1    0    0  504  501  0.00000000000E+00  0.00000000000E+00  0.31093165623E+03  0.31093165623E+03  0.00000000000E+00 0. -1.
         21   -1    0    0  501  502 -0.00000000000E+00 -0.00000000000E+00 -0.38795905984E+03  0.38795905984E+03  0.00000000000E+00 0. -1.
         25    1    1    2    0    0 -0.14122595044E+03 -0.29077744809E+03  0.12321321112E+02  0.34680413543E+03  0.12500000000E+03 0.  0.
         21    1    1    2  503  502  0.78822291516E+02  0.54116644304E+02 -0.19706342219E+02  0.97621231063E+02  0.00000000000E+00 0.  1.
         21    1    1    2  504  503  0.62403658922E+02  0.23666080379E+03 -0.69642382505E+02  0.25446534958E+03  0.00000000000E+00 0. -1.
<mgrwt>
<rscale>  4 0.32978490E+03</rscale>
<asrwt>0</asrwt>
<pdfrwt beam="1">  1       21 0.47835640E-01 0.32978490E+03</pdfrwt>
<pdfrwt beam="2">  1       21 0.59686009E-01 0.32978490E+03</pdfrwt>
<totfact> 0.10178929E+04</totfact>
</mgrwt>
</event>
<event>
 5    0  0.3120399E-003  0.2596868E+03  0.7546771E-02  0.1107332E+00
         21   -1    0    0  503  501  0.00000000000E+00  0.00000000000E+00  0.39697572334E+03  0.39697572334E+03  0.00000000000E+00 0.  1.
         21   -1    0    0  501  502 -0.00000000000E+00 -0.00000000000E+00 -0.34057583468E+03  0.34057583468E+03  0.00000000000E+00 0.  1.
         25    1    1    2    0    0  0.20577408383E+03 -0.23569131804E+03 -0.71994770750E+02  0.34453101166E+03  0.12500000000E+03 0.  0.
         21    1    1    2  503  504 -0.14566558515E+03  0.12296885656E+03 -0.26257335500E+02  0.19242985747E+03  0.00000000000E+00 0.  1.
         21    1    1    2  504  502 -0.60108498682E+02  0.11272246149E+03  0.15465199492E+03  0.20059068889E+03  0.00000000000E+00 0.  1.
<mgrwt>
<rscale>  4 0.25968679E+03</rscale>
<asrwt>0</asrwt>
<pdfrwt beam="1">  1       21 0.61073188E-01 0.25968679E+03</pdfrwt>
<pdfrwt beam="2">  1       21 0.52396282E-01 0.25968679E+03</pdfrwt>
<totfact> 0.82605645E+03</totfact>
</mgrwt>
</event>
<event>
 5    0  0.3120399E-003  0.2744101E+03  0.7546771E-02  0.1098782E+00
         21   -1    0    0  502  501  0.00000000000E+00  0.00000000000E+00  0.14782185188E+04  0.14782185188E+04  0.00000000000E+00 0.  1.
         21   -1    0    0  504  502 -0.00000000000E+00 -0.00000000000E+00 -0.13475504525E+03  0.13475504525E+03  0.00000000000E+00 0.  1.
         25    1    1    2    0    0 -0.14775308751E+03 -0.34918122584E+03  0.32773812881E+03  0.51652278210E+03  0.12500000000E+03 0.  0.
         21    1    1    2  503  501  0.18191987629E+03  0.25954332133E+03  0.77283809297E+03  0.83530610856E+03  0.00000000000E+00 0.  1.
         21    1    1    2  504  503 -0.34166788776E+02  0.89637904505E+02  0.24288725181E+03  0.26114467345E+03  0.00000000000E+00 0. -1.
<mgrwt>
<rscale>  4 0.27441010E+03</rscale>
<asrwt>0</asrwt>
<pdfrwt beam="1">  1       21 0.22741822E+00 0.27441010E+03</pdfrwt>
<pdfrwt beam="2">  1       21 0.20731546E-01 0.27441010E+03</pdfrwt>
<totfact> 0.18126390E+03</totfact>
</mgrwt>
</event>
<event>
 5    0  0.3120399E-003  0.3568443E+03  0.7546771E-02  0.1059840E+00
         21   -1    0    0  504  501  0.00000000000E+00  0.00000000000E+00  0.11997812281E+03  0.11997812281E+03  0.00000000000E+00 0.  1.
         21   -1    0    0  501  502 -0.00000000000E+00 -0.00000000000E+00 -0.11191021741E+04  0.11191021741E+04  0.00000000000E+00 0.  1.
         25    1    1    2    0    0  0.19610746979E+03  0.57629027719E+02 -0.22482335933E+03  0.32855712965E+03  0.12500000000E+03 0.  0.
         21    1    1    2  503  502  0.32421179789E+02  0.15847112016E+03 -0.21786011897E+03  0.27134343601E+03  0.00000000000E+00 0.  1.
         21    1    1    2  504  503 -0.22852864958E+03 -0.21610014788E+03 -0.55644057303E+03  0.63917973130E+03  0.00000000000E+00 0.  1.
<mgrwt>
<rscale>  4 0.35684433E+03</rscale>
<asrwt>0</asrwt>
<pdfrwt beam="1">  1       21 0.18458173E-01 0.35684433E+03</pdfrwt>
<pdfrwt beam="2">  1       21 0.17216956E+00 0.35684433E+03</pdfrwt>
<totfact> 0.49707811E+03</totfact>
</mgrwt>
</event>
<event>
 5    0  0.3120399E-003  0.5183633E+03  0.7546771E-02  0.1009094E+00
         21   -1    0    0  503  501  0.00000000000E+00  0.00000000000E+00  0.57768175000E+03  0.57768175000E+03  0.00000000000E+00 0.  1.
         21   -1    0    0  501  502 -0.00000000000E+00 -0.00000000000E+00 -0.51650925289E+03  0.51650925289E+03  0.00000000000E+00 0.  1.
         25    1    1    2    0    0 -0.19591930661E+03  0.16021477045E+03  0.15297827979E+03  0.32106152286E+03  0.12500000000E+03 0.  0.
         21    1    1    2  503  504  0.19528966545E+03  0.26697893069E+03  0.20514456395E+02  0.33141612179E+03  0.00000000000E+00 0.  1.
         21    1    1    2  504  502  0.62964115612E+00 -0.42719370114E+03 -0.11232023908E+03  0.44171335824E+03  0.00000000000E+00 0. -1.
<mgrwt>
<rscale>  4 0.51836328E+03</rscale>
<asrwt>0</asrwt>
<pdfrwt beam="1">  1       21 0.88874115E-01 0.51836328E+03</pdfrwt>
<pdfrwt beam="2">  1       21 0.79462962E-01 0.51836328E+03</pdfrwt>
<totfact> 0.12595376E+03</totfact>
</mgrwt>
</event>
<event>
 5    0  0.3120399E-003  0.3429276E+03  0.7546771E-02  0.1065556E+00
         21   -1    0    0  502  501  0.00000000000E+00  0.00000000000E+00  0.81166613966E+03  0.81166613966E+03  0.00000000000E+00 0.  1.
         21   -1    0    0  503  502 -0.00000000000E+00 -0.00000000000E+00 -0.18433727278E+03  0.18433727278E+03  0.00000000000E+00 0.  1.
         25    1    1    2    0    0 -0.85664831549E+02 -0.21931002594E+03 -0.23530468931E+02  0.26760798533E+03  0.12500000000E+03 0.  0.
         21    1    1    2  503  504  0.99406423632E+02  0.25115417666E+03  0.45219262478E+03  0.52672405244E+03  0.00000000000E+00 0.  1.
         21    1    1    2  504  501 -0.13741592082E+02 -0.31844150722E+02  0.19866671104E+03  0.20167137467E+03  0.00000000000E+00 0. -1.
<mgrwt>
<rscale>  4 0.34292763E+03</rscale>
<asrwt>0</asrwt>
<pdfrwt beam="1">  1       21 0.12487171E+00 0.34292763E+03</pdfrwt>
<pdfrwt beam="2">  1       21 0.28359581E-01 0.34292763E+03</pdfrwt>
<totfact> 0.51891058E+03</totfact>
</mgrwt>
</event>
<event>
 5    0  0.3120399E-003  0.5817912E+03  0.7546771E-02  0.9943921E-01
         21   -1    0    0  502  501  0.00000000000E+00  0.00000000000E+00  0.39550925616E+03  0.39550925616E+03  0.00000000000E+00 0.  1.
         21   -1    0    0  504  502 -0.00000000000E+00 -0.00000000000E+00 -0.89014711337E+03  0.89014711337E+03  0.00000000000E+00 0.  1.
         25    1    1    2    0    0  0.39565315353E+02  0.22646239534E+03 -0.23819542096E+02  0.26276034949E+03  0.12500000000E+03 0.  0.
         21    1    1    2  503  501  0.16125353890E+03 -0.51998530883E+03 -0.35033414167E+03  0.64739588818E+03  0.00000000000E+00 0.  1.
         21    1    1    2  504  503 -0.20081885426E+03  0.29352291349E+03 -0.12048417345E+03  0.37550013185E+03  0.00000000000E+00 0.  1.
<mgrwt>
<rscale>  4 0.58179123E+03</rscale>
<asrwt>0</asrwt>
<pdfrwt beam="1">  1       21 0.60847578E-01 0.58179123E+03</pdfrwt>
<pdfrwt beam="2">  1       21 0.13694571E+00 0.58179123E+03</pdfrwt>
<totfact> 0.76366980E+02</totfact>
</mgrwt>
</event>
