<event>
 5    0  0.1911311E+001  0.2654361E+03  0.7546771E-02  0.1103920E+00
         21   -1    0    0  504  501  0.00000000000E+00  0.00000000000E+00  0.28503643920E+03  0.28503643920E+03  0.00000000000E+00 0. -1.
         21   -1    0    0  503  502 -0.00000000000E+00 -0.00000000000E+00 -0.43120663410E+03  0.43120663410E+03  0.00000000000E+00 0. -1.
         25    1    1    2    0    0  0.17264986095E+03  0.13099345044E+03 -0.32740105515E+02  0.25231760353E+03  0.12500000000E+03 0.  0.
         21    1    1    2  503  501 -0.19532243629E+03 -0.14335459850E+03 -0.23626125300E+03  0.33840918235E+03  0.00000000000E+00 0. -1.
         21    1    1    2  504  502  0.22672575336E+02  0.12361148064E+02  0.12283116361E+03  0.12551628742E+03  0.00000000000E+00 0. -1.
<mgrwt>
<rscale>  4 0.26543606E+03</rscale>
<asrwt>0</asrwt>
<pdfrwt beam="1">  1       21 0.43851760E-01 0.26543606E+03</pdfrwt>
<pdfrwt beam="2">  1       21 0.66339482E-01 0.26543606E+03</pdfrwt>
<totfact> 0.99682611E+03</totfact>
</mgrwt>
</event>
<event>
 5    0  0.1911311E+001  0.2619333E+03  0.7546771E-02  0.1105987E+00
         21   -1    0    0  502  501  0.00000000000E+00  0.00000000000E+00  0.47885555753E+03  0.47885555753E+03  0.00000000000E+00 0.  1.
         21   -1    0    0  504  502 -0.00000000000E+00 -0.00000000000E+00 -0.19383158563E+03  0.19383158563E+03  0.00000000000E+00 0. -1.
         25    1    1    2    0    0 -0.91673013971E+02  0.24529726367E+03  0.25078697117E+03  0.38352808758E+03  0.12500000000E+03 0.  0.
         21    1    1    2  503  501 -0.11690777948E+02 -0.50837148806E+02  0.44685535191E+02  0.68686876789E+02  0.00000000000E+00 0. -1.
         21    1    1    2  504  503  0.10336379192E+03 -0.19446011486E+03 -0.10448534456E+02  0.22047217880E+03  0.00000000000E+00 0. -1.
<mgrwt>
<rscale>  4 0.26193331E+03</rscale>
<asrwt>0</asrwt>
<pdfrwt beam="1">  1       21 0.73670085E-01 0.26193331E+03</pdfrwt>
<pdfrwt beam="2">  1       21 0.29820244E-01 0.26193331E+03</pdfrwt>
<totfact> 0.17169700E+04</totfact>
</mgrwt>
</event>
<event>
 5    0  0.1911311E+001  0.2601910E+03  0.7546771E-02  0.1107029E+00
         21   -1    0    0  504  501  0.00000000000E+00  0.00000000000E+00  0.19097029604E+04  0.19097029604E+04  0.00000000000E+00 0.  1.
         21   -1    0    0  503  502 -0.00000000000E+00 -0.00000000000E+00 -0.47905019275E+02  0.47905019275E+02  0.00000000000E+00 0.  1.
         25    1    1    2    0    0  0.11983063556E+03  0.21883385170E+03  0.64277454404E+03  0.70073657699E+03  0.12500000000E+03 0.  0.
         21    1    1    2  503  501  0.55889374277E+01 -0.36825737122E+02  0.30998175212E+02  0.48458827912E+02  0.00000000000E+00 0.  1.
         21    1    1    2  504  502 -0.12541957299E+03 -0.18200811458E+03  0.11880252219E+04  0.12084125748E+04  0.00000000000E+00 0.  1.
<mgrwt>
<rscale>  4 0.26019096E+03</rscale>
<asrwt>0</asrwt>
<pdfrwt beam="1">  1       21 0.29380040E+00 0.26019096E+03</pdfrwt>
<pdfrwt beam="2">  1       21 0.73700044E-02 0.26019096E+03</pdfrwt>
<totfact> 0.47958499E+03</totfact>
</mgrwt>
</event>
