<event>
 5    0  0.3175509E+000  0.4966685E+03  0.7546771E-02  0.1014652E+00
         21   -1    0    0  502  501  0.00000000000E+00  0.00000000000E+00  0.39721360411E+03  0.39721360411E+03  0.00000000000E+00 0.  1.
         21   -1    0    0  504  502 -0.00000000000E+00 -0.00000000000E+00 -0.60585677496E+03  0.60585677496E+03  0.00000000000E+00 0.  1.
         25    1    1    2    0    0  0.29162102236E+03 -0.27617191225E+03 -0.34407790408E+03  0.54344121106E+03  0.12500000000E+03 0.  0.
         21    1    1    2  503  501 -0.22058636867E+03  0.25974008281E+03  0.16781865374E+03  0.37985044057E+03  0.00000000000E+00 0.  1.
         21    1    1    2  504  503 -0.71034653690E+02  0.16431829442E+02 -0.32383920510E+02  0.79778727436E+02  0.00000000000E+00 0. -1.
<mgrwt>
<rscale>  4 0.49666849E+03</rscale>
<asrwt>0</asrwt>
<pdfrwt beam="1">  1       21 0.61109786E-01 0.49666849E+03</pdfrwt>
<pdfrwt beam="2">  1       21 0.93208734E-01 0.49666849E+03</pdfrwt>
<totfact> 0.20491660E+03</totfact>
</mgrwt>
</event>
<event>
 5    0  0.2349231E+000  0.5070738E+03  0.7546771E-02  0.1011949E+00
         21   -1    0    0  504  501  0.00000000000E+00  0.00000000000E+00  0.15505942707E+04  0.15505942707E+04  0.00000000000E+00 0. -1.
         21   -1    0    0  501  502 -0.00000000000E+00 -0.00000000000E+00 -0.48485198342E+02  0.48485198342E+02  0.00000000000E+00 0.  1.
         25    1    1    2    0    0 -0.14098873012E+03 -0.17794761305E+03  0.98661821217E+03  0.10200900311E+04  0.12500000000E+03 0.  0.
         21    1    1    2  503  502  0.15590897229E+03  0.14444125544E+03  0.34994731997E+03  0.40943132595E+03  0.00000000000E+00 0.  1.
         21    1    1    2  504  503 -0.14920242174E+02  0.33506357613E+02  0.16554354018E+03  0.16955811193E+03  0.00000000000E+00 0. -1.
<mgrwt>
<rscale>  4 0.50707385E+03</rscale>
<asrwt>0</asrwt>
<pdfrwt beam="1">  1       21 0.23855293E+00 0.50707385E+03</pdfrwt>
<pdfrwt beam="2">  1       21 0.74592625E-02 0.50707385E+03</pdfrwt>
<totfact> 0.88535502E+03</totfact>
</mgrwt>
</event>
<event>
 5    0  0.2349231E+000  0.3812075E+03  0.7546771E-02  0.1050488E+00
         21   -1    0    0  504  501  0.00000000000E+00  0.00000000000E+00  0.12428573153E+04  0.12428573153E+04  0.00000000000E+00 0.  1.
         21   -1    0    0  503  502 -0.00000000000E+00 -0.00000000000E+00 -0.19914002173E+03  0.19914002173E+03  0.00000000000E+00 0.  1.
         25    1    1    2    0    0 -0.20073219730E+03  0.23754589952E+02 -0.80045551247E+02  0.25077875877E+03  0.12500000000E+03 0.  0.
         21    1    1    2  503  501  0.11198968509E+03 -0.53664476482E+01  0.67072886922E+02  0.13064937997E+03  0.00000000000E+00 0.  1.
         21    1    1    2  504  502  0.88742512210E+02 -0.18388142304E+02  0.10566899579E+04  0.10605691983E+04  0.00000000000E+00 0.  1.
<mgrwt>
<rscale>  4 0.38120747E+03</rscale>
<asrwt>0</asrwt>
<pdfrwt beam="1">  1       21 0.19120881E+00 0.38120747E+03</pdfrwt>
<pdfrwt beam="2">  1       21 0.30636927E-01 0.38120747E+03</pdfrwt>
<totfact> 0.13615873E+03</totfact>
</mgrwt>
</event>
