<event>
 5    0  0.1911311E+001  0.5480483E+03  0.7546771E-02  0.1001947E+00
         21   -1    0    0  502  501  0.00000000000E+00  0.00000000000E+00  0.19769623863E+04  0.19769623863E+04  0.00000000000E+00 0. -1.
         21   -1    0    0  504  502 -0.00000000000E+00 -0.00000000000E+00 -0.42475400028E+03  0.42475400028E+03  0.00000000000E+00 0. -1.
         25    1    1    2    0    0  0.17332579437E+03  0.54138243544E+03  0.45553581089E+01  0.58205027591E+03  0.12500000000E+03 0.  0.
         21    1    1    2  503  501 -0.10515422893E+02 -0.53131881185E+03  0.15676953096E+04  0.16553183494E+04  0.00000000000E+00 0. -1.
         21    1    1    2  504  503 -0.16281037148E+03 -0.10063623587E+02 -0.20042281736E+02  0.16434776128E+03  0.00000000000E+00 0. -1.
<mgrwt>
<rscale>  4 0.54804833E+03</rscale>
<asrwt>0</asrwt>
<pdfrwt beam="1">  1       21 0.30414806E+00 0.54804833E+03</pdfrwt>
<pdfrwt beam="2">  1       21 0.65346770E-01 0.54804833E+03</pdfrwt>
<totfact> 0.49969643E+01</totfact>
</mgrwt>
</event>
<event>
 5    0  0.1911311E+001  0.2013373E+03  0.7546771E-02  0.1148616E+00
         21   -1    0    0  502  501  0.00000000000E+00  0.00000000000E+00  0.53967577766E+03  0.53967577766E+03  0.00000000000E+00 0.  1.
         21   -1    0    0  504  502 -0.00000000000E+00 -0.00000000000E+00 -0.43653397054E+03  0.43653397054E+03  0.00000000000E+00 0.  1.
         25    1    1    2    0    0 -0.15194431959E+03  0.13763543956E+03  0.84010287681E+02  0.25438812652E+03  0.12500000000E+03 0.  0.
         21    1    1    2  503  501  0.19553761811E+02 -0.59946766080E+02  0.35076394595E+03  0.35638646179E+03  0.00000000000E+00 0.  1.
         21    1    1    2  504  503  0.13239055778E+03 -0.77688673479E+02 -0.33163242651E+03  0.36543515990E+03  0.00000000000E+00 0.  1.
<mgrwt>
<rscale>  4 0.20133730E+03</rscale>
<asrwt>0</asrwt>
<pdfrwt beam="1">  1       21 0.83027043E-01 0.20133730E+03</pdfrwt>
<pdfrwt beam="2">  1       21 0.67159072E-01 0.20133730E+03</pdfrwt>
<totfact> 0.25464142E+03</totfact>
</mgrwt>
</event>
<event>
 5    0  0.1911311E+001  0.2597843E+03  0.7546771E-02  0.1107273E+00
         21   -1    0    0  504  501  0.00000000000E+00  0.00000000000E+00  0.12818517840E+04  0.12818517840E+04  0.00000000000E+00 0. -1.
         21   -1    0    0  503  502 -0.00000000000E+00 -0.00000000000E+00 -0.65437588164E+02  0.65437588164E+02  0.00000000000E+00 0. -1.
         25    1    1    2    0    0 -0.22859869860E+03 -0.74453731322E+02  0.67788196742E+03  0.73003402993E+03  0.12500000000E+03 0.  0.
         21    1    1    2  503  501  0.22438378384E+02  0.46730384968E+01 -0.11560165231E+02  0.25670129207E+02  0.00000000000E+00 0. -1.
         21    1    1    2  504  502  0.20616032021E+03  0.69780692826E+02  0.55009239368E+03  0.59158521305E+03  0.00000000000E+00 0. -1.
<mgrwt>
<rscale>  4 0.25978430E+03</rscale>
<asrwt>0</asrwt>
<pdfrwt beam="1">  1       21 0.19720795E+00 0.25978430E+03</pdfrwt>
<pdfrwt beam="2">  1       21 0.10067322E-01 0.25978430E+03</pdfrwt>
<totfact> 0.10686025E+04</totfact>
</mgrwt>
</event>
<event>
 5    0  0.1911311E+001  0.3191333E+03  0.7546771E-02  0.1076049E+00
         21   -1    0    0  502  501  0.00000000000E+00  0.00000000000E+00  0.66751244518E+03  0.66751244518E+03  0.00000000000E+00 0. -1.
         21   -1    0    0  504  502 -0.00000000000E+00 -0.00000000000E+00 -0.44995107024E+03  0.44995107024E+03  0.00000000000E+00 0.  1.
         25    1    1    2    0    0  0.28841331933E+03  0.87866246741E+02  0.51521229029E+03  0.60989460086E+03  0.12500000000E+03 0.  0.
         21    1    1    2  503  501 -0.24966396586E+02  0.40832362105E+02  0.38565453870E+02  0.61464599452E+02  0.00000000000E+00 0. -1.
         21    1    1    2  504  503 -0.26344692275E+03 -0.12869860885E+03 -0.33621636923E+03  0.44610431511E+03  0.00000000000E+00 0.  1.
<mgrwt>
<rscale>  4 0.31913328E+03</rscale>
<asrwt>0</asrwt>
<pdfrwt beam="1">  1       21 0.10269422E+00 0.31913328E+03</pdfrwt>
<pdfrwt beam="2">  1       21 0.69223241E-01 0.31913328E+03</pdfrwt>
<totfact> 0.13307891E+03</totfact>
</mgrwt>
</event>
<event>
 5    0  0.1911311E+001  0.2600972E+03  0.7546771E-02  0.1107085E+00
         21   -1    0    0  502  501  0.00000000000E+00  0.00000000000E+00  0.72002042167E+02  0.72002042167E+02  0.00000000000E+00 0.  1.
         21   -1    0    0  504  502 -0.00000000000E+00 -0.00000000000E+00 -0.87789522636E+03  0.87789522636E+03  0.00000000000E+00 0.  1.
         25    1    1    2    0    0  0.17647175100E+03 -0.14451042174E+03 -0.37032272403E+03  0.45253669555E+03  0.12500000000E+03 0.  0.
         21    1    1    2  503  501 -0.47505894666E+02  0.15949966457E+02 -0.49195107119E+02  0.70223714104E+02  0.00000000000E+00 0.  1.
         21    1    1    2  504  503 -0.12896585633E+03  0.12856045528E+03 -0.38637535305E+03  0.42713685887E+03  0.00000000000E+00 0.  1.
<mgrwt>
<rscale>  4 0.26009718E+03</rscale>
<asrwt>0</asrwt>
<pdfrwt beam="1">  1       21 0.11077238E-01 0.26009718E+03</pdfrwt>
<pdfrwt beam="2">  1       21 0.13506080E+00 0.26009718E+03</pdfrwt>
<totfact> 0.25580885E+04</totfact>
</mgrwt>
</event>
