<event>
 4    0  0.1775285E-001  0.4990083E+03  0.7546771E-02  0.1014038E+00
         21   -1    0    0  503  501  0.00000000000E+00  0.00000000000E+00  0.31358424442E+03  0.31358424442E+03  0.00000000000E+00 0. -1.
         21   -1    0    0  501  502 -0.00000000000E+00 -0.00000000000E+00 -0.19851865739E+03  0.19851865739E+03  0.00000000000E+00 0. -1.
         25    1    1    2    0    0 -0.17879807539E+03  0.13891134340E+03  0.11290872832E+01  0.25863369449E+03  0.12500000000E+03 0.  0.
         21    1    1    2  503  502  0.17879807539E+03 -0.13891134340E+03  0.11393649974E+03  0.25346920732E+03  0.00000000000E+00 0. -1.
<mgrwt>
<rscale>  3 0.49900831E+03</rscale>
<asrwt>0</asrwt>
<pdfrwt beam="1">  1       21 0.48243730E-01 0.49900831E+03</pdfrwt>
<pdfrwt beam="2">  1       21 0.30541332E-01 0.49900831E+03</pdfrwt>
<totfact> 0.38299709E+04</totfact>
</mgrwt>
</event>
<event>
 4    0  0.1775285E-001  0.5326309E+03  0.7546771E-02  0.1005596E+00
         21   -1    0    0  503  501  0.00000000000E+00  0.00000000000E+00  0.11460193531E+03  0.11460193531E+03  0.00000000000E+00 0. -1.
         21   -1    0    0  501  502 -0.00000000000E+00 -0.00000000000E+00 -0.61887195784E+03  0.61887195784E+03  0.00000000000E+00 0. -1.
         25    1    1    2    0    0 -0.21394058219E+03 -0.10182003530E+03 -0.38277869590E+03  0.46720704439E+03  0.12500000000E+03 0.  0.
         21    1    1    2  503  502  0.21394058219E+03  0.10182003530E+03 -0.12149132664E+03  0.26626684876E+03  0.00000000000E+00 0. -1.
<mgrwt>
<rscale>  3 0.53263092E+03</rscale>
<asrwt>0</asrwt>
<pdfrwt beam="1">  1       21 0.17631067E-01 0.53263092E+03</pdfrwt>
<pdfrwt beam="2">  1       21 0.95211072E-01 0.53263092E+03</pdfrwt>
<totfact> 0.23866402E+04</totfact>
</mgrwt>
</event>
<event>
 4    0  0.1775285E-001  0.5520216E+03  0.7546771E-02  0.1001027E+00
         21   -1    0    0  503  501  0.00000000000E+00  0.00000000000E+00  0.24843388329E+03  0.24843388329E+03  0.00000000000E+00 0.  1.
         21   -1    0    0  501  502 -0.00000000000E+00 -0.00000000000E+00 -0.30664878403E+03  0.30664878403E+03  0.00000000000E+00 0.  1.
         25    1    1    2    0    0  0.11274598459E+03 -0.16970532028E+03  0.13480595859E+03  0.27442521612E+03  0.12500000000E+03 0.  0.
         21    1    1    2  503  502 -0.11274598459E+03  0.16970532028E+03 -0.19302085933E+03  0.28065745119E+03  0.00000000000E+00 0.  1.
<mgrwt>
<rscale>  3 0.55202155E+03</rscale>
<asrwt>0</asrwt>
<pdfrwt beam="1">  1       21 0.38220597E-01 0.55202155E+03</pdfrwt>
<pdfrwt beam="2">  1       21 0.47176736E-01 0.55202155E+03</pdfrwt>
<totfact> 0.25228922E+04</totfact>
</mgrwt>
</event>
<event>
 4    0  0.1775285E-001  0.5534173E+03  0.7546771E-02  0.1000706E+00
         21   -1    0    0  502  501  0.00000000000E+00  0.00000000000E+00  0.38711792598E+03  0.38711792598E+03  0.00000000000E+00 0.  1.
         21   -1    0    0  503  502 -0.00000000000E+00 -0.00000000000E+00 -0.19778904592E+03  0.19778904592E+03  0.00000000000E+00 0.  1.
         25    1    1    2    0    0  0.23135915327E+03 -0.92027052844E+02  0.11330233327E+02  0.27883581270E+03  0.12500000000E+03 0.  0.
         21    1    1    2  503  501 -0.23135915327E+03  0.92027052844E+02  0.17799864673E+03  0.30607115920E+03  0.00000000000E+00 0.  1.
<mgrwt>
<rscale>  3 0.55341733E+03</rscale>
<asrwt>0</asrwt>
<pdfrwt beam="1">  1       21 0.59556604E-01 0.55341733E+03</pdfrwt>
<pdfrwt beam="2">  1       21 0.30429084E-01 0.55341733E+03</pdfrwt>
<totfact> 0.24217240E+04</totfact>
</mgrwt>
</event>
<event>
 4    0  0.1775285E-001  0.4531771E+03  0.7546771E-02  0.1026779E+00
         21   -1    0    0  502  501  0.00000000000E+00  0.00000000000E+00  0.40188615966E+03  0.40188615966E+03  0.00000000000E+00 0. -1.
         21   -1    0    0  503  502 -0.00000000000E+00 -0.00000000000E+00 -0.12775351330E+03  0.12775351330E+03  0.00000000000E+00 0. -1.
         25    1    1    2    0    0  0.18955330512E+03 -0.87325110940E+02  0.16673200727E+03  0.29492489337E+03  0.12500000000E+03 0.  0.
         21    1    1    2  503  501 -0.18955330512E+03  0.87325110940E+02  0.10740063909E+03  0.23471477959E+03  0.00000000000E+00 0. -1.
<mgrwt>
<rscale>  3 0.45317709E+03</rscale>
<asrwt>0</asrwt>
<pdfrwt beam="1">  1       21 0.61828639E-01 0.45317709E+03</pdfrwt>
<pdfrwt beam="2">  1       21 0.19654387E-01 0.45317709E+03</pdfrwt>
<totfact> 0.53337814E+04</totfact>
</mgrwt>
</event>
<event>
 4    0  0.1775285E-001  0.5169074E+03  0.7546771E-02  0.1009458E+00
         21   -1    0    0  503  501  0.00000000000E+00  0.00000000000E+00  0.48498872483E+03  0.48498872483E+03  0.00000000000E+00 0. -1.
         21   -1    0    0  501  502 -0.00000000000E+00 -0.00000000000E+00 -0.13773167546E+03  0.13773167546E+03  0.00000000000E+00 0. -1.
         25    1    1    2    0    0  0.80951463901E+02 -0.22889015976E+03  0.16397221508E+03  0.31852116423E+03  0.12500000000E+03 0.  0.
         21    1    1    2  503  502 -0.80951463901E+02  0.22889015976E+03  0.18328483430E+03  0.30419923607E+03  0.00000000000E+00 0. -1.
<mgrwt>
<rscale>  3 0.51690738E+03</rscale>
<asrwt>0</asrwt>
<pdfrwt beam="1">  1       21 0.74613649E-01 0.51690738E+03</pdfrwt>
<pdfrwt beam="2">  1       21 0.21189489E-01 0.51690738E+03</pdfrwt>
<totfact> 0.29894551E+04</totfact>
</mgrwt>
</event>
<event>
 4    0  0.1775285E-001  0.4949879E+03  0.7546771E-02  0.1015095E+00
         21   -1    0    0  503  501  0.00000000000E+00  0.00000000000E+00  0.50079254653E+03  0.50079254653E+03  0.00000000000E+00 0.  1.
         21   -1    0    0  501  502 -0.00000000000E+00 -0.00000000000E+00 -0.12231262814E+03  0.12231262814E+03  0.00000000000E+00 0.  1.
         25    1    1    2    0    0  0.22365006596E+03 -0.74905985555E+00  0.27756819599E+03  0.37774199729E+03  0.12500000000E+03 0.  0.
         21    1    1    2  503  502 -0.22365006596E+03  0.74905985555E+00  0.10091172241E+03  0.24536317738E+03  0.00000000000E+00 0.  1.
<mgrwt>
<rscale>  3 0.49498789E+03</rscale>
<asrwt>0</asrwt>
<pdfrwt beam="1">  1       21 0.77045006E-01 0.49498789E+03</pdfrwt>
<pdfrwt beam="2">  1       21 0.18817328E-01 0.49498789E+03</pdfrwt>
<totfact> 0.34999638E+04</totfact>
</mgrwt>
</event>
<event>
 4    0  0.1775285E-001  0.5106689E+03  0.7546771E-02  0.1011031E+00
         21   -1    0    0  503  501  0.00000000000E+00  0.00000000000E+00  0.43653467839E+03  0.43653467839E+03  0.00000000000E+00 0. -1.
         21   -1    0    0  501  502 -0.00000000000E+00 -0.00000000000E+00 -0.14934825203E+03  0.14934825203E+03  0.00000000000E+00 0. -1.
         25    1    1    2    0    0 -0.18974865597E+03 -0.14543890407E+03  0.12758457116E+03  0.29842896987E+03  0.12500000000E+03 0.  0.
         21    1    1    2  503  502  0.18974865597E+03  0.14543890407E+03  0.15960185519E+03  0.28745396056E+03  0.00000000000E+00 0. -1.
<mgrwt>
<rscale>  3 0.51066894E+03</rscale>
<asrwt>0</asrwt>
<pdfrwt beam="1">  1       21 0.67159181E-01 0.51066894E+03</pdfrwt>
<pdfrwt beam="2">  1       21 0.22976654E-01 0.51066894E+03</pdfrwt>
<totfact> 0.32499651E+04</totfact>
</mgrwt>
</event>
<event>
 4    0  0.1775285E-001  0.5114472E+03  0.7546771E-02  0.1010833E+00
         21   -1    0    0  503  501  0.00000000000E+00  0.00000000000E+00  0.30098308067E+03  0.30098308067E+03  0.00000000000E+00 0.  1.
         21   -1    0    0  501  502 -0.00000000000E+00 -0.00000000000E+00 -0.21726986103E+03  0.21726986103E+03  0.00000000000E+00 0.  1.
         25    1    1    2    0    0  0.19951571679E+03 -0.13386868021E+03  0.53864760837E+02  0.27614082865E+03  0.12500000000E+03 0.  0.
         21    1    1    2  503  502 -0.19951571679E+03  0.13386868021E+03  0.29848458810E+02  0.24211211305E+03  0.00000000000E+00 0.  1.
<mgrwt>
<rscale>  3 0.51144717E+03</rscale>
<asrwt>0</asrwt>
<pdfrwt beam="1">  1       21 0.46305090E-01 0.51144717E+03</pdfrwt>
<pdfrwt beam="2">  1       21 0.33426132E-01 0.51144717E+03</pdfrwt>
<totfact> 0.34762684E+04</totfact>
</mgrwt>
</event>
<event>
 4    0  0.1775285E-001  0.4976514E+03  0.7546771E-02  0.1014394E+00
         21   -1    0    0  502  501  0.00000000000E+00  0.00000000000E+00  0.28112823018E+03  0.28112823018E+03  0.00000000000E+00 0. -1.
         21   -1    0    0  503  502 -0.00000000000E+00 -0.00000000000E+00 -0.22023486911E+03  0.22023486911E+03  0.00000000000E+00 0. -1.
         25    1    1    2    0    0  0.16952078574E+03  0.15543641361E+03 -0.60007447588E+01  0.26183732433E+03  0.12500000000E+03 0.  0.
         21    1    1    2  503  501 -0.16952078574E+03 -0.15543641361E+03  0.66894105832E+02  0.23952577496E+03  0.00000000000E+00 0. -1.
<mgrwt>
<rscale>  3 0.49765144E+03</rscale>
<asrwt>0</asrwt>
<pdfrwt beam="1">  1       21 0.43250497E-01 0.49765144E+03</pdfrwt>
<pdfrwt beam="2">  1       21 0.33882287E-01 0.49765144E+03</pdfrwt>
<totfact> 0.39141736E+04</totfact>
</mgrwt>
</event>
<event>
 4    0  0.1775285E-001  0.5103810E+03  0.7546771E-02  0.1011104E+00
         21   -1    0    0  503  501  0.00000000000E+00  0.00000000000E+00  0.68846625388E+03  0.68846625388E+03  0.00000000000E+00 0.  1.
         21   -1    0    0  501  502 -0.00000000000E+00 -0.00000000000E+00 -0.94590260832E+02  0.94590260832E+02  0.00000000000E+00 0.  1.
         25    1    1    2    0    0  0.82917460721E+02 -0.20115023203E+03  0.46975724090E+03  0.53257261150E+03  0.12500000000E+03 0.  0.
         21    1    1    2  503  502 -0.82917460721E+02  0.20115023203E+03  0.12411875215E+03  0.25048390322E+03  0.00000000000E+00 0.  1.
<mgrwt>
<rscale>  3 0.51038104E+03</rscale>
<asrwt>0</asrwt>
<pdfrwt beam="1">  1       21 0.10591788E+00 0.51038104E+03</pdfrwt>
<pdfrwt beam="2">  1       21 0.14552348E-01 0.51038104E+03</pdfrwt>
<totfact> 0.26472967E+04</totfact>
</mgrwt>
</event>
<event>
 4    0  0.1775285E-001  0.1060072E+04  0.7546771E-02  0.9245006E-01
         21   -1    0    0  502  501  0.00000000000E+00  0.00000000000E+00  0.87934503345E+03  0.87934503345E+03  0.00000000000E+00 0. -1.
         21   -1    0    0  503  502 -0.00000000000E+00 -0.00000000000E+00 -0.31948597509E+03  0.31948597509E+03  0.00000000000E+00 0. -1.
         25    1    1    2    0    0 -0.23637118919E+03 -0.22307254506E+03  0.74672626674E+03  0.82392828382E+03  0.12500000000E+03 0.  0.
         21    1    1    2  503  501  0.23637118919E+03  0.22307254506E+03 -0.18686720838E+03  0.37490272472E+03  0.00000000000E+00 0. -1.
<mgrwt>
<rscale>  3 0.10600725E+04</rscale>
<asrwt>0</asrwt>
<pdfrwt beam="1">  1       21 0.13528385E+00 0.10600725E+04</pdfrwt>
<pdfrwt beam="2">  1       21 0.49151689E-01 0.10600725E+04</pdfrwt>
<totfact> 0.11267817E+03</totfact>
</mgrwt>
</event>
<event>
 4    0  0.1775285E-001  0.5994083E+03  0.7546771E-02  0.9906634E-01
         21   -1    0    0  503  501  0.00000000000E+00  0.00000000000E+00  0.75063038848E+02  0.75063038848E+02  0.00000000000E+00 0.  1.
         21   -1    0    0  501  502 -0.00000000000E+00 -0.00000000000E+00 -0.11966284633E+04  0.11966284633E+04  0.00000000000E+00 0.  1.
         25    1    1    2    0    0  0.34582043757E+02 -0.23084798894E+03 -0.23211246546E+03  0.35211916785E+03  0.12500000000E+03 0.  0.
         21    1    1    2  503  502 -0.34582043757E+02  0.23084798894E+03 -0.88945295905E+03  0.91957233435E+03  0.00000000000E+00 0. -1.
<mgrwt>
<rscale>  3 0.59940827E+03</rscale>
<asrwt>0</asrwt>
<pdfrwt beam="1">  1       21 0.11548160E-01 0.59940827E+03</pdfrwt>
<pdfrwt beam="2">  1       21 0.18409668E+00 0.59940827E+03</pdfrwt>
<totfact> 0.89693850E+03</totfact>
</mgrwt>
</event>
<event>
 4    0  0.1775285E-001  0.4982180E+03  0.7546771E-02  0.1014245E+00
         21   -1    0    0  503  501  0.00000000000E+00  0.00000000000E+00  0.60499967741E+02  0.60499967741E+02  0.00000000000E+00 0.  1.
         21   -1    0    0  501  502 -0.00000000000E+00 -0.00000000000E+00 -0.10257080284E+04  0.10257080284E+04  0.00000000000E+00 0.  1.
         25    1    1    2    0    0 -0.22473234915E+03 -0.61804273473E+02 -0.54092810700E+03  0.60212342083E+03  0.12500000000E+03 0.  0.
         21    1    1    2  503  502  0.22473234915E+03  0.61804273473E+02 -0.42427995364E+03  0.48408457529E+03  0.00000000000E+00 0.  1.
<mgrwt>
<rscale>  3 0.49821804E+03</rscale>
<asrwt>0</asrwt>
<pdfrwt beam="1">  1       21 0.93076884E-02 0.49821804E+03</pdfrwt>
<pdfrwt beam="2">  1       21 0.15780122E+00 0.49821804E+03</pdfrwt>
<totfact> 0.21201655E+04</totfact>
</mgrwt>
</event>
<event>
 4    0  0.1775285E-001  0.5169566E+03  0.7546771E-02  0.1009445E+00
         21   -1    0    0  502  501  0.00000000000E+00  0.00000000000E+00  0.60952475237E+03  0.60952475237E+03  0.00000000000E+00 0.  1.
         21   -1    0    0  503  502 -0.00000000000E+00 -0.00000000000E+00 -0.10961166449E+03  0.10961166449E+03  0.00000000000E+00 0.  1.
         25    1    1    2    0    0 -0.23177926701E+03 -0.37292693827E+02  0.35380218424E+03  0.44262101080E+03  0.12500000000E+03 0.  0.
         21    1    1    2  503  501  0.23177926701E+03  0.37292693827E+02  0.14611090364E+03  0.27651540607E+03  0.00000000000E+00 0.  1.
<mgrwt>
<rscale>  3 0.51695657E+03</rscale>
<asrwt>0</asrwt>
<pdfrwt beam="1">  1       21 0.93773037E-01 0.51695657E+03</pdfrwt>
<pdfrwt beam="2">  1       21 0.16863333E-01 0.51695657E+03</pdfrwt>
<totfact> 0.27011945E+04</totfact>
</mgrwt>
</event>
<event>
 4    0  0.1775285E-001  0.4961463E+03  0.7546771E-02  0.1014790E+00
         21   -1    0    0  503  501  0.00000000000E+00  0.00000000000E+00  0.34277187628E+03  0.34277187628E+03  0.00000000000E+00 0.  1.
         21   -1    0    0  501  502 -0.00000000000E+00 -0.00000000000E+00 -0.17953714164E+03  0.17953714164E+03  0.00000000000E+00 0.  1.
         25    1    1    2    0    0  0.55007585596E+02 -0.22425672974E+03  0.11381889798E+03  0.28617591940E+03  0.12500000000E+03 0.  0.
         21    1    1    2  503  502 -0.55007585596E+02  0.22425672974E+03  0.49415836656E+02  0.23613309852E+03  0.00000000000E+00 0.  1.
<mgrwt>
<rscale>  3 0.49614628E+03</rscale>
<asrwt>0</asrwt>
<pdfrwt beam="1">  1       21 0.52734135E-01 0.49614628E+03</pdfrwt>
<pdfrwt beam="2">  1       21 0.27621099E-01 0.49614628E+03</pdfrwt>
<totfact> 0.38683700E+04</totfact>
</mgrwt>
</event>
<event>
 4    0  0.1775285E-001  0.5938318E+03  0.7546771E-02  0.9918286E-01
         21   -1    0    0  503  501  0.00000000000E+00  0.00000000000E+00  0.22191155701E+03  0.22191155701E+03  0.00000000000E+00 0.  1.
         21   -1    0    0  501  502 -0.00000000000E+00 -0.00000000000E+00 -0.39727114168E+03  0.39727114168E+03  0.00000000000E+00 0.  1.
         25    1    1    2    0    0 -0.28055820647E+03  0.39764523543E+02 -0.75906543296E+02  0.31887447039E+03  0.12500000000E+03 0.  0.
         21    1    1    2  503  502  0.28055820647E+03 -0.39764523543E+02 -0.99453041379E+02  0.30030822831E+03  0.00000000000E+00 0.  1.
<mgrwt>
<rscale>  3 0.59383182E+03</rscale>
<asrwt>0</asrwt>
<pdfrwt beam="1">  1       21 0.34140240E-01 0.59383182E+03</pdfrwt>
<pdfrwt beam="2">  1       21 0.61118637E-01 0.59383182E+03</pdfrwt>
<totfact> 0.17994624E+04</totfact>
</mgrwt>
</event>
<event>
 4    0  0.1775285E-001  0.5013808E+03  0.7546771E-02  0.1013419E+00
         21   -1    0    0  503  501  0.00000000000E+00  0.00000000000E+00  0.24350039010E+03  0.24350039010E+03  0.00000000000E+00 0.  1.
         21   -1    0    0  501  502 -0.00000000000E+00 -0.00000000000E+00 -0.25809267490E+03  0.25809267490E+03  0.00000000000E+00 0.  1.
         25    1    1    2    0    0 -0.13559390536E+03  0.18821023534E+03  0.30570165344E+02  0.26527030528E+03  0.12500000000E+03 0.  0.
         21    1    1    2  503  502  0.13559390536E+03 -0.18821023534E+03 -0.45162450143E+02  0.23632275971E+03  0.00000000000E+00 0.  1.
<mgrwt>
<rscale>  3 0.50138076E+03</rscale>
<asrwt>0</asrwt>
<pdfrwt beam="1">  1       21 0.37461598E-01 0.50138076E+03</pdfrwt>
<pdfrwt beam="2">  1       21 0.39706565E-01 0.50138076E+03</pdfrwt>
<totfact> 0.38081694E+04</totfact>
</mgrwt>
</event>
<event>
 4    0  0.1775285E-001  0.5111135E+03  0.7546771E-02  0.1010918E+00
         21   -1    0    0  502  501  0.00000000000E+00  0.00000000000E+00  0.98035998948E+02  0.98035998948E+02  0.00000000000E+00 0.  1.
         21   -1    0    0  503  502 -0.00000000000E+00 -0.00000000000E+00 -0.66617635767E+03  0.66617635767E+03  0.00000000000E+00 0.  1.
         25    1    1    2    0    0 -0.16417806175E+03  0.16827602916E+03 -0.22691468196E+03  0.34983786364E+03  0.12500000000E+03 0.  0.
         21    1    1    2  503  501  0.16417806175E+03 -0.16827602916E+03 -0.34122567676E+03  0.41437449298E+03  0.00000000000E+00 0.  1.
<mgrwt>
<rscale>  3 0.51111355E+03</rscale>
<asrwt>0</asrwt>
<pdfrwt beam="1">  1       21 0.15082462E-01 0.51111355E+03</pdfrwt>
<pdfrwt beam="2">  1       21 0.10248867E+00 0.51111355E+03</pdfrwt>
<totfact> 0.26859915E+04</totfact>
</mgrwt>
</event>
<event>
 4    0  0.1775285E-001  0.4835732E+03  0.7546771E-02  0.1018158E+00
         21   -1    0    0  502  501  0.00000000000E+00  0.00000000000E+00  0.28285068688E+03  0.28285068688E+03  0.00000000000E+00 0.  1.
         21   -1    0    0  503  502 -0.00000000000E+00 -0.00000000000E+00 -0.20668414338E+03  0.20668414338E+03  0.00000000000E+00 0.  1.
         25    1    1    2    0    0 -0.11589938533E+03 -0.19356569021E+03  0.43650896237E+02  0.26159270764E+03  0.12500000000E+03 0.  0.
         21    1    1    2  503  501  0.11589938533E+03  0.19356569021E+03  0.32515647270E+02  0.22794212262E+03  0.00000000000E+00 0.  1.
<mgrwt>
<rscale>  3 0.48357317E+03</rscale>
<asrwt>0</asrwt>
<pdfrwt beam="1">  1       21 0.43515490E-01 0.48357317E+03</pdfrwt>
<pdfrwt beam="2">  1       21 0.31797561E-01 0.48357317E+03</pdfrwt>
<totfact> 0.44039559E+04</totfact>
</mgrwt>
</event>
<event>
 4    0  0.1775285E-001  0.4662132E+03  0.7546771E-02  0.1022994E+00
         21   -1    0    0  503  501  0.00000000000E+00  0.00000000000E+00  0.49509330275E+02  0.49509330275E+02  0.00000000000E+00 0.  1.
         21   -1    0    0  501  502 -0.00000000000E+00 -0.00000000000E+00 -0.10975445427E+04  0.10975445427E+04  0.00000000000E+00 0.  1.
         25    1    1    2    0    0 -0.14910381149E+02  0.21111266907E+03 -0.67216117519E+03  0.71569303751E+03  0.12500000000E+03 0.  0.
         21    1    1    2  503  502  0.14910381149E+02 -0.21111266907E+03 -0.37587403725E+03  0.43136083548E+03  0.00000000000E+00 0.  1.
<mgrwt>
<rscale>  3 0.46621324E+03</rscale>
<asrwt>0</asrwt>
<pdfrwt beam="1">  1       21 0.76168209E-02 0.46621324E+03</pdfrwt>
<pdfrwt beam="2">  1       21 0.16885299E+00 0.46621324E+03</pdfrwt>
<totfact> 0.25265713E+04</totfact>
</mgrwt>
</event>
<event>
 4    0  0.1775285E-001  0.4504220E+03  0.7546771E-02  0.1027596E+00
         21   -1    0    0  503  501  0.00000000000E+00  0.00000000000E+00  0.42947901732E+03  0.42947901732E+03  0.00000000000E+00 0. -1.
         21   -1    0    0  501  502 -0.00000000000E+00 -0.00000000000E+00 -0.11809653744E+03  0.11809653744E+03  0.00000000000E+00 0. -1.
         25    1    1    2    0    0 -0.84009751865E+02 -0.18351091131E+03  0.22815510322E+03  0.32926227252E+03  0.12500000000E+03 0.  0.
         21    1    1    2  503  502  0.84009751865E+02  0.18351091131E+03  0.83227376649E+02  0.21831328224E+03  0.00000000000E+00 0. -1.
<mgrwt>
<rscale>  3 0.45042196E+03</rscale>
<asrwt>0</asrwt>
<pdfrwt beam="1">  1       21 0.66073694E-01 0.45042196E+03</pdfrwt>
<pdfrwt beam="2">  1       21 0.18168698E-01 0.45042196E+03</pdfrwt>
<totfact> 0.53457814E+04</totfact>
</mgrwt>
</event>
