<event>
 5    0  0.1531977E+001  0.2831702E+03  0.7546771E-02  0.1093970E+00
         21   -1    0    0  504  501  0.00000000000E+00  0.00000000000E+00  0.70187864466E+02  0.70187864466E+02  0.00000000000E+00 0. -1.
         21   -1    0    0  501  502 -0.00000000000E+00 -0.00000000000E+00 -0.12646409389E+04  0.12646409389E+04  0.00000000000E+00 0. -1.
         25    1    1    2    0    0 -0.18244139720E+03 -0.20122595000E+03 -0.71313802205E+03  0.77328363804E+03  0.12500000000E+03 0.  0.
         21    1    1    2  503  502  0.17822931524E+03  0.16813724883E+03 -0.35815371398E+03  0.43394689317E+03  0.00000000000E+00 0. -1.
         21    1    1    2  504  503  0.42120819612E+01  0.33088701171E+02 -0.12316133838E+03  0.12759827213E+03  0.00000000000E+00 0. -1.
<mgrwt>
<rscale>  4 0.28317021E+03</rscale>
<asrwt>0</asrwt>
<pdfrwt beam="1">  1       21 0.10798134E-01 0.28317021E+03</pdfrwt>
<pdfrwt beam="2">  1       21 0.19456013E+00 0.28317021E+03</pdfrwt>
<totfact> 0.96776206E+03</totfact>
</mgrwt>
</event>
<event>
 5    0  0.1531977E+001  0.2644986E+03  0.7546771E-02  0.1104470E+00
         21   -1    0    0  502  501  0.00000000000E+00  0.00000000000E+00  0.11833081875E+03  0.11833081875E+03  0.00000000000E+00 0. -1.
         21   -1    0    0  504  502 -0.00000000000E+00 -0.00000000000E+00 -0.13712529966E+04  0.13712529966E+04  0.00000000000E+00 0.  1.
         25    1    1    2    0    0 -0.49474116313E+02 -0.20778222382E+03 -0.96978425183E+03  0.10008634451E+04  0.12500000000E+03 0.  0.
         21    1    1    2  503  501  0.38371646514E+02  0.23271839535E+03 -0.34243318281E+02  0.23833346311E+03  0.00000000000E+00 0. -1.
         21    1    1    2  504  503  0.11102469799E+02 -0.24936171528E+02 -0.24889460775E+03  0.25038690711E+03  0.00000000000E+00 0.  1.
<mgrwt>
<rscale>  4 0.26449855E+03</rscale>
<asrwt>0</asrwt>
<pdfrwt beam="1">  1       21 0.18204741E-01 0.26449855E+03</pdfrwt>
<pdfrwt beam="2">  1       21 0.21096200E+00 0.26449855E+03</pdfrwt>
<totfact> 0.29549378E+03</totfact>
</mgrwt>
</event>
<event>
 5    0  0.1531977E+001  0.2719921E+03  0.7546771E-02  0.1100145E+00
         21   -1    0    0  502  501  0.00000000000E+00  0.00000000000E+00  0.67495557137E+03  0.67495557137E+03  0.00000000000E+00 0. -1.
         21   -1    0    0  504  502 -0.00000000000E+00 -0.00000000000E+00 -0.45751506188E+03  0.45751506188E+03  0.00000000000E+00 0. -1.
         25    1    1    2    0    0 -0.18148369478E+03  0.23753683474E+03  0.47553190213E+03  0.57542651075E+03  0.12500000000E+03 0.  0.
         21    1    1    2  503  501  0.73025898257E+02 -0.25741871191E+02  0.10038765185E+03  0.12677975545E+03  0.00000000000E+00 0. -1.
         21    1    1    2  504  503  0.10845779652E+03 -0.21179496355E+03 -0.35847904449E+03  0.43026436704E+03  0.00000000000E+00 0. -1.
<mgrwt>
<rscale>  4 0.27199206E+03</rscale>
<asrwt>0</asrwt>
<pdfrwt beam="1">  1       21 0.10383932E+00 0.27199206E+03</pdfrwt>
<pdfrwt beam="2">  1       21 0.70386933E-01 0.27199206E+03</pdfrwt>
<totfact> 0.12861005E+03</totfact>
</mgrwt>
</event>
<event>
 5    0  0.1531977E+001  0.1940518E+03  0.7546771E-02  0.1154857E+00
         21   -1    0    0  503  501  0.00000000000E+00  0.00000000000E+00  0.17369664807E+04  0.17369664807E+04  0.00000000000E+00 0. -1.
         21   -1    0    0  504  502 -0.00000000000E+00 -0.00000000000E+00 -0.70990675101E+03  0.70990675101E+03  0.00000000000E+00 0. -1.
         25    1    1    2    0    0 -0.17668926715E+03  0.11344793185E+03  0.15705068017E+03  0.29048140475E+03  0.12500000000E+03 0.  0.
         21    1    1    2  503  502  0.12109176252E+03 -0.81823900789E+02 -0.63420124780E+03  0.65082224025E+03  0.00000000000E+00 0. -1.
         21    1    1    2  504  501  0.55597504630E+02 -0.31624031061E+02  0.15042102973E+04  0.15055695867E+04  0.00000000000E+00 0. -1.
<mgrwt>
<rscale>  4 0.19405179E+03</rscale>
<asrwt>0</asrwt>
<pdfrwt beam="1">  1       21 0.26722561E+00 0.19405179E+03</pdfrwt>
<pdfrwt beam="2">  1       21 0.10921642E+00 0.19405179E+03</pdfrwt>
<totfact> 0.34968989E+01</totfact>
</mgrwt>
</event>
<event>
 5    0  0.1531977E+001  0.2196898E+03  0.7546771E-02  0.1134114E+00
         21   -1    0    0  502  501  0.00000000000E+00  0.00000000000E+00  0.73072602774E+03  0.73072602774E+03  0.00000000000E+00 0. -1.
         21   -1    0    0  504  502 -0.00000000000E+00 -0.00000000000E+00 -0.37427533992E+03  0.37427533992E+03  0.00000000000E+00 0. -1.
         25    1    1    2    0    0  0.20304704038E+03 -0.25252806140E+02 -0.27277839589E+03  0.36317882384E+03  0.12500000000E+03 0.  0.
         21    1    1    2  503  501 -0.17864598307E+03  0.20070881610E+02  0.67018003285E+03  0.69387210925E+03  0.00000000000E+00 0. -1.
         21    1    1    2  504  503 -0.24401057306E+02  0.51819245301E+01 -0.40950949149E+02  0.47950434572E+02  0.00000000000E+00 0.  1.
<mgrwt>
<rscale>  4 0.21968985E+03</rscale>
<asrwt>0</asrwt>
<pdfrwt beam="1">  1       21 0.11241939E+00 0.21968985E+03</pdfrwt>
<pdfrwt beam="2">  1       21 0.57580822E-01 0.21968985E+03</pdfrwt>
<totfact> 0.17109480E+03</totfact>
</mgrwt>
</event>
<event>
 5    0  0.1531977E+001  0.2453297E+03  0.7546771E-02  0.1116292E+00
         21   -1    0    0  503  501  0.00000000000E+00  0.00000000000E+00  0.35392719651E+02  0.35392719651E+02  0.00000000000E+00 0.  1.
         21   -1    0    0  504  502 -0.00000000000E+00 -0.00000000000E+00 -0.16972975294E+04  0.16972975294E+04  0.00000000000E+00 0. -1.
         25    1    1    2    0    0 -0.61918878150E+02  0.20425680063E+03 -0.98764682040E+03  0.10181483340E+04  0.12500000000E+03 0.  0.
         21    1    1    2  503  502  0.25115962201E+02  0.27547013173E+01 -0.95087931243E+02  0.98387573426E+02  0.00000000000E+00 0. -1.
         21    1    1    2  504  501  0.36802915950E+02 -0.20701150195E+03 -0.57917005811E+03  0.61615434168E+03  0.00000000000E+00 0.  1.
<mgrwt>
<rscale>  4 0.24532971E+03</rscale>
<asrwt>0</asrwt>
<pdfrwt beam="1">  1       21 0.54450349E-02 0.24532971E+03</pdfrwt>
<pdfrwt beam="2">  1       21 0.26112264E+00 0.24532971E+03</pdfrwt>
<totfact> 0.12731121E+04</totfact>
</mgrwt>
</event>
<event>
 5    0  0.1531977E+001  0.2421165E+03  0.7546771E-02  0.1118391E+00
         21   -1    0    0  502  501  0.00000000000E+00  0.00000000000E+00  0.78469259429E+03  0.78469259429E+03  0.00000000000E+00 0.  1.
         21   -1    0    0  504  502 -0.00000000000E+00 -0.00000000000E+00 -0.85667966103E+02  0.85667966103E+02  0.00000000000E+00 0.  1.
         25    1    1    2    0    0  0.21527622761E+03 -0.59805120362E+02  0.44905827450E+03  0.51691279776E+03  0.12500000000E+03 0.  0.
         21    1    1    2  503  501 -0.33759060814E+02 -0.26702486925E+02  0.76996412041E+02  0.88210795611E+02  0.00000000000E+00 0. -1.
         21    1    1    2  504  503 -0.18151716680E+03  0.86507607287E+02  0.17296994165E+03  0.26523696702E+03  0.00000000000E+00 0.  1.
<mgrwt>
<rscale>  4 0.24211650E+03</rscale>
<asrwt>0</asrwt>
<pdfrwt beam="1">  1       21 0.12072193E+00 0.24211650E+03</pdfrwt>
<pdfrwt beam="2">  1       21 0.13179688E-01 0.24211650E+03</pdfrwt>
<totfact> 0.25088859E+04</totfact>
</mgrwt>
</event>
<event>
 5    0  0.1531977E+001  0.2513703E+03  0.7546771E-02  0.1112442E+00
         21   -1    0    0  504  501  0.00000000000E+00  0.00000000000E+00  0.60457595859E+03  0.60457595859E+03  0.00000000000E+00 0.  1.
         21   -1    0    0  501  502 -0.00000000000E+00 -0.00000000000E+00 -0.11713408451E+03  0.11713408451E+03  0.00000000000E+00 0.  1.
         25    1    1    2    0    0 -0.12766743483E+03  0.19165811626E+03  0.17475312613E+03  0.31495311164E+03  0.12500000000E+03 0.  0.
         21    1    1    2  503  502 -0.62230878792E+01 -0.33984128018E+02  0.11705051245E+03  0.12204290330E+03  0.00000000000E+00 0. -1.
         21    1    1    2  504  503  0.13389052271E+03 -0.15767398824E+03  0.19563823551E+03  0.28471402816E+03  0.00000000000E+00 0.  1.
<mgrwt>
<rscale>  4 0.25137026E+03</rscale>
<asrwt>0</asrwt>
<pdfrwt beam="1">  1       21 0.93011684E-01 0.25137026E+03</pdfrwt>
<pdfrwt beam="2">  1       21 0.18020629E-01 0.25137026E+03</pdfrwt>
<totfact> 0.26434600E+04</totfact>
</mgrwt>
</event>
<event>
 5    0  0.1531977E+001  0.2940094E+03  0.7546771E-02  0.1088274E+00
         21   -1    0    0  503  501  0.00000000000E+00  0.00000000000E+00  0.15977579832E+04  0.15977579832E+04  0.00000000000E+00 0. -1.
         21   -1    0    0  504  502 -0.00000000000E+00 -0.00000000000E+00 -0.70974571784E+02  0.70974571784E+02  0.00000000000E+00 0. -1.
         25    1    1    2    0    0 -0.55983867844E+02 -0.24080529939E+03  0.35876783991E+03  0.45327778308E+03  0.12500000000E+03 0.  0.
         21    1    1    2  503  502 -0.39569281813E+02 -0.15209833802E+02  0.55319375489E+02  0.69694335580E+02  0.00000000000E+00 0.  1.
         21    1    1    2  504  501  0.95553149657E+02  0.25601513320E+03  0.11126961960E+04  0.11457604364E+04  0.00000000000E+00 0. -1.
<mgrwt>
<rscale>  4 0.29400944E+03</rscale>
<asrwt>0</asrwt>
<pdfrwt beam="1">  1       21 0.24580889E+00 0.29400944E+03</pdfrwt>
<pdfrwt beam="2">  1       21 0.10919166E-01 0.29400944E+03</pdfrwt>
<totfact> 0.44871897E+03</totfact>
</mgrwt>
</event>
<event>
 5    0  0.1531977E+001  0.3162461E+03  0.7546771E-02  0.1077390E+00
         21   -1    0    0  504  501  0.00000000000E+00  0.00000000000E+00  0.68863146050E+02  0.68863146050E+02  0.00000000000E+00 0.  1.
         21   -1    0    0  501  502 -0.00000000000E+00 -0.00000000000E+00 -0.19928993227E+04  0.19928993227E+04  0.00000000000E+00 0.  1.
         25    1    1    2    0    0  0.50955422395E+02 -0.26024935981E+03 -0.83683161722E+03  0.88670081760E+03  0.12500000000E+03 0.  0.
         21    1    1    2  503  502  0.10402397370E+03 -0.26440718723E+02 -0.16378523245E+03  0.19582058390E+03  0.00000000000E+00 0. -1.
         21    1    1    2  504  503 -0.15497939610E+03  0.28669007853E+03 -0.92341932698E+03  0.97924106725E+03  0.00000000000E+00 0.  1.
<mgrwt>
<rscale>  4 0.31624614E+03</rscale>
<asrwt>0</asrwt>
<pdfrwt beam="1">  1       21 0.10594330E-01 0.31624614E+03</pdfrwt>
<pdfrwt beam="2">  1       21 0.30659991E+00 0.31624614E+03</pdfrwt>
<totfact> 0.20295802E+03</totfact>
</mgrwt>
</event>
<event>
 5    0  0.1531977E+001  0.3397262E+03  0.7546771E-02  0.1066913E+00
         21   -1    0    0  504  501  0.00000000000E+00  0.00000000000E+00  0.12463398895E+04  0.12463398895E+04  0.00000000000E+00 0. -1.
         21   -1    0    0  503  502 -0.00000000000E+00 -0.00000000000E+00 -0.17627259857E+03  0.17627259857E+03  0.00000000000E+00 0. -1.
         25    1    1    2    0    0  0.13529197211E+03 -0.34857820624E+03  0.69566946388E+03  0.79961971372E+03  0.12500000000E+03 0.  0.
         21    1    1    2  503  501 -0.20098979027E+02  0.10220512656E+03 -0.52635076776E+02  0.11670607594E+03  0.00000000000E+00 0. -1.
         21    1    1    2  504  502 -0.11519299309E+03  0.24637307968E+03  0.42703290377E+03  0.50628669838E+03  0.00000000000E+00 0. -1.
<mgrwt>
<rscale>  4 0.33972622E+03</rscale>
<asrwt>0</asrwt>
<pdfrwt beam="1">  1       21 0.19174459E+00 0.33972622E+03</pdfrwt>
<pdfrwt beam="2">  1       21 0.27118862E-01 0.33972622E+03</pdfrwt>
<totfact> 0.17563107E+03</totfact>
</mgrwt>
</event>
<event>
 5    0  0.1531977E+001  0.3665468E+03  0.7546771E-02  0.1056021E+00
         21   -1    0    0  502  501  0.00000000000E+00  0.00000000000E+00  0.27482203602E+03  0.27482203602E+03  0.00000000000E+00 0.  1.
         21   -1    0    0  504  502 -0.00000000000E+00 -0.00000000000E+00 -0.73147566827E+03  0.73147566827E+03  0.00000000000E+00 0.  1.
         25    1    1    2    0    0 -0.33935404789E+03 -0.63333210957E+02  0.33559685482E+02  0.36867806813E+03  0.12500000000E+03 0.  0.
         21    1    1    2  503  501 -0.52544565987E+01  0.45656531557E+02 -0.11270017975E+02  0.47319567761E+02  0.00000000000E+00 0.  1.
         21    1    1    2  504  503  0.34460850449E+03  0.17676679400E+02 -0.47894329976E+03  0.59030006840E+03  0.00000000000E+00 0.  1.
<mgrwt>
<rscale>  4 0.36654679E+03</rscale>
<asrwt>0</asrwt>
<pdfrwt beam="1">  1       21 0.42280313E-01 0.36654679E+03</pdfrwt>
<pdfrwt beam="2">  1       21 0.11253472E+00 0.36654679E+03</pdfrwt>
<totfact> 0.29852875E+03</totfact>
</mgrwt>
</event>
<event>
 5    0  0.1531977E+001  0.2689730E+03  0.7546771E-02  0.1101869E+00
         21   -1    0    0  502  501  0.00000000000E+00  0.00000000000E+00  0.76100538240E+03  0.76100538240E+03  0.00000000000E+00 0.  1.
         21   -1    0    0  504  502 -0.00000000000E+00 -0.00000000000E+00 -0.16004707794E+03  0.16004707794E+03  0.00000000000E+00 0.  1.
         25    1    1    2    0    0 -0.20405164028E+03  0.98781600553E+02  0.60038427697E+02  0.26575268448E+03  0.12500000000E+03 0.  0.
         21    1    1    2  503  501  0.20536954920E+03 -0.12634202264E+03  0.56774010746E+03  0.61682070980E+03  0.00000000000E+00 0.  1.
         21    1    1    2  504  503 -0.13179089225E+01  0.27560422089E+02 -0.26820230701E+02  0.38479066056E+02  0.00000000000E+00 0.  1.
<mgrwt>
<rscale>  4 0.26897297E+03</rscale>
<asrwt>0</asrwt>
<pdfrwt beam="1">  1       21 0.11707775E+00 0.26897297E+03</pdfrwt>
<pdfrwt beam="2">  1       21 0.24622628E-01 0.26897297E+03</pdfrwt>
<totfact> 0.83310615E+03</totfact>
</mgrwt>
</event>
<event>
 5    0  0.1531977E+001  0.2416433E+03  0.7546771E-02  0.1118703E+00
         21   -1    0    0  503  501  0.00000000000E+00  0.00000000000E+00  0.70256825070E+03  0.70256825070E+03  0.00000000000E+00 0. -1.
         21   -1    0    0  501  502 -0.00000000000E+00 -0.00000000000E+00 -0.74286144668E+02  0.74286144668E+02  0.00000000000E+00 0. -1.
         25    1    1    2    0    0 -0.64656944824E+02  0.19643309087E+03  0.36046974259E+03  0.43396994715E+03  0.12500000000E+03 0.  0.
         21    1    1    2  503  504  0.32986604994E+02 -0.34758311730E+02  0.44642386537E+02  0.65491976754E+02  0.00000000000E+00 0. -1.
         21    1    1    2  504  502  0.31670339829E+02 -0.16167477914E+03  0.22316997690E+03  0.27739247147E+03  0.00000000000E+00 0. -1.
<mgrwt>
<rscale>  4 0.24164329E+03</rscale>
<asrwt>0</asrwt>
<pdfrwt beam="1">  1       21 0.10808742E+00 0.24164329E+03</pdfrwt>
<pdfrwt beam="2">  1       21 0.11428638E-01 0.24164329E+03</pdfrwt>
<totfact> 0.42569679E+04</totfact>
</mgrwt>
</event>
<event>
 5    0  0.1531977E+001  0.2514672E+03  0.7546771E-02  0.1112381E+00
         21   -1    0    0  502  501  0.00000000000E+00  0.00000000000E+00  0.15273357732E+04  0.15273357732E+04  0.00000000000E+00 0. -1.
         21   -1    0    0  504  502 -0.00000000000E+00 -0.00000000000E+00 -0.10212862967E+03  0.10212862967E+03  0.00000000000E+00 0.  1.
         25    1    1    2    0    0 -0.12558726336E+03 -0.20232722287E+03  0.12849241356E+04  0.13127694010E+04  0.12500000000E+03 0.  0.
         21    1    1    2  503  501 -0.24703837027E+01  0.28153278363E+02  0.90559332787E+02  0.94866762530E+02  0.00000000000E+00 0.  1.
         21    1    1    2  504  503  0.12805764707E+03  0.17417394451E+03  0.49723675140E+02  0.22182823939E+03  0.00000000000E+00 0.  1.
<mgrwt>
<rscale>  4 0.25146723E+03</rscale>
<asrwt>0</asrwt>
<pdfrwt beam="1">  1       21 0.23497472E+00 0.25146723E+03</pdfrwt>
<pdfrwt beam="2">  1       21 0.15712098E-01 0.25146723E+03</pdfrwt>
<totfact> 0.27826834E+03</totfact>
</mgrwt>
</event>
<event>
 5    0  0.1531977E+001  0.2008848E+03  0.7546771E-02  0.1148995E+00
         21   -1    0    0  504  501  0.00000000000E+00  0.00000000000E+00  0.83175461570E+03  0.83175461570E+03  0.00000000000E+00 0.  1.
         21   -1    0    0  503  502 -0.00000000000E+00 -0.00000000000E+00 -0.12114212175E+03  0.12114212175E+03  0.00000000000E+00 0.  1.
         25    1    1    2    0    0 -0.26641314148E+02  0.21181074009E+03  0.76988821403E+02  0.25908652581E+03  0.12500000000E+03 0.  0.
         21    1    1    2  503  501  0.70454814493E+02 -0.65732399604E+02  0.10019847433E+03  0.13901209840E+03  0.00000000000E+00 0.  1.
         21    1    1    2  504  502 -0.43813500344E+02 -0.14607834048E+03  0.53342519821E+03  0.55479811324E+03  0.00000000000E+00 0.  1.
<mgrwt>
<rscale>  4 0.20088476E+03</rscale>
<asrwt>0</asrwt>
<pdfrwt beam="1">  1       21 0.12796225E+00 0.20088476E+03</pdfrwt>
<pdfrwt beam="2">  1       21 0.18637250E-01 0.20088476E+03</pdfrwt>
<totfact> 0.11771500E+04</totfact>
</mgrwt>
</event>
<event>
 5    0  0.1531977E+001  0.3070913E+03  0.7546771E-02  0.1081748E+00
         21   -1    0    0  502  501  0.00000000000E+00  0.00000000000E+00  0.45750094796E+03  0.45750094796E+03  0.00000000000E+00 0.  1.
         21   -1    0    0  504  502 -0.00000000000E+00 -0.00000000000E+00 -0.10160243297E+04  0.10160243297E+04  0.00000000000E+00 0.  1.
         25    1    1    2    0    0  0.18287632167E+03 -0.17211450268E+03  0.26933868960E+03  0.38889006258E+03  0.12500000000E+03 0.  0.
         21    1    1    2  503  501  0.32791460455E+02 -0.10175785257E+02  0.10473692509E+03  0.11022091436E+03  0.00000000000E+00 0. -1.
         21    1    1    2  504  503 -0.21566778212E+03  0.18229028794E+03 -0.93259899642E+03  0.97441430072E+03  0.00000000000E+00 0.  1.
<mgrwt>
<rscale>  4 0.30709133E+03</rscale>
<asrwt>0</asrwt>
<pdfrwt beam="1">  1       21 0.70384761E-01 0.30709133E+03</pdfrwt>
<pdfrwt beam="2">  1       21 0.15631144E+00 0.30709133E+03</pdfrwt>
<totfact> 0.44171183E+02</totfact>
</mgrwt>
</event>
<event>
 5    0  0.1531977E+001  0.2607774E+03  0.7546771E-02  0.1106677E+00
         21   -1    0    0  503  501  0.00000000000E+00  0.00000000000E+00  0.15471429153E+03  0.15471429153E+03  0.00000000000E+00 0. -1.
         21   -1    0    0  504  502 -0.00000000000E+00 -0.00000000000E+00 -0.87439279612E+03  0.87439279612E+03  0.00000000000E+00 0. -1.
         25    1    1    2    0    0 -0.83942733257E+01  0.24597857066E+03 -0.27947081289E+02  0.27745623151E+03  0.12500000000E+03 0.  0.
         21    1    1    2  503  502  0.16217223059E+01 -0.22638523936E+03 -0.69474633153E+03  0.73070197191E+03  0.00000000000E+00 0. -1.
         21    1    1    2  504  501  0.67725510198E+01 -0.19593331305E+02  0.30149082322E+01  0.20948884232E+02  0.00000000000E+00 0. -1.
<mgrwt>
<rscale>  4 0.26077744E+03</rscale>
<asrwt>0</asrwt>
<pdfrwt beam="1">  1       21 0.23802199E-01 0.26077744E+03</pdfrwt>
<pdfrwt beam="2">  1       21 0.13452197E+00 0.26077744E+03</pdfrwt>
<totfact> 0.62860456E+03</totfact>
</mgrwt>
</event>
<event>
 5    0  0.1531977E+001  0.2741108E+03  0.7546771E-02  0.1098950E+00
         21   -1    0    0  504  501  0.00000000000E+00  0.00000000000E+00  0.12977313988E+04  0.12977313988E+04  0.00000000000E+00 0. -1.
         21   -1    0    0  503  502 -0.00000000000E+00 -0.00000000000E+00 -0.90341329407E+02  0.90341329407E+02  0.00000000000E+00 0. -1.
         25    1    1    2    0    0 -0.24227993169E+03  0.68670750114E+02  0.38130082006E+03  0.47374101849E+03  0.12500000000E+03 0.  0.
         21    1    1    2  503  501  0.22360642655E+03 -0.82394452427E+02  0.27970204935E+03  0.36745328437E+03  0.00000000000E+00 0. -1.
         21    1    1    2  504  502  0.18673505136E+02  0.13723702313E+02  0.54638720001E+03  0.54687842537E+03  0.00000000000E+00 0.  1.
<mgrwt>
<rscale>  4 0.27411084E+03</rscale>
<asrwt>0</asrwt>
<pdfrwt beam="1">  1       21 0.19965097E+00 0.27411084E+03</pdfrwt>
<pdfrwt beam="2">  1       21 0.13898667E-01 0.27411084E+03</pdfrwt>
<totfact> 0.57089570E+03</totfact>
</mgrwt>
</event>
<event>
 5    0  0.1531977E+001  0.1926143E+03  0.7546771E-02  0.1156124E+00
         21   -1    0    0  502  501  0.00000000000E+00  0.00000000000E+00  0.91909383596E+02  0.91909383596E+02  0.00000000000E+00 0. -1.
         21   -1    0    0  504  502 -0.00000000000E+00 -0.00000000000E+00 -0.11962490750E+04  0.11962490750E+04  0.00000000000E+00 0. -1.
         25    1    1    2    0    0  0.47076079956E+02 -0.21006444350E+03 -0.67372172217E+03  0.71824034045E+03  0.12500000000E+03 0.  0.
         21    1    1    2  503  501 -0.79684585151E+02  0.11559398046E+03 -0.13558140950E+02  0.14105114184E+03  0.00000000000E+00 0. -1.
         21    1    1    2  504  503  0.32608505195E+02  0.94470463041E+02 -0.41705982830E+03  0.42886697633E+03  0.00000000000E+00 0. -1.
<mgrwt>
<rscale>  4 0.19261430E+03</rscale>
<asrwt>0</asrwt>
<pdfrwt beam="1">  1       21 0.14139905E-01 0.19261430E+03</pdfrwt>
<pdfrwt beam="2">  1       21 0.18403832E+00 0.19261430E+03</pdfrwt>
<totfact> 0.74627344E+03</totfact>
</mgrwt>
</event>
<event>
 5    0  0.1531977E+001  0.2929438E+03  0.7546771E-02  0.1088822E+00
         21   -1    0    0  504  501  0.00000000000E+00  0.00000000000E+00  0.51288168159E+03  0.51288168159E+03  0.00000000000E+00 0.  1.
         21   -1    0    0  503  502 -0.00000000000E+00 -0.00000000000E+00 -0.91364148717E+03  0.91364148717E+03  0.00000000000E+00 0.  1.
         25    1    1    2    0    0  0.25217199323E+03 -0.32127395158E+02 -0.78355001645E+03  0.83318576078E+03  0.12500000000E+03 0.  0.
         21    1    1    2  503  501  0.12652296086E+02  0.53217735874E+02 -0.57338559564E+02  0.79245936304E+02  0.00000000000E+00 0. -1.
         21    1    1    2  504  502 -0.26482428932E+03 -0.21090340716E+02  0.44012877043E+03  0.51409147167E+03  0.00000000000E+00 0.  1.
<mgrwt>
<rscale>  4 0.29294380E+03</rscale>
<asrwt>0</asrwt>
<pdfrwt beam="1">  1       21 0.78904874E-01 0.29294380E+03</pdfrwt>
<pdfrwt beam="2">  1       21 0.14056023E+00 0.29294380E+03</pdfrwt>
<totfact> 0.45791318E+02</totfact>
</mgrwt>
</event>
<event>
 5    0  0.1531977E+001  0.2538312E+03  0.7546771E-02  0.1110907E+00
         21   -1    0    0  504  501  0.00000000000E+00  0.00000000000E+00  0.13588002258E+03  0.13588002258E+03  0.00000000000E+00 0. -1.
         21   -1    0    0  503  502 -0.00000000000E+00 -0.00000000000E+00 -0.11208243403E+04  0.11208243403E+04  0.00000000000E+00 0. -1.
         25    1    1    2    0    0 -0.14228055596E+03  0.19456310480E+03 -0.79987980280E+02  0.28305765375E+03  0.12500000000E+03 0.  0.
         21    1    1    2  503  501  0.14818578298E+03 -0.16062149481E+03 -0.91256310468E+03  0.93836544635E+03  0.00000000000E+00 0. -1.
         21    1    1    2  504  502 -0.59052270204E+01 -0.33941609991E+02  0.76067672490E+01  0.35281262774E+02  0.00000000000E+00 0. -1.
<mgrwt>
<rscale>  4 0.25383124E+03</rscale>
<asrwt>0</asrwt>
<pdfrwt beam="1">  1       21 0.20904619E-01 0.25383124E+03</pdfrwt>
<pdfrwt beam="2">  1       21 0.17243451E+00 0.25383124E+03</pdfrwt>
<totfact> 0.41517079E+03</totfact>
</mgrwt>
</event>
<event>
 5    0  0.1531977E+001  0.2667705E+03  0.7546771E-02  0.1103142E+00
         21   -1    0    0  502  501  0.00000000000E+00  0.00000000000E+00  0.34456373129E+03  0.34456373129E+03  0.00000000000E+00 0. -1.
         21   -1    0    0  504  502 -0.00000000000E+00 -0.00000000000E+00 -0.34928792065E+03  0.34928792065E+03  0.00000000000E+00 0. -1.
         25    1    1    2    0    0 -0.18255153440E+03  0.11347573594E+03  0.10517390442E+03  0.26997843530E+03  0.12500000000E+03 0.  0.
         21    1    1    2  503  501 -0.43602186713E+02 -0.25164487906E+02  0.94127290726E+02  0.10674431599E+03  0.00000000000E+00 0.  1.
         21    1    1    2  504  503  0.22615372111E+03 -0.88311248032E+02 -0.20402538450E+03  0.31712890064E+03  0.00000000000E+00 0. -1.
<mgrwt>
<rscale>  4 0.26677050E+03</rscale>
<asrwt>0</asrwt>
<pdfrwt beam="1">  1       21 0.53009805E-01 0.26677050E+03</pdfrwt>
<pdfrwt beam="2">  1       21 0.53736603E-01 0.26677050E+03</pdfrwt>
<totfact> 0.10568691E+04</totfact>
</mgrwt>
</event>
<event>
 5    0  0.1531977E+001  0.2982137E+03  0.7546771E-02  0.1086137E+00
         21   -1    0    0  503  501  0.00000000000E+00  0.00000000000E+00  0.95289324047E+03  0.95289324047E+03  0.00000000000E+00 0. -1.
         21   -1    0    0  501  502 -0.00000000000E+00 -0.00000000000E+00 -0.22642487402E+03  0.22642487402E+03  0.00000000000E+00 0. -1.
         25    1    1    2    0    0  0.13294100588E+03 -0.23477696043E+03 -0.42560165445E+02  0.30038292208E+03  0.12500000000E+03 0.  0.
         21    1    1    2  503  504 -0.23413775776E+03  0.17981311941E+03  0.64687762128E+03  0.71105829890E+03  0.00000000000E+00 0. -1.
         21    1    1    2  504  502  0.10119675189E+03  0.54963841021E+02  0.12215091061E+03  0.16787689351E+03  0.00000000000E+00 0.  1.
<mgrwt>
<rscale>  4 0.29821367E+03</rscale>
<asrwt>0</asrwt>
<pdfrwt beam="1">  1       21 0.14659896E+00 0.29821367E+03</pdfrwt>
<pdfrwt beam="2">  1       21 0.34834596E-01 0.29821367E+03</pdfrwt>
<totfact> 0.23283561E+03</totfact>
</mgrwt>
</event>
<event>
 5    0  0.1531977E+001  0.2505441E+03  0.7546771E-02  0.1112961E+00
         21   -1    0    0  503  501  0.00000000000E+00  0.00000000000E+00  0.13829130941E+03  0.13829130941E+03  0.00000000000E+00 0.  1.
         21   -1    0    0  501  502 -0.00000000000E+00 -0.00000000000E+00 -0.50352214791E+03  0.50352214791E+03  0.00000000000E+00 0.  1.
         25    1    1    2    0    0 -0.21292106648E+03 -0.33646410352E+02 -0.93897648968E+02  0.26628787048E+03  0.12500000000E+03 0.  0.
         21    1    1    2  503  504  0.20958948635E+03  0.61358214681E+02 -0.27043102615E+03  0.34759965938E+03  0.00000000000E+00 0.  1.
         21    1    1    2  504  502  0.33315801300E+01 -0.27711804329E+02 -0.90216338290E+00  0.27925927453E+02  0.00000000000E+00 0.  1.
<mgrwt>
<rscale>  4 0.25054410E+03</rscale>
<asrwt>0</asrwt>
<pdfrwt beam="1">  1       21 0.21275586E-01 0.25054410E+03</pdfrwt>
<pdfrwt beam="2">  1       21 0.77464944E-01 0.25054410E+03</pdfrwt>
<totfact> 0.29519785E+04</totfact>
</mgrwt>
</event>
<event>
 5    0  0.1531977E+001  0.2326090E+03  0.7546771E-02  0.1124817E+00
         21   -1    0    0  504  501  0.00000000000E+00  0.00000000000E+00  0.53644914270E+03  0.53644914270E+03  0.00000000000E+00 0. -1.
         21   -1    0    0  503  502 -0.00000000000E+00 -0.00000000000E+00 -0.14141004108E+03  0.14141004108E+03  0.00000000000E+00 0. -1.
         25    1    1    2    0    0  0.15162235655E+03  0.18217230702E+03  0.18997699243E+03  0.32846970348E+03  0.12500000000E+03 0.  0.
         21    1    1    2  503  501 -0.12310360815E+03 -0.12799436176E+03  0.52785999395E+02  0.18526580017E+03  0.00000000000E+00 0. -1.
         21    1    1    2  504  502 -0.28518748403E+02 -0.54177945263E+02  0.15227610979E+03  0.16412368012E+03  0.00000000000E+00 0. -1.
<mgrwt>
<rscale>  4 0.23260904E+03</rscale>
<asrwt>0</asrwt>
<pdfrwt beam="1">  1       21 0.82530637E-01 0.23260904E+03</pdfrwt>
<pdfrwt beam="2">  1       21 0.21755391E-01 0.23260904E+03</pdfrwt>
<totfact> 0.24713829E+04</totfact>
</mgrwt>
</event>
<event>
 5    0  0.1531977E+001  0.5570949E+03  0.7546771E-02  0.9998650E-01
         21   -1    0    0  504  501  0.00000000000E+00  0.00000000000E+00  0.21273332333E+04  0.21273332333E+04  0.00000000000E+00 0.  1.
         21   -1    0    0  503  502 -0.00000000000E+00 -0.00000000000E+00 -0.30472483255E+03  0.30472483255E+03  0.00000000000E+00 0.  1.
         25    1    1    2    0    0 -0.54797432876E+03 -0.23348641503E+01  0.71483292542E+02  0.56658289569E+03  0.12500000000E+03 0.  0.
         21    1    1    2  503  501  0.33162391408E+02 -0.92683693316E+02  0.13786746935E+03  0.16940321814E+03  0.00000000000E+00 0.  1.
         21    1    1    2  504  502  0.51481193735E+03  0.95018557466E+02  0.16132576389E+04  0.16960719521E+04  0.00000000000E+00 0.  1.
<mgrwt>
<rscale>  4 0.55709486E+03</rscale>
<asrwt>0</asrwt>
<pdfrwt beam="1">  1       21 0.32728203E+00 0.55709486E+03</pdfrwt>
<pdfrwt beam="2">  1       21 0.46880745E-01 0.55709486E+03</pdfrwt>
<totfact> 0.73991785E+01</totfact>
</mgrwt>
</event>
<event>
 5    0  0.1531977E+001  0.1867745E+03  0.7546771E-02  0.1161403E+00
         21   -1    0    0  502  501  0.00000000000E+00  0.00000000000E+00  0.11237429817E+04  0.11237429817E+04  0.00000000000E+00 0.  1.
         21   -1    0    0  504  502 -0.00000000000E+00 -0.00000000000E+00 -0.36332440394E+03  0.36332440394E+03  0.00000000000E+00 0. -1.
         25    1    1    2    0    0 -0.19190958577E+03  0.93837837934E+02  0.15683863914E+03  0.29301567819E+03  0.12500000000E+03 0.  0.
         21    1    1    2  503  501  0.59401567838E+02 -0.72417589308E+02  0.88094721586E+03  0.88591243960E+03  0.00000000000E+00 0.  1.
         21    1    1    2  504  503  0.13250801793E+03 -0.21420248626E+02 -0.27736727728E+03  0.30813926782E+03  0.00000000000E+00 0. -1.
<mgrwt>
<rscale>  4 0.18677445E+03</rscale>
<asrwt>0</asrwt>
<pdfrwt beam="1">  1       21 0.17288353E+00 0.18677445E+03</pdfrwt>
<pdfrwt beam="2">  1       21 0.55896063E-01 0.18677445E+03</pdfrwt>
<totfact> 0.61822544E+02</totfact>
</mgrwt>
</event>
<event>
 5    0  0.1531977E+001  0.3566553E+03  0.7546771E-02  0.1059916E+00
         21   -1    0    0  502  501  0.00000000000E+00  0.00000000000E+00  0.54621480317E+03  0.54621480317E+03  0.00000000000E+00 0.  1.
         21   -1    0    0  504  502 -0.00000000000E+00 -0.00000000000E+00 -0.81688484262E+03  0.81688484262E+03  0.00000000000E+00 0.  1.
         25    1    1    2    0    0 -0.20644665913E+03  0.26259816601E+03 -0.71757437509E+03  0.80132141095E+03  0.12500000000E+03 0.  0.
         21    1    1    2  503  501  0.19444172029E+03 -0.24566499703E+03  0.43950069870E+03  0.53974043531E+03  0.00000000000E+00 0.  1.
         21    1    1    2  504  503  0.12004938840E+02 -0.16933168977E+02  0.74036369463E+01  0.22037799531E+02  0.00000000000E+00 0.  1.
<mgrwt>
<rscale>  4 0.35665532E+03</rscale>
<asrwt>0</asrwt>
<pdfrwt beam="1">  1       21 0.84033046E-01 0.35665532E+03</pdfrwt>
<pdfrwt beam="2">  1       21 0.12567459E+00 0.35665532E+03</pdfrwt>
<totfact> 0.50736902E+02</totfact>
</mgrwt>
</event>
<event>
 5    0  0.1531977E+001  0.2451921E+03  0.7546771E-02  0.1116382E+00
         21   -1    0    0  504  501  0.00000000000E+00  0.00000000000E+00  0.78568979942E+03  0.78568979942E+03  0.00000000000E+00 0.  1.
         21   -1    0    0  503  502 -0.00000000000E+00 -0.00000000000E+00 -0.24382259597E+03  0.24382259597E+03  0.00000000000E+00 0. -1.
         25    1    1    2    0    0  0.19911807199E+03  0.69614509323E+02  0.70658447599E+03  0.74791764802E+03  0.12500000000E+03 0.  0.
         21    1    1    2  503  501 -0.15391139654E+03 -0.73716761362E+02 -0.16327215293E+03  0.23617932766E+03  0.00000000000E+00 0. -1.
         21    1    1    2  504  502 -0.45206675454E+02  0.41022520394E+01 -0.14451196111E+01  0.45415419717E+02  0.00000000000E+00 0. -1.
<mgrwt>
<rscale>  4 0.24519214E+03</rscale>
<asrwt>0</asrwt>
<pdfrwt beam="1">  1       21 0.12087535E+00 0.24519214E+03</pdfrwt>
<pdfrwt beam="2">  1       21 0.37511169E-01 0.24519214E+03</pdfrwt>
<totfact> 0.34125689E+03</totfact>
</mgrwt>
</event>
<event>
 5    0  0.1531977E+001  0.2976560E+03  0.7546771E-02  0.1086418E+00
         21   -1    0    0  502  501  0.00000000000E+00  0.00000000000E+00  0.72392957808E+03  0.72392957808E+03  0.00000000000E+00 0. -1.
         21   -1    0    0  504  502 -0.00000000000E+00 -0.00000000000E+00 -0.31518071399E+03  0.31518071399E+03  0.00000000000E+00 0. -1.
         25    1    1    2    0    0 -0.30040083183E+03  0.22526020042E+03  0.34163018540E+03  0.52279919782E+03  0.12500000000E+03 0.  0.
         21    1    1    2  503  501  0.17809528406E+03 -0.12375320401E+03  0.21051735041E+03  0.30224218854E+03  0.00000000000E+00 0. -1.
         21    1    1    2  504  503  0.12230554777E+03 -0.10150699640E+03 -0.14339867173E+03  0.21406890570E+03  0.00000000000E+00 0. -1.
<mgrwt>
<rscale>  4 0.29765597E+03</rscale>
<asrwt>0</asrwt>
<pdfrwt beam="1">  1       21 0.11137378E+00 0.29765597E+03</pdfrwt>
<pdfrwt beam="2">  1       21 0.48489341E-01 0.29765597E+03</pdfrwt>
<totfact> 0.23850516E+03</totfact>
</mgrwt>
</event>
<event>
 5    0  0.1531977E+001  0.2287469E+03  0.7546771E-02  0.1127525E+00
         21   -1    0    0  504  501  0.00000000000E+00  0.00000000000E+00  0.60210680079E+03  0.60210680079E+03  0.00000000000E+00 0.  1.
         21   -1    0    0  503  502 -0.00000000000E+00 -0.00000000000E+00 -0.11216077312E+03  0.11216077312E+03  0.00000000000E+00 0.  1.
         25    1    1    2    0    0  0.14647374875E+02  0.22052734742E+03  0.25295437924E+03  0.35841006477E+03  0.12500000000E+03 0.  0.
         21    1    1    2  503  501 -0.56664514562E+02 -0.16972248107E+03  0.10283728974E+03  0.20637852590E+03  0.00000000000E+00 0.  1.
         21    1    1    2  504  502  0.42017139687E+02 -0.50804866354E+02  0.13415435869E+03  0.14947898323E+03  0.00000000000E+00 0. -1.
<mgrwt>
<rscale>  4 0.22874694E+03</rscale>
<asrwt>0</asrwt>
<pdfrwt beam="1">  1       21 0.92631814E-01 0.22874694E+03</pdfrwt>
<pdfrwt beam="2">  1       21 0.17255504E-01 0.22874694E+03</pdfrwt>
<totfact> 0.29243479E+04</totfact>
</mgrwt>
</event>
<event>
 5    0  0.1531977E+001  0.1751382E+03  0.7546771E-02  0.1172593E+00
         21   -1    0    0  503  501  0.00000000000E+00  0.00000000000E+00  0.19935727689E+03  0.19935727689E+03  0.00000000000E+00 0. -1.
         21   -1    0    0  504  502 -0.00000000000E+00 -0.00000000000E+00 -0.11169245017E+04  0.11169245017E+04  0.00000000000E+00 0.  1.
         25    1    1    2    0    0 -0.78512003875E+02 -0.18490130695E+03  0.18141889496E+02  0.23729044696E+03  0.12500000000E+03 0.  0.
         21    1    1    2  503  502  0.99473556771E+01  0.12025701848E+03 -0.97092330555E+03  0.97839295053E+03  0.00000000000E+00 0.  1.
         21    1    1    2  504  501  0.68564648198E+02  0.64644288470E+02  0.35214191247E+02  0.10059838110E+03  0.00000000000E+00 0. -1.
<mgrwt>
<rscale>  4 0.17513816E+03</rscale>
<asrwt>0</asrwt>
<pdfrwt beam="1">  1       21 0.30670350E-01 0.17513816E+03</pdfrwt>
<pdfrwt beam="2">  1       21 0.17183454E+00 0.17513816E+03</pdfrwt>
<totfact> 0.21524529E+03</totfact>
</mgrwt>
</event>
<event>
 5    0  0.1531977E+001  0.2897114E+03  0.7546771E-02  0.1090500E+00
         21   -1    0    0  503  501  0.00000000000E+00  0.00000000000E+00  0.74675240694E+03  0.74675240694E+03  0.00000000000E+00 0. -1.
         21   -1    0    0  504  502 -0.00000000000E+00 -0.00000000000E+00 -0.19522730627E+03  0.19522730627E+03  0.00000000000E+00 0. -1.
         25    1    1    2    0    0 -0.22639826342E+03 -0.48901314745E+02  0.34817764867E+03  0.43646327142E+03  0.12500000000E+03 0.  0.
         21    1    1    2  503  502  0.26698309416E+03  0.44837041924E+02 -0.26557515755E+02  0.27202138617E+03  0.00000000000E+00 0. -1.
         21    1    1    2  504  501 -0.40584830733E+02  0.40642728212E+01  0.22990496775E+03  0.23349505561E+03  0.00000000000E+00 0. -1.
<mgrwt>
<rscale>  4 0.28971137E+03</rscale>
<asrwt>0</asrwt>
<pdfrwt beam="1">  1       21 0.11488498E+00 0.28971137E+03</pdfrwt>
<pdfrwt beam="2">  1       21 0.30034970E-01 0.28971137E+03</pdfrwt>
<totfact> 0.58663621E+03</totfact>
</mgrwt>
</event>
<event>
 5    0  0.1531977E+001  0.2393314E+03  0.7546771E-02  0.1120239E+00
         21   -1    0    0  502  501  0.00000000000E+00  0.00000000000E+00  0.70738152145E+03  0.70738152145E+03  0.00000000000E+00 0. -1.
         21   -1    0    0  504  502 -0.00000000000E+00 -0.00000000000E+00 -0.26149588670E+03  0.26149588670E+03  0.00000000000E+00 0. -1.
         25    1    1    2    0    0  0.26188723178E+03 -0.37513323981E+02  0.42595088434E+03  0.51677009155E+03  0.12500000000E+03 0.  0.
         21    1    1    2  503  501 -0.12386135683E+03  0.12104233632E+03  0.16199794278E+03  0.23714176427E+03  0.00000000000E+00 0. -1.
         21    1    1    2  504  503 -0.13802587496E+03 -0.83529012339E+02 -0.14206319238E+03  0.21496555233E+03  0.00000000000E+00 0. -1.
<mgrwt>
<rscale>  4 0.23933142E+03</rscale>
<asrwt>0</asrwt>
<pdfrwt beam="1">  1       21 0.10882793E+00 0.23933142E+03</pdfrwt>
<pdfrwt beam="2">  1       21 0.40230137E-01 0.23933142E+03</pdfrwt>
<totfact> 0.38503639E+03</totfact>
</mgrwt>
</event>
<event>
 5    0  0.1531977E+001  0.2215049E+03  0.7546771E-02  0.1132766E+00
         21   -1    0    0  504  501  0.00000000000E+00  0.00000000000E+00  0.15929484474E+04  0.15929484474E+04  0.00000000000E+00 0.  1.
         21   -1    0    0  503  502 -0.00000000000E+00 -0.00000000000E+00 -0.35416766022E+03  0.35416766022E+03  0.00000000000E+00 0. -1.
         25    1    1    2    0    0  0.11841522028E+03  0.18860265912E+03  0.95880711215E+03  0.99223445099E+03  0.12500000000E+03 0.  0.
         21    1    1    2  503  501 -0.82610481821E+01 -0.73094599836E+02 -0.32293299679E+03  0.33120505107E+03  0.00000000000E+00 0. -1.
         21    1    1    2  504  502 -0.11015417210E+03 -0.11550805928E+03  0.60290667179E+03  0.62367660552E+03  0.00000000000E+00 0.  1.
<mgrwt>
<rscale>  4 0.22150489E+03</rscale>
<asrwt>0</asrwt>
<pdfrwt beam="1">  1       21 0.24506899E+00 0.22150489E+03</pdfrwt>
<pdfrwt beam="2">  1       21 0.54487333E-01 0.22150489E+03</pdfrwt>
<totfact> 0.21763975E+02</totfact>
</mgrwt>
</event>
<event>
 5    0  0.1531977E+001  0.2438000E+03  0.7546771E-02  0.1117287E+00
         21   -1    0    0  502  501  0.00000000000E+00  0.00000000000E+00  0.11934363811E+03  0.11934363811E+03  0.00000000000E+00 0.  1.
         21   -1    0    0  504  502 -0.00000000000E+00 -0.00000000000E+00 -0.25652847794E+04  0.25652847794E+04  0.00000000000E+00 0.  1.
         25    1    1    2    0    0  0.26375535063E+03 -0.19443710772E+03 -0.31911285587E+03  0.47416314558E+03  0.12500000000E+03 0.  0.
         21    1    1    2  503  501 -0.84472868024E+02  0.10146003981E+03 -0.81417673923E+02  0.15510848699E+03  0.00000000000E+00 0.  1.
         21    1    1    2  504  503 -0.17928248261E+03  0.92977067916E+02 -0.20454106115E+04  0.20553567850E+04  0.00000000000E+00 0.  1.
<mgrwt>
<rscale>  4 0.24380003E+03</rscale>
<asrwt>0</asrwt>
<pdfrwt beam="1">  1       21 0.18360559E-01 0.24380003E+03</pdfrwt>
<pdfrwt beam="2">  1       21 0.39465922E+00 0.24380003E+03</pdfrwt>
<totfact> 0.23546295E+02</totfact>
</mgrwt>
</event>
<event>
 5    0  0.1531977E+001  0.2707053E+03  0.7546771E-02  0.1100877E+00
         21   -1    0    0  502  501  0.00000000000E+00  0.00000000000E+00  0.36102854747E+03  0.36102854747E+03  0.00000000000E+00 0. -1.
         21   -1    0    0  504  502 -0.00000000000E+00 -0.00000000000E+00 -0.25022302045E+03  0.25022302045E+03  0.00000000000E+00 0. -1.
         25    1    1    2    0    0 -0.23378525182E+00 -0.25845186751E+03  0.10528148295E+03  0.30578851046E+03  0.12500000000E+03 0.  0.
         21    1    1    2  503  501 -0.59959970067E+00  0.22483511865E+03  0.67673359488E+02  0.23479964584E+03  0.00000000000E+00 0. -1.
         21    1    1    2  504  503  0.83338495249E+00  0.33616748859E+02 -0.62149315428E+02  0.70663411625E+02  0.00000000000E+00 0.  1.
<mgrwt>
<rscale>  4 0.27070532E+03</rscale>
<asrwt>0</asrwt>
<pdfrwt beam="1">  1       21 0.55542854E-01 0.27070532E+03</pdfrwt>
<pdfrwt beam="2">  1       21 0.38495849E-01 0.27070532E+03</pdfrwt>
<totfact> 0.19077410E+04</totfact>
</mgrwt>
</event>
<event>
 5    0  0.1531977E+001  0.2404086E+03  0.7546771E-02  0.1119521E+00
         21   -1    0    0  503  501  0.00000000000E+00  0.00000000000E+00  0.15929503028E+04  0.15929503028E+04  0.00000000000E+00 0.  1.
         21   -1    0    0  504  502 -0.00000000000E+00 -0.00000000000E+00 -0.42558964778E+02  0.42558964778E+02  0.00000000000E+00 0.  1.
         25    1    1    2    0    0  0.10209686988E+03 -0.17817828982E+03  0.12161565839E+04  0.12396907317E+04  0.12500000000E+03 0.  0.
         21    1    1    2  503  502 -0.99398580968E+02  0.13672022252E+03  0.28541207919E+03  0.33171154953E+03  0.00000000000E+00 0.  1.
         21    1    1    2  504  501 -0.26982889083E+01  0.41458067298E+02  0.48822674977E+02  0.64106986351E+02  0.00000000000E+00 0.  1.
<mgrwt>
<rscale>  4 0.24040856E+03</rscale>
<asrwt>0</asrwt>
<pdfrwt beam="1">  1       21 0.24506923E+00 0.24040856E+03</pdfrwt>
<pdfrwt beam="2">  1       21 0.65475343E-02 0.24040856E+03</pdfrwt>
<totfact> 0.11589705E+04</totfact>
</mgrwt>
</event>
<event>
 5    0  0.1531977E+001  0.3710896E+03  0.7546771E-02  0.1054277E+00
         21   -1    0    0  503  501  0.00000000000E+00  0.00000000000E+00  0.15355655065E+04  0.15355655065E+04  0.00000000000E+00 0.  1.
         21   -1    0    0  504  502 -0.00000000000E+00 -0.00000000000E+00 -0.17337589708E+03  0.17337589708E+03  0.00000000000E+00 0. -1.
         25    1    1    2    0    0 -0.30958526507E+03 -0.54684019682E+02  0.93562173662E+03  0.99491025344E+03  0.12500000000E+03 0.  0.
         21    1    1    2  503  502  0.35691467904E+03 -0.64245187092E+02  0.12028721721E+03  0.38207924152E+03  0.00000000000E+00 0. -1.
         21    1    1    2  504  501 -0.47329413966E+02  0.11892920677E+03  0.30628065563E+03  0.33195190866E+03  0.00000000000E+00 0. -1.
<mgrwt>
<rscale>  4 0.37108955E+03</rscale>
<asrwt>0</asrwt>
<pdfrwt beam="1">  1       21 0.23624084E+00 0.37108955E+03</pdfrwt>
<pdfrwt beam="2">  1       21 0.26673216E-01 0.37108955E+03</pdfrwt>
<totfact> 0.92249920E+02</totfact>
</mgrwt>
</event>
<event>
 5    0  0.1531977E+001  0.2522905E+03  0.7546771E-02  0.1111866E+00
         21   -1    0    0  502  501  0.00000000000E+00  0.00000000000E+00  0.21285361179E+03  0.21285361179E+03  0.00000000000E+00 0.  1.
         21   -1    0    0  504  502 -0.00000000000E+00 -0.00000000000E+00 -0.39336163804E+03  0.39336163804E+03  0.00000000000E+00 0.  1.
         25    1    1    2    0    0 -0.16498854272E+03 -0.11749242160E+03  0.37481141381E+02  0.24094714010E+03  0.12500000000E+03 0.  0.
         21    1    1    2  503  501 -0.20775270620E+02 -0.83613556826E+01  0.25647561789E+02  0.34048811490E+02  0.00000000000E+00 0. -1.
         21    1    1    2  504  503  0.18576381334E+03  0.12585377729E+03 -0.24363672942E+03  0.33121929824E+03  0.00000000000E+00 0.  1.
<mgrwt>
<rscale>  4 0.25229050E+03</rscale>
<asrwt>0</asrwt>
<pdfrwt beam="1">  1       21 0.32746709E-01 0.25229050E+03</pdfrwt>
<pdfrwt beam="2">  1       21 0.60517175E-01 0.25229050E+03</pdfrwt>
<totfact> 0.22119080E+04</totfact>
</mgrwt>
</event>
<event>
 5    0  0.1531977E+001  0.3186800E+03  0.7546771E-02  0.1076258E+00
         21   -1    0    0  503  501  0.00000000000E+00  0.00000000000E+00  0.70752906842E+03  0.70752906842E+03  0.00000000000E+00 0.  1.
         21   -1    0    0  501  502 -0.00000000000E+00 -0.00000000000E+00 -0.38131533163E+03  0.38131533163E+03  0.00000000000E+00 0. -1.
         25    1    1    2    0    0  0.17097240240E+03 -0.24359882522E+03 -0.26503769364E+03  0.41766245831E+03  0.12500000000E+03 0.  0.
         21    1    1    2  503  504 -0.39989740981E+02  0.19527280469E+02  0.32548468602E+02  0.55135259812E+02  0.00000000000E+00 0.  1.
         21    1    1    2  504  502 -0.13098266142E+03  0.22407154475E+03  0.55870296183E+03  0.61604668193E+03  0.00000000000E+00 0.  1.
<mgrwt>
<rscale>  4 0.31867998E+03</rscale>
<asrwt>0</asrwt>
<pdfrwt beam="1">  1       21 0.10885063E+00 0.31867998E+03</pdfrwt>
<pdfrwt beam="2">  1       21 0.58663897E-01 0.31867998E+03</pdfrwt>
<totfact> 0.16612836E+03</totfact>
</mgrwt>
</event>
<event>
 5    0  0.1531977E+001  0.2030223E+03  0.7546771E-02  0.1147214E+00
         21   -1    0    0  503  501  0.00000000000E+00  0.00000000000E+00  0.55656027379E+03  0.55656027379E+03  0.00000000000E+00 0.  1.
         21   -1    0    0  504  502 -0.00000000000E+00 -0.00000000000E+00 -0.12345513574E+03  0.12345513574E+03  0.00000000000E+00 0.  1.
         25    1    1    2    0    0 -0.17787765980E+03  0.99995214026E+02  0.34814698321E+03  0.42245807674E+03  0.12500000000E+03 0.  0.
         21    1    1    2  503  502  0.11239601800E+03 -0.10229982672E+03  0.21938184381E+01  0.15199648762E+03  0.00000000000E+00 0.  1.
         21    1    1    2  504  501  0.65481641804E+02  0.23046126988E+01  0.82764336402E+02  0.10556084517E+03  0.00000000000E+00 0. -1.
<mgrwt>
<rscale>  4 0.20302231E+03</rscale>
<asrwt>0</asrwt>
<pdfrwt beam="1">  1       21 0.85624656E-01 0.20302231E+03</pdfrwt>
<pdfrwt beam="2">  1       21 0.18993098E-01 0.20302231E+03</pdfrwt>
<totfact> 0.29773177E+04</totfact>
</mgrwt>
</event>
<event>
 5    0  0.1531977E+001  0.2290221E+03  0.7546771E-02  0.1127330E+00
         21   -1    0    0  504  501  0.00000000000E+00  0.00000000000E+00  0.12526219321E+03  0.12526219321E+03  0.00000000000E+00 0.  1.
         21   -1    0    0  503  502 -0.00000000000E+00 -0.00000000000E+00 -0.52871384144E+03  0.52871384144E+03  0.00000000000E+00 0.  1.
         25    1    1    2    0    0  0.25552210121E+02  0.20220303515E+03 -0.27296010368E+03  0.36286526572E+03  0.12500000000E+03 0.  0.
         21    1    1    2  503  501  0.12643988593E+01 -0.18193738702E+03 -0.16305227761E+03  0.24431303022E+03  0.00000000000E+00 0.  1.
         21    1    1    2  504  502 -0.26816608980E+02 -0.20265648136E+02  0.32560733061E+02  0.46797738718E+02  0.00000000000E+00 0.  1.
<mgrwt>
<rscale>  4 0.22902213E+03</rscale>
<asrwt>0</asrwt>
<pdfrwt beam="1">  1       21 0.19271107E-01 0.22902213E+03</pdfrwt>
<pdfrwt beam="2">  1       21 0.81340589E-01 0.22902213E+03</pdfrwt>
<totfact> 0.32145480E+04</totfact>
</mgrwt>
</event>
<event>
 5    0  0.1531977E+001  0.3292728E+03  0.7546771E-02  0.1071459E+00
         21   -1    0    0  502  501  0.00000000000E+00  0.00000000000E+00  0.11935497834E+03  0.11935497834E+03  0.00000000000E+00 0.  1.
         21   -1    0    0  504  502 -0.00000000000E+00 -0.00000000000E+00 -0.11958549998E+04  0.11958549998E+04  0.00000000000E+00 0.  1.
         25    1    1    2    0    0  0.13176357283E+02  0.31380054155E+03 -0.59963562986E+03  0.68835476672E+03  0.12500000000E+03 0.  0.
         21    1    1    2  503  501  0.55500927033E+02 -0.29733816964E+03 -0.26026805242E+03  0.39903608752E+03  0.00000000000E+00 0.  1.
         21    1    1    2  504  503 -0.68677284317E+02 -0.16462371910E+02 -0.21659633923E+03  0.22781912395E+03  0.00000000000E+00 0. -1.
<mgrwt>
<rscale>  4 0.32927282E+03</rscale>
<asrwt>0</asrwt>
<pdfrwt beam="1">  1       21 0.18362305E-01 0.32927282E+03</pdfrwt>
<pdfrwt beam="2">  1       21 0.18397769E+00 0.32927282E+03</pdfrwt>
<totfact> 0.42051633E+03</totfact>
</mgrwt>
</event>
<event>
 5    0  0.1531977E+001  0.3990770E+03  0.7546771E-02  0.1044100E+00
         21   -1    0    0  502  501  0.00000000000E+00  0.00000000000E+00  0.43947673956E+03  0.43947673956E+03  0.00000000000E+00 0.  1.
         21   -1    0    0  504  502 -0.00000000000E+00 -0.00000000000E+00 -0.41923354087E+03  0.41923354087E+03  0.00000000000E+00 0.  1.
         25    1    1    2    0    0 -0.33956308688E+03  0.35850893901E+02 -0.68170947595E+02  0.36994682680E+03  0.12500000000E+03 0.  0.
         21    1    1    2  503  501  0.40147601030E+03 -0.60226281394E+02  0.10670404026E+03  0.41975700593E+03  0.00000000000E+00 0.  1.
         21    1    1    2  504  503 -0.61912923418E+02  0.24375387494E+02 -0.18289893977E+02  0.69006447694E+02  0.00000000000E+00 0.  1.
<mgrwt>
<rscale>  4 0.39907697E+03</rscale>
<asrwt>0</asrwt>
<pdfrwt beam="1">  1       21 0.67611806E-01 0.39907697E+03</pdfrwt>
<pdfrwt beam="2">  1       21 0.64497468E-01 0.39907697E+03</pdfrwt>
<totfact> 0.39533966E+03</totfact>
</mgrwt>
</event>
<event>
 5    0  0.1531977E+001  0.3686823E+03  0.7546771E-02  0.1055198E+00
         21   -1    0    0  502  501  0.00000000000E+00  0.00000000000E+00  0.87784517417E+03  0.87784517417E+03  0.00000000000E+00 0. -1.
         21   -1    0    0  504  502 -0.00000000000E+00 -0.00000000000E+00 -0.22907257313E+03  0.22907257313E+03  0.00000000000E+00 0. -1.
         25    1    1    2    0    0 -0.36547926968E+03  0.49905688497E+01  0.16656352302E+03  0.42067613379E+03  0.12500000000E+03 0.  0.
         21    1    1    2  503  501  0.36231753419E+02  0.15358648038E+02  0.31306593742E+03  0.31552956945E+03  0.00000000000E+00 0. -1.
         21    1    1    2  504  503  0.32924751626E+03 -0.20349216888E+02  0.16914314060E+03  0.37071204405E+03  0.00000000000E+00 0. -1.
<mgrwt>
<rscale>  4 0.36868225E+03</rscale>
<asrwt>0</asrwt>
<pdfrwt beam="1">  1       21 0.13505310E+00 0.36868225E+03</pdfrwt>
<pdfrwt beam="2">  1       21 0.35241935E-01 0.36868225E+03</pdfrwt>
<totfact> 0.27202754E+03</totfact>
</mgrwt>
</event>
<event>
 5    0  0.1531977E+001  0.2385167E+03  0.7546771E-02  0.1120785E+00
         21   -1    0    0  503  501  0.00000000000E+00  0.00000000000E+00  0.30515065782E+03  0.30515065782E+03  0.00000000000E+00 0.  1.
         21   -1    0    0  504  502 -0.00000000000E+00 -0.00000000000E+00 -0.61405271441E+03  0.61405271441E+03  0.00000000000E+00 0.  1.
         25    1    1    2    0    0 -0.12821268035E+03 -0.17550833492E+03  0.18321760119E+03  0.31054042638E+03  0.12500000000E+03 0.  0.
         21    1    1    2  503  502  0.45316532286E+02  0.22085330892E+02 -0.41488944907E+03  0.41794091076E+03  0.00000000000E+00 0.  1.
         21    1    1    2  504  501  0.82896148064E+02  0.15342300403E+03 -0.77230208709E+02  0.19072203508E+03  0.00000000000E+00 0.  1.
<mgrwt>
<rscale>  4 0.23851665E+03</rscale>
<asrwt>0</asrwt>
<pdfrwt beam="1">  1       21 0.46946256E-01 0.23851665E+03</pdfrwt>
<pdfrwt beam="2">  1       21 0.94469647E-01 0.23851665E+03</pdfrwt>
<totfact> 0.39369154E+03</totfact>
</mgrwt>
</event>
