<event>
 5    0  0.1911311E+001  0.2372116E+03  0.7546771E-02  0.1121664E+00
         21   -1    0    0  503  501  0.00000000000E+00  0.00000000000E+00  0.36203801407E+03  0.36203801407E+03  0.00000000000E+00 0. -1.
         21   -1    0    0  504  502 -0.00000000000E+00 -0.00000000000E+00 -0.21750180306E+03  0.21750180306E+03  0.00000000000E+00 0. -1.
         25    1    1    2    0    0 -0.18286237129E+03  0.10605656366E+03 -0.48312763045E+02  0.25029135942E+03  0.12500000000E+03 0.  0.
         21    1    1    2  503  502  0.15153569790E+03 -0.11337985077E+03  0.69245211548E+02  0.20152656803E+03  0.00000000000E+00 0. -1.
         21    1    1    2  504  501  0.31326673387E+02  0.73232871096E+01  0.12360376251E+03  0.12772188969E+03  0.00000000000E+00 0. -1.
<mgrwt>
<rscale>  4 0.23721161E+03</rscale>
<asrwt>0</asrwt>
<pdfrwt beam="1">  1       21 0.55698156E-01 0.23721161E+03</pdfrwt>
<pdfrwt beam="2">  1       21 0.33461816E-01 0.23721161E+03</pdfrwt>
<totfact> 0.25508409E+04</totfact>
</mgrwt>
</event>
<event>
 5    0  0.1911311E+001  0.2920168E+03  0.7546771E-02  0.1089301E+00
         21   -1    0    0  504  501  0.00000000000E+00  0.00000000000E+00  0.30089156656E+03  0.30089156656E+03  0.00000000000E+00 0.  1.
         21   -1    0    0  503  502 -0.00000000000E+00 -0.00000000000E+00 -0.79074690912E+03  0.79074690912E+03  0.00000000000E+00 0.  1.
         25    1    1    2    0    0 -0.98842765647E+01 -0.23830689187E+03 -0.48228124438E+03  0.55236588627E+03  0.12500000000E+03 0.  0.
         21    1    1    2  503  501 -0.58322930336E+02 -0.20809828764E+02 -0.20001591695E+03  0.20938237798E+03  0.00000000000E+00 0.  1.
         21    1    1    2  504  502  0.68207206901E+02  0.25911672064E+03  0.19244181876E+03  0.32989021142E+03  0.00000000000E+00 0.  1.
<mgrwt>
<rscale>  4 0.29201676E+03</rscale>
<asrwt>0</asrwt>
<pdfrwt beam="1">  1       21 0.46291010E-01 0.29201676E+03</pdfrwt>
<pdfrwt beam="2">  1       21 0.12165337E+00 0.29201676E+03</pdfrwt>
<totfact> 0.21175269E+03</totfact>
</mgrwt>
</event>
<event>
 5    0  0.1911311E+001  0.2278048E+03  0.7546771E-02  0.1128194E+00
         21   -1    0    0  502  501  0.00000000000E+00  0.00000000000E+00  0.87269967011E+02  0.87269967011E+02  0.00000000000E+00 0. -1.
         21   -1    0    0  504  502 -0.00000000000E+00 -0.00000000000E+00 -0.99117441207E+03  0.99117441207E+03  0.00000000000E+00 0.  1.
         25    1    1    2    0    0 -0.49596548641E+02 -0.24171258018E+03 -0.47278942262E+03  0.54775873082E+03  0.12500000000E+03 0.  0.
         21    1    1    2  503  501 -0.30332533937E+02  0.17121818209E+03 -0.14857687906E+03  0.22871558208E+03  0.00000000000E+00 0. -1.
         21    1    1    2  504  503  0.79929082578E+02  0.70494398089E+02 -0.28253814338E+03  0.30197006618E+03  0.00000000000E+00 0.  1.
<mgrwt>
<rscale>  4 0.22780480E+03</rscale>
<asrwt>0</asrwt>
<pdfrwt beam="1">  1       21 0.13426149E-01 0.22780480E+03</pdfrwt>
<pdfrwt beam="2">  1       21 0.15248837E+00 0.22780480E+03</pdfrwt>
<totfact> 0.13397139E+04</totfact>
</mgrwt>
</event>
<event>
 5    0  0.2991885E+001  0.2494524E+03  0.7546771E-02  0.1113651E+00
         21   -1    0    0  502  501  0.00000000000E+00  0.00000000000E+00  0.48087064440E+02  0.48087064440E+02  0.00000000000E+00 0. -1.
         21   -1    0    0  504  502 -0.00000000000E+00 -0.00000000000E+00 -0.20524103932E+04  0.20524103932E+04  0.00000000000E+00 0.  1.
         25    1    1    2    0    0 -0.19766033535E+03  0.42875104133E+02 -0.15630034251E+04  0.15809846899E+04  0.12500000000E+03 0.  0.
         21    1    1    2  503  501  0.21658408524E+03 -0.30144986874E+02 -0.27359858541E+03  0.35024787244E+03  0.00000000000E+00 0. -1.
         21    1    1    2  504  503 -0.18923749891E+02 -0.12730117259E+02 -0.16772131828E+03  0.16926489536E+03  0.00000000000E+00 0.  1.
<mgrwt>
<rscale>  4 0.24945241E+03</rscale>
<asrwt>0</asrwt>
<pdfrwt beam="1">  1       21 0.73980111E-02 0.24945241E+03</pdfrwt>
<pdfrwt beam="2">  1       21 0.31575540E+00 0.24945241E+03</pdfrwt>
<totfact> 0.35787831E+03</totfact>
</mgrwt>
</event>
<event>
 5    0  0.1911311E+001  0.2530586E+03  0.7546771E-02  0.1111387E+00
         21   -1    0    0  502  501  0.00000000000E+00  0.00000000000E+00  0.51268227189E+03  0.51268227189E+03  0.00000000000E+00 0.  1.
         21   -1    0    0  504  502 -0.00000000000E+00 -0.00000000000E+00 -0.52414735480E+03  0.52414735480E+03  0.00000000000E+00 0.  1.
         25    1    1    2    0    0  0.71948186909E+02  0.18849907639E+03  0.43736609737E+03  0.49761686721E+03  0.12500000000E+03 0.  0.
         21    1    1    2  503  501 -0.43828254355E+01  0.21944943330E+02  0.13942652914E+02  0.26366404132E+02  0.00000000000E+00 0. -1.
         21    1    1    2  504  503 -0.67565361474E+02 -0.21044401972E+03 -0.46277383319E+03  0.51284635535E+03  0.00000000000E+00 0.  1.
<mgrwt>
<rscale>  4 0.25305861E+03</rscale>
<asrwt>0</asrwt>
<pdfrwt beam="1">  1       21 0.78874196E-01 0.25305861E+03</pdfrwt>
<pdfrwt beam="2">  1       21 0.80638054E-01 0.25305861E+03</pdfrwt>
<totfact> 0.18260636E+03</totfact>
</mgrwt>
</event>
<event>
 5    0  0.1911311E+001  0.2317257E+03  0.7546771E-02  0.1125431E+00
         21   -1    0    0  502  501  0.00000000000E+00  0.00000000000E+00  0.17729403309E+03  0.17729403309E+03  0.00000000000E+00 0. -1.
         21   -1    0    0  504  502 -0.00000000000E+00 -0.00000000000E+00 -0.56569365741E+03  0.56569365741E+03  0.00000000000E+00 0.  1.
         25    1    1    2    0    0 -0.30141740832E+02 -0.24630596509E+03 -0.39581744747E+02  0.28065435592E+03  0.12500000000E+03 0.  0.
         21    1    1    2  503  501  0.22350278240E+02  0.61308701523E+02  0.23959096888E+01  0.65299557450E+02  0.00000000000E+00 0.  1.
         21    1    1    2  504  503  0.77914625912E+01  0.18499726357E+03 -0.35121378926E+03  0.39703377713E+03  0.00000000000E+00 0.  1.
<mgrwt>
<rscale>  4 0.23172572E+03</rscale>
<asrwt>0</asrwt>
<pdfrwt beam="1">  1       21 0.27276005E-01 0.23172572E+03</pdfrwt>
<pdfrwt beam="2">  1       21 0.87029793E-01 0.23172572E+03</pdfrwt>
<totfact> 0.14200273E+04</totfact>
</mgrwt>
</event>
