<event>
 5    0  0.3040647E+000  0.2791564E+03  0.7546771E-02  0.1096151E+00
          2   -1    0    0  502    0 -0.00000000000E+00  0.00000000000E+00  0.33359845527E+04  0.33359845527E+04  0.00000000000E+00 0. -1.
         21   -1    0    0  503  502  0.00000000000E+00 -0.00000000000E+00 -0.32795945113E+03  0.32795945113E+03  0.00000000000E+00 0. -1.
         25    1    1    2    0    0 -0.17381724845E+03 -0.10108746421E+03  0.64523953268E+03  0.68730645699E+03  0.12500000000E+03 0.  0.
         21    1    1    2  503  501 -0.55162763910E+02 -0.31851541487E+02 -0.29697562412E+03  0.30373009817E+03  0.00000000000E+00 0. -1.
          2    1    1    2  501    0  0.22898001236E+03  0.13293900570E+03  0.26597611930E+04  0.26729074486E+04  0.00000000000E+00 0. -1.
<mgrwt>
<rscale>  4 0.27915642E+03</rscale>
<asrwt>0</asrwt>
<pdfrwt beam="1">  1       21 0.50455303E-01 0.27915642E+03</pdfrwt>
<pdfrwt beam="2">  1        2 0.51322837E+00 0.27915642E+03</pdfrwt>
<totfact> 0.59064759E+01</totfact>
</mgrwt>
</event>
<event>
 5    0  0.3040647E+000  0.3172297E+03  0.7546771E-02  0.1076931E+00
          2   -1    0    0  502    0 -0.00000000000E+00  0.00000000000E+00  0.54273646231E+03  0.54273646231E+03  0.00000000000E+00 0.  1.
         21   -1    0    0  503  502  0.00000000000E+00 -0.00000000000E+00 -0.36667351803E+03  0.36667351803E+03  0.00000000000E+00 0.  1.
         25    1    1    2    0    0  0.38641174944E+03 -0.53806478898E+02  0.20807776728E+03  0.45948942807E+03  0.12500000000E+03 0.  0.
         21    1    1    2  503  501 -0.15669882044E+03  0.70400814956E+02 -0.11318689585E+03  0.20572328130E+03  0.00000000000E+00 0.  1.
          2    1    1    2  501    0 -0.22971292900E+03 -0.16594336058E+02  0.81172072861E+02  0.24419727097E+03  0.00000000000E+00 0.  1.
<mgrwt>
<rscale>  4 0.31722968E+03</rscale>
<asrwt>0</asrwt>
<pdfrwt beam="1">  1       21 0.56411310E-01 0.31722968E+03</pdfrwt>
<pdfrwt beam="2">  1        2 0.83497918E-01 0.31722968E+03</pdfrwt>
<totfact> 0.20102823E+03</totfact>
</mgrwt>
</event>
<event>
 5    0  0.3040647E+000  0.1888203E+03  0.7546771E-02  0.1159530E+00
          2   -1    0    0  502    0 -0.00000000000E+00  0.00000000000E+00  0.10346216112E+04  0.10346216112E+04  0.00000000000E+00 0. -1.
         21   -1    0    0  503  502  0.00000000000E+00 -0.00000000000E+00 -0.12692039981E+03  0.12692039981E+03  0.00000000000E+00 0. -1.
         25    1    1    2    0    0 -0.12550350499E+03  0.15871861468E+03  0.16748016941E+03  0.29089059035E+03  0.12500000000E+03 0.  0.
         21    1    1    2  503  501  0.40196863256E+02 -0.53121590628E+02 -0.40669527420E+02  0.78049354046E+02  0.00000000000E+00 0. -1.
          2    1    1    2  501    0  0.85306641733E+02 -0.10559702405E+03  0.78089056941E+03  0.79260206662E+03  0.00000000000E+00 0. -1.
<mgrwt>
<rscale>  4 0.18882028E+03</rscale>
<asrwt>0</asrwt>
<pdfrwt beam="1">  1       21 0.19526216E-01 0.18882028E+03</pdfrwt>
<pdfrwt beam="2">  1        2 0.15917255E+00 0.18882028E+03</pdfrwt>
<totfact> 0.76926609E+03</totfact>
</mgrwt>
</event>
<event>
 5    0  0.3040647E+000  0.2880630E+03  0.7546771E-02  0.1091365E+00
          2   -1    0    0  502    0 -0.00000000000E+00  0.00000000000E+00  0.17369663215E+04  0.17369663215E+04  0.00000000000E+00 0.  1.
         21   -1    0    0  503  502  0.00000000000E+00 -0.00000000000E+00 -0.16426057090E+03  0.16426057090E+03  0.00000000000E+00 0.  1.
         25    1    1    2    0    0  0.23822532543E+03  0.34188308003E+02  0.12280757642E+04  0.12576626052E+04  0.12500000000E+03 0.  0.
         21    1    1    2  503  501  0.92625038010E+02  0.49804763558E+02 -0.54441099734E+02  0.11842189612E+03  0.00000000000E+00 0.  1.
          2    1    1    2  501    0 -0.33085036344E+03 -0.83993071561E+02  0.39907108615E+03  0.52514239103E+03  0.00000000000E+00 0.  1.
<mgrwt>
<rscale>  4 0.28806303E+03</rscale>
<asrwt>0</asrwt>
<pdfrwt beam="1">  1       21 0.25270858E-01 0.28806303E+03</pdfrwt>
<pdfrwt beam="2">  1        2 0.26722558E+00 0.28806303E+03</pdfrwt>
<totfact> 0.18666376E+03</totfact>
</mgrwt>
</event>
<event>
 5    0  0.3040647E+000  0.2581337E+03  0.7546771E-02  0.1108270E+00
          2   -1    0    0  502    0 -0.00000000000E+00  0.00000000000E+00  0.14863633186E+04  0.14863633186E+04  0.00000000000E+00 0.  1.
         21   -1    0    0  503  502  0.00000000000E+00 -0.00000000000E+00 -0.75132319196E+02  0.75132319196E+02  0.00000000000E+00 0.  1.
         25    1    1    2    0    0  0.21244598219E+03  0.37077783070E+02  0.28575415672E+03  0.37919453507E+03  0.12500000000E+03 0.  0.
         21    1    1    2  503  501  0.15389493732E+02 -0.19280087217E+02 -0.80636903756E+01  0.25953446455E+02  0.00000000000E+00 0.  1.
          2    1    1    2  501    0 -0.22783547592E+03 -0.17797695853E+02  0.11335405330E+04  0.11563476562E+04  0.00000000000E+00 0.  1.
<mgrwt>
<rscale>  4 0.25813370E+03</rscale>
<asrwt>0</asrwt>
<pdfrwt beam="1">  1       21 0.11558819E-01 0.25813370E+03</pdfrwt>
<pdfrwt beam="2">  1        2 0.22867126E+00 0.25813370E+03</pdfrwt>
<totfact> 0.10962748E+04</totfact>
</mgrwt>
</event>
<event>
 5    0  0.3040647E+000  0.2808418E+03  0.7546771E-02  0.1095230E+00
         21   -1    0    0  501  502  0.00000000000E+00  0.00000000000E+00  0.20415940309E+04  0.20415940309E+04  0.00000000000E+00 0.  1.
         -1   -1    0    0    0  501 -0.00000000000E+00 -0.00000000000E+00 -0.24575248328E+03  0.24575248328E+03  0.00000000000E+00 0.  1.
         25    1    1    2    0    0  0.25960599810E+03  0.13319433874E+02  0.17833060682E+04  0.18064822762E+04  0.12500000000E+03 0.  0.
         21    1    1    2  503  502 -0.86510033295E+01 -0.24750144114E+02  0.17808583426E+03  0.18000548285E+03  0.00000000000E+00 0. -1.
         -1    1    1    2    0  503 -0.25095499477E+03  0.11430710240E+02 -0.16555035481E+03  0.30085875509E+03  0.00000000000E+00 0.  1.
<mgrwt>
<rscale>  4 0.28084185E+03</rscale>
<asrwt>0</asrwt>
<pdfrwt beam="1">  1       21 0.31409138E+00 0.28084185E+03</pdfrwt>
<pdfrwt beam="2">  1       -1 0.37808076E-01 0.28084185E+03</pdfrwt>
<totfact> 0.16126960E+01</totfact>
</mgrwt>
</event>
<event>
 5    0  0.3040647E+000  0.2678051E+03  0.7546771E-02  0.1102542E+00
         21   -1    0    0  501  502  0.00000000000E+00  0.00000000000E+00  0.51467432328E+03  0.51467432328E+03  0.00000000000E+00 0. -1.
         -1   -1    0    0    0  501 -0.00000000000E+00 -0.00000000000E+00 -0.49333090094E+03  0.49333090094E+03  0.00000000000E+00 0. -1.
         25    1    1    2    0    0 -0.21637355018E+03 -0.16109568984E+03  0.12123909369E+03  0.32108137963E+03  0.12500000000E+03 0.  0.
         21    1    1    2  503  502  0.29490424232E+02  0.24051455268E+02  0.25786729224E+03  0.26066011975E+03  0.00000000000E+00 0. -1.
         -1    1    1    2    0  503  0.18688312595E+03  0.13704423457E+03 -0.35776296360E+03  0.42626372484E+03  0.00000000000E+00 0. -1.
<mgrwt>
<rscale>  4 0.26780514E+03</rscale>
<asrwt>0</asrwt>
<pdfrwt beam="1">  1       21 0.79180666E-01 0.26780514E+03</pdfrwt>
<pdfrwt beam="2">  1       -1 0.75897061E-01 0.26780514E+03</pdfrwt>
<totfact> 0.22981409E+02</totfact>
</mgrwt>
</event>
<event>
 5    0  0.3040647E+000  0.3755984E+03  0.7546771E-02  0.1052573E+00
          4   -1    0    0  502    0 -0.00000000000E+00  0.00000000000E+00  0.63892139607E+03  0.63892139607E+03  0.00000000000E+00 0.  1.
         21   -1    0    0  503  502  0.00000000000E+00 -0.00000000000E+00 -0.41727831293E+03  0.41727831293E+03  0.00000000000E+00 0.  1.
         25    1    1    2    0    0  0.30014056648E+03  0.15730408356E+03  0.14575269924E+03  0.38948399670E+03  0.12500000000E+03 0.  0.
         21    1    1    2  503  501 -0.34608265401E+03 -0.10732796041E+03 -0.17814437294E+03  0.40376715085E+03  0.00000000000E+00 0.  1.
          4    1    1    2  501    0  0.45942087532E+02 -0.49976123143E+02  0.25403475683E+03  0.26294856145E+03  0.00000000000E+00 0.  1.
<mgrwt>
<rscale>  4 0.37559838E+03</rscale>
<asrwt>0</asrwt>
<pdfrwt beam="1">  1       21 0.64196663E-01 0.37559838E+03</pdfrwt>
<pdfrwt beam="2">  1        4 0.98295600E-01 0.37559838E+03</pdfrwt>
<totfact> 0.80555132E+01</totfact>
</mgrwt>
</event>
<event>
 5    0  0.3040647E+000  0.4132287E+03  0.7546771E-02  0.1039293E+00
         21   -1    0    0  503  502  0.00000000000E+00  0.00000000000E+00  0.80742128946E+03  0.80742128946E+03  0.00000000000E+00 0.  1.
          1   -1    0    0  502    0 -0.00000000000E+00 -0.00000000000E+00 -0.19478028594E+04  0.19478028594E+04  0.00000000000E+00 0.  1.
         25    1    1    2    0    0  0.35861363593E+03 -0.30439395665E+03  0.46867591028E+03  0.67567856973E+03  0.12500000000E+03 0.  0.
         21    1    1    2  503  501 -0.11382868270E+03 -0.97674958522E+00  0.19919385968E+03  0.22942562363E+03  0.00000000000E+00 0.  1.
          1    1    1    2  501    0 -0.24478495323E+03  0.30537070624E+03 -0.18082513399E+04  0.18501199555E+04  0.00000000000E+00 0.  1.
<mgrwt>
<rscale>  4 0.41322870E+03</rscale>
<asrwt>0</asrwt>
<pdfrwt beam="1">  1       21 0.12421866E+00 0.41322870E+03</pdfrwt>
<pdfrwt beam="2">  1        1 0.29966198E+00 0.41322870E+03</pdfrwt>
<totfact> 0.17005582E+01</totfact>
</mgrwt>
</event>
<event>
 5    0  0.3040647E+000  0.3333572E+03  0.7546771E-02  0.1069661E+00
         21   -1    0    0  503  502  0.00000000000E+00  0.00000000000E+00  0.18531985280E+03  0.18531985280E+03  0.00000000000E+00 0. -1.
          1   -1    0    0  502    0 -0.00000000000E+00 -0.00000000000E+00 -0.65750622939E+03  0.65750622939E+03  0.00000000000E+00 0. -1.
         25    1    1    2    0    0  0.36290746966E+02 -0.30354149029E+03 -0.17959783380E+03  0.37594525738E+03  0.12500000000E+03 0.  0.
         21    1    1    2  503  501 -0.30784597329E+02 -0.83256913860E+01  0.88653374772E+01  0.33099890912E+02  0.00000000000E+00 0.  1.
          1    1    1    2  501    0 -0.55061496369E+01  0.31186718167E+03 -0.30145388026E+03  0.43378093390E+03  0.00000000000E+00 0. -1.
<mgrwt>
<rscale>  4 0.33335723E+03</rscale>
<asrwt>0</asrwt>
<pdfrwt beam="1">  1       21 0.28510747E-01 0.33335723E+03</pdfrwt>
<pdfrwt beam="2">  1        1 0.10115480E+00 0.33335723E+03</pdfrwt>
<totfact> 0.38804661E+03</totfact>
</mgrwt>
</event>
<event>
 5    0  0.3040647E+000  0.3533080E+03  0.7546771E-02  0.1061265E+00
          2   -1    0    0  502    0 -0.00000000000E+00  0.00000000000E+00  0.14442969477E+04  0.14442969477E+04  0.00000000000E+00 0.  1.
         21   -1    0    0  503  502  0.00000000000E+00 -0.00000000000E+00 -0.50465648764E+03  0.50465648764E+03  0.00000000000E+00 0.  1.
         25    1    1    2    0    0 -0.13893246472E+03 -0.26367589426E+03  0.39012520748E+03  0.50660624205E+03  0.12500000000E+03 0.  0.
         21    1    1    2  503  501 -0.30486053085E+02 -0.39583773631E+02 -0.41457989609E+03  0.41757965086E+03  0.00000000000E+00 0.  1.
          2    1    1    2  501    0  0.16941851781E+03  0.30325966790E+03  0.96409514868E+03  0.10247675424E+04  0.00000000000E+00 0.  1.
<mgrwt>
<rscale>  4 0.35330804E+03</rscale>
<asrwt>0</asrwt>
<pdfrwt beam="1">  1       21 0.77639460E-01 0.35330804E+03</pdfrwt>
<pdfrwt beam="2">  1        2 0.22219953E+00 0.35330804E+03</pdfrwt>
<totfact> 0.25096490E+02</totfact>
</mgrwt>
</event>
<event>
 5    0  0.3040647E+000  0.2724335E+03  0.7546771E-02  0.1099895E+00
         21   -1    0    0  503  502  0.00000000000E+00  0.00000000000E+00  0.86833873610E+03  0.86833873610E+03  0.00000000000E+00 0. -1.
          1   -1    0    0  502    0 -0.00000000000E+00 -0.00000000000E+00 -0.56074170697E+03  0.56074170697E+03  0.00000000000E+00 0. -1.
         25    1    1    2    0    0 -0.30119512409E+03 -0.10443656693E+03  0.64996229257E+03  0.73464377834E+03  0.12500000000E+03 0.  0.
         21    1    1    2  503  501  0.82795589751E+02  0.74031266096E+01  0.13617394096E+03  0.15954077272E+03  0.00000000000E+00 0. -1.
          1    1    1    2  501    0  0.21839953434E+03  0.97033440321E+02 -0.47853920439E+03  0.53489589200E+03  0.00000000000E+00 0. -1.
<mgrwt>
<rscale>  4 0.27243354E+03</rscale>
<asrwt>0</asrwt>
<pdfrwt beam="1">  1       21 0.13359057E+00 0.27243354E+03</pdfrwt>
<pdfrwt beam="2">  1        1 0.86267955E-01 0.27243354E+03</pdfrwt>
<totfact> 0.16359368E+02</totfact>
</mgrwt>
</event>
<event>
 5    0  0.3040647E+000  0.3777903E+03  0.7546771E-02  0.1051754E+00
          2   -1    0    0  502    0 -0.00000000000E+00  0.00000000000E+00  0.23132322023E+04  0.23132322023E+04  0.00000000000E+00 0. -1.
         21   -1    0    0  503  502  0.00000000000E+00 -0.00000000000E+00 -0.44024362271E+03  0.44024362271E+03  0.00000000000E+00 0. -1.
         25    1    1    2    0    0  0.13269459338E+03  0.30982000688E+03  0.10292201946E+04  0.10901905800E+04  0.12500000000E+03 0.  0.
         21    1    1    2  503  501  0.21889118357E+02  0.31199258698E+02 -0.38082687208E+03  0.38272919114E+03  0.00000000000E+00 0. -1.
          2    1    1    2  501    0 -0.15458371174E+03 -0.34101926558E+03  0.12245952571E+04  0.12805560539E+04  0.00000000000E+00 0. -1.
<mgrwt>
<rscale>  4 0.37779027E+03</rscale>
<asrwt>0</asrwt>
<pdfrwt beam="1">  1       21 0.67729789E-01 0.37779027E+03</pdfrwt>
<pdfrwt beam="2">  1        2 0.35588187E+00 0.37779027E+03</pdfrwt>
<totfact> 0.11556756E+02</totfact>
</mgrwt>
</event>
<event>
 5    0  0.3040647E+000  0.2239451E+03  0.7546771E-02  0.1130976E+00
         21   -1    0    0  503  502  0.00000000000E+00  0.00000000000E+00  0.12398271796E+04  0.12398271796E+04  0.00000000000E+00 0.  1.
          1   -1    0    0  502    0 -0.00000000000E+00 -0.00000000000E+00 -0.22642899142E+03  0.22642899142E+03  0.00000000000E+00 0.  1.
         25    1    1    2    0    0  0.65544344841E+02  0.24657659314E+03  0.40242824835E+03  0.49261503478E+03  0.12500000000E+03 0.  0.
         21    1    1    2  503  501 -0.11126227106E+02 -0.76125660124E+02  0.74570184574E+03  0.74966002414E+03  0.00000000000E+00 0.  1.
          1    1    1    2  501    0 -0.54418117734E+02 -0.17045093302E+03 -0.13473190591E+03  0.22398111209E+03  0.00000000000E+00 0.  1.
<mgrwt>
<rscale>  4 0.22394512E+03</rscale>
<asrwt>0</asrwt>
<pdfrwt beam="1">  1       21 0.19074264E+00 0.22394512E+03</pdfrwt>
<pdfrwt beam="2">  1        1 0.34835230E-01 0.22394512E+03</pdfrwt>
<totfact> 0.20494800E+02</totfact>
</mgrwt>
</event>
<event>
 5    0  0.3040647E+000  0.2764409E+03  0.7546771E-02  0.1097649E+00
         21   -1    0    0  503  502  0.00000000000E+00  0.00000000000E+00  0.21123536322E+03  0.21123536322E+03  0.00000000000E+00 0. -1.
          3   -1    0    0  502    0 -0.00000000000E+00 -0.00000000000E+00 -0.59111222814E+03  0.59111222814E+03  0.00000000000E+00 0.  1.
         25    1    1    2    0    0  0.86464992669E+02 -0.21786760763E+03  0.55431260664E+02  0.27136712047E+03  0.12500000000E+03 0.  0.
         21    1    1    2  503  501  0.22227236976E+02 -0.62772549965E+01  0.63147346155E+01  0.23944307614E+02  0.00000000000E+00 0. -1.
          3    1    1    2  501    0 -0.10869222964E+03  0.22414486263E+03 -0.44162286019E+03  0.50703616328E+03  0.00000000000E+00 0.  1.
<mgrwt>
<rscale>  4 0.27644090E+03</rscale>
<asrwt>0</asrwt>
<pdfrwt beam="1">  1       21 0.32497748E-01 0.27644090E+03</pdfrwt>
<pdfrwt beam="2">  1        3 0.90940343E-01 0.27644090E+03</pdfrwt>
<totfact> 0.49959389E+02</totfact>
</mgrwt>
</event>
<event>
 5    0  0.3040647E+000  0.4120165E+03  0.7546771E-02  0.1039696E+00
         21   -1    0    0  503  502  0.00000000000E+00  0.00000000000E+00  0.70826689892E+03  0.70826689892E+03  0.00000000000E+00 0.  1.
          1   -1    0    0  502    0 -0.00000000000E+00 -0.00000000000E+00 -0.42919113519E+03  0.42919113519E+03  0.00000000000E+00 0. -1.
         25    1    1    2    0    0 -0.14029529391E+03  0.36382275879E+03  0.31488140255E+03  0.51655112717E+03  0.12500000000E+03 0.  0.
         21    1    1    2  503  501  0.30881549020E+02  0.14347660283E+02  0.17228217232E+03  0.17561512556E+03  0.00000000000E+00 0.  1.
          1    1    1    2  501    0  0.10941374489E+03 -0.37817041907E+03 -0.20808781113E+03  0.44529178139E+03  0.00000000000E+00 0. -1.
<mgrwt>
<rscale>  4 0.41201654E+03</rscale>
<asrwt>0</asrwt>
<pdfrwt beam="1">  1       21 0.10896414E+00 0.41201654E+03</pdfrwt>
<pdfrwt beam="2">  1        1 0.66029405E-01 0.41201654E+03</pdfrwt>
<totfact> 0.36919067E+02</totfact>
</mgrwt>
</event>
<event>
 5    0  0.3040647E+000  0.3981784E+03  0.7546771E-02  0.1044412E+00
         21   -1    0    0  503  502  0.00000000000E+00  0.00000000000E+00  0.66995401108E+03  0.66995401108E+03  0.00000000000E+00 0. -1.
          1   -1    0    0  502    0 -0.00000000000E+00 -0.00000000000E+00 -0.13926391588E+04  0.13926391588E+04  0.00000000000E+00 0.  1.
         25    1    1    2    0    0  0.18405998179E+03  0.45327132382E+03  0.24319743675E+03  0.56044889432E+03  0.12500000000E+03 0.  0.
         21    1    1    2  503  501 -0.77654760958E+02 -0.98488415446E+02  0.22357449586E+03  0.25635090223E+03  0.00000000000E+00 0. -1.
          1    1    1    2  501    0 -0.10640522084E+03 -0.35478290838E+03 -0.11894570803E+04  0.12457933733E+04  0.00000000000E+00 0.  1.
<mgrwt>
<rscale>  4 0.39817844E+03</rscale>
<asrwt>0</asrwt>
<pdfrwt beam="1">  1       21 0.10306985E+00 0.39817844E+03</pdfrwt>
<pdfrwt beam="2">  1        1 0.21425218E+00 0.39817844E+03</pdfrwt>
<totfact> 0.63856924E+01</totfact>
</mgrwt>
</event>
<event>
 5    0  0.3040647E+000  0.2238788E+03  0.7546771E-02  0.1131024E+00
          1   -1    0    0  502    0 -0.00000000000E+00  0.00000000000E+00  0.10734956563E+04  0.10734956563E+04  0.00000000000E+00 0.  1.
         21   -1    0    0  503  502  0.00000000000E+00 -0.00000000000E+00 -0.10673370219E+03  0.10673370219E+03  0.00000000000E+00 0.  1.
         25    1    1    2    0    0  0.20542122628E+03  0.13152185768E+02  0.10532625520E+03  0.26284877826E+03  0.12500000000E+03 0.  0.
         21    1    1    2  503  501 -0.27056893445E+02  0.30351896449E+02  0.43970425688E+01  0.40898008317E+02  0.00000000000E+00 0.  1.
          1    1    1    2  501    0 -0.17836433284E+03 -0.43504082217E+02  0.85703865632E+03  0.87648257188E+03  0.00000000000E+00 0.  1.
<mgrwt>
<rscale>  4 0.22387884E+03</rscale>
<asrwt>0</asrwt>
<pdfrwt beam="1">  1       21 0.16420570E-01 0.22387884E+03</pdfrwt>
<pdfrwt beam="2">  1        1 0.16515317E+00 0.22387884E+03</pdfrwt>
<totfact> 0.52208365E+03</totfact>
</mgrwt>
</event>
<event>
 5    0  0.3040647E+000  0.4271693E+03  0.7546771E-02  0.1034758E+00
         21   -1    0    0  503  502  0.00000000000E+00  0.00000000000E+00  0.21593671962E+04  0.21593671962E+04  0.00000000000E+00 0. -1.
          1   -1    0    0  502    0 -0.00000000000E+00 -0.00000000000E+00 -0.58194041360E+03  0.58194041360E+03  0.00000000000E+00 0.  1.
         25    1    1    2    0    0 -0.44530693279E+03  0.17770526339E+03 -0.12452411048E+03  0.51089008516E+03  0.12500000000E+03 0.  0.
         21    1    1    2  503  501  0.12587627914E+03 -0.45433255812E+01  0.18380921052E+04  0.18424027971E+04  0.00000000000E+00 0. -1.
          1    1    1    2  501    0  0.31943065365E+03 -0.17316193781E+03 -0.13614121210E+03  0.38801472759E+03  0.00000000000E+00 0.  1.
<mgrwt>
<rscale>  4 0.42716930E+03</rscale>
<asrwt>0</asrwt>
<pdfrwt beam="1">  1       21 0.33221033E+00 0.42716930E+03</pdfrwt>
<pdfrwt beam="2">  1        1 0.89529295E-01 0.42716930E+03</pdfrwt>
<totfact> 0.71641047E+00</totfact>
</mgrwt>
</event>
<event>
 5    0  0.3040647E+000  0.1929820E+03  0.7546771E-02  0.1155799E+00
          1   -1    0    0  502    0 -0.00000000000E+00  0.00000000000E+00  0.14087977319E+04  0.14087977319E+04  0.00000000000E+00 0. -1.
         21   -1    0    0  503  502  0.00000000000E+00 -0.00000000000E+00 -0.17428391418E+03  0.17428391418E+03  0.00000000000E+00 0. -1.
         25    1    1    2    0    0 -0.20891842550E+03  0.94819472324E+02  0.83210820960E+03  0.87216209120E+03  0.12500000000E+03 0.  0.
         21    1    1    2  503  501  0.12969944962E+03 -0.61906957378E+02 -0.11647925131E+03  0.18499144464E+03  0.00000000000E+00 0. -1.
          1    1    1    2  501    0  0.79218975888E+02 -0.32912514947E+02  0.51888485943E+03  0.52592811023E+03  0.00000000000E+00 0. -1.
<mgrwt>
<rscale>  4 0.19298202E+03</rscale>
<asrwt>0</asrwt>
<pdfrwt beam="1">  1       21 0.26812911E-01 0.19298202E+03</pdfrwt>
<pdfrwt beam="2">  1        1 0.21673810E+00 0.19298202E+03</pdfrwt>
<totfact> 0.12365778E+03</totfact>
</mgrwt>
</event>
<event>
 5    0  0.3040647E+000  0.3377173E+03  0.7546771E-02  0.1067772E+00
         21   -1    0    0  503  502  0.00000000000E+00  0.00000000000E+00  0.14309936263E+04  0.14309936263E+04  0.00000000000E+00 0.  1.
          2   -1    0    0  502    0 -0.00000000000E+00 -0.00000000000E+00 -0.28631181863E+03  0.28631181863E+03  0.00000000000E+00 0. -1.
         25    1    1    2    0    0 -0.43682450613E+03 -0.42476290797E+01  0.49211859119E+03  0.66980549363E+03  0.12500000000E+03 0.  0.
         21    1    1    2  503  501  0.14708088578E+03  0.23838311256E+02  0.73152978982E+03  0.74654998857E+03  0.00000000000E+00 0.  1.
          2    1    1    2  501    0  0.28974362034E+03 -0.19590682176E+02 -0.78966573339E+02  0.30094996272E+03  0.00000000000E+00 0. -1.
<mgrwt>
<rscale>  4 0.33771730E+03</rscale>
<asrwt>0</asrwt>
<pdfrwt beam="1">  1       21 0.22015286E+00 0.33771730E+03</pdfrwt>
<pdfrwt beam="2">  1        2 0.44047973E-01 0.33771730E+03</pdfrwt>
<totfact> 0.12914078E+02</totfact>
</mgrwt>
</event>
<event>
 5    0  0.3040647E+000  0.3131965E+03  0.7546771E-02  0.1078824E+00
         21   -1    0    0  501  502  0.00000000000E+00  0.00000000000E+00  0.46933913313E+03  0.46933913313E+03  0.00000000000E+00 0.  1.
         -2   -1    0    0    0  501 -0.00000000000E+00 -0.00000000000E+00 -0.39361545543E+03  0.39361545543E+03  0.00000000000E+00 0. -1.
         25    1    1    2    0    0 -0.28653983201E+03  0.10256480859E+03  0.31288001977E+03  0.45403030962E+03  0.12500000000E+03 0.  0.
         21    1    1    2  503  502  0.20782839416E+02 -0.14740171322E+01  0.17510297151E+02  0.27215981464E+02  0.00000000000E+00 0.  1.
         -2    1    1    2    0  503  0.26575699259E+03 -0.10109079146E+03 -0.25466663922E+03  0.38170829747E+03  0.00000000000E+00 0. -1.
<mgrwt>
<rscale>  4 0.31319654E+03</rscale>
<asrwt>0</asrwt>
<pdfrwt beam="1">  1       21 0.72206020E-01 0.31319654E+03</pdfrwt>
<pdfrwt beam="2">  1       -2 0.60556224E-01 0.31319654E+03</pdfrwt>
<totfact> 0.34865720E+02</totfact>
</mgrwt>
</event>
<event>
 5    0  0.3040647E+000  0.2310263E+03  0.7546771E-02  0.1125919E+00
          1   -1    0    0  502    0 -0.00000000000E+00  0.00000000000E+00  0.70075762511E+03  0.70075762511E+03  0.00000000000E+00 0. -1.
         21   -1    0    0  503  502  0.00000000000E+00 -0.00000000000E+00 -0.95290577310E+02  0.95290577310E+02  0.00000000000E+00 0. -1.
         25    1    1    2    0    0 -0.11926215393E+03  0.18494129322E+03  0.23126592083E+03  0.34283475529E+03  0.12500000000E+03 0.  0.
         21    1    1    2  503  501 -0.37702002137E+01 -0.47213027184E+02  0.15625512893E+02  0.49874251861E+02  0.00000000000E+00 0. -1.
          1    1    1    2  501    0  0.12303235415E+03 -0.13772826603E+03  0.35857561407E+03  0.40333919526E+03  0.00000000000E+00 0. -1.
<mgrwt>
<rscale>  4 0.23102631E+03</rscale>
<asrwt>0</asrwt>
<pdfrwt beam="1">  1       21 0.14660089E-01 0.23102631E+03</pdfrwt>
<pdfrwt beam="2">  1        1 0.10780886E+00 0.23102631E+03</pdfrwt>
<totfact> 0.12713459E+04</totfact>
</mgrwt>
</event>
<event>
 5    0  0.3040647E+000  0.2588825E+03  0.7546771E-02  0.1107816E+00
         21   -1    0    0  503  502  0.00000000000E+00  0.00000000000E+00  0.46172465150E+03  0.46172465150E+03  0.00000000000E+00 0.  1.
          1   -1    0    0  502    0 -0.00000000000E+00 -0.00000000000E+00 -0.70744408857E+03  0.70744408857E+03  0.00000000000E+00 0.  1.
         25    1    1    2    0    0  0.23187359461E+03  0.10143552187E+03 -0.19187631399E+03  0.34131517523E+03  0.12500000000E+03 0.  0.
         21    1    1    2  503  501 -0.20566286266E+02 -0.25307267266E+03  0.29724353402E+03  0.39092514410E+03  0.00000000000E+00 0.  1.
          1    1    1    2  501    0 -0.21130730834E+03  0.15163715079E+03 -0.35108665709E+03  0.43692842074E+03  0.00000000000E+00 0.  1.
<mgrwt>
<rscale>  4 0.25888253E+03</rscale>
<asrwt>0</asrwt>
<pdfrwt beam="1">  1       21 0.71034562E-01 0.25888253E+03</pdfrwt>
<pdfrwt beam="2">  1        1 0.10883755E+00 0.25888253E+03</pdfrwt>
<totfact> 0.53478625E+02</totfact>
</mgrwt>
</event>
<event>
 5    0  0.3040647E+000  0.2182687E+03  0.7546771E-02  0.1135180E+00
          1   -1    0    0  502    0 -0.00000000000E+00  0.00000000000E+00  0.10717246147E+04  0.10717246147E+04  0.00000000000E+00 0.  1.
         21   -1    0    0  503  502  0.00000000000E+00 -0.00000000000E+00 -0.95928983306E+02  0.95928983306E+02  0.00000000000E+00 0.  1.
         25    1    1    2    0    0 -0.17641150025E+03  0.10241979567E+03  0.25205182539E+03  0.34751396324E+03  0.12500000000E+03 0.  0.
         21    1    1    2  503  501  0.46316372279E+02  0.13673998708E+02 -0.22871128485E+02  0.53434755543E+02  0.00000000000E+00 0.  1.
          1    1    1    2  501    0  0.13009512797E+03 -0.11609379438E+03  0.74661493446E+03  0.76670487919E+03  0.00000000000E+00 0.  1.
<mgrwt>
<rscale>  4 0.21826868E+03</rscale>
<asrwt>0</asrwt>
<pdfrwt beam="1">  1       21 0.14758306E-01 0.21826868E+03</pdfrwt>
<pdfrwt beam="2">  1        1 0.16488070E+00 0.21826868E+03</pdfrwt>
<totfact> 0.63792941E+03</totfact>
</mgrwt>
</event>
<event>
 5    0  0.3040647E+000  0.2508023E+03  0.7546771E-02  0.1112799E+00
         21   -1    0    0  503  502  0.00000000000E+00  0.00000000000E+00  0.26131992766E+02  0.26131992766E+02  0.00000000000E+00 0. -1.
          2   -1    0    0  502    0 -0.00000000000E+00 -0.00000000000E+00 -0.30679772428E+04  0.30679772428E+04  0.00000000000E+00 0. -1.
         25    1    1    2    0    0 -0.20488332663E+03 -0.95700257656E+02 -0.20907664368E+04  0.21066715477E+04  0.12500000000E+03 0.  0.
         21    1    1    2  503  501  0.10381118707E+02  0.28614217653E+02 -0.26863481543E+02  0.40597878246E+02  0.00000000000E+00 0.  1.
          2    1    1    2  501    0  0.19450220793E+03  0.67086040004E+02 -0.92421533165E+03  0.94683980953E+03  0.00000000000E+00 0. -1.
<mgrwt>
<rscale>  4 0.25080228E+03</rscale>
<asrwt>0</asrwt>
<pdfrwt beam="1">  1       21 0.40203090E-02 0.25080228E+03</pdfrwt>
<pdfrwt beam="2">  1        2 0.47199621E+00 0.25080228E+03</pdfrwt>
<totfact> 0.94623224E+03</totfact>
</mgrwt>
</event>
<event>
 5    0  0.3040647E+000  0.4434401E+03  0.7546771E-02  0.1029697E+00
         21   -1    0    0  503  502  0.00000000000E+00  0.00000000000E+00  0.44193210340E+03  0.44193210340E+03  0.00000000000E+00 0.  1.
          2   -1    0    0  502    0 -0.00000000000E+00 -0.00000000000E+00 -0.10151412120E+04  0.10151412120E+04  0.00000000000E+00 0.  1.
         25    1    1    2    0    0  0.41589220116E+03  0.82498107154E+02  0.12111715436E+03  0.45833025838E+03  0.12500000000E+03 0.  0.
         21    1    1    2  503  501 -0.51659607138E+01  0.30173870550E+02  0.96109924478E+02  0.10086757258E+03  0.00000000000E+00 0. -1.
          2    1    1    2  501    0 -0.41072624045E+03 -0.11267197770E+03 -0.79043618739E+03  0.89787548440E+03  0.00000000000E+00 0.  1.
<mgrwt>
<rscale>  4 0.44344015E+03</rscale>
<asrwt>0</asrwt>
<pdfrwt beam="1">  1       21 0.67989556E-01 0.44344015E+03</pdfrwt>
<pdfrwt beam="2">  1        2 0.15617557E+00 0.44344015E+03</pdfrwt>
<totfact> 0.58034144E+02</totfact>
</mgrwt>
</event>
<event>
 5    0  0.3040647E+000  0.3402165E+03  0.7546771E-02  0.1066704E+00
          2   -1    0    0  502    0 -0.00000000000E+00  0.00000000000E+00  0.19564251742E+04  0.19564251742E+04  0.00000000000E+00 0.  1.
         21   -1    0    0  503  502  0.00000000000E+00 -0.00000000000E+00 -0.17440790290E+03  0.17440790290E+03  0.00000000000E+00 0.  1.
         25    1    1    2    0    0  0.78320938570E+02  0.31999951711E+03  0.61055116151E+03  0.70493374241E+03  0.12500000000E+03 0.  0.
         21    1    1    2  503  501  0.41699625728E+01 -0.19822603439E+02 -0.10760237203E+03  0.10949244111E+03  0.00000000000E+00 0.  1.
          2    1    1    2  501    0 -0.82490901143E+02 -0.30017691367E+03  0.12790684818E+04  0.13164068936E+04  0.00000000000E+00 0.  1.
<mgrwt>
<rscale>  4 0.34021654E+03</rscale>
<asrwt>0</asrwt>
<pdfrwt beam="1">  1       21 0.26831986E-01 0.34021654E+03</pdfrwt>
<pdfrwt beam="2">  1        2 0.30098847E+00 0.34021654E+03</pdfrwt>
<totfact> 0.12463606E+03</totfact>
</mgrwt>
</event>
<event>
 5    0  0.3040647E+000  0.2108467E+03  0.7546771E-02  0.1140897E+00
         -1   -1    0    0    0  501 -0.00000000000E+00  0.00000000000E+00  0.84051776799E+02  0.84051776799E+02  0.00000000000E+00 0. -1.
         21   -1    0    0  501  502  0.00000000000E+00 -0.00000000000E+00 -0.17211879972E+04  0.17211879972E+04  0.00000000000E+00 0.  1.
         25    1    1    2    0    0 -0.21602946299E+03  0.63029101231E+02 -0.13226328690E+04  0.13474509648E+04  0.12500000000E+03 0.  0.
         21    1    1    2  503  502  0.66849883643E+02  0.93515916170E+01 -0.28052451964E+03  0.28853139401E+03  0.00000000000E+00 0.  1.
         -1    1    1    2    0  503  0.14917957935E+03 -0.72380692848E+02 -0.33978831822E+02  0.16925741521E+03  0.00000000000E+00 0. -1.
<mgrwt>
<rscale>  4 0.21084669E+03</rscale>
<asrwt>0</asrwt>
<pdfrwt beam="1">  1       21 0.26479812E+00 0.21084669E+03</pdfrwt>
<pdfrwt beam="2">  1       -1 0.12931044E-01 0.21084669E+03</pdfrwt>
<totfact> 0.19603408E+02</totfact>
</mgrwt>
</event>
<event>
 5    0  0.3040647E+000  0.2753462E+03  0.7546771E-02  0.1098258E+00
          1   -1    0    0  502    0 -0.00000000000E+00  0.00000000000E+00  0.27277100403E+04  0.27277100403E+04  0.00000000000E+00 0.  1.
         21   -1    0    0  503  502  0.00000000000E+00 -0.00000000000E+00 -0.13311802824E+03  0.13311802824E+03  0.00000000000E+00 0. -1.
         25    1    1    2    0    0 -0.26635938360E+03 -0.22606209913E+03  0.27402751553E+03  0.46126724701E+03  0.12500000000E+03 0.  0.
         21    1    1    2  503  501  0.26522911723E+02  0.19797349025E+03  0.27550341374E+03  0.34029266620E+03  0.00000000000E+00 0. -1.
          1    1    1    2  501    0  0.23983647188E+03  0.28088608882E+02  0.20450610828E+04  0.20592681553E+04  0.00000000000E+00 0.  1.
<mgrwt>
<rscale>  4 0.27534622E+03</rscale>
<asrwt>0</asrwt>
<pdfrwt beam="1">  1       21 0.20479699E-01 0.27534622E+03</pdfrwt>
<pdfrwt beam="2">  1        1 0.41964766E+00 0.27534622E+03</pdfrwt>
<totfact> 0.26856853E+02</totfact>
</mgrwt>
</event>
<event>
 5    0  0.3040647E+000  0.2520485E+03  0.7546771E-02  0.1112017E+00
         21   -1    0    0  503  502  0.00000000000E+00  0.00000000000E+00  0.10495618682E+03  0.10495618682E+03  0.00000000000E+00 0. -1.
          1   -1    0    0  502    0 -0.00000000000E+00 -0.00000000000E+00 -0.27454623618E+04  0.27454623618E+04  0.00000000000E+00 0. -1.
         25    1    1    2    0    0  0.55284017776E+02  0.21303280503E+03 -0.71860656204E+02  0.26311262332E+03  0.12500000000E+03 0.  0.
         21    1    1    2  503  501  0.51735459415E+02 -0.33125085412E+02 -0.19499652361E+03  0.20444430358E+03  0.00000000000E+00 0.  1.
          1    1    1    2  501    0 -0.10701947719E+03 -0.17990771961E+03 -0.23736489952E+04  0.23828616218E+04  0.00000000000E+00 0. -1.
<mgrwt>
<rscale>  4 0.25204849E+03</rscale>
<asrwt>0</asrwt>
<pdfrwt beam="1">  1       21 0.16147106E-01 0.25204849E+03</pdfrwt>
<pdfrwt beam="2">  1        1 0.42237881E+00 0.25204849E+03</pdfrwt>
<totfact> 0.41272308E+02</totfact>
</mgrwt>
</event>
<event>
 5    0  0.3040647E+000  0.2262352E+03  0.7546771E-02  0.1129318E+00
          2   -1    0    0  502    0 -0.00000000000E+00  0.00000000000E+00  0.36936508840E+04  0.36936508840E+04  0.00000000000E+00 0.  1.
         21   -1    0    0  503  502  0.00000000000E+00 -0.00000000000E+00 -0.10813585478E+03  0.10813585478E+03  0.00000000000E+00 0.  1.
         25    1    1    2    0    0  0.11688000554E+03  0.17307975292E+03  0.51701312755E+02  0.24882837922E+03  0.12500000000E+03 0.  0.
         21    1    1    2  503  501 -0.89897517973E+02 -0.91644414870E+02  0.45004439288E+03  0.46799595946E+03  0.00000000000E+00 0.  1.
          2    1    1    2  501    0 -0.26982487567E+02 -0.81435338051E+02  0.30837693236E+04  0.30849624001E+04  0.00000000000E+00 0.  1.
<mgrwt>
<rscale>  4 0.22623518E+03</rscale>
<asrwt>0</asrwt>
<pdfrwt beam="1">  1       21 0.16636288E-01 0.22623518E+03</pdfrwt>
<pdfrwt beam="2">  1        2 0.56825389E+00 0.22623518E+03</pdfrwt>
<totfact> 0.31440733E+02</totfact>
</mgrwt>
</event>
<event>
 5    0  0.3040647E+000  0.2066929E+03  0.7546771E-02  0.1144212E+00
          1   -1    0    0  502    0 -0.00000000000E+00  0.00000000000E+00  0.24060285347E+03  0.24060285347E+03  0.00000000000E+00 0.  1.
         21   -1    0    0  503  502  0.00000000000E+00 -0.00000000000E+00 -0.89779305126E+03  0.89779305126E+03  0.00000000000E+00 0.  1.
         25    1    1    2    0    0 -0.20780970947E+03  0.33432060160E+02 -0.53095671960E+03  0.58467308480E+03  0.12500000000E+03 0.  0.
         21    1    1    2  503  501  0.92106627364E+02  0.82960382881E+02 -0.29397993462E+03  0.31904585547E+03  0.00000000000E+00 0.  1.
          1    1    1    2  501    0  0.11570308211E+03 -0.11639244304E+03  0.16774645643E+03  0.23467696447E+03  0.00000000000E+00 0.  1.
<mgrwt>
<rscale>  4 0.20669287E+03</rscale>
<asrwt>0</asrwt>
<pdfrwt beam="1">  1       21 0.13812201E+00 0.20669287E+03</pdfrwt>
<pdfrwt beam="2">  1        1 0.37015824E-01 0.20669287E+03</pdfrwt>
<totfact> 0.46344713E+02</totfact>
</mgrwt>
</event>
<event>
 5    0  0.3040647E+000  0.1714110E+03  0.7546771E-02  0.1176384E+00
          2   -1    0    0  502    0 -0.00000000000E+00  0.00000000000E+00  0.21520934309E+04  0.21520934309E+04  0.00000000000E+00 0. -1.
         21   -1    0    0  503  502  0.00000000000E+00 -0.00000000000E+00 -0.57307843518E+03  0.57307843518E+03  0.00000000000E+00 0.  1.
         25    1    1    2    0    0  0.11041467452E+03  0.16942154669E+03 -0.72166679627E+02  0.24845138454E+03  0.12500000000E+03 0.  0.
         21    1    1    2  503  501 -0.28086101338E+02 -0.10723954976E+03 -0.40400885892E+03  0.41894189121E+03  0.00000000000E+00 0.  1.
          2    1    1    2  501    0 -0.82328573180E+02 -0.62181996926E+02  0.20551905343E+04  0.20577785904E+04  0.00000000000E+00 0. -1.
<mgrwt>
<rscale>  4 0.17141105E+03</rscale>
<asrwt>0</asrwt>
<pdfrwt beam="1">  1       21 0.88165915E-01 0.17141105E+03</pdfrwt>
<pdfrwt beam="2">  1        2 0.33109129E+00 0.17141105E+03</pdfrwt>
<totfact> 0.90569197E+01</totfact>
</mgrwt>
</event>
<event>
 5    0  0.3040647E+000  0.1738993E+03  0.7546771E-02  0.1173841E+00
         21   -1    0    0  503  502  0.00000000000E+00  0.00000000000E+00  0.13839707407E+03  0.13839707407E+03  0.00000000000E+00 0.  1.
          2   -1    0    0  502    0 -0.00000000000E+00 -0.00000000000E+00 -0.25502231873E+04  0.25502231873E+04  0.00000000000E+00 0.  1.
         25    1    1    2    0    0  0.22288815154E+03 -0.76545064155E+02 -0.20582552884E+04  0.20754705749E+04  0.12500000000E+03 0.  0.
         21    1    1    2  503  501 -0.10940518635E+03  0.47547399611E+02  0.93135729780E+02  0.15134237402E+03  0.00000000000E+00 0.  1.
          2    1    1    2  501    0 -0.11348296519E+03  0.28997664545E+02 -0.44670655463E+03  0.46180731251E+03  0.00000000000E+00 0.  1.
<mgrwt>
<rscale>  4 0.17389933E+03</rscale>
<asrwt>0</asrwt>
<pdfrwt beam="1">  1       21 0.21291859E-01 0.17389933E+03</pdfrwt>
<pdfrwt beam="2">  1        2 0.39234201E+00 0.17389933E+03</pdfrwt>
<totfact> 0.10263376E+03</totfact>
</mgrwt>
</event>
<event>
 5    0  0.3040647E+000  0.1737618E+03  0.7546771E-02  0.1173981E+00
         21   -1    0    0  503  502  0.00000000000E+00  0.00000000000E+00  0.12240581690E+03  0.12240581690E+03  0.00000000000E+00 0. -1.
          2   -1    0    0  502    0 -0.00000000000E+00 -0.00000000000E+00 -0.19885423464E+04  0.19885423464E+04  0.00000000000E+00 0. -1.
         25    1    1    2    0    0 -0.70702562112E+02 -0.19791407732E+03 -0.28901524634E+03  0.37858109687E+03  0.12500000000E+03 0.  0.
         21    1    1    2  503  501  0.14041818487E+02  0.95965679036E+02  0.44392181906E+02  0.10666419284E+03  0.00000000000E+00 0. -1.
          2    1    1    2  501    0  0.56660743625E+02  0.10194839828E+03 -0.16215134650E+04  0.16257028735E+04  0.00000000000E+00 0. -1.
<mgrwt>
<rscale>  4 0.17376176E+03</rscale>
<asrwt>0</asrwt>
<pdfrwt beam="1">  1       21 0.18831666E-01 0.17376176E+03</pdfrwt>
<pdfrwt beam="2">  1        2 0.30592956E+00 0.17376176E+03</pdfrwt>
<totfact> 0.25520300E+03</totfact>
</mgrwt>
</event>
<event>
 5    0  0.3040647E+000  0.3499830E+03  0.7546771E-02  0.1063228E+00
          2   -1    0    0  502    0 -0.00000000000E+00  0.00000000000E+00  0.42162070293E+04  0.42162070293E+04  0.00000000000E+00 0.  1.
         21   -1    0    0  503  502  0.00000000000E+00 -0.00000000000E+00 -0.19593631294E+03  0.19593631294E+03  0.00000000000E+00 0.  1.
         25    1    1    2    0    0 -0.27636389456E+03 -0.16256075703E+03  0.37379616732E+03  0.50808619018E+03  0.12500000000E+03 0.  0.
         21    1    1    2  503  501  0.32491664533E+03 -0.19232705524E+03  0.17851070092E+03  0.41764409841E+03  0.00000000000E+00 0.  1.
          2    1    1    2  501    0 -0.48552750770E+02  0.35488781227E+03  0.34679638481E+04  0.34864130537E+04  0.00000000000E+00 0.  1.
<mgrwt>
<rscale>  4 0.34851143E+03</rscale>
<asrwt>0</asrwt>
<pdfrwt beam="1">  1       21 0.30144051E-01 0.34998302E+03</pdfrwt>
<pdfrwt beam="2">  1        2 0.64864717E+00 0.34998302E+03</pdfrwt>
<totfact> 0.36986068E+01</totfact>
</mgrwt>
</event>
<event>
 5    0  0.3040647E+000  0.2268596E+03  0.7546771E-02  0.1128870E+00
         21   -1    0    0  503  502  0.00000000000E+00  0.00000000000E+00  0.30256868949E+03  0.30256868949E+03  0.00000000000E+00 0. -1.
          2   -1    0    0  502    0 -0.00000000000E+00 -0.00000000000E+00 -0.14664112826E+04  0.14664112826E+04  0.00000000000E+00 0.  1.
         25    1    1    2    0    0  0.47462825642E+02  0.20103135044E+03 -0.47767586259E+02  0.24611596042E+03  0.12500000000E+03 0.  0.
         21    1    1    2  503  501 -0.42139579662E+02 -0.17952884763E+03  0.16148023324E+03  0.24511674164E+03  0.00000000000E+00 0. -1.
          2    1    1    2  501    0 -0.53232459805E+01 -0.21502502806E+02 -0.12775552401E+04  0.12777472700E+04  0.00000000000E+00 0.  1.
<mgrwt>
<rscale>  4 0.22685959E+03</rscale>
<asrwt>0</asrwt>
<pdfrwt beam="1">  1       21 0.46549030E-01 0.22685959E+03</pdfrwt>
<pdfrwt beam="2">  1        2 0.22560173E+00 0.22685959E+03</pdfrwt>
<totfact> 0.79060782E+02</totfact>
</mgrwt>
</event>
<event>
 5    0  0.3040647E+000  0.2935046E+03  0.7546771E-02  0.1088533E+00
         -3   -1    0    0    0  501 -0.00000000000E+00  0.00000000000E+00  0.48776443609E+03  0.48776443609E+03  0.00000000000E+00 0.  1.
         21   -1    0    0  501  502  0.00000000000E+00 -0.00000000000E+00 -0.33786783373E+03  0.33786783373E+03  0.00000000000E+00 0. -1.
         25    1    1    2    0    0  0.11742833514E+03 -0.16360114005E+03 -0.86972160291E+02  0.25247555047E+03  0.12500000000E+03 0.  0.
         21    1    1    2  503  502 -0.17682630256E+02 -0.10675539470E+03 -0.87580169117E+02  0.13921090379E+03  0.00000000000E+00 0. -1.
         -3    1    1    2    0  503 -0.99745704885E+02  0.27035653474E+03  0.32444893176E+03  0.43394581556E+03  0.00000000000E+00 0.  1.
<mgrwt>
<rscale>  4 0.29350463E+03</rscale>
<asrwt>0</asrwt>
<pdfrwt beam="1">  1       21 0.51979666E-01 0.29350463E+03</pdfrwt>
<pdfrwt beam="2">  1       -3 0.75040683E-01 0.29350463E+03</pdfrwt>
<totfact> 0.29106165E+02</totfact>
</mgrwt>
</event>
<event>
 5    0  0.3040647E+000  0.1889105E+03  0.7546771E-02  0.1159448E+00
          2   -1    0    0  502    0 -0.00000000000E+00  0.00000000000E+00  0.12403943257E+04  0.12403943257E+04  0.00000000000E+00 0.  1.
         21   -1    0    0  503  502  0.00000000000E+00 -0.00000000000E+00 -0.42814853135E+03  0.42814853135E+03  0.00000000000E+00 0. -1.
         25    1    1    2    0    0 -0.10674482523E+03 -0.21770271942E+03  0.30730673638E+03  0.41091527349E+03  0.12500000000E+03 0.  0.
         21    1    1    2  503  501  0.89214895964E+02  0.10565521621E+03 -0.35981283260E+03  0.38547061740E+03  0.00000000000E+00 0. -1.
          2    1    1    2  501    0  0.17529929271E+02  0.11204750321E+03  0.86475189058E+03  0.87215696618E+03  0.00000000000E+00 0.  1.
<mgrwt>
<rscale>  4 0.18891047E+03</rscale>
<asrwt>0</asrwt>
<pdfrwt beam="1">  1       21 0.65869005E-01 0.18891047E+03</pdfrwt>
<pdfrwt beam="2">  1        2 0.19082990E+00 0.18891047E+03</pdfrwt>
<totfact> 0.51472898E+02</totfact>
</mgrwt>
</event>
<event>
 5    0  0.3040647E+000  0.2531674E+03  0.7546771E-02  0.1111319E+00
          2   -1    0    0  502    0 -0.00000000000E+00  0.00000000000E+00  0.77363323645E+03  0.77363323645E+03  0.00000000000E+00 0. -1.
         21   -1    0    0  503  502  0.00000000000E+00 -0.00000000000E+00 -0.33399995292E+03  0.33399995292E+03  0.00000000000E+00 0.  1.
         25    1    1    2    0    0  0.18808916482E+03  0.21895469112E+03  0.42031793720E+03  0.52498653222E+03  0.12500000000E+03 0.  0.
         21    1    1    2  503  501 -0.39128191310E+02 -0.11100137650E+03 -0.23848022856E+03  0.26594198682E+03  0.00000000000E+00 0.  1.
          2    1    1    2  501    0 -0.14896097351E+03 -0.10795331463E+03  0.25779557490E+03  0.31670467032E+03  0.00000000000E+00 0. -1.
<mgrwt>
<rscale>  4 0.25316743E+03</rscale>
<asrwt>0</asrwt>
<pdfrwt beam="1">  1       21 0.51384608E-01 0.25316743E+03</pdfrwt>
<pdfrwt beam="2">  1        2 0.11902050E+00 0.25316743E+03</pdfrwt>
<totfact> 0.16387952E+03</totfact>
</mgrwt>
</event>
<event>
 5    0  0.3040647E+000  0.2526393E+03  0.7546771E-02  0.1111648E+00
          2   -1    0    0  502    0 -0.00000000000E+00  0.00000000000E+00  0.18464360350E+04  0.18464360350E+04  0.00000000000E+00 0. -1.
         21   -1    0    0  503  502  0.00000000000E+00 -0.00000000000E+00 -0.91054962548E+03  0.91054962548E+03  0.00000000000E+00 0. -1.
         25    1    1    2    0    0  0.57302263659E+02  0.25215592776E+03 -0.78273048961E+03  0.83376146510E+03  0.12500000000E+03 0.  0.
         21    1    1    2  503  501  0.27323442183E+02 -0.49885545887E+02 -0.87218840779E+02  0.10412619444E+03  0.00000000000E+00 0. -1.
          2    1    1    2  501    0 -0.84625705843E+02 -0.20227038188E+03  0.18058357400E+04  0.18190980010E+04  0.00000000000E+00 0. -1.
<mgrwt>
<rscale>  4 0.25263931E+03</rscale>
<asrwt>0</asrwt>
<pdfrwt beam="1">  1       21 0.14008456E+00 0.25263931E+03</pdfrwt>
<pdfrwt beam="2">  1        2 0.28406708E+00 0.25263931E+03</pdfrwt>
<totfact> 0.38913640E+01</totfact>
</mgrwt>
</event>
<event>
 5    0  0.3040647E+000  0.3291931E+03  0.7546771E-02  0.1071494E+00
         21   -1    0    0  503  502  0.00000000000E+00  0.00000000000E+00  0.11486772956E+03  0.11486772956E+03  0.00000000000E+00 0. -1.
          1   -1    0    0  502    0 -0.00000000000E+00 -0.00000000000E+00 -0.11536441786E+04  0.11536441786E+04  0.00000000000E+00 0. -1.
         25    1    1    2    0    0 -0.14987243581E+03  0.24337503834E+03 -0.49507097200E+03  0.58516102367E+03  0.12500000000E+03 0.  0.
         21    1    1    2  503  501  0.12783159073E+03 -0.29220884031E+03 -0.31434785059E+03  0.44781859398E+03  0.00000000000E+00 0. -1.
          1    1    1    2  501    0  0.22040845085E+02  0.48833801966E+02 -0.22935762646E+03  0.23553229053E+03  0.00000000000E+00 0. -1.
<mgrwt>
<rscale>  4 0.32919306E+03</rscale>
<asrwt>0</asrwt>
<pdfrwt beam="1">  1       21 0.17671958E-01 0.32919306E+03</pdfrwt>
<pdfrwt beam="2">  1        1 0.17748372E+00 0.32919306E+03</pdfrwt>
<totfact> 0.38669911E+03</totfact>
</mgrwt>
</event>
<event>
 5    0  0.3040647E+000  0.3255962E+03  0.7546771E-02  0.1073102E+00
         21   -1    0    0  503  502  0.00000000000E+00  0.00000000000E+00  0.29537867022E+03  0.29537867022E+03  0.00000000000E+00 0.  1.
          2   -1    0    0  502    0 -0.00000000000E+00 -0.00000000000E+00 -0.13550619277E+04  0.13550619277E+04  0.00000000000E+00 0.  1.
         25    1    1    2    0    0  0.26765352969E+03  0.12996289626E+02  0.16878220899E+03  0.34046989525E+03  0.12500000000E+03 0.  0.
         21    1    1    2  503  501  0.30672585396E+02  0.41042842629E+02 -0.73277128390E+01  0.51759229142E+02  0.00000000000E+00 0. -1.
          2    1    1    2  501    0 -0.29832611508E+03 -0.54039132255E+02 -0.12211377536E+04  0.12582114735E+04  0.00000000000E+00 0.  1.
<mgrwt>
<rscale>  4 0.32559618E+03</rscale>
<asrwt>0</asrwt>
<pdfrwt beam="1">  1       21 0.45442873E-01 0.32559618E+03</pdfrwt>
<pdfrwt beam="2">  1        2 0.20847106E+00 0.32559618E+03</pdfrwt>
<totfact> 0.91173893E+02</totfact>
</mgrwt>
</event>
<event>
 5    0  0.3040647E+000  0.2246871E+03  0.7546771E-02  0.1130436E+00
          2   -1    0    0  502    0 -0.00000000000E+00  0.00000000000E+00  0.22509566247E+03  0.22509566247E+03  0.00000000000E+00 0.  1.
         21   -1    0    0  503  502  0.00000000000E+00 -0.00000000000E+00 -0.29627364636E+03  0.29627364636E+03  0.00000000000E+00 0. -1.
         25    1    1    2    0    0 -0.14074912082E+03  0.16888410400E+03 -0.88641701035E+02  0.26798228814E+03  0.12500000000E+03 0.  0.
         21    1    1    2  503  501  0.46674052018E+02 -0.20637218875E+02 -0.43980165188E+02  0.67369257564E+02  0.00000000000E+00 0. -1.
          2    1    1    2  501    0  0.94075068800E+02 -0.14824688512E+03  0.61443882337E+02  0.18601776312E+03  0.00000000000E+00 0.  1.
<mgrwt>
<rscale>  4 0.22468711E+03</rscale>
<asrwt>0</asrwt>
<pdfrwt beam="1">  1       21 0.45580560E-01 0.22468711E+03</pdfrwt>
<pdfrwt beam="2">  1        2 0.34630102E-01 0.22468711E+03</pdfrwt>
<totfact> 0.84625931E+03</totfact>
</mgrwt>
</event>
<event>
 5    0  0.3040647E+000  0.3782309E+03  0.7546771E-02  0.1051590E+00
          1   -1    0    0  502    0 -0.00000000000E+00  0.00000000000E+00  0.69449068988E+03  0.69449068988E+03  0.00000000000E+00 0. -1.
         21   -1    0    0  503  502  0.00000000000E+00 -0.00000000000E+00 -0.37058473999E+03  0.37058473999E+03  0.00000000000E+00 0. -1.
         25    1    1    2    0    0  0.18121307007E+03 -0.30361614410E+03  0.15248374973E+03  0.40484223305E+03  0.12500000000E+03 0.  0.
         21    1    1    2  503  501 -0.48836672942E+02 -0.32160966775E+02 -0.15992068650E+03  0.17027617091E+03  0.00000000000E+00 0. -1.
          1    1    1    2  501    0 -0.13237639713E+03  0.33577711088E+03  0.33134288667E+03  0.48995702592E+03  0.00000000000E+00 0. -1.
<mgrwt>
<rscale>  4 0.37823093E+03</rscale>
<asrwt>0</asrwt>
<pdfrwt beam="1">  1       21 0.57013037E-01 0.37823093E+03</pdfrwt>
<pdfrwt beam="2">  1        1 0.10684472E+00 0.37823093E+03</pdfrwt>
<totfact> 0.85233057E+02</totfact>
</mgrwt>
</event>
<event>
 5    0  0.3040647E+000  0.2435764E+03  0.7546771E-02  0.1117433E+00
         21   -1    0    0  501  502  0.00000000000E+00  0.00000000000E+00  0.23596177977E+03  0.23596177977E+03  0.00000000000E+00 0. -1.
         -1   -1    0    0    0  501 -0.00000000000E+00 -0.00000000000E+00 -0.30620218052E+03  0.30620218052E+03  0.00000000000E+00 0. -1.
         25    1    1    2    0    0 -0.46132901569E+02  0.20390245282E+03  0.10057102527E+03  0.26352226850E+03  0.12500000000E+03 0.  0.
         21    1    1    2  503  502  0.24350732912E+02 -0.10063147251E+03 -0.41048424702E+02  0.11137605049E+03  0.00000000000E+00 0. -1.
         -1    1    1    2    0  503  0.21782168657E+02 -0.10327098031E+03 -0.12976300132E+03  0.16726564129E+03  0.00000000000E+00 0. -1.
<mgrwt>
<rscale>  4 0.24357638E+03</rscale>
<asrwt>0</asrwt>
<pdfrwt beam="1">  1       21 0.36301812E-01 0.24357638E+03</pdfrwt>
<pdfrwt beam="2">  1       -1 0.47108028E-01 0.24357638E+03</pdfrwt>
<totfact> 0.30603527E+03</totfact>
</mgrwt>
</event>
<event>
 5    0  0.3040647E+000  0.1857434E+03  0.7546771E-02  0.1162357E+00
         -3   -1    0    0    0  501 -0.00000000000E+00  0.00000000000E+00  0.11016183192E+04  0.11016183192E+04  0.00000000000E+00 0.  1.
         21   -1    0    0  501  502  0.00000000000E+00 -0.00000000000E+00 -0.86303234520E+03  0.86303234520E+03  0.00000000000E+00 0.  1.
         25    1    1    2    0    0  0.50411065325E+02 -0.24048547365E+03  0.67580389087E+02  0.28384264573E+03  0.12500000000E+03 0.  0.
         21    1    1    2  503  502 -0.13818316267E+02  0.13304467774E+03 -0.74544751840E+03  0.75735317708E+03  0.00000000000E+00 0.  1.
         -3    1    1    2    0  503 -0.36592749058E+02  0.10744079591E+03  0.91645310335E+03  0.92345484164E+03  0.00000000000E+00 0.  1.
<mgrwt>
<rscale>  4 0.18574340E+03</rscale>
<asrwt>0</asrwt>
<pdfrwt beam="1">  1       21 0.13277421E+00 0.18574340E+03</pdfrwt>
<pdfrwt beam="2">  1       -3 0.16947974E+00 0.18574340E+03</pdfrwt>
<totfact> 0.51058333E+00</totfact>
</mgrwt>
</event>
<event>
 5    0  0.3040647E+000  0.2731346E+03  0.7546771E-02  0.1099499E+00
         21   -1    0    0  503  502  0.00000000000E+00  0.00000000000E+00  0.42878600987E+02  0.42878600987E+02  0.00000000000E+00 0.  1.
          2   -1    0    0  502    0 -0.00000000000E+00 -0.00000000000E+00 -0.20136825139E+04  0.20136825139E+04  0.00000000000E+00 0.  1.
         25    1    1    2    0    0  0.67115614756E+01  0.24276014598E+03 -0.14743880784E+04  0.14994741543E+04  0.12500000000E+03 0.  0.
         21    1    1    2  503  501  0.21404086183E+02 -0.30544433192E+02 -0.54350520284E+02  0.65917193201E+02  0.00000000000E+00 0. -1.
          2    1    1    2  501    0 -0.28115647658E+02 -0.21221571278E+03 -0.44206531419E+03  0.49116976740E+03  0.00000000000E+00 0.  1.
<mgrwt>
<rscale>  4 0.27313464E+03</rscale>
<asrwt>0</asrwt>
<pdfrwt beam="1">  1       21 0.65967085E-02 0.27313464E+03</pdfrwt>
<pdfrwt beam="2">  1        2 0.30979728E+00 0.27313464E+03</pdfrwt>
<totfact> 0.15468536E+04</totfact>
</mgrwt>
</event>
<event>
 5    0  0.3040647E+000  0.2491895E+03  0.7546771E-02  0.1113818E+00
         21   -1    0    0  503  502  0.00000000000E+00  0.00000000000E+00  0.26451638646E+03  0.26451638646E+03  0.00000000000E+00 0.  1.
          2   -1    0    0  502    0 -0.00000000000E+00 -0.00000000000E+00 -0.46470945195E+03  0.46470945195E+03  0.00000000000E+00 0.  1.
         25    1    1    2    0    0  0.25622405830E+02  0.21522639269E+03  0.75949331550E+02  0.26148079997E+03  0.12500000000E+03 0.  0.
         21    1    1    2  503  501 -0.26655497886E+02  0.38018770294E+00  0.61559227988E+02  0.67083520038E+02  0.00000000000E+00 0.  1.
          2    1    1    2  501    0  0.10330920567E+01 -0.21560658039E+03 -0.33770162502E+03  0.40066151841E+03  0.00000000000E+00 0.  1.
<mgrwt>
<rscale>  4 0.24918948E+03</rscale>
<asrwt>0</asrwt>
<pdfrwt beam="1">  1       21 0.40694829E-01 0.24918948E+03</pdfrwt>
<pdfrwt beam="2">  1        2 0.71493761E-01 0.24918948E+03</pdfrwt>
<totfact> 0.48334440E+03</totfact>
</mgrwt>
</event>
<event>
 5    0  0.3040647E+000  0.2755932E+03  0.7546771E-02  0.1098120E+00
          2   -1    0    0  502    0 -0.00000000000E+00  0.00000000000E+00  0.17762607105E+03  0.17762607105E+03  0.00000000000E+00 0.  1.
         21   -1    0    0  503  502  0.00000000000E+00 -0.00000000000E+00 -0.13265823974E+04  0.13265823974E+04  0.00000000000E+00 0. -1.
         25    1    1    2    0    0  0.21870634165E+03 -0.13943213590E+03 -0.10958326603E+04  0.11330260384E+04  0.12500000000E+03 0.  0.
         21    1    1    2  503  501 -0.16751358204E+03  0.12200979107E+03 -0.15300640050E+03  0.25760075287E+03  0.00000000000E+00 0. -1.
          2    1    1    2  501    0 -0.51192759612E+02  0.17422344825E+02  0.99882734461E+02  0.11358167713E+03  0.00000000000E+00 0.  1.
<mgrwt>
<rscale>  4 0.27559325E+03</rscale>
<asrwt>0</asrwt>
<pdfrwt beam="1">  1       21 0.20408959E+00 0.27559325E+03</pdfrwt>
<pdfrwt beam="2">  1        2 0.27327089E-01 0.27559325E+03</pdfrwt>
<totfact> 0.28585864E+02</totfact>
</mgrwt>
</event>
<event>
 5    0  0.3040647E+000  0.5550131E+03  0.7546771E-02  0.1000340E+00
         21   -1    0    0  503  502  0.00000000000E+00  0.00000000000E+00  0.11527527786E+04  0.11527527786E+04  0.00000000000E+00 0. -1.
          2   -1    0    0  502    0 -0.00000000000E+00 -0.00000000000E+00 -0.54610414901E+03  0.54610414901E+03  0.00000000000E+00 0.  1.
         25    1    1    2    0    0 -0.55120787739E+03 -0.11909441913E+03  0.75043673831E+03  0.94699202899E+03  0.12500000000E+03 0.  0.
         21    1    1    2  503  501  0.30340925197E+02 -0.90012686009E+01  0.14103824442E+03  0.14454542873E+03  0.00000000000E+00 0.  1.
          2    1    1    2  501    0  0.52086695220E+03  0.12809568773E+03 -0.28482635311E+03  0.60731946991E+03  0.00000000000E+00 0.  1.
<mgrwt>
<rscale>  4 0.55501309E+03</rscale>
<asrwt>0</asrwt>
<pdfrwt beam="1">  1       21 0.17734658E+00 0.55501309E+03</pdfrwt>
<pdfrwt beam="2">  1        2 0.84016023E-01 0.55501309E+03</pdfrwt>
<totfact> 0.11165716E+02</totfact>
</mgrwt>
</event>
<event>
 5    0  0.3040647E+000  0.2819002E+03  0.7546771E-02  0.1094656E+00
         21   -1    0    0  503  502  0.00000000000E+00  0.00000000000E+00  0.11891405373E+04  0.11891405373E+04  0.00000000000E+00 0.  1.
          2   -1    0    0  502    0 -0.00000000000E+00 -0.00000000000E+00 -0.99804614814E+02  0.99804614814E+02  0.00000000000E+00 0. -1.
         25    1    1    2    0    0 -0.23661921250E+03 -0.13962883540E+03  0.70613290461E+03  0.76794110606E+03  0.12500000000E+03 0.  0.
         21    1    1    2  503  501  0.43320766814E+02 -0.13220591464E+02  0.22190492828E+03  0.22648017589E+03  0.00000000000E+00 0.  1.
          2    1    1    2  501    0  0.19329844569E+03  0.15284942687E+03  0.16129808963E+03  0.29452387020E+03  0.00000000000E+00 0. -1.
<mgrwt>
<rscale>  4 0.28190024E+03</rscale>
<asrwt>0</asrwt>
<pdfrwt beam="1">  1       21 0.18294469E+00 0.28190024E+03</pdfrwt>
<pdfrwt beam="2">  1        2 0.15354557E-01 0.28190024E+03</pdfrwt>
<totfact> 0.76466139E+02</totfact>
</mgrwt>
</event>
<event>
 5    0  0.3040647E+000  0.3048037E+03  0.7546771E-02  0.1082864E+00
         21   -1    0    0  501  502  0.00000000000E+00  0.00000000000E+00  0.15272112373E+03  0.15272112373E+03  0.00000000000E+00 0. -1.
         -2   -1    0    0    0  501 -0.00000000000E+00 -0.00000000000E+00 -0.15533057581E+04  0.15533057581E+04  0.00000000000E+00 0. -1.
         25    1    1    2    0    0 -0.23097202632E+03 -0.15682234320E+02 -0.37665810296E+03  0.45944568334E+03  0.12500000000E+03 0.  0.
         21    1    1    2  503  502 -0.69040928012E+02 -0.31595081513E+01  0.78101454714E+02  0.10429031336E+03  0.00000000000E+00 0. -1.
         -2    1    1    2    0  503  0.30001295433E+03  0.18841742471E+02 -0.11020279862E+04  0.11422908851E+04  0.00000000000E+00 0. -1.
<mgrwt>
<rscale>  4 0.30480366E+03</rscale>
<asrwt>0</asrwt>
<pdfrwt beam="1">  1       21 0.23495558E-01 0.30480366E+03</pdfrwt>
<pdfrwt beam="2">  1       -2 0.23897011E+00 0.30480366E+03</pdfrwt>
<totfact> 0.11281879E+02</totfact>
</mgrwt>
</event>
<event>
 5    0  0.3040647E+000  0.2783726E+03  0.7546771E-02  0.1096581E+00
         -3   -1    0    0    0  501 -0.00000000000E+00  0.00000000000E+00  0.41631254320E+03  0.41631254320E+03  0.00000000000E+00 0.  1.
         21   -1    0    0  501  502  0.00000000000E+00 -0.00000000000E+00 -0.38140766399E+03  0.38140766399E+03  0.00000000000E+00 0.  1.
         25    1    1    2    0    0  0.27145726258E+03 -0.11068662815E+03 -0.10638000595E+03  0.33597958379E+03  0.12500000000E+03 0.  0.
         21    1    1    2  503  502 -0.36561222206E+02  0.63093629711E+02 -0.98606067031E+02  0.12264047266E+03  0.00000000000E+00 0.  1.
         -3    1    1    2    0  503 -0.23489604038E+03  0.47592998435E+02  0.23989095220E+03  0.33910015074E+03  0.00000000000E+00 0.  1.
<mgrwt>
<rscale>  4 0.27837265E+03</rscale>
<asrwt>0</asrwt>
<pdfrwt beam="1">  1       21 0.58678103E-01 0.27837265E+03</pdfrwt>
<pdfrwt beam="2">  1       -3 0.64048083E-01 0.27837265E+03</pdfrwt>
<totfact> 0.31643250E+02</totfact>
</mgrwt>
</event>
<event>
 5    0  0.3040647E+000  0.2082085E+03  0.7546771E-02  0.1142993E+00
         21   -1    0    0  503  502  0.00000000000E+00  0.00000000000E+00  0.12114343525E+03  0.12114343525E+03  0.00000000000E+00 0.  1.
          2   -1    0    0  502    0 -0.00000000000E+00 -0.00000000000E+00 -0.20066320333E+04  0.20066320333E+04  0.00000000000E+00 0. -1.
         25    1    1    2    0    0 -0.23872509020E+00  0.26500414295E+03 -0.30657336305E+03  0.42407485153E+03  0.12500000000E+03 0.  0.
         21    1    1    2  503  501  0.61916965171E+02 -0.13257818006E+03 -0.31845735175E+02  0.14974924124E+03  0.00000000000E+00 0.  1.
          2    1    1    2  501    0 -0.61678240081E+02 -0.13242596289E+03 -0.15470694998E+04  0.15539513758E+04  0.00000000000E+00 0. -1.
<mgrwt>
<rscale>  4 0.20820851E+03</rscale>
<asrwt>0</asrwt>
<pdfrwt beam="1">  1       21 0.18637452E-01 0.20820851E+03</pdfrwt>
<pdfrwt beam="2">  1        2 0.30871261E+00 0.20820851E+03</pdfrwt>
<totfact> 0.24936820E+03</totfact>
</mgrwt>
</event>
<event>
 5    0  0.3040647E+000  0.3380155E+03  0.7546771E-02  0.1067644E+00
          1   -1    0    0  502    0 -0.00000000000E+00  0.00000000000E+00  0.49107765695E+03  0.49107765695E+03  0.00000000000E+00 0.  1.
         21   -1    0    0  503  502  0.00000000000E+00 -0.00000000000E+00 -0.64343674516E+03  0.64343674516E+03  0.00000000000E+00 0.  1.
         25    1    1    2    0    0  0.34813539656E+03 -0.52375907626E+02 -0.34224590598E+03  0.50665446825E+03  0.12500000000E+03 0.  0.
         21    1    1    2  503  501 -0.43234549398E+02  0.34729020534E+01 -0.15732619087E+03  0.16319564223E+03  0.00000000000E+00 0.  1.
          1    1    1    2  501    0 -0.30490084716E+03  0.48903005572E+02  0.34721300863E+03  0.46466429163E+03  0.00000000000E+00 0.  1.
<mgrwt>
<rscale>  4 0.33801549E+03</rscale>
<asrwt>0</asrwt>
<pdfrwt beam="1">  1       21 0.98990267E-01 0.33801549E+03</pdfrwt>
<pdfrwt beam="2">  1        1 0.75550410E-01 0.33801549E+03</pdfrwt>
<totfact> 0.40009838E+02</totfact>
</mgrwt>
</event>
<event>
 5    0  0.3040647E+000  0.3372202E+03  0.7546771E-02  0.1067986E+00
          2   -1    0    0  502    0 -0.00000000000E+00  0.00000000000E+00  0.22670962214E+04  0.22670962214E+04  0.00000000000E+00 0.  1.
         21   -1    0    0  503  502  0.00000000000E+00 -0.00000000000E+00 -0.67790627017E+02  0.67790627017E+02  0.00000000000E+00 0.  1.
         25    1    1    2    0    0  0.19942777027E+03  0.22200316897E+03  0.99299099196E+03  0.10443720375E+04  0.12500000000E+03 0.  0.
         21    1    1    2  503  501  0.81281660843E+02 -0.42926758920E+02  0.10299841920E+03  0.13805103904E+03  0.00000000000E+00 0. -1.
          2    1    1    2  501    0 -0.28070943111E+03 -0.17907641005E+03  0.11033161833E+04  0.11524637719E+04  0.00000000000E+00 0.  1.
<mgrwt>
<rscale>  4 0.33722018E+03</rscale>
<asrwt>0</asrwt>
<pdfrwt beam="1">  1       21 0.10429329E-01 0.33722018E+03</pdfrwt>
<pdfrwt beam="2">  1        2 0.34878398E+00 0.33722018E+03</pdfrwt>
<totfact> 0.49592374E+03</totfact>
</mgrwt>
</event>
<event>
 5    0  0.3040647E+000  0.2880198E+03  0.7546771E-02  0.1091388E+00
         21   -1    0    0  503  502  0.00000000000E+00  0.00000000000E+00  0.19506825163E+03  0.19506825163E+03  0.00000000000E+00 0.  1.
          2   -1    0    0  502    0 -0.00000000000E+00 -0.00000000000E+00 -0.20798579476E+04  0.20798579476E+04  0.00000000000E+00 0. -1.
         25    1    1    2    0    0 -0.18199769269E+03  0.13362375407E+03 -0.26441707083E+02  0.25942750754E+03  0.12500000000E+03 0.  0.
         21    1    1    2  503  501 -0.27635583665E+02  0.23618508863E+02  0.64949321293E+02  0.74431000140E+02  0.00000000000E+00 0.  1.
          2    1    1    2  501    0  0.20963327635E+03 -0.15724226293E+03 -0.19232973102E+04  0.19410676915E+04  0.00000000000E+00 0. -1.
<mgrwt>
<rscale>  4 0.28801976E+03</rscale>
<asrwt>0</asrwt>
<pdfrwt beam="1">  1       21 0.30010500E-01 0.28801976E+03</pdfrwt>
<pdfrwt beam="2">  1        2 0.31997815E+00 0.28801976E+03</pdfrwt>
<totfact> 0.88063001E+02</totfact>
</mgrwt>
</event>
<event>
 5    0  0.3040647E+000  0.3062849E+03  0.7546771E-02  0.1082140E+00
         21   -1    0    0  503  502  0.00000000000E+00  0.00000000000E+00  0.47372323295E+03  0.47372323295E+03  0.00000000000E+00 0.  1.
          4   -1    0    0  502    0 -0.00000000000E+00 -0.00000000000E+00 -0.20629661493E+03  0.20629661493E+03  0.00000000000E+00 0.  1.
         25    1    1    2    0    0 -0.14207024174E+02 -0.27925539747E+03  0.23401557164E+03  0.38545259673E+03  0.12500000000E+03 0.  0.
         21    1    1    2  503  501  0.24869622765E+02  0.31514160552E+02  0.23242888043E+02  0.46388277575E+02  0.00000000000E+00 0. -1.
          4    1    1    2  501    0 -0.10662598591E+02  0.24774123692E+03  0.10168158331E+02  0.24817897357E+03  0.00000000000E+00 0.  1.
<mgrwt>
<rscale>  4 0.30628486E+03</rscale>
<asrwt>0</asrwt>
<pdfrwt beam="1">  1       21 0.72880497E-01 0.30628486E+03</pdfrwt>
<pdfrwt beam="2">  1        4 0.31737941E-01 0.30628486E+03</pdfrwt>
<totfact> 0.67475999E+02</totfact>
</mgrwt>
</event>
<event>
 5    0  0.3040647E+000  0.2358812E+03  0.7546771E-02  0.1122567E+00
         -4   -1    0    0    0  501 -0.00000000000E+00  0.00000000000E+00  0.10556785426E+04  0.10556785426E+04  0.00000000000E+00 0.  1.
         21   -1    0    0  501  502  0.00000000000E+00 -0.00000000000E+00 -0.61429851959E+02  0.61429851959E+02  0.00000000000E+00 0.  1.
         25    1    1    2    0    0 -0.31287947579E+02  0.19757528699E+03  0.77401045798E+03  0.80915518830E+03  0.12500000000E+03 0.  0.
         21    1    1    2  503  502  0.58139098874E+02 -0.13350548987E+03  0.14348798479E+03  0.20443256204E+03  0.00000000000E+00 0.  1.
         -4    1    1    2    0  503 -0.26851151295E+02 -0.64069797120E+02  0.76750247816E+02  0.10352064417E+03  0.00000000000E+00 0.  1.
<mgrwt>
<rscale>  4 0.23588118E+03</rscale>
<asrwt>0</asrwt>
<pdfrwt beam="1">  1       21 0.94507472E-02 0.23588118E+03</pdfrwt>
<pdfrwt beam="2">  1       -4 0.16241207E+00 0.23588118E+03</pdfrwt>
<totfact> 0.97311248E+02</totfact>
</mgrwt>
</event>
<event>
 5    0  0.3040647E+000  0.2306423E+03  0.7546771E-02  0.1126188E+00
          1   -1    0    0  502    0 -0.00000000000E+00  0.00000000000E+00  0.26162516144E+04  0.26162516144E+04  0.00000000000E+00 0.  1.
         21   -1    0    0  503  502  0.00000000000E+00 -0.00000000000E+00 -0.10806140093E+03  0.10806140093E+03  0.00000000000E+00 0.  1.
         25    1    1    2    0    0 -0.83871535933E+02  0.24103251836E+03  0.14735081388E+03  0.32010681311E+03  0.12500000000E+03 0.  0.
         21    1    1    2  503  501 -0.75845090772E+01 -0.73163646857E+02  0.58602441971E+02  0.94046213131E+02  0.00000000000E+00 0.  1.
          1    1    1    2  501    0  0.91456045010E+02 -0.16786887151E+03  0.23022369576E+04  0.23101599891E+04  0.00000000000E+00 0.  1.
<mgrwt>
<rscale>  4 0.23064235E+03</rscale>
<asrwt>0</asrwt>
<pdfrwt beam="1">  1       21 0.16624833E-01 0.23064235E+03</pdfrwt>
<pdfrwt beam="2">  1        1 0.40250020E+00 0.23064235E+03</pdfrwt>
<totfact> 0.48445152E+02</totfact>
</mgrwt>
</event>
<event>
 5    0  0.3040647E+000  0.2481282E+03  0.7546771E-02  0.1114494E+00
          2   -1    0    0  502    0 -0.00000000000E+00  0.00000000000E+00  0.22942998775E+04  0.22942998775E+04  0.00000000000E+00 0.  1.
         21   -1    0    0  503  502  0.00000000000E+00 -0.00000000000E+00 -0.28041674864E+02  0.28041674864E+02  0.00000000000E+00 0.  1.
         25    1    1    2    0    0  0.42056238425E+02  0.22130478463E+03  0.11857615327E+04  0.12134248832E+04  0.12500000000E+03 0.  0.
         21    1    1    2  503  501  0.10258926166E+02 -0.21428659244E+02  0.29862768427E+02  0.38160423755E+02  0.00000000000E+00 0. -1.
          2    1    1    2  501    0 -0.52315164591E+02 -0.19987612539E+03  0.10506339015E+04  0.10707562453E+04  0.00000000000E+00 0.  1.
<mgrwt>
<rscale>  4 0.24812818E+03</rscale>
<asrwt>0</asrwt>
<pdfrwt beam="1">  1       21 0.43141056E-02 0.24812818E+03</pdfrwt>
<pdfrwt beam="2">  1        2 0.35296906E+00 0.24812818E+03</pdfrwt>
<totfact> 0.22894207E+04</totfact>
</mgrwt>
</event>
<event>
 5    0  0.3040647E+000  0.8408273E+03  0.7546771E-02  0.9502732E-01
         21   -1    0    0  503  502  0.00000000000E+00  0.00000000000E+00  0.19211753860E+04  0.19211753860E+04  0.00000000000E+00 0. -1.
          2   -1    0    0  502    0 -0.00000000000E+00 -0.00000000000E+00 -0.31015353286E+04  0.31015353286E+04  0.00000000000E+00 0.  1.
         25    1    1    2    0    0 -0.69666769060E+03  0.43424083454E+03  0.15561465048E+04  0.17638389717E+04  0.12500000000E+03 0.  0.
         21    1    1    2  503  501  0.11346474373E+02  0.37308508300E+02  0.20156477584E+03  0.20530227990E+03  0.00000000000E+00 0. -1.
          2    1    1    2  501    0  0.68532121623E+03 -0.47154934284E+03 -0.29380712233E+04  0.30535694630E+04  0.00000000000E+00 0.  1.
<mgrwt>
<rscale>  4 0.84082733E+03</rscale>
<asrwt>0</asrwt>
<pdfrwt beam="1">  1       21 0.29556544E+00 0.84082733E+03</pdfrwt>
<pdfrwt beam="2">  1        2 0.47715928E+00 0.84082733E+03</pdfrwt>
<totfact> 0.50157789E-01</totfact>
</mgrwt>
</event>
<event>
 5    0  0.3040647E+000  0.2186761E+03  0.7546771E-02  0.1134874E+00
         21   -1    0    0  503  502  0.00000000000E+00  0.00000000000E+00  0.22817350120E+03  0.22817350120E+03  0.00000000000E+00 0.  1.
          1   -1    0    0  502    0 -0.00000000000E+00 -0.00000000000E+00 -0.79811001329E+03  0.79811001329E+03  0.00000000000E+00 0.  1.
         25    1    1    2    0    0  0.89864130914E+02  0.21524523074E+03  0.98383747718E+02  0.28233036180E+03  0.12500000000E+03 0.  0.
         21    1    1    2  503  501 -0.42794393842E+02 -0.45398485888E+02 -0.10920746272E+02  0.63337550982E+02  0.00000000000E+00 0. -1.
          1    1    1    2  501    0 -0.47069737072E+02 -0.16984674485E+03 -0.65739951354E+03  0.68061560170E+03  0.00000000000E+00 0.  1.
<mgrwt>
<rscale>  4 0.21867612E+03</rscale>
<asrwt>0</asrwt>
<pdfrwt beam="1">  1       21 0.35103615E-01 0.21867612E+03</pdfrwt>
<pdfrwt beam="2">  1        1 0.12278616E+00 0.21867612E+03</pdfrwt>
<totfact> 0.19981748E+03</totfact>
</mgrwt>
</event>
<event>
 5    0  0.3040647E+000  0.2646061E+03  0.7546771E-02  0.1104407E+00
          2   -1    0    0  502    0 -0.00000000000E+00  0.00000000000E+00  0.73873343510E+03  0.73873343510E+03  0.00000000000E+00 0. -1.
         21   -1    0    0  503  502  0.00000000000E+00 -0.00000000000E+00 -0.12068805715E+03  0.12068805715E+03  0.00000000000E+00 0. -1.
         25    1    1    2    0    0  0.95197702519E+02 -0.18061902017E+03  0.46637122403E+03  0.52422605011E+03  0.12500000000E+03 0.  0.
         21    1    1    2  503  501 -0.14187440595E+03  0.19919652814E+03  0.10337913337E+03  0.26550866107E+03  0.00000000000E+00 0. -1.
          2    1    1    2  501    0  0.46676703433E+02 -0.18577507973E+02  0.48295020555E+02  0.69686781073E+02  0.00000000000E+00 0. -1.
<mgrwt>
<rscale>  4 0.26460607E+03</rscale>
<asrwt>0</asrwt>
<pdfrwt beam="1">  1       21 0.18567394E-01 0.26460607E+03</pdfrwt>
<pdfrwt beam="2">  1        2 0.11365130E+00 0.26460607E+03</pdfrwt>
<totfact> 0.12926139E+04</totfact>
</mgrwt>
</event>
<event>
 5    0  0.3040647E+000  0.2337067E+03  0.7546771E-02  0.1124058E+00
          1   -1    0    0  502    0 -0.00000000000E+00  0.00000000000E+00  0.96681237648E+03  0.96681237648E+03  0.00000000000E+00 0.  1.
         21   -1    0    0  503  502  0.00000000000E+00 -0.00000000000E+00 -0.10585235794E+03  0.10585235794E+03  0.00000000000E+00 0.  1.
         25    1    1    2    0    0  0.21540524749E+03 -0.21945713578E+02  0.12291423146E+03  0.27859279116E+03  0.12500000000E+03 0.  0.
         21    1    1    2  503  501 -0.16972859248E+03  0.25636623139E+02  0.24640796169E+03  0.30030303884E+03  0.00000000000E+00 0.  1.
          1    1    1    2  501    0 -0.45676655008E+02 -0.36909095613E+01  0.49163782538E+03  0.49376890442E+03  0.00000000000E+00 0.  1.
<mgrwt>
<rscale>  4 0.23370673E+03</rscale>
<asrwt>0</asrwt>
<pdfrwt beam="1">  1       21 0.16284979E-01 0.23370673E+03</pdfrwt>
<pdfrwt beam="2">  1        1 0.14874036E+00 0.23370673E+03</pdfrwt>
<totfact> 0.63385072E+03</totfact>
</mgrwt>
</event>
<event>
 5    0  0.3040647E+000  0.2508532E+03  0.7546771E-02  0.1112767E+00
         21   -1    0    0  503  502  0.00000000000E+00  0.00000000000E+00  0.18771313770E+03  0.18771313770E+03  0.00000000000E+00 0.  1.
          1   -1    0    0  502    0 -0.00000000000E+00 -0.00000000000E+00 -0.31449717051E+03  0.31449717051E+03  0.00000000000E+00 0.  1.
         25    1    1    2    0    0  0.21244601293E+03  0.46572965105E+02 -0.12542735766E+03  0.28046278103E+03  0.12500000000E+03 0.  0.
         21    1    1    2  503  501 -0.26519461386E+02 -0.17673376331E+02  0.95599607770E+01  0.33271953853E+02  0.00000000000E+00 0.  1.
          1    1    1    2  501    0 -0.18592655155E+03 -0.28899588773E+02 -0.10916635926E+02  0.18847557333E+03  0.00000000000E+00 0.  1.
<mgrwt>
<rscale>  4 0.25085324E+03</rscale>
<asrwt>0</asrwt>
<pdfrwt beam="1">  1       21 0.28878945E-01 0.25085324E+03</pdfrwt>
<pdfrwt beam="2">  1        1 0.48384180E-01 0.25085324E+03</pdfrwt>
<totfact> 0.10244266E+04</totfact>
</mgrwt>
</event>
<event>
 5    0  0.3040647E+000  0.2416924E+03  0.7546771E-02  0.1118671E+00
         -2   -1    0    0    0  501 -0.00000000000E+00  0.00000000000E+00  0.58242529597E+03  0.58242529597E+03  0.00000000000E+00 0. -1.
         21   -1    0    0  501  502  0.00000000000E+00 -0.00000000000E+00 -0.13831104061E+03  0.13831104061E+03  0.00000000000E+00 0. -1.
         25    1    1    2    0    0 -0.16821853282E+03  0.13515420506E+03  0.38892147323E+03  0.46200546129E+03  0.12500000000E+03 0.  0.
         21    1    1    2  503  502  0.16114365062E+02 -0.17684789681E+02 -0.38185993322E+02  0.45062119717E+02  0.00000000000E+00 0. -1.
         -2    1    1    2    0  503  0.15210416776E+03 -0.11746941538E+03  0.93378775463E+02  0.21366875557E+03  0.00000000000E+00 0. -1.
<mgrwt>
<rscale>  4 0.24169239E+03</rscale>
<asrwt>0</asrwt>
<pdfrwt beam="1">  1       21 0.21278622E-01 0.24169239E+03</pdfrwt>
<pdfrwt beam="2">  1       -2 0.89603890E-01 0.24169239E+03</pdfrwt>
<totfact> 0.18396954E+03</totfact>
</mgrwt>
</event>
<event>
 5    0  0.3040647E+000  0.2621670E+03  0.7546771E-02  0.1105848E+00
          2   -1    0    0  502    0 -0.00000000000E+00  0.00000000000E+00  0.33045032605E+04  0.33045032605E+04  0.00000000000E+00 0.  1.
         21   -1    0    0  503  502  0.00000000000E+00 -0.00000000000E+00 -0.50332709422E+02  0.50332709422E+02  0.00000000000E+00 0.  1.
         25    1    1    2    0    0  0.64038582368E+02  0.25864118828E+03  0.60655777358E+03  0.67419102412E+03  0.12500000000E+03 0.  0.
         21    1    1    2  503  501  0.17064134592E+02 -0.48214485701E+02  0.44536526932E+02  0.67818312806E+02  0.00000000000E+00 0.  1.
          2    1    1    2  501    0 -0.81102716960E+02 -0.21042670258E+03  0.26030762506E+04  0.26128266330E+04  0.00000000000E+00 0.  1.
<mgrwt>
<rscale>  4 0.26216698E+03</rscale>
<asrwt>0</asrwt>
<pdfrwt beam="1">  1       21 0.77434963E-02 0.26216698E+03</pdfrwt>
<pdfrwt beam="2">  1        2 0.50838495E+00 0.26216698E+03</pdfrwt>
<totfact> 0.21855565E+03</totfact>
</mgrwt>
</event>
<event>
 5    0  0.3040647E+000  0.3121210E+03  0.7546771E-02  0.1079334E+00
         -4   -1    0    0    0  501 -0.00000000000E+00  0.00000000000E+00  0.41677484296E+03  0.41677484296E+03  0.00000000000E+00 0.  1.
         21   -1    0    0  501  502  0.00000000000E+00 -0.00000000000E+00 -0.41569911224E+03  0.41569911224E+03  0.00000000000E+00 0. -1.
         25    1    1    2    0    0  0.26261649491E+03  0.18138231284E+03  0.32983439699E+02  0.34435428573E+03  0.12500000000E+03 0.  0.
         21    1    1    2  503  502 -0.37255283727E+02 -0.34717973099E+02 -0.17588966342E+03  0.18311326419E+03  0.00000000000E+00 0. -1.
         -4    1    1    2    0  503 -0.22536121118E+03 -0.14666433974E+03  0.14398195445E+03  0.30500640528E+03  0.00000000000E+00 0.  1.
<mgrwt>
<rscale>  4 0.31212102E+03</rscale>
<asrwt>0</asrwt>
<pdfrwt beam="1">  1       21 0.63953710E-01 0.31212102E+03</pdfrwt>
<pdfrwt beam="2">  1       -4 0.64119206E-01 0.31212102E+03</pdfrwt>
<totfact> 0.21472728E+02</totfact>
</mgrwt>
</event>
<event>
 5    0  0.3040647E+000  0.2681744E+03  0.7546771E-02  0.1102329E+00
         21   -1    0    0  501  502  0.00000000000E+00  0.00000000000E+00  0.66779092907E+03  0.66779092907E+03  0.00000000000E+00 0. -1.
         -2   -1    0    0    0  501 -0.00000000000E+00 -0.00000000000E+00 -0.13482789707E+03  0.13482789707E+03  0.00000000000E+00 0. -1.
         25    1    1    2    0    0 -0.12832000589E+03 -0.17501659817E+03  0.38474160153E+03  0.45907290652E+03  0.12500000000E+03 0.  0.
         21    1    1    2  503  502 -0.24748604812E+02 -0.16116009370E+02  0.85948356008E+02  0.90880906128E+02  0.00000000000E+00 0. -1.
         -2    1    1    2    0  503  0.15306861070E+03  0.19113260754E+03  0.62273074457E+02  0.25266501350E+03  0.00000000000E+00 0. -1.
<mgrwt>
<rscale>  4 0.26817438E+03</rscale>
<asrwt>0</asrwt>
<pdfrwt beam="1">  1       21 0.10273706E+00 0.26817438E+03</pdfrwt>
<pdfrwt beam="2">  1       -2 0.20742754E-01 0.26817438E+03</pdfrwt>
<totfact> 0.11776434E+03</totfact>
</mgrwt>
</event>
<event>
 5    0  0.3040647E+000  0.2480856E+03  0.7546771E-02  0.1114521E+00
         21   -1    0    0  501  502  0.00000000000E+00  0.00000000000E+00  0.52511091153E+03  0.52511091153E+03  0.00000000000E+00 0. -1.
         -1   -1    0    0    0  501 -0.00000000000E+00 -0.00000000000E+00 -0.55662105486E+03  0.55662105486E+03  0.00000000000E+00 0.  1.
         25    1    1    2    0    0 -0.33908703739E+02 -0.20326224757E+03  0.29331529203E+03  0.37963693447E+03  0.12500000000E+03 0.  0.
         21    1    1    2  503  502  0.29306537953E+02 -0.11667110883E+02  0.16456894285E+03  0.16756470867E+03  0.00000000000E+00 0.  1.
         -1    1    1    2    0  503  0.46021657864E+01  0.21492935845E+03 -0.48939437820E+03  0.53453032325E+03  0.00000000000E+00 0.  1.
<mgrwt>
<rscale>  4 0.24808559E+03</rscale>
<asrwt>0</asrwt>
<pdfrwt beam="1">  1       21 0.80786294E-01 0.24808559E+03</pdfrwt>
<pdfrwt beam="2">  1       -1 0.85634008E-01 0.24808559E+03</pdfrwt>
<totfact> 0.17234579E+02</totfact>
</mgrwt>
</event>
<event>
 5    0  0.3040647E+000  0.1901441E+03  0.7546771E-02  0.1158331E+00
         21   -1    0    0  503  502  0.00000000000E+00  0.00000000000E+00  0.24175591281E+04  0.24175591281E+04  0.00000000000E+00 0.  1.
          2   -1    0    0  502    0 -0.00000000000E+00 -0.00000000000E+00 -0.29660103004E+03  0.29660103004E+03  0.00000000000E+00 0.  1.
         25    1    1    2    0    0 -0.52611712725E+01  0.20298162580E+03 -0.27169006745E+01  0.23845670861E+03  0.12500000000E+03 0.  0.
         21    1    1    2  503  501  0.26917956450E+01 -0.14216491207E+03  0.22921567485E+04  0.22965627942E+04  0.00000000000E+00 0.  1.
          2    1    1    2  501    0  0.25693756275E+01 -0.60816713729E+02 -0.16848174980E+03  0.17914065528E+03  0.00000000000E+00 0.  1.
<mgrwt>
<rscale>  4 0.19014413E+03</rscale>
<asrwt>0</asrwt>
<pdfrwt beam="1">  1       21 0.37193216E+00 0.19014413E+03</pdfrwt>
<pdfrwt beam="2">  1        2 0.45630929E-01 0.19014413E+03</pdfrwt>
<totfact> 0.17834331E+01</totfact>
</mgrwt>
</event>
<event>
 5    0  0.3040647E+000  0.2619948E+03  0.7546771E-02  0.1105951E+00
         21   -1    0    0  503  502  0.00000000000E+00  0.00000000000E+00  0.19924820080E+03  0.19924820080E+03  0.00000000000E+00 0. -1.
          1   -1    0    0  502    0 -0.00000000000E+00 -0.00000000000E+00 -0.98126518692E+03  0.98126518692E+03  0.00000000000E+00 0.  1.
         25    1    1    2    0    0  0.21868713725E+03 -0.30277434098E+02  0.49251246143E+02  0.25844046173E+03  0.12500000000E+03 0.  0.
         21    1    1    2  503  501  0.80960001947E+02  0.35561081509E+01 -0.84953238084E+02  0.11740621994E+03  0.00000000000E+00 0. -1.
          1    1    1    2  501    0 -0.29964713920E+03  0.26721325947E+02 -0.74631499417E+03  0.80466670605E+03  0.00000000000E+00 0.  1.
<mgrwt>
<rscale>  4 0.26199478E+03</rscale>
<asrwt>0</asrwt>
<pdfrwt beam="1">  1       21 0.30653569E-01 0.26199478E+03</pdfrwt>
<pdfrwt beam="2">  1        1 0.15096388E+00 0.26199478E+03</pdfrwt>
<totfact> 0.18396463E+03</totfact>
</mgrwt>
</event>
<event>
 5    0  0.3040647E+000  0.2852299E+03  0.7546771E-02  0.1092866E+00
          2   -1    0    0  502    0 -0.00000000000E+00  0.00000000000E+00  0.24666729258E+04  0.24666729258E+04  0.00000000000E+00 0.  1.
         21   -1    0    0  503  502  0.00000000000E+00 -0.00000000000E+00 -0.20767925333E+03  0.20767925333E+03  0.00000000000E+00 0. -1.
         25    1    1    2    0    0 -0.74567990267E+00 -0.21542178944E+03 -0.10508165904E+03  0.27032250826E+03  0.12500000000E+03 0.  0.
         21    1    1    2  503  501  0.19476407552E+02 -0.41850408686E+02  0.28493804116E+02  0.54246511697E+02  0.00000000000E+00 0. -1.
          2    1    1    2  501    0 -0.18730727649E+02  0.25727219812E+03  0.23355815274E+04  0.23497831592E+04  0.00000000000E+00 0.  1.
<mgrwt>
<rscale>  4 0.28522995E+03</rscale>
<asrwt>0</asrwt>
<pdfrwt beam="1">  1       21 0.31950656E-01 0.28522995E+03</pdfrwt>
<pdfrwt beam="2">  1        2 0.37948812E+00 0.28522995E+03</pdfrwt>
<totfact> 0.48302728E+02</totfact>
</mgrwt>
</event>
<event>
 5    0  0.3040647E+000  0.2104855E+03  0.7546771E-02  0.1141182E+00
          1   -1    0    0  502    0 -0.00000000000E+00  0.00000000000E+00  0.15934706620E+04  0.15934706620E+04  0.00000000000E+00 0. -1.
         21   -1    0    0  503  502  0.00000000000E+00 -0.00000000000E+00 -0.73187000441E+03  0.73187000441E+03  0.00000000000E+00 0.  1.
         25    1    1    2    0    0 -0.17804609954E+03  0.91931441888E+02 -0.22484162514E+03  0.32608367019E+03  0.12500000000E+03 0.  0.
         21    1    1    2  503  501  0.33968210505E+02 -0.39114122241E+01 -0.45113942155E+03  0.45243332785E+03  0.00000000000E+00 0.  1.
          1    1    1    2  501    0  0.14407788903E+03 -0.88020029664E+02  0.15375817043E+04  0.15468236684E+04  0.00000000000E+00 0. -1.
<mgrwt>
<rscale>  4 0.21048547E+03</rscale>
<asrwt>0</asrwt>
<pdfrwt beam="1">  1       21 0.11259539E+00 0.21048547E+03</pdfrwt>
<pdfrwt beam="2">  1        1 0.24514933E+00 0.21048547E+03</pdfrwt>
<totfact> 0.42800618E+01</totfact>
</mgrwt>
</event>
<event>
 5    0  0.3040647E+000  0.2985665E+03  0.7546771E-02  0.1085959E+00
         21   -1    0    0  503  502  0.00000000000E+00  0.00000000000E+00  0.23532000882E+03  0.23532000882E+03  0.00000000000E+00 0.  1.
          2   -1    0    0  502    0 -0.00000000000E+00 -0.00000000000E+00 -0.39317504137E+04  0.39317504137E+04  0.00000000000E+00 0.  1.
         25    1    1    2    0    0  0.10454433968E+03 -0.27455097539E+03 -0.31948586355E+04  0.32107716297E+04  0.12500000000E+03 0.  0.
         21    1    1    2  503  501 -0.81087045006E+02  0.25814721678E+03  0.14643109793E+03  0.30766403891E+03  0.00000000000E+00 0.  1.
          2    1    1    2  501    0 -0.23457294671E+02  0.16403758614E+02 -0.64800286723E+03  0.64863475385E+03  0.00000000000E+00 0.  1.
<mgrwt>
<rscale>  4 0.29856646E+03</rscale>
<asrwt>0</asrwt>
<pdfrwt beam="1">  1       21 0.36203080E-01 0.29856646E+03</pdfrwt>
<pdfrwt beam="2">  1        2 0.60488465E+00 0.29856646E+03</pdfrwt>
<totfact> 0.44735593E+01</totfact>
</mgrwt>
</event>
<event>
 5    0  0.3040647E+000  0.2036166E+03  0.7546771E-02  0.1146723E+00
         21   -1    0    0  503  502  0.00000000000E+00  0.00000000000E+00  0.15417858641E+03  0.15417858641E+03  0.00000000000E+00 0. -1.
          1   -1    0    0  502    0 -0.00000000000E+00 -0.00000000000E+00 -0.12385021761E+04  0.12385021761E+04  0.00000000000E+00 0. -1.
         25    1    1    2    0    0 -0.60583306381E+02 -0.20924019568E+03 -0.55441888160E+03  0.60865186501E+03  0.12500000000E+03 0.  0.
         21    1    1    2  503  501  0.24911691856E+02  0.69862550544E+02  0.10749135245E+03  0.13059769987E+03  0.00000000000E+00 0. -1.
          1    1    1    2  501    0  0.35671614525E+02  0.13937764514E+03 -0.63739606055E+03  0.65343119764E+03  0.00000000000E+00 0. -1.
<mgrwt>
<rscale>  4 0.20361662E+03</rscale>
<asrwt>0</asrwt>
<pdfrwt beam="1">  1       21 0.23719782E-01 0.20361662E+03</pdfrwt>
<pdfrwt beam="2">  1        1 0.19053880E+00 0.20361662E+03</pdfrwt>
<totfact> 0.20250138E+03</totfact>
</mgrwt>
</event>
<event>
 5    0  0.3040647E+000  0.2158599E+03  0.7546771E-02  0.1137008E+00
          1   -1    0    0  502    0 -0.00000000000E+00  0.00000000000E+00  0.15372025250E+04  0.15372025250E+04  0.00000000000E+00 0. -1.
         21   -1    0    0  503  502  0.00000000000E+00 -0.00000000000E+00 -0.99653342358E+02  0.99653342358E+02  0.00000000000E+00 0. -1.
         25    1    1    2    0    0  0.12155237423E+03 -0.25997163296E+03  0.44003761039E+03  0.54001697027E+03  0.12500000000E+03 0.  0.
         21    1    1    2  503  501 -0.45492181376E+02  0.11812389338E+03  0.50558495509E+02  0.13630463757E+03  0.00000000000E+00 0. -1.
          1    1    1    2  501    0 -0.76060192850E+02  0.14184773958E+03  0.94695307679E+03  0.96053425956E+03  0.00000000000E+00 0. -1.
<mgrwt>
<rscale>  4 0.21585986E+03</rscale>
<asrwt>0</asrwt>
<pdfrwt beam="1">  1       21 0.15331285E-01 0.21585986E+03</pdfrwt>
<pdfrwt beam="2">  1        1 0.23649268E+00 0.21585986E+03</pdfrwt>
<totfact> 0.28647848E+03</totfact>
</mgrwt>
</event>
<event>
 5    0  0.3040647E+000  0.2242453E+03  0.7546771E-02  0.1130757E+00
          2   -1    0    0  502    0 -0.00000000000E+00  0.00000000000E+00  0.14250747308E+04  0.14250747308E+04  0.00000000000E+00 0. -1.
         21   -1    0    0  503  502  0.00000000000E+00 -0.00000000000E+00 -0.10459404460E+03  0.10459404460E+03  0.00000000000E+00 0.  1.
         25    1    1    2    0    0 -0.21907711749E+03 -0.38214682643E+02  0.22652083564E+03  0.34116247501E+03  0.12500000000E+03 0.  0.
         21    1    1    2  503  501  0.38291998943E+02  0.64350144342E+02 -0.44481797798E+01  0.75013362565E+02  0.00000000000E+00 0. -1.
          2    1    1    2  501    0  0.18078511855E+03 -0.26135461700E+02  0.10984080303E+04  0.11134929378E+04  0.00000000000E+00 0. -1.
<mgrwt>
<rscale>  4 0.22424532E+03</rscale>
<asrwt>0</asrwt>
<pdfrwt beam="1">  1       21 0.16091393E-01 0.22424532E+03</pdfrwt>
<pdfrwt beam="2">  1        2 0.21924225E+00 0.22424532E+03</pdfrwt>
<totfact> 0.65551061E+03</totfact>
</mgrwt>
</event>
<event>
 5    0  0.3040647E+000  0.3130223E+03  0.7546771E-02  0.1078906E+00
          2   -1    0    0  502    0 -0.00000000000E+00  0.00000000000E+00  0.58718187578E+03  0.58718187578E+03  0.00000000000E+00 0. -1.
         21   -1    0    0  503  502  0.00000000000E+00 -0.00000000000E+00 -0.30712282521E+03  0.30712282521E+03  0.00000000000E+00 0.  1.
         25    1    1    2    0    0 -0.26877600417E+03  0.10770816044E+03  0.41699064029E+03  0.52282672304E+03  0.12500000000E+03 0.  0.
         21    1    1    2  503  501 -0.84489341710E+01 -0.55868231444E+02 -0.52377080952E+02  0.77045456597E+02  0.00000000000E+00 0.  1.
          2    1    1    2  501    0  0.27722493834E+03 -0.51839928993E+02 -0.84554508764E+02  0.29443252135E+03  0.00000000000E+00 0. -1.
<mgrwt>
<rscale>  4 0.31302233E+03</rscale>
<asrwt>0</asrwt>
<pdfrwt beam="1">  1       21 0.47249665E-01 0.31302233E+03</pdfrwt>
<pdfrwt beam="2">  1        2 0.90335673E-01 0.31302233E+03</pdfrwt>
<totfact> 0.26755437E+03</totfact>
</mgrwt>
</event>
<event>
 5    0  0.3040647E+000  0.2572414E+03  0.7546771E-02  0.1108812E+00
         -1   -1    0    0    0  501 -0.00000000000E+00  0.00000000000E+00  0.20190160271E+03  0.20190160271E+03  0.00000000000E+00 0. -1.
         21   -1    0    0  501  502  0.00000000000E+00 -0.00000000000E+00 -0.65889425590E+03  0.65889425590E+03  0.00000000000E+00 0. -1.
         25    1    1    2    0    0 -0.80914530805E+02  0.23305258642E+03 -0.43116509019E+03  0.51223920617E+03  0.12500000000E+03 0.  0.
         21    1    1    2  503  502 -0.41485243238E+01 -0.28721313485E+02 -0.10848229895E+03  0.11229663080E+03  0.00000000000E+00 0. -1.
         -1    1    1    2    0  503  0.85063055129E+02 -0.20433127294E+03  0.82654735960E+02  0.23626002164E+03  0.00000000000E+00 0. -1.
<mgrwt>
<rscale>  4 0.25724145E+03</rscale>
<asrwt>0</asrwt>
<pdfrwt beam="1">  1       21 0.10136835E+00 0.25724145E+03</pdfrwt>
<pdfrwt beam="2">  1       -1 0.31061784E-01 0.25724145E+03</pdfrwt>
<totfact> 0.68067971E+02</totfact>
</mgrwt>
</event>
<event>
 5    0  0.3040647E+000  0.2897875E+03  0.7546771E-02  0.1090460E+00
         21   -1    0    0  503  502  0.00000000000E+00  0.00000000000E+00  0.33410345584E+03  0.33410345584E+03  0.00000000000E+00 0. -1.
          2   -1    0    0  502    0 -0.00000000000E+00 -0.00000000000E+00 -0.13549599874E+04  0.13549599874E+04  0.00000000000E+00 0. -1.
         25    1    1    2    0    0 -0.51721638152E+02 -0.21364828717E+03 -0.83407953991E+03  0.87157007599E+03  0.12500000000E+03 0.  0.
         21    1    1    2  503  501  0.36721674791E+02  0.26165603222E+03  0.25834851348E+03  0.36953526897E+03  0.00000000000E+00 0. -1.
          2    1    1    2  501    0  0.14999963361E+02 -0.48007745048E+02 -0.44512550515E+03  0.44795809829E+03  0.00000000000E+00 0. -1.
<mgrwt>
<rscale>  4 0.28978746E+03</rscale>
<asrwt>0</asrwt>
<pdfrwt beam="1">  1       21 0.51400532E-01 0.28978746E+03</pdfrwt>
<pdfrwt beam="2">  1        2 0.20845538E+00 0.28978746E+03</pdfrwt>
<totfact> 0.71472897E+02</totfact>
</mgrwt>
</event>
<event>
 5    0  0.3040647E+000  0.2490802E+03  0.7546771E-02  0.1113888E+00
          2   -1    0    0  502    0 -0.00000000000E+00  0.00000000000E+00  0.10203802392E+04  0.10203802392E+04  0.00000000000E+00 0.  1.
         21   -1    0    0  503  502  0.00000000000E+00 -0.00000000000E+00 -0.90235261905E+02  0.90235261905E+02  0.00000000000E+00 0. -1.
         25    1    1    2    0    0 -0.15424138941E+03 -0.17213215231E+03  0.20793514936E+03  0.33508493014E+03  0.12500000000E+03 0.  0.
         21    1    1    2  503  501 -0.30320225568E+01  0.30137321570E+02  0.91305029098E+01  0.31635698120E+02  0.00000000000E+00 0. -1.
          2    1    1    2  501    0  0.15727341197E+03  0.14199483074E+03  0.71307932502E+03  0.74389487284E+03  0.00000000000E+00 0.  1.
<mgrwt>
<rscale>  4 0.24908018E+03</rscale>
<asrwt>0</asrwt>
<pdfrwt beam="1">  1       21 0.13882349E-01 0.24908018E+03</pdfrwt>
<pdfrwt beam="2">  1        2 0.15698157E+00 0.24908018E+03</pdfrwt>
<totfact> 0.14449957E+04</totfact>
</mgrwt>
</event>
<event>
 5    0  0.3040647E+000  0.2559984E+03  0.7546771E-02  0.1109572E+00
          1   -1    0    0  502    0 -0.00000000000E+00  0.00000000000E+00  0.84556715236E+03  0.84556715236E+03  0.00000000000E+00 0.  1.
         21   -1    0    0  503  502  0.00000000000E+00 -0.00000000000E+00 -0.72084094606E+02  0.72084094606E+02  0.00000000000E+00 0.  1.
         25    1    1    2    0    0 -0.19467884203E+03  0.10959158601E+03  0.45785509739E+03  0.52456311104E+03  0.12500000000E+03 0.  0.
         21    1    1    2  503  501  0.11397648638E+03 -0.24876210333E+02  0.14307064854E+03  0.18460410548E+03  0.00000000000E+00 0.  1.
          1    1    1    2  501    0  0.80702355647E+02 -0.84715375680E+02  0.17255731182E+03  0.20848403044E+03  0.00000000000E+00 0.  1.
<mgrwt>
<rscale>  4 0.25599837E+03</rscale>
<asrwt>0</asrwt>
<pdfrwt beam="1">  1       21 0.11089861E-01 0.25599837E+03</pdfrwt>
<pdfrwt beam="2">  1        1 0.13008725E+00 0.25599837E+03</pdfrwt>
<totfact> 0.15760014E+04</totfact>
</mgrwt>
</event>
<event>
 5    0  0.3040647E+000  0.2257427E+03  0.7546771E-02  0.1129673E+00
         21   -1    0    0  503  502  0.00000000000E+00  0.00000000000E+00  0.99771848631E+03  0.99771848631E+03  0.00000000000E+00 0.  1.
          1   -1    0    0  502    0 -0.00000000000E+00 -0.00000000000E+00 -0.73087757630E+03  0.73087757630E+03  0.00000000000E+00 0. -1.
         25    1    1    2    0    0  0.26866479961E+02 -0.22579875196E+03  0.92306545313E+03  0.95884394711E+03  0.12500000000E+03 0.  0.
         21    1    1    2  503  501  0.14299964206E+02  0.42908041191E+02  0.32677896873E+02  0.55798153367E+02  0.00000000000E+00 0.  1.
          1    1    1    2  501    0 -0.41166444167E+02  0.18289071077E+03 -0.68890244000E+03  0.71395396214E+03  0.00000000000E+00 0. -1.
<mgrwt>
<rscale>  4 0.22574268E+03</rscale>
<asrwt>0</asrwt>
<pdfrwt beam="1">  1       21 0.15349515E+00 0.22574268E+03</pdfrwt>
<pdfrwt beam="2">  1        1 0.11244270E+00 0.22574268E+03</pdfrwt>
<totfact> 0.80541484E+01</totfact>
</mgrwt>
</event>
<event>
 5    0  0.3040647E+000  0.2326066E+03  0.7546771E-02  0.1124818E+00
         -2   -1    0    0    0  501 -0.00000000000E+00  0.00000000000E+00  0.26599161119E+03  0.26599161119E+03  0.00000000000E+00 0.  1.
         21   -1    0    0  501  502  0.00000000000E+00 -0.00000000000E+00 -0.35722160712E+03  0.35722160712E+03  0.00000000000E+00 0.  1.
         25    1    1    2    0    0 -0.98533349261E+02 -0.17841474868E+03 -0.21697529858E+03  0.32286827602E+03  0.12500000000E+03 0.  0.
         21    1    1    2  503  502  0.41685654317E+02 -0.86219419895E+01 -0.28591087481E+02  0.51278474459E+02  0.00000000000E+00 0.  1.
         -2    1    1    2    0  503  0.56847694944E+02  0.18703669067E+03  0.15433639014E+03  0.24906646783E+03  0.00000000000E+00 0.  1.
<mgrwt>
<rscale>  4 0.23260656E+03</rscale>
<asrwt>0</asrwt>
<pdfrwt beam="1">  1       21 0.54957171E-01 0.23260656E+03</pdfrwt>
<pdfrwt beam="2">  1       -2 0.40921786E-01 0.23260656E+03</pdfrwt>
<totfact> 0.14209732E+03</totfact>
</mgrwt>
</event>
<event>
 5    0  0.3040647E+000  0.1902757E+03  0.7546771E-02  0.1158213E+00
         21   -1    0    0  503  502  0.00000000000E+00  0.00000000000E+00  0.78794407116E+02  0.78794407116E+02  0.00000000000E+00 0.  1.
          1   -1    0    0  502    0 -0.00000000000E+00 -0.00000000000E+00 -0.22938323286E+04  0.22938323286E+04  0.00000000000E+00 0.  1.
         25    1    1    2    0    0  0.16142253271E+03  0.12457289730E+03 -0.36493496510E+03  0.43632346896E+03  0.12500000000E+03 0.  0.
         21    1    1    2  503  501 -0.33719762059E+02 -0.68610815681E+02  0.43913150352E+01  0.76575126703E+02  0.00000000000E+00 0.  1.
          1    1    1    2  501    0 -0.12770277065E+03 -0.55962081614E+02 -0.18544942715E+04  0.18597281401E+04  0.00000000000E+00 0.  1.
<mgrwt>
<rscale>  4 0.19027571E+03</rscale>
<asrwt>0</asrwt>
<pdfrwt beam="1">  1       21 0.12122216E-01 0.19027571E+03</pdfrwt>
<pdfrwt beam="2">  1        1 0.35289728E+00 0.19027571E+03</pdfrwt>
<totfact> 0.14400464E+03</totfact>
</mgrwt>
</event>
<event>
 5    0  0.3040647E+000  0.3232011E+03  0.7546771E-02  0.1074185E+00
          1   -1    0    0  502    0 -0.00000000000E+00  0.00000000000E+00  0.10952315217E+04  0.10952315217E+04  0.00000000000E+00 0.  1.
         21   -1    0    0  503  502  0.00000000000E+00 -0.00000000000E+00 -0.30788847656E+03  0.30788847656E+03  0.00000000000E+00 0.  1.
         25    1    1    2    0    0  0.78686672579E+02  0.27038636266E+03  0.65433139613E+02  0.31497122617E+03  0.12500000000E+03 0.  0.
         21    1    1    2  503  501  0.16882685075E+02  0.15458651296E+02 -0.15717398395E+03  0.15883216358E+03  0.00000000000E+00 0.  1.
          1    1    1    2  501    0 -0.95569357654E+02 -0.28584501396E+03  0.87908388946E+03  0.92931660850E+03  0.00000000000E+00 0.  1.
<mgrwt>
<rscale>  4 0.32320108E+03</rscale>
<asrwt>0</asrwt>
<pdfrwt beam="1">  1       21 0.47367459E-01 0.32320108E+03</pdfrwt>
<pdfrwt beam="2">  1        1 0.16849716E+00 0.32320108E+03</pdfrwt>
<totfact> 0.61192698E+02</totfact>
</mgrwt>
</event>
<event>
 5    0  0.3040647E+000  0.2552465E+03  0.7546771E-02  0.1110033E+00
         21   -1    0    0  503  502  0.00000000000E+00  0.00000000000E+00  0.31466695090E+03  0.31466695090E+03  0.00000000000E+00 0.  1.
          2   -1    0    0  502    0 -0.00000000000E+00 -0.00000000000E+00 -0.53535862291E+03  0.53535862291E+03  0.00000000000E+00 0.  1.
         25    1    1    2    0    0 -0.21174635657E+03  0.16601832413E+03 -0.34788781503E+03  0.45721935142E+03  0.12500000000E+03 0.  0.
         21    1    1    2  503  501  0.52564984737E+02 -0.99849860565E+02  0.18006026116E+03  0.21249651744E+03  0.00000000000E+00 0.  1.
          2    1    1    2  501    0  0.15918137183E+03 -0.66168463567E+02 -0.52864118143E+02  0.18030970494E+03  0.00000000000E+00 0.  1.
<mgrwt>
<rscale>  4 0.25524650E+03</rscale>
<asrwt>0</asrwt>
<pdfrwt beam="1">  1       21 0.48410301E-01 0.25524650E+03</pdfrwt>
<pdfrwt beam="2">  1        2 0.82362864E-01 0.25524650E+03</pdfrwt>
<totfact> 0.28767151E+03</totfact>
</mgrwt>
</event>
<event>
 5    0  0.3040647E+000  0.2020946E+03  0.7546771E-02  0.1147984E+00
          2   -1    0    0  502    0 -0.00000000000E+00  0.00000000000E+00  0.10571022513E+04  0.10571022513E+04  0.00000000000E+00 0.  1.
         21   -1    0    0  503  502  0.00000000000E+00 -0.00000000000E+00 -0.53610865890E+03  0.53610865890E+03  0.00000000000E+00 0.  1.
         25    1    1    2    0    0 -0.27101417718E+02  0.29973799404E+03 -0.47615445132E+02  0.32934720665E+03  0.12500000000E+03 0.  0.
         21    1    1    2  503  501  0.84517540298E+01 -0.14702550429E+03 -0.32515743433E+03  0.35695278141E+03  0.00000000000E+00 0.  1.
          2    1    1    2  501    0  0.18649663688E+02 -0.15271248975E+03  0.89376647190E+03  0.90691092218E+03  0.00000000000E+00 0.  1.
<mgrwt>
<rscale>  4 0.20209458E+03</rscale>
<asrwt>0</asrwt>
<pdfrwt beam="1">  1       21 0.82478255E-01 0.20209458E+03</pdfrwt>
<pdfrwt beam="2">  1        2 0.16263112E+00 0.20209458E+03</pdfrwt>
<totfact> 0.39340394E+02</totfact>
</mgrwt>
</event>
<event>
 5    0  0.3040647E+000  0.1941722E+03  0.7546771E-02  0.1154751E+00
          1   -1    0    0  502    0 -0.00000000000E+00  0.00000000000E+00  0.91055618058E+03  0.91055618058E+03  0.00000000000E+00 0. -1.
         21   -1    0    0  503  502  0.00000000000E+00 -0.00000000000E+00 -0.27884305198E+03  0.27884305198E+03  0.00000000000E+00 0.  1.
         25    1    1    2    0    0  0.30387830220E+02  0.22946561638E+03 -0.11317861708E+03  0.28637787745E+03  0.12500000000E+03 0.  0.
         21    1    1    2  503  501  0.43782439773E+02 -0.10331914092E+03 -0.28606903420E+02  0.11580199409E+03  0.00000000000E+00 0. -1.
          1    1    1    2  501    0 -0.74170269993E+02 -0.12614647547E+03  0.77349864909E+03  0.78721936103E+03  0.00000000000E+00 0. -1.
<mgrwt>
<rscale>  4 0.19417216E+03</rscale>
<asrwt>0</asrwt>
<pdfrwt beam="1">  1       21 0.42898931E-01 0.19417216E+03</pdfrwt>
<pdfrwt beam="2">  1        1 0.14008557E+00 0.19417216E+03</pdfrwt>
<totfact> 0.10968995E+03</totfact>
</mgrwt>
</event>
<event>
 5    0  0.3040647E+000  0.3761109E+03  0.7546771E-02  0.1052381E+00
          2   -1    0    0  502    0 -0.00000000000E+00  0.00000000000E+00  0.18652070028E+04  0.18652070028E+04  0.00000000000E+00 0.  1.
         21   -1    0    0  503  502  0.00000000000E+00 -0.00000000000E+00 -0.73622377202E+02  0.73622377202E+02  0.00000000000E+00 0.  1.
         25    1    1    2    0    0 -0.22184050502E+03  0.27680537644E+03  0.79532466655E+03  0.87977312491E+03  0.12500000000E+03 0.  0.
         21    1    1    2  503  501  0.96303139430E+01 -0.32630556258E+02  0.67924178007E+02  0.75968349372E+02  0.00000000000E+00 0. -1.
          2    1    1    2  501    0  0.21221019108E+03 -0.24417482018E+03  0.92833578106E+03  0.98308790573E+03  0.00000000000E+00 0.  1.
<mgrwt>
<rscale>  4 0.37611092E+03</rscale>
<asrwt>0</asrwt>
<pdfrwt beam="1">  1       21 0.11326521E-01 0.37611092E+03</pdfrwt>
<pdfrwt beam="2">  1        2 0.28695489E+00 0.37611092E+03</pdfrwt>
<totfact> 0.69323742E+03</totfact>
</mgrwt>
</event>
<event>
 5    0  0.3040647E+000  0.4481850E+03  0.7546771E-02  0.1028265E+00
          1   -1    0    0  502    0 -0.00000000000E+00  0.00000000000E+00  0.18457914477E+04  0.18457914477E+04  0.00000000000E+00 0. -1.
         21   -1    0    0  503  502  0.00000000000E+00 -0.00000000000E+00 -0.19743572081E+03  0.19743572081E+03  0.00000000000E+00 0. -1.
         25    1    1    2    0    0 -0.36951601980E+03  0.14794471016E+03  0.11513358303E+03  0.43279379397E+03  0.12500000000E+03 0.  0.
         21    1    1    2  503  501 -0.39082794442E+02  0.65228064839E+01  0.47659001309E+02  0.61978966042E+02  0.00000000000E+00 0. -1.
          1    1    1    2  501    0  0.40859881425E+03 -0.15446751664E+03  0.14855631425E+04  0.15484544085E+04  0.00000000000E+00 0. -1.
<mgrwt>
<rscale>  4 0.44818502E+03</rscale>
<asrwt>0</asrwt>
<pdfrwt beam="1">  1       21 0.30374728E-01 0.44818502E+03</pdfrwt>
<pdfrwt beam="2">  1        1 0.28396790E+00 0.44818502E+03</pdfrwt>
<totfact> 0.44756270E+02</totfact>
</mgrwt>
</event>
<event>
 5    0  0.3040647E+000  0.2561311E+03  0.7546771E-02  0.1109490E+00
         21   -1    0    0  503  502  0.00000000000E+00  0.00000000000E+00  0.35155449389E+04  0.35155449389E+04  0.00000000000E+00 0.  1.
          2   -1    0    0  502    0 -0.00000000000E+00 -0.00000000000E+00 -0.12007296319E+03  0.12007296319E+03  0.00000000000E+00 0.  1.
         25    1    1    2    0    0  0.45874167315E+02  0.20196333863E+03  0.24585371220E+04  0.24704095632E+04  0.12500000000E+03 0.  0.
         21    1    1    2  503  501  0.41821217727E+02  0.46336401995E+01  0.93980962374E+03  0.94075109022E+03  0.00000000000E+00 0.  1.
          2    1    1    2  501    0 -0.87695385043E+02 -0.20659697883E+03 -0.28747700033E+01  0.22445724876E+03  0.00000000000E+00 0.  1.
<mgrwt>
<rscale>  4 0.25613109E+03</rscale>
<asrwt>0</asrwt>
<pdfrwt beam="1">  1       21 0.54085299E+00 0.25613109E+03</pdfrwt>
<pdfrwt beam="2">  1        2 0.18472766E-01 0.25613109E+03</pdfrwt>
<totfact> 0.32479931E+00</totfact>
</mgrwt>
</event>
<event>
 5    0  0.3040647E+000  0.3033862E+03  0.7546771E-02  0.1083560E+00
          2   -1    0    0  502    0 -0.00000000000E+00  0.00000000000E+00  0.21097031132E+04  0.21097031132E+04  0.00000000000E+00 0.  1.
         21   -1    0    0  503  502  0.00000000000E+00 -0.00000000000E+00 -0.76253734042E+02  0.76253734042E+02  0.00000000000E+00 0. -1.
         25    1    1    2    0    0  0.74285452454E+02 -0.25122484555E+03  0.38172128936E+03  0.47955019989E+03  0.12500000000E+03 0.  0.
         21    1    1    2  503  501 -0.58083104933E+02 -0.29797632616E+02  0.55903658434E+02  0.85946291453E+02  0.00000000000E+00 0.  1.
          2    1    1    2  501    0 -0.16202347521E+02  0.28102247816E+03  0.15958244314E+04  0.16204603559E+04  0.00000000000E+00 0.  1.
<mgrwt>
<rscale>  4 0.30338616E+03</rscale>
<asrwt>0</asrwt>
<pdfrwt beam="1">  1       21 0.11731345E-01 0.30338616E+03</pdfrwt>
<pdfrwt beam="2">  1        2 0.32456966E+00 0.30338616E+03</pdfrwt>
<totfact> 0.49264218E+03</totfact>
</mgrwt>
</event>
<event>
 5    0  0.3040647E+000  0.2678971E+03  0.7546771E-02  0.1102489E+00
         21   -1    0    0  503  502  0.00000000000E+00  0.00000000000E+00  0.10707801281E+03  0.10707801281E+03  0.00000000000E+00 0.  1.
          1   -1    0    0  502    0 -0.00000000000E+00 -0.00000000000E+00 -0.31823432143E+04  0.31823432143E+04  0.00000000000E+00 0. -1.
         25    1    1    2    0    0 -0.18990600230E+03 -0.86123874323E+02 -0.13669817220E+03  0.27891396831E+03  0.12500000000E+03 0.  0.
         21    1    1    2  503  501 -0.11330318094E+02 -0.42841883159E+02  0.15378740718E+02  0.46907448521E+02  0.00000000000E+00 0.  1.
          1    1    1    2  501    0  0.20123632039E+03  0.12896575748E+03 -0.29539457700E+04  0.29635998103E+04  0.00000000000E+00 0. -1.
<mgrwt>
<rscale>  4 0.26789707E+03</rscale>
<asrwt>0</asrwt>
<pdfrwt beam="1">  1       21 0.16473540E-01 0.26789707E+03</pdfrwt>
<pdfrwt beam="2">  1        1 0.48959127E+00 0.26789707E+03</pdfrwt>
<totfact> 0.19532857E+02</totfact>
</mgrwt>
</event>
<event>
 5    0  0.3040647E+000  0.2442534E+03  0.7546771E-02  0.1116991E+00
          2   -1    0    0  502    0 -0.00000000000E+00  0.00000000000E+00  0.67011519170E+03  0.67011519170E+03  0.00000000000E+00 0. -1.
         21   -1    0    0  503  502  0.00000000000E+00 -0.00000000000E+00 -0.19631912927E+04  0.19631912927E+04  0.00000000000E+00 0. -1.
         25    1    1    2    0    0  0.23309980081E+03  0.86319547432E+02 -0.12382542023E+04  0.12691276733E+04  0.12500000000E+03 0.  0.
         21    1    1    2  503  501 -0.29800002484E+02 -0.36361367017E+02 -0.69194638245E+03  0.69354162481E+03  0.00000000000E+00 0.  1.
          2    1    1    2  501    0 -0.20329979832E+03 -0.49958180415E+02  0.63712448381E+03  0.67063718631E+03  0.00000000000E+00 0. -1.
<mgrwt>
<rscale>  4 0.24425344E+03</rscale>
<asrwt>0</asrwt>
<pdfrwt beam="1">  1       21 0.30202942E+00 0.24425344E+03</pdfrwt>
<pdfrwt beam="2">  1        2 0.10309465E+00 0.24425344E+03</pdfrwt>
<totfact> 0.17337704E+01</totfact>
</mgrwt>
</event>
<event>
 5    0  0.3040647E+000  0.2009121E+03  0.7546771E-02  0.1148972E+00
         21   -1    0    0  501  502  0.00000000000E+00  0.00000000000E+00  0.21829272608E+03  0.21829272608E+03  0.00000000000E+00 0. -1.
         -1   -1    0    0    0  501 -0.00000000000E+00 -0.00000000000E+00 -0.21374503022E+04  0.21374503022E+04  0.00000000000E+00 0. -1.
         25    1    1    2    0    0  0.20307682609E+03 -0.10070797845E+03 -0.18783012790E+02  0.25953823569E+03  0.12500000000E+03 0.  0.
         21    1    1    2  503  502 -0.82494462589E+02  0.22584021402E+01  0.76906579431E+02  0.11280540190E+03  0.00000000000E+00 0. -1.
         -1    1    1    2    0  503 -0.12058236350E+03  0.98449576309E+02 -0.19772811428E+04  0.19833993907E+04  0.00000000000E+00 0. -1.
<mgrwt>
<rscale>  4 0.20091212E+03</rscale>
<asrwt>0</asrwt>
<pdfrwt beam="1">  1       21 0.33583496E-01 0.20091212E+03</pdfrwt>
<pdfrwt beam="2">  1       -1 0.32883851E+00 0.20091212E+03</pdfrwt>
<totfact> 0.20879668E+01</totfact>
</mgrwt>
</event>
<event>
 5    0  0.3040647E+000  0.2551608E+03  0.7546771E-02  0.1110086E+00
         21   -1    0    0  503  502  0.00000000000E+00  0.00000000000E+00  0.50564648412E+03  0.50564648412E+03  0.00000000000E+00 0. -1.
          2   -1    0    0  502    0 -0.00000000000E+00 -0.00000000000E+00 -0.11886341588E+04  0.11886341588E+04  0.00000000000E+00 0.  1.
         25    1    1    2    0    0  0.14372630526E+03  0.21863248637E+03  0.40560158109E+03  0.49859307807E+03  0.12500000000E+03 0.  0.
         21    1    1    2  503  501 -0.43585676508E+02 -0.13445044774E+03 -0.51576158020E+02  0.15045509021E+03  0.00000000000E+00 0. -1.
          2    1    1    2  501    0 -0.10014062875E+03 -0.84182038634E+02 -0.10370130978E+04  0.10452324747E+04  0.00000000000E+00 0.  1.
<mgrwt>
<rscale>  4 0.25516075E+03</rscale>
<asrwt>0</asrwt>
<pdfrwt beam="1">  1       21 0.77791768E-01 0.25516075E+03</pdfrwt>
<pdfrwt beam="2">  1        2 0.18286679E+00 0.25516075E+03</pdfrwt>
<totfact> 0.36423918E+02</totfact>
</mgrwt>
</event>
<event>
 5    0  0.3040647E+000  0.1956506E+03  0.7546771E-02  0.1153461E+00
         21   -1    0    0  503  502  0.00000000000E+00  0.00000000000E+00  0.81926281350E+02  0.81926281350E+02  0.00000000000E+00 0.  1.
          1   -1    0    0  502    0 -0.00000000000E+00 -0.00000000000E+00 -0.37315677818E+04  0.37315677818E+04  0.00000000000E+00 0.  1.
         25    1    1    2    0    0  0.16057888366E+03 -0.18077243637E+03 -0.29305315410E+04  0.29431453183E+04  0.12500000000E+03 0.  0.
         21    1    1    2  503  501 -0.95277973655E+02  0.11346722580E+03 -0.30722806308E+01  0.14819629719E+03  0.00000000000E+00 0.  1.
          1    1    1    2  501    0 -0.65300910005E+02  0.67305210578E+02 -0.71603767874E+03  0.72215244761E+03  0.00000000000E+00 0.  1.
<mgrwt>
<rscale>  4 0.19565058E+03</rscale>
<asrwt>0</asrwt>
<pdfrwt beam="1">  1       21 0.12604045E-01 0.19565058E+03</pdfrwt>
<pdfrwt beam="2">  1        1 0.57408728E+00 0.19565058E+03</pdfrwt>
<totfact> 0.13069836E+02</totfact>
</mgrwt>
</event>
<event>
 5    0  0.3040647E+000  0.2831096E+03  0.7546771E-02  0.1094003E+00
         21   -1    0    0  503  502  0.00000000000E+00  0.00000000000E+00  0.13968876246E+03  0.13968876246E+03  0.00000000000E+00 0.  1.
          1   -1    0    0  502    0 -0.00000000000E+00 -0.00000000000E+00 -0.88693954176E+03  0.88693954176E+03  0.00000000000E+00 0.  1.
         25    1    1    2    0    0 -0.18654145617E+03  0.20226388620E+03 -0.10829898129E+03  0.32103280810E+03  0.12500000000E+03 0.  0.
         21    1    1    2  503  501  0.34648190006E+02 -0.44740745823E+01 -0.25093614121E+02  0.43013996370E+02  0.00000000000E+00 0.  1.
          1    1    1    2  501    0  0.15189326616E+03 -0.19778981162E+03 -0.61385818388E+03  0.66258149975E+03  0.00000000000E+00 0.  1.
<mgrwt>
<rscale>  4 0.28310963E+03</rscale>
<asrwt>0</asrwt>
<pdfrwt beam="1">  1       21 0.21490579E-01 0.28310963E+03</pdfrwt>
<pdfrwt beam="2">  1        1 0.13645224E+00 0.28310963E+03</pdfrwt>
<totfact> 0.42924846E+03</totfact>
</mgrwt>
</event>
<event>
 5    0  0.3040647E+000  0.2561437E+03  0.7546771E-02  0.1109483E+00
          1   -1    0    0  502    0 -0.00000000000E+00  0.00000000000E+00  0.18204482223E+03  0.18204482223E+03  0.00000000000E+00 0. -1.
         21   -1    0    0  503  502  0.00000000000E+00 -0.00000000000E+00 -0.78936401873E+03  0.78936401873E+03  0.00000000000E+00 0. -1.
         25    1    1    2    0    0 -0.20386563614E+03  0.77029347681E+02  0.39306010920E+02  0.25429250972E+03  0.12500000000E+03 0.  0.
         21    1    1    2  503  501  0.17138947059E+03 -0.14769167503E+03 -0.53694032258E+03  0.58265949878E+03  0.00000000000E+00 0. -1.
          1    1    1    2  501    0  0.32476165556E+02  0.70662327353E+02 -0.10968488483E+03  0.13445683247E+03  0.00000000000E+00 0. -1.
<mgrwt>
<rscale>  4 0.25614367E+03</rscale>
<asrwt>0</asrwt>
<pdfrwt beam="1">  1       21 0.12144062E+00 0.25614367E+03</pdfrwt>
<pdfrwt beam="2">  1        1 0.28006896E-01 0.25614367E+03</pdfrwt>
<totfact> 0.89062818E+02</totfact>
</mgrwt>
</event>
<event>
 5    0  0.3040647E+000  0.2279988E+03  0.7546771E-02  0.1128056E+00
         21   -1    0    0  503  502  0.00000000000E+00  0.00000000000E+00  0.40015813443E+03  0.40015813443E+03  0.00000000000E+00 0.  1.
          2   -1    0    0  502    0 -0.00000000000E+00 -0.00000000000E+00 -0.96295969170E+03  0.96295969170E+03  0.00000000000E+00 0.  1.
         25    1    1    2    0    0 -0.22764482907E+03  0.49973183954E+02  0.30846851355E+03  0.40632168435E+03  0.12500000000E+03 0.  0.
         21    1    1    2  503  501  0.45728957047E+02  0.31283673430E+01  0.16734710539E+02  0.48795232674E+02  0.00000000000E+00 0. -1.
          2    1    1    2  501    0  0.18191587203E+03 -0.53101551297E+02 -0.88800478135E+03  0.90800090911E+03  0.00000000000E+00 0.  1.
<mgrwt>
<rscale>  4 0.22799878E+03</rscale>
<asrwt>0</asrwt>
<pdfrwt beam="1">  1       21 0.61562790E-01 0.22799878E+03</pdfrwt>
<pdfrwt beam="2">  1        2 0.14814764E+00 0.22799878E+03</pdfrwt>
<totfact> 0.84498609E+02</totfact>
</mgrwt>
</event>
<event>
 5    0  0.3040647E+000  0.2695542E+03  0.7546771E-02  0.1101535E+00
         21   -1    0    0  503  502  0.00000000000E+00  0.00000000000E+00  0.36246755722E+03  0.36246755722E+03  0.00000000000E+00 0.  1.
          1   -1    0    0  502    0 -0.00000000000E+00 -0.00000000000E+00 -0.51143234371E+03  0.51143234371E+03  0.00000000000E+00 0. -1.
         25    1    1    2    0    0  0.66108764090E+02 -0.21545572748E+03  0.13271985582E+03  0.28988118139E+03  0.12500000000E+03 0.  0.
         21    1    1    2  503  501 -0.40860180599E+02 -0.24797391429E+02  0.11219856242E+03  0.12195483750E+03  0.00000000000E+00 0. -1.
          1    1    1    2  501    0 -0.25248583490E+02  0.24025311891E+03 -0.39388320473E+03  0.46206388204E+03  0.00000000000E+00 0. -1.
<mgrwt>
<rscale>  4 0.26955422E+03</rscale>
<asrwt>0</asrwt>
<pdfrwt beam="1">  1       21 0.55764240E-01 0.26955422E+03</pdfrwt>
<pdfrwt beam="2">  1        1 0.78681898E-01 0.26955422E+03</pdfrwt>
<totfact> 0.14211554E+03</totfact>
</mgrwt>
</event>
<event>
 5    0  0.3040647E+000  0.2294806E+03  0.7546771E-02  0.1127006E+00
         21   -1    0    0  501  502  0.00000000000E+00  0.00000000000E+00  0.65463319187E+02  0.65463319187E+02  0.00000000000E+00 0.  1.
         -2   -1    0    0    0  501 -0.00000000000E+00 -0.00000000000E+00 -0.13361923129E+04  0.13361923129E+04  0.00000000000E+00 0.  1.
         25    1    1    2    0    0  0.12544615349E+03  0.16974090831E+03 -0.78720543586E+03  0.82453993937E+03  0.12500000000E+03 0.  0.
         21    1    1    2  503  502 -0.11898871156E+03 -0.14566337294E+03 -0.14451907437E+03  0.23719589910E+03  0.00000000000E+00 0.  1.
         -2    1    1    2    0  503 -0.64574419276E+01 -0.24077535373E+02 -0.33900448345E+03  0.33991979357E+03  0.00000000000E+00 0.  1.
<mgrwt>
<rscale>  4 0.22948055E+03</rscale>
<asrwt>0</asrwt>
<pdfrwt beam="1">  1       21 0.10071280E-01 0.22948055E+03</pdfrwt>
<pdfrwt beam="2">  1       -2 0.20556804E+00 0.22948055E+03</pdfrwt>
<totfact> 0.87775021E+02</totfact>
</mgrwt>
</event>
<event>
 5    0  0.3040647E+000  0.2793599E+03  0.7546771E-02  0.1096039E+00
         21   -1    0    0  503  502  0.00000000000E+00  0.00000000000E+00  0.91164577627E+02  0.91164577627E+02  0.00000000000E+00 0.  1.
          1   -1    0    0  502    0 -0.00000000000E+00 -0.00000000000E+00 -0.36370224271E+04  0.36370224271E+04  0.00000000000E+00 0. -1.
         25    1    1    2    0    0 -0.66345586403E+02  0.23144916036E+03 -0.14306412620E+03  0.30669658438E+03  0.12500000000E+03 0.  0.
         21    1    1    2  503  501  0.20031661662E+02  0.14634276863E+02 -0.27956874332E+02  0.37376681911E+02  0.00000000000E+00 0. -1.
          1    1    1    2  501    0  0.46313924741E+02 -0.24608343722E+03 -0.33748368489E+04  0.33841137384E+04  0.00000000000E+00 0. -1.
<mgrwt>
<rscale>  4 0.27935986E+03</rscale>
<asrwt>0</asrwt>
<pdfrwt beam="1">  1       21 0.14025319E-01 0.27935986E+03</pdfrwt>
<pdfrwt beam="2">  1        1 0.55954195E+00 0.27935986E+03</pdfrwt>
<totfact> 0.11940770E+02</totfact>
</mgrwt>
</event>
<event>
 5    0  0.3270580E+000  0.2581117E+03  0.7546771E-02  0.1108283E+00
          1   -1    0    0  502    0 -0.00000000000E+00  0.00000000000E+00  0.59569531122E+03  0.59569531122E+03  0.00000000000E+00 0.  1.
         21   -1    0    0  503  502  0.00000000000E+00 -0.00000000000E+00 -0.22779370828E+03  0.22779370828E+03  0.00000000000E+00 0. -1.
         25    1    1    2    0    0 -0.23464924326E+03 -0.37741641604E+01 -0.10106834326E+03  0.28445442814E+03  0.12500000000E+03 0.  0.
         21    1    1    2  503  501  0.10936119971E+02 -0.17609513018E+02  0.20298664342E+01  0.20828202671E+02  0.00000000000E+00 0.  1.
          1    1    1    2  501    0  0.22371312329E+03  0.21383677179E+02  0.46694007977E+03  0.51820638869E+03  0.00000000000E+00 0.  1.
<mgrwt>
<rscale>  4 0.25811171E+03</rscale>
<asrwt>0</asrwt>
<pdfrwt beam="1">  1       21 0.35045186E-01 0.25811171E+03</pdfrwt>
<pdfrwt beam="2">  1        1 0.91645432E-01 0.25811171E+03</pdfrwt>
<totfact> 0.30241580E+03</totfact>
</mgrwt>
</event>
<event>
 5    0  0.3040647E+000  0.2245154E+03  0.7546771E-02  0.1130561E+00
         21   -1    0    0  503  502  0.00000000000E+00  0.00000000000E+00  0.21110994426E+03  0.21110994426E+03  0.00000000000E+00 0. -1.
          2   -1    0    0  502    0 -0.00000000000E+00 -0.00000000000E+00 -0.38528819957E+03  0.38528819957E+03  0.00000000000E+00 0. -1.
         25    1    1    2    0    0  0.13309569676E+03 -0.15616594762E+03  0.58859283763E+02  0.24736952718E+03  0.12500000000E+03 0.  0.
         21    1    1    2  503  501 -0.50211101195E+01  0.25460760751E+02  0.22757536919E+02  0.34516189991E+02  0.00000000000E+00 0. -1.
          2    1    1    2  501    0 -0.12807458664E+03  0.13070518687E+03 -0.25579507599E+03  0.31451242666E+03  0.00000000000E+00 0. -1.
<mgrwt>
<rscale>  4 0.22451541E+03</rscale>
<asrwt>0</asrwt>
<pdfrwt beam="1">  1       21 0.32478454E-01 0.22451541E+03</pdfrwt>
<pdfrwt beam="2">  1        2 0.59275107E-01 0.22451541E+03</pdfrwt>
<totfact> 0.93851113E+03</totfact>
</mgrwt>
</event>
<event>
 5    0  0.3040647E+000  0.4350006E+03  0.7546771E-02  0.1032292E+00
         21   -1    0    0  501  502  0.00000000000E+00  0.00000000000E+00  0.13099502391E+04  0.13099502391E+04  0.00000000000E+00 0. -1.
         -2   -1    0    0    0  501 -0.00000000000E+00 -0.00000000000E+00 -0.32381296564E+03  0.32381296564E+03  0.00000000000E+00 0. -1.
         25    1    1    2    0    0 -0.30698507904E+03  0.26658417261E+03 -0.22394670316E+02  0.42595009226E+03  0.12500000000E+03 0.  0.
         21    1    1    2  503  502 -0.10078657231E+02  0.40998656051E+02  0.61426017903E+03  0.61570937680E+03  0.00000000000E+00 0. -1.
         -2    1    1    2    0  503  0.31706373627E+03 -0.30758282866E+03  0.39427176477E+03  0.59210373570E+03  0.00000000000E+00 0. -1.
<mgrwt>
<rscale>  4 0.43500057E+03</rscale>
<asrwt>0</asrwt>
<pdfrwt beam="1">  1       21 0.20153080E+00 0.43500057E+03</pdfrwt>
<pdfrwt beam="2">  1       -2 0.49817380E-01 0.43500057E+03</pdfrwt>
<totfact> 0.35675281E+01</totfact>
</mgrwt>
</event>
<event>
 5    0  0.3040647E+000  0.3385684E+03  0.7546771E-02  0.1067407E+00
          2   -1    0    0  502    0 -0.00000000000E+00  0.00000000000E+00  0.36377004638E+04  0.36377004638E+04  0.00000000000E+00 0.  1.
         21   -1    0    0  503  502  0.00000000000E+00 -0.00000000000E+00 -0.74415138108E+03  0.74415138108E+03  0.00000000000E+00 0.  1.
         25    1    1    2    0    0  0.25275430434E+03 -0.14489140938E+03 -0.62850533528E+03  0.70393338843E+03  0.12500000000E+03 0.  0.
         21    1    1    2  503  501  0.99031953517E+01 -0.28804366728E+02 -0.67774735412E+02  0.74304640373E+02  0.00000000000E+00 0.  1.
          2    1    1    2  501    0 -0.26265749970E+03  0.17369577611E+03  0.35898291534E+04  0.36036138161E+04  0.00000000000E+00 0.  1.
<mgrwt>
<rscale>  4 0.33856839E+03</rscale>
<asrwt>0</asrwt>
<pdfrwt beam="1">  1       21 0.11448483E+00 0.33856839E+03</pdfrwt>
<pdfrwt beam="2">  1        2 0.55964621E+00 0.33856839E+03</pdfrwt>
<totfact> 0.54955423E+00</totfact>
</mgrwt>
</event>
<event>
 5    0  0.3040647E+000  0.1933662E+03  0.7546771E-02  0.1155460E+00
         21   -1    0    0  503  502  0.00000000000E+00  0.00000000000E+00  0.96780433182E+03  0.96780433182E+03  0.00000000000E+00 0. -1.
          3   -1    0    0  502    0 -0.00000000000E+00 -0.00000000000E+00 -0.31178531532E+03  0.31178531532E+03  0.00000000000E+00 0. -1.
         25    1    1    2    0    0  0.84987628576E+02 -0.19681151306E+03 -0.15488947697E+03  0.29252934684E+03  0.12500000000E+03 0.  0.
         21    1    1    2  503  501 -0.42362810456E+02  0.93428701843E+02  0.85916467366E+03  0.86526728038E+03  0.00000000000E+00 0. -1.
          3    1    1    2  501    0 -0.42624818120E+02  0.10338281122E+03 -0.48256180188E+02  0.12179301992E+03  0.00000000000E+00 0. -1.
<mgrwt>
<rscale>  4 0.19336620E+03</rscale>
<asrwt>0</asrwt>
<pdfrwt beam="1">  1       21 0.14889297E+00 0.19336620E+03</pdfrwt>
<pdfrwt beam="2">  1        3 0.47966972E-01 0.19336620E+03</pdfrwt>
<totfact> 0.65324288E+01</totfact>
</mgrwt>
</event>
<event>
 5    0  0.3040647E+000  0.3235768E+03  0.7546771E-02  0.1074015E+00
         21   -1    0    0  503  502  0.00000000000E+00  0.00000000000E+00  0.96237217009E+02  0.96237217009E+02  0.00000000000E+00 0.  1.
          1   -1    0    0  502    0 -0.00000000000E+00 -0.00000000000E+00 -0.19200594446E+04  0.19200594446E+04  0.00000000000E+00 0. -1.
         25    1    1    2    0    0  0.20392692418E+03  0.21453877149E+03 -0.33120367218E+03  0.46144766480E+03  0.12500000000E+03 0.  0.
         21    1    1    2  503  501  0.19354097415E+02 -0.15371132848E+02  0.69886748254E+01  0.25684516495E+02  0.00000000000E+00 0.  1.
          1    1    1    2  501    0 -0.22328102160E+03 -0.19916763864E+03 -0.14996072302E+04  0.15291644803E+04  0.00000000000E+00 0. -1.
<mgrwt>
<rscale>  4 0.32357683E+03</rscale>
<asrwt>0</asrwt>
<pdfrwt beam="1">  1       21 0.14805725E-01 0.32357683E+03</pdfrwt>
<pdfrwt beam="2">  1        1 0.29539378E+00 0.32357683E+03</pdfrwt>
<totfact> 0.16445634E+03</totfact>
</mgrwt>
</event>
<event>
 5    0  0.3040647E+000  0.4080291E+03  0.7546771E-02  0.1052468E+00
          3   -1    0    0  502    0 -0.00000000000E+00  0.00000000000E+00  0.26466331573E+04  0.26466331573E+04  0.00000000000E+00 0. -1.
         21   -1    0    0  503  502  0.00000000000E+00 -0.00000000000E+00 -0.13787189044E+03  0.13787189044E+03  0.00000000000E+00 0. -1.
         25    1    1    2    0    0 -0.24406937916E+03  0.10558026706E+03  0.37093297586E+03  0.47321594142E+03  0.12500000000E+03 0.  0.
         21    1    1    2  503  501  0.16773100070E+02  0.32129673778E+03  0.43459719616E+03  0.54072881697E+03  0.00000000000E+00 0. -1.
          3    1    1    2  501    0  0.22729627909E+03 -0.42687700484E+03  0.17032310948E+04  0.17705602893E+04  0.00000000000E+00 0. -1.
<mgrwt>
<rscale>  4 0.37587737E+03</rscale>
<asrwt>0</asrwt>
<pdfrwt beam="1">  1       21 0.21211062E-01 0.40802913E+03</pdfrwt>
<pdfrwt beam="2">  1        3 0.40717429E+00 0.40802913E+03</pdfrwt>
<totfact> 0.11638026E+01</totfact>
</mgrwt>
</event>
<event>
 5    0  0.3040647E+000  0.1699798E+03  0.7546771E-02  0.1177869E+00
          1   -1    0    0  502    0 -0.00000000000E+00  0.00000000000E+00  0.43869356924E+03  0.43869356924E+03  0.00000000000E+00 0.  1.
         21   -1    0    0  503  502  0.00000000000E+00 -0.00000000000E+00 -0.12005156870E+04  0.12005156870E+04  0.00000000000E+00 0. -1.
         25    1    1    2    0    0 -0.16883263964E+03  0.14006441050E+03  0.19096052268E+03  0.31656503363E+03  0.12500000000E+03 0.  0.
         21    1    1    2  503  501  0.10176642347E+03 -0.51504092033E+02 -0.11178626389E+04  0.11236663010E+04  0.00000000000E+00 0. -1.
          1    1    1    2  501    0  0.67066216167E+02 -0.88560318467E+02  0.16507999854E+03  0.19897792158E+03  0.00000000000E+00 0.  1.
<mgrwt>
<rscale>  4 0.16997976E+03</rscale>
<asrwt>0</asrwt>
<pdfrwt beam="1">  1       21 0.18469472E+00 0.16997976E+03</pdfrwt>
<pdfrwt beam="2">  1        1 0.67491320E-01 0.16997976E+03</pdfrwt>
<totfact> 0.10241038E+02</totfact>
</mgrwt>
</event>
<event>
 5    0  0.3040647E+000  0.3729112E+03  0.7546771E-02  0.1053585E+00
         21   -1    0    0  503  502  0.00000000000E+00  0.00000000000E+00  0.19018203122E+03  0.19018203122E+03  0.00000000000E+00 0.  1.
          2   -1    0    0  502    0 -0.00000000000E+00 -0.00000000000E+00 -0.96975933515E+03  0.96975933515E+03  0.00000000000E+00 0.  1.
         25    1    1    2    0    0  0.80909680316E+01 -0.33733417947E+03 -0.13549541154E+03  0.38450464100E+03  0.12500000000E+03 0.  0.
         21    1    1    2  503  501  0.36207074896E+02 -0.16873271238E+02 -0.10407886134E+01  0.39959264204E+02  0.00000000000E+00 0. -1.
          2    1    1    2  501    0 -0.44298042928E+02  0.35420745071E+03 -0.64304110377E+03  0.73547746116E+03  0.00000000000E+00 0.  1.
<mgrwt>
<rscale>  4 0.37291120E+03</rscale>
<asrwt>0</asrwt>
<pdfrwt beam="1">  1       21 0.29258775E-01 0.37291120E+03</pdfrwt>
<pdfrwt beam="2">  1        2 0.14919374E+00 0.37291120E+03</pdfrwt>
<totfact> 0.36859102E+03</totfact>
</mgrwt>
</event>
<event>
 5    0  0.3040647E+000  0.2415019E+03  0.7546771E-02  0.1118796E+00
          2   -1    0    0  502    0 -0.00000000000E+00  0.00000000000E+00  0.28674059900E+04  0.28674059900E+04  0.00000000000E+00 0. -1.
         21   -1    0    0  503  502  0.00000000000E+00 -0.00000000000E+00 -0.48664859033E+02  0.48664859033E+02  0.00000000000E+00 0. -1.
         25    1    1    2    0    0 -0.90548261528E+02  0.25787889179E+03  0.56511847864E+03  0.64006593832E+03  0.12500000000E+03 0.  0.
         21    1    1    2  503  501  0.75933497196E+02 -0.11981837818E+03  0.59897432597E+03  0.61554251106E+03  0.00000000000E+00 0. -1.
          2    1    1    2  501    0  0.14614764333E+02 -0.13806051361E+03  0.16546483264E+04  0.16604623997E+04  0.00000000000E+00 0. -1.
<mgrwt>
<rscale>  4 0.24150191E+03</rscale>
<asrwt>0</asrwt>
<pdfrwt beam="1">  1       21 0.74869037E-02 0.24150191E+03</pdfrwt>
<pdfrwt beam="2">  1        2 0.44113925E+00 0.24150191E+03</pdfrwt>
<totfact> 0.42949768E+03</totfact>
</mgrwt>
</event>
<event>
 5    0  0.3040647E+000  0.2543912E+03  0.7546771E-02  0.1110561E+00
          1   -1    0    0  502    0 -0.00000000000E+00  0.00000000000E+00  0.10794824560E+04  0.10794824560E+04  0.00000000000E+00 0. -1.
         21   -1    0    0  503  502  0.00000000000E+00 -0.00000000000E+00 -0.75399172896E+03  0.75399172896E+03  0.00000000000E+00 0. -1.
         25    1    1    2    0    0 -0.14746480315E+00 -0.20618449830E+03  0.54338206791E+03  0.59447551742E+03  0.12500000000E+03 0.  0.
         21    1    1    2  503  501  0.21449226074E+03 -0.47225913043E+01 -0.66579833087E+03  0.69951172268E+03  0.00000000000E+00 0. -1.
          1    1    1    2  501    0 -0.21434479594E+03  0.21090708961E+03  0.44790699003E+03  0.53948694489E+03  0.00000000000E+00 0. -1.
<mgrwt>
<rscale>  4 0.25439123E+03</rscale>
<asrwt>0</asrwt>
<pdfrwt beam="1">  1       21 0.11599873E+00 0.25439123E+03</pdfrwt>
<pdfrwt beam="2">  1        1 0.16607422E+00 0.25439123E+03</pdfrwt>
<totfact> 0.85850318E+01</totfact>
</mgrwt>
</event>
<event>
 5    0  0.3040647E+000  0.3563256E+03  0.7546771E-02  0.1060048E+00
         21   -1    0    0  503  502  0.00000000000E+00  0.00000000000E+00  0.37314568125E+03  0.37314568125E+03  0.00000000000E+00 0. -1.
          2   -1    0    0  502    0 -0.00000000000E+00 -0.00000000000E+00 -0.78118209144E+03  0.78118209144E+03  0.00000000000E+00 0. -1.
         25    1    1    2    0    0 -0.15601402111E+03  0.34010722545E+03 -0.36572245858E+03  0.53795094228E+03  0.12500000000E+03 0.  0.
         21    1    1    2  503  501  0.98825036664E+02 -0.31037982794E+03  0.18876582891E+03  0.37647651138E+03  0.00000000000E+00 0. -1.
          2    1    1    2  501    0  0.57188984448E+02 -0.29727397518E+02 -0.23107978052E+03  0.23990031903E+03  0.00000000000E+00 0. -1.
<mgrwt>
<rscale>  4 0.35632557E+03</rscale>
<asrwt>0</asrwt>
<pdfrwt beam="1">  1       21 0.57407029E-01 0.35632557E+03</pdfrwt>
<pdfrwt beam="2">  1        2 0.12018186E+00 0.35632557E+03</pdfrwt>
<totfact> 0.12335468E+03</totfact>
</mgrwt>
</event>
<event>
 5    0  0.3040647E+000  0.2021012E+03  0.7546771E-02  0.1147978E+00
         21   -1    0    0  503  502  0.00000000000E+00  0.00000000000E+00  0.64848794675E+02  0.64848794675E+02  0.00000000000E+00 0. -1.
          2   -1    0    0  502    0 -0.00000000000E+00 -0.00000000000E+00 -0.22069705280E+04  0.22069705280E+04  0.00000000000E+00 0. -1.
         25    1    1    2    0    0 -0.16817742752E+03 -0.13059066008E+03 -0.26092997705E+03  0.35923115198E+03  0.12500000000E+03 0.  0.
         21    1    1    2  503  501  0.33270118750E+02  0.53689589909E+02 -0.68189091635E+02  0.92947431833E+02  0.00000000000E+00 0. -1.
          2    1    1    2  501    0  0.13490730877E+03  0.76901070167E+02 -0.18130026646E+04  0.18196407389E+04  0.00000000000E+00 0. -1.
<mgrwt>
<rscale>  4 0.20210122E+03</rscale>
<asrwt>0</asrwt>
<pdfrwt beam="1">  1       21 0.99767392E-02 0.20210122E+03</pdfrwt>
<pdfrwt beam="2">  1        2 0.33953387E+00 0.20210122E+03</pdfrwt>
<totfact> 0.60925094E+03</totfact>
</mgrwt>
</event>
<event>
 5    0  0.3040647E+000  0.2798211E+03  0.7546771E-02  0.1095787E+00
          2   -1    0    0  502    0 -0.00000000000E+00  0.00000000000E+00  0.10094495485E+04  0.10094495485E+04  0.00000000000E+00 0.  1.
         21   -1    0    0  503  502  0.00000000000E+00 -0.00000000000E+00 -0.55424122345E+03  0.55424122345E+03  0.00000000000E+00 0.  1.
         25    1    1    2    0    0 -0.11118520553E+03  0.22114858675E+03 -0.45701238353E+03  0.53455978716E+03  0.12500000000E+03 0.  0.
         21    1    1    2  503  501  0.41920257695E+02  0.19667336977E+02 -0.29326480839E+02  0.54810169014E+02  0.00000000000E+00 0.  1.
          2    1    1    2  501    0  0.69264947837E+02 -0.24081592373E+03  0.94154718945E+03  0.97432081579E+03  0.00000000000E+00 0.  1.
<mgrwt>
<rscale>  4 0.27982114E+03</rscale>
<asrwt>0</asrwt>
<pdfrwt beam="1">  1       21 0.85267881E-01 0.27982114E+03</pdfrwt>
<pdfrwt beam="2">  1        2 0.15529993E+00 0.27982114E+03</pdfrwt>
<totfact> 0.37162762E+02</totfact>
</mgrwt>
</event>
<event>
 5    0  0.3040647E+000  0.1946367E+03  0.7546771E-02  0.1154345E+00
         21   -1    0    0  501  502  0.00000000000E+00  0.00000000000E+00  0.73432139346E+02  0.73432139346E+02  0.00000000000E+00 0. -1.
         -2   -1    0    0    0  501 -0.00000000000E+00 -0.00000000000E+00 -0.99458423224E+03  0.99458423224E+03  0.00000000000E+00 0.  1.
         25    1    1    2    0    0 -0.17396484039E+03  0.10616345941E+03 -0.60026877550E+03  0.64612850784E+03  0.12500000000E+03 0.  0.
         21    1    1    2  503  502  0.11918701857E+03 -0.73439042707E+02 -0.58277958896E+02  0.15164154735E+03  0.00000000000E+00 0. -1.
         -2    1    1    2    0  503  0.54777821822E+02 -0.32724416708E+02 -0.26260535850E+03  0.27024631640E+03  0.00000000000E+00 0.  1.
<mgrwt>
<rscale>  4 0.19463669E+03</rscale>
<asrwt>0</asrwt>
<pdfrwt beam="1">  1       21 0.11297253E-01 0.19463669E+03</pdfrwt>
<pdfrwt beam="2">  1       -2 0.15301295E+00 0.19463669E+03</pdfrwt>
<totfact> 0.16274736E+03</totfact>
</mgrwt>
</event>
<event>
 5    0  0.3040647E+000  0.2412431E+03  0.7546771E-02  0.1118967E+00
         -3   -1    0    0    0  501 -0.00000000000E+00  0.00000000000E+00  0.11793692552E+03  0.11793692552E+03  0.00000000000E+00 0. -1.
         21   -1    0    0  501  502  0.00000000000E+00 -0.00000000000E+00 -0.72831011148E+03  0.72831011148E+03  0.00000000000E+00 0.  1.
         25    1    1    2    0    0 -0.10152719100E+03  0.22451775236E+03 -0.20194296038E+03  0.34223084443E+03  0.12500000000E+03 0.  0.
         21    1    1    2  503  502 -0.10602953926E+00 -0.76416435218E+02 -0.26002001104E+03  0.27101639979E+03  0.00000000000E+00 0.  1.
         -3    1    1    2    0  503  0.10163322054E+03 -0.14810131714E+03 -0.14841021454E+03  0.23299979278E+03  0.00000000000E+00 0. -1.
<mgrwt>
<rscale>  4 0.24124308E+03</rscale>
<asrwt>0</asrwt>
<pdfrwt beam="1">  1       21 0.11204771E+00 0.24124308E+03</pdfrwt>
<pdfrwt beam="2">  1       -3 0.18144143E-01 0.24124308E+03</pdfrwt>
<totfact> 0.81250459E+02</totfact>
</mgrwt>
</event>
<event>
 5    0  0.3040647E+000  0.1955682E+03  0.7546771E-02  0.1153533E+00
         21   -1    0    0  503  502  0.00000000000E+00  0.00000000000E+00  0.13369254275E+03  0.13369254275E+03  0.00000000000E+00 0.  1.
          2   -1    0    0  502    0 -0.00000000000E+00 -0.00000000000E+00 -0.93132416028E+03  0.93132416028E+03  0.00000000000E+00 0.  1.
         25    1    1    2    0    0  0.18381259306E+03  0.79381575608E+02 -0.43980585499E+02  0.24009955397E+03  0.12500000000E+03 0.  0.
         21    1    1    2  503  501 -0.50169767448E+02 -0.18575138972E+02  0.35467130467E+01  0.53615487753E+02  0.00000000000E+00 0.  1.
          2    1    1    2  501    0 -0.13364282562E+03 -0.60806436636E+02 -0.75719774508E+03  0.77130166130E+03  0.00000000000E+00 0.  1.
<mgrwt>
<rscale>  4 0.19556821E+03</rscale>
<asrwt>0</asrwt>
<pdfrwt beam="1">  1       21 0.20568083E-01 0.19556821E+03</pdfrwt>
<pdfrwt beam="2">  1        2 0.14328064E+00 0.19556821E+03</pdfrwt>
<totfact> 0.80561160E+03</totfact>
</mgrwt>
</event>
<event>
 5    0  0.3040647E+000  0.2464387E+03  0.7546771E-02  0.1115576E+00
         21   -1    0    0  503  502  0.00000000000E+00  0.00000000000E+00  0.65502475525E+02  0.65502475525E+02  0.00000000000E+00 0.  1.
          2   -1    0    0  502    0 -0.00000000000E+00 -0.00000000000E+00 -0.10217341798E+04  0.10217341798E+04  0.00000000000E+00 0.  1.
         25    1    1    2    0    0  0.52355984759E+02 -0.20582973968E+03 -0.26953757337E+03  0.36521573670E+03  0.12500000000E+03 0.  0.
         21    1    1    2  503  501  0.44594268547E+01  0.32353152990E+02 -0.50371134056E+02  0.60032192550E+02  0.00000000000E+00 0.  1.
          2    1    1    2  501    0 -0.56815411614E+02  0.17347658669E+03 -0.63632299685E+03  0.66198872608E+03  0.00000000000E+00 0.  1.
<mgrwt>
<rscale>  4 0.24643870E+03</rscale>
<asrwt>0</asrwt>
<pdfrwt beam="1">  1       21 0.10077303E-01 0.24643870E+03</pdfrwt>
<pdfrwt beam="2">  1        2 0.15718988E+00 0.24643870E+03</pdfrwt>
<totfact> 0.25669382E+04</totfact>
</mgrwt>
</event>
<event>
 5    0  0.3040647E+000  0.2888385E+03  0.7546771E-02  0.1090957E+00
          2   -1    0    0  502    0 -0.00000000000E+00  0.00000000000E+00  0.16600744138E+04  0.16600744138E+04  0.00000000000E+00 0.  1.
         21   -1    0    0  503  502  0.00000000000E+00 -0.00000000000E+00 -0.96251587167E+03  0.96251587167E+03  0.00000000000E+00 0. -1.
         25    1    1    2    0    0 -0.67902297900E+02 -0.20253737085E+03  0.15338664959E+03  0.29117790596E+03  0.12500000000E+03 0.  0.
         21    1    1    2  503  501 -0.33485821365E+02 -0.46629262318E+02 -0.88009449172E+03  0.88196479674E+03  0.00000000000E+00 0. -1.
          2    1    1    2  501    0  0.10138811926E+03  0.24916663317E+03  0.14242663843E+04  0.14494475828E+04  0.00000000000E+00 0.  1.
<mgrwt>
<rscale>  4 0.28883854E+03</rscale>
<asrwt>0</asrwt>
<pdfrwt beam="1">  1       21 0.14807936E+00 0.28883854E+03</pdfrwt>
<pdfrwt beam="2">  1        2 0.25539606E+00 0.28883854E+03</pdfrwt>
<totfact> 0.40911406E+01</totfact>
</mgrwt>
</event>
<event>
 5    0  0.3040647E+000  0.8454842E+03  0.7546771E-02  0.9496418E-01
          2   -1    0    0  502    0 -0.00000000000E+00  0.00000000000E+00  0.12878675133E+04  0.12878675133E+04  0.00000000000E+00 0.  1.
         21   -1    0    0  503  502  0.00000000000E+00 -0.00000000000E+00 -0.56958787554E+03  0.56958787554E+03  0.00000000000E+00 0.  1.
         25    1    1    2    0    0  0.83654757876E+03 -0.22349070366E+02  0.43338403124E+03  0.95066190153E+03  0.12500000000E+03 0.  0.
         21    1    1    2  503  501 -0.21987432989E+01 -0.23717074463E+02 -0.37456559769E+00  0.23821721024E+02  0.00000000000E+00 0.  1.
          2    1    1    2  501    0 -0.83434883546E+03  0.46066144829E+02  0.28527017210E+03  0.88297176627E+03  0.00000000000E+00 0.  1.
<mgrwt>
<rscale>  4 0.84548423E+03</rscale>
<asrwt>0</asrwt>
<pdfrwt beam="1">  1       21 0.87628905E-01 0.84548423E+03</pdfrwt>
<pdfrwt beam="2">  1        2 0.19813346E+00 0.84548423E+03</pdfrwt>
<totfact> 0.20300618E+02</totfact>
</mgrwt>
</event>
<event>
 5    0  0.3040647E+000  0.1800587E+03  0.7546771E-02  0.1167746E+00
          2   -1    0    0  502    0 -0.00000000000E+00  0.00000000000E+00  0.28739798804E+04  0.28739798804E+04  0.00000000000E+00 0. -1.
         21   -1    0    0  503  502  0.00000000000E+00 -0.00000000000E+00 -0.22065886286E+02  0.22065886286E+02  0.00000000000E+00 0.  1.
         25    1    1    2    0    0  0.26888869758E+02  0.20510623208E+03  0.18956356638E+04  0.19109817235E+04  0.12500000000E+03 0.  0.
         21    1    1    2  503  501 -0.22433629267E+02 -0.11518068347E+03  0.29175713239E+03  0.31447111452E+03  0.00000000000E+00 0.  1.
          2    1    1    2  501    0 -0.44552404915E+01 -0.89925548617E+02  0.66452119797E+03  0.67059292870E+03  0.00000000000E+00 0. -1.
<mgrwt>
<rscale>  4 0.18005873E+03</rscale>
<asrwt>0</asrwt>
<pdfrwt beam="1">  1       21 0.33947540E-02 0.18005873E+03</pdfrwt>
<pdfrwt beam="2">  1        2 0.44215045E+00 0.18005873E+03</pdfrwt>
<totfact> 0.16845100E+04</totfact>
</mgrwt>
</event>
<event>
 5    0  0.3040647E+000  0.4768567E+03  0.7546771E-02  0.1020003E+00
         21   -1    0    0  503  502  0.00000000000E+00  0.00000000000E+00  0.33645983162E+03  0.33645983162E+03  0.00000000000E+00 0.  1.
          2   -1    0    0  502    0 -0.00000000000E+00 -0.00000000000E+00 -0.18293288217E+04  0.18293288217E+04  0.00000000000E+00 0. -1.
         25    1    1    2    0    0 -0.31803280345E+03 -0.22993358537E+03  0.42185370869E+02  0.41402768418E+03  0.12500000000E+03 0.  0.
         21    1    1    2  503  501 -0.76110544348E+02 -0.26780168043E+02  0.52319084711E+02  0.96162773392E+02  0.00000000000E+00 0. -1.
          2    1    1    2  501    0  0.39414334780E+03  0.25671375341E+03 -0.15873734457E+04  0.16555981958E+04  0.00000000000E+00 0. -1.
<mgrwt>
<rscale>  4 0.47685671E+03</rscale>
<asrwt>0</asrwt>
<pdfrwt beam="1">  1       21 0.51763052E-01 0.47685671E+03</pdfrwt>
<pdfrwt beam="2">  1        2 0.28143520E+00 0.47685671E+03</pdfrwt>
<totfact> 0.36397544E+02</totfact>
</mgrwt>
</event>
<event>
 5    0  0.3040647E+000  0.2882483E+03  0.7546771E-02  0.1091267E+00
         21   -1    0    0  503  502  0.00000000000E+00  0.00000000000E+00  0.11083570398E+03  0.11083570398E+03  0.00000000000E+00 0.  1.
          4   -1    0    0  502    0 -0.00000000000E+00 -0.00000000000E+00 -0.11049773766E+04  0.11049773766E+04  0.00000000000E+00 0.  1.
         25    1    1    2    0    0 -0.92286796251E+02  0.23791342868E+03 -0.50851346278E+03  0.58252089588E+03  0.12500000000E+03 0.  0.
         21    1    1    2  503  501  0.48458050026E+02  0.24774266471E+02  0.23058933914E+02  0.59107201970E+02  0.00000000000E+00 0.  1.
          4    1    1    2  501    0  0.43828746225E+02 -0.26268769515E+03 -0.50868714380E+03  0.57418498277E+03  0.00000000000E+00 0.  1.
<mgrwt>
<rscale>  4 0.28824828E+03</rscale>
<asrwt>0</asrwt>
<pdfrwt beam="1">  1       21 0.17051647E-01 0.28824828E+03</pdfrwt>
<pdfrwt beam="2">  1        4 0.16999652E+00 0.28824828E+03</pdfrwt>
<totfact> 0.29456620E+02</totfact>
</mgrwt>
</event>
<event>
 5    0  0.3040647E+000  0.2661498E+03  0.7546771E-02  0.1103504E+00
          1   -1    0    0  502    0 -0.00000000000E+00  0.00000000000E+00  0.82613512049E+03  0.82613512049E+03  0.00000000000E+00 0. -1.
         21   -1    0    0  503  502  0.00000000000E+00 -0.00000000000E+00 -0.99294220679E+03  0.99294220679E+03  0.00000000000E+00 0. -1.
         25    1    1    2    0    0 -0.26771736133E+02 -0.23523301850E+03 -0.43584860513E+03  0.51150787427E+03  0.12500000000E+03 0.  0.
         21    1    1    2  503  501 -0.85844377202E+02  0.28372838412E+02 -0.49750565791E+03  0.50565418490E+03  0.00000000000E+00 0. -1.
          1    1    1    2  501    0  0.11261611333E+03  0.20686018009E+03  0.76654717673E+03  0.80191526812E+03  0.00000000000E+00 0. -1.
<mgrwt>
<rscale>  4 0.26614980E+03</rscale>
<asrwt>0</asrwt>
<pdfrwt beam="1">  1       21 0.15276034E+00 0.26614980E+03</pdfrwt>
<pdfrwt beam="2">  1        1 0.12709771E+00 0.26614980E+03</pdfrwt>
<totfact> 0.65673497E+01</totfact>
</mgrwt>
</event>
<event>
 5    0  0.3040647E+000  0.2844878E+03  0.7546771E-02  0.1093263E+00
         21   -1    0    0  503  502  0.00000000000E+00  0.00000000000E+00  0.68928676854E+03  0.68928676854E+03  0.00000000000E+00 0. -1.
          2   -1    0    0  502    0 -0.00000000000E+00 -0.00000000000E+00 -0.15806338448E+04  0.15806338448E+04  0.00000000000E+00 0.  1.
         25    1    1    2    0    0  0.32021991692E+03  0.18102317062E+03  0.17885904049E+03  0.42769818782E+03  0.12500000000E+03 0.  0.
         21    1    1    2  503  501 -0.91268070074E+02 -0.76808883118E+02  0.36558876469E+03  0.38455768099E+03  0.00000000000E+00 0. -1.
          2    1    1    2  501    0 -0.22895184685E+03 -0.10421428750E+03 -0.14357948815E+04  0.14576647446E+04  0.00000000000E+00 0.  1.
<mgrwt>
<rscale>  4 0.28448785E+03</rscale>
<asrwt>0</asrwt>
<pdfrwt beam="1">  1       21 0.10604412E+00 0.28448785E+03</pdfrwt>
<pdfrwt beam="2">  1        2 0.24317443E+00 0.28448785E+03</pdfrwt>
<totfact> 0.10552330E+02</totfact>
</mgrwt>
</event>
<event>
 5    0  0.3040647E+000  0.2211576E+03  0.7546771E-02  0.1133023E+00
          2   -1    0    0  502    0 -0.00000000000E+00  0.00000000000E+00  0.16424679373E+04  0.16424679373E+04  0.00000000000E+00 0.  1.
         21   -1    0    0  503  502  0.00000000000E+00 -0.00000000000E+00 -0.19830832787E+03  0.19830832787E+03  0.00000000000E+00 0. -1.
         25    1    1    2    0    0  0.17412547312E+03  0.18952339478E+03  0.99221258669E+03  0.10326420555E+04  0.12500000000E+03 0.  0.
         21    1    1    2  503  501 -0.13452193047E+03 -0.11826786949E+03 -0.12948186861E+03  0.22101808304E+03  0.00000000000E+00 0. -1.
          2    1    1    2  501    0 -0.39603542653E+02 -0.71255525295E+02  0.58142889139E+03  0.58711612669E+03  0.00000000000E+00 0.  1.
<mgrwt>
<rscale>  4 0.22115761E+03</rscale>
<asrwt>0</asrwt>
<pdfrwt beam="1">  1       21 0.30508975E-01 0.22115761E+03</pdfrwt>
<pdfrwt beam="2">  1        2 0.25268737E+00 0.22115761E+03</pdfrwt>
<totfact> 0.14980122E+03</totfact>
</mgrwt>
</event>
<event>
 5    0  0.3040647E+000  0.3332580E+03  0.7546771E-02  0.1069704E+00
         21   -1    0    0  503  502  0.00000000000E+00  0.00000000000E+00  0.69861121759E+02  0.69861121759E+02  0.00000000000E+00 0. -1.
          2   -1    0    0  502    0 -0.00000000000E+00 -0.00000000000E+00 -0.20962104388E+04  0.20962104388E+04  0.00000000000E+00 0. -1.
         25    1    1    2    0    0  0.23793565776E+03  0.20611883191E+03 -0.14348645776E+04  0.14742997342E+04  0.12500000000E+03 0.  0.
         21    1    1    2  503  501 -0.31209711867E+02  0.10037186924E+02 -0.46514854019E+01  0.33112347434E+02  0.00000000000E+00 0.  1.
          2    1    1    2  501    0 -0.20672594589E+03 -0.21615601883E+03 -0.58683325406E+03  0.65865947898E+03  0.00000000000E+00 0. -1.
<mgrwt>
<rscale>  4 0.33325800E+03</rscale>
<asrwt>0</asrwt>
<pdfrwt beam="1">  1       21 0.10747865E-01 0.33325800E+03</pdfrwt>
<pdfrwt beam="2">  1        2 0.32249390E+00 0.33325800E+03</pdfrwt>
<totfact> 0.58083009E+03</totfact>
</mgrwt>
</event>
<event>
 5    0  0.3040647E+000  0.3539211E+03  0.7546771E-02  0.1061017E+00
         21   -1    0    0  503  502  0.00000000000E+00  0.00000000000E+00  0.65436852020E+03  0.65436852020E+03  0.00000000000E+00 0. -1.
          4   -1    0    0  502    0 -0.00000000000E+00 -0.00000000000E+00 -0.88966673520E+03  0.88966673520E+03  0.00000000000E+00 0. -1.
         25    1    1    2    0    0  0.31264245654E+03  0.18495266778E+03 -0.14381710925E+03  0.41019648446E+03  0.12500000000E+03 0.  0.
         21    1    1    2  503  501 -0.16833549221E+02 -0.58711370317E+02  0.47688728668E+03  0.48078256789E+03  0.00000000000E+00 0. -1.
          4    1    1    2  501    0 -0.29580890731E+03 -0.12624129747E+03 -0.56836839243E+03  0.65305620306E+03  0.00000000000E+00 0. -1.
<mgrwt>
<rscale>  4 0.35392112E+03</rscale>
<asrwt>0</asrwt>
<pdfrwt beam="1">  1       21 0.10067208E+00 0.35392112E+03</pdfrwt>
<pdfrwt beam="2">  1        4 0.13687180E+00 0.35392112E+03</pdfrwt>
<totfact> 0.12777626E+01</totfact>
</mgrwt>
</event>
<event>
 5    0  0.3040647E+000  0.2369247E+03  0.7546771E-02  0.1121859E+00
         -1   -1    0    0    0  501 -0.00000000000E+00  0.00000000000E+00  0.13374289468E+04  0.13374289468E+04  0.00000000000E+00 0.  1.
         21   -1    0    0  501  502  0.00000000000E+00 -0.00000000000E+00 -0.10678428340E+04  0.10678428340E+04  0.00000000000E+00 0.  1.
         25    1    1    2    0    0 -0.17032712589E+03 -0.16544881463E+03 -0.75606061202E+03  0.80227008490E+03  0.12500000000E+03 0.  0.
         21    1    1    2  503  502  0.18989025934E+03 -0.35400302012E+02 -0.24750343284E+03  0.31395770613E+03  0.00000000000E+00 0.  1.
         -1    1    1    2    0  503 -0.19563133447E+02  0.20084911665E+03  0.12731501576E+04  0.12890439898E+04  0.00000000000E+00 0.  1.
<mgrwt>
<rscale>  4 0.23692468E+03</rscale>
<asrwt>0</asrwt>
<pdfrwt beam="1">  1       21 0.16428351E+00 0.23692468E+03</pdfrwt>
<pdfrwt beam="2">  1       -1 0.20575830E+00 0.23692468E+03</pdfrwt>
<totfact> 0.32550829E+00</totfact>
</mgrwt>
</event>
<event>
 5    0  0.3040647E+000  0.2503405E+03  0.7546771E-02  0.1113090E+00
         21   -1    0    0  503  502  0.00000000000E+00  0.00000000000E+00  0.11939934086E+03  0.11939934086E+03  0.00000000000E+00 0.  1.
          2   -1    0    0  502    0 -0.00000000000E+00 -0.00000000000E+00 -0.64325690703E+03  0.64325690703E+03  0.00000000000E+00 0.  1.
         25    1    1    2    0    0 -0.13862914963E+03 -0.15370092822E+03 -0.37369390658E+03  0.44510015982E+03  0.12500000000E+03 0.  0.
         21    1    1    2  503  501 -0.15928681658E+02 -0.21554346608E+02  0.15645227576E+02  0.31033625359E+02  0.00000000000E+00 0.  1.
          2    1    1    2  501    0  0.15455783129E+03  0.17525527483E+03 -0.16580888717E+03  0.28652246270E+03  0.00000000000E+00 0.  1.
<mgrwt>
<rscale>  4 0.25034050E+03</rscale>
<asrwt>0</asrwt>
<pdfrwt beam="1">  1       21 0.18369130E-01 0.25034050E+03</pdfrwt>
<pdfrwt beam="2">  1        2 0.98962600E-01 0.25034050E+03</pdfrwt>
<totfact> 0.15637561E+04</totfact>
</mgrwt>
</event>
<event>
 5    0  0.3040647E+000  0.2683255E+03  0.7546771E-02  0.1102242E+00
         21   -1    0    0  503  502  0.00000000000E+00  0.00000000000E+00  0.18823744463E+03  0.18823744463E+03  0.00000000000E+00 0.  1.
          1   -1    0    0  502    0 -0.00000000000E+00 -0.00000000000E+00 -0.12596698772E+04  0.12596698772E+04  0.00000000000E+00 0.  1.
         25    1    1    2    0    0 -0.21293822101E+03 -0.16228326839E+03 -0.54078967241E+03  0.61624428188E+03  0.12500000000E+03 0.  0.
         21    1    1    2  503  501  0.39601810388E+02  0.22377170918E+02  0.12828052788E+03  0.13610633709E+03  0.00000000000E+00 0.  1.
          1    1    1    2  501    0  0.17333641062E+03  0.13990609747E+03 -0.65892328806E+03  0.69555670287E+03  0.00000000000E+00 0.  1.
<mgrwt>
<rscale>  4 0.26832555E+03</rscale>
<asrwt>0</asrwt>
<pdfrwt beam="1">  1       21 0.28959606E-01 0.26832555E+03</pdfrwt>
<pdfrwt beam="2">  1        1 0.19379537E+00 0.26832555E+03</pdfrwt>
<totfact> 0.12937139E+03</totfact>
</mgrwt>
</event>
<event>
 5    0  0.3040647E+000  0.2973547E+03  0.7546771E-02  0.1086570E+00
         21   -1    0    0  501  502  0.00000000000E+00  0.00000000000E+00  0.49863478324E+03  0.49863478324E+03  0.00000000000E+00 0.  1.
         -2   -1    0    0    0  501 -0.00000000000E+00 -0.00000000000E+00 -0.26531715480E+03  0.26531715480E+03  0.00000000000E+00 0. -1.
         25    1    1    2    0    0  0.22442932145E+03  0.17345863589E+03  0.30269418429E+03  0.43324956768E+03  0.12500000000E+03 0.  0.
         21    1    1    2  503  502 -0.55056616885E+01 -0.21511767261E+02  0.37500798740E+02  0.43581858009E+02  0.00000000000E+00 0.  1.
         -2    1    1    2    0  503 -0.21892365976E+03 -0.15194686863E+03 -0.10687735459E+03  0.28712051235E+03  0.00000000000E+00 0. -1.
<mgrwt>
<rscale>  4 0.29735475E+03</rscale>
<asrwt>0</asrwt>
<pdfrwt beam="1">  1       21 0.76713043E-01 0.29735475E+03</pdfrwt>
<pdfrwt beam="2">  1       -2 0.40818024E-01 0.29735475E+03</pdfrwt>
<totfact> 0.67402688E+02</totfact>
</mgrwt>
</event>
<event>
 5    0  0.3040647E+000  0.2129157E+03  0.7546771E-02  0.1139278E+00
         21   -1    0    0  503  502  0.00000000000E+00  0.00000000000E+00  0.12824824276E+03  0.12824824276E+03  0.00000000000E+00 0. -1.
          2   -1    0    0  502    0 -0.00000000000E+00 -0.00000000000E+00 -0.16180057648E+04  0.16180057648E+04  0.00000000000E+00 0. -1.
         25    1    1    2    0    0  0.15475016071E+03 -0.19458704568E+03 -0.11493073889E+04  0.11825160484E+04  0.12500000000E+03 0.  0.
         21    1    1    2  503  501 -0.70722095466E+02  0.98645172635E+02  0.65711476288E+02  0.13802348709E+03  0.00000000000E+00 0. -1.
          2    1    1    2  501    0 -0.84028065242E+02  0.95941873043E+02 -0.40616160946E+03  0.42571447209E+03  0.00000000000E+00 0. -1.
<mgrwt>
<rscale>  4 0.21291570E+03</rscale>
<asrwt>0</asrwt>
<pdfrwt beam="1">  1       21 0.19730500E-01 0.21291570E+03</pdfrwt>
<pdfrwt beam="2">  1        2 0.24892394E+00 0.21291570E+03</pdfrwt>
<totfact> 0.35659803E+03</totfact>
</mgrwt>
</event>
<event>
 5    0  0.3040647E+000  0.2147606E+03  0.7546771E-02  0.1137851E+00
          2   -1    0    0  502    0 -0.00000000000E+00  0.00000000000E+00  0.89363617498E+03  0.89363617498E+03  0.00000000000E+00 0. -1.
         21   -1    0    0  503  502  0.00000000000E+00 -0.00000000000E+00 -0.28965787347E+03  0.28965787347E+03  0.00000000000E+00 0.  1.
         25    1    1    2    0    0 -0.90029479373E+02  0.20123257156E+03 -0.52170051498E+02  0.25874035110E+03  0.12500000000E+03 0.  0.
         21    1    1    2  503  501  0.10996213382E+02 -0.48597795836E+02 -0.11982505071E+03  0.12977174287E+03  0.00000000000E+00 0. -1.
          2    1    1    2  501    0  0.79033265991E+02 -0.15263477573E+03  0.77597340371E+03  0.79478195448E+03  0.00000000000E+00 0. -1.
<mgrwt>
<rscale>  4 0.21476065E+03</rscale>
<asrwt>0</asrwt>
<pdfrwt beam="1">  1       21 0.44562750E-01 0.21476065E+03</pdfrwt>
<pdfrwt beam="2">  1        2 0.13748249E+00 0.21476065E+03</pdfrwt>
<totfact> 0.18602358E+03</totfact>
</mgrwt>
</event>
<event>
 5    0  0.3040647E+000  0.1851722E+03  0.7546771E-02  0.1162889E+00
         21   -1    0    0  503  502  0.00000000000E+00  0.00000000000E+00  0.26752120416E+04  0.26752120416E+04  0.00000000000E+00 0.  1.
          2   -1    0    0  502    0 -0.00000000000E+00 -0.00000000000E+00 -0.57967088892E+03  0.57967088892E+03  0.00000000000E+00 0. -1.
         25    1    1    2    0    0 -0.20454298865E+03  0.12053987081E+03  0.62544647494E+03  0.68057033999E+03  0.12500000000E+03 0.  0.
         21    1    1    2  503  501  0.11520726379E+03 -0.58242537045E+02  0.20147465686E+04  0.20188780653E+04  0.00000000000E+00 0.  1.
          2    1    1    2  501    0  0.89335724864E+02 -0.62297333763E+02 -0.54465189091E+03  0.55543452521E+03  0.00000000000E+00 0. -1.
<mgrwt>
<rscale>  4 0.18517220E+03</rscale>
<asrwt>0</asrwt>
<pdfrwt beam="1">  1       21 0.41157107E+00 0.18517220E+03</pdfrwt>
<pdfrwt beam="2">  1        2 0.89180139E-01 0.18517220E+03</pdfrwt>
<totfact> 0.49340652E+00</totfact>
</mgrwt>
</event>
<event>
 5    0  0.3040647E+000  0.2491168E+03  0.7546771E-02  0.1113864E+00
         21   -1    0    0  503  502  0.00000000000E+00  0.00000000000E+00  0.95640967045E+03  0.95640967045E+03  0.00000000000E+00 0.  1.
          4   -1    0    0  502    0 -0.00000000000E+00 -0.00000000000E+00 -0.97438986723E+02  0.97438986723E+02  0.00000000000E+00 0.  1.
         25    1    1    2    0    0 -0.93992890163E+02  0.19366678990E+03  0.63300709411E+03  0.68019443552E+03  0.12500000000E+03 0.  0.
         21    1    1    2  503  501  0.61585867424E+02  0.27539236682E+02  0.88226207236E+02  0.11106346054E+03  0.00000000000E+00 0.  1.
          4    1    1    2  501    0  0.32407022739E+02 -0.22120602659E+03  0.13773738238E+03  0.26259076112E+03  0.00000000000E+00 0.  1.
<mgrwt>
<rscale>  4 0.24911678E+03</rscale>
<asrwt>0</asrwt>
<pdfrwt beam="1">  1       21 0.14713994E+00 0.24911678E+03</pdfrwt>
<pdfrwt beam="2">  1        4 0.14990614E-01 0.24911678E+03</pdfrwt>
<totfact> 0.49365027E+02</totfact>
</mgrwt>
</event>
<event>
 5    0  0.3040647E+000  0.2677444E+03  0.7546771E-02  0.1102578E+00
          2   -1    0    0  502    0 -0.00000000000E+00  0.00000000000E+00  0.77127535341E+03  0.77127535341E+03  0.00000000000E+00 0. -1.
         21   -1    0    0  503  502  0.00000000000E+00 -0.00000000000E+00 -0.22764970108E+03  0.22764970108E+03  0.00000000000E+00 0. -1.
         25    1    1    2    0    0 -0.84574619692E+02  0.21098147564E+03  0.99729720306E+02  0.27791557436E+03  0.12500000000E+03 0.  0.
         21    1    1    2  503  501  0.12104936344E+02  0.17325935703E+02 -0.11290769057E+03  0.11486889971E+03  0.00000000000E+00 0. -1.
          2    1    1    2  501    0  0.72469683348E+02 -0.22830741135E+03  0.55680362260E+03  0.60614058041E+03  0.00000000000E+00 0. -1.
<mgrwt>
<rscale>  4 0.26774441E+03</rscale>
<asrwt>0</asrwt>
<pdfrwt beam="1">  1       21 0.35023031E-01 0.26774441E+03</pdfrwt>
<pdfrwt beam="2">  1        2 0.11865775E+00 0.26774441E+03</pdfrwt>
<totfact> 0.35947634E+03</totfact>
</mgrwt>
</event>
<event>
 5    0  0.3040647E+000  0.2921005E+03  0.7546771E-02  0.1089258E+00
          1   -1    0    0  502    0 -0.00000000000E+00  0.00000000000E+00  0.20402170484E+04  0.20402170484E+04  0.00000000000E+00 0. -1.
         21   -1    0    0  503  502  0.00000000000E+00 -0.00000000000E+00 -0.76891941831E+03  0.76891941831E+03  0.00000000000E+00 0.  1.
         25    1    1    2    0    0 -0.17079392070E+03 -0.20083017055E+03 -0.72442482670E+03  0.78097352727E+03  0.12500000000E+03 0.  0.
         21    1    1    2  503  501 -0.12570854483E+02 -0.23659414363E+02  0.26365918024E+02  0.37589305709E+02  0.00000000000E+00 0.  1.
          1    1    1    2  501    0  0.18336477518E+03  0.22448958491E+03  0.19693565387E+04  0.19905736337E+04  0.00000000000E+00 0. -1.
<mgrwt>
<rscale>  4 0.29210052E+03</rscale>
<asrwt>0</asrwt>
<pdfrwt beam="1">  1       21 0.11829530E+00 0.29210052E+03</pdfrwt>
<pdfrwt beam="2">  1        1 0.31387954E+00 0.29210052E+03</pdfrwt>
<totfact> 0.18090541E+01</totfact>
</mgrwt>
</event>
<event>
 5    0  0.3040647E+000  0.2593694E+03  0.7546771E-02  0.1107523E+00
          2   -1    0    0  502    0 -0.00000000000E+00  0.00000000000E+00  0.24712788148E+03  0.24712788148E+03  0.00000000000E+00 0.  1.
         21   -1    0    0  503  502  0.00000000000E+00 -0.00000000000E+00 -0.35786643409E+03  0.35786643409E+03  0.00000000000E+00 0. -1.
         25    1    1    2    0    0 -0.11479361588E+03  0.18174099032E+03 -0.14875964355E+03  0.28976161471E+03  0.12500000000E+03 0.  0.
         21    1    1    2  503  501  0.51583723270E+01  0.22400123961E+02 -0.59532695163E+02  0.63816268709E+02  0.00000000000E+00 0. -1.
          2    1    1    2  501    0  0.10963524356E+03 -0.20414111428E+03  0.97553786101E+02  0.25141643215E+03  0.00000000000E+00 0.  1.
<mgrwt>
<rscale>  4 0.25936940E+03</rscale>
<asrwt>0</asrwt>
<pdfrwt beam="1">  1       21 0.55056374E-01 0.25936940E+03</pdfrwt>
<pdfrwt beam="2">  1        2 0.38019674E-01 0.25936940E+03</pdfrwt>
<totfact> 0.51038008E+03</totfact>
</mgrwt>
</event>
<event>
 5    0  0.3040647E+000  0.3112609E+03  0.7546771E-02  0.1079743E+00
          1   -1    0    0  502    0 -0.00000000000E+00  0.00000000000E+00  0.11463372949E+04  0.11463372949E+04  0.00000000000E+00 0.  1.
         21   -1    0    0  503  502  0.00000000000E+00 -0.00000000000E+00 -0.96734416918E+02  0.96734416918E+02  0.00000000000E+00 0.  1.
         25    1    1    2    0    0 -0.29883549575E+03  0.51445769072E-02  0.43275298001E+03  0.54055785560E+03  0.12500000000E+03 0.  0.
         21    1    1    2  503  501  0.27243834533E+03  0.92082517342E+01  0.40111583747E+03  0.48497562720E+03  0.00000000000E+00 0.  1.
          1    1    1    2  501    0  0.26397150426E+02 -0.92133963111E+01  0.21573406048E+03  0.21753822899E+03  0.00000000000E+00 0.  1.
<mgrwt>
<rscale>  4 0.31126092E+03</rscale>
<asrwt>0</asrwt>
<pdfrwt beam="1">  1       21 0.14882219E-01 0.31126092E+03</pdfrwt>
<pdfrwt beam="2">  1        1 0.17635957E+00 0.31126092E+03</pdfrwt>
<totfact> 0.54063698E+03</totfact>
</mgrwt>
</event>
<event>
 5    0  0.3040647E+000  0.2624071E+03  0.7546771E-02  0.1105706E+00
         21   -1    0    0  503  502  0.00000000000E+00  0.00000000000E+00  0.74037123251E+03  0.74037123251E+03  0.00000000000E+00 0.  1.
          1   -1    0    0  502    0 -0.00000000000E+00 -0.00000000000E+00 -0.67467473291E+03  0.67467473291E+03  0.00000000000E+00 0. -1.
         25    1    1    2    0    0  0.19458283381E+03 -0.17620408429E+03  0.39486949370E+03  0.49036443140E+03  0.12500000000E+03 0.  0.
         21    1    1    2  503  501 -0.14402247417E+02  0.34475907661E+02  0.27549483428E+03  0.27801693591E+03  0.00000000000E+00 0. -1.
          1    1    1    2  501    0 -0.18018058639E+03  0.14172817663E+03 -0.60466782838E+03  0.64666459810E+03  0.00000000000E+00 0. -1.
<mgrwt>
<rscale>  4 0.26240707E+03</rscale>
<asrwt>0</asrwt>
<pdfrwt beam="1">  1       21 0.11390327E+00 0.26240707E+03</pdfrwt>
<pdfrwt beam="2">  1        1 0.10379611E+00 0.26240707E+03</pdfrwt>
<totfact> 0.18954297E+02</totfact>
</mgrwt>
</event>
<event>
 5    0  0.3040647E+000  0.2290979E+03  0.7546771E-02  0.1127276E+00
          4   -1    0    0  502    0 -0.00000000000E+00  0.00000000000E+00  0.90162919328E+03  0.90162919328E+03  0.00000000000E+00 0. -1.
         21   -1    0    0  503  502  0.00000000000E+00 -0.00000000000E+00 -0.15494315175E+03  0.15494315175E+03  0.00000000000E+00 0. -1.
         25    1    1    2    0    0 -0.55104518947E+02 -0.26791327976E+03  0.18913602791E+03  0.35526253748E+03  0.12500000000E+03 0.  0.
         21    1    1    2  503  501 -0.25586539911E+02  0.10752633280E+03 -0.51621765526E+01  0.11064913618E+03  0.00000000000E+00 0. -1.
          4    1    1    2  501    0  0.80691058858E+02  0.16038694696E+03  0.56271219017E+03  0.59066067137E+03  0.00000000000E+00 0. -1.
<mgrwt>
<rscale>  4 0.22909785E+03</rscale>
<asrwt>0</asrwt>
<pdfrwt beam="1">  1       21 0.23837408E-01 0.22909785E+03</pdfrwt>
<pdfrwt beam="2">  1        4 0.13871218E+00 0.22909785E+03</pdfrwt>
<totfact> 0.26911185E+02</totfact>
</mgrwt>
</event>
<event>
 5    0  0.3040647E+000  0.2414315E+03  0.7546771E-02  0.1118843E+00
         21   -1    0    0  501  502  0.00000000000E+00  0.00000000000E+00  0.18132472372E+03  0.18132472372E+03  0.00000000000E+00 0.  1.
         -2   -1    0    0    0  501 -0.00000000000E+00 -0.00000000000E+00 -0.48144960808E+03  0.48144960808E+03  0.00000000000E+00 0.  1.
         25    1    1    2    0    0 -0.10880052379E+03  0.18005311180E+03  0.33984572274E+02  0.24705592120E+03  0.12500000000E+03 0.  0.
         21    1    1    2  503  502 -0.23527112632E+02 -0.33884967834E+02 -0.22554887797E+02  0.47015306417E+02  0.00000000000E+00 0. -1.
         -2    1    1    2    0  503  0.13232763642E+03 -0.14616814397E+03 -0.31155456884E+03  0.36870310419E+03  0.00000000000E+00 0.  1.
<mgrwt>
<rscale>  4 0.24143151E+03</rscale>
<asrwt>0</asrwt>
<pdfrwt beam="1">  1       21 0.27896112E-01 0.24143151E+03</pdfrwt>
<pdfrwt beam="2">  1       -2 0.74069169E-01 0.24143151E+03</pdfrwt>
<totfact> 0.16710550E+03</totfact>
</mgrwt>
</event>
<event>
 5    0  0.3040647E+000  0.2581869E+03  0.7546771E-02  0.1108237E+00
          2   -1    0    0  502    0 -0.00000000000E+00  0.00000000000E+00  0.21021100901E+04  0.21021100901E+04  0.00000000000E+00 0.  1.
         21   -1    0    0  503  502  0.00000000000E+00 -0.00000000000E+00 -0.25293888216E+03  0.25293888216E+03  0.00000000000E+00 0. -1.
         25    1    1    2    0    0 -0.13092712417E+03 -0.22564347045E+03 -0.94614725781E+02  0.30435806862E+03  0.12500000000E+03 0.  0.
         21    1    1    2  503  501  0.78706799700E+02  0.66605372696E+01 -0.13815692712E+02  0.80187258595E+02  0.00000000000E+00 0. -1.
          2    1    1    2  501    0  0.52220324466E+02  0.21898293318E+03  0.19576016264E+04  0.19705036450E+04  0.00000000000E+00 0.  1.
<mgrwt>
<rscale>  4 0.25818692E+03</rscale>
<asrwt>0</asrwt>
<pdfrwt beam="1">  1       21 0.38913675E-01 0.25818692E+03</pdfrwt>
<pdfrwt beam="2">  1        2 0.32340154E+00 0.25818692E+03</pdfrwt>
<totfact> 0.51864280E+02</totfact>
</mgrwt>
</event>
<event>
 5    0  0.3040647E+000  0.3077547E+03  0.7546771E-02  0.1081427E+00
          2   -1    0    0  502    0 -0.00000000000E+00  0.00000000000E+00  0.61975119027E+03  0.61975119027E+03  0.00000000000E+00 0.  1.
         21   -1    0    0  503  502  0.00000000000E+00 -0.00000000000E+00 -0.53760976810E+03  0.53760976810E+03  0.00000000000E+00 0.  1.
         25    1    1    2    0    0  0.23025677980E+03 -0.14116497104E+03 -0.41390409423E+03  0.50979146022E+03  0.12500000000E+03 0.  0.
         21    1    1    2  503  501  0.21156825303E+02  0.13146118610E+02 -0.36919361266E+02  0.44536175495E+02  0.00000000000E+00 0.  1.
          2    1    1    2  501    0 -0.25141360510E+03  0.12801885243E+03  0.53296487767E+03  0.60303332266E+03  0.00000000000E+00 0.  1.
<mgrwt>
<rscale>  4 0.30775470E+03</rscale>
<asrwt>0</asrwt>
<pdfrwt beam="1">  1       21 0.82709195E-01 0.30775470E+03</pdfrwt>
<pdfrwt beam="2">  1        2 0.95346337E-01 0.30775470E+03</pdfrwt>
<totfact> 0.73763523E+02</totfact>
</mgrwt>
</event>
<event>
 5    0  0.3040647E+000  0.3010484E+03  0.7546771E-02  0.1084718E+00
          2   -1    0    0  502    0 -0.00000000000E+00  0.00000000000E+00  0.27685853499E+04  0.27685853499E+04  0.00000000000E+00 0. -1.
         21   -1    0    0  503  502  0.00000000000E+00 -0.00000000000E+00 -0.60107730995E+02  0.60107730995E+02  0.00000000000E+00 0. -1.
         25    1    1    2    0    0  0.69984745313E+02  0.23931405362E+03  0.11507506307E+04  0.11840697170E+04  0.12500000000E+03 0.  0.
         21    1    1    2  503  501  0.89892660814E+02  0.15094859305E+02  0.43731071486E+02  0.10109872333E+03  0.00000000000E+00 0. -1.
          2    1    1    2  501    0 -0.15987740613E+03 -0.25440891292E+03  0.15139959168E+04  0.15435246406E+04  0.00000000000E+00 0. -1.
<mgrwt>
<rscale>  4 0.30104838E+03</rscale>
<asrwt>0</asrwt>
<pdfrwt beam="1">  1       21 0.92473454E-02 0.30104838E+03</pdfrwt>
<pdfrwt beam="2">  1        2 0.42593611E+00 0.30104838E+03</pdfrwt>
<totfact> 0.32865248E+03</totfact>
</mgrwt>
</event>
<event>
 5    0  0.3040647E+000  0.2801713E+03  0.7546771E-02  0.1095595E+00
         21   -1    0    0  503  502  0.00000000000E+00  0.00000000000E+00  0.11592345261E+03  0.11592345261E+03  0.00000000000E+00 0. -1.
          2   -1    0    0  502    0 -0.00000000000E+00 -0.00000000000E+00 -0.11264759190E+04  0.11264759190E+04  0.00000000000E+00 0.  1.
         25    1    1    2    0    0  0.17160868986E+03  0.15790724233E+03 -0.27171238550E+03  0.37925830254E+03  0.12500000000E+03 0.  0.
         21    1    1    2  503  501  0.24550709938E+02  0.90316118343E+01  0.37196336770E+02  0.45473891848E+02  0.00000000000E+00 0. -1.
          2    1    1    2  501    0 -0.19615939980E+03 -0.16693885417E+03 -0.77603641765E+03  0.81766717721E+03  0.00000000000E+00 0.  1.
<mgrwt>
<rscale>  4 0.28017127E+03</rscale>
<asrwt>0</asrwt>
<pdfrwt beam="1">  1       21 0.17834377E-01 0.28017127E+03</pdfrwt>
<pdfrwt beam="2">  1        2 0.17330399E+00 0.28017127E+03</pdfrwt>
<totfact> 0.78182384E+03</totfact>
</mgrwt>
</event>
<event>
 5    0  0.3040647E+000  0.3408938E+03  0.7546771E-02  0.1066416E+00
         21   -1    0    0  503  502  0.00000000000E+00  0.00000000000E+00  0.45768118135E+03  0.45768118135E+03  0.00000000000E+00 0.  1.
          1   -1    0    0  502    0 -0.00000000000E+00 -0.00000000000E+00 -0.24869048691E+03  0.24869048691E+03  0.00000000000E+00 0.  1.
         25    1    1    2    0    0  0.16130141378E+03 -0.27306666865E+03  0.48897247254E+02  0.34438277019E+03  0.12500000000E+03 0.  0.
         21    1    1    2  503  501 -0.60504631244E+01  0.34931896056E+02  0.39833198983E+02  0.53324752294E+02  0.00000000000E+00 0. -1.
          1    1    1    2  501    0 -0.15525095065E+03  0.23813477259E+03  0.12026024820E+03  0.30866414578E+03  0.00000000000E+00 0.  1.
<mgrwt>
<rscale>  4 0.34089375E+03</rscale>
<asrwt>0</asrwt>
<pdfrwt beam="1">  1       21 0.70412489E-01 0.34089375E+03</pdfrwt>
<pdfrwt beam="2">  1        1 0.38260075E-01 0.34089375E+03</pdfrwt>
<totfact> 0.21157165E+03</totfact>
</mgrwt>
</event>
<event>
 5    0  0.3040647E+000  0.2668789E+03  0.7546771E-02  0.1103079E+00
         -1   -1    0    0    0  501 -0.00000000000E+00  0.00000000000E+00  0.81024386890E+03  0.81024386890E+03  0.00000000000E+00 0. -1.
         21   -1    0    0  501  502  0.00000000000E+00 -0.00000000000E+00 -0.12159413566E+03  0.12159413566E+03  0.00000000000E+00 0. -1.
         25    1    1    2    0    0 -0.18318360362E+03  0.14846919802E+03  0.88296305241E+02  0.28110598164E+03  0.12500000000E+03 0.  0.
         21    1    1    2  503  502  0.40539628130E+02  0.33229167000E+01  0.70302354815E+02  0.81221452319E+02  0.00000000000E+00 0.  1.
         -1    1    1    2    0  503  0.14264397549E+03 -0.15179211472E+03  0.53005107318E+03  0.56951057059E+03  0.00000000000E+00 0. -1.
<mgrwt>
<rscale>  4 0.26687888E+03</rscale>
<asrwt>0</asrwt>
<pdfrwt beam="1">  1       21 0.18706791E-01 0.26687888E+03</pdfrwt>
<pdfrwt beam="2">  1       -1 0.12465290E+00 0.26687888E+03</pdfrwt>
<totfact> 0.14533805E+03</totfact>
</mgrwt>
</event>
<event>
 5    0  0.3040647E+000  0.2444973E+03  0.7546771E-02  0.1116833E+00
          2   -1    0    0  502    0 -0.00000000000E+00  0.00000000000E+00  0.29839044819E+03  0.29839044819E+03  0.00000000000E+00 0. -1.
         21   -1    0    0  503  502  0.00000000000E+00 -0.00000000000E+00 -0.32764017897E+03  0.32764017897E+03  0.00000000000E+00 0. -1.
         25    1    1    2    0    0  0.85475489609E+02  0.19725089081E+03  0.75801307882E+02  0.25997078975E+03  0.12500000000E+03 0.  0.
         21    1    1    2  503  501 -0.49463680763E+02 -0.20351924187E+03 -0.18417310307E+03  0.27890225783E+03  0.00000000000E+00 0. -1.
          2    1    1    2  501    0 -0.36011808846E+02  0.62683510597E+01  0.79122064405E+02  0.87157579573E+02  0.00000000000E+00 0. -1.
<mgrwt>
<rscale>  4 0.24449727E+03</rscale>
<asrwt>0</asrwt>
<pdfrwt beam="1">  1       21 0.50406181E-01 0.24449727E+03</pdfrwt>
<pdfrwt beam="2">  1        2 0.45906223E-01 0.24449727E+03</pdfrwt>
<totfact> 0.50350732E+03</totfact>
</mgrwt>
</event>
<event>
 5    0  0.3040647E+000  0.2675781E+03  0.7546771E-02  0.1102674E+00
         21   -1    0    0  503  502  0.00000000000E+00  0.00000000000E+00  0.15564265566E+03  0.15564265566E+03  0.00000000000E+00 0. -1.
          3   -1    0    0  502    0 -0.00000000000E+00 -0.00000000000E+00 -0.26470519225E+04  0.26470519225E+04  0.00000000000E+00 0.  1.
         25    1    1    2    0    0 -0.47372829917E+02  0.28290347718E+03 -0.81159613484E+03  0.86982288341E+03  0.12500000000E+03 0.  0.
         21    1    1    2  503  501  0.37139278716E+02 -0.22728435080E+03  0.20875620507E+02  0.23124293216E+03  0.00000000000E+00 0. -1.
          3    1    1    2  501    0  0.10233551200E+02 -0.55619126378E+02 -0.17006887525E+04  0.17016287625E+04  0.00000000000E+00 0.  1.
<mgrwt>
<rscale>  4 0.26757807E+03</rscale>
<asrwt>0</asrwt>
<pdfrwt beam="1">  1       21 0.23945024E-01 0.26757807E+03</pdfrwt>
<pdfrwt beam="2">  1        3 0.40723876E+00 0.26757807E+03</pdfrwt>
<totfact> 0.98146082E+00</totfact>
</mgrwt>
</event>
<event>
 5    0  0.3040647E+000  0.2676447E+03  0.7546771E-02  0.1102635E+00
         21   -1    0    0  503  502  0.00000000000E+00  0.00000000000E+00  0.82730589698E+02  0.82730589698E+02  0.00000000000E+00 0.  1.
          2   -1    0    0  502    0 -0.00000000000E+00 -0.00000000000E+00 -0.14853922943E+04  0.14853922943E+04  0.00000000000E+00 0.  1.
         25    1    1    2    0    0 -0.15718079001E+03 -0.14930001438E+03 -0.20622215904E+03  0.32426667100E+03  0.12500000000E+03 0.  0.
         21    1    1    2  503  501 -0.34924628146E+02  0.37911059370E+01 -0.15188174648E+02  0.38272480773E+02  0.00000000000E+00 0. -1.
          2    1    1    2  501    0  0.19210541816E+03  0.14550890844E+03 -0.11812513709E+04  0.12055837322E+04  0.00000000000E+00 0.  1.
<mgrwt>
<rscale>  4 0.26764474E+03</rscale>
<asrwt>0</asrwt>
<pdfrwt beam="1">  1       21 0.12727784E-01 0.26764474E+03</pdfrwt>
<pdfrwt beam="2">  1        2 0.22852187E+00 0.26764474E+03</pdfrwt>
<totfact> 0.92007399E+03</totfact>
</mgrwt>
</event>
<event>
 5    0  0.3040647E+000  0.3787342E+03  0.7546771E-02  0.1051403E+00
         21   -1    0    0  503  502  0.00000000000E+00  0.00000000000E+00  0.81802074043E+03  0.81802074043E+03  0.00000000000E+00 0.  1.
          2   -1    0    0  502    0 -0.00000000000E+00 -0.00000000000E+00 -0.25098330420E+03  0.25098330420E+03  0.00000000000E+00 0.  1.
         25    1    1    2    0    0  0.32533561139E+03 -0.23339042780E+02  0.50986166779E+03  0.61803874574E+03  0.12500000000E+03 0.  0.
         21    1    1    2  503  501  0.41528328561E+02  0.48335499997E+01  0.72085595408E+02  0.83332456726E+02  0.00000000000E+00 0. -1.
          2    1    1    2  501    0 -0.36686393995E+03  0.18505492780E+02 -0.14909826961E+02  0.36763284216E+03  0.00000000000E+00 0.  1.
<mgrwt>
<rscale>  4 0.37873415E+03</rscale>
<asrwt>0</asrwt>
<pdfrwt beam="1">  1       21 0.12584934E+00 0.37873415E+03</pdfrwt>
<pdfrwt beam="2">  1        2 0.38612816E-01 0.37873415E+03</pdfrwt>
<totfact> 0.71298319E+02</totfact>
</mgrwt>
</event>
<event>
 5    0  0.3040647E+000  0.1969193E+03  0.7546771E-02  0.1152365E+00
         21   -1    0    0  503  502  0.00000000000E+00  0.00000000000E+00  0.21357162176E+03  0.21357162176E+03  0.00000000000E+00 0.  1.
          3   -1    0    0  502    0 -0.00000000000E+00 -0.00000000000E+00 -0.13272030722E+04  0.13272030722E+04  0.00000000000E+00 0. -1.
         25    1    1    2    0    0  0.31085549669E+02 -0.25811088220E+03 -0.45367562500E+03  0.53761892789E+03  0.12500000000E+03 0.  0.
         21    1    1    2  503  501 -0.34470967410E+01  0.14532125612E+03  0.13582671122E+03  0.19894483014E+03  0.00000000000E+00 0.  1.
          3    1    1    2  501    0 -0.27638452928E+02  0.11278962608E+03 -0.79578253664E+03  0.80421093592E+03  0.00000000000E+00 0. -1.
<mgrwt>
<rscale>  4 0.19691929E+03</rscale>
<asrwt>0</asrwt>
<pdfrwt beam="1">  1       21 0.32857173E-01 0.19691929E+03</pdfrwt>
<pdfrwt beam="2">  1        3 0.20418508E+00 0.19691929E+03</pdfrwt>
<totfact> 0.67007325E+01</totfact>
</mgrwt>
</event>
<event>
 5    0  0.3040647E+000  0.2356549E+03  0.7546771E-02  0.1122722E+00
         21   -1    0    0  501  502  0.00000000000E+00  0.00000000000E+00  0.25030589156E+03  0.25030589156E+03  0.00000000000E+00 0. -1.
         -2   -1    0    0    0  501 -0.00000000000E+00 -0.00000000000E+00 -0.29295074370E+03  0.29295074370E+03  0.00000000000E+00 0. -1.
         25    1    1    2    0    0 -0.17379277009E+03 -0.12369961165E+03 -0.14417195467E+03  0.28620984150E+03  0.12500000000E+03 0.  0.
         21    1    1    2  503  502  0.10854037464E+02  0.49297464067E+02  0.49077839214E+02  0.70403724295E+02  0.00000000000E+00 0. -1.
         -2    1    1    2    0  503  0.16293873263E+03  0.74402147588E+02  0.52449263323E+02  0.18664306947E+03  0.00000000000E+00 0. -1.
<mgrwt>
<rscale>  4 0.23565485E+03</rscale>
<asrwt>0</asrwt>
<pdfrwt beam="1">  1       21 0.38508599E-01 0.23565485E+03</pdfrwt>
<pdfrwt beam="2">  1       -2 0.45069345E-01 0.23565485E+03</pdfrwt>
<totfact> 0.24595776E+03</totfact>
</mgrwt>
</event>
<event>
 5    0  0.3040647E+000  0.2299745E+03  0.7546771E-02  0.1126658E+00
         21   -1    0    0  503  502  0.00000000000E+00  0.00000000000E+00  0.65267317428E+02  0.65267317428E+02  0.00000000000E+00 0. -1.
          2   -1    0    0  502    0 -0.00000000000E+00 -0.00000000000E+00 -0.11732443038E+04  0.11732443038E+04  0.00000000000E+00 0. -1.
         25    1    1    2    0    0 -0.18328680778E+03 -0.15683296152E+03 -0.56735698717E+03  0.62905451482E+03  0.12500000000E+03 0.  0.
         21    1    1    2  503  501  0.13960286243E+03  0.10303136618E+03 -0.21367620623E+03  0.27524887415E+03  0.00000000000E+00 0. -1.
          2    1    1    2  501    0  0.43683945356E+02  0.53801595336E+02 -0.32694379294E+03  0.33420823223E+03  0.00000000000E+00 0. -1.
<mgrwt>
<rscale>  4 0.22997446E+03</rscale>
<asrwt>0</asrwt>
<pdfrwt beam="1">  1       21 0.10041127E-01 0.22997446E+03</pdfrwt>
<pdfrwt beam="2">  1        2 0.18049911E+00 0.22997446E+03</pdfrwt>
<totfact> 0.21114591E+04</totfact>
</mgrwt>
</event>
<event>
 5    0  0.3590306E+000  0.1721380E+03  0.7546771E-02  0.1175636E+00
          1   -1    0    0  502    0 -0.00000000000E+00  0.00000000000E+00  0.13188405048E+04  0.13188405048E+04  0.00000000000E+00 0. -1.
         21   -1    0    0  503  502  0.00000000000E+00 -0.00000000000E+00 -0.10978783028E+04  0.10978783028E+04  0.00000000000E+00 0.  1.
         25    1    1    2    0    0 -0.58808580209E+02  0.20731678364E+03  0.46620158498E+02  0.25345046274E+03  0.12500000000E+03 0.  0.
         21    1    1    2  503  501  0.34491365319E+02 -0.11091042301E+03 -0.98894381619E+03  0.99574125545E+03  0.00000000000E+00 0.  1.
          1    1    1    2  501    0  0.24317214890E+02 -0.96406360637E+02  0.11632858596E+04  0.11675270894E+04  0.00000000000E+00 0. -1.
<mgrwt>
<rscale>  4 0.17213798E+03</rscale>
<asrwt>0</asrwt>
<pdfrwt beam="1">  1       21 0.16890435E+00 0.17213798E+03</pdfrwt>
<pdfrwt beam="2">  1        1 0.20289854E+00 0.17213798E+03</pdfrwt>
<totfact> 0.23910483E+01</totfact>
</mgrwt>
</event>
<event>
 5    0  0.3040647E+000  0.2700656E+03  0.7546771E-02  0.1101242E+00
          2   -1    0    0  502    0 -0.00000000000E+00  0.00000000000E+00  0.21210291265E+04  0.21210291265E+04  0.00000000000E+00 0. -1.
         21   -1    0    0  503  502  0.00000000000E+00 -0.00000000000E+00 -0.37389137432E+02  0.37389137432E+02  0.00000000000E+00 0. -1.
         25    1    1    2    0    0 -0.19349515837E+03 -0.14096125996E+03  0.68936584267E+03  0.74037876669E+03  0.12500000000E+03 0.  0.
         21    1    1    2  503  501  0.25347668139E+02  0.46373703416E+02  0.15319569179E+03  0.16205537520E+03  0.00000000000E+00 0. -1.
          2    1    1    2  501    0  0.16814749023E+03  0.94587556549E+02  0.12410784547E+04  0.12559841221E+04  0.00000000000E+00 0. -1.
<mgrwt>
<rscale>  4 0.27006565E+03</rscale>
<asrwt>0</asrwt>
<pdfrwt beam="1">  1       21 0.57521767E-02 0.27006565E+03</pdfrwt>
<pdfrwt beam="2">  1        2 0.32631208E+00 0.27006565E+03</pdfrwt>
<totfact> 0.17215378E+04</totfact>
</mgrwt>
</event>
<event>
 5    0  0.3040647E+000  0.2665941E+03  0.7546771E-02  0.1103245E+00
          1   -1    0    0  502    0 -0.00000000000E+00  0.00000000000E+00  0.11709719040E+04  0.11709719040E+04  0.00000000000E+00 0.  1.
         21   -1    0    0  503  502  0.00000000000E+00 -0.00000000000E+00 -0.21677820969E+03  0.21677820969E+03  0.00000000000E+00 0. -1.
         25    1    1    2    0    0  0.27348540876E+03 -0.56454419985E+02  0.81399170824E+03  0.86959120938E+03  0.12500000000E+03 0.  0.
         21    1    1    2  503  501 -0.81836022415E+02  0.55157967699E+02 -0.14448404241E+03  0.17497192483E+03  0.00000000000E+00 0. -1.
          1    1    1    2  501    0 -0.19164938635E+03  0.12964522860E+01  0.28468602851E+03  0.34318697951E+03  0.00000000000E+00 0.  1.
<mgrwt>
<rscale>  4 0.26659414E+03</rscale>
<asrwt>0</asrwt>
<pdfrwt beam="1">  1       21 0.33350495E-01 0.26659414E+03</pdfrwt>
<pdfrwt beam="2">  1        1 0.18014952E+00 0.26659414E+03</pdfrwt>
<totfact> 0.11302448E+03</totfact>
</mgrwt>
</event>
