<event>
 5    0  0.1911311E+001  0.2560638E+03  0.7546771E-02  0.1109532E+00
         21   -1    0    0  502  501  0.00000000000E+00  0.00000000000E+00  0.37370805505E+03  0.37370805505E+03  0.00000000000E+00 0.  1.
         21   -1    0    0  504  502 -0.00000000000E+00 -0.00000000000E+00 -0.23134501113E+03  0.23134501113E+03  0.00000000000E+00 0.  1.
         25    1    1    2    0    0 -0.63670341441E+02 -0.23506179746E+03  0.10536055823E+03  0.29331520287E+03  0.12500000000E+03 0.  0.
         21    1    1    2  503  501 -0.79458008867E+01  0.32320842327E+02  0.85125083515E+02  0.91400505709E+02  0.00000000000E+00 0.  1.
         21    1    1    2  504  503  0.71616142327E+02  0.20274095514E+03 -0.48122597825E+02  0.22033735760E+03  0.00000000000E+00 0.  1.
<mgrwt>
<rscale>  4 0.25606379E+03</rscale>
<asrwt>0</asrwt>
<pdfrwt beam="1">  1       21 0.57493547E-01 0.25606379E+03</pdfrwt>
<pdfrwt beam="2">  1       21 0.35591540E-01 0.25606379E+03</pdfrwt>
<totfact> 0.20889545E+04</totfact>
</mgrwt>
</event>
<event>
 5    0  0.1911311E+001  0.1712742E+03  0.7546771E-02  0.1176526E+00
         21   -1    0    0  502  501  0.00000000000E+00  0.00000000000E+00  0.14368389232E+04  0.14368389232E+04  0.00000000000E+00 0.  1.
         21   -1    0    0  504  502 -0.00000000000E+00 -0.00000000000E+00 -0.17630571400E+03  0.17630571400E+03  0.00000000000E+00 0.  1.
         25    1    1    2    0    0 -0.17039443855E+03 -0.11029700403E+03  0.63399141173E+03  0.67732547858E+03  0.12500000000E+03 0.  0.
         21    1    1    2  503  501  0.86523817829E+02  0.56375283038E+02  0.76125073545E+03  0.76822342181E+03  0.00000000000E+00 0.  1.
         21    1    1    2  504  503  0.83870620718E+02  0.53921720989E+02 -0.13470893800E+03  0.16759573679E+03  0.00000000000E+00 0.  1.
<mgrwt>
<rscale>  4 0.17127416E+03</rscale>
<asrwt>0</asrwt>
<pdfrwt beam="1">  1       21 0.22105213E+00 0.17127416E+03</pdfrwt>
<pdfrwt beam="2">  1       21 0.27123957E-01 0.17127416E+03</pdfrwt>
<totfact> 0.13172806E+03</totfact>
</mgrwt>
</event>
<event>
 5    0  0.1911311E+001  0.2307052E+03  0.7546771E-02  0.1126144E+00
         21   -1    0    0  503  501  0.00000000000E+00  0.00000000000E+00  0.30853309857E+03  0.30853309857E+03  0.00000000000E+00 0. -1.
         21   -1    0    0  504  502 -0.00000000000E+00 -0.00000000000E+00 -0.48946256701E+03  0.48946256701E+03  0.00000000000E+00 0. -1.
         25    1    1    2    0    0 -0.20971142138E+02 -0.22484077096E+03 -0.37351784143E+03  0.45401953587E+03  0.12500000000E+03 0.  0.
         21    1    1    2  503  502  0.21564097829E+02  0.33583091641E+02 -0.30423160802E+02  0.50183693293E+02  0.00000000000E+00 0. -1.
         21    1    1    2  504  501 -0.59295569125E+00  0.19125767932E+03  0.22301153379E+03  0.29379243642E+03  0.00000000000E+00 0. -1.
<mgrwt>
<rscale>  4 0.23070522E+03</rscale>
<asrwt>0</asrwt>
<pdfrwt beam="1">  1       21 0.47466630E-01 0.23070522E+03</pdfrwt>
<pdfrwt beam="2">  1       21 0.75301934E-01 0.23070522E+03</pdfrwt>
<totfact> 0.65118831E+03</totfact>
</mgrwt>
</event>
<event>
 5    0  0.1911311E+001  0.2454832E+03  0.7546771E-02  0.1116193E+00
         21   -1    0    0  502  501  0.00000000000E+00  0.00000000000E+00  0.57273193016E+03  0.57273193016E+03  0.00000000000E+00 0. -1.
         21   -1    0    0  504  502 -0.00000000000E+00 -0.00000000000E+00 -0.15613579678E+03  0.15613579678E+03  0.00000000000E+00 0. -1.
         25    1    1    2    0    0 -0.10810591088E+03 -0.22967800000E+03  0.29342017717E+03  0.40762638779E+03  0.12500000000E+03 0.  0.
         21    1    1    2  503  501 -0.26304361288E+02  0.11791824274E+03  0.63807526715E+02  0.13663100622E+03  0.00000000000E+00 0. -1.
         21    1    1    2  504  503  0.13441027216E+03  0.11175975726E+03  0.59368429507E+02  0.18461033294E+03  0.00000000000E+00 0. -1.
<mgrwt>
<rscale>  4 0.24548320E+03</rscale>
<asrwt>0</asrwt>
<pdfrwt beam="1">  1       21 0.88112604E-01 0.24548320E+03</pdfrwt>
<pdfrwt beam="2">  1       21 0.24020892E-01 0.24548320E+03</pdfrwt>
<totfact> 0.17491761E+04</totfact>
</mgrwt>
</event>
<event>
 5    0  0.1911311E+001  0.2236727E+03  0.7546771E-02  0.1131174E+00
         21   -1    0    0  502  501  0.00000000000E+00  0.00000000000E+00  0.34352498204E+04  0.34352498204E+04  0.00000000000E+00 0.  1.
         21   -1    0    0  504  502 -0.00000000000E+00 -0.00000000000E+00 -0.11395676981E+03  0.11395676981E+03  0.00000000000E+00 0.  1.
         25    1    1    2    0    0  0.15545261953E+03  0.13645054326E+03  0.28985200917E+04  0.29085783452E+04  0.12500000000E+03 0.  0.
         21    1    1    2  503  501  0.28036395670E+02 -0.10744769452E+03  0.44025211845E+03  0.45404071881E+03  0.00000000000E+00 0.  1.
         21    1    1    2  504  503 -0.18348901520E+03 -0.29002848736E+02 -0.17479159583E+02  0.18658752625E+03  0.00000000000E+00 0.  1.
<mgrwt>
<rscale>  4 0.22367271E+03</rscale>
<asrwt>0</asrwt>
<pdfrwt beam="1">  1       21 0.52849989E+00 0.22367271E+03</pdfrwt>
<pdfrwt beam="2">  1       21 0.17531813E-01 0.22367271E+03</pdfrwt>
<totfact> 0.32935224E+01</totfact>
</mgrwt>
</event>
