<event>
 5    0  0.2155251E+000  0.2646572E+03  0.7546771E-02  0.1104377E+00
         21   -1    0    0  502  501  0.00000000000E+00  0.00000000000E+00  0.91089845606E+03  0.91089845606E+03  0.00000000000E+00 0.  1.
         21   -1    0    0  503  502 -0.00000000000E+00 -0.00000000000E+00 -0.70771182069E+02  0.70771182069E+02  0.00000000000E+00 0.  1.
         25    1    1    2    0    0  0.22126951344E+03  0.73879966512E+02  0.42529175539E+03  0.50091568576E+03  0.12500000000E+03 0.  0.
         21    1    1    2  503  504 -0.29891779368E+02 -0.91489139330E+00  0.20061183053E+02  0.36011200557E+02  0.00000000000E+00 0. -1.
         21    1    1    2  504  501 -0.19137773408E+03 -0.72965075119E+02  0.39477433554E+03  0.44474275181E+03  0.00000000000E+00 0.  1.
<mgrwt>
<rscale>  4 0.26465723E+03</rscale>
<asrwt>0</asrwt>
<pdfrwt beam="1">  1       21 0.14013822E+00 0.26465723E+03</pdfrwt>
<pdfrwt beam="2">  1       21 0.10887875E-01 0.26465723E+03</pdfrwt>
<totfact> 0.23919931E+04</totfact>
</mgrwt>
</event>
<event>
 5    0  0.1856407E+000  0.3740875E+03  0.7546771E-02  0.1053141E+00
         21   -1    0    0  502  501  0.00000000000E+00  0.00000000000E+00  0.82440735469E+03  0.82440735469E+03  0.00000000000E+00 0. -1.
         21   -1    0    0  503  502 -0.00000000000E+00 -0.00000000000E+00 -0.19985610285E+03  0.19985610285E+03  0.00000000000E+00 0. -1.
         25    1    1    2    0    0 -0.32511302851E+03  0.13644775488E+03  0.53890708184E+03  0.65602005608E+03  0.12500000000E+03 0.  0.
         21    1    1    2  503  504  0.26218428083E+03 -0.11655721618E+03  0.44194000156E+02  0.29030895854E+03  0.00000000000E+00 0. -1.
         21    1    1    2  504  501  0.62928747679E+02 -0.19890538704E+02  0.41450169846E+02  0.77934442929E+02  0.00000000000E+00 0.  1.
<mgrwt>
<rscale>  4 0.37408752E+03</rscale>
<asrwt>0</asrwt>
<pdfrwt beam="1">  1       21 0.12683190E+00 0.37408752E+03</pdfrwt>
<pdfrwt beam="2">  1       21 0.30747093E-01 0.37408752E+03</pdfrwt>
<totfact> 0.41933859E+03</totfact>
</mgrwt>
</event>
<event>
 5    0  0.1856407E+000  0.2596198E+03  0.7546771E-02  0.1107372E+00
         21   -1    0    0  502  501  0.00000000000E+00  0.00000000000E+00  0.50016257005E+03  0.50016257005E+03  0.00000000000E+00 0. -1.
         21   -1    0    0  503  502 -0.00000000000E+00 -0.00000000000E+00 -0.13747643024E+03  0.13747643024E+03  0.00000000000E+00 0. -1.
         25    1    1    2    0    0  0.19488716789E+03  0.11745812790E+03  0.81086143230E+02  0.27198783547E+03  0.12500000000E+03 0.  0.
         21    1    1    2  503  504 -0.14111726483E+03 -0.10451324156E+03  0.19060167510E+03  0.25916423103E+03  0.00000000000E+00 0. -1.
         21    1    1    2  504  501 -0.53769903064E+02 -0.12944886345E+02  0.90998321480E+02  0.10648693380E+03  0.00000000000E+00 0. -1.
<mgrwt>
<rscale>  4 0.25961976E+03</rscale>
<asrwt>0</asrwt>
<pdfrwt beam="1">  1       21 0.76948087E-01 0.25961976E+03</pdfrwt>
<pdfrwt beam="2">  1       21 0.21150220E-01 0.25961976E+03</pdfrwt>
<totfact> 0.30186092E+04</totfact>
</mgrwt>
</event>
<event>
 5    0  0.4477188E+000  0.3056985E+03  0.7546771E-02  0.1082426E+00
         21   -1    0    0  502  501  0.00000000000E+00  0.00000000000E+00  0.12330744374E+03  0.12330744374E+03  0.00000000000E+00 0.  1.
         21   -1    0    0  503  502 -0.00000000000E+00 -0.00000000000E+00 -0.81220886277E+03  0.81220886277E+03  0.00000000000E+00 0.  1.
         25    1    1    2    0    0  0.92788975589E+02 -0.26309084478E+03 -0.18985113546E+03  0.35985419302E+03  0.12500000000E+03 0.  0.
         21    1    1    2  503  504 -0.33125657966E+01  0.67573048296E+02 -0.80841433547E+02  0.10541549851E+03  0.00000000000E+00 0. -1.
         21    1    1    2  504  501 -0.89476409793E+02  0.19551779649E+03 -0.41820885002E+03  0.47024661497E+03  0.00000000000E+00 0.  1.
<mgrwt>
<rscale>  4 0.30569852E+03</rscale>
<asrwt>0</asrwt>
<pdfrwt beam="1">  1       21 0.18970377E-01 0.30569852E+03</pdfrwt>
<pdfrwt beam="2">  1       21 0.12495520E+00 0.30569852E+03</pdfrwt>
<totfact> 0.11396989E+04</totfact>
</mgrwt>
</event>
<event>
 5    0  0.1856407E+000  0.2491637E+03  0.7546771E-02  0.1113835E+00
         21   -1    0    0  502  501  0.00000000000E+00  0.00000000000E+00  0.18274281161E+04  0.18274281161E+04  0.00000000000E+00 0. -1.
         21   -1    0    0  503  502 -0.00000000000E+00 -0.00000000000E+00 -0.33342920116E+02  0.33342920116E+02  0.00000000000E+00 0. -1.
         25    1    1    2    0    0  0.21028917488E+03 -0.47286323513E+02  0.11911365957E+04  0.12169177963E+04  0.12500000000E+03 0.  0.
         21    1    1    2  503  504 -0.51079012365E+02  0.13674891761E+02  0.24520462199E+03  0.25084133394E+03  0.00000000000E+00 0. -1.
         21    1    1    2  504  501 -0.15921016252E+03  0.33611431752E+02  0.35774397836E+03  0.39301190598E+03  0.00000000000E+00 0. -1.
<mgrwt>
<rscale>  4 0.24916367E+03</rscale>
<asrwt>0</asrwt>
<pdfrwt beam="1">  1       21 0.28114271E+00 0.24916367E+03</pdfrwt>
<pdfrwt beam="2">  1       21 0.51296814E-02 0.24916367E+03</pdfrwt>
<totfact> 0.10723424E+04</totfact>
</mgrwt>
</event>
<event>
 5    0  0.1856407E+000  0.2364757E+03  0.7546771E-02  0.1122163E+00
         21   -1    0    0  502  501  0.00000000000E+00  0.00000000000E+00  0.81285921841E+02  0.81285921841E+02  0.00000000000E+00 0. -1.
         21   -1    0    0  503  502 -0.00000000000E+00 -0.00000000000E+00 -0.10462735292E+04  0.10462735292E+04  0.00000000000E+00 0. -1.
         25    1    1    2    0    0 -0.16690450969E+03  0.17551616067E+03 -0.64350919918E+03  0.69885057590E+03  0.12500000000E+03 0.  0.
         21    1    1    2  503  504  0.25150261552E+02 -0.83339565410E+02 -0.30634048047E+02  0.92284688430E+02  0.00000000000E+00 0. -1.
         21    1    1    2  504  501  0.14175424813E+03 -0.92176595263E+02 -0.29084436010E+03  0.33642418668E+03  0.00000000000E+00 0. -1.
<mgrwt>
<rscale>  4 0.23647574E+03</rscale>
<asrwt>0</asrwt>
<pdfrwt beam="1">  1       21 0.12505526E-01 0.23647574E+03</pdfrwt>
<pdfrwt beam="2">  1       21 0.16096516E+00 0.23647574E+03</pdfrwt>
<totfact> 0.13093765E+04</totfact>
</mgrwt>
</event>
<event>
 5    0  0.1856407E+000  0.3771286E+03  0.7546771E-02  0.1052000E+00
         21   -1    0    0  502  501  0.00000000000E+00  0.00000000000E+00  0.29472885876E+04  0.29472885876E+04  0.00000000000E+00 0.  1.
         21   -1    0    0  503  502 -0.00000000000E+00 -0.00000000000E+00 -0.19418644320E+03  0.19418644320E+03  0.00000000000E+00 0.  1.
         25    1    1    2    0    0  0.23553772822E+03  0.26668889676E+03  0.27422395963E+04  0.27680505762E+04  0.12500000000E+03 0.  0.
         21    1    1    2  503  504  0.37005328584E+00 -0.46438676295E+02  0.19974166208E+02  0.50553485648E+02  0.00000000000E+00 0.  1.
         21    1    1    2  504  501 -0.23590778151E+03 -0.22025022046E+03 -0.91116181060E+01  0.32287096893E+03  0.00000000000E+00 0.  1.
<mgrwt>
<rscale>  4 0.37712861E+03</rscale>
<asrwt>0</asrwt>
<pdfrwt beam="1">  1       21 0.45342898E+00 0.37712861E+03</pdfrwt>
<pdfrwt beam="2">  1       21 0.29874840E-01 0.37712861E+03</pdfrwt>
<totfact> 0.33065852E+01</totfact>
</mgrwt>
</event>
<event>
 5    0  0.1856407E+000  0.2382330E+03  0.7546771E-02  0.1120976E+00
         21   -1    0    0  502  501  0.00000000000E+00  0.00000000000E+00  0.10752072696E+03  0.10752072696E+03  0.00000000000E+00 0.  1.
         21   -1    0    0  503  502 -0.00000000000E+00 -0.00000000000E+00 -0.50628755383E+03  0.50628755383E+03  0.00000000000E+00 0. -1.
         25    1    1    2    0    0 -0.18470414879E+03 -0.83751664956E+02 -0.29642975083E+03  0.38029667517E+03  0.12500000000E+03 0.  0.
         21    1    1    2  503  504  0.13808668897E+03  0.54941970226E+02 -0.99076644568E+02  0.17861336810E+03  0.00000000000E+00 0. -1.
         21    1    1    2  504  501  0.46617459819E+02  0.28809694730E+02 -0.32604314686E+01  0.54898237529E+02  0.00000000000E+00 0. -1.
<mgrwt>
<rscale>  4 0.23823300E+03</rscale>
<asrwt>0</asrwt>
<pdfrwt beam="1">  1       21 0.16541650E-01 0.23823300E+03</pdfrwt>
<pdfrwt beam="2">  1       21 0.77890394E-01 0.23823300E+03</pdfrwt>
<totfact> 0.46896801E+04</totfact>
</mgrwt>
</event>
<event>
 5    0  0.1856407E+000  0.2641458E+03  0.7546771E-02  0.1104678E+00
         21   -1    0    0  502  501  0.00000000000E+00  0.00000000000E+00  0.54312422724E+02  0.54312422724E+02  0.00000000000E+00 0. -1.
         21   -1    0    0  503  502 -0.00000000000E+00 -0.00000000000E+00 -0.11633867804E+04  0.11633867804E+04  0.00000000000E+00 0.  1.
         25    1    1    2    0    0 -0.11241676878E+03 -0.20374115576E+03 -0.56155552432E+03  0.62057843610E+03  0.12500000000E+03 0.  0.
         21    1    1    2  503  504  0.11410530454E+03  0.18124135441E+03 -0.47228737535E+03  0.51857864784E+03  0.00000000000E+00 0.  1.
         21    1    1    2  504  501 -0.16885357597E+01  0.22499801349E+02 -0.75231458044E+02  0.78542119230E+02  0.00000000000E+00 0. -1.
<mgrwt>
<rscale>  4 0.26414577E+03</rscale>
<asrwt>0</asrwt>
<pdfrwt beam="1">  1       21 0.83557579E-02 0.26414577E+03</pdfrwt>
<pdfrwt beam="2">  1       21 0.17898257E+00 0.26414577E+03</pdfrwt>
<totfact> 0.19654899E+04</totfact>
</mgrwt>
</event>
<event>
 5    0  0.1856407E+000  0.7435613E+03  0.7546771E-02  0.9645506E-01
         21   -1    0    0  502  501  0.00000000000E+00  0.00000000000E+00  0.69846033249E+03  0.69846033249E+03  0.00000000000E+00 0.  1.
         21   -1    0    0  503  502 -0.00000000000E+00 -0.00000000000E+00 -0.85671125584E+03  0.85671125584E+03  0.00000000000E+00 0.  1.
         25    1    1    2    0    0  0.73017849956E+03 -0.64013325706E+02  0.14421648867E+03  0.75741781250E+03  0.12500000000E+03 0.  0.
         21    1    1    2  503  504 -0.71383811910E+03  0.75964190399E+02 -0.29602646145E+03  0.77650955203E+03  0.00000000000E+00 0.  1.
         21    1    1    2  504  501 -0.16340380458E+02 -0.11950864693E+02 -0.64409505649E+01  0.21244223794E+02  0.00000000000E+00 0.  1.
<mgrwt>
<rscale>  4 0.74356126E+03</rscale>
<asrwt>0</asrwt>
<pdfrwt beam="1">  1       21 0.10745544E+00 0.74356126E+03</pdfrwt>
<pdfrwt beam="2">  1       21 0.13180173E+00 0.74356126E+03</pdfrwt>
<totfact> 0.21201490E+02</totfact>
</mgrwt>
</event>
<event>
 5    0  0.1856407E+000  0.2990392E+03  0.7546771E-02  0.1085722E+00
         21   -1    0    0  502  501  0.00000000000E+00  0.00000000000E+00  0.13810492000E+03  0.13810492000E+03  0.00000000000E+00 0.  1.
         21   -1    0    0  503  502 -0.00000000000E+00 -0.00000000000E+00 -0.15947299641E+04  0.15947299641E+04  0.00000000000E+00 0.  1.
         25    1    1    2    0    0  0.13147008681E+03 -0.23772898378E+03 -0.57993052792E+02  0.30461064924E+03  0.12500000000E+03 0.  0.
         21    1    1    2  503  504 -0.38754514978E+02  0.16091581064E+03 -0.70073615560E+03  0.72001872913E+03  0.00000000000E+00 0.  1.
         21    1    1    2  504  501 -0.92715571836E+02  0.76813173146E+02 -0.69789583574E+03  0.70820550575E+03  0.00000000000E+00 0.  1.
<mgrwt>
<rscale>  4 0.29903922E+03</rscale>
<asrwt>0</asrwt>
<pdfrwt beam="1">  1       21 0.21246911E-01 0.29903922E+03</pdfrwt>
<pdfrwt beam="2">  1       21 0.24534307E+00 0.29903922E+03</pdfrwt>
<totfact> 0.13198332E+03</totfact>
</mgrwt>
</event>
<event>
 5    0  0.1856407E+000  0.3576655E+03  0.7546771E-02  0.1059512E+00
         21   -1    0    0  502  501  0.00000000000E+00  0.00000000000E+00  0.13115047538E+04  0.13115047538E+04  0.00000000000E+00 0.  1.
         21   -1    0    0  503  502 -0.00000000000E+00 -0.00000000000E+00 -0.30727348707E+03  0.30727348707E+03  0.00000000000E+00 0.  1.
         25    1    1    2    0    0  0.15229019335E+03 -0.29917335484E+03  0.11723725307E+04  0.12258790112E+04  0.12500000000E+03 0.  0.
         21    1    1    2  503  504  0.18567032442E+02  0.16682302372E+02 -0.12074028117E+02  0.27727532546E+02  0.00000000000E+00 0. -1.
         21    1    1    2  504  501 -0.17085722579E+03  0.28249105247E+03 -0.15606723584E+03  0.36517169719E+03  0.00000000000E+00 0.  1.
<mgrwt>
<rscale>  4 0.35766549E+03</rscale>
<asrwt>0</asrwt>
<pdfrwt beam="1">  1       21 0.20176996E+00 0.35766549E+03</pdfrwt>
<pdfrwt beam="2">  1       21 0.47272845E-01 0.35766549E+03</pdfrwt>
<totfact> 0.48461321E+02</totfact>
</mgrwt>
</event>
<event>
 5    0  0.2026131E+000  0.2650712E+03  0.7546771E-02  0.1104134E+00
         21   -1    0    0  502  501  0.00000000000E+00  0.00000000000E+00  0.16528415990E+04  0.16528415990E+04  0.00000000000E+00 0.  1.
         21   -1    0    0  503  502 -0.00000000000E+00 -0.00000000000E+00 -0.77350945497E+02  0.77350945497E+02  0.00000000000E+00 0. -1.
         25    1    1    2    0    0 -0.95195467877E+02 -0.21348429423E+03  0.14061250735E+04  0.14308914856E+04  0.12500000000E+03 0.  0.
         21    1    1    2  503  504 -0.57974470189E+01  0.61175604997E+02  0.24722616041E+02  0.66236491321E+02  0.00000000000E+00 0. -1.
         21    1    1    2  504  501  0.10099291490E+03  0.15230868923E+03  0.14464296395E+03  0.23306456765E+03  0.00000000000E+00 0. -1.
<mgrwt>
<rscale>  4 0.26507116E+03</rscale>
<asrwt>0</asrwt>
<pdfrwt beam="1">  1       21 0.25428330E+00 0.26507116E+03</pdfrwt>
<pdfrwt beam="2">  1       21 0.11900147E-01 0.26507116E+03</pdfrwt>
<totfact> 0.34930576E+03</totfact>
</mgrwt>
</event>
<event>
 5    0  0.2708398E+000  0.2462536E+03  0.7546771E-02  0.1115696E+00
         21   -1    0    0  502  501  0.00000000000E+00  0.00000000000E+00  0.31505337182E+03  0.31505337182E+03  0.00000000000E+00 0.  1.
         21   -1    0    0  503  502 -0.00000000000E+00 -0.00000000000E+00 -0.28130548396E+03  0.28130548396E+03  0.00000000000E+00 0.  1.
         25    1    1    2    0    0 -0.12634166496E+03  0.17045128339E+03  0.20474575156E+03  0.32025252395E+03  0.12500000000E+03 0.  0.
         21    1    1    2  503  504  0.30385467047E+02 -0.35196821700E+02 -0.62626200881E+02  0.78000858343E+02  0.00000000000E+00 0.  1.
         21    1    1    2  504  501  0.95956197913E+02 -0.13525446169E+03 -0.10837166281E+03  0.19810547349E+03  0.00000000000E+00 0.  1.
<mgrwt>
<rscale>  4 0.24625364E+03</rscale>
<asrwt>0</asrwt>
<pdfrwt beam="1">  1       21 0.48469750E-01 0.24625364E+03</pdfrwt>
<pdfrwt beam="2">  1       21 0.43277767E-01 0.24625364E+03</pdfrwt>
<totfact> 0.20261292E+04</totfact>
</mgrwt>
</event>
