<event>
 5    0  0.2159162E+000  0.2815650E+03  0.7546771E-02  0.1094837E+00
         21   -1    0    0  502  501  0.00000000000E+00  0.00000000000E+00  0.58961064169E+02  0.58961064169E+02  0.00000000000E+00 0. -1.
         21   -1    0    0  503  502 -0.00000000000E+00 -0.00000000000E+00 -0.15918300602E+04  0.15918300602E+04  0.00000000000E+00 0.  1.
         25    1    1    2    0    0 -0.25228711718E+03 -0.22457174560E+01 -0.41526306058E+03  0.50171928628E+03  0.12500000000E+03 0.  0.
         21    1    1    2  503  504  0.21337220357E+03 -0.28487837770E+01 -0.76227614701E+03  0.79158116269E+03  0.00000000000E+00 0.  1.
         21    1    1    2  504  501  0.38914913607E+02  0.50945012330E+01 -0.35532978844E+03  0.35749067540E+03  0.00000000000E+00 0. -1.
<mgrwt>
<rscale>  4 0.28156497E+03</rscale>
<asrwt>0</asrwt>
<pdfrwt beam="1">  1       21 0.90709338E-02 0.28156497E+03</pdfrwt>
<pdfrwt beam="2">  1       21 0.24489691E+00 0.28156497E+03</pdfrwt>
<totfact> 0.63769462E+03</totfact>
</mgrwt>
</event>
<event>
 5    0  0.2670579E+000  0.2480353E+03  0.7546771E-02  0.1114553E+00
         21   -1    0    0  502  501  0.00000000000E+00  0.00000000000E+00  0.25054015406E+03  0.25054015406E+03  0.00000000000E+00 0. -1.
         21   -1    0    0  503  502 -0.00000000000E+00 -0.00000000000E+00 -0.35704483738E+03  0.35704483738E+03  0.00000000000E+00 0. -1.
         25    1    1    2    0    0  0.41454480472E+02 -0.21018572352E+03  0.13193083921E+03  0.28093995561E+03  0.12500000000E+03 0.  0.
         21    1    1    2  503  504 -0.24270385056E+02  0.29345369645E+02 -0.21626031506E+02  0.43793693028E+02  0.00000000000E+00 0. -1.
         21    1    1    2  504  501 -0.17184095417E+02  0.18084035388E+03 -0.21680949102E+03  0.28285134280E+03  0.00000000000E+00 0. -1.
<mgrwt>
<rscale>  4 0.24803530E+03</rscale>
<asrwt>0</asrwt>
<pdfrwt beam="1">  1       21 0.38544639E-01 0.24803530E+03</pdfrwt>
<pdfrwt beam="2">  1       21 0.54929975E-01 0.24803530E+03</pdfrwt>
<totfact> 0.19691398E+04</totfact>
</mgrwt>
</event>
<event>
 5    0  0.2159162E+000  0.2568228E+03  0.7546771E-02  0.1109067E+00
         21   -1    0    0  502  501  0.00000000000E+00  0.00000000000E+00  0.24780190353E+03  0.24780190353E+03  0.00000000000E+00 0.  1.
         21   -1    0    0  503  502 -0.00000000000E+00 -0.00000000000E+00 -0.84350005524E+03  0.84350005524E+03  0.00000000000E+00 0. -1.
         25    1    1    2    0    0 -0.87354724733E+02  0.20427774594E+03  0.13770198518E+03  0.28973622857E+03  0.12500000000E+03 0.  0.
         21    1    1    2  503  504  0.46075333223E+02 -0.24526339387E+03 -0.67267750311E+03  0.71747619604E+03  0.00000000000E+00 0. -1.
         21    1    1    2  504  501  0.41279391510E+02  0.40985647930E+02 -0.60722633787E+02  0.84089534151E+02  0.00000000000E+00 0. -1.
<mgrwt>
<rscale>  4 0.25682276E+03</rscale>
<asrwt>0</asrwt>
<pdfrwt beam="1">  1       21 0.38123370E-01 0.25682276E+03</pdfrwt>
<pdfrwt beam="2">  1       21 0.12976924E+00 0.25682276E+03</pdfrwt>
<totfact> 0.27387956E+03</totfact>
</mgrwt>
</event>
<event>
 5    0  0.2490076E+000  0.2368583E+03  0.7546771E-02  0.1121904E+00
         21   -1    0    0  502  501  0.00000000000E+00  0.00000000000E+00  0.43656111088E+03  0.43656111088E+03  0.00000000000E+00 0. -1.
         21   -1    0    0  503  502 -0.00000000000E+00 -0.00000000000E+00 -0.11191662283E+03  0.11191662283E+03  0.00000000000E+00 0.  1.
         25    1    1    2    0    0 -0.13251412448E+03  0.15138317461E+03  0.16717872498E+03  0.28991478891E+03  0.12500000000E+03 0.  0.
         21    1    1    2  503  504  0.89763151668E+02 -0.12667171580E+03  0.12664083126E+03  0.20035230751E+03  0.00000000000E+00 0.  1.
         21    1    1    2  504  501  0.42750972814E+02 -0.24711458804E+02  0.30824931810E+02  0.58210637291E+02  0.00000000000E+00 0.  1.
<mgrwt>
<rscale>  4 0.23685831E+03</rscale>
<asrwt>0</asrwt>
<pdfrwt beam="1">  1       21 0.67163247E-01 0.23685831E+03</pdfrwt>
<pdfrwt beam="2">  1       21 0.17217942E-01 0.23685831E+03</pdfrwt>
<totfact> 0.60642053E+04</totfact>
</mgrwt>
</event>
<event>
 5    0  0.2159162E+000  0.2416734E+03  0.7546771E-02  0.1118683E+00
         21   -1    0    0  502  501  0.00000000000E+00  0.00000000000E+00  0.12385797669E+03  0.12385797669E+03  0.00000000000E+00 0.  1.
         21   -1    0    0  503  502 -0.00000000000E+00 -0.00000000000E+00 -0.86776552185E+03  0.86776552185E+03  0.00000000000E+00 0.  1.
         25    1    1    2    0    0  0.43403960216E+02  0.21096856841E+03 -0.45814636020E+02  0.25321062673E+03  0.12500000000E+03 0.  0.
         21    1    1    2  503  504 -0.50624905361E+02 -0.29742710972E+02 -0.19363135895E+03  0.20233786860E+03  0.00000000000E+00 0.  1.
         21    1    1    2  504  501  0.72209451450E+01 -0.18122585743E+03 -0.50446155018E+03  0.53607500321E+03  0.00000000000E+00 0.  1.
<mgrwt>
<rscale>  4 0.24167342E+03</rscale>
<asrwt>0</asrwt>
<pdfrwt beam="1">  1       21 0.19055073E-01 0.24167342E+03</pdfrwt>
<pdfrwt beam="2">  1       21 0.13350239E+00 0.24167342E+03</pdfrwt>
<totfact> 0.98748398E+03</totfact>
</mgrwt>
</event>
<event>
 5    0  0.2159162E+000  0.2645689E+03  0.7546771E-02  0.1104429E+00
         21   -1    0    0  502  501  0.00000000000E+00  0.00000000000E+00  0.70405085858E+03  0.70405085858E+03  0.00000000000E+00 0.  1.
         21   -1    0    0  503  502 -0.00000000000E+00 -0.00000000000E+00 -0.13664977297E+03  0.13664977297E+03  0.00000000000E+00 0.  1.
         25    1    1    2    0    0  0.10894054823E+03  0.20616419756E+03  0.50783956762E+03  0.57262356382E+03  0.12500000000E+03 0.  0.
         21    1    1    2  503  504 -0.26669594150E+02 -0.11567843642E+03  0.81274433109E+02  0.14386904247E+03  0.00000000000E+00 0.  1.
         21    1    1    2  504  501 -0.82270954082E+02 -0.90485761142E+02 -0.21712915118E+02  0.12420802526E+03  0.00000000000E+00 0.  1.
<mgrwt>
<rscale>  4 0.26456893E+03</rscale>
<asrwt>0</asrwt>
<pdfrwt beam="1">  1       21 0.10831552E+00 0.26456893E+03</pdfrwt>
<pdfrwt beam="2">  1       21 0.21023042E-01 0.26456893E+03</pdfrwt>
<totfact> 0.13659348E+04</totfact>
</mgrwt>
</event>
<event>
 5    0  0.2159162E+000  0.3571647E+03  0.7546771E-02  0.1059712E+00
         21   -1    0    0  502  501  0.00000000000E+00  0.00000000000E+00  0.62178288332E+03  0.62178288332E+03  0.00000000000E+00 0. -1.
         21   -1    0    0  503  502 -0.00000000000E+00 -0.00000000000E+00 -0.66576954066E+03  0.66576954066E+03  0.00000000000E+00 0.  1.
         25    1    1    2    0    0  0.19447750017E+03  0.27496432151E+03  0.50635756935E+03  0.62084608738E+03  0.12500000000E+03 0.  0.
         21    1    1    2  503  504 -0.22328409294E+03 -0.22604528334E+03 -0.48867187407E+03  0.58288288428E+03  0.00000000000E+00 0.  1.
         21    1    1    2  504  501  0.28806592775E+02 -0.48919038168E+02 -0.61672352612E+02  0.83823452322E+02  0.00000000000E+00 0.  1.
<mgrwt>
<rscale>  4 0.35716471E+03</rscale>
<asrwt>0</asrwt>
<pdfrwt beam="1">  1       21 0.95658905E-01 0.35716471E+03</pdfrwt>
<pdfrwt beam="2">  1       21 0.10242608E+00 0.35716471E+03</pdfrwt>
<totfact> 0.62196458E+02</totfact>
</mgrwt>
</event>
<event>
 5    0  0.3364300E+000  0.2442898E+03  0.7546771E-02  0.1116968E+00
         21   -1    0    0  502  501  0.00000000000E+00  0.00000000000E+00  0.23636884270E+03  0.23636884270E+03  0.00000000000E+00 0.  1.
         21   -1    0    0  503  502 -0.00000000000E+00 -0.00000000000E+00 -0.46959638463E+03  0.46959638463E+03  0.00000000000E+00 0.  1.
         25    1    1    2    0    0  0.13395782783E+03  0.22893618265E+03  0.51908504330E+02  0.29778510404E+03  0.12500000000E+03 0.  0.
         21    1    1    2  503  504 -0.38090503966E+02 -0.53742628782E+02 -0.76711526459E+01  0.66317442831E+02  0.00000000000E+00 0.  1.
         21    1    1    2  504  501 -0.95867323868E+02 -0.17519355387E+03 -0.27746489362E+03  0.34186268046E+03  0.00000000000E+00 0.  1.
<mgrwt>
<rscale>  4 0.24428983E+03</rscale>
<asrwt>0</asrwt>
<pdfrwt beam="1">  1       21 0.36364437E-01 0.24428983E+03</pdfrwt>
<pdfrwt beam="2">  1       21 0.72245598E-01 0.24428983E+03</pdfrwt>
<totfact> 0.12210282E+04</totfact>
</mgrwt>
</event>
<event>
 5    0  0.2159162E+000  0.2655029E+03  0.7546771E-02  0.1103881E+00
         21   -1    0    0  502  501  0.00000000000E+00  0.00000000000E+00  0.30708573507E+03  0.30708573507E+03  0.00000000000E+00 0.  1.
         21   -1    0    0  503  502 -0.00000000000E+00 -0.00000000000E+00 -0.26218835168E+03  0.26218835168E+03  0.00000000000E+00 0. -1.
         25    1    1    2    0    0 -0.66048841894E+02  0.22473173369E+03  0.15369930278E+03  0.30678213331E+03  0.12500000000E+03 0.  0.
         21    1    1    2  503  504  0.65370665645E+02 -0.14850358550E+03 -0.80997722888E+02  0.18134847655E+03  0.00000000000E+00 0. -1.
         21    1    1    2  504  501  0.67817624947E+00 -0.76228148192E+02 -0.27804196505E+02  0.81143476898E+02  0.00000000000E+00 0.  1.
<mgrwt>
<rscale>  4 0.26550292E+03</rscale>
<asrwt>0</asrwt>
<pdfrwt beam="1">  1       21 0.47243959E-01 0.26550292E+03</pdfrwt>
<pdfrwt beam="2">  1       21 0.40336670E-01 0.26550292E+03</pdfrwt>
<totfact> 0.24467844E+04</totfact>
</mgrwt>
</event>
<event>
 5    0  0.2159162E+000  0.2629320E+03  0.7546771E-02  0.1105394E+00
         21   -1    0    0  502  501  0.00000000000E+00  0.00000000000E+00  0.14183973950E+03  0.14183973950E+03  0.00000000000E+00 0. -1.
         21   -1    0    0  503  502 -0.00000000000E+00 -0.00000000000E+00 -0.63918519068E+03  0.63918519068E+03  0.00000000000E+00 0. -1.
         25    1    1    2    0    0  0.13001655416E+01  0.23131482103E+03 -0.38514674076E+02  0.26573787268E+03  0.12500000000E+03 0.  0.
         21    1    1    2  503  504  0.17909603855E+01 -0.32619802787E+02 -0.39546586766E+02  0.51295142049E+02  0.00000000000E+00 0. -1.
         21    1    1    2  504  501 -0.30911259272E+01 -0.19869501825E+03 -0.41928419034E+03  0.46399191545E+03  0.00000000000E+00 0. -1.
<mgrwt>
<rscale>  4 0.26293200E+03</rscale>
<asrwt>0</asrwt>
<pdfrwt beam="1">  1       21 0.21821498E-01 0.26293200E+03</pdfrwt>
<pdfrwt beam="2">  1       21 0.98336186E-01 0.26293200E+03</pdfrwt>
<totfact> 0.16085858E+04</totfact>
</mgrwt>
</event>
<event>
 5    0  0.2159162E+000  0.3528360E+03  0.7546771E-02  0.1061457E+00
         21   -1    0    0  502  501  0.00000000000E+00  0.00000000000E+00  0.15858471432E+03  0.15858471432E+03  0.00000000000E+00 0. -1.
         21   -1    0    0  503  502 -0.00000000000E+00 -0.00000000000E+00 -0.12180356949E+04  0.12180356949E+04  0.00000000000E+00 0. -1.
         25    1    1    2    0    0 -0.15278704531E+02 -0.32959796178E+03 -0.11312309713E+03  0.37052677410E+03  0.12500000000E+03 0.  0.
         21    1    1    2  503  504  0.24363056410E+02  0.27021473880E+03 -0.66107495735E+03  0.71458355902E+03  0.00000000000E+00 0. -1.
         21    1    1    2  504  501 -0.90843518790E+01  0.59383222981E+02 -0.28525292607E+03  0.29151007607E+03  0.00000000000E+00 0. -1.
<mgrwt>
<rscale>  4 0.35283602E+03</rscale>
<asrwt>0</asrwt>
<pdfrwt beam="1">  1       21 0.24397649E-01 0.35283602E+03</pdfrwt>
<pdfrwt beam="2">  1       21 0.18739010E+00 0.35283602E+03</pdfrwt>
<totfact> 0.22912971E+03</totfact>
</mgrwt>
</event>
<event>
 5    0  0.3628839E+000  0.2789232E+03  0.7546771E-02  0.1096279E+00
         21   -1    0    0  502  501  0.00000000000E+00  0.00000000000E+00  0.13487567723E+04  0.13487567723E+04  0.00000000000E+00 0.  1.
         21   -1    0    0  503  502 -0.00000000000E+00 -0.00000000000E+00 -0.71879148376E+02  0.71879148376E+02  0.00000000000E+00 0.  1.
         25    1    1    2    0    0 -0.10944877688E+03  0.26080231027E+03  0.70567733388E+03  0.77045595549E+03  0.12500000000E+03 0.  0.
         21    1    1    2  503  504  0.10515940109E+03 -0.19997122308E+03  0.53119215136E+03  0.57724526101E+03  0.00000000000E+00 0.  1.
         21    1    1    2  504  501  0.42893757875E+01 -0.60831087188E+02  0.40008138714E+02  0.72934704198E+02  0.00000000000E+00 0.  1.
<mgrwt>
<rscale>  4 0.27892322E+03</rscale>
<asrwt>0</asrwt>
<pdfrwt beam="1">  1       21 0.20750102E+00 0.27892322E+03</pdfrwt>
<pdfrwt beam="2">  1       21 0.11058332E-01 0.27892322E+03</pdfrwt>
<totfact> 0.76554805E+03</totfact>
</mgrwt>
</event>
<event>
 5    0  0.2159162E+000  0.2967251E+03  0.7546771E-02  0.1086889E+00
         21   -1    0    0  502  501  0.00000000000E+00  0.00000000000E+00  0.36617132463E+03  0.36617132463E+03  0.00000000000E+00 0.  1.
         21   -1    0    0  503  502 -0.00000000000E+00 -0.00000000000E+00 -0.19533189137E+04  0.19533189137E+04  0.00000000000E+00 0.  1.
         25    1    1    2    0    0  0.48572954992E+02  0.26512635448E+03  0.29258475696E+03  0.41699179344E+03  0.12500000000E+03 0.  0.
         21    1    1    2  503  504 -0.62847468266E+02 -0.24916006528E+03 -0.18349863371E+04  0.18528910922E+04  0.00000000000E+00 0.  1.
         21    1    1    2  504  501  0.14274513275E+02 -0.15966289197E+02 -0.44746008961E+02  0.49607352660E+02  0.00000000000E+00 0. -1.
<mgrwt>
<rscale>  4 0.29672509E+03</rscale>
<asrwt>0</asrwt>
<pdfrwt beam="1">  1       21 0.56334049E-01 0.29672509E+03</pdfrwt>
<pdfrwt beam="2">  1       21 0.30051060E+00 0.29672509E+03</pdfrwt>
<totfact> 0.87674983E+01</totfact>
</mgrwt>
</event>
<event>
 5    0  0.2159162E+000  0.2443999E+03  0.7546771E-02  0.1116896E+00
         21   -1    0    0  502  501  0.00000000000E+00  0.00000000000E+00  0.80942021725E+02  0.80942021725E+02  0.00000000000E+00 0.  1.
         21   -1    0    0  503  502 -0.00000000000E+00 -0.00000000000E+00 -0.11434061945E+04  0.11434061945E+04  0.00000000000E+00 0.  1.
         25    1    1    2    0    0  0.82022353971E+02  0.19333553421E+03 -0.15539910196E+03  0.28962074551E+03  0.12500000000E+03 0.  0.
         21    1    1    2  503  504 -0.30651365789E+02 -0.79914156888E+02 -0.21248963963E+03  0.22907995470E+03  0.00000000000E+00 0.  1.
         21    1    1    2  504  501 -0.51370988182E+02 -0.11342137732E+03 -0.69457543121E+03  0.70564751605E+03  0.00000000000E+00 0.  1.
<mgrwt>
<rscale>  4 0.24439987E+03</rscale>
<asrwt>0</asrwt>
<pdfrwt beam="1">  1       21 0.12452619E-01 0.24439987E+03</pdfrwt>
<pdfrwt beam="2">  1       21 0.17590864E+00 0.24439987E+03</pdfrwt>
<totfact> 0.10266573E+04</totfact>
</mgrwt>
</event>
<event>
 5    0  0.2159162E+000  0.2586426E+03  0.7546771E-02  0.1107962E+00
         21   -1    0    0  502  501  0.00000000000E+00  0.00000000000E+00  0.57243551569E+03  0.57243551569E+03  0.00000000000E+00 0. -1.
         21   -1    0    0  503  502 -0.00000000000E+00 -0.00000000000E+00 -0.66883695593E+03  0.66883695593E+03  0.00000000000E+00 0.  1.
         25    1    1    2    0    0 -0.18168919543E+03  0.13321816055E+03  0.51174813619E+03  0.57294781344E+03  0.12500000000E+03 0.  0.
         21    1    1    2  503  504  0.20591752812E+03 -0.13516680413E+03 -0.49876572364E+03  0.55627272125E+03  0.00000000000E+00 0.  1.
         21    1    1    2  504  501 -0.24228332687E+02  0.19486435824E+01 -0.10938385280E+03  0.11205193693E+03  0.00000000000E+00 0.  1.
<mgrwt>
<rscale>  4 0.25864257E+03</rscale>
<asrwt>0</asrwt>
<pdfrwt beam="1">  1       21 0.88067003E-01 0.25864257E+03</pdfrwt>
<pdfrwt beam="2">  1       21 0.10289799E+00 0.25864257E+03</pdfrwt>
<totfact> 0.79776406E+02</totfact>
</mgrwt>
</event>
<event>
 5    0  0.2159162E+000  0.2423976E+03  0.7546771E-02  0.1118206E+00
         21   -1    0    0  502  501  0.00000000000E+00  0.00000000000E+00  0.15116264709E+03  0.15116264709E+03  0.00000000000E+00 0. -1.
         21   -1    0    0  503  502 -0.00000000000E+00 -0.00000000000E+00 -0.11914470791E+04  0.11914470791E+04  0.00000000000E+00 0.  1.
         25    1    1    2    0    0  0.62309462507E+01  0.20758800407E+03  0.35377383107E+02  0.24496563710E+03  0.12500000000E+03 0.  0.
         21    1    1    2  503  504 -0.15993863731E+02 -0.29806453136E+02 -0.29512551962E+03  0.29705773960E+03  0.00000000000E+00 0.  1.
         21    1    1    2  504  501  0.97629174805E+01 -0.17778155094E+03 -0.78053629553E+03  0.80058634953E+03  0.00000000000E+00 0.  1.
<mgrwt>
<rscale>  4 0.24239762E+03</rscale>
<asrwt>0</asrwt>
<pdfrwt beam="1">  1       21 0.23255793E-01 0.24239762E+03</pdfrwt>
<pdfrwt beam="2">  1       21 0.18329954E+00 0.24239762E+03</pdfrwt>
<totfact> 0.28758940E+03</totfact>
</mgrwt>
</event>
