<event>
 5    0  0.2616456E+000  0.2559011E+03  0.7546771E-02  0.1109631E+00
         21   -1    0    0  502  501  0.00000000000E+00  0.00000000000E+00  0.89170194938E+02  0.89170194938E+02  0.00000000000E+00 0. -1.
         21   -1    0    0  503  502 -0.00000000000E+00 -0.00000000000E+00 -0.72128371371E+03  0.72128371371E+03  0.00000000000E+00 0. -1.
         25    1    1    2    0    0 -0.18566597974E+03  0.12405045529E+03 -0.20928085932E+03  0.33058107866E+03  0.12500000000E+03 0.  0.
         21    1    1    2  503  504  0.32420438872E+02 -0.87659652002E+01 -0.85210594256E+02  0.91590241708E+02  0.00000000000E+00 0. -1.
         21    1    1    2  504  501  0.15324554087E+03 -0.11528449009E+03 -0.33762206519E+03  0.38828258827E+03  0.00000000000E+00 0. -1.
<mgrwt>
<rscale>  4 0.25590110E+03</rscale>
<asrwt>0</asrwt>
<pdfrwt beam="1">  1       21 0.13718491E-01 0.25590110E+03</pdfrwt>
<pdfrwt beam="2">  1       21 0.11096673E+00 0.25590110E+03</pdfrwt>
<totfact> 0.28526655E+04</totfact>
</mgrwt>
</event>
<event>
 5    0  0.2159162E+000  0.2466959E+03  0.7546771E-02  0.1115411E+00
         21   -1    0    0  502  501  0.00000000000E+00  0.00000000000E+00  0.80412532448E+02  0.80412532448E+02  0.00000000000E+00 0.  1.
         21   -1    0    0  503  502 -0.00000000000E+00 -0.00000000000E+00 -0.10036090041E+04  0.10036090041E+04  0.00000000000E+00 0.  1.
         25    1    1    2    0    0 -0.11849317973E+03 -0.17661604835E+03 -0.17447637512E+03  0.30216033434E+03  0.12500000000E+03 0.  0.
         21    1    1    2  503  504  0.24868949096E+02  0.87069039505E+02 -0.39261600551E+03  0.40292283387E+03  0.00000000000E+00 0.  1.
         21    1    1    2  504  501  0.93624230634E+02  0.89547008840E+02 -0.35610409100E+03  0.37893836832E+03  0.00000000000E+00 0.  1.
<mgrwt>
<rscale>  4 0.24669589E+03</rscale>
<asrwt>0</asrwt>
<pdfrwt beam="1">  1       21 0.12371159E-01 0.24669589E+03</pdfrwt>
<pdfrwt beam="2">  1       21 0.15440139E+00 0.24669589E+03</pdfrwt>
<totfact> 0.14853690E+04</totfact>
</mgrwt>
</event>
<event>
 5    0  0.3760238E+000  0.2529983E+03  0.7546771E-02  0.1111424E+00
         21   -1    0    0  502  501  0.00000000000E+00  0.00000000000E+00  0.43261716891E+03  0.43261716891E+03  0.00000000000E+00 0.  1.
         21   -1    0    0  503  502 -0.00000000000E+00 -0.00000000000E+00 -0.14975383318E+03  0.14975383318E+03  0.00000000000E+00 0.  1.
         25    1    1    2    0    0 -0.17897045134E+03 -0.14277847076E+03  0.11168872475E+03  0.28375250731E+03  0.12500000000E+03 0.  0.
         21    1    1    2  503  504  0.54184961266E+00  0.23069633238E+02 -0.12708260958E+01  0.23110962285E+02  0.00000000000E+00 0.  1.
         21    1    1    2  504  501  0.17842860173E+03  0.11970883752E+03  0.17244543708E+03  0.27550753250E+03  0.00000000000E+00 0.  1.
<mgrwt>
<rscale>  4 0.25299832E+03</rscale>
<asrwt>0</asrwt>
<pdfrwt beam="1">  1       21 0.66556487E-01 0.25299832E+03</pdfrwt>
<pdfrwt beam="2">  1       21 0.23039051E-01 0.25299832E+03</pdfrwt>
<totfact> 0.35567692E+04</totfact>
</mgrwt>
</event>
<event>
 5    0  0.3371759E+000  0.2483850E+03  0.7546771E-02  0.1114330E+00
         21   -1    0    0  502  501  0.00000000000E+00  0.00000000000E+00  0.11038023021E+03  0.11038023021E+03  0.00000000000E+00 0. -1.
         21   -1    0    0  503  502 -0.00000000000E+00 -0.00000000000E+00 -0.51668939938E+03  0.51668939938E+03  0.00000000000E+00 0. -1.
         25    1    1    2    0    0  0.21462232421E+03  0.27179169499E+01 -0.24440234071E+03  0.34846468008E+03  0.12500000000E+03 0.  0.
         21    1    1    2  503  504 -0.19438126445E+03 -0.25116477707E+02 -0.14659211002E+03  0.24475326380E+03  0.00000000000E+00 0. -1.
         21    1    1    2  504  501 -0.20241059757E+02  0.22398560757E+02 -0.15314718446E+02  0.33851685706E+02  0.00000000000E+00 0. -1.
<mgrwt>
<rscale>  4 0.24838504E+03</rscale>
<asrwt>0</asrwt>
<pdfrwt beam="1">  1       21 0.16981574E-01 0.24838504E+03</pdfrwt>
<pdfrwt beam="2">  1       21 0.79490677E-01 0.24838504E+03</pdfrwt>
<totfact> 0.42480700E+04</totfact>
</mgrwt>
</event>
<event>
 5    0  0.2159162E+000  0.2462854E+03  0.7546771E-02  0.1115675E+00
         21   -1    0    0  502  501  0.00000000000E+00  0.00000000000E+00  0.86932820256E+02  0.86932820256E+02  0.00000000000E+00 0.  1.
         21   -1    0    0  503  502 -0.00000000000E+00 -0.00000000000E+00 -0.67331651417E+03  0.67331651417E+03  0.00000000000E+00 0.  1.
         25    1    1    2    0    0 -0.11443287978E+03 -0.17870820865E+03 -0.20131225310E+03  0.31809295978E+03  0.12500000000E+03 0.  0.
         21    1    1    2  503  504  0.76632421141E+02  0.14595145267E+03 -0.26507435751E+03  0.31215183728E+03  0.00000000000E+00 0.  1.
         21    1    1    2  504  501  0.37800458636E+02  0.32756755980E+02 -0.11999708330E+03  0.13000453737E+03  0.00000000000E+00 0. -1.
<mgrwt>
<rscale>  4 0.24628542E+03</rscale>
<asrwt>0</asrwt>
<pdfrwt beam="1">  1       21 0.13374281E-01 0.24628542E+03</pdfrwt>
<pdfrwt beam="2">  1       21 0.10358715E+00 0.24628542E+03</pdfrwt>
<totfact> 0.35466531E+04</totfact>
</mgrwt>
</event>
<event>
 5    0  0.2159162E+000  0.2459001E+03  0.7546771E-02  0.1115924E+00
         21   -1    0    0  502  501  0.00000000000E+00  0.00000000000E+00  0.32894010511E+02  0.32894010511E+02  0.00000000000E+00 0. -1.
         21   -1    0    0  503  502 -0.00000000000E+00 -0.00000000000E+00 -0.16262726521E+04  0.16262726521E+04  0.00000000000E+00 0. -1.
         25    1    1    2    0    0  0.18844298245E+03  0.96597634823E+02 -0.91325424843E+03  0.94578019802E+03  0.12500000000E+03 0.  0.
         21    1    1    2  503  504 -0.14710228414E+03 -0.89237359347E+02 -0.57487887828E+03  0.60007342300E+03  0.00000000000E+00 0. -1.
         21    1    1    2  504  501 -0.41340698314E+02 -0.73602754761E+01 -0.10524551486E+03  0.11331304158E+03  0.00000000000E+00 0. -1.
<mgrwt>
<rscale>  4 0.24590010E+03</rscale>
<asrwt>0</asrwt>
<pdfrwt beam="1">  1       21 0.50606167E-02 0.24590010E+03</pdfrwt>
<pdfrwt beam="2">  1       21 0.25019581E+00 0.24590010E+03</pdfrwt>
<totfact> 0.16741976E+04</totfact>
</mgrwt>
</event>
<event>
 5    0  0.4286143E+000  0.4138036E+03  0.7546771E-02  0.1039102E+00
         21   -1    0    0  502  501  0.00000000000E+00  0.00000000000E+00  0.48358976457E+03  0.48358976457E+03  0.00000000000E+00 0. -1.
         21   -1    0    0  503  502 -0.00000000000E+00 -0.00000000000E+00 -0.34350589640E+03  0.34350589640E+03  0.00000000000E+00 0. -1.
         25    1    1    2    0    0 -0.97406114439E+02  0.38225709970E+03  0.95909713777E+02  0.42477301538E+03  0.12500000000E+03 0.  0.
         21    1    1    2  503  504  0.10032641599E+03 -0.34582219181E+03  0.54870974719E+02  0.36423783708E+03  0.00000000000E+00 0. -1.
         21    1    1    2  504  501 -0.29203015474E+01 -0.36434907883E+02 -0.10696820322E+02  0.38084808501E+02  0.00000000000E+00 0. -1.
<mgrwt>
<rscale>  4 0.41380363E+03</rscale>
<asrwt>0</asrwt>
<pdfrwt beam="1">  1       21 0.74398425E-01 0.41380363E+03</pdfrwt>
<pdfrwt beam="2">  1       21 0.52847061E-01 0.41380363E+03</pdfrwt>
<totfact> 0.48902450E+03</totfact>
</mgrwt>
</event>
<event>
 5    0  0.2159162E+000  0.2465888E+03  0.7546771E-02  0.1115480E+00
         21   -1    0    0  502  501  0.00000000000E+00  0.00000000000E+00  0.20287800485E+03  0.20287800485E+03  0.00000000000E+00 0.  1.
         21   -1    0    0  503  502 -0.00000000000E+00 -0.00000000000E+00 -0.36301948689E+03  0.36301948689E+03  0.00000000000E+00 0.  1.
         25    1    1    2    0    0 -0.49138189490E+02 -0.20680057811E+03  0.62533177642E+02  0.25439425913E+03  0.12500000000E+03 0.  0.
         21    1    1    2  503  504 -0.36767692926E+01  0.79311377047E+02 -0.71936268686E+02  0.10713841474E+03  0.00000000000E+00 0.  1.
         21    1    1    2  504  501  0.52814958783E+02  0.12748920106E+03 -0.15073839100E+03  0.20436481786E+03  0.00000000000E+00 0.  1.
<mgrwt>
<rscale>  4 0.24658881E+03</rscale>
<asrwt>0</asrwt>
<pdfrwt beam="1">  1       21 0.31212001E-01 0.24658881E+03</pdfrwt>
<pdfrwt beam="2">  1       21 0.55849151E-01 0.24658881E+03</pdfrwt>
<totfact> 0.28975503E+04</totfact>
</mgrwt>
</event>
<event>
 5    0  0.2159162E+000  0.3343461E+03  0.7546771E-02  0.1069230E+00
         21   -1    0    0  502  501  0.00000000000E+00  0.00000000000E+00  0.74370049454E+03  0.74370049454E+03  0.00000000000E+00 0. -1.
         21   -1    0    0  503  502 -0.00000000000E+00 -0.00000000000E+00 -0.14723623010E+03  0.14723623010E+03  0.00000000000E+00 0.  1.
         25    1    1    2    0    0 -0.30974140298E+03 -0.14919767424E+02  0.37595718272E+03  0.50312139630E+03  0.12500000000E+03 0.  0.
         21    1    1    2  503  504  0.21321904405E+03  0.44760199980E+02  0.15575189458E+03  0.26781428064E+03  0.00000000000E+00 0.  1.
         21    1    1    2  504  501  0.96522358925E+02 -0.29840432556E+02  0.64755187141E+02  0.12000104770E+03  0.00000000000E+00 0.  1.
<mgrwt>
<rscale>  4 0.33434613E+03</rscale>
<asrwt>0</asrwt>
<pdfrwt beam="1">  1       21 0.11441546E+00 0.33434613E+03</pdfrwt>
<pdfrwt beam="2">  1       21 0.22651728E-01 0.33434613E+03</pdfrwt>
<totfact> 0.10031021E+04</totfact>
</mgrwt>
</event>
<event>
 5    0  0.2159162E+000  0.2362711E+03  0.7546771E-02  0.1122302E+00
         21   -1    0    0  502  501  0.00000000000E+00  0.00000000000E+00  0.97185113068E+03  0.97185113068E+03  0.00000000000E+00 0. -1.
         21   -1    0    0  503  502 -0.00000000000E+00 -0.00000000000E+00 -0.57654310761E+02  0.57654310761E+02  0.00000000000E+00 0. -1.
         25    1    1    2    0    0  0.17981579481E+03  0.88686645109E+02  0.30242781526E+03  0.38377939565E+03  0.12500000000E+03 0.  0.
         21    1    1    2  503  504 -0.15100806886E+03 -0.64355943661E+02  0.54335152371E+03  0.56760549915E+03  0.00000000000E+00 0. -1.
         21    1    1    2  504  501 -0.28807725959E+02 -0.24330701449E+02  0.68417480948E+02  0.78120546639E+02  0.00000000000E+00 0. -1.
<mgrwt>
<rscale>  4 0.23627112E+03</rscale>
<asrwt>0</asrwt>
<pdfrwt beam="1">  1       21 0.14951555E+00 0.23627112E+03</pdfrwt>
<pdfrwt beam="2">  1       21 0.88698947E-02 0.23627112E+03</pdfrwt>
<totfact> 0.29441873E+04</totfact>
</mgrwt>
</event>
