<event>
 5    0  0.1856407E+000  0.5962856E+03  0.7546771E-02  0.9913142E-01
         21   -1    0    0  502  501  0.00000000000E+00  0.00000000000E+00  0.97109073463E+03  0.97109073463E+03  0.00000000000E+00 0.  1.
         21   -1    0    0  503  502 -0.00000000000E+00 -0.00000000000E+00 -0.78856990561E+03  0.78856990561E+03  0.00000000000E+00 0.  1.
         25    1    1    2    0    0  0.12815891647E+03 -0.64476620024E+03  0.50948129597E+03  0.84103766371E+03  0.12500000000E+03 0.  0.
         21    1    1    2  503  504 -0.29977883724E+03  0.31972506532E+03 -0.33391505598E+03  0.55099068346E+03  0.00000000000E+00 0.  1.
         21    1    1    2  504  501  0.17161992077E+03  0.32504113492E+03  0.69545890303E+01  0.36763229307E+03  0.00000000000E+00 0. -1.
<mgrwt>
<rscale>  4 0.59628559E+03</rscale>
<asrwt>0</asrwt>
<pdfrwt beam="1">  1       21 0.14939857E+00 0.59628559E+03</pdfrwt>
<pdfrwt beam="2">  1       21 0.12131845E+00 0.59628559E+03</pdfrwt>
<totfact> 0.11701118E+02</totfact>
</mgrwt>
</event>
<event>
 5    0  0.1856407E+000  0.2579615E+03  0.7546771E-02  0.1108374E+00
         21   -1    0    0  502  501  0.00000000000E+00  0.00000000000E+00  0.32100427759E+03  0.32100427759E+03  0.00000000000E+00 0.  1.
         21   -1    0    0  503  502 -0.00000000000E+00 -0.00000000000E+00 -0.60570395016E+03  0.60570395016E+03  0.00000000000E+00 0.  1.
         25    1    1    2    0    0 -0.64095582423E+02 -0.25686498547E+03  0.14891499436E+03  0.32846390973E+03  0.12500000000E+03 0.  0.
         21    1    1    2  503  504 -0.61497416144E+02  0.72634719595E+02  0.15879704211E+02  0.96487821454E+02  0.00000000000E+00 0.  1.
         21    1    1    2  504  501  0.12559299857E+03  0.18423026587E+03 -0.44949437115E+03  0.50175649657E+03  0.00000000000E+00 0.  1.
<mgrwt>
<rscale>  4 0.25796155E+03</rscale>
<asrwt>0</asrwt>
<pdfrwt beam="1">  1       21 0.49385274E-01 0.25796155E+03</pdfrwt>
<pdfrwt beam="2">  1       21 0.93185223E-01 0.25796155E+03</pdfrwt>
<totfact> 0.36117904E+03</totfact>
</mgrwt>
</event>
<event>
 5    0  0.1856407E+000  0.2457917E+03  0.7546771E-02  0.1115994E+00
         21   -1    0    0  502  501  0.00000000000E+00  0.00000000000E+00  0.16836172035E+04  0.16836172035E+04  0.00000000000E+00 0.  1.
         21   -1    0    0  503  502 -0.00000000000E+00 -0.00000000000E+00 -0.58594422334E+02  0.58594422334E+02  0.00000000000E+00 0.  1.
         25    1    1    2    0    0  0.46369456654E+02  0.20649081775E+03  0.14336563364E+04  0.14545735029E+04  0.12500000000E+03 0.  0.
         21    1    1    2  503  504 -0.43161059558E+02 -0.18614987340E+03  0.15585308010E+03  0.24658636419E+03  0.00000000000E+00 0.  1.
         21    1    1    2  504  501 -0.32083970957E+01 -0.20340944350E+02  0.35513364622E+02  0.41051758741E+02  0.00000000000E+00 0.  1.
<mgrwt>
<rscale>  4 0.24579175E+03</rscale>
<asrwt>0</asrwt>
<pdfrwt beam="1">  1       21 0.25901800E+00 0.24579175E+03</pdfrwt>
<pdfrwt beam="2">  1       21 0.90145278E-02 0.24579175E+03</pdfrwt>
<totfact> 0.54558309E+03</totfact>
</mgrwt>
</event>
<event>
 5    0  0.1856407E+000  0.2364487E+03  0.7546771E-02  0.1122181E+00
         21   -1    0    0  502  501  0.00000000000E+00  0.00000000000E+00  0.23061220630E+03  0.23061220630E+03  0.00000000000E+00 0.  1.
         21   -1    0    0  503  502 -0.00000000000E+00 -0.00000000000E+00 -0.24448413407E+03  0.24448413407E+03  0.00000000000E+00 0.  1.
         25    1    1    2    0    0  0.56702390781E+02 -0.19253009027E+03 -0.86486057635E+02  0.25176940828E+03  0.12500000000E+03 0.  0.
         21    1    1    2  503  504 -0.30753249085E+02  0.87316099691E+02  0.67995448684E+02  0.11486185022E+03  0.00000000000E+00 0.  1.
         21    1    1    2  504  501 -0.25949141696E+02  0.10521399058E+03  0.46186811858E+01  0.10846508187E+03  0.00000000000E+00 0.  1.
<mgrwt>
<rscale>  4 0.23644872E+03</rscale>
<asrwt>0</asrwt>
<pdfrwt beam="1">  1       21 0.35478801E-01 0.23644872E+03</pdfrwt>
<pdfrwt beam="2">  1       21 0.37612944E-01 0.23644872E+03</pdfrwt>
<totfact> 0.51189359E+04</totfact>
</mgrwt>
</event>
<event>
 5    0  0.1856407E+000  0.2882506E+03  0.7546771E-02  0.1091266E+00
         21   -1    0    0  502  501  0.00000000000E+00  0.00000000000E+00  0.20846473587E+03  0.20846473587E+03  0.00000000000E+00 0. -1.
         21   -1    0    0  503  502 -0.00000000000E+00 -0.00000000000E+00 -0.21173661185E+04  0.21173661185E+04  0.00000000000E+00 0.  1.
         25    1    1    2    0    0  0.15278958745E+03 -0.21004461255E+03  0.95872667112E+02  0.30377617681E+03  0.12500000000E+03 0.  0.
         21    1    1    2  503  504 -0.14222808075E+03  0.17501282272E+03 -0.17953318874E+04  0.18094404939E+04  0.00000000000E+00 0.  1.
         21    1    1    2  504  501 -0.10561506702E+02  0.35031789829E+02 -0.20944216231E+03  0.21261418362E+03  0.00000000000E+00 0.  1.
<mgrwt>
<rscale>  4 0.28825058E+03</rscale>
<asrwt>0</asrwt>
<pdfrwt beam="1">  1       21 0.32071498E-01 0.28825058E+03</pdfrwt>
<pdfrwt beam="2">  1       21 0.32574863E+00 0.28825058E+03</pdfrwt>
<totfact> 0.20025369E+02</totfact>
</mgrwt>
</event>
<event>
 5    0  0.2386453E+000  0.2936957E+03  0.7546771E-02  0.1088435E+00
         21   -1    0    0  502  501  0.00000000000E+00  0.00000000000E+00  0.14348757216E+03  0.14348757216E+03  0.00000000000E+00 0. -1.
         21   -1    0    0  503  502 -0.00000000000E+00 -0.00000000000E+00 -0.96232842330E+03  0.96232842330E+03  0.00000000000E+00 0. -1.
         25    1    1    2    0    0 -0.47697774405E+02 -0.26145193195E+03 -0.59359624670E+02  0.29963436960E+03  0.12500000000E+03 0.  0.
         21    1    1    2  503  504  0.10482115474E+02  0.27164532556E+02 -0.47437892652E+02  0.55660939922E+02  0.00000000000E+00 0. -1.
         21    1    1    2  504  501  0.37215658931E+02  0.23428739939E+03 -0.71204333382E+03  0.75052068594E+03  0.00000000000E+00 0. -1.
<mgrwt>
<rscale>  4 0.29369574E+03</rscale>
<asrwt>0</asrwt>
<pdfrwt beam="1">  1       21 0.22075012E-01 0.29369574E+03</pdfrwt>
<pdfrwt beam="2">  1       21 0.14805052E+00 0.29369574E+03</pdfrwt>
<totfact> 0.55396515E+03</totfact>
</mgrwt>
</event>
<event>
 5    0  0.1856407E+000  0.3092609E+03  0.7546771E-02  0.1080701E+00
         21   -1    0    0  502  501  0.00000000000E+00  0.00000000000E+00  0.23905604292E+03  0.23905604292E+03  0.00000000000E+00 0. -1.
         21   -1    0    0  503  502 -0.00000000000E+00 -0.00000000000E+00 -0.74470585329E+03  0.74470585329E+03  0.00000000000E+00 0. -1.
         25    1    1    2    0    0 -0.54988147788E+01 -0.30376460916E+03  0.58679140133E+02  0.33372356259E+03  0.12500000000E+03 0.  0.
         21    1    1    2  503  504  0.13354524488E+02  0.24503666679E+02 -0.10649338734E+02  0.29869406095E+02  0.00000000000E+00 0. -1.
         21    1    1    2  504  501 -0.78557097096E+01  0.27926094248E+03 -0.55367961178E+03  0.62016892752E+03  0.00000000000E+00 0. -1.
<mgrwt>
<rscale>  4 0.30926087E+03</rscale>
<asrwt>0</asrwt>
<pdfrwt beam="1">  1       21 0.36777853E-01 0.30926087E+03</pdfrwt>
<pdfrwt beam="2">  1       21 0.11457013E+00 0.30926087E+03</pdfrwt>
<totfact> 0.39041081E+03</totfact>
</mgrwt>
</event>
<event>
 5    0  0.1856407E+000  0.2531228E+03  0.7546771E-02  0.1111347E+00
         21   -1    0    0  502  501  0.00000000000E+00  0.00000000000E+00  0.11872977110E+03  0.11872977110E+03  0.00000000000E+00 0.  1.
         21   -1    0    0  503  502 -0.00000000000E+00 -0.00000000000E+00 -0.52421780840E+03  0.52421780840E+03  0.00000000000E+00 0.  1.
         25    1    1    2    0    0  0.40058270901E+01  0.22006835334E+03 -0.11962701217E+03  0.27996740673E+03  0.12500000000E+03 0.  0.
         21    1    1    2  503  504 -0.15358904517E+02 -0.39231820623E+02 -0.46068252068E+02  0.62428483451E+02  0.00000000000E+00 0.  1.
         21    1    1    2  504  501  0.11353077427E+02 -0.18083653272E+03 -0.23979277307E+03  0.30055168931E+03  0.00000000000E+00 0.  1.
<mgrwt>
<rscale>  4 0.25312275E+03</rscale>
<asrwt>0</asrwt>
<pdfrwt beam="1">  1       21 0.18266119E-01 0.25312275E+03</pdfrwt>
<pdfrwt beam="2">  1       21 0.80648894E-01 0.25312275E+03</pdfrwt>
<totfact> 0.35827508E+04</totfact>
</mgrwt>
</event>
<event>
 5    0  0.1856407E+000  0.2135423E+03  0.7546771E-02  0.1138791E+00
         21   -1    0    0  502  501  0.00000000000E+00  0.00000000000E+00  0.46136330417E+03  0.46136330417E+03  0.00000000000E+00 0. -1.
         21   -1    0    0  503  502 -0.00000000000E+00 -0.00000000000E+00 -0.18799741557E+03  0.18799741557E+03  0.00000000000E+00 0.  1.
         25    1    1    2    0    0  0.56331295179E+02 -0.23647970597E+03  0.24542922336E+03  0.36736408348E+03  0.12500000000E+03 0.  0.
         21    1    1    2  503  504 -0.44548618891E+02  0.77055264089E+02  0.73872203916E+02  0.11566847315E+03  0.00000000000E+00 0.  1.
         21    1    1    2  504  501 -0.11782676289E+02  0.15942444188E+03 -0.45935538671E+02  0.16632816311E+03  0.00000000000E+00 0.  1.
<mgrwt>
<rscale>  4 0.21354231E+03</rscale>
<asrwt>0</asrwt>
<pdfrwt beam="1">  1       21 0.70978970E-01 0.21354231E+03</pdfrwt>
<pdfrwt beam="2">  1       21 0.28922679E-01 0.21354231E+03</pdfrwt>
<totfact> 0.20307346E+04</totfact>
</mgrwt>
</event>
<event>
 5    0  0.1856407E+000  0.4795248E+03  0.7546771E-02  0.1019364E+00
         21   -1    0    0  502  501  0.00000000000E+00  0.00000000000E+00  0.10440765944E+04  0.10440765944E+04  0.00000000000E+00 0. -1.
         21   -1    0    0  503  502 -0.00000000000E+00 -0.00000000000E+00 -0.42420470923E+03  0.42420470923E+03  0.00000000000E+00 0. -1.
         25    1    1    2    0    0  0.23760927409E+03  0.39560034796E+03  0.81957507462E+03  0.94883407684E+03  0.12500000000E+03 0.  0.
         21    1    1    2  503  504 -0.87114488808E+02 -0.26314993450E+03 -0.13827139308E+03  0.30976733257E+03  0.00000000000E+00 0. -1.
         21    1    1    2  504  501 -0.15049478528E+03 -0.13245041346E+03 -0.61431796387E+02  0.20967989420E+03  0.00000000000E+00 0. -1.
<mgrwt>
<rscale>  4 0.47916906E+03</rscale>
<asrwt>0</asrwt>
<pdfrwt beam="1">  1       21 0.16062717E+00 0.47952482E+03</pdfrwt>
<pdfrwt beam="2">  1       21 0.65262263E-01 0.47952482E+03</pdfrwt>
<totfact> 0.44017558E+02</totfact>
</mgrwt>
</event>
<event>
 5    0  0.2152974E+000  0.2379681E+03  0.7546771E-02  0.1121154E+00
         21   -1    0    0  502  501  0.00000000000E+00  0.00000000000E+00  0.42343713011E+03  0.42343713011E+03  0.00000000000E+00 0. -1.
         21   -1    0    0  503  502 -0.00000000000E+00 -0.00000000000E+00 -0.15577520518E+03  0.15577520518E+03  0.00000000000E+00 0. -1.
         25    1    1    2    0    0  0.11306130941E+03  0.18965414116E+03  0.59240326475E+02  0.26054936044E+03  0.12500000000E+03 0.  0.
         21    1    1    2  503  504 -0.81301973870E+02 -0.17808182123E+03  0.20688847856E+03  0.28482624276E+03  0.00000000000E+00 0. -1.
         21    1    1    2  504  501 -0.31759335540E+02 -0.11572319929E+02  0.15331198964E+01  0.33836732099E+02  0.00000000000E+00 0. -1.
<mgrwt>
<rscale>  4 0.23796812E+03</rscale>
<asrwt>0</asrwt>
<pdfrwt beam="1">  1       21 0.65144173E-01 0.23796812E+03</pdfrwt>
<pdfrwt beam="2">  1       21 0.23965416E-01 0.23796812E+03</pdfrwt>
<totfact> 0.34808955E+04</totfact>
</mgrwt>
</event>
<event>
 5    0  0.1856407E+000  0.2569411E+03  0.7546771E-02  0.1108995E+00
         21   -1    0    0  502  501  0.00000000000E+00  0.00000000000E+00  0.36206931563E+03  0.36206931563E+03  0.00000000000E+00 0. -1.
         21   -1    0    0  503  502 -0.00000000000E+00 -0.00000000000E+00 -0.28076883056E+03  0.28076883056E+03  0.00000000000E+00 0.  1.
         25    1    1    2    0    0 -0.22221399461E+03  0.31853995050E+02  0.24935587305E+03  0.35804620907E+03  0.12500000000E+03 0.  0.
         21    1    1    2  503  504  0.15255499267E+03 -0.29776548628E+02 -0.14155972197E+03  0.21023516243E+03  0.00000000000E+00 0.  1.
         21    1    1    2  504  501  0.69659001939E+02 -0.20774464226E+01 -0.26495666017E+02  0.74556774692E+02  0.00000000000E+00 0.  1.
<mgrwt>
<rscale>  4 0.25694111E+03</rscale>
<asrwt>0</asrwt>
<pdfrwt beam="1">  1       21 0.55702972E-01 0.25694111E+03</pdfrwt>
<pdfrwt beam="2">  1       21 0.43195205E-01 0.25694111E+03</pdfrwt>
<totfact> 0.15085538E+04</totfact>
</mgrwt>
</event>
