<event>
 5    0  0.1531977E+001  0.2413394E+03  0.7546771E-02  0.1118904E+00
         21   -1    0    0  504  501  0.00000000000E+00  0.00000000000E+00  0.13332712393E+04  0.13332712393E+04  0.00000000000E+00 0. -1.
         21   -1    0    0  501  502 -0.00000000000E+00 -0.00000000000E+00 -0.76727839041E+02  0.76727839041E+02  0.00000000000E+00 0. -1.
         25    1    1    2    0    0  0.20727116344E+03  0.63331794551E+02  0.18422510424E+03  0.31070265597E+03  0.12500000000E+03 0.  0.
         21    1    1    2  503  502 -0.18864557525E+03 -0.80148453939E+02  0.10291698230E+04  0.10493814618E+04  0.00000000000E+00 0. -1.
         21    1    1    2  504  503 -0.18625588187E+02  0.16816659388E+02  0.43148473018E+02  0.49914960604E+02  0.00000000000E+00 0.  1.
<mgrwt>
<rscale>  4 0.24133942E+03</rscale>
<asrwt>0</asrwt>
<pdfrwt beam="1">  1       21 0.20511864E+00 0.24133942E+03</pdfrwt>
<pdfrwt beam="2">  1       21 0.11804284E-01 0.24133942E+03</pdfrwt>
<totfact> 0.72339048E+03</totfact>
</mgrwt>
</event>
<event>
 5    0  0.1531977E+001  0.4169582E+03  0.7546771E-02  0.1038061E+00
         21   -1    0    0  502  501  0.00000000000E+00  0.00000000000E+00  0.30409239817E+03  0.30409239817E+03  0.00000000000E+00 0.  1.
         21   -1    0    0  504  502 -0.00000000000E+00 -0.00000000000E+00 -0.88768008182E+03  0.88768008182E+03  0.00000000000E+00 0.  1.
         25    1    1    2    0    0 -0.20980549998E+03  0.33896449006E+03  0.57525542141E+02  0.42172201904E+03  0.12500000000E+03 0.  0.
         21    1    1    2  503  501  0.26297597229E+02  0.11261911919E+02 -0.25073307020E+02  0.38040307636E+02  0.00000000000E+00 0.  1.
         21    1    1    2  504  503  0.18350790275E+03 -0.35022640198E+03 -0.61603991878E+03  0.73201015331E+03  0.00000000000E+00 0.  1.
<mgrwt>
<rscale>  4 0.41695817E+03</rscale>
<asrwt>0</asrwt>
<pdfrwt beam="1">  1       21 0.46783446E-01 0.41695817E+03</pdfrwt>
<pdfrwt beam="2">  1       21 0.13656617E+00 0.41695817E+03</pdfrwt>
<totfact> 0.14426456E+03</totfact>
</mgrwt>
</event>
<event>
 5    0  0.1531977E+001  0.2466420E+03  0.7546771E-02  0.1115446E+00
         21   -1    0    0  503  501  0.00000000000E+00  0.00000000000E+00  0.90908448797E+03  0.90908448797E+03  0.00000000000E+00 0. -1.
         21   -1    0    0  504  502 -0.00000000000E+00 -0.00000000000E+00 -0.66957885929E+02  0.66957885929E+02  0.00000000000E+00 0. -1.
         25    1    1    2    0    0  0.18597037004E+03 -0.86873216088E+02  0.44231127282E+03  0.50338473981E+03  0.12500000000E+03 0.  0.
         21    1    1    2  503  502  0.22453953037E+02  0.15306342038E+02  0.20750344632E+02  0.34191240339E+02  0.00000000000E+00 0. -1.
         21    1    1    2  504  501 -0.20842432307E+03  0.71566874050E+02  0.37906498459E+03  0.43846639375E+03  0.00000000000E+00 0. -1.
<mgrwt>
<rscale>  4 0.24664199E+03</rscale>
<asrwt>0</asrwt>
<pdfrwt beam="1">  1       21 0.13985914E+00 0.24664199E+03</pdfrwt>
<pdfrwt beam="2">  1       21 0.10301214E-01 0.24664199E+03</pdfrwt>
<totfact> 0.26781656E+04</totfact>
</mgrwt>
</event>
<event>
 5    0  0.1531977E+001  0.4144496E+03  0.7546771E-02  0.1038888E+00
         21   -1    0    0  502  501  0.00000000000E+00  0.00000000000E+00  0.26707324679E+03  0.26707324679E+03  0.00000000000E+00 0.  1.
         21   -1    0    0  504  502 -0.00000000000E+00 -0.00000000000E+00 -0.10943838508E+04  0.10943838508E+04  0.00000000000E+00 0.  1.
         25    1    1    2    0    0 -0.32730906099E+03  0.26900018135E+03 -0.25714833946E+03  0.51111895627E+03  0.12500000000E+03 0.  0.
         21    1    1    2  503  501  0.32464871305E+02 -0.23839211599E+02  0.83385512318E+02  0.92603561180E+02  0.00000000000E+00 0.  1.
         21    1    1    2  504  503  0.29484418969E+03 -0.24516096975E+03 -0.65354777684E+03  0.75773458011E+03  0.00000000000E+00 0.  1.
<mgrwt>
<rscale>  4 0.41444964E+03</rscale>
<asrwt>0</asrwt>
<pdfrwt beam="1">  1       21 0.41088191E-01 0.41444964E+03</pdfrwt>
<pdfrwt beam="2">  1       21 0.16836675E+00 0.41444964E+03</pdfrwt>
<totfact> 0.10698812E+03</totfact>
</mgrwt>
</event>
<event>
 5    0  0.1531977E+001  0.2368559E+03  0.7546771E-02  0.1121905E+00
         21   -1    0    0  503  501  0.00000000000E+00  0.00000000000E+00  0.10375875315E+03  0.10375875315E+03  0.00000000000E+00 0.  1.
         21   -1    0    0  501  502 -0.00000000000E+00 -0.00000000000E+00 -0.13561040609E+04  0.13561040609E+04  0.00000000000E+00 0.  1.
         25    1    1    2    0    0  0.12641160724E+03 -0.22360675039E+03 -0.33020106452E+03  0.43662067779E+03  0.12500000000E+03 0.  0.
         21    1    1    2  503  504 -0.19076752011E+03  0.61702966237E+02 -0.75730011788E+03  0.78339196531E+03  0.00000000000E+00 0.  1.
         21    1    1    2  504  502  0.64355912863E+02  0.16190378416E+03 -0.16484412536E+03  0.23985017096E+03  0.00000000000E+00 0.  1.
<mgrwt>
<rscale>  4 0.23685587E+03</rscale>
<asrwt>0</asrwt>
<pdfrwt beam="1">  1       21 0.15962887E-01 0.23685587E+03</pdfrwt>
<pdfrwt beam="2">  1       21 0.20863137E+00 0.23685587E+03</pdfrwt>
<totfact> 0.39835322E+03</totfact>
</mgrwt>
</event>
<event>
 5    0  0.1531977E+001  0.2350132E+03  0.7546771E-02  0.1123160E+00
         21   -1    0    0  502  501  0.00000000000E+00  0.00000000000E+00  0.56707531345E+03  0.56707531345E+03  0.00000000000E+00 0. -1.
         21   -1    0    0  504  502 -0.00000000000E+00 -0.00000000000E+00 -0.20804185409E+03  0.20804185409E+03  0.00000000000E+00 0.  1.
         25    1    1    2    0    0  0.92625500396E+02 -0.17833658116E+03 -0.88549327767E+02  0.25268439396E+03  0.12500000000E+03 0.  0.
         21    1    1    2  503  501 -0.13087629477E+03  0.15044716692E+03  0.42609315578E+03  0.47044482351E+03  0.00000000000E+00 0. -1.
         21    1    1    2  504  503  0.38250794369E+02  0.27889414237E+02  0.21489631354E+02  0.51987950066E+02  0.00000000000E+00 0.  1.
<mgrwt>
<rscale>  4 0.23501321E+03</rscale>
<asrwt>0</asrwt>
<pdfrwt beam="1">  1       21 0.87242355E-01 0.23501321E+03</pdfrwt>
<pdfrwt beam="2">  1       21 0.32006439E-01 0.23501321E+03</pdfrwt>
<totfact> 0.10309864E+04</totfact>
</mgrwt>
</event>
<event>
 5    0  0.1531977E+001  0.1982482E+03  0.7546771E-02  0.1151225E+00
         21   -1    0    0  504  501  0.00000000000E+00  0.00000000000E+00  0.26837867408E+03  0.26837867408E+03  0.00000000000E+00 0.  1.
         21   -1    0    0  503  502 -0.00000000000E+00 -0.00000000000E+00 -0.10777178841E+04  0.10777178841E+04  0.00000000000E+00 0.  1.
         25    1    1    2    0    0 -0.46764436126E+02  0.23512482883E+03 -0.37008805979E+03  0.45832386979E+03  0.12500000000E+03 0.  0.
         21    1    1    2  503  501  0.48007582166E+02 -0.13116261580E+03 -0.64355395565E+03  0.65853629631E+03  0.00000000000E+00 0.  1.
         21    1    1    2  504  502 -0.12431460402E+01 -0.10396221304E+03  0.20430280542E+03  0.22923639208E+03  0.00000000000E+00 0.  1.
<mgrwt>
<rscale>  4 0.19824824E+03</rscale>
<asrwt>0</asrwt>
<pdfrwt beam="1">  1       21 0.41289026E-01 0.19824824E+03</pdfrwt>
<pdfrwt beam="2">  1       21 0.16580275E+00 0.19824824E+03</pdfrwt>
<totfact> 0.12833666E+03</totfact>
</mgrwt>
</event>
<event>
 5    0  0.1531977E+001  0.2150194E+03  0.7546771E-02  0.1137652E+00
         21   -1    0    0  504  501  0.00000000000E+00  0.00000000000E+00  0.15674864819E+03  0.15674864819E+03  0.00000000000E+00 0. -1.
         21   -1    0    0  503  502 -0.00000000000E+00 -0.00000000000E+00 -0.65790098200E+03  0.65790098200E+03  0.00000000000E+00 0.  1.
         25    1    1    2    0    0 -0.63616970513E+02  0.19448602068E+03 -0.49370006269E+03  0.54885032849E+03  0.12500000000E+03 0.  0.
         21    1    1    2  503  501 -0.17578966922E+02 -0.43047215285E+02 -0.69061127796E+02  0.83255763731E+02  0.00000000000E+00 0. -1.
         21    1    1    2  504  502  0.81195937435E+02 -0.15143880539E+03  0.61608856684E+02  0.18254353798E+03  0.00000000000E+00 0. -1.
<mgrwt>
<rscale>  4 0.21501936E+03</rscale>
<asrwt>0</asrwt>
<pdfrwt beam="1">  1       21 0.24115176E-01 0.21501936E+03</pdfrwt>
<pdfrwt beam="2">  1       21 0.10121554E+00 0.21501936E+03</pdfrwt>
<totfact> 0.12751052E+04</totfact>
</mgrwt>
</event>
<event>
 5    0  0.1531977E+001  0.2874962E+03  0.7546771E-02  0.1091664E+00
         21   -1    0    0  502  501  0.00000000000E+00  0.00000000000E+00  0.37599061678E+03  0.37599061678E+03  0.00000000000E+00 0.  1.
         21   -1    0    0  504  502 -0.00000000000E+00 -0.00000000000E+00 -0.75071161669E+03  0.75071161669E+03  0.00000000000E+00 0. -1.
         25    1    1    2    0    0 -0.58605960185E+02  0.24144636755E+03 -0.56164027661E+03  0.62673423975E+03  0.12500000000E+03 0.  0.
         21    1    1    2  503  501  0.11524085454E+03 -0.23335478035E+03  0.28529214215E+03  0.38616902315E+03  0.00000000000E+00 0.  1.
         21    1    1    2  504  503 -0.56634894360E+02 -0.80915872037E+01 -0.98372865454E+02  0.11379897056E+03  0.00000000000E+00 0. -1.
<mgrwt>
<rscale>  4 0.28749623E+03</rscale>
<asrwt>0</asrwt>
<pdfrwt beam="1">  1       21 0.57844711E-01 0.28749623E+03</pdfrwt>
<pdfrwt beam="2">  1       21 0.11549409E+00 0.28749623E+03</pdfrwt>
<totfact> 0.15082185E+03</totfact>
</mgrwt>
</event>
<event>
 5    0  0.1531977E+001  0.2567361E+03  0.7546771E-02  0.1109120E+00
         21   -1    0    0  503  501  0.00000000000E+00  0.00000000000E+00  0.14934550616E+03  0.14934550616E+03  0.00000000000E+00 0. -1.
         21   -1    0    0  501  502 -0.00000000000E+00 -0.00000000000E+00 -0.47807251483E+03  0.47807251483E+03  0.00000000000E+00 0. -1.
         25    1    1    2    0    0 -0.21892949196E+03  0.75717988284E+02 -0.21691123539E+03  0.34108476987E+03  0.12500000000E+03 0.  0.
         21    1    1    2  503  504  0.19574850555E+03 -0.95075891745E+02 -0.12758906334E+03  0.25226151450E+03  0.00000000000E+00 0. -1.
         21    1    1    2  504  502  0.23180986411E+02  0.19357903461E+02  0.15773290059E+02  0.34071736626E+02  0.00000000000E+00 0.  1.
<mgrwt>
<rscale>  4 0.25673609E+03</rscale>
<asrwt>0</asrwt>
<pdfrwt beam="1">  1       21 0.22976232E-01 0.25673609E+03</pdfrwt>
<pdfrwt beam="2">  1       21 0.73549618E-01 0.25673609E+03</pdfrwt>
<totfact> 0.28592265E+04</totfact>
</mgrwt>
</event>
<event>
 5    0  0.1531977E+001  0.3525577E+03  0.7546771E-02  0.1061570E+00
         21   -1    0    0  502  501  0.00000000000E+00  0.00000000000E+00  0.39160065447E+03  0.39160065447E+03  0.00000000000E+00 0. -1.
         21   -1    0    0  504  502 -0.00000000000E+00 -0.00000000000E+00 -0.31054609511E+03  0.31054609511E+03  0.00000000000E+00 0. -1.
         25    1    1    2    0    0 -0.24611264460E+03 -0.21931827452E+03  0.42650891336E+02  0.35512819925E+03  0.12500000000E+03 0.  0.
         21    1    1    2  503  501  0.21066297820E+03  0.20775921840E+03  0.62789883400E+02  0.30246545699E+03  0.00000000000E+00 0. -1.
         21    1    1    2  504  503  0.35449666402E+02  0.11559056114E+02 -0.24386215377E+02  0.44553093346E+02  0.00000000000E+00 0. -1.
<mgrwt>
<rscale>  4 0.35255771E+03</rscale>
<asrwt>0</asrwt>
<pdfrwt beam="1">  1       21 0.60246254E-01 0.35255771E+03</pdfrwt>
<pdfrwt beam="2">  1       21 0.47776322E-01 0.35255771E+03</pdfrwt>
<totfact> 0.99107504E+03</totfact>
</mgrwt>
</event>
<event>
 5    0  0.1531977E+001  0.2903125E+03  0.7546771E-02  0.1090186E+00
         21   -1    0    0  502  501  0.00000000000E+00  0.00000000000E+00  0.12017186641E+03  0.12017186641E+03  0.00000000000E+00 0.  1.
         21   -1    0    0  504  502 -0.00000000000E+00 -0.00000000000E+00 -0.13882993444E+04  0.13882993444E+04  0.00000000000E+00 0.  1.
         25    1    1    2    0    0 -0.23862115498E+03  0.24719465783E+03 -0.37174653444E+03  0.52140746095E+03  0.12500000000E+03 0.  0.
         21    1    1    2  503  501  0.75573069757E+02 -0.66847716260E+02 -0.63014158699E+02  0.11895667379E+03  0.00000000000E+00 0.  1.
         21    1    1    2  504  503  0.16304808522E+03 -0.18034694158E+03 -0.83336678483E+03  0.86810707605E+03  0.00000000000E+00 0.  1.
<mgrwt>
<rscale>  4 0.29031248E+03</rscale>
<asrwt>0</asrwt>
<pdfrwt beam="1">  1       21 0.18487979E-01 0.29031248E+03</pdfrwt>
<pdfrwt beam="2">  1       21 0.21358452E+00 0.29031248E+03</pdfrwt>
<totfact> 0.27123419E+03</totfact>
</mgrwt>
</event>
<event>
 5    0  0.1531977E+001  0.2553312E+03  0.7546771E-02  0.1109981E+00
         21   -1    0    0  504  501  0.00000000000E+00  0.00000000000E+00  0.66076172428E+03  0.66076172428E+03  0.00000000000E+00 0.  1.
         21   -1    0    0  503  502 -0.00000000000E+00 -0.00000000000E+00 -0.21861193580E+03  0.21861193580E+03  0.00000000000E+00 0. -1.
         25    1    1    2    0    0  0.45239385751E+02 -0.19647643792E+03  0.50857748248E+03  0.56118236641E+03  0.12500000000E+03 0.  0.
         21    1    1    2  503  501 -0.64310272547E+02  0.21595150369E+03 -0.12204518410E+03  0.25625356595E+03  0.00000000000E+00 0. -1.
         21    1    1    2  504  502  0.19070886796E+02 -0.19475065765E+02  0.55617490104E+02  0.61937727720E+02  0.00000000000E+00 0. -1.
<mgrwt>
<rscale>  4 0.25533123E+03</rscale>
<asrwt>0</asrwt>
<pdfrwt beam="1">  1       21 0.10165565E+00 0.25533123E+03</pdfrwt>
<pdfrwt beam="2">  1       21 0.33632606E-01 0.25533123E+03</pdfrwt>
<totfact> 0.64428419E+03</totfact>
</mgrwt>
</event>
<event>
 5    0  0.1531977E+001  0.2806705E+03  0.7546771E-02  0.1095323E+00
         21   -1    0    0  502  501  0.00000000000E+00  0.00000000000E+00  0.32955055348E+03  0.32955055348E+03  0.00000000000E+00 0. -1.
         21   -1    0    0  504  502 -0.00000000000E+00 -0.00000000000E+00 -0.31331284787E+03  0.31331284787E+03  0.00000000000E+00 0. -1.
         25    1    1    2    0    0  0.21051606427E+03 -0.17299571447E+03 -0.85073324183E+02  0.31161996250E+03  0.12500000000E+03 0.  0.
         21    1    1    2  503  501 -0.35734386045E+02  0.24980431781E+02  0.92243680175E+02  0.10202874521E+03  0.00000000000E+00 0. -1.
         21    1    1    2  504  503 -0.17478167822E+03  0.14801528268E+03  0.90673496201E+01  0.22921469364E+03  0.00000000000E+00 0. -1.
<mgrwt>
<rscale>  4 0.28067051E+03</rscale>
<asrwt>0</asrwt>
<pdfrwt beam="1">  1       21 0.50700085E-01 0.28067051E+03</pdfrwt>
<pdfrwt beam="2">  1       21 0.48201977E-01 0.28067051E+03</pdfrwt>
<totfact> 0.14507002E+04</totfact>
</mgrwt>
</event>
<event>
 5    0  0.1531977E+001  0.2327701E+03  0.7546771E-02  0.1124705E+00
         21   -1    0    0  504  501  0.00000000000E+00  0.00000000000E+00  0.79685773918E+03  0.79685773918E+03  0.00000000000E+00 0.  1.
         21   -1    0    0  503  502 -0.00000000000E+00 -0.00000000000E+00 -0.96752948434E+02  0.96752948434E+02  0.00000000000E+00 0.  1.
         25    1    1    2    0    0  0.10197432244E+03 -0.19557407117E+03  0.15484921805E+03  0.29707113640E+03  0.12500000000E+03 0.  0.
         21    1    1    2  503  501 -0.71915477453E+02  0.14797959980E+03  0.27480658298E+03  0.32029432699E+03  0.00000000000E+00 0.  1.
         21    1    1    2  504  502 -0.30058844989E+02  0.47594471368E+02  0.27044898972E+03  0.27624522422E+03  0.00000000000E+00 0. -1.
<mgrwt>
<rscale>  4 0.23277011E+03</rscale>
<asrwt>0</asrwt>
<pdfrwt beam="1">  1       21 0.12259349E+00 0.23277011E+03</pdfrwt>
<pdfrwt beam="2">  1       21 0.14885070E-01 0.23277011E+03</pdfrwt>
<totfact> 0.19440359E+04</totfact>
</mgrwt>
</event>
<event>
 5    0  0.1531977E+001  0.2256038E+03  0.7546771E-02  0.1129773E+00
         21   -1    0    0  504  501  0.00000000000E+00  0.00000000000E+00  0.59658607132E+03  0.59658607132E+03  0.00000000000E+00 0. -1.
         21   -1    0    0  503  502 -0.00000000000E+00 -0.00000000000E+00 -0.28430580256E+03  0.28430580256E+03  0.00000000000E+00 0. -1.
         25    1    1    2    0    0  0.10044612863E+03 -0.23117430151E+03  0.31507930845E+03  0.42241088178E+03  0.12500000000E+03 0.  0.
         21    1    1    2  503  501 -0.79444532439E+02  0.16311037499E+03 -0.18726592640E+03  0.26073924782E+03  0.00000000000E+00 0. -1.
         21    1    1    2  504  502 -0.21001596187E+02  0.68063926518E+02  0.18446688672E+03  0.19774174428E+03  0.00000000000E+00 0. -1.
<mgrwt>
<rscale>  4 0.22560379E+03</rscale>
<asrwt>0</asrwt>
<pdfrwt beam="1">  1       21 0.91782472E-01 0.22560379E+03</pdfrwt>
<pdfrwt beam="2">  1       21 0.43739354E-01 0.22560379E+03</pdfrwt>
<totfact> 0.49187805E+03</totfact>
</mgrwt>
</event>
<event>
 5    0  0.1531977E+001  0.2960649E+03  0.7546771E-02  0.1087224E+00
         21   -1    0    0  503  501  0.00000000000E+00  0.00000000000E+00  0.12413140504E+03  0.12413140504E+03  0.00000000000E+00 0.  1.
         21   -1    0    0  504  502 -0.00000000000E+00 -0.00000000000E+00 -0.78812836655E+03  0.78812836655E+03  0.00000000000E+00 0. -1.
         25    1    1    2    0    0  0.20365380660E+03  0.18249176993E+03 -0.38085502604E+03  0.48523568490E+03  0.12500000000E+03 0.  0.
         21    1    1    2  503  502  0.19313085903E+02 -0.36587898242E+02 -0.86416297908E+02  0.95809426097E+02  0.00000000000E+00 0.  1.
         21    1    1    2  504  501 -0.22296689250E+03 -0.14590387169E+03 -0.19672563756E+03  0.33121466060E+03  0.00000000000E+00 0.  1.
<mgrwt>
<rscale>  4 0.29606493E+03</rscale>
<asrwt>0</asrwt>
<pdfrwt beam="1">  1       21 0.19097139E-01 0.29606493E+03</pdfrwt>
<pdfrwt beam="2">  1       21 0.12125052E+00 0.29606493E+03</pdfrwt>
<totfact> 0.12200223E+04</totfact>
</mgrwt>
</event>
<event>
 5    0  0.1531977E+001  0.2097849E+03  0.7546771E-02  0.1141736E+00
         21   -1    0    0  502  501  0.00000000000E+00  0.00000000000E+00  0.44385875767E+03  0.44385875767E+03  0.00000000000E+00 0.  1.
         21   -1    0    0  504  502 -0.00000000000E+00 -0.00000000000E+00 -0.45446481028E+03  0.45446481028E+03  0.00000000000E+00 0.  1.
         25    1    1    2    0    0  0.18287063970E+03  0.19186914005E+03  0.17666734268E+03  0.34218677318E+03  0.12500000000E+03 0.  0.
         21    1    1    2  503  501 -0.62428748465E+02 -0.84005788460E+02  0.14953952536E+03  0.18252778083E+03  0.00000000000E+00 0.  1.
         21    1    1    2  504  503 -0.12044189123E+03 -0.10786335159E+03 -0.33681292066E+03  0.37360901395E+03  0.00000000000E+00 0.  1.
<mgrwt>
<rscale>  4 0.20978495E+03</rscale>
<asrwt>0</asrwt>
<pdfrwt beam="1">  1       21 0.68285963E-01 0.20978495E+03</pdfrwt>
<pdfrwt beam="2">  1       21 0.69917663E-01 0.20978495E+03</pdfrwt>
<totfact> 0.35849913E+03</totfact>
</mgrwt>
</event>
<event>
 5    0  0.1531977E+001  0.1853062E+03  0.7546771E-02  0.1162764E+00
         21   -1    0    0  504  501  0.00000000000E+00  0.00000000000E+00  0.19730123323E+04  0.19730123323E+04  0.00000000000E+00 0. -1.
         21   -1    0    0  503  502 -0.00000000000E+00 -0.00000000000E+00 -0.90932723685E+03  0.90932723685E+03  0.00000000000E+00 0.  1.
         25    1    1    2    0    0 -0.21587747198E+03 -0.44467305394E+02 -0.66596192332E+03  0.71253821475E+03  0.12500000000E+03 0.  0.
         21    1    1    2  503  501  0.80035892849E+02  0.58262973752E+02 -0.20641699657E+03  0.22892857997E+03  0.00000000000E+00 0.  1.
         21    1    1    2  504  502  0.13584157913E+03 -0.13795668358E+02  0.19360640154E+04  0.19408727745E+04  0.00000000000E+00 0. -1.
<mgrwt>
<rscale>  4 0.18530616E+03</rscale>
<asrwt>0</asrwt>
<pdfrwt beam="1">  1       21 0.30354036E+00 0.18530616E+03</pdfrwt>
<pdfrwt beam="2">  1       21 0.13989650E+00 0.18530616E+03</pdfrwt>
<totfact> 0.11854382E+01</totfact>
</mgrwt>
</event>
<event>
 5    0  0.1531977E+001  0.2251493E+03  0.7546771E-02  0.1130101E+00
         21   -1    0    0  502  501  0.00000000000E+00  0.00000000000E+00  0.17811746294E+03  0.17811746294E+03  0.00000000000E+00 0. -1.
         21   -1    0    0  504  502 -0.00000000000E+00 -0.00000000000E+00 -0.40932257705E+03  0.40932257705E+03  0.00000000000E+00 0.  1.
         25    1    1    2    0    0  0.13807992189E+03 -0.16530329940E+03 -0.16364558831E+03  0.29798678527E+03  0.12500000000E+03 0.  0.
         21    1    1    2  503  501 -0.99110414953E+02  0.14839652544E+03  0.31921297756E+02  0.18128257601E+03  0.00000000000E+00 0. -1.
         21    1    1    2  504  503 -0.38969506942E+02  0.16906773963E+02 -0.99480823560E+02  0.10817067871E+03  0.00000000000E+00 0.  1.
<mgrwt>
<rscale>  4 0.22514927E+03</rscale>
<asrwt>0</asrwt>
<pdfrwt beam="1">  1       21 0.27402687E-01 0.22514927E+03</pdfrwt>
<pdfrwt beam="2">  1       21 0.62972704E-01 0.22514927E+03</pdfrwt>
<totfact> 0.29143494E+04</totfact>
</mgrwt>
</event>
<event>
 5    0  0.1531977E+001  0.2528478E+03  0.7546771E-02  0.1111518E+00
         21   -1    0    0  503  501  0.00000000000E+00  0.00000000000E+00  0.45862663899E+03  0.45862663899E+03  0.00000000000E+00 0.  1.
         21   -1    0    0  501  502 -0.00000000000E+00 -0.00000000000E+00 -0.14594909825E+03  0.14594909825E+03  0.00000000000E+00 0.  1.
         25    1    1    2    0    0  0.22384360945E+03 -0.51240414205E+02  0.19932820099E+03  0.32876781054E+03  0.12500000000E+03 0.  0.
         21    1    1    2  503  504 -0.21407258504E+03  0.16228036058E+02  0.91307644407E+02  0.23329703545E+03  0.00000000000E+00 0.  1.
         21    1    1    2  504  502 -0.97710244078E+01  0.35012378147E+02  0.22041695344E+02  0.42510891253E+02  0.00000000000E+00 0.  1.
<mgrwt>
<rscale>  4 0.25284784E+03</rscale>
<asrwt>0</asrwt>
<pdfrwt beam="1">  1       21 0.70557944E-01 0.25284784E+03</pdfrwt>
<pdfrwt beam="2">  1       21 0.22453708E-01 0.25284784E+03</pdfrwt>
<totfact> 0.32829498E+04</totfact>
</mgrwt>
</event>
<event>
 5    0  0.1531977E+001  0.2077975E+03  0.7546771E-02  0.1143322E+00
         21   -1    0    0  502  501  0.00000000000E+00  0.00000000000E+00  0.40937791134E+03  0.40937791134E+03  0.00000000000E+00 0. -1.
         21   -1    0    0  504  502 -0.00000000000E+00 -0.00000000000E+00 -0.19944487100E+03  0.19944487100E+03  0.00000000000E+00 0.  1.
         25    1    1    2    0    0  0.15713861490E+03 -0.13831984319E+03 -0.34668406639E+02  0.24627590570E+03  0.12500000000E+03 0.  0.
         21    1    1    2  503  501 -0.12997539529E+03  0.92030611837E+02  0.26158654318E+03  0.30625276565E+03  0.00000000000E+00 0. -1.
         21    1    1    2  504  503 -0.27163219609E+02  0.46289231349E+02 -0.16985096204E+02  0.56294110984E+02  0.00000000000E+00 0. -1.
<mgrwt>
<rscale>  4 0.20779753E+03</rscale>
<asrwt>0</asrwt>
<pdfrwt beam="1">  1       21 0.62981217E-01 0.20779753E+03</pdfrwt>
<pdfrwt beam="2">  1       21 0.30683826E-01 0.20779753E+03</pdfrwt>
<totfact> 0.23593350E+04</totfact>
</mgrwt>
</event>
<event>
 5    0  0.1531977E+001  0.2742107E+03  0.7546771E-02  0.1098894E+00
         21   -1    0    0  504  501  0.00000000000E+00  0.00000000000E+00  0.65257494930E+03  0.65257494930E+03  0.00000000000E+00 0.  1.
         21   -1    0    0  503  502 -0.00000000000E+00 -0.00000000000E+00 -0.28476120863E+04  0.28476120863E+04  0.00000000000E+00 0.  1.
         25    1    1    2    0    0  0.20073445964E+03 -0.48231361707E+01 -0.26020501760E+04  0.26127777755E+04  0.12500000000E+03 0.  0.
         21    1    1    2  503  501  0.38076739077E+02  0.57258680662E+02 -0.21146082797E+03  0.22236024001E+03  0.00000000000E+00 0.  1.
         21    1    1    2  504  502 -0.23881119871E+03 -0.52435544491E+02  0.61847386697E+03  0.66504902006E+03  0.00000000000E+00 0.  1.
<mgrwt>
<rscale>  4 0.27421069E+03</rscale>
<asrwt>0</asrwt>
<pdfrwt beam="1">  1       21 0.10039614E+00 0.27421069E+03</pdfrwt>
<pdfrwt beam="2">  1       21 0.43809417E+00 0.27421069E+03</pdfrwt>
<totfact> 0.34706945E+00</totfact>
</mgrwt>
</event>
<event>
 5    0  0.1531977E+001  0.3405946E+03  0.7546771E-02  0.1066543E+00
         21   -1    0    0  504  501  0.00000000000E+00  0.00000000000E+00  0.85825303012E+03  0.85825303012E+03  0.00000000000E+00 0.  1.
         21   -1    0    0  501  502 -0.00000000000E+00 -0.00000000000E+00 -0.23718770601E+03  0.23718770601E+03  0.00000000000E+00 0.  1.
         25    1    1    2    0    0  0.28841788032E+03 -0.37906698359E+02  0.46330151961E+03  0.56115513856E+03  0.12500000000E+03 0.  0.
         21    1    1    2  503  502  0.10911227711E+03  0.26860122465E+02  0.43692157322E+02  0.12056516830E+03  0.00000000000E+00 0. -1.
         21    1    1    2  504  503 -0.39753015743E+03  0.11046575895E+02  0.11407164718E+03  0.41372042927E+03  0.00000000000E+00 0.  1.
<mgrwt>
<rscale>  4 0.34059459E+03</rscale>
<asrwt>0</asrwt>
<pdfrwt beam="1">  1       21 0.13203893E+00 0.34059459E+03</pdfrwt>
<pdfrwt beam="2">  1       21 0.36490417E-01 0.34059459E+03</pdfrwt>
<totfact> 0.27248399E+03</totfact>
</mgrwt>
</event>
<event>
 5    0  0.1531977E+001  0.5588049E+03  0.7546771E-02  0.9994762E-01
         21   -1    0    0  502  501  0.00000000000E+00  0.00000000000E+00  0.50944456183E+03  0.50944456183E+03  0.00000000000E+00 0.  1.
         21   -1    0    0  504  502 -0.00000000000E+00 -0.00000000000E+00 -0.82695286503E+03  0.82695286503E+03  0.00000000000E+00 0. -1.
         25    1    1    2    0    0 -0.50383935546E+03 -0.20815281842E+03  0.16965385148E+03  0.58445626119E+03  0.12500000000E+03 0.  0.
         21    1    1    2  503  501  0.51144733462E+03  0.18443004842E+03 -0.44332591931E+03  0.70152027026E+03  0.00000000000E+00 0.  1.
         21    1    1    2  504  503 -0.76079791575E+01  0.23722769999E+02 -0.43836235364E+02  0.50420895412E+02  0.00000000000E+00 0.  1.
<mgrwt>
<rscale>  4 0.55880493E+03</rscale>
<asrwt>0</asrwt>
<pdfrwt beam="1">  1       21 0.78376087E-01 0.55880493E+03</pdfrwt>
<pdfrwt beam="2">  1       21 0.12722352E+00 0.55880493E+03</pdfrwt>
<totfact> 0.52705389E+02</totfact>
</mgrwt>
</event>
<event>
 5    0  0.1531977E+001  0.2527571E+03  0.7546771E-02  0.1111575E+00
         21   -1    0    0  502  501  0.00000000000E+00  0.00000000000E+00  0.17898706038E+04  0.17898706038E+04  0.00000000000E+00 0.  1.
         21   -1    0    0  504  502 -0.00000000000E+00 -0.00000000000E+00 -0.35076536549E+02  0.35076536549E+02  0.00000000000E+00 0.  1.
         25    1    1    2    0    0  0.18932035046E+03  0.11144041455E+03  0.11841587767E+04  0.12108336671E+04  0.12500000000E+03 0.  0.
         21    1    1    2  503  501 -0.34840678656E+02 -0.37567028722E+02  0.18902787706E+03  0.19584864779E+03  0.00000000000E+00 0.  1.
         21    1    1    2  504  503 -0.15447967180E+03 -0.73873385824E+02  0.38160741350E+03  0.41826482541E+03  0.00000000000E+00 0.  1.
<mgrwt>
<rscale>  4 0.25275712E+03</rscale>
<asrwt>0</asrwt>
<pdfrwt beam="1">  1       21 0.27536464E+00 0.25275712E+03</pdfrwt>
<pdfrwt beam="2">  1       21 0.53963916E-02 0.25275712E+03</pdfrwt>
<totfact> 0.10600079E+04</totfact>
</mgrwt>
</event>
<event>
 5    0  0.1531977E+001  0.2212572E+03  0.7546771E-02  0.1132949E+00
         21   -1    0    0  503  501  0.00000000000E+00  0.00000000000E+00  0.60074510031E+03  0.60074510031E+03  0.00000000000E+00 0.  1.
         21   -1    0    0  504  502 -0.00000000000E+00 -0.00000000000E+00 -0.52060211398E+03  0.52060211398E+03  0.00000000000E+00 0. -1.
         25    1    1    2    0    0 -0.22850427527E+03 -0.54150418221E+02  0.35319039588E+03  0.44217069934E+03  0.12500000000E+03 0.  0.
         21    1    1    2  503  502  0.17792354027E+03  0.29319782733E+02 -0.45461226221E+03  0.48906926380E+03  0.00000000000E+00 0. -1.
         21    1    1    2  504  501  0.50580735003E+02  0.24830635488E+02  0.18156485267E+03  0.19010725114E+03  0.00000000000E+00 0.  1.
<mgrwt>
<rscale>  4 0.22125721E+03</rscale>
<asrwt>0</asrwt>
<pdfrwt beam="1">  1       21 0.92422323E-01 0.22125721E+03</pdfrwt>
<pdfrwt beam="2">  1       21 0.80092633E-01 0.22125721E+03</pdfrwt>
<totfact> 0.13197013E+03</totfact>
</mgrwt>
</event>
<event>
 5    0  0.1531977E+001  0.2643565E+03  0.7546771E-02  0.1104554E+00
         21   -1    0    0  503  501  0.00000000000E+00  0.00000000000E+00  0.26986342238E+03  0.26986342238E+03  0.00000000000E+00 0. -1.
         21   -1    0    0  504  502 -0.00000000000E+00 -0.00000000000E+00 -0.34321629119E+03  0.34321629119E+03  0.00000000000E+00 0. -1.
         25    1    1    2    0    0 -0.25119747559E+03  0.26732566500E+02  0.52486770158E+02  0.28669611595E+03  0.12500000000E+03 0.  0.
         21    1    1    2  503  502  0.37786707063E+02 -0.43289444903E+02 -0.93723060272E+02  0.10993554156E+03  0.00000000000E+00 0.  1.
         21    1    1    2  504  501  0.21341076853E+03  0.16556878403E+02 -0.32116578703E+02  0.21644805607E+03  0.00000000000E+00 0. -1.
<mgrwt>
<rscale>  4 0.26435655E+03</rscale>
<asrwt>0</asrwt>
<pdfrwt beam="1">  1       21 0.41517450E-01 0.26435655E+03</pdfrwt>
<pdfrwt beam="2">  1       21 0.52802506E-01 0.26435655E+03</pdfrwt>
<totfact> 0.18268844E+04</totfact>
</mgrwt>
</event>
<event>
 5    0  0.1531977E+001  0.3029794E+03  0.7546771E-02  0.1083761E+00
         21   -1    0    0  502  501  0.00000000000E+00  0.00000000000E+00  0.31861826515E+03  0.31861826515E+03  0.00000000000E+00 0. -1.
         21   -1    0    0  504  502 -0.00000000000E+00 -0.00000000000E+00 -0.46901694179E+03  0.46901694179E+03  0.00000000000E+00 0. -1.
         25    1    1    2    0    0 -0.23738449224E+03  0.64185688376E+02 -0.78971066703E+02  0.28693662911E+03  0.12500000000E+03 0.  0.
         21    1    1    2  503  501  0.26589232195E+03 -0.12713838433E+03  0.10369406669E+03  0.31243456133E+03  0.00000000000E+00 0. -1.
         21    1    1    2  504  503 -0.28507829715E+02  0.62952695955E+02 -0.17512167663E+03  0.18826401650E+03  0.00000000000E+00 0. -1.
<mgrwt>
<rscale>  4 0.30297939E+03</rscale>
<asrwt>0</asrwt>
<pdfrwt beam="1">  1       21 0.49018195E-01 0.30297939E+03</pdfrwt>
<pdfrwt beam="2">  1       21 0.72156452E-01 0.30297939E+03</pdfrwt>
<totfact> 0.64366811E+03</totfact>
</mgrwt>
</event>
<event>
 5    0  0.1531977E+001  0.2178393E+03  0.7546771E-02  0.1135504E+00
         21   -1    0    0  504  501  0.00000000000E+00  0.00000000000E+00  0.24219697741E+04  0.24219697741E+04  0.00000000000E+00 0.  1.
         21   -1    0    0  501  502 -0.00000000000E+00 -0.00000000000E+00 -0.29614466079E+02  0.29614466079E+02  0.00000000000E+00 0.  1.
         25    1    1    2    0    0 -0.11841399485E+02 -0.19970884994E+03  0.80277249214E+03  0.83671531457E+03  0.12500000000E+03 0.  0.
         21    1    1    2  503  502  0.65785357122E+02  0.40953842094E+02  0.96711315092E+03  0.97021274836E+03  0.00000000000E+00 0.  1.
         21    1    1    2  504  503 -0.53943957637E+02  0.15875500785E+03  0.62246966493E+03  0.64465617723E+03  0.00000000000E+00 0.  1.
<mgrwt>
<rscale>  4 0.21783926E+03</rscale>
<asrwt>0</asrwt>
<pdfrwt beam="1">  1       21 0.37261058E+00 0.21783926E+03</pdfrwt>
<pdfrwt beam="2">  1       21 0.45560736E-02 0.21783926E+03</pdfrwt>
<totfact> 0.39085382E+03</totfact>
</mgrwt>
</event>
<event>
 5    0  0.1531977E+001  0.2483491E+03  0.7546771E-02  0.1114353E+00
         21   -1    0    0  503  501  0.00000000000E+00  0.00000000000E+00  0.52145504464E+03  0.52145504464E+03  0.00000000000E+00 0.  1.
         21   -1    0    0  504  502 -0.00000000000E+00 -0.00000000000E+00 -0.40458812474E+03  0.40458812474E+03  0.00000000000E+00 0. -1.
         25    1    1    2    0    0 -0.23628298946E+03  0.17133628763E+03 -0.11829392801E+03  0.33882772609E+03  0.12500000000E+03 0.  0.
         21    1    1    2  503  502  0.11501775899E+03 -0.38196874519E+01 -0.12624427484E+03  0.17082532548E+03  0.00000000000E+00 0. -1.
         21    1    1    2  504  501  0.12126523047E+03 -0.16751660018E+03  0.36140512275E+03  0.41639011780E+03  0.00000000000E+00 0.  1.
<mgrwt>
<rscale>  4 0.24834910E+03</rscale>
<asrwt>0</asrwt>
<pdfrwt beam="1">  1       21 0.80223853E-01 0.24834910E+03</pdfrwt>
<pdfrwt beam="2">  1       21 0.62244327E-01 0.24834910E+03</pdfrwt>
<totfact> 0.31363924E+03</totfact>
</mgrwt>
</event>
<event>
 5    0  0.1531977E+001  0.2158338E+03  0.7546771E-02  0.1137028E+00
         21   -1    0    0  503  501  0.00000000000E+00  0.00000000000E+00  0.26205689559E+03  0.26205689559E+03  0.00000000000E+00 0.  1.
         21   -1    0    0  504  502 -0.00000000000E+00 -0.00000000000E+00 -0.68459461283E+03  0.68459461283E+03  0.00000000000E+00 0. -1.
         25    1    1    2    0    0 -0.12978348463E+03 -0.15697537718E+03  0.17085890428E+03  0.29377336009E+03  0.12500000000E+03 0.  0.
         21    1    1    2  503  502  0.99703292702E+02  0.14320115687E+03 -0.59469809430E+03  0.61976861914E+03  0.00000000000E+00 0. -1.
         21    1    1    2  504  501  0.30080191927E+02  0.13774220319E+02  0.13014727714E+01  0.33109529189E+02  0.00000000000E+00 0.  1.
<mgrwt>
<rscale>  4 0.21583380E+03</rscale>
<asrwt>0</asrwt>
<pdfrwt beam="1">  1       21 0.40316446E-01 0.21583380E+03</pdfrwt>
<pdfrwt beam="2">  1       21 0.10532225E+00 0.21583380E+03</pdfrwt>
<totfact> 0.42210924E+03</totfact>
</mgrwt>
</event>
<event>
 5    0  0.1531977E+001  0.4114088E+03  0.7546771E-02  0.1041723E+00
         21   -1    0    0  503  501  0.00000000000E+00  0.00000000000E+00  0.15133443903E+04  0.15133443903E+04  0.00000000000E+00 0. -1.
         21   -1    0    0  504  502 -0.00000000000E+00 -0.00000000000E+00 -0.11135081012E+03  0.11135081012E+03  0.00000000000E+00 0. -1.
         25    1    1    2    0    0 -0.31615593765E+03 -0.19147606203E+03  0.85885261335E+03  0.94332946032E+03  0.12500000000E+03 0.  0.
         21    1    1    2  503  502  0.71737337809E+02  0.11399154044E+03  0.94188747000E+02  0.16435278212E+03  0.00000000000E+00 0.  1.
         21    1    1    2  504  501  0.24441859984E+03  0.77484521590E+02  0.44895221984E+03  0.51701295799E+03  0.00000000000E+00 0. -1.
<mgrwt>
<rscale>  4 0.40599641E+03</rscale>
<asrwt>0</asrwt>
<pdfrwt beam="1">  1       21 0.23282220E+00 0.41140875E+03</pdfrwt>
<pdfrwt beam="2">  1       21 0.17130895E-01 0.41140875E+03</pdfrwt>
<totfact> 0.22075173E+03</totfact>
</mgrwt>
</event>
<event>
 5    0  0.1531977E+001  0.2521953E+03  0.7546771E-02  0.1111925E+00
         21   -1    0    0  502  501  0.00000000000E+00  0.00000000000E+00  0.18130588962E+03  0.18130588962E+03  0.00000000000E+00 0.  1.
         21   -1    0    0  504  502 -0.00000000000E+00 -0.00000000000E+00 -0.33949122355E+03  0.33949122355E+03  0.00000000000E+00 0.  1.
         25    1    1    2    0    0 -0.65176973302E+02  0.20911583356E+03 -0.11984763967E+03  0.27922379273E+03  0.12500000000E+03 0.  0.
         21    1    1    2  503  501  0.56096140477E+02 -0.87698596104E+02  0.20883001872E+02  0.10617871963E+03  0.00000000000E+00 0.  1.
         21    1    1    2  504  503  0.90808328246E+01 -0.12141723746E+03 -0.59220696133E+02  0.13539460080E+03  0.00000000000E+00 0.  1.
<mgrwt>
<rscale>  4 0.25219530E+03</rscale>
<asrwt>0</asrwt>
<pdfrwt beam="1">  1       21 0.27893214E-01 0.25219530E+03</pdfrwt>
<pdfrwt beam="2">  1       21 0.52229419E-01 0.25219530E+03</pdfrwt>
<totfact> 0.41528222E+04</totfact>
</mgrwt>
</event>
<event>
 5    0  0.1531977E+001  0.3633641E+03  0.7546771E-02  0.1057260E+00
         21   -1    0    0  502  501  0.00000000000E+00  0.00000000000E+00  0.12305931702E+03  0.12305931702E+03  0.00000000000E+00 0. -1.
         21   -1    0    0  504  502 -0.00000000000E+00 -0.00000000000E+00 -0.12984359730E+04  0.12984359730E+04  0.00000000000E+00 0. -1.
         25    1    1    2    0    0  0.34894947995E+01 -0.34116904214E+03 -0.88749906397E+03  0.95900369157E+03  0.12500000000E+03 0.  0.
         21    1    1    2  503  501 -0.39121976303E+02  0.37352398461E+02 -0.26984088941E+02  0.60447264261E+02  0.00000000000E+00 0.  1.
         21    1    1    2  504  503  0.35632481504E+02  0.30381664368E+03 -0.26089350307E+03  0.40204433419E+03  0.00000000000E+00 0. -1.
<mgrwt>
<rscale>  4 0.36336413E+03</rscale>
<asrwt>0</asrwt>
<pdfrwt beam="1">  1       21 0.18932203E-01 0.36336413E+03</pdfrwt>
<pdfrwt beam="2">  1       21 0.19975937E+00 0.36336413E+03</pdfrwt>
<totfact> 0.30531370E+03</totfact>
</mgrwt>
</event>
<event>
 5    0  0.1531977E+001  0.2912807E+03  0.7546771E-02  0.1089682E+00
         21   -1    0    0  502  501  0.00000000000E+00  0.00000000000E+00  0.36341672989E+03  0.36341672989E+03  0.00000000000E+00 0.  1.
         21   -1    0    0  504  502 -0.00000000000E+00 -0.00000000000E+00 -0.60758991197E+03  0.60758991197E+03  0.00000000000E+00 0.  1.
         25    1    1    2    0    0  0.99442567978E+02  0.26375894734E+03 -0.25266381843E+03  0.39864973570E+03  0.12500000000E+03 0.  0.
         21    1    1    2  503  501 -0.88499656566E+02 -0.24420081778E+03  0.23167444783E+03  0.34805068366E+03  0.00000000000E+00 0.  1.
         21    1    1    2  504  503 -0.10942911413E+02 -0.19558129567E+02 -0.22318381148E+03  0.22430622250E+03  0.00000000000E+00 0. -1.
<mgrwt>
<rscale>  4 0.29128068E+03</rscale>
<asrwt>0</asrwt>
<pdfrwt beam="1">  1       21 0.55910266E-01 0.29128068E+03</pdfrwt>
<pdfrwt beam="2">  1       21 0.93475371E-01 0.29128068E+03</pdfrwt>
<totfact> 0.27011546E+03</totfact>
</mgrwt>
</event>
<event>
 5    0  0.1531977E+001  0.3048884E+03  0.7546771E-02  0.1082822E+00
         21   -1    0    0  502  501  0.00000000000E+00  0.00000000000E+00  0.71761828188E+03  0.71761828188E+03  0.00000000000E+00 0. -1.
         21   -1    0    0  504  502 -0.00000000000E+00 -0.00000000000E+00 -0.38656665047E+03  0.38656665047E+03  0.00000000000E+00 0. -1.
         25    1    1    2    0    0  0.20123581850E+03  0.18649662727E+03  0.48885208248E+03  0.57435024608E+03  0.12500000000E+03 0.  0.
         21    1    1    2  503  501  0.22115509229E+02 -0.19910841978E+02  0.12757022776E+03  0.13099503955E+03  0.00000000000E+00 0.  1.
         21    1    1    2  504  503 -0.22335132773E+03 -0.16658578529E+03 -0.28537067883E+03  0.39883964672E+03  0.00000000000E+00 0. -1.
<mgrwt>
<rscale>  4 0.30488837E+03</rscale>
<asrwt>0</asrwt>
<pdfrwt beam="1">  1       21 0.11040281E+00 0.30488837E+03</pdfrwt>
<pdfrwt beam="2">  1       21 0.59471792E-01 0.30488837E+03</pdfrwt>
<totfact> 0.15702640E+03</totfact>
</mgrwt>
</event>
<event>
 5    0  0.1531977E+001  0.2716655E+03  0.7546771E-02  0.1100330E+00
         21   -1    0    0  502  501  0.00000000000E+00  0.00000000000E+00  0.11752729053E+03  0.11752729053E+03  0.00000000000E+00 0.  1.
         21   -1    0    0  504  502 -0.00000000000E+00 -0.00000000000E+00 -0.12260759872E+04  0.12260759872E+04  0.00000000000E+00 0. -1.
         25    1    1    2    0    0 -0.20615951175E+03 -0.86962333532E+02 -0.93068945858E+03  0.96533520605E+03  0.12500000000E+03 0.  0.
         21    1    1    2  503  501  0.22135049211E+03  0.10261006107E+03 -0.50619689934E+02  0.24917306837E+03  0.00000000000E+00 0.  1.
         21    1    1    2  504  503 -0.15190980362E+02 -0.15647727536E+02 -0.12723954812E+03  0.12909500326E+03  0.00000000000E+00 0.  1.
<mgrwt>
<rscale>  4 0.27166549E+03</rscale>
<asrwt>0</asrwt>
<pdfrwt beam="1">  1       21 0.18081122E-01 0.27166549E+03</pdfrwt>
<pdfrwt beam="2">  1       21 0.18862707E+00 0.27166549E+03</pdfrwt>
<totfact> 0.41652333E+03</totfact>
</mgrwt>
</event>
<event>
 5    0  0.1531977E+001  0.2017362E+03  0.7546771E-02  0.1148282E+00
         21   -1    0    0  504  501  0.00000000000E+00  0.00000000000E+00  0.52701502007E+03  0.52701502007E+03  0.00000000000E+00 0. -1.
         21   -1    0    0  503  502 -0.00000000000E+00 -0.00000000000E+00 -0.19905881855E+04  0.19905881855E+04  0.00000000000E+00 0. -1.
         25    1    1    2    0    0  0.19517270803E+03 -0.16355842717E+03 -0.43973638339E+02  0.28705822741E+03  0.12500000000E+03 0.  0.
         21    1    1    2  503  501 -0.96370078205E+02  0.50132398534E+02 -0.18094357797E+04  0.18126936559E+04  0.00000000000E+00 0. -1.
         21    1    1    2  504  502 -0.98802629820E+02  0.11342602864E+03  0.38983625262E+03  0.41785132223E+03  0.00000000000E+00 0. -1.
<mgrwt>
<rscale>  4 0.20173622E+03</rscale>
<asrwt>0</asrwt>
<pdfrwt beam="1">  1       21 0.81079234E-01 0.20173622E+03</pdfrwt>
<pdfrwt beam="2">  1       21 0.30624434E+00 0.20173622E+03</pdfrwt>
<totfact> 0.41270924E+01</totfact>
</mgrwt>
</event>
