<event>
 5    0  0.3696258E+000  0.2778786E+03  0.7546771E-02  0.1096853E+00
         -2   -1    0    0    0  501 -0.00000000000E+00  0.00000000000E+00  0.17597352758E+04  0.17597352758E+04  0.00000000000E+00 0.  1.
         21   -1    0    0  503  502  0.00000000000E+00 -0.00000000000E+00 -0.83207758265E+02  0.83207758265E+02  0.00000000000E+00 0. -1.
         25    1    1    2    0    0 -0.18169821554E+03  0.14906508702E+03  0.75207004197E+03  0.79779006620E+03  0.12500000000E+03 0.  0.
         21    1    1    2  503  501  0.20571058836E+03 -0.14697766578E+03  0.20553902846E+03  0.32583058884E+03  0.00000000000E+00 0. -1.
         -2    1    1    2    0  502 -0.24012372823E+02 -0.20874212411E+01  0.71891844709E+03  0.71932237901E+03  0.00000000000E+00 0.  1.
<mgrwt>
<rscale>  4 0.27787858E+03</rscale>
<asrwt>0</asrwt>
<pdfrwt beam="1">  1       21 0.12801195E-01 0.27787858E+03</pdfrwt>
<pdfrwt beam="2">  1       -2 0.27072848E+00 0.27787858E+03</pdfrwt>
<totfact> 0.22945529E+02</totfact>
</mgrwt>
</event>
<event>
 5    0  0.3696258E+000  0.2555371E+03  0.7546771E-02  0.1109855E+00
         21   -1    0    0  501  502  0.00000000000E+00  0.00000000000E+00  0.29049704772E+03  0.29049704772E+03  0.00000000000E+00 0. -1.
          1   -1    0    0  503    0 -0.00000000000E+00 -0.00000000000E+00 -0.78802472983E+03  0.78802472983E+03  0.00000000000E+00 0. -1.
         25    1    1    2    0    0  0.17935151371E+03  0.13097085059E+03  0.15460663024E+03  0.29807472098E+03  0.12500000000E+03 0.  0.
         21    1    1    2  503  502 -0.13848694527E+03 -0.18784657365E+03 -0.15906737703E+03  0.28243123000E+03  0.00000000000E+00 0. -1.
          1    1    1    2  501    0 -0.40864568441E+02  0.56875723066E+02 -0.49306693531E+03  0.49801582658E+03  0.00000000000E+00 0. -1.
<mgrwt>
<rscale>  4 0.25553707E+03</rscale>
<asrwt>0</asrwt>
<pdfrwt beam="1">  1       21 0.44691853E-01 0.25553707E+03</pdfrwt>
<pdfrwt beam="2">  1        1 0.12123457E+00 0.25553707E+03</pdfrwt>
<totfact> 0.12294829E+03</totfact>
</mgrwt>
</event>
<event>
 5    0  0.3696258E+000  0.2695298E+03  0.7546771E-02  0.1101549E+00
         -2   -1    0    0    0  501 -0.00000000000E+00  0.00000000000E+00  0.22126537516E+04  0.22126537516E+04  0.00000000000E+00 0.  1.
         21   -1    0    0  503  502  0.00000000000E+00 -0.00000000000E+00 -0.57241250121E+03  0.57241250121E+03  0.00000000000E+00 0. -1.
         25    1    1    2    0    0 -0.52477742043E+02 -0.23262958092E+03 -0.49334359397E+03  0.56203499628E+03  0.12500000000E+03 0.  0.
         21    1    1    2  503  501  0.20005294583E+02  0.24319988365E+03  0.28947634019E+03  0.37860658572E+03  0.00000000000E+00 0. -1.
         -2    1    1    2    0  502  0.32472447461E+02 -0.10570302732E+02  0.18441085042E+04  0.18444246708E+04  0.00000000000E+00 0.  1.
<mgrwt>
<rscale>  4 0.26952983E+03</rscale>
<asrwt>0</asrwt>
<pdfrwt beam="1">  1       21 0.88063463E-01 0.26952983E+03</pdfrwt>
<pdfrwt beam="2">  1       -2 0.34040827E+00 0.26952983E+03</pdfrwt>
<totfact> 0.18326505E+00</totfact>
</mgrwt>
</event>
<event>
 5    0  0.3696258E+000  0.2499777E+03  0.7546771E-02  0.1113319E+00
         21   -1    0    0  501  502  0.00000000000E+00  0.00000000000E+00  0.37925553042E+03  0.37925553042E+03  0.00000000000E+00 0.  1.
          2   -1    0    0  503    0 -0.00000000000E+00 -0.00000000000E+00 -0.28835573504E+04  0.28835573504E+04  0.00000000000E+00 0.  1.
         25    1    1    2    0    0  0.39875118379E+02  0.24972225690E+03  0.22082741609E+03  0.35824709120E+03  0.12500000000E+03 0.  0.
         21    1    1    2  503  502 -0.15811414116E+03 -0.11701254956E+03 -0.24647583458E+02  0.19824106981E+03  0.00000000000E+00 0.  1.
          2    1    1    2  501    0  0.11823902278E+03 -0.13270970734E+03 -0.27004816526E+04  0.27063247198E+04  0.00000000000E+00 0.  1.
<mgrwt>
<rscale>  4 0.24997767E+03</rscale>
<asrwt>0</asrwt>
<pdfrwt beam="1">  1       21 0.58347007E-01 0.24997767E+03</pdfrwt>
<pdfrwt beam="2">  1        2 0.44362419E+00 0.24997767E+03</pdfrwt>
<totfact> 0.83503699E+01</totfact>
</mgrwt>
</event>
<event>
 5    0  0.3696258E+000  0.2634510E+03  0.7546771E-02  0.1105087E+00
          2   -1    0    0  503    0 -0.00000000000E+00  0.00000000000E+00  0.29009078286E+04  0.29009078286E+04  0.00000000000E+00 0. -1.
         21   -1    0    0  501  502  0.00000000000E+00 -0.00000000000E+00 -0.87127509820E+02  0.87127509820E+02  0.00000000000E+00 0. -1.
         25    1    1    2    0    0  0.22913510872E+03  0.19394390908E+03  0.44652674400E+03  0.55238416978E+03  0.12500000000E+03 0.  0.
         21    1    1    2  503  502 -0.19717201919E+03  0.35578570718E+02  0.33585291546E+03  0.39107521101E+03  0.00000000000E+00 0. -1.
          2    1    1    2  501    0 -0.31963089524E+02 -0.22952247980E+03  0.20314006593E+04  0.20445759576E+04  0.00000000000E+00 0. -1.
<mgrwt>
<rscale>  4 0.26345096E+03</rscale>
<asrwt>0</asrwt>
<pdfrwt beam="1">  1       21 0.13404235E-01 0.26345096E+03</pdfrwt>
<pdfrwt beam="2">  1        2 0.44629344E+00 0.26345096E+03</pdfrwt>
<totfact> 0.14413866E+03</totfact>
</mgrwt>
</event>
<event>
 5    0  0.3696258E+000  0.5786205E+03  0.7546771E-02  0.1023976E+00
         21   -1    0    0  501  502  0.00000000000E+00  0.00000000000E+00  0.17589148089E+04  0.17589148089E+04  0.00000000000E+00 0. -1.
          1   -1    0    0  503    0 -0.00000000000E+00 -0.00000000000E+00 -0.13340756167E+04  0.13340756167E+04  0.00000000000E+00 0.  1.
         25    1    1    2    0    0  0.17154186170E+03  0.10494530548E+03  0.48174644317E+03  0.53679117258E+03  0.12500000000E+03 0.  0.
         21    1    1    2  503  502  0.40526414653E+03  0.13944339131E+02  0.11466704453E+04  0.12162592582E+04  0.00000000000E+00 0. -1.
          1    1    1    2  501    0 -0.57680600824E+03 -0.11888964461E+03 -0.12035776963E+04  0.13399399948E+04  0.00000000000E+00 0.  1.
<mgrwt>
<rscale>  4 0.46278788E+03</rscale>
<asrwt>0</asrwt>
<pdfrwt beam="1">  1       21 0.27060228E+00 0.57862052E+03</pdfrwt>
<pdfrwt beam="2">  1        1 0.20524240E+00 0.57862052E+03</pdfrwt>
<totfact> 0.38302491E+00</totfact>
</mgrwt>
</event>
<event>
 5    0  0.3696258E+000  0.4021181E+03  0.7546771E-02  0.1043049E+00
          2   -1    0    0  503    0 -0.00000000000E+00  0.00000000000E+00  0.80833159172E+03  0.80833159172E+03  0.00000000000E+00 0. -1.
         21   -1    0    0  501  502  0.00000000000E+00 -0.00000000000E+00 -0.26998317720E+03  0.26998317720E+03  0.00000000000E+00 0. -1.
         25    1    1    2    0    0 -0.58722284749E+02  0.37447251870E+03  0.34657403190E+03  0.52859865075E+03  0.12500000000E+03 0.  0.
         21    1    1    2  503  502  0.81800320546E+02 -0.37508144375E+03  0.28648890862E+02  0.38496511639E+03  0.00000000000E+00 0. -1.
          2    1    1    2  501    0 -0.23078035798E+02  0.60892505202E+00  0.16312549175E+03  0.16475100178E+03  0.00000000000E+00 0. -1.
<mgrwt>
<rscale>  4 0.40211810E+03</rscale>
<asrwt>0</asrwt>
<pdfrwt beam="1">  1       21 0.41535874E-01 0.40211810E+03</pdfrwt>
<pdfrwt beam="2">  1        2 0.12435871E+00 0.40211810E+03</pdfrwt>
<totfact> 0.23107239E+03</totfact>
</mgrwt>
</event>
<event>
 5    0  0.3696258E+000  0.2939062E+03  0.7546771E-02  0.1095633E+00
         21   -1    0    0  501  502  0.00000000000E+00  0.00000000000E+00  0.90858293746E+03  0.90858293746E+03  0.00000000000E+00 0.  1.
          1   -1    0    0  503    0 -0.00000000000E+00 -0.00000000000E+00 -0.44653474829E+04  0.44653474829E+04  0.00000000000E+00 0.  1.
         25    1    1    2    0    0 -0.88626053813E+02 -0.18790365686E+03  0.75604101890E+03  0.79396812527E+03  0.12500000000E+03 0.  0.
         21    1    1    2  503  502  0.31507552405E+03 -0.24833627215E+01 -0.64815738826E+02  0.32168281419E+03  0.00000000000E+00 0.  1.
          1    1    1    2  501    0 -0.22644947024E+03  0.19038701958E+03 -0.42479898255E+04  0.42582794809E+04  0.00000000000E+00 0.  1.
<mgrwt>
<rscale>  4 0.28010252E+03</rscale>
<asrwt>0</asrwt>
<pdfrwt beam="1">  1       21 0.13978199E+00 0.29390616E+03</pdfrwt>
<pdfrwt beam="2">  1        1 0.68697653E+00 0.29390616E+03</pdfrwt>
<totfact> 0.17576032E-01</totfact>
</mgrwt>
</event>
<event>
 5    0  0.3696258E+000  0.2725028E+03  0.7546771E-02  0.1099856E+00
         21   -1    0    0  503  502  0.00000000000E+00  0.00000000000E+00  0.71565540735E+03  0.71565540735E+03  0.00000000000E+00 0. -1.
         -1   -1    0    0    0  501 -0.00000000000E+00 -0.00000000000E+00 -0.15153285831E+03  0.15153285831E+03  0.00000000000E+00 0. -1.
         25    1    1    2    0    0  0.14410986397E+03 -0.17949922741E+03  0.20473839495E+03  0.33246117955E+03  0.12500000000E+03 0.  0.
         21    1    1    2  503  501 -0.14643155784E+03  0.20107307392E+03  0.41005737503E+03  0.47960362072E+03  0.00000000000E+00 0. -1.
         -1    1    1    2    0  502  0.23216938646E+01 -0.21573846506E+02 -0.50673220952E+02  0.55123465394E+02  0.00000000000E+00 0. -1.
<mgrwt>
<rscale>  4 0.27250278E+03</rscale>
<asrwt>0</asrwt>
<pdfrwt beam="1">  1       21 0.11010083E+00 0.27250278E+03</pdfrwt>
<pdfrwt beam="2">  1       -1 0.23312748E-01 0.27250278E+03</pdfrwt>
<totfact> 0.89823368E+02</totfact>
</mgrwt>
</event>
<event>
 5    0  0.3696258E+000  0.2766960E+03  0.7546771E-02  0.1097507E+00
         21   -1    0    0  501  502  0.00000000000E+00  0.00000000000E+00  0.30859113376E+03  0.30859113376E+03  0.00000000000E+00 0. -1.
          2   -1    0    0  503    0 -0.00000000000E+00 -0.00000000000E+00 -0.51487815438E+03  0.51487815438E+03  0.00000000000E+00 0. -1.
         25    1    1    2    0    0 -0.18215403847E+03 -0.13742848350E+03 -0.63446270987E+02  0.26780050618E+03  0.12500000000E+03 0.  0.
         21    1    1    2  503  502  0.20189231022E+03  0.15712096872E+03  0.12614847288E+03  0.28523839318E+03  0.00000000000E+00 0. -1.
          2    1    1    2  501    0 -0.19738271747E+02 -0.19692485214E+02 -0.26898922251E+03  0.27043038878E+03  0.00000000000E+00 0. -1.
<mgrwt>
<rscale>  4 0.27669604E+03</rscale>
<asrwt>0</asrwt>
<pdfrwt beam="1">  1       21 0.47475559E-01 0.27669604E+03</pdfrwt>
<pdfrwt beam="2">  1        2 0.79212023E-01 0.27669604E+03</pdfrwt>
<totfact> 0.31116696E+03</totfact>
</mgrwt>
</event>
<event>
 5    0  0.3696258E+000  0.2465880E+03  0.7546771E-02  0.1115480E+00
          2   -1    0    0  503    0 -0.00000000000E+00  0.00000000000E+00  0.12972768434E+04  0.12972768434E+04  0.00000000000E+00 0.  1.
         21   -1    0    0  501  502  0.00000000000E+00 -0.00000000000E+00 -0.81362382433E+02  0.81362382433E+02  0.00000000000E+00 0.  1.
         25    1    1    2    0    0  0.31014260639E+02  0.20906377765E+03  0.17411279113E+03  0.30101463673E+03  0.12500000000E+03 0.  0.
         21    1    1    2  503  502 -0.39423772905E+00 -0.21774638999E+03  0.67071040540E+03  0.70517096770E+03  0.00000000000E+00 0.  1.
          2    1    1    2  501    0 -0.30620022910E+02  0.86826123357E+01  0.37109126448E+03  0.37245362145E+03  0.00000000000E+00 0.  1.
<mgrwt>
<rscale>  4 0.24658801E+03</rscale>
<asrwt>0</asrwt>
<pdfrwt beam="1">  1       21 0.12517291E-01 0.24658801E+03</pdfrwt>
<pdfrwt beam="2">  1        2 0.19958104E+00 0.24658801E+03</pdfrwt>
<totfact> 0.12074637E+04</totfact>
</mgrwt>
</event>
<event>
 5    0  0.3696258E+000  0.2471781E+03  0.7546771E-02  0.1115101E+00
         21   -1    0    0  501  502  0.00000000000E+00  0.00000000000E+00  0.20324864527E+03  0.20324864527E+03  0.00000000000E+00 0.  1.
          4   -1    0    0  503    0 -0.00000000000E+00 -0.00000000000E+00 -0.16687941062E+04  0.16687941062E+04  0.00000000000E+00 0.  1.
         25    1    1    2    0    0  0.22890656513E+03 -0.19445094150E+02 -0.14096696636E+03  0.29710774619E+03  0.12500000000E+03 0.  0.
         21    1    1    2  503  502 -0.20593026406E+03  0.19034254222E+02  0.39598058686E+02  0.21056491337E+03  0.00000000000E+00 0.  1.
          4    1    1    2  501    0 -0.22976301065E+02  0.41083992804E+00 -0.13641765533E+04  0.13643700919E+04  0.00000000000E+00 0.  1.
<mgrwt>
<rscale>  4 0.24717806E+03</rscale>
<asrwt>0</asrwt>
<pdfrwt beam="1">  1       21 0.31269021E-01 0.24717806E+03</pdfrwt>
<pdfrwt beam="2">  1        4 0.25673756E+00 0.24717806E+03</pdfrwt>
<totfact> 0.26720698E+01</totfact>
</mgrwt>
</event>
<event>
 5    0  0.3696258E+000  0.2367852E+03  0.7546771E-02  0.1121953E+00
         21   -1    0    0  501  502  0.00000000000E+00  0.00000000000E+00  0.18374878123E+04  0.18374878123E+04  0.00000000000E+00 0. -1.
          2   -1    0    0  503    0 -0.00000000000E+00 -0.00000000000E+00 -0.22340262567E+03  0.22340262567E+03  0.00000000000E+00 0. -1.
         25    1    1    2    0    0 -0.21212253401E+03 -0.41892553164E+02  0.13526622279E+04  0.13755257389E+04  0.12500000000E+03 0.  0.
         21    1    1    2  503  502  0.17594343060E+03  0.31425166922E+02  0.45464106242E+03  0.48851010995E+03  0.00000000000E+00 0. -1.
          2    1    1    2  501    0  0.36179103417E+02  0.10467386242E+02 -0.19321810367E+03  0.19685458919E+03  0.00000000000E+00 0. -1.
<mgrwt>
<rscale>  4 0.23678524E+03</rscale>
<asrwt>0</asrwt>
<pdfrwt beam="1">  1       21 0.28269042E+00 0.23678524E+03</pdfrwt>
<pdfrwt beam="2">  1        2 0.34369636E-01 0.23678524E+03</pdfrwt>
<totfact> 0.76344073E+01</totfact>
</mgrwt>
</event>
<event>
 5    0  0.3696258E+000  0.2316830E+03  0.7546771E-02  0.1125461E+00
         21   -1    0    0  501  502  0.00000000000E+00  0.00000000000E+00  0.66434097853E+02  0.66434097853E+02  0.00000000000E+00 0.  1.
          1   -1    0    0  503    0 -0.00000000000E+00 -0.00000000000E+00 -0.12034994550E+04  0.12034994550E+04  0.00000000000E+00 0.  1.
         25    1    1    2    0    0 -0.10151879068E+03 -0.17554247642E+03 -0.29660617815E+03  0.38042272646E+03  0.12500000000E+03 0.  0.
         21    1    1    2  503  502  0.10490316939E+03  0.15494322821E+03 -0.33574747564E+03  0.38436759270E+03  0.00000000000E+00 0.  1.
          1    1    1    2  501    0 -0.33843787122E+01  0.20599248211E+02 -0.50471170335E+03  0.50514323369E+03  0.00000000000E+00 0.  1.
<mgrwt>
<rscale>  4 0.23168299E+03</rscale>
<asrwt>0</asrwt>
<pdfrwt beam="1">  1       21 0.10220631E-01 0.23168299E+03</pdfrwt>
<pdfrwt beam="2">  1        1 0.18515375E+00 0.23168299E+03</pdfrwt>
<totfact> 0.99214477E+03</totfact>
</mgrwt>
</event>
<event>
 5    0  0.3696258E+000  0.3224500E+03  0.7546771E-02  0.1074527E+00
         21   -1    0    0  501  502  0.00000000000E+00  0.00000000000E+00  0.72979327478E+03  0.72979327478E+03  0.00000000000E+00 0.  1.
          2   -1    0    0  503    0 -0.00000000000E+00 -0.00000000000E+00 -0.50797544790E+03  0.50797544790E+03  0.00000000000E+00 0. -1.
         25    1    1    2    0    0  0.41199580681E+02 -0.20944226346E+03  0.33030042873E+03  0.41265826102E+03  0.12500000000E+03 0.  0.
         21    1    1    2  503  502 -0.11114398808E+03 -0.94530956363E+02  0.28668136639E+03  0.32167575854E+03  0.00000000000E+00 0.  1.
          2    1    1    2  501    0  0.69944407399E+02  0.30397321982E+03 -0.39516396825E+03  0.50343470311E+03  0.00000000000E+00 0. -1.
<mgrwt>
<rscale>  4 0.32245001E+03</rscale>
<asrwt>0</asrwt>
<pdfrwt beam="1">  1       21 0.11227589E+00 0.32245001E+03</pdfrwt>
<pdfrwt beam="2">  1        2 0.78150069E-01 0.32245001E+03</pdfrwt>
<totfact> 0.44530453E+02</totfact>
</mgrwt>
</event>
<event>
 5    0  0.3696258E+000  0.2471877E+03  0.7546771E-02  0.1115095E+00
         -2   -1    0    0    0  501 -0.00000000000E+00  0.00000000000E+00  0.25643776400E+03  0.25643776400E+03  0.00000000000E+00 0.  1.
         21   -1    0    0  503  502  0.00000000000E+00 -0.00000000000E+00 -0.33125459066E+03  0.33125459066E+03  0.00000000000E+00 0.  1.
         25    1    1    2    0    0 -0.21745389642E+03  0.35290495241E+02 -0.16885393972E+03  0.30441463349E+03  0.12500000000E+03 0.  0.
         21    1    1    2  503  501  0.19336251393E+03 -0.61217386195E+02  0.23267858022E+02  0.20415196149E+03  0.00000000000E+00 0.  1.
         -2    1    1    2    0  502  0.24091382495E+02  0.25926890954E+02  0.70769255045E+02  0.79125759678E+02  0.00000000000E+00 0.  1.
<mgrwt>
<rscale>  4 0.24718768E+03</rscale>
<asrwt>0</asrwt>
<pdfrwt beam="1">  1       21 0.50962245E-01 0.24718768E+03</pdfrwt>
<pdfrwt beam="2">  1       -2 0.39451964E-01 0.24718768E+03</pdfrwt>
<totfact> 0.17807707E+03</totfact>
</mgrwt>
</event>
<event>
 5    0  0.3696258E+000  0.3297496E+03  0.7546771E-02  0.1071248E+00
         21   -1    0    0  503  502  0.00000000000E+00  0.00000000000E+00  0.85133782871E+03  0.85133782871E+03  0.00000000000E+00 0.  1.
         -2   -1    0    0    0  501 -0.00000000000E+00 -0.00000000000E+00 -0.30317182951E+03  0.30317182951E+03  0.00000000000E+00 0.  1.
         25    1    1    2    0    0 -0.21222468780E+03 -0.22991736524E+03  0.66459214542E+03  0.74512350165E+03  0.12500000000E+03 0.  0.
         21    1    1    2  503  501  0.23837168531E+03  0.15290131462E+03 -0.20958916655E+02  0.28397033041E+03  0.00000000000E+00 0.  1.
         -2    1    1    2    0  502 -0.26146997508E+02  0.77016050625E+02 -0.95467229559E+02  0.12541582616E+03  0.00000000000E+00 0.  1.
<mgrwt>
<rscale>  4 0.32974957E+03</rscale>
<asrwt>0</asrwt>
<pdfrwt beam="1">  1       21 0.13097505E+00 0.32974957E+03</pdfrwt>
<pdfrwt beam="2">  1       -2 0.46641820E-01 0.32974957E+03</pdfrwt>
<totfact> 0.14151393E+02</totfact>
</mgrwt>
</event>
<event>
 5    0  0.3696258E+000  0.2102519E+03  0.7546771E-02  0.1141367E+00
         21   -1    0    0  501  502  0.00000000000E+00  0.00000000000E+00  0.22531285133E+03  0.22531285133E+03  0.00000000000E+00 0.  1.
          2   -1    0    0  503    0 -0.00000000000E+00 -0.00000000000E+00 -0.23240187067E+04  0.23240187067E+04  0.00000000000E+00 0.  1.
         25    1    1    2    0    0  0.17092343136E+03 -0.13292781219E+03  0.59873541964E+02  0.25708843551E+03  0.12500000000E+03 0.  0.
         21    1    1    2  503  502 -0.11819435189E+03  0.67376245243E+02 -0.40890409099E+01  0.13611092351E+03  0.00000000000E+00 0.  1.
          2    1    1    2  501    0 -0.52729079471E+02  0.65551566947E+02 -0.21544903564E+04  0.21561321990E+04  0.00000000000E+00 0.  1.
<mgrwt>
<rscale>  4 0.21025191E+03</rscale>
<asrwt>0</asrwt>
<pdfrwt beam="1">  1       21 0.34663517E-01 0.21025191E+03</pdfrwt>
<pdfrwt beam="2">  1        2 0.35754132E+00 0.21025191E+03</pdfrwt>
<totfact> 0.51543823E+02</totfact>
</mgrwt>
</event>
<event>
 5    0  0.3696258E+000  0.3513820E+03  0.7546771E-02  0.1062049E+00
         21   -1    0    0  501  502  0.00000000000E+00  0.00000000000E+00  0.14264007894E+03  0.14264007894E+03  0.00000000000E+00 0.  1.
          2   -1    0    0  503    0 -0.00000000000E+00 -0.00000000000E+00 -0.15741725032E+04  0.15741725032E+04  0.00000000000E+00 0. -1.
         25    1    1    2    0    0  0.25271337241E+03 -0.14830883445E+03 -0.47430915554E+03  0.57136129901E+03  0.12500000000E+03 0.  0.
         21    1    1    2  503  502 -0.30163219459E+03  0.17909124745E+03 -0.23800133709E+03  0.42391071251E+03  0.00000000000E+00 0.  1.
          2    1    1    2  501    0  0.48918822175E+02 -0.30782412993E+02 -0.71922193160E+03  0.72154057059E+03  0.00000000000E+00 0. -1.
<mgrwt>
<rscale>  4 0.35138202E+03</rscale>
<asrwt>0</asrwt>
<pdfrwt beam="1">  1       21 0.21944628E-01 0.35138202E+03</pdfrwt>
<pdfrwt beam="2">  1        2 0.24218038E+00 0.35138202E+03</pdfrwt>
<totfact> 0.29232778E+03</totfact>
</mgrwt>
</event>
<event>
 5    0  0.3696258E+000  0.3209552E+03  0.7546771E-02  0.1075211E+00
         21   -1    0    0  503  502  0.00000000000E+00  0.00000000000E+00  0.12771316195E+04  0.12771316195E+04  0.00000000000E+00 0.  1.
         -1   -1    0    0    0  501 -0.00000000000E+00 -0.00000000000E+00 -0.41986150636E+03  0.41986150636E+03  0.00000000000E+00 0. -1.
         25    1    1    2    0    0  0.36367871984E+01 -0.34175205400E+03  0.68711832548E+03  0.77753732119E+03  0.12500000000E+03 0.  0.
         21    1    1    2  503  501  0.85519850266E+01  0.26289758183E+03  0.50813619258E+03  0.57218062287E+03  0.00000000000E+00 0.  1.
         -1    1    1    2    0  502 -0.12188772225E+02  0.78854472173E+02 -0.33798440490E+03  0.34727518182E+03  0.00000000000E+00 0. -1.
<mgrwt>
<rscale>  4 0.32095520E+03</rscale>
<asrwt>0</asrwt>
<pdfrwt beam="1">  1       21 0.19648179E+00 0.32095520E+03</pdfrwt>
<pdfrwt beam="2">  1       -1 0.64594079E-01 0.32095520E+03</pdfrwt>
<totfact> 0.30025594E+01</totfact>
</mgrwt>
</event>
<event>
 5    0  0.3696258E+000  0.2418614E+03  0.7546771E-02  0.1118559E+00
         21   -1    0    0  501  502  0.00000000000E+00  0.00000000000E+00  0.11782750502E+04  0.11782750502E+04  0.00000000000E+00 0.  1.
          1   -1    0    0  503    0 -0.00000000000E+00 -0.00000000000E+00 -0.21352197730E+03  0.21352197730E+03  0.00000000000E+00 0.  1.
         25    1    1    2    0    0 -0.79035015906E+02 -0.24511449051E+03  0.88246981716E+02  0.29956664864E+03  0.12500000000E+03 0.  0.
         21    1    1    2  503  502  0.80050984512E+02  0.18562765128E+03  0.96480610391E+03  0.98575686819E+03  0.00000000000E+00 0.  1.
          1    1    1    2  501    0 -0.10159686057E+01  0.59486839233E+02 -0.88300012707E+02  0.10647351069E+03  0.00000000000E+00 0.  1.
<mgrwt>
<rscale>  4 0.24186145E+03</rscale>
<asrwt>0</asrwt>
<pdfrwt beam="1">  1       21 0.18127308E+00 0.24186145E+03</pdfrwt>
<pdfrwt beam="2">  1        1 0.32849536E-01 0.24186145E+03</pdfrwt>
<totfact> 0.25247449E+02</totfact>
</mgrwt>
</event>
<event>
 5    0  0.3696258E+000  0.3128608E+03  0.7546771E-02  0.1078983E+00
         -1   -1    0    0    0  501 -0.00000000000E+00  0.00000000000E+00  0.37374519953E+03  0.37374519953E+03  0.00000000000E+00 0. -1.
         21   -1    0    0  503  502  0.00000000000E+00 -0.00000000000E+00 -0.10805357905E+04  0.10805357905E+04  0.00000000000E+00 0. -1.
         25    1    1    2    0    0  0.23716382988E+03  0.13187398432E+03 -0.63933501539E+03  0.70569943449E+03  0.12500000000E+03 0.  0.
         21    1    1    2  503  501 -0.30250097067E+03 -0.10265129703E+03 -0.34016041062E+03  0.46664036580E+03  0.00000000000E+00 0. -1.
         -1    1    1    2    0  502  0.65337140789E+02 -0.29222687287E+02  0.27270483504E+03  0.28194118974E+03  0.00000000000E+00 0. -1.
<mgrwt>
<rscale>  4 0.31286081E+03</rscale>
<asrwt>0</asrwt>
<pdfrwt beam="1">  1       21 0.16623627E+00 0.31286081E+03</pdfrwt>
<pdfrwt beam="2">  1       -1 0.57499262E-01 0.31286081E+03</pdfrwt>
<totfact> 0.61280802E+01</totfact>
</mgrwt>
</event>
<event>
 5    0  0.3696258E+000  0.3555119E+03  0.7546771E-02  0.1060375E+00
          3   -1    0    0  503    0 -0.00000000000E+00  0.00000000000E+00  0.20018312876E+04  0.20018312876E+04  0.00000000000E+00 0.  1.
         21   -1    0    0  501  502  0.00000000000E+00 -0.00000000000E+00 -0.32318374739E+03  0.32318374739E+03  0.00000000000E+00 0.  1.
         25    1    1    2    0    0 -0.18442005041E+03 -0.29730628997E+03  0.37865332461E+02  0.37344419724E+03  0.12500000000E+03 0.  0.
         21    1    1    2  503  502 -0.63592660439E+01  0.34415956943E+03  0.48972112070E+02  0.34768450821E+03  0.00000000000E+00 0.  1.
          3    1    1    2  501    0  0.19077931646E+03 -0.46853279459E+02  0.15918100957E+04  0.16038863296E+04  0.00000000000E+00 0.  1.
<mgrwt>
<rscale>  4 0.35551187E+03</rscale>
<asrwt>0</asrwt>
<pdfrwt beam="1">  1       21 0.49720578E-01 0.35551187E+03</pdfrwt>
<pdfrwt beam="2">  1        3 0.30797404E+00 0.35551187E+03</pdfrwt>
<totfact> 0.71504373E+00</totfact>
</mgrwt>
</event>
<event>
 5    0  0.3696258E+000  0.3513850E+03  0.7546771E-02  0.1062048E+00
          1   -1    0    0  503    0 -0.00000000000E+00  0.00000000000E+00  0.12875138179E+04  0.12875138179E+04  0.00000000000E+00 0.  1.
         21   -1    0    0  501  502  0.00000000000E+00 -0.00000000000E+00 -0.14211881987E+04  0.14211881987E+04  0.00000000000E+00 0.  1.
         25    1    1    2    0    0  0.14214509713E+02 -0.33189068716E+03 -0.11710113408E+04  0.12236200558E+04  0.12500000000E+03 0.  0.
         21    1    1    2  503  502 -0.33560508971E+02  0.31131963479E+03 -0.11412575486E+03  0.33327302724E+03  0.00000000000E+00 0.  1.
          1    1    1    2  501    0  0.19345999258E+02  0.20571052378E+02  0.11514627148E+04  0.11518089336E+04  0.00000000000E+00 0.  1.
<mgrwt>
<rscale>  4 0.35138505E+03</rscale>
<asrwt>0</asrwt>
<pdfrwt beam="1">  1       21 0.21864434E+00 0.35138505E+03</pdfrwt>
<pdfrwt beam="2">  1        1 0.19807905E+00 0.35138505E+03</pdfrwt>
<totfact> 0.98789056E+00</totfact>
</mgrwt>
</event>
<event>
 5    0  0.3696258E+000  0.2533923E+03  0.7546771E-02  0.1111180E+00
         21   -1    0    0  501  502  0.00000000000E+00  0.00000000000E+00  0.90632068029E+02  0.90632068029E+02  0.00000000000E+00 0. -1.
          2   -1    0    0  503    0 -0.00000000000E+00 -0.00000000000E+00 -0.14967289730E+04  0.14967289730E+04  0.00000000000E+00 0. -1.
         25    1    1    2    0    0 -0.42363894100E+02 -0.26985828843E+03 -0.31311776174E+03  0.43391926446E+03  0.12500000000E+03 0.  0.
         21    1    1    2  503  502  0.32685414357E+02  0.17628570390E+03 -0.26389921135E+03  0.31904197132E+03  0.00000000000E+00 0. -1.
          2    1    1    2  501    0  0.96784797428E+01  0.93572584527E+02 -0.82907993193E+03  0.83439980529E+03  0.00000000000E+00 0. -1.
<mgrwt>
<rscale>  4 0.25339233E+03</rscale>
<asrwt>0</asrwt>
<pdfrwt beam="1">  1       21 0.13943396E-01 0.25339233E+03</pdfrwt>
<pdfrwt beam="2">  1        2 0.23026599E+00 0.25339233E+03</pdfrwt>
<totfact> 0.77207317E+03</totfact>
</mgrwt>
</event>
<event>
 5    0  0.3696258E+000  0.6123242E+03  0.7546771E-02  0.9886499E-01
         -3   -1    0    0    0  501 -0.00000000000E+00  0.00000000000E+00  0.94365778319E+03  0.94365778319E+03  0.00000000000E+00 0. -1.
         21   -1    0    0  503  502  0.00000000000E+00 -0.00000000000E+00 -0.91775303227E+03  0.91775303227E+03  0.00000000000E+00 0. -1.
         25    1    1    2    0    0  0.20511864653E+03  0.54973801803E+03 -0.69331340345E+03  0.91683914785E+03  0.12500000000E+03 0.  0.
         21    1    1    2  503  501 -0.17631926322E+03 -0.46277570512E+03  0.48537500105E+03  0.69342535826E+03  0.00000000000E+00 0. -1.
         -3    1    1    2    0  502 -0.28799383305E+02 -0.86962312911E+02  0.23384315332E+03  0.25114630935E+03  0.00000000000E+00 0. -1.
<mgrwt>
<rscale>  4 0.60920067E+03</rscale>
<asrwt>0</asrwt>
<pdfrwt beam="1">  1       21 0.14119277E+00 0.61232416E+03</pdfrwt>
<pdfrwt beam="2">  1       -3 0.14517812E+00 0.61232416E+03</pdfrwt>
<totfact> 0.54102931E+00</totfact>
</mgrwt>
</event>
<event>
 5    0  0.3696258E+000  0.2685468E+03  0.7546771E-02  0.1102114E+00
          2   -1    0    0  503    0 -0.00000000000E+00  0.00000000000E+00  0.29373766116E+04  0.29373766116E+04  0.00000000000E+00 0. -1.
         21   -1    0    0  501  502  0.00000000000E+00 -0.00000000000E+00 -0.78760191261E+02  0.78760191261E+02  0.00000000000E+00 0. -1.
         25    1    1    2    0    0 -0.22783328450E+03 -0.97972715484E+02  0.30799168922E+03  0.41471742082E+03  0.12500000000E+03 0.  0.
         21    1    1    2  503  502  0.86748456775E+02  0.26301850671E+03  0.10845750618E+04  0.11193779944E+04  0.00000000000E+00 0. -1.
          2    1    1    2  501    0  0.14108482773E+03 -0.16504579123E+03  0.14660496693E+04  0.14820413876E+04  0.00000000000E+00 0. -1.
<mgrwt>
<rscale>  4 0.26854679E+03</rscale>
<asrwt>0</asrwt>
<pdfrwt beam="1">  1       21 0.12116955E-01 0.26854679E+03</pdfrwt>
<pdfrwt beam="2">  1        2 0.45190401E+00 0.26854679E+03</pdfrwt>
<totfact> 0.16431939E+03</totfact>
</mgrwt>
</event>
<event>
 5    0  0.3696258E+000  0.2562445E+03  0.7546771E-02  0.1109421E+00
         21   -1    0    0  501  502  0.00000000000E+00  0.00000000000E+00  0.23925679760E+03  0.23925679760E+03  0.00000000000E+00 0. -1.
          2   -1    0    0  503    0 -0.00000000000E+00 -0.00000000000E+00 -0.82682093157E+03  0.82682093157E+03  0.00000000000E+00 0. -1.
         25    1    1    2    0    0  0.18491383349E+03  0.14399911812E+03  0.10150795732E+03  0.28435494938E+03  0.12500000000E+03 0.  0.
         21    1    1    2  503  502 -0.12961561786E+03  0.66044680442E+02 -0.35025952937E+03  0.37926751261E+03  0.00000000000E+00 0.  1.
          2    1    1    2  501    0 -0.55298215626E+02 -0.21004379856E+03 -0.33881256192E+03  0.40245526718E+03  0.00000000000E+00 0. -1.
<mgrwt>
<rscale>  4 0.25624450E+03</rscale>
<asrwt>0</asrwt>
<pdfrwt beam="1">  1       21 0.36808738E-01 0.25624450E+03</pdfrwt>
<pdfrwt beam="2">  1        2 0.12720322E+00 0.25624450E+03</pdfrwt>
<totfact> 0.29881511E+03</totfact>
</mgrwt>
</event>
<event>
 5    0  0.3696258E+000  0.2536723E+03  0.7546771E-02  0.1111006E+00
         -1   -1    0    0    0  501 -0.00000000000E+00  0.00000000000E+00  0.37056698685E+03  0.37056698685E+03  0.00000000000E+00 0.  1.
         21   -1    0    0  503  502  0.00000000000E+00 -0.00000000000E+00 -0.10289235192E+04  0.10289235192E+04  0.00000000000E+00 0. -1.
         25    1    1    2    0    0  0.20443822716E+03  0.19752749665E+03 -0.59130516692E+03  0.66789138419E+03  0.12500000000E+03 0.  0.
         21    1    1    2  503  501 -0.35006783970E+02 -0.19358877750E+03 -0.35016040956E+03  0.40163964212E+03  0.00000000000E+00 0.  1.
         -1    1    1    2    0  502 -0.16943144319E+03 -0.39387191474E+01  0.28310904409E+03  0.32995947978E+03  0.00000000000E+00 0.  1.
<mgrwt>
<rscale>  4 0.25367234E+03</rscale>
<asrwt>0</asrwt>
<pdfrwt beam="1">  1       21 0.15829592E+00 0.25367234E+03</pdfrwt>
<pdfrwt beam="2">  1       -1 0.57010307E-01 0.25367234E+03</pdfrwt>
<totfact> 0.73722905E+01</totfact>
</mgrwt>
</event>
<event>
 5    0  0.3696258E+000  0.3246909E+03  0.7546771E-02  0.1073510E+00
          1   -1    0    0  503    0 -0.00000000000E+00  0.00000000000E+00  0.69284710239E+03  0.69284710239E+03  0.00000000000E+00 0.  1.
         21   -1    0    0  501  502  0.00000000000E+00 -0.00000000000E+00 -0.50272058434E+03  0.50272058434E+03  0.00000000000E+00 0.  1.
         25    1    1    2    0    0 -0.32693180789E+03  0.11626524218E+03 -0.57036030681E+02  0.37320252189E+03  0.12500000000E+03 0.  0.
         21    1    1    2  503  502  0.26509278331E+03 -0.87701081549E+02 -0.21675064436E+03  0.35347772956E+03  0.00000000000E+00 0.  1.
          1    1    1    2  501    0  0.61839024586E+02 -0.28564160628E+02  0.46391319309E+03  0.46888743527E+03  0.00000000000E+00 0.  1.
<mgrwt>
<rscale>  4 0.32469087E+03</rscale>
<asrwt>0</asrwt>
<pdfrwt beam="1">  1       21 0.77341628E-01 0.32469087E+03</pdfrwt>
<pdfrwt beam="2">  1        1 0.10659186E+00 0.32469087E+03</pdfrwt>
<totfact> 0.44262581E+02</totfact>
</mgrwt>
</event>
<event>
 5    0  0.3696258E+000  0.2902118E+03  0.7546771E-02  0.1090239E+00
         21   -1    0    0  501  502  0.00000000000E+00  0.00000000000E+00  0.46358034700E+03  0.46358034700E+03  0.00000000000E+00 0. -1.
          1   -1    0    0  503    0 -0.00000000000E+00 -0.00000000000E+00 -0.11082013783E+04  0.11082013783E+04  0.00000000000E+00 0. -1.
         25    1    1    2    0    0 -0.24775731062E+03  0.97752328170E+02  0.26905623971E+03  0.39869219048E+03  0.12500000000E+03 0.  0.
         21    1    1    2  503  502  0.24528287135E+03 -0.67336050998E+02  0.45076555079E+01  0.25439762126E+03  0.00000000000E+00 0. -1.
          1    1    1    2  501    0  0.24744392614E+01 -0.30416277172E+02 -0.91818492654E+03  0.91869191358E+03  0.00000000000E+00 0. -1.
<mgrwt>
<rscale>  4 0.29021177E+03</rscale>
<asrwt>0</asrwt>
<pdfrwt beam="1">  1       21 0.71320053E-01 0.29021177E+03</pdfrwt>
<pdfrwt beam="2">  1        1 0.17049252E+00 0.29021177E+03</pdfrwt>
<totfact> 0.25085333E+02</totfact>
</mgrwt>
</event>
<event>
 5    0  0.3696258E+000  0.3508191E+03  0.7546771E-02  0.1062279E+00
          2   -1    0    0  503    0 -0.00000000000E+00  0.00000000000E+00  0.17486338735E+04  0.17486338735E+04  0.00000000000E+00 0. -1.
         21   -1    0    0  501  502  0.00000000000E+00 -0.00000000000E+00 -0.50044535469E+03  0.50044535469E+03  0.00000000000E+00 0.  1.
         25    1    1    2    0    0 -0.18801587673E+03 -0.15441524180E+03 -0.33201938678E+03  0.43018125250E+03  0.12500000000E+03 0.  0.
         21    1    1    2  503  502 -0.14615774113E+03  0.15472774070E+03  0.95227177386E+01  0.21305736595E+03  0.00000000000E+00 0. -1.
          2    1    1    2  501    0  0.33417361785E+03 -0.31249889926E+00  0.15706851879E+04  0.16058406098E+04  0.00000000000E+00 0. -1.
<mgrwt>
<rscale>  4 0.35081906E+03</rscale>
<asrwt>0</asrwt>
<pdfrwt beam="1">  1       21 0.76991594E-01 0.35081906E+03</pdfrwt>
<pdfrwt beam="2">  1        2 0.26902059E+00 0.35081906E+03</pdfrwt>
<totfact> 0.17574973E+02</totfact>
</mgrwt>
</event>
<event>
 5    0  0.3696258E+000  0.1766366E+03  0.7546771E-02  0.1171098E+00
         21   -1    0    0  501  502  0.00000000000E+00  0.00000000000E+00  0.28127927170E+03  0.28127927170E+03  0.00000000000E+00 0. -1.
          2   -1    0    0  503    0 -0.00000000000E+00 -0.00000000000E+00 -0.55325717398E+03  0.55325717398E+03  0.00000000000E+00 0. -1.
         25    1    1    2    0    0  0.19126793198E+03  0.96699812550E+02 -0.12235786832E+03  0.27664186865E+03  0.12500000000E+03 0.  0.
         21    1    1    2  503  502 -0.98504522185E+02 -0.63278161432E+02  0.17950837008E+03  0.21431407218E+03  0.00000000000E+00 0. -1.
          2    1    1    2  501    0 -0.92763409795E+02 -0.33421651118E+02 -0.32912840405E+03  0.34358050485E+03  0.00000000000E+00 0. -1.
<mgrwt>
<rscale>  4 0.17663664E+03</rscale>
<asrwt>0</asrwt>
<pdfrwt beam="1">  1       21 0.43273734E-01 0.17663664E+03</pdfrwt>
<pdfrwt beam="2">  1        2 0.85116489E-01 0.17663664E+03</pdfrwt>
<totfact> 0.35945459E+03</totfact>
</mgrwt>
</event>
<event>
 5    0  0.3696258E+000  0.2970025E+03  0.7546771E-02  0.1086749E+00
          1   -1    0    0  503    0 -0.00000000000E+00  0.00000000000E+00  0.12586880069E+04  0.12586880069E+04  0.00000000000E+00 0. -1.
         21   -1    0    0  501  502  0.00000000000E+00 -0.00000000000E+00 -0.24101767667E+03  0.24101767667E+03  0.00000000000E+00 0.  1.
         25    1    1    2    0    0 -0.24607740572E+03 -0.69363011687E+01 -0.68824715644E+01  0.27617851165E+03  0.12500000000E+03 0.  0.
         21    1    1    2  503  502  0.42340599628E+03 -0.10056177638E+03  0.83951429708E+03  0.94560539527E+03  0.00000000000E+00 0. -1.
          1    1    1    2  501    0 -0.17732859056E+03  0.10749807755E+03  0.18503850466E+03  0.27792177661E+03  0.00000000000E+00 0. -1.
<mgrwt>
<rscale>  4 0.29700250E+03</rscale>
<asrwt>0</asrwt>
<pdfrwt beam="1">  1       21 0.37079643E-01 0.29700250E+03</pdfrwt>
<pdfrwt beam="2">  1        1 0.19364430E+00 0.29700250E+03</pdfrwt>
<totfact> 0.78343526E+02</totfact>
</mgrwt>
</event>
