<event>
 5    0  0.1257040E+001  0.3339089E+03  0.7546771E-02  0.1069420E+00
         21   -1    0    0  504  501  0.00000000000E+00  0.00000000000E+00  0.55911933665E+03  0.55911933665E+03  0.00000000000E+00 0. -1.
         21   -1    0    0  501  502 -0.00000000000E+00 -0.00000000000E+00 -0.33178733504E+03  0.33178733504E+03  0.00000000000E+00 0. -1.
         25    1    1    2    0    0 -0.29158614956E+03 -0.20956364439E+03  0.22911604116E+03  0.44391278871E+03  0.12500000000E+03 0.  0.
         21    1    1    2  503  502  0.93661258068E+02 -0.10334793450E+02  0.96854697291E+02  0.13512983241E+03  0.00000000000E+00 0. -1.
         21    1    1    2  504  503  0.19792489149E+03  0.21989843784E+03 -0.98638736835E+02  0.31186405057E+03  0.00000000000E+00 0. -1.
<mgrwt>
<rscale>  4 0.33390888E+03</rscale>
<asrwt>0</asrwt>
<pdfrwt beam="1">  1       21 0.86018360E-01 0.33390888E+03</pdfrwt>
<pdfrwt beam="2">  1       21 0.51044205E-01 0.33390888E+03</pdfrwt>
<totfact> 0.38974179E+03</totfact>
</mgrwt>
</event>
<event>
 5    0  0.1257040E+001  0.2336559E+03  0.7546771E-02  0.1124093E+00
         21   -1    0    0  503  501  0.00000000000E+00  0.00000000000E+00  0.12464106449E+03  0.12464106449E+03  0.00000000000E+00 0.  1.
         21   -1    0    0  504  502 -0.00000000000E+00 -0.00000000000E+00 -0.48850804984E+03  0.48850804984E+03  0.00000000000E+00 0.  1.
         25    1    1    2    0    0 -0.95375516866E+02 -0.19188698374E+03 -0.26637410013E+03  0.36400173759E+03  0.12500000000E+03 0.  0.
         21    1    1    2  503  502  0.42064383927E+01  0.24338639575E+02 -0.44962065530E+02  0.51299618293E+02  0.00000000000E+00 0.  1.
         21    1    1    2  504  501  0.91169078473E+02  0.16754834417E+03 -0.52530819693E+02  0.19784775844E+03  0.00000000000E+00 0.  1.
<mgrwt>
<rscale>  4 0.23365594E+03</rscale>
<asrwt>0</asrwt>
<pdfrwt beam="1">  1       21 0.19175548E-01 0.23365594E+03</pdfrwt>
<pdfrwt beam="2">  1       21 0.75155084E-01 0.23365594E+03</pdfrwt>
<totfact> 0.38715530E+04</totfact>
</mgrwt>
</event>
<event>
 5    0  0.1257040E+001  0.2341444E+03  0.7546771E-02  0.1123756E+00
         21   -1    0    0  502  501  0.00000000000E+00  0.00000000000E+00  0.17249579815E+03  0.17249579815E+03  0.00000000000E+00 0. -1.
         21   -1    0    0  504  502 -0.00000000000E+00 -0.00000000000E+00 -0.32589513551E+03  0.32589513551E+03  0.00000000000E+00 0. -1.
         25    1    1    2    0    0 -0.13958684208E+03 -0.14885614431E+03 -0.30426026225E+02  0.24123304345E+03  0.12500000000E+03 0.  0.
         21    1    1    2  503  501  0.14660360349E+03  0.12420297652E+03 -0.82179485675E+02  0.20897957747E+03  0.00000000000E+00 0. -1.
         21    1    1    2  504  503 -0.70167614059E+01  0.24653167788E+02 -0.40793825461E+02  0.48178312739E+02  0.00000000000E+00 0.  1.
<mgrwt>
<rscale>  4 0.23414438E+03</rscale>
<asrwt>0</asrwt>
<pdfrwt beam="1">  1       21 0.26537816E-01 0.23414438E+03</pdfrwt>
<pdfrwt beam="2">  1       21 0.50137712E-01 0.23414438E+03</pdfrwt>
<totfact> 0.50218364E+04</totfact>
</mgrwt>
</event>
<event>
 5    0  0.1257040E+001  0.2944319E+03  0.7546771E-02  0.1088058E+00
         21   -1    0    0  504  501  0.00000000000E+00  0.00000000000E+00  0.86177719213E+03  0.86177719213E+03  0.00000000000E+00 0. -1.
         21   -1    0    0  503  502 -0.00000000000E+00 -0.00000000000E+00 -0.17680021865E+03  0.17680021865E+03  0.00000000000E+00 0. -1.
         25    1    1    2    0    0  0.21128257850E+03  0.16998131784E+03  0.14899684411E+02  0.29896651483E+03  0.12500000000E+03 0.  0.
         21    1    1    2  503  501 -0.21479232708E+03 -0.13515858674E+03  0.44879491211E+03  0.51557779285E+03  0.00000000000E+00 0. -1.
         21    1    1    2  504  502  0.35097485798E+01 -0.34822731097E+02  0.22128237695E+03  0.22403310310E+03  0.00000000000E+00 0. -1.
<mgrwt>
<rscale>  4 0.29443187E+03</rscale>
<asrwt>0</asrwt>
<pdfrwt beam="1">  1       21 0.13258110E+00 0.29443187E+03</pdfrwt>
<pdfrwt beam="2">  1       21 0.27200034E-01 0.29443187E+03</pdfrwt>
<totfact> 0.49479727E+03</totfact>
</mgrwt>
</event>
<event>
 5    0  0.1257040E+001  0.2000354E+03  0.7546771E-02  0.1149709E+00
         21   -1    0    0  503  501  0.00000000000E+00  0.00000000000E+00  0.30370825922E+03  0.30370825922E+03  0.00000000000E+00 0. -1.
         21   -1    0    0  504  502 -0.00000000000E+00 -0.00000000000E+00 -0.31384017598E+03  0.31384017598E+03  0.00000000000E+00 0. -1.
         25    1    1    2    0    0  0.21456252794E+03 -0.77030871279E+02  0.82763342453E+02  0.27284721802E+03  0.12500000000E+03 0.  0.
         21    1    1    2  503  502 -0.91384907658E+02  0.40546491924E+02 -0.16828819569E+03  0.19574507954E+03  0.00000000000E+00 0. -1.
         21    1    1    2  504  501 -0.12317762028E+03  0.36484379355E+02  0.75392936476E+02  0.14895613766E+03  0.00000000000E+00 0. -1.
<mgrwt>
<rscale>  4 0.20003542E+03</rscale>
<asrwt>0</asrwt>
<pdfrwt beam="1">  1       21 0.46724348E-01 0.20003542E+03</pdfrwt>
<pdfrwt beam="2">  1       21 0.48283104E-01 0.20003542E+03</pdfrwt>
<totfact> 0.17888980E+04</totfact>
</mgrwt>
</event>
<event>
 5    0  0.1257040E+001  0.2229913E+03  0.7546771E-02  0.1131672E+00
         21   -1    0    0  504  501  0.00000000000E+00  0.00000000000E+00  0.14990318568E+03  0.14990318568E+03  0.00000000000E+00 0. -1.
         21   -1    0    0  503  502 -0.00000000000E+00 -0.00000000000E+00 -0.22800254189E+04  0.22800254189E+04  0.00000000000E+00 0.  1.
         25    1    1    2    0    0 -0.14987063358E+03  0.17071945021E+03 -0.19448005755E+04  0.19620093312E+04  0.12500000000E+03 0.  0.
         21    1    1    2  503  501  0.14817625942E+02 -0.46659491631E+02 -0.26390403097E+03  0.26840642272E+03  0.00000000000E+00 0.  1.
         21    1    1    2  504  502  0.13505300764E+03 -0.12405995858E+03  0.78582373201E+02  0.19951285065E+03  0.00000000000E+00 0. -1.
<mgrwt>
<rscale>  4 0.22299128E+03</rscale>
<asrwt>0</asrwt>
<pdfrwt beam="1">  1       21 0.23062028E-01 0.22299128E+03</pdfrwt>
<pdfrwt beam="2">  1       21 0.35077315E+00 0.22299128E+03</pdfrwt>
<totfact> 0.29190162E+02</totfact>
</mgrwt>
</event>
<event>
 5    0  0.1257040E+001  0.2920428E+03  0.7546771E-02  0.1089287E+00
         21   -1    0    0  503  501  0.00000000000E+00  0.00000000000E+00  0.77618006592E+03  0.77618006592E+03  0.00000000000E+00 0. -1.
         21   -1    0    0  504  502 -0.00000000000E+00 -0.00000000000E+00 -0.19242979731E+03  0.19242979731E+03  0.00000000000E+00 0. -1.
         25    1    1    2    0    0 -0.97463295663E+02 -0.22921974379E+03  0.39480303795E+03  0.48325482276E+03  0.12500000000E+03 0.  0.
         21    1    1    2  503  502  0.88300777550E+02  0.25323560205E+03 -0.25476375900E+02  0.26939625682E+03  0.00000000000E+00 0. -1.
         21    1    1    2  504  501  0.91625181129E+01 -0.24015858259E+02  0.21442360656E+03  0.21595878365E+03  0.00000000000E+00 0. -1.
<mgrwt>
<rscale>  4 0.29204276E+03</rscale>
<asrwt>0</asrwt>
<pdfrwt beam="1">  1       21 0.11941232E+00 0.29204276E+03</pdfrwt>
<pdfrwt beam="2">  1       21 0.29604585E-01 0.29204276E+03</pdfrwt>
<totfact> 0.54761872E+03</totfact>
</mgrwt>
</event>
<event>
 5    0  0.1257040E+001  0.2296988E+03  0.7546771E-02  0.1126852E+00
         21   -1    0    0  502  501  0.00000000000E+00  0.00000000000E+00  0.43658042228E+03  0.43658042228E+03  0.00000000000E+00 0. -1.
         21   -1    0    0  504  502 -0.00000000000E+00 -0.00000000000E+00 -0.45925932938E+03  0.45925932938E+03  0.00000000000E+00 0. -1.
         25    1    1    2    0    0  0.13202405180E+03 -0.23153395009E+03 -0.77915514192E+02  0.30452281959E+03  0.12500000000E+03 0.  0.
         21    1    1    2  503  501  0.15516074884E+01  0.11692904805E+03  0.28140517084E+03  0.30473542613E+03  0.00000000000E+00 0. -1.
         21    1    1    2  504  503 -0.13357565929E+03  0.11460490204E+03 -0.22616856374E+03  0.28658150594E+03  0.00000000000E+00 0. -1.
<mgrwt>
<rscale>  4 0.22969882E+03</rscale>
<asrwt>0</asrwt>
<pdfrwt beam="1">  1       21 0.67166218E-01 0.22969882E+03</pdfrwt>
<pdfrwt beam="2">  1       21 0.70655282E-01 0.22969882E+03</pdfrwt>
<totfact> 0.35784077E+03</totfact>
</mgrwt>
</event>
<event>
 5    0  0.1257040E+001  0.2905812E+03  0.7546771E-02  0.1090046E+00
         21   -1    0    0  502  501  0.00000000000E+00  0.00000000000E+00  0.19722313169E+03  0.19722313169E+03  0.00000000000E+00 0. -1.
         21   -1    0    0  504  502 -0.00000000000E+00 -0.00000000000E+00 -0.63743383051E+03  0.63743383051E+03  0.00000000000E+00 0. -1.
         25    1    1    2    0    0 -0.25130352968E+03  0.75226256831E+02  0.21729463303E+02  0.29139255880E+03  0.12500000000E+03 0.  0.
         21    1    1    2  503  501  0.17671883808E+03 -0.82962126817E+02 -0.40332486096E+03  0.44808839048E+03  0.00000000000E+00 0. -1.
         21    1    1    2  504  503  0.74584691605E+02  0.77358699858E+01 -0.58615301161E+02  0.95176012925E+02  0.00000000000E+00 0. -1.
<mgrwt>
<rscale>  4 0.29058123E+03</rscale>
<asrwt>0</asrwt>
<pdfrwt beam="1">  1       21 0.30342020E-01 0.29058123E+03</pdfrwt>
<pdfrwt beam="2">  1       21 0.98066745E-01 0.29058123E+03</pdfrwt>
<totfact> 0.84477690E+03</totfact>
</mgrwt>
</event>
<event>
 5    0  0.1257040E+001  0.2260901E+03  0.7546771E-02  0.1129422E+00
         21   -1    0    0  504  501  0.00000000000E+00  0.00000000000E+00  0.75940585078E+02  0.75940585078E+02  0.00000000000E+00 0. -1.
         21   -1    0    0  503  502 -0.00000000000E+00 -0.00000000000E+00 -0.17703626153E+04  0.17703626153E+04  0.00000000000E+00 0. -1.
         25    1    1    2    0    0  0.12202227985E+03 -0.17233194176E+03 -0.22206855477E+03  0.33094890534E+03  0.12500000000E+03 0.  0.
         21    1    1    2  503  501 -0.10578340465E+03  0.15293752103E+03 -0.14778212294E+04  0.14894749411E+04  0.00000000000E+00 0. -1.
         21    1    1    2  504  502 -0.16238875203E+02  0.19394420723E+02  0.54677540255E+01  0.25879353878E+02  0.00000000000E+00 0.  1.
<mgrwt>
<rscale>  4 0.22609007E+03</rscale>
<asrwt>0</asrwt>
<pdfrwt beam="1">  1       21 0.11683168E-01 0.22609007E+03</pdfrwt>
<pdfrwt beam="2">  1       21 0.27236345E+00 0.22609007E+03</pdfrwt>
<totfact> 0.29243174E+03</totfact>
</mgrwt>
</event>
<event>
 5    0  0.1257040E+001  0.1842718E+03  0.7546771E-02  0.1163732E+00
         21   -1    0    0  503  501  0.00000000000E+00  0.00000000000E+00  0.10817597370E+03  0.10817597370E+03  0.00000000000E+00 0.  1.
         21   -1    0    0  504  502 -0.00000000000E+00 -0.00000000000E+00 -0.68089555593E+03  0.68089555593E+03  0.00000000000E+00 0.  1.
         25    1    1    2    0    0 -0.13724714784E+03  0.15299431738E+03 -0.23524208541E+03  0.33646378630E+03  0.12500000000E+03 0.  0.
         21    1    1    2  503  502  0.11888061486E+03 -0.34998882131E+02 -0.30445422648E+03  0.32870944368E+03  0.00000000000E+00 0.  1.
         21    1    1    2  504  501  0.18366532984E+02 -0.11799543525E+03 -0.33023270328E+02  0.12389829965E+03  0.00000000000E+00 0.  1.
<mgrwt>
<rscale>  4 0.18427178E+03</rscale>
<asrwt>0</asrwt>
<pdfrwt beam="1">  1       21 0.16642457E-01 0.18427178E+03</pdfrwt>
<pdfrwt beam="2">  1       21 0.10475316E+00 0.18427178E+03</pdfrwt>
<totfact> 0.23954645E+04</totfact>
</mgrwt>
</event>
<event>
 5    0  0.1257040E+001  0.2532054E+03  0.7546771E-02  0.1111296E+00
         21   -1    0    0  504  501  0.00000000000E+00  0.00000000000E+00  0.17914940828E+03  0.17914940828E+03  0.00000000000E+00 0. -1.
         21   -1    0    0  503  502 -0.00000000000E+00 -0.00000000000E+00 -0.44565318343E+03  0.44565318343E+03  0.00000000000E+00 0. -1.
         25    1    1    2    0    0 -0.15577764003E+02  0.23693953703E+03 -0.10090736343E+03  0.28668851902E+03  0.12500000000E+03 0.  0.
         21    1    1    2  503  501 -0.71093381763E+01 -0.29386719950E+02 -0.12086220789E+03  0.12458649724E+03  0.00000000000E+00 0. -1.
         21    1    1    2  504  502  0.22687102179E+02 -0.20755281708E+03 -0.44734203823E+02  0.21352757545E+03  0.00000000000E+00 0. -1.
<mgrwt>
<rscale>  4 0.25320536E+03</rscale>
<asrwt>0</asrwt>
<pdfrwt beam="1">  1       21 0.27561447E-01 0.25320536E+03</pdfrwt>
<pdfrwt beam="2">  1       21 0.68562029E-01 0.25320536E+03</pdfrwt>
<totfact> 0.23597044E+04</totfact>
</mgrwt>
</event>
<event>
 5    0  0.1257040E+001  0.2686201E+03  0.7546771E-02  0.1102072E+00
         21   -1    0    0  503  501  0.00000000000E+00  0.00000000000E+00  0.27048286764E+03  0.27048286764E+03  0.00000000000E+00 0.  1.
         21   -1    0    0  504  502 -0.00000000000E+00 -0.00000000000E+00 -0.82254438988E+03  0.82254438988E+03  0.00000000000E+00 0. -1.
         25    1    1    2    0    0  0.36576801028E+02  0.24167933198E+03  0.14623128741E+03  0.31105522227E+03  0.12500000000E+03 0.  0.
         21    1    1    2  503  502 -0.56235909427E+02 -0.23051968034E+03 -0.71533523098E+03  0.75366192236E+03  0.00000000000E+00 0. -1.
         21    1    1    2  504  501  0.19659108399E+02 -0.11159651642E+02  0.17042421328E+02  0.28310112902E+02  0.00000000000E+00 0.  1.
<mgrwt>
<rscale>  4 0.26862007E+03</rscale>
<asrwt>0</asrwt>
<pdfrwt beam="1">  1       21 0.41612750E-01 0.26862007E+03</pdfrwt>
<pdfrwt beam="2">  1       21 0.12654529E+00 0.26862007E+03</pdfrwt>
<totfact> 0.24239046E+03</totfact>
</mgrwt>
</event>
<event>
 5    0  0.1257040E+001  0.2437941E+03  0.7546771E-02  0.1117291E+00
         21   -1    0    0  502  501  0.00000000000E+00  0.00000000000E+00  0.25883386707E+03  0.25883386707E+03  0.00000000000E+00 0. -1.
         21   -1    0    0  504  502 -0.00000000000E+00 -0.00000000000E+00 -0.34285153546E+03  0.34285153546E+03  0.00000000000E+00 0. -1.
         25    1    1    2    0    0 -0.21232471423E+03  0.89530134892E+02  0.10795295776E+03  0.28350709059E+03  0.12500000000E+03 0.  0.
         21    1    1    2  503  501  0.27652850190E+02 -0.10994026312E+01  0.11084592895E+02  0.29812027933E+02  0.00000000000E+00 0. -1.
         21    1    1    2  504  503  0.18467186404E+03 -0.88430732260E+02 -0.20305521904E+03  0.28836628401E+03  0.00000000000E+00 0. -1.
<mgrwt>
<rscale>  4 0.24379406E+03</rscale>
<asrwt>0</asrwt>
<pdfrwt beam="1">  1       21 0.39820595E-01 0.24379406E+03</pdfrwt>
<pdfrwt beam="2">  1       21 0.52746390E-01 0.24379406E+03</pdfrwt>
<totfact> 0.20132317E+04</totfact>
</mgrwt>
</event>
<event>
 5    0  0.1257040E+001  0.2496425E+03  0.7546771E-02  0.1113531E+00
         21   -1    0    0  503  501  0.00000000000E+00  0.00000000000E+00  0.69377581682E+02  0.69377581682E+02  0.00000000000E+00 0.  1.
         21   -1    0    0  504  502 -0.00000000000E+00 -0.00000000000E+00 -0.12735993553E+04  0.12735993553E+04  0.00000000000E+00 0.  1.
         25    1    1    2    0    0  0.21204103029E+03  0.24467099422E+02 -0.71786400616E+03  0.75928503792E+03  0.12500000000E+03 0.  0.
         21    1    1    2  503  502 -0.21984735908E+03  0.13774094097E+01 -0.50506875952E+03  0.55084408901E+03  0.00000000000E+00 0.  1.
         21    1    1    2  504  501  0.78063287957E+01 -0.25844508832E+02  0.18710992012E+02  0.32847810096E+02  0.00000000000E+00 0. -1.
<mgrwt>
<rscale>  4 0.24964245E+03</rscale>
<asrwt>0</asrwt>
<pdfrwt beam="1">  1       21 0.10673474E-01 0.24964245E+03</pdfrwt>
<pdfrwt beam="2">  1       21 0.19593836E+00 0.24964245E+03</pdfrwt>
<totfact> 0.98795896E+03</totfact>
</mgrwt>
</event>
<event>
 5    0  0.1257040E+001  0.2560566E+03  0.7546771E-02  0.1109536E+00
         21   -1    0    0  502  501  0.00000000000E+00  0.00000000000E+00  0.15596044279E+03  0.15596044279E+03  0.00000000000E+00 0. -1.
         21   -1    0    0  504  502 -0.00000000000E+00 -0.00000000000E+00 -0.11315967874E+04  0.11315967874E+04  0.00000000000E+00 0. -1.
         25    1    1    2    0    0 -0.76751042102E+02  0.24184211945E+03 -0.17099879730E+02  0.28336502800E+03  0.12500000000E+03 0.  0.
         21    1    1    2  503  501 -0.92794208165E+01 -0.38675174778E+02 -0.30040633862E+02  0.49842918029E+02  0.00000000000E+00 0.  1.
         21    1    1    2  504  503  0.86030462919E+02 -0.20316694467E+03 -0.92849583107E+03  0.95434928421E+03  0.00000000000E+00 0. -1.
<mgrwt>
<rscale>  4 0.25605656E+03</rscale>
<asrwt>0</asrwt>
<pdfrwt beam="1">  1       21 0.23993914E-01 0.25605656E+03</pdfrwt>
<pdfrwt beam="2">  1       21 0.17409181E+00 0.25605656E+03</pdfrwt>
<totfact> 0.31053221E+03</totfact>
</mgrwt>
</event>
<event>
 5    0  0.1257040E+001  0.2712517E+03  0.7546771E-02  0.1100565E+00
         21   -1    0    0  503  501  0.00000000000E+00  0.00000000000E+00  0.98317595342E+03  0.98317595342E+03  0.00000000000E+00 0.  1.
         21   -1    0    0  501  502 -0.00000000000E+00 -0.00000000000E+00 -0.79426994861E+02  0.79426994861E+02  0.00000000000E+00 0. -1.
         25    1    1    2    0    0 -0.35535103986E+02  0.23809606052E+03  0.27294973773E+03  0.38481039094E+03  0.12500000000E+03 0.  0.
         21    1    1    2  503  504  0.11810752725E+02 -0.18732140570E+02  0.26866623836E+02  0.34816697813E+02  0.00000000000E+00 0.  1.
         21    1    1    2  504  502  0.23724351261E+02 -0.21936391995E+03  0.60393259700E+03  0.64297585953E+03  0.00000000000E+00 0.  1.
<mgrwt>
<rscale>  4 0.27125169E+03</rscale>
<asrwt>0</asrwt>
<pdfrwt beam="1">  1       21 0.15125783E+00 0.27125169E+03</pdfrwt>
<pdfrwt beam="2">  1       21 0.12219538E-01 0.27125169E+03</pdfrwt>
<totfact> 0.15833385E+04</totfact>
</mgrwt>
</event>
<event>
 5    0  0.1257040E+001  0.3173869E+03  0.7546771E-02  0.1076858E+00
         21   -1    0    0  503  501  0.00000000000E+00  0.00000000000E+00  0.64148308145E+03  0.64148308145E+03  0.00000000000E+00 0.  1.
         21   -1    0    0  504  502 -0.00000000000E+00 -0.00000000000E+00 -0.68472116418E+03  0.68472116418E+03  0.00000000000E+00 0.  1.
         25    1    1    2    0    0  0.24935423742E+03 -0.21201912710E+03  0.48551835328E+03  0.59873426272E+03  0.12500000000E+03 0.  0.
         21    1    1    2  503  502 -0.25443105163E+03  0.13889448357E+03 -0.57278863381E+03  0.64196079057E+03  0.00000000000E+00 0.  1.
         21    1    1    2  504  501  0.50768142072E+01  0.73124643525E+02  0.44032197790E+02  0.85509192345E+02  0.00000000000E+00 0. -1.
<mgrwt>
<rscale>  4 0.31738689E+03</rscale>
<asrwt>0</asrwt>
<pdfrwt beam="1">  1       21 0.98689705E-01 0.31738689E+03</pdfrwt>
<pdfrwt beam="2">  1       21 0.10534172E+00 0.31738689E+03</pdfrwt>
<totfact> 0.55237199E+02</totfact>
</mgrwt>
</event>
<event>
 5    0  0.1257040E+001  0.3579515E+03  0.7546771E-02  0.1059398E+00
         21   -1    0    0  503  501  0.00000000000E+00  0.00000000000E+00  0.89687281049E+03  0.89687281049E+03  0.00000000000E+00 0. -1.
         21   -1    0    0  501  502 -0.00000000000E+00 -0.00000000000E+00 -0.16614033603E+03  0.16614033603E+03  0.00000000000E+00 0. -1.
         25    1    1    2    0    0 -0.25434099854E+03  0.25230473352E+03  0.37647180351E+03  0.53451196519E+03  0.12500000000E+03 0.  0.
         21    1    1    2  503  504  0.24450939487E+02 -0.32179847223E+02 -0.13054703072E+02  0.42471358366E+02  0.00000000000E+00 0. -1.
         21    1    1    2  504  502  0.22989005906E+03 -0.22012488630E+03  0.36731537401E+03  0.48602982296E+03  0.00000000000E+00 0. -1.
<mgrwt>
<rscale>  4 0.35795152E+03</rscale>
<asrwt>0</asrwt>
<pdfrwt beam="1">  1       21 0.13798043E+00 0.35795152E+03</pdfrwt>
<pdfrwt beam="2">  1       21 0.25560052E-01 0.35795152E+03</pdfrwt>
<totfact> 0.48789727E+03</totfact>
</mgrwt>
</event>
<event>
 5    0  0.1257040E+001  0.2695706E+03  0.7546771E-02  0.1101526E+00
         21   -1    0    0  502  501  0.00000000000E+00  0.00000000000E+00  0.64034057613E+03  0.64034057613E+03  0.00000000000E+00 0. -1.
         21   -1    0    0  504  502 -0.00000000000E+00 -0.00000000000E+00 -0.14863706174E+03  0.14863706174E+03  0.00000000000E+00 0. -1.
         25    1    1    2    0    0 -0.56615710410E+02  0.24615093000E+03  0.35502982280E+03  0.45328445162E+03  0.12500000000E+03 0.  0.
         21    1    1    2  503  501 -0.18271326097E+02 -0.24092765738E+02  0.92374184382E+02  0.97197184416E+02  0.00000000000E+00 0.  1.
         21    1    1    2  504  503  0.74887036507E+02 -0.22205816426E+03  0.44299507197E+02  0.23849600183E+03  0.00000000000E+00 0. -1.
<mgrwt>
<rscale>  4 0.26957056E+03</rscale>
<asrwt>0</asrwt>
<pdfrwt beam="1">  1       21 0.98513933E-01 0.26957056E+03</pdfrwt>
<pdfrwt beam="2">  1       21 0.22867241E-01 0.26957056E+03</pdfrwt>
<totfact> 0.14604807E+04</totfact>
</mgrwt>
</event>
<event>
 5    0  0.1257040E+001  0.2847108E+03  0.7546771E-02  0.1093143E+00
         21   -1    0    0  504  501  0.00000000000E+00  0.00000000000E+00  0.34892400232E+03  0.34892400232E+03  0.00000000000E+00 0.  1.
         21   -1    0    0  503  502 -0.00000000000E+00 -0.00000000000E+00 -0.17742645898E+04  0.17742645898E+04  0.00000000000E+00 0.  1.
         25    1    1    2    0    0  0.26678263958E+03 -0.14682658493E+03 -0.14492596818E+04  0.14861728191E+04  0.12500000000E+03 0.  0.
         21    1    1    2  503  501 -0.18292222123E+03  0.29686282942E+02 -0.25962164545E+03  0.31897525484E+03  0.00000000000E+00 0.  1.
         21    1    1    2  504  502 -0.83860418353E+02  0.11714030199E+03  0.28354073977E+03  0.31804051821E+03  0.00000000000E+00 0.  1.
<mgrwt>
<rscale>  4 0.28471078E+03</rscale>
<asrwt>0</asrwt>
<pdfrwt beam="1">  1       21 0.53680615E-01 0.28471078E+03</pdfrwt>
<pdfrwt beam="2">  1       21 0.27296378E+00 0.28471078E+03</pdfrwt>
<totfact> 0.14298401E+02</totfact>
</mgrwt>
</event>
<event>
 5    0  0.1257040E+001  0.2547964E+03  0.7546771E-02  0.1110311E+00
         21   -1    0    0  502  501  0.00000000000E+00  0.00000000000E+00  0.63419490640E+03  0.63419490640E+03  0.00000000000E+00 0. -1.
         21   -1    0    0  504  502 -0.00000000000E+00 -0.00000000000E+00 -0.14398989677E+03  0.14398989677E+03  0.00000000000E+00 0. -1.
         25    1    1    2    0    0  0.18999772479E+03  0.78958142344E+02  0.41373706963E+03  0.47868244845E+03  0.12500000000E+03 0.  0.
         21    1    1    2  503  501  0.23824154373E+02 -0.46247489479E+01  0.68847815450E+02  0.73000002238E+02  0.00000000000E+00 0. -1.
         21    1    1    2  504  503 -0.21382187916E+03 -0.74333393396E+02  0.76201245438E+01  0.22650235248E+03  0.00000000000E+00 0. -1.
<mgrwt>
<rscale>  4 0.25479642E+03</rscale>
<asrwt>0</asrwt>
<pdfrwt beam="1">  1       21 0.97568445E-01 0.25479642E+03</pdfrwt>
<pdfrwt beam="2">  1       21 0.22152292E-01 0.25479642E+03</pdfrwt>
<totfact> 0.15991805E+04</totfact>
</mgrwt>
</event>
<event>
 5    0  0.1257040E+001  0.2405101E+03  0.7546771E-02  0.1119453E+00
         21   -1    0    0  502  501  0.00000000000E+00  0.00000000000E+00  0.58687723055E+03  0.58687723055E+03  0.00000000000E+00 0.  1.
         21   -1    0    0  504  502 -0.00000000000E+00 -0.00000000000E+00 -0.11333054721E+03  0.11333054721E+03  0.00000000000E+00 0.  1.
         25    1    1    2    0    0  0.19550581744E+03  0.10918792735E+03  0.31745776349E+03  0.40810410404E+03  0.12500000000E+03 0.  0.
         21    1    1    2  503  501 -0.29276907136E+02 -0.17051441930E+01  0.70662057283E+02  0.76506020336E+02  0.00000000000E+00 0. -1.
         21    1    1    2  504  503 -0.16622891031E+03 -0.10748278316E+03  0.85426862574E+02  0.21559765339E+03  0.00000000000E+00 0.  1.
<mgrwt>
<rscale>  4 0.24051013E+03</rscale>
<asrwt>0</asrwt>
<pdfrwt beam="1">  1       21 0.90288803E-01 0.24051013E+03</pdfrwt>
<pdfrwt beam="2">  1       21 0.17435469E-01 0.24051013E+03</pdfrwt>
<totfact> 0.30282142E+04</totfact>
</mgrwt>
</event>
<event>
 5    0  0.1257040E+001  0.1978953E+03  0.7546771E-02  0.1151527E+00
         21   -1    0    0  503  501  0.00000000000E+00  0.00000000000E+00  0.12874942119E+04  0.12874942119E+04  0.00000000000E+00 0. -1.
         21   -1    0    0  504  502 -0.00000000000E+00 -0.00000000000E+00 -0.19995875058E+03  0.19995875058E+03  0.00000000000E+00 0. -1.
         25    1    1    2    0    0 -0.22801654294E+03  0.14114294831E+02  0.91087447580E+03  0.94736902411E+03  0.12500000000E+03 0.  0.
         21    1    1    2  503  502  0.14764152931E+03 -0.31169615132E+02 -0.14429146197E+03  0.20878120625E+03  0.00000000000E+00 0. -1.
         21    1    1    2  504  501  0.80375013632E+02  0.17055320301E+02  0.32095244745E+03  0.33130273209E+03  0.00000000000E+00 0. -1.
<mgrwt>
<rscale>  4 0.19789526E+03</rscale>
<asrwt>0</asrwt>
<pdfrwt beam="1">  1       21 0.19807603E+00 0.19789526E+03</pdfrwt>
<pdfrwt beam="2">  1       21 0.30762886E-01 0.19789526E+03</pdfrwt>
<totfact> 0.13938811E+03</totfact>
</mgrwt>
</event>
<event>
 5    0  0.1257040E+001  0.2201518E+03  0.7546771E-02  0.1133770E+00
         21   -1    0    0  503  501  0.00000000000E+00  0.00000000000E+00  0.15386466648E+03  0.15386466648E+03  0.00000000000E+00 0. -1.
         21   -1    0    0  504  502 -0.00000000000E+00 -0.00000000000E+00 -0.77669584996E+03  0.77669584996E+03  0.00000000000E+00 0. -1.
         25    1    1    2    0    0  0.22281596250E+03 -0.42969539538E+02 -0.51509678261E+03  0.57657872830E+03  0.12500000000E+03 0.  0.
         21    1    1    2  503  502 -0.64532558174E+02 -0.34928884715E+02 -0.15487443605E+03  0.17137843795E+03  0.00000000000E+00 0. -1.
         21    1    1    2  504  501 -0.15828340433E+03  0.77898424253E+02  0.47140035174E+02  0.18260335020E+03  0.00000000000E+00 0. -1.
<mgrwt>
<rscale>  4 0.22015183E+03</rscale>
<asrwt>0</asrwt>
<pdfrwt beam="1">  1       21 0.23671487E-01 0.22015183E+03</pdfrwt>
<pdfrwt beam="2">  1       21 0.11949167E+00 0.22015183E+03</pdfrwt>
<totfact> 0.87952997E+03</totfact>
</mgrwt>
</event>
<event>
 5    0  0.1257040E+001  0.3344063E+03  0.7546771E-02  0.1069204E+00
         21   -1    0    0  504  501  0.00000000000E+00  0.00000000000E+00  0.26945084472E+03  0.26945084472E+03  0.00000000000E+00 0. -1.
         21   -1    0    0  503  502 -0.00000000000E+00 -0.00000000000E+00 -0.41177871192E+03  0.41177871192E+03  0.00000000000E+00 0. -1.
         25    1    1    2    0    0 -0.11348696117E+03 -0.28865770849E+03 -0.13840982726E+03  0.36191828264E+03  0.12500000000E+03 0.  0.
         21    1    1    2  503  501 -0.95381636599E+00  0.52150495464E+02 -0.20512371085E+02  0.56047669982E+02  0.00000000000E+00 0.  1.
         21    1    1    2  504  502  0.11444077754E+03  0.23650721303E+03  0.16594331149E+02  0.26326360402E+03  0.00000000000E+00 0. -1.
<mgrwt>
<rscale>  4 0.33440628E+03</rscale>
<asrwt>0</asrwt>
<pdfrwt beam="1">  1       21 0.41453976E-01 0.33440628E+03</pdfrwt>
<pdfrwt beam="2">  1       21 0.63350571E-01 0.33440628E+03</pdfrwt>
<totfact> 0.12009994E+04</totfact>
</mgrwt>
</event>
<event>
 5    0  0.1257040E+001  0.2053448E+03  0.7546771E-02  0.1145306E+00
         21   -1    0    0  504  501  0.00000000000E+00  0.00000000000E+00  0.15403749308E+03  0.15403749308E+03  0.00000000000E+00 0.  1.
         21   -1    0    0  501  502 -0.00000000000E+00 -0.00000000000E+00 -0.85961257824E+03  0.85961257824E+03  0.00000000000E+00 0. -1.
         25    1    1    2    0    0 -0.15189383906E+03 -0.15778175878E+03 -0.56413315314E+03  0.61793044610E+03  0.12500000000E+03 0.  0.
         21    1    1    2  503  502  0.97899933955E+02  0.12420933056E+03  0.71444519797E+02  0.17354156354E+03  0.00000000000E+00 0.  1.
         21    1    1    2  504  503  0.53993905110E+02  0.33572428223E+02 -0.21288645181E+03  0.22217806168E+03  0.00000000000E+00 0.  1.
<mgrwt>
<rscale>  4 0.20534484E+03</rscale>
<asrwt>0</asrwt>
<pdfrwt beam="1">  1       21 0.23698076E-01 0.20534484E+03</pdfrwt>
<pdfrwt beam="2">  1       21 0.13224809E+00 0.20534484E+03</pdfrwt>
<totfact> 0.68735752E+03</totfact>
</mgrwt>
</event>
<event>
 5    0  0.1257040E+001  0.2626871E+03  0.7546771E-02  0.1105539E+00
         21   -1    0    0  504  501  0.00000000000E+00  0.00000000000E+00  0.78597101108E+02  0.78597101108E+02  0.00000000000E+00 0. -1.
         21   -1    0    0  503  502 -0.00000000000E+00 -0.00000000000E+00 -0.27636966733E+04  0.27636966733E+04  0.00000000000E+00 0. -1.
         25    1    1    2    0    0 -0.23856108375E+03  0.13216267587E+03 -0.44888604005E+03  0.53990928916E+03  0.12500000000E+03 0.  0.
         21    1    1    2  503  501  0.21844018240E+02 -0.15639568317E+03 -0.18663707870E+04  0.18730394244E+04  0.00000000000E+00 0. -1.
         21    1    1    2  504  502  0.21671706551E+03  0.24233007301E+02 -0.36984274513E+03  0.42934506082E+03  0.00000000000E+00 0. -1.
<mgrwt>
<rscale>  4 0.26268714E+03</rscale>
<asrwt>0</asrwt>
<pdfrwt beam="1">  1       21 0.12091863E-01 0.26268714E+03</pdfrwt>
<pdfrwt beam="2">  1       21 0.42518406E+00 0.26268714E+03</pdfrwt>
<totfact> 0.31589722E+02</totfact>
</mgrwt>
</event>
<event>
 5    0  0.1257040E+001  0.2956977E+03  0.7546771E-02  0.1087411E+00
         21   -1    0    0  502  501  0.00000000000E+00  0.00000000000E+00  0.35984329302E+03  0.35984329302E+03  0.00000000000E+00 0.  1.
         21   -1    0    0  504  502 -0.00000000000E+00 -0.00000000000E+00 -0.33287307733E+03  0.33287307733E+03  0.00000000000E+00 0. -1.
         25    1    1    2    0    0 -0.17219803486E+03 -0.20532893323E+03  0.20981726920E+03  0.36257471022E+03  0.12500000000E+03 0.  0.
         21    1    1    2  503  501  0.13930014137E+03  0.17166822613E+03 -0.17600162866E+03  0.28257933848E+03  0.00000000000E+00 0. -1.
         21    1    1    2  504  503  0.32897893493E+02  0.33660707103E+02 -0.68454248613E+01  0.47562321647E+02  0.00000000000E+00 0. -1.
<mgrwt>
<rscale>  4 0.29569771E+03</rscale>
<asrwt>0</asrwt>
<pdfrwt beam="1">  1       21 0.55360507E-01 0.29569771E+03</pdfrwt>
<pdfrwt beam="2">  1       21 0.51211242E-01 0.29569771E+03</pdfrwt>
<totfact> 0.10523707E+04</totfact>
</mgrwt>
</event>
<event>
 5    0  0.1257040E+001  0.2856330E+03  0.7546771E-02  0.1092651E+00
         21   -1    0    0  503  501  0.00000000000E+00  0.00000000000E+00  0.31018836427E+03  0.31018836427E+03  0.00000000000E+00 0.  1.
         21   -1    0    0  504  502 -0.00000000000E+00 -0.00000000000E+00 -0.74060443473E+03  0.74060443473E+03  0.00000000000E+00 0. -1.
         25    1    1    2    0    0  0.24829736911E+03  0.16093426046E+02  0.14046515380E+03  0.31187504116E+03  0.12500000000E+03 0.  0.
         21    1    1    2  503  502 -0.25518729250E+03 -0.36661709178E+02 -0.62744091318E+03  0.67834116395E+03  0.00000000000E+00 0. -1.
         21    1    1    2  504  501  0.68899233926E+01  0.20568283132E+02  0.56559688926E+02  0.60576593886E+02  0.00000000000E+00 0. -1.
<mgrwt>
<rscale>  4 0.28563305E+03</rscale>
<asrwt>0</asrwt>
<pdfrwt beam="1">  1       21 0.47721287E-01 0.28563305E+03</pdfrwt>
<pdfrwt beam="2">  1       21 0.11393914E+00 0.28563305E+03</pdfrwt>
<totfact> 0.23484075E+03</totfact>
</mgrwt>
</event>
<event>
 5    0  0.1257040E+001  0.3167652E+03  0.7546771E-02  0.1077148E+00
         21   -1    0    0  502  501  0.00000000000E+00  0.00000000000E+00  0.70373292465E+03  0.70373292465E+03  0.00000000000E+00 0.  1.
         21   -1    0    0  504  502 -0.00000000000E+00 -0.00000000000E+00 -0.87976573816E+03  0.87976573816E+03  0.00000000000E+00 0. -1.
         25    1    1    2    0    0 -0.20721377138E+03  0.21186022046E+03  0.58844431901E+03  0.67060719996E+03  0.12500000000E+03 0.  0.
         21    1    1    2  503  501  0.22059275523E+02  0.12489705009E+02  0.45599099086E+02  0.52171660940E+02  0.00000000000E+00 0.  1.
         21    1    1    2  504  503  0.18515449586E+03 -0.22434992547E+03 -0.81007623161E+03  0.86071980191E+03  0.00000000000E+00 0. -1.
<mgrwt>
<rscale>  4 0.31676522E+03</rscale>
<asrwt>0</asrwt>
<pdfrwt beam="1">  1       21 0.10826660E+00 0.31676522E+03</pdfrwt>
<pdfrwt beam="2">  1       21 0.13534857E+00 0.31676522E+03</pdfrwt>
<totfact> 0.23524183E+02</totfact>
</mgrwt>
</event>
<event>
 5    0  0.1257040E+001  0.2678112E+03  0.7546771E-02  0.1102539E+00
         21   -1    0    0  503  501  0.00000000000E+00  0.00000000000E+00  0.11239250242E+03  0.11239250242E+03  0.00000000000E+00 0.  1.
         21   -1    0    0  504  502 -0.00000000000E+00 -0.00000000000E+00 -0.69880419509E+03  0.69880419509E+03  0.00000000000E+00 0. -1.
         25    1    1    2    0    0 -0.19405142238E+03  0.11823376845E+03 -0.27124465219E+03  0.37527834986E+03  0.12500000000E+03 0.  0.
         21    1    1    2  503  502 -0.20685729612E+02 -0.14484861135E+01 -0.12367825207E+03  0.12540457550E+03  0.00000000000E+00 0.  1.
         21    1    1    2  504  501  0.21473715199E+03 -0.11678528233E+03 -0.19148878840E+03  0.31051377216E+03  0.00000000000E+00 0.  1.
<mgrwt>
<rscale>  4 0.26781116E+03</rscale>
<asrwt>0</asrwt>
<pdfrwt beam="1">  1       21 0.17291155E-01 0.26781116E+03</pdfrwt>
<pdfrwt beam="2">  1       21 0.10750833E+00 0.26781116E+03</pdfrwt>
<totfact> 0.20028726E+04</totfact>
</mgrwt>
</event>
<event>
 5    0  0.1257040E+001  0.3197322E+03  0.7546771E-02  0.1075773E+00
         21   -1    0    0  502  501  0.00000000000E+00  0.00000000000E+00  0.30735010583E+03  0.30735010583E+03  0.00000000000E+00 0. -1.
         21   -1    0    0  504  502 -0.00000000000E+00 -0.00000000000E+00 -0.55048826665E+03  0.55048826665E+03  0.00000000000E+00 0. -1.
         25    1    1    2    0    0  0.22742318551E+02 -0.30981452799E+03 -0.46569576432E+02  0.33807688512E+03  0.12500000000E+03 0.  0.
         21    1    1    2  503  501 -0.21419251388E+02  0.21866726337E+02  0.10108620151E+03  0.10561892911E+03  0.00000000000E+00 0.  1.
         21    1    1    2  504  503 -0.13230671634E+01  0.28794780165E+03 -0.29765478590E+03  0.41414255825E+03  0.00000000000E+00 0. -1.
<mgrwt>
<rscale>  4 0.31973222E+03</rscale>
<asrwt>0</asrwt>
<pdfrwt beam="1">  1       21 0.47284632E-01 0.31973222E+03</pdfrwt>
<pdfrwt beam="2">  1       21 0.84690502E-01 0.31973222E+03</pdfrwt>
<totfact> 0.47798642E+03</totfact>
</mgrwt>
</event>
<event>
 5    0  0.1257040E+001  0.2561591E+03  0.7546771E-02  0.1109473E+00
         21   -1    0    0  503  501  0.00000000000E+00  0.00000000000E+00  0.80296813247E+03  0.80296813247E+03  0.00000000000E+00 0. -1.
         21   -1    0    0  501  502 -0.00000000000E+00 -0.00000000000E+00 -0.76706482980E+02  0.76706482980E+02  0.00000000000E+00 0. -1.
         25    1    1    2    0    0  0.14197431099E+03  0.17273036251E+03  0.29714168511E+03  0.39231449647E+03  0.12500000000E+03 0.  0.
         21    1    1    2  503  504 -0.10329828513E+03 -0.11751514326E+03  0.23916444260E+03  0.28579708748E+03  0.00000000000E+00 0. -1.
         21    1    1    2  504  502 -0.38676025863E+02 -0.55215219246E+02  0.18995552178E+03  0.20156303150E+03  0.00000000000E+00 0. -1.
<mgrwt>
<rscale>  4 0.25615910E+03</rscale>
<asrwt>0</asrwt>
<pdfrwt beam="1">  1       21 0.12353355E+00 0.25615910E+03</pdfrwt>
<pdfrwt beam="2">  1       21 0.11800998E-01 0.25615910E+03</pdfrwt>
<totfact> 0.28708635E+04</totfact>
</mgrwt>
</event>
<event>
 5    0  0.1257040E+001  0.2537239E+03  0.7546771E-02  0.1110974E+00
         21   -1    0    0  504  501  0.00000000000E+00  0.00000000000E+00  0.42117364153E+03  0.42117364153E+03  0.00000000000E+00 0. -1.
         21   -1    0    0  503  502 -0.00000000000E+00 -0.00000000000E+00 -0.41182916020E+03  0.41182916020E+03  0.00000000000E+00 0. -1.
         25    1    1    2    0    0  0.11796856725E+03 -0.25749766435E+03  0.11810850470E+03  0.33135517030E+03  0.12500000000E+03 0.  0.
         21    1    1    2  503  501 -0.17877233858E+03  0.11995450833E+03 -0.22512985004E+03  0.31149973113E+03  0.00000000000E+00 0. -1.
         21    1    1    2  504  502  0.60803771332E+02  0.13754315601E+03  0.11636582668E+03  0.19014790031E+03  0.00000000000E+00 0. -1.
<mgrwt>
<rscale>  4 0.25372392E+03</rscale>
<asrwt>0</asrwt>
<pdfrwt beam="1">  1       21 0.64795945E-01 0.25372392E+03</pdfrwt>
<pdfrwt beam="2">  1       21 0.63358333E-01 0.25372392E+03</pdfrwt>
<totfact> 0.48445227E+03</totfact>
</mgrwt>
</event>
<event>
 5    0  0.1257040E+001  0.2482870E+03  0.7546771E-02  0.1114392E+00
         21   -1    0    0  503  501  0.00000000000E+00  0.00000000000E+00  0.12518951857E+04  0.12518951857E+04  0.00000000000E+00 0. -1.
         21   -1    0    0  504  502 -0.00000000000E+00 -0.00000000000E+00 -0.80264635845E+02  0.80264635845E+02  0.00000000000E+00 0.  1.
         25    1    1    2    0    0 -0.14430742296E+03  0.16005358250E+03  0.18477985029E+03  0.31017797256E+03  0.12500000000E+03 0.  0.
         21    1    1    2  503  502 -0.26637058913E+02 -0.31341813232E+02  0.76895257434E+02  0.87205061665E+02  0.00000000000E+00 0. -1.
         21    1    1    2  504  501  0.17094448188E+03 -0.12871176927E+03  0.90995544215E+03  0.93477678733E+03  0.00000000000E+00 0. -1.
<mgrwt>
<rscale>  4 0.24828701E+03</rscale>
<asrwt>0</asrwt>
<pdfrwt beam="1">  1       21 0.19259925E+00 0.24828701E+03</pdfrwt>
<pdfrwt beam="2">  1       21 0.12348406E-01 0.24828701E+03</pdfrwt>
<totfact> 0.80095652E+03</totfact>
</mgrwt>
</event>
<event>
 5    0  0.1257040E+001  0.3497226E+03  0.7546771E-02  0.1062729E+00
         21   -1    0    0  504  501  0.00000000000E+00  0.00000000000E+00  0.19705760203E+03  0.19705760203E+03  0.00000000000E+00 0. -1.
         21   -1    0    0  503  502 -0.00000000000E+00 -0.00000000000E+00 -0.10281804852E+04  0.10281804852E+04  0.00000000000E+00 0. -1.
         25    1    1    2    0    0 -0.30023732564E+03  0.12148161470E+03 -0.78014758311E+03  0.85390601699E+03  0.12500000000E+03 0.  0.
         21    1    1    2  503  501  0.30390321317E+03 -0.14714740860E+03 -0.61755411530E+02  0.34325392013E+03  0.00000000000E+00 0. -1.
         21    1    1    2  504  502 -0.36658875326E+01  0.25665793904E+02  0.10780111491E+02  0.28078150079E+02  0.00000000000E+00 0. -1.
<mgrwt>
<rscale>  4 0.34972264E+03</rscale>
<asrwt>0</asrwt>
<pdfrwt beam="1">  1       21 0.30316555E-01 0.34972264E+03</pdfrwt>
<pdfrwt beam="2">  1       21 0.15818161E+00 0.34972264E+03</pdfrwt>
<totfact> 0.24295600E+03</totfact>
</mgrwt>
</event>
<event>
 5    0  0.1257040E+001  0.3003990E+03  0.7546771E-02  0.1085041E+00
         21   -1    0    0  504  501  0.00000000000E+00  0.00000000000E+00  0.21642408921E+04  0.21642408921E+04  0.00000000000E+00 0. -1.
         21   -1    0    0  503  502 -0.00000000000E+00 -0.00000000000E+00 -0.46570061507E+02  0.46570061507E+02  0.00000000000E+00 0. -1.
         25    1    1    2    0    0 -0.27620318314E+02 -0.25103905024E+03  0.12863134554E+04  0.13168184356E+04  0.12500000000E+03 0.  0.
         21    1    1    2  503  501  0.51995448079E+02  0.27954148605E+03  0.66108905033E+03  0.71964275964E+03  0.00000000000E+00 0. -1.
         21    1    1    2  504  502 -0.24375129765E+02 -0.28502435804E+02  0.17026832487E+03  0.17434975839E+03  0.00000000000E+00 0.  1.
<mgrwt>
<rscale>  4 0.30039900E+03</rscale>
<asrwt>0</asrwt>
<pdfrwt beam="1">  1       21 0.33296006E+00 0.30039900E+03</pdfrwt>
<pdfrwt beam="2">  1       21 0.71646265E-02 0.30039900E+03</pdfrwt>
<totfact> 0.28636673E+03</totfact>
</mgrwt>
</event>
