<event>
 5    0  0.1856407E+000  0.2708645E+03  0.7546771E-02  0.1100786E+00
         21   -1    0    0  502  501  0.00000000000E+00  0.00000000000E+00  0.85749757602E+02  0.85749757602E+02  0.00000000000E+00 0.  1.
         21   -1    0    0  503  502 -0.00000000000E+00 -0.00000000000E+00 -0.10306100243E+04  0.10306100243E+04  0.00000000000E+00 0.  1.
         25    1    1    2    0    0  0.23672619246E+02  0.23912791866E+03 -0.21630079645E+03  0.34663177715E+03  0.12500000000E+03 0.  0.
         21    1    1    2  503  504 -0.12365303677E+02 -0.10385699671E+03 -0.22378071844E+03  0.24701616637E+03  0.00000000000E+00 0.  1.
         21    1    1    2  504  501 -0.11307315569E+02 -0.13527092196E+03 -0.50477875181E+03  0.52271183839E+03  0.00000000000E+00 0.  1.
<mgrwt>
<rscale>  4 0.27086446E+03</rscale>
<asrwt>0</asrwt>
<pdfrwt beam="1">  1       21 0.13192270E-01 0.27086446E+03</pdfrwt>
<pdfrwt beam="2">  1       21 0.15855539E+00 0.27086446E+03</pdfrwt>
<totfact> 0.12139687E+04</totfact>
</mgrwt>
</event>
<event>
 5    0  0.1856407E+000  0.2513523E+03  0.7546771E-02  0.1112453E+00
         21   -1    0    0  502  501  0.00000000000E+00  0.00000000000E+00  0.33583372329E+03  0.33583372329E+03  0.00000000000E+00 0.  1.
         21   -1    0    0  503  502 -0.00000000000E+00 -0.00000000000E+00 -0.17985705882E+03  0.17985705882E+03  0.00000000000E+00 0.  1.
         25    1    1    2    0    0  0.18755917477E+03  0.11124091514E+03  0.15346414212E+03  0.29449826512E+03  0.12500000000E+03 0.  0.
         21    1    1    2  503  504 -0.39023202760E+02 -0.12062646636E+02 -0.10319501390E+02  0.42128492810E+02  0.00000000000E+00 0. -1.
         21    1    1    2  504  501 -0.14853597201E+03 -0.99178268509E+02  0.12832023743E+02  0.17906402419E+03  0.00000000000E+00 0.  1.
<mgrwt>
<rscale>  4 0.25135231E+03</rscale>
<asrwt>0</asrwt>
<pdfrwt beam="1">  1       21 0.51666726E-01 0.25135231E+03</pdfrwt>
<pdfrwt beam="2">  1       21 0.27670317E-01 0.25135231E+03</pdfrwt>
<totfact> 0.43171691E+04</totfact>
</mgrwt>
</event>
<event>
 5    0  0.1856407E+000  0.2744769E+03  0.7546771E-02  0.1098744E+00
         21   -1    0    0  502  501  0.00000000000E+00  0.00000000000E+00  0.23325176310E+03  0.23325176310E+03  0.00000000000E+00 0.  1.
         21   -1    0    0  503  502 -0.00000000000E+00 -0.00000000000E+00 -0.37426104384E+03  0.37426104384E+03  0.00000000000E+00 0.  1.
         25    1    1    2    0    0 -0.16226725210E+03 -0.18270723278E+03  0.56374114771E+02  0.28020641468E+03  0.12500000000E+03 0.  0.
         21    1    1    2  503  504  0.11329303709E+03  0.10002498685E+03 -0.16982654365E+03  0.22733535839E+03  0.00000000000E+00 0.  1.
         21    1    1    2  504  501  0.48974215010E+02  0.82682245929E+02 -0.27556851867E+02  0.99971033868E+02  0.00000000000E+00 0.  1.
<mgrwt>
<rscale>  4 0.27447695E+03</rscale>
<asrwt>0</asrwt>
<pdfrwt beam="1">  1       21 0.35884887E-01 0.27447695E+03</pdfrwt>
<pdfrwt beam="2">  1       21 0.57578622E-01 0.27447695E+03</pdfrwt>
<totfact> 0.20313781E+04</totfact>
</mgrwt>
</event>
<event>
 5    0  0.1856407E+000  0.7400935E+03  0.7546771E-02  0.9652102E-01
         21   -1    0    0  502  501  0.00000000000E+00  0.00000000000E+00  0.22268491495E+04  0.22268491495E+04  0.00000000000E+00 0.  1.
         21   -1    0    0  503  502 -0.00000000000E+00 -0.00000000000E+00 -0.26342183647E+03  0.26342183647E+03  0.00000000000E+00 0.  1.
         25    1    1    2    0    0  0.71025769778E+03 -0.15379370469E+03  0.13086685176E+04  0.15021174354E+04  0.12500000000E+03 0.  0.
         21    1    1    2  503  504 -0.46675891975E+03  0.15698075640E+03  0.48593095886E+03  0.69183505536E+03  0.00000000000E+00 0.  1.
         21    1    1    2  504  501 -0.24349877804E+03 -0.31870517107E+01  0.16882783664E+03  0.29631849526E+03  0.00000000000E+00 0.  1.
<mgrwt>
<rscale>  4 0.73941660E+03</rscale>
<asrwt>0</asrwt>
<pdfrwt beam="1">  1       21 0.34259217E+00 0.74009348E+03</pdfrwt>
<pdfrwt beam="2">  1       21 0.40526438E-01 0.74009348E+03</pdfrwt>
<totfact> 0.74359067E+01</totfact>
</mgrwt>
</event>
<event>
 5    0  0.3160239E+000  0.2554739E+03  0.7546771E-02  0.1109893E+00
         21   -1    0    0  502  501  0.00000000000E+00  0.00000000000E+00  0.25292646853E+03  0.25292646853E+03  0.00000000000E+00 0.  1.
         21   -1    0    0  503  502 -0.00000000000E+00 -0.00000000000E+00 -0.60299199029E+03  0.60299199029E+03  0.00000000000E+00 0.  1.
         25    1    1    2    0    0  0.55006310792E+02  0.21884773425E+03  0.14829982203E+03  0.29755312505E+03  0.12500000000E+03 0.  0.
         21    1    1    2  503  504  0.16263898295E+02 -0.26911219416E+02 -0.18105023457E+02  0.36283880617E+02  0.00000000000E+00 0.  1.
         21    1    1    2  504  501 -0.71270209087E+02 -0.19193651484E+03 -0.48026032033E+03  0.52208145315E+03  0.00000000000E+00 0.  1.
<mgrwt>
<rscale>  4 0.25547390E+03</rscale>
<asrwt>0</asrwt>
<pdfrwt beam="1">  1       21 0.38911765E-01 0.25547390E+03</pdfrwt>
<pdfrwt beam="2">  1       21 0.92767997E-01 0.25547390E+03</pdfrwt>
<totfact> 0.59744115E+03</totfact>
</mgrwt>
</event>
<event>
 5    0  0.1856407E+000  0.2839220E+03  0.7546771E-02  0.1093566E+00
         21   -1    0    0  502  501  0.00000000000E+00  0.00000000000E+00  0.81887763626E+02  0.81887763626E+02  0.00000000000E+00 0. -1.
         21   -1    0    0  503  502 -0.00000000000E+00 -0.00000000000E+00 -0.97545580157E+03  0.97545580157E+03  0.00000000000E+00 0. -1.
         25    1    1    2    0    0 -0.42275016510E+02  0.25139519320E+03 -0.32416033849E+03  0.43091953453E+03  0.12500000000E+03 0.  0.
         21    1    1    2  503  504  0.39675575668E+02 -0.14968295164E+03 -0.28479736301E+03  0.32417383499E+03  0.00000000000E+00 0. -1.
         21    1    1    2  504  501  0.25994408423E+01 -0.10171224157E+03 -0.28461033644E+03  0.30225019568E+03  0.00000000000E+00 0. -1.
<mgrwt>
<rscale>  4 0.28392203E+03</rscale>
<asrwt>0</asrwt>
<pdfrwt beam="1">  1       21 0.12598118E-01 0.28392203E+03</pdfrwt>
<pdfrwt beam="2">  1       21 0.15007012E+00 0.28392203E+03</pdfrwt>
<totfact> 0.15204341E+04</totfact>
</mgrwt>
</event>
<event>
 5    0  0.2001551E+000  0.2572252E+03  0.7546771E-02  0.1108822E+00
         21   -1    0    0  502  501  0.00000000000E+00  0.00000000000E+00  0.93850060085E+02  0.93850060085E+02  0.00000000000E+00 0. -1.
         21   -1    0    0  503  502 -0.00000000000E+00 -0.00000000000E+00 -0.12427337537E+04  0.12427337537E+04  0.00000000000E+00 0. -1.
         25    1    1    2    0    0  0.26549719023E+03 -0.54371520843E+02 -0.35868283487E+03  0.46660839719E+03  0.12500000000E+03 0.  0.
         21    1    1    2  503  504 -0.18967668590E+03 -0.68484795059E+02 -0.32120873313E+03  0.37926568863E+03  0.00000000000E+00 0. -1.
         21    1    1    2  504  501 -0.75820504329E+02  0.12285631590E+03 -0.46899212565E+03  0.49070972800E+03  0.00000000000E+00 0. -1.
<mgrwt>
<rscale>  4 0.25722515E+03</rscale>
<asrwt>0</asrwt>
<pdfrwt beam="1">  1       21 0.14438470E-01 0.25722515E+03</pdfrwt>
<pdfrwt beam="2">  1       21 0.19118982E+00 0.25722515E+03</pdfrwt>
<totfact> 0.61243721E+03</totfact>
</mgrwt>
</event>
<event>
 5    0  0.1856407E+000  0.2402469E+03  0.7546771E-02  0.1119628E+00
         21   -1    0    0  502  501  0.00000000000E+00  0.00000000000E+00  0.56645387907E+03  0.56645387907E+03  0.00000000000E+00 0. -1.
         21   -1    0    0  503  502 -0.00000000000E+00 -0.00000000000E+00 -0.56302438048E+03  0.56302438048E+03  0.00000000000E+00 0. -1.
         25    1    1    2    0    0 -0.13084686589E+03 -0.15802748735E+03  0.51728297311E+03  0.57035100012E+03  0.12500000000E+03 0.  0.
         21    1    1    2  503  504  0.85015399880E+02  0.12641866561E+03 -0.28025797421E+03  0.31898876052E+03  0.00000000000E+00 0. -1.
         21    1    1    2  504  501  0.45831466010E+02  0.31608821742E+02 -0.23359550032E+03  0.24013849890E+03  0.00000000000E+00 0. -1.
<mgrwt>
<rscale>  4 0.24024693E+03</rscale>
<asrwt>0</asrwt>
<pdfrwt beam="1">  1       21 0.87146751E-01 0.24024693E+03</pdfrwt>
<pdfrwt beam="2">  1       21 0.86619135E-01 0.24024693E+03</pdfrwt>
<totfact> 0.12447271E+03</totfact>
</mgrwt>
</event>
<event>
 5    0  0.2081665E+000  0.3223678E+03  0.7546771E-02  0.1074565E+00
         21   -1    0    0  502  501  0.00000000000E+00  0.00000000000E+00  0.51565637217E+03  0.51565637217E+03  0.00000000000E+00 0.  1.
         21   -1    0    0  503  502 -0.00000000000E+00 -0.00000000000E+00 -0.20779643934E+03  0.20779643934E+03  0.00000000000E+00 0.  1.
         25    1    1    2    0    0  0.24141526990E+03  0.17080734798E+03  0.94840318133E+02  0.33477778990E+03  0.12500000000E+03 0.  0.
         21    1    1    2  503  504 -0.12395594488E+02  0.22310196182E+02  0.17320508728E+02  0.30844701960E+02  0.00000000000E+00 0.  1.
         21    1    1    2  504  501 -0.22901967541E+03 -0.19311754417E+03  0.19569910597E+03  0.35783031966E+03  0.00000000000E+00 0.  1.
<mgrwt>
<rscale>  4 0.32236780E+03</rscale>
<asrwt>0</asrwt>
<pdfrwt beam="1">  1       21 0.79331749E-01 0.32236780E+03</pdfrwt>
<pdfrwt beam="2">  1       21 0.31968683E-01 0.32236780E+03</pdfrwt>
<totfact> 0.12323181E+04</totfact>
</mgrwt>
</event>
<event>
 5    0  0.1856407E+000  0.3907015E+03  0.7546771E-02  0.1047048E+00
         21   -1    0    0  502  501  0.00000000000E+00  0.00000000000E+00  0.58752177664E+03  0.58752177664E+03  0.00000000000E+00 0.  1.
         21   -1    0    0  503  502 -0.00000000000E+00 -0.00000000000E+00 -0.29368755726E+03  0.29368755726E+03  0.00000000000E+00 0.  1.
         25    1    1    2    0    0  0.12870372476E+03  0.34707066738E+03  0.31896020003E+03  0.50436425937E+03  0.12500000000E+03 0.  0.
         21    1    1    2  503  504 -0.27287263672E+01 -0.25409909118E+02  0.14079856105E+02  0.29177933047E+02  0.00000000000E+00 0. -1.
         21    1    1    2  504  501 -0.12597499839E+03 -0.32166075827E+03 -0.39205836758E+02  0.34766714148E+03  0.00000000000E+00 0.  1.
<mgrwt>
<rscale>  4 0.39070154E+03</rscale>
<asrwt>0</asrwt>
<pdfrwt beam="1">  1       21 0.90387965E-01 0.39070154E+03</pdfrwt>
<pdfrwt beam="2">  1       21 0.45182701E-01 0.39070154E+03</pdfrwt>
<totfact> 0.43772471E+03</totfact>
</mgrwt>
</event>
<event>
 5    0  0.1856407E+000  0.3906910E+03  0.7546771E-02  0.1047719E+00
         21   -1    0    0  502  501  0.00000000000E+00  0.00000000000E+00  0.25495238974E+03  0.25495238974E+03  0.00000000000E+00 0.  1.
         21   -1    0    0  503  502 -0.00000000000E+00 -0.00000000000E+00 -0.19533759193E+04  0.19533759193E+04  0.00000000000E+00 0.  1.
         25    1    1    2    0    0 -0.73531098619E+02 -0.35479122083E+03  0.76558099464E+02  0.39085774322E+03  0.12500000000E+03 0.  0.
         21    1    1    2  503  504  0.76667430912E+02  0.90071181162E+02 -0.39521775172E+03  0.41253822116E+03  0.00000000000E+00 0.  1.
         21    1    1    2  504  501 -0.31363322933E+01  0.26472003967E+03 -0.13797638773E+04  0.14049323447E+04  0.00000000000E+00 0.  1.
<mgrwt>
<rscale>  4 0.38882662E+03</rscale>
<asrwt>0</asrwt>
<pdfrwt beam="1">  1       21 0.39223443E-01 0.39069102E+03</pdfrwt>
<pdfrwt beam="2">  1       21 0.30051938E+00 0.39069102E+03</pdfrwt>
<totfact> 0.17253181E+02</totfact>
</mgrwt>
</event>
