<event>
 5    0  0.1702508E-001  0.2511258E+03  0.7546771E-02  0.1112595E+00
         21   -1    0    0  503  502  0.00000000000E+00  0.00000000000E+00  0.74589506111E+03  0.74589506111E+03  0.00000000000E+00 0. -1.
         21   -1    0    0  501  503 -0.00000000000E+00 -0.00000000000E+00 -0.42341141190E+03  0.42341141190E+03  0.00000000000E+00 0. -1.
         25    1    1    2    0    0  0.18235765415E+01 -0.21669627848E+03  0.67811953688E+03  0.72279437521E+03  0.12500000000E+03 0.  0.
          4    1    1    2  501    0  0.23727144475E+02  0.23411215722E+03 -0.28629567911E+03  0.37058965909E+03  0.00000000000E+00 0. -1.
         -4    1    1    2    0  502 -0.25550721017E+02 -0.17415878739E+02 -0.69340208560E+02  0.75922438711E+02  0.00000000000E+00 0.  1.
<mgrwt>
<rscale>  4 0.25112585E+03</rscale>
<asrwt>0</asrwt>
<pdfrwt beam="1">  1       21 0.11475309E+00 0.25112585E+03</pdfrwt>
<pdfrwt beam="2">  1       21 0.65140217E-01 0.25112585E+03</pdfrwt>
<totfact> 0.12143945E+03</totfact>
</mgrwt>
</event>
<event>
 5    0  0.1702508E-001  0.2982018E+03  0.7546771E-02  0.1086143E+00
         21   -1    0    0  503  502  0.00000000000E+00  0.00000000000E+00  0.61742506585E+03  0.61742506585E+03  0.00000000000E+00 0.  1.
         21   -1    0    0  501  503 -0.00000000000E+00 -0.00000000000E+00 -0.32490002488E+03  0.32490002488E+03  0.00000000000E+00 0.  1.
         25    1    1    2    0    0  0.14591055031E+03 -0.23383196397E+03  0.45346762639E+03  0.54518360600E+03  0.12500000000E+03 0.  0.
          2    1    1    2  501    0 -0.10687679036E+03  0.23386027269E+03 -0.28068326537E+02  0.25865248194E+03  0.00000000000E+00 0.  1.
         -2    1    1    2    0  502 -0.39033759949E+02 -0.28308716395E-01 -0.13287425889E+03  0.13848900278E+03  0.00000000000E+00 0. -1.
<mgrwt>
<rscale>  4 0.29820185E+03</rscale>
<asrwt>0</asrwt>
<pdfrwt beam="1">  1       21 0.94988471E-01 0.29820185E+03</pdfrwt>
<pdfrwt beam="2">  1       21 0.49984619E-01 0.29820185E+03</pdfrwt>
<totfact> 0.32866584E+03</totfact>
</mgrwt>
</event>
<event>
 5    0  0.1702508E-001  0.2737965E+03  0.7546771E-02  0.1099126E+00
         21   -1    0    0  503  502  0.00000000000E+00  0.00000000000E+00  0.14591930307E+03  0.14591930307E+03  0.00000000000E+00 0. -1.
         21   -1    0    0  501  503 -0.00000000000E+00 -0.00000000000E+00 -0.60590262507E+03  0.60590262507E+03  0.00000000000E+00 0.  1.
         25    1    1    2    0    0 -0.15791218182E+02  0.24308470669E+03 -0.76523155289E+02  0.28428916704E+03  0.12500000000E+03 0.  0.
          2    1    1    2  501    0 -0.34749502955E+02 -0.19365480912E+03 -0.27863432839E+03  0.34109647024E+03  0.00000000000E+00 0. -1.
         -2    1    1    2    0  502  0.50540721137E+02 -0.49429897575E+02 -0.10482583832E+03  0.12643629086E+03  0.00000000000E+00 0.  1.
<mgrwt>
<rscale>  4 0.27379653E+03</rscale>
<asrwt>0</asrwt>
<pdfrwt beam="1">  1       21 0.22449123E-01 0.27379653E+03</pdfrwt>
<pdfrwt beam="2">  1       21 0.93215790E-01 0.27379653E+03</pdfrwt>
<totfact> 0.17209572E+04</totfact>
</mgrwt>
</event>
<event>
 5    0  0.1702508E-001  0.3095439E+03  0.7546771E-02  0.1080565E+00
         21   -1    0    0  503  502  0.00000000000E+00  0.00000000000E+00  0.18267462263E+03  0.18267462263E+03  0.00000000000E+00 0.  1.
         21   -1    0    0  501  503 -0.00000000000E+00 -0.00000000000E+00 -0.10167331256E+04  0.10167331256E+04  0.00000000000E+00 0. -1.
         25    1    1    2    0    0 -0.30617843123E+03 -0.55057848545E+02 -0.65378759154E+02  0.34157865944E+03  0.12500000000E+03 0.  0.
          4    1    1    2  501    0  0.71179543825E+02  0.23922015143E+02 -0.47267504123E+03  0.47860263776E+03  0.00000000000E+00 0. -1.
         -4    1    1    2    0  502  0.23499888740E+03  0.31135833402E+02 -0.29600470256E+03  0.37922645100E+03  0.00000000000E+00 0.  1.
<mgrwt>
<rscale>  4 0.30954386E+03</rscale>
<asrwt>0</asrwt>
<pdfrwt beam="1">  1       21 0.28103789E-01 0.30954386E+03</pdfrwt>
<pdfrwt beam="2">  1       21 0.15642048E+00 0.30954386E+03</pdfrwt>
<totfact> 0.29723217E+03</totfact>
</mgrwt>
</event>
<event>
 5    0  0.1702508E-001  0.2616869E+03  0.7546771E-02  0.1106134E+00
         21   -1    0    0  503  502  0.00000000000E+00  0.00000000000E+00  0.40839211512E+03  0.40839211512E+03  0.00000000000E+00 0.  1.
         21   -1    0    0  501  503 -0.00000000000E+00 -0.00000000000E+00 -0.25409242125E+03  0.25409242125E+03  0.00000000000E+00 0. -1.
         25    1    1    2    0    0 -0.18789569978E+03  0.14525863924E+03  0.25460610045E+03  0.36993801191E+03  0.12500000000E+03 0.  0.
          1    1    1    2  501    0  0.52418146237E+02  0.16406683213E+02  0.78889036882E+01  0.55489423410E+02  0.00000000000E+00 0.  1.
         -1    1    1    2    0  502  0.13547755354E+03 -0.16166532246E+03 -0.10819531026E+03  0.23705710106E+03  0.00000000000E+00 0. -1.
<mgrwt>
<rscale>  4 0.26168691E+03</rscale>
<asrwt>0</asrwt>
<pdfrwt beam="1">  1       21 0.62829556E-01 0.26168691E+03</pdfrwt>
<pdfrwt beam="2">  1       21 0.39091142E-01 0.26168691E+03</pdfrwt>
<totfact> 0.14232120E+04</totfact>
</mgrwt>
</event>
<event>
 5    0  0.1702508E-001  0.3191882E+03  0.7546771E-02  0.1076024E+00
         21   -1    0    0  503  502  0.00000000000E+00  0.00000000000E+00  0.69955453788E+03  0.69955453788E+03  0.00000000000E+00 0. -1.
         21   -1    0    0  501  503 -0.00000000000E+00 -0.00000000000E+00 -0.16729140221E+03  0.16729140221E+03  0.00000000000E+00 0.  1.
         25    1    1    2    0    0 -0.30273634536E+03  0.21030791273E+01  0.19271027786E+03  0.38002101118E+03  0.12500000000E+03 0.  0.
          2    1    1    2  501    0  0.16419410793E+02  0.41350173807E+02  0.56737620936E+01  0.44851148268E+02  0.00000000000E+00 0. -1.
         -2    1    1    2    0  502  0.28631693457E+03 -0.43453252934E+02  0.33387909572E+03  0.44197378064E+03  0.00000000000E+00 0.  1.
<mgrwt>
<rscale>  4 0.31918824E+03</rscale>
<asrwt>0</asrwt>
<pdfrwt beam="1">  1       21 0.10762377E+00 0.31918824E+03</pdfrwt>
<pdfrwt beam="2">  1       21 0.25737139E-01 0.31918824E+03</pdfrwt>
<totfact> 0.91802382E+03</totfact>
</mgrwt>
</event>
<event>
 5    0  0.1702508E-001  0.2846421E+03  0.7546771E-02  0.1093180E+00
         21   -1    0    0  503  502  0.00000000000E+00  0.00000000000E+00  0.84206976824E+02  0.84206976824E+02  0.00000000000E+00 0.  1.
         21   -1    0    0  501  503 -0.00000000000E+00 -0.00000000000E+00 -0.11264034283E+04  0.11264034283E+04  0.00000000000E+00 0.  1.
         25    1    1    2    0    0 -0.17581187270E+03 -0.20570465605E+03 -0.46032339379E+03  0.54840390860E+03  0.12500000000E+03 0.  0.
          2    1    1    2  501    0  0.14498524380E+03  0.19716199171E+03 -0.34388778255E+03  0.42208100986E+03  0.00000000000E+00 0.  1.
         -2    1    1    2    0  502  0.30826628908E+02  0.85426643321E+01 -0.23798527516E+03  0.24012548668E+03  0.00000000000E+00 0. -1.
<mgrwt>
<rscale>  4 0.28464210E+03</rscale>
<asrwt>0</asrwt>
<pdfrwt beam="1">  1       21 0.12954920E-01 0.28464210E+03</pdfrwt>
<pdfrwt beam="2">  1       21 0.17329283E+00 0.28464210E+03</pdfrwt>
<totfact> 0.97342485E+03</totfact>
</mgrwt>
</event>
<event>
 5    0  0.1702508E-001  0.2625215E+03  0.7546771E-02  0.1105638E+00
         21   -1    0    0  503  502  0.00000000000E+00  0.00000000000E+00  0.55820447542E+02  0.55820447542E+02  0.00000000000E+00 0.  1.
         21   -1    0    0  501  503 -0.00000000000E+00 -0.00000000000E+00 -0.15676597685E+04  0.15676597685E+04  0.00000000000E+00 0.  1.
         25    1    1    2    0    0  0.10618925522E+03 -0.18938034210E+03 -0.45910636697E+03  0.52301503620E+03  0.12500000000E+03 0.  0.
          1    1    1    2  501    0  0.11767383961E+02 -0.30653781457E+02 -0.40430309703E+03  0.40563421935E+03  0.00000000000E+00 0. -1.
         -1    1    1    2    0  502 -0.11795663918E+03  0.22003412356E+03 -0.64842985696E+03  0.69483096049E+03  0.00000000000E+00 0.  1.
<mgrwt>
<rscale>  4 0.26252152E+03</rscale>
<asrwt>0</asrwt>
<pdfrwt beam="1">  1       21 0.85877601E-02 0.26252152E+03</pdfrwt>
<pdfrwt beam="2">  1       21 0.24117845E+00 0.26252152E+03</pdfrwt>
<totfact> 0.74971133E+03</totfact>
</mgrwt>
</event>
<event>
 5    0  0.1702508E-001  0.3314422E+03  0.7546771E-02  0.1070500E+00
         21   -1    0    0  503  502  0.00000000000E+00  0.00000000000E+00  0.54425798776E+03  0.54425798776E+03  0.00000000000E+00 0.  1.
         21   -1    0    0  501  503 -0.00000000000E+00 -0.00000000000E+00 -0.72876156322E+03  0.72876156322E+03  0.00000000000E+00 0. -1.
         25    1    1    2    0    0 -0.30239642223E+03 -0.12028862633E+03  0.42261063439E+03  0.54784824368E+03  0.12500000000E+03 0.  0.
          3    1    1    2  501    0  0.20275136156E+03 -0.29985531564E+02 -0.40775350055E+03  0.45636626073E+03  0.00000000000E+00 0. -1.
         -3    1    1    2    0  502  0.99645060672E+02  0.15027415789E+03 -0.19936070930E+03  0.26880504657E+03  0.00000000000E+00 0.  1.
<mgrwt>
<rscale>  4 0.33144224E+03</rscale>
<asrwt>0</asrwt>
<pdfrwt beam="1">  1       21 0.83731998E-01 0.33144224E+03</pdfrwt>
<pdfrwt beam="2">  1       21 0.11211716E+00 0.33144224E+03</pdfrwt>
<totfact> 0.69173889E+02</totfact>
</mgrwt>
</event>
<event>
 5    0  0.1702508E-001  0.3405302E+03  0.7546771E-02  0.1066570E+00
         21   -1    0    0  503  502  0.00000000000E+00  0.00000000000E+00  0.11235753711E+04  0.11235753711E+04  0.00000000000E+00 0. -1.
         21   -1    0    0  501  503 -0.00000000000E+00 -0.00000000000E+00 -0.16696334962E+03  0.16696334962E+03  0.00000000000E+00 0. -1.
         25    1    1    2    0    0 -0.31849521518E+03  0.99079252764E+02  0.21209371997E+03  0.41456561178E+03  0.12500000000E+03 0.  0.
          1    1    1    2  501    0  0.30669398944E+02  0.21481422373E+02 -0.25381530839E+02  0.45235888921E+02  0.00000000000E+00 0.  1.
         -1    1    1    2    0  502  0.28782581624E+03 -0.12056067514E+03  0.76989983234E+03  0.83073722001E+03  0.00000000000E+00 0. -1.
<mgrwt>
<rscale>  4 0.34053021E+03</rscale>
<asrwt>0</asrwt>
<pdfrwt beam="1">  1       21 0.17285774E+00 0.34053021E+03</pdfrwt>
<pdfrwt beam="2">  1       21 0.25686670E-01 0.34053021E+03</pdfrwt>
<totfact> 0.26365560E+03</totfact>
</mgrwt>
</event>
<event>
 5    0  0.1702508E-001  0.2262942E+03  0.7546771E-02  0.1129276E+00
         21   -1    0    0  503  502  0.00000000000E+00  0.00000000000E+00  0.32607560273E+03  0.32607560273E+03  0.00000000000E+00 0. -1.
         21   -1    0    0  501  503 -0.00000000000E+00 -0.00000000000E+00 -0.17277354198E+03  0.17277354198E+03  0.00000000000E+00 0.  1.
         25    1    1    2    0    0  0.16467805999E+03 -0.11479738296E+03  0.15056332914E+03  0.28034196735E+03  0.12500000000E+03 0.  0.
          3    1    1    2  501    0 -0.12945892278E+03  0.11816293817E+03  0.24484363736E+02  0.17697902901E+03  0.00000000000E+00 0.  1.
         -3    1    1    2    0  502 -0.35219137215E+02 -0.33655552136E+01 -0.21745632130E+02  0.41528148343E+02  0.00000000000E+00 0. -1.
<mgrwt>
<rscale>  4 0.22629423E+03</rscale>
<asrwt>0</asrwt>
<pdfrwt beam="1">  1       21 0.50165477E-01 0.22629423E+03</pdfrwt>
<pdfrwt beam="2">  1       21 0.26580545E-01 0.22629423E+03</pdfrwt>
<totfact> 0.50173308E+04</totfact>
</mgrwt>
</event>
<event>
 5    0  0.1702508E-001  0.2957283E+03  0.7546771E-02  0.1087396E+00
         21   -1    0    0  503  502  0.00000000000E+00  0.00000000000E+00  0.16297205465E+04  0.16297205465E+04  0.00000000000E+00 0. -1.
         21   -1    0    0  501  503 -0.00000000000E+00 -0.00000000000E+00 -0.99704938626E+02  0.99704938626E+02  0.00000000000E+00 0.  1.
         25    1    1    2    0    0  0.54031622546E+02  0.28375668922E+03  0.40866117633E+03  0.51581608345E+03  0.12500000000E+03 0.  0.
          4    1    1    2  501    0 -0.15914407414E+03 -0.31518353531E+02  0.23110485982E+03  0.28236447931E+03  0.00000000000E+00 0. -1.
         -4    1    1    2    0  502  0.10511245160E+03 -0.25223833568E+03  0.89024957171E+03  0.93124492234E+03  0.00000000000E+00 0.  1.
<mgrwt>
<rscale>  4 0.29572831E+03</rscale>
<asrwt>0</asrwt>
<pdfrwt beam="1">  1       21 0.25072622E+00 0.29572831E+03</pdfrwt>
<pdfrwt beam="2">  1       21 0.15339222E-01 0.29572831E+03</pdfrwt>
<totfact> 0.22570439E+03</totfact>
</mgrwt>
</event>
<event>
 5    0  0.1702508E-001  0.2995323E+03  0.7546771E-02  0.1085475E+00
         21   -1    0    0  503  502  0.00000000000E+00  0.00000000000E+00  0.60467830990E+03  0.60467830990E+03  0.00000000000E+00 0. -1.
         21   -1    0    0  501  503 -0.00000000000E+00 -0.00000000000E+00 -0.25922732720E+03  0.25922732720E+03  0.00000000000E+00 0. -1.
         25    1    1    2    0    0  0.21013955192E+02  0.29013446702E+03  0.39572616840E+03  0.50679758842E+03  0.12500000000E+03 0.  0.
          2    1    1    2  501    0 -0.15777011906E+02 -0.50670169691E+02 -0.99326979323E+02  0.11261540313E+03  0.00000000000E+00 0.  1.
         -2    1    1    2    0  502 -0.52369432858E+01 -0.23946429733E+03  0.49051793627E+02  0.24449264555E+03  0.00000000000E+00 0. -1.
<mgrwt>
<rscale>  4 0.29953225E+03</rscale>
<asrwt>0</asrwt>
<pdfrwt beam="1">  1       21 0.93027432E-01 0.29953225E+03</pdfrwt>
<pdfrwt beam="2">  1       21 0.39881128E-01 0.29953225E+03</pdfrwt>
<totfact> 0.55111467E+03</totfact>
</mgrwt>
</event>
<event>
 5    0  0.1702508E-001  0.3385952E+03  0.7546771E-02  0.1067396E+00
         21   -1    0    0  503  502  0.00000000000E+00  0.00000000000E+00  0.34277324605E+03  0.34277324605E+03  0.00000000000E+00 0. -1.
         21   -1    0    0  501  503 -0.00000000000E+00 -0.00000000000E+00 -0.12579895101E+04  0.12579895101E+04  0.00000000000E+00 0. -1.
         25    1    1    2    0    0  0.20718267607E+03  0.22789123447E+03  0.56693587707E+02  0.33719169458E+03  0.12500000000E+03 0.  0.
          2    1    1    2  501    0 -0.23076288446E+03 -0.22674702535E+03 -0.33931157966E+02  0.32529532094E+03  0.00000000000E+00 0.  1.
         -2    1    1    2    0  502  0.23580208387E+02 -0.11442091207E+01 -0.93797869377E+03  0.93827574061E+03  0.00000000000E+00 0. -1.
<mgrwt>
<rscale>  4 0.33859525E+03</rscale>
<asrwt>0</asrwt>
<pdfrwt beam="1">  1       21 0.52734345E-01 0.33859525E+03</pdfrwt>
<pdfrwt beam="2">  1       21 0.19353685E+00 0.33859525E+03</pdfrwt>
<totfact> 0.44159289E+02</totfact>
</mgrwt>
</event>
<event>
 5    0  0.1702508E-001  0.2634941E+03  0.7546771E-02  0.1105062E+00
         21   -1    0    0  503  502  0.00000000000E+00  0.00000000000E+00  0.17025546460E+03  0.17025546460E+03  0.00000000000E+00 0.  1.
         21   -1    0    0  501  503 -0.00000000000E+00 -0.00000000000E+00 -0.83885724155E+03  0.83885724155E+03  0.00000000000E+00 0. -1.
         25    1    1    2    0    0 -0.21649109830E+03  0.25034619269E+02 -0.11723377266E+03  0.27724336828E+03  0.12500000000E+03 0.  0.
          4    1    1    2  501    0  0.24341232264E+03 -0.15038791994E+02 -0.75728226341E+02  0.25536344363E+03  0.00000000000E+00 0.  1.
         -4    1    1    2    0  502 -0.26921224345E+02 -0.99958272741E+01 -0.47563977794E+03  0.47650589424E+03  0.00000000000E+00 0. -1.
<mgrwt>
<rscale>  4 0.26349410E+03</rscale>
<asrwt>0</asrwt>
<pdfrwt beam="1">  1       21 0.26193149E-01 0.26349410E+03</pdfrwt>
<pdfrwt beam="2">  1       21 0.12905496E+00 0.26349410E+03</pdfrwt>
<totfact> 0.58052117E+03</totfact>
</mgrwt>
</event>
<event>
 5    0  0.1702508E-001  0.2295037E+03  0.7546771E-02  0.1126990E+00
         21   -1    0    0  503  502  0.00000000000E+00  0.00000000000E+00  0.53823846191E+02  0.53823846191E+02  0.00000000000E+00 0.  1.
         21   -1    0    0  501  503 -0.00000000000E+00 -0.00000000000E+00 -0.24933299685E+04  0.24933299685E+04  0.00000000000E+00 0.  1.
         25    1    1    2    0    0  0.20869509569E+03 -0.26996195398E+02 -0.56061887897E+03  0.61171967844E+03  0.12500000000E+03 0.  0.
          1    1    1    2  501    0 -0.18352818944E+03  0.56134580346E+01 -0.27180309839E+03  0.32801071862E+03  0.00000000000E+00 0.  1.
         -1    1    1    2    0  502 -0.25166906245E+02  0.21382737363E+02 -0.16070841450E+04  0.16074234176E+04  0.00000000000E+00 0. -1.
<mgrwt>
<rscale>  4 0.22950368E+03</rscale>
<asrwt>0</asrwt>
<pdfrwt beam="1">  1       21 0.82805907E-02 0.22950368E+03</pdfrwt>
<pdfrwt beam="2">  1       21 0.38358927E+00 0.22950368E+03</pdfrwt>
<totfact> 0.11807071E+03</totfact>
</mgrwt>
</event>
<event>
 5    0  0.1702508E-001  0.2245247E+03  0.7546771E-02  0.1130554E+00
         21   -1    0    0  503  502  0.00000000000E+00  0.00000000000E+00  0.38113024259E+03  0.38113024259E+03  0.00000000000E+00 0.  1.
         21   -1    0    0  501  503 -0.00000000000E+00 -0.00000000000E+00 -0.74700579735E+03  0.74700579735E+03  0.00000000000E+00 0.  1.
         25    1    1    2    0    0 -0.13099997577E+03 -0.21546213100E+03  0.16974815229E+03  0.32867059308E+03  0.12500000000E+03 0.  0.
          2    1    1    2  501    0  0.14737908512E+03  0.11007587121E+03 -0.63045997617E+03  0.65674734389E+03  0.00000000000E+00 0.  1.
         -2    1    1    2    0  502 -0.16379109346E+02  0.10538625979E+03  0.94836269117E+02  0.14271810297E+03  0.00000000000E+00 0. -1.
<mgrwt>
<rscale>  4 0.22452465E+03</rscale>
<asrwt>0</asrwt>
<pdfrwt beam="1">  1       21 0.58635422E-01 0.22452465E+03</pdfrwt>
<pdfrwt beam="2">  1       21 0.11492397E+00 0.22452465E+03</pdfrwt>
<totfact> 0.15529731E+03</totfact>
</mgrwt>
</event>
<event>
 5    0  0.1702508E-001  0.2427261E+03  0.7546771E-02  0.1117990E+00
         21   -1    0    0  503  502  0.00000000000E+00  0.00000000000E+00  0.89768570704E+03  0.89768570704E+03  0.00000000000E+00 0. -1.
         21   -1    0    0  501  503 -0.00000000000E+00 -0.00000000000E+00 -0.19655059839E+03  0.19655059839E+03  0.00000000000E+00 0. -1.
         25    1    1    2    0    0  0.13549565135E+02 -0.25559206211E+03  0.32599602852E+03  0.43290796198E+03  0.12500000000E+03 0.  0.
          2    1    1    2  501    0  0.24309544251E+02  0.19110234053E+03  0.48873277322E+03  0.52532921308E+03  0.00000000000E+00 0. -1.
         -2    1    1    2    0  502 -0.37859109386E+02  0.64489721585E+02 -0.11359369309E+03  0.13599913038E+03  0.00000000000E+00 0.  1.
<mgrwt>
<rscale>  4 0.24272609E+03</rscale>
<asrwt>0</asrwt>
<pdfrwt beam="1">  1       21 0.13810549E+00 0.24272609E+03</pdfrwt>
<pdfrwt beam="2">  1       21 0.30238554E-01 0.24272609E+03</pdfrwt>
<totfact> 0.37384526E+03</totfact>
</mgrwt>
</event>
<event>
 5    0  0.1702508E-001  0.2635858E+03  0.7546771E-02  0.1105008E+00
         21   -1    0    0  503  502  0.00000000000E+00  0.00000000000E+00  0.78564136105E+03  0.78564136105E+03  0.00000000000E+00 0.  1.
         21   -1    0    0  501  503 -0.00000000000E+00 -0.00000000000E+00 -0.87822574646E+03  0.87822574646E+03  0.00000000000E+00 0. -1.
         25    1    1    2    0    0 -0.18660001975E+02  0.24147371906E+03  0.62676530619E+03  0.68345994888E+03  0.12500000000E+03 0.  0.
          1    1    1    2  501    0 -0.60677530280E+02 -0.20295204024E+03  0.40322891267E+02  0.21563216105E+03  0.00000000000E+00 0.  1.
         -1    1    1    2    0  502  0.79337532255E+02 -0.38521678823E+02 -0.75967258287E+03  0.76477499758E+03  0.00000000000E+00 0. -1.
<mgrwt>
<rscale>  4 0.26358579E+03</rscale>
<asrwt>0</asrwt>
<pdfrwt beam="1">  1       21 0.12086790E+00 0.26358579E+03</pdfrwt>
<pdfrwt beam="2">  1       21 0.13511165E+00 0.26358579E+03</pdfrwt>
<totfact> 0.18812403E+02</totfact>
</mgrwt>
</event>
<event>
 5    0  0.1702508E-001  0.2583419E+03  0.7546771E-02  0.1108144E+00
         21   -1    0    0  503  502  0.00000000000E+00  0.00000000000E+00  0.13850288251E+03  0.13850288251E+03  0.00000000000E+00 0.  1.
         21   -1    0    0  501  503 -0.00000000000E+00 -0.00000000000E+00 -0.15789158739E+04  0.15789158739E+04  0.00000000000E+00 0.  1.
         25    1    1    2    0    0 -0.21583350935E+03  0.68583642228E+02 -0.16244112339E+02  0.25918466568E+03  0.12500000000E+03 0.  0.
          3    1    1    2  501    0  0.22114638250E+03 -0.42941460482E+02 -0.73921296595E+03  0.77277778213E+03  0.00000000000E+00 0.  1.
         -3    1    1    2    0  502 -0.53128731569E+01 -0.25642181746E+02 -0.68495591305E+03  0.68545630855E+03  0.00000000000E+00 0. -1.
<mgrwt>
<rscale>  4 0.25834185E+03</rscale>
<asrwt>0</asrwt>
<pdfrwt beam="1">  1       21 0.21308136E-01 0.25834185E+03</pdfrwt>
<pdfrwt beam="2">  1       21 0.24291014E+00 0.25834185E+03</pdfrwt>
<totfact> 0.14035558E+03</totfact>
</mgrwt>
</event>
<event>
 5    0  0.1702508E-001  0.2887510E+03  0.7546771E-02  0.1091003E+00
         21   -1    0    0  503  502  0.00000000000E+00  0.00000000000E+00  0.25576859358E+03  0.25576859358E+03  0.00000000000E+00 0. -1.
         21   -1    0    0  501  503 -0.00000000000E+00 -0.00000000000E+00 -0.64151366634E+03  0.64151366634E+03  0.00000000000E+00 0. -1.
         25    1    1    2    0    0 -0.91408491443E+02  0.25242216149E+03  0.69756241014E+02  0.30424232624E+03  0.12500000000E+03 0.  0.
          2    1    1    2  501    0  0.13027522700E+02 -0.20281423080E+02 -0.30402894303E+03  0.30498303342E+03  0.00000000000E+00 0. -1.
         -2    1    1    2    0  502  0.78380968742E+02 -0.23214073841E+03 -0.15147237075E+03  0.28805690026E+03  0.00000000000E+00 0.  1.
<mgrwt>
<rscale>  4 0.28875101E+03</rscale>
<asrwt>0</asrwt>
<pdfrwt beam="1">  1       21 0.39349015E-01 0.28875101E+03</pdfrwt>
<pdfrwt beam="2">  1       21 0.98694409E-01 0.28875101E+03</pdfrwt>
<totfact> 0.49497478E+03</totfact>
</mgrwt>
</event>
<event>
 5    0  0.1702508E-001  0.2749896E+03  0.7546771E-02  0.1098457E+00
         21   -1    0    0  503  502  0.00000000000E+00  0.00000000000E+00  0.37243758680E+03  0.37243758680E+03  0.00000000000E+00 0. -1.
         21   -1    0    0  501  503 -0.00000000000E+00 -0.00000000000E+00 -0.37137130613E+03  0.37137130613E+03  0.00000000000E+00 0. -1.
         25    1    1    2    0    0 -0.90607930074E+01  0.32855017627E+03  0.61344661236E+02  0.35695305540E+03  0.12500000000E+03 0.  0.
          1    1    1    2  501    0  0.54736140924E+02 -0.21340824626E+03 -0.11830202559E+03  0.25006897839E+03  0.00000000000E+00 0. -1.
         -1    1    1    2    0  502 -0.45675347917E+02 -0.11514193001E+03  0.58023645016E+02  0.13678685915E+03  0.00000000000E+00 0.  1.
<mgrwt>
<rscale>  4 0.27498962E+03</rscale>
<asrwt>0</asrwt>
<pdfrwt beam="1">  1       21 0.57298090E-01 0.27498962E+03</pdfrwt>
<pdfrwt beam="2">  1       21 0.57134047E-01 0.27498962E+03</pdfrwt>
<totfact> 0.78199391E+03</totfact>
</mgrwt>
</event>
