<event>
 5    0  0.2465569E-003  0.7617975E+03  0.7546771E-02  0.9617022E-01
         -1   -1    0    0    0  501 -0.00000000000E+00  0.00000000000E+00  0.36025339416E+03  0.36025339416E+03  0.00000000000E+00 0.  1.
          1   -1    0    0  503    0  0.00000000000E+00 -0.00000000000E+00 -0.93999757732E+03  0.93999757732E+03  0.00000000000E+00 0. -1.
         25    1    1    2    0    0 -0.27182343995E+03 -0.24092619756E+01 -0.16666499313E+03  0.34248504637E+03  0.12500000000E+03 0.  0.
         21    1    1    2  502  501 -0.54105443855E+02 -0.30960192621E+03  0.41805997968E+02  0.31706228604E+03  0.00000000000E+00 0.  1.
         21    1    1    2  503  502  0.32592888381E+03  0.31201118818E+03 -0.45488518800E+03  0.64070363907E+03  0.00000000000E+00 0. -1.
<mgrwt>
<rscale>  4 0.76179746E+03</rscale>
<asrwt>0</asrwt>
<pdfrwt beam="1">  1        1 0.14461501E+00 0.76179746E+03</pdfrwt>
<pdfrwt beam="2">  1       -1 0.55423600E-01 0.76179746E+03</pdfrwt>
<totfact> 0.56786121E+01</totfact>
</mgrwt>
</event>
<event>
 5    0  0.2465569E-003  0.6231101E+03  0.7546771E-02  0.9858587E-01
         -2   -1    0    0    0  501 -0.00000000000E+00  0.00000000000E+00  0.12316469176E+03  0.12316469176E+03  0.00000000000E+00 0. -1.
          2   -1    0    0  503    0  0.00000000000E+00 -0.00000000000E+00 -0.10063996478E+04  0.10063996478E+04  0.00000000000E+00 0.  1.
         25    1    1    2    0    0  0.29271798911E+03  0.17520113933E+02 -0.65046943032E+03  0.72437991091E+03  0.12500000000E+03 0.  0.
         21    1    1    2  502  501 -0.23351754871E+03  0.36848024820E+02 -0.11575127181E+03  0.26322344009E+03  0.00000000000E+00 0. -1.
         21    1    1    2  503  502 -0.59200440403E+02 -0.54368138753E+02 -0.11701425389E+03  0.14196098855E+03  0.00000000000E+00 0.  1.
<mgrwt>
<rscale>  4 0.62311011E+03</rscale>
<asrwt>0</asrwt>
<pdfrwt beam="1">  1        2 0.15483071E+00 0.62311011E+03</pdfrwt>
<pdfrwt beam="2">  1       -2 0.18948415E-01 0.62311011E+03</pdfrwt>
<totfact> 0.59119171E+02</totfact>
</mgrwt>
</event>
<event>
 5    0  0.2465569E-003  0.3776365E+03  0.7546771E-02  0.1051811E+00
          2   -1    0    0  503    0  0.00000000000E+00  0.00000000000E+00  0.15684943521E+04  0.15684943521E+04  0.00000000000E+00 0. -1.
         -2   -1    0    0    0  501 -0.00000000000E+00 -0.00000000000E+00 -0.49508543873E+02  0.49508543873E+02  0.00000000000E+00 0.  1.
         25    1    1    2    0    0 -0.20143426350E+03  0.55687511203E+02  0.77647839990E+03  0.81376935733E+03  0.12500000000E+03 0.  0.
         21    1    1    2  502  501  0.91482276443E+02 -0.39416368126E+01  0.56607367134E+02  0.10765192714E+03  0.00000000000E+00 0.  1.
         21    1    1    2  503  502  0.10995198705E+03 -0.51745874390E+02  0.68590004116E+03  0.69658161146E+03  0.00000000000E+00 0.  1.
<mgrwt>
<rscale>  4 0.37763652E+03</rscale>
<asrwt>0</asrwt>
<pdfrwt beam="1">  1        2 0.24130679E+00 0.37763652E+03</pdfrwt>
<pdfrwt beam="2">  1       -2 0.76167003E-02 0.37763652E+03</pdfrwt>
<totfact> 0.12736427E+03</totfact>
</mgrwt>
</event>
<event>
 5    0  0.2465569E-003  0.7647054E+03  0.7546771E-02  0.9612558E-01
         -1   -1    0    0    0  501 -0.00000000000E+00  0.00000000000E+00  0.62406731481E+03  0.62406731481E+03  0.00000000000E+00 0.  1.
          1   -1    0    0  502    0  0.00000000000E+00 -0.00000000000E+00 -0.10116921827E+04  0.10116921827E+04  0.00000000000E+00 0. -1.
         25    1    1    2    0    0  0.15122239368E+03 -0.15540140606E+03 -0.60103316659E+02  0.25740088972E+03  0.12500000000E+03 0.  0.
         21    1    1    2  502  503  0.17328166070E+03 -0.88125940330E+02 -0.76052485535E+03  0.78497819773E+03  0.00000000000E+00 0. -1.
         21    1    1    2  503  501 -0.32450405438E+03  0.24352734639E+03  0.43300330409E+03  0.59338041011E+03  0.00000000000E+00 0.  1.
<mgrwt>
<rscale>  4 0.76470545E+03</rscale>
<asrwt>0</asrwt>
<pdfrwt beam="1">  1        1 0.15564495E+00 0.76470545E+03</pdfrwt>
<pdfrwt beam="2">  1       -1 0.96010357E-01 0.76470545E+03</pdfrwt>
<totfact> 0.15931916E+01</totfact>
</mgrwt>
</event>
<event>
 5    0  0.2465569E-003  0.6263764E+03  0.7546771E-02  0.9852146E-01
         -2   -1    0    0    0  501 -0.00000000000E+00  0.00000000000E+00  0.11992938733E+03  0.11992938733E+03  0.00000000000E+00 0. -1.
          2   -1    0    0  502    0  0.00000000000E+00 -0.00000000000E+00 -0.10590020482E+04  0.10590020482E+04  0.00000000000E+00 0.  1.
         25    1    1    2    0    0  0.18677173332E+03 -0.76879471805E+02 -0.47285281873E+02  0.24218800844E+03  0.12500000000E+03 0.  0.
         21    1    1    2  502  503 -0.11320270523E+03  0.37984301431E+02 -0.81438873900E+03  0.82309578899E+03  0.00000000000E+00 0.  1.
         21    1    1    2  503  501 -0.73569028084E+02  0.38895170375E+02 -0.77398639939E+02  0.11364763806E+03  0.00000000000E+00 0.  1.
<mgrwt>
<rscale>  4 0.62637644E+03</rscale>
<asrwt>0</asrwt>
<pdfrwt beam="1">  1        2 0.16292340E+00 0.62637644E+03</pdfrwt>
<pdfrwt beam="2">  1       -2 0.18450674E-01 0.62637644E+03</pdfrwt>
<totfact> 0.57383932E+02</totfact>
</mgrwt>
</event>
<event>
 5    0  0.2465569E-003  0.8373460E+03  0.7546771E-02  0.9507480E-01
          2   -1    0    0  503    0  0.00000000000E+00  0.00000000000E+00  0.44509895479E+03  0.44509895479E+03  0.00000000000E+00 0. -1.
         -2   -1    0    0    0  501 -0.00000000000E+00 -0.00000000000E+00 -0.67216225317E+03  0.67216225317E+03  0.00000000000E+00 0.  1.
         25    1    1    2    0    0 -0.39711768519E+03 -0.55350068504E+02 -0.11639231009E+03  0.43581906317E+03  0.12500000000E+03 0.  0.
         21    1    1    2  502  501  0.31298273284E+03  0.27511158612E+03 -0.14995960626E+03  0.44286844478E+03  0.00000000000E+00 0. -1.
         21    1    1    2  503  502  0.84134952355E+02 -0.21976151762E+03  0.39288617973E+02  0.23857370001E+03  0.00000000000E+00 0. -1.
<mgrwt>
<rscale>  4 0.83734604E+03</rscale>
<asrwt>0</asrwt>
<pdfrwt beam="1">  1        2 0.68476762E-01 0.83734604E+03</pdfrwt>
<pdfrwt beam="2">  1       -2 0.10340958E+00 0.83734604E+03</pdfrwt>
<totfact> 0.54027176E+01</totfact>
</mgrwt>
</event>
<event>
 5    0  0.2465569E-003  0.5547735E+03  0.7546771E-02  0.1000395E+00
          1   -1    0    0  503    0  0.00000000000E+00  0.00000000000E+00  0.73682380309E+02  0.73682380309E+02  0.00000000000E+00 0.  1.
         -1   -1    0    0    0  501 -0.00000000000E+00 -0.00000000000E+00 -0.15165466684E+04  0.15165466684E+04  0.00000000000E+00 0. -1.
         25    1    1    2    0    0 -0.19815128104E+03  0.13192202590E+03 -0.28392074412E+03  0.39102856678E+03  0.12500000000E+03 0.  0.
         21    1    1    2  502  501  0.19045559038E+03 -0.22467669056E+02 -0.84954195051E+03  0.87091885600E+03  0.00000000000E+00 0.  1.
         21    1    1    2  503  502  0.76956906589E+01 -0.10945435685E+03 -0.30940159350E+03  0.32828162597E+03  0.00000000000E+00 0. -1.
<mgrwt>
<rscale>  4 0.55477348E+03</rscale>
<asrwt>0</asrwt>
<pdfrwt beam="1">  1        1 0.11335751E-01 0.55477348E+03</pdfrwt>
<pdfrwt beam="2">  1       -1 0.23331487E+00 0.55477348E+03</pdfrwt>
<totfact> 0.52957342E+01</totfact>
</mgrwt>
</event>
<event>
 5    0  0.2465569E-003  0.4444735E+03  0.7546771E-02  0.1029383E+00
          2   -1    0    0  503    0  0.00000000000E+00  0.00000000000E+00  0.32790149120E+04  0.32790149120E+04  0.00000000000E+00 0.  1.
         -2   -1    0    0    0  501 -0.00000000000E+00 -0.00000000000E+00 -0.18918048604E+02  0.18918048604E+02  0.00000000000E+00 0. -1.
         25    1    1    2    0    0  0.16438360304E+03  0.13954508240E+03  0.13119180322E+04  0.13353833615E+04  0.12500000000E+03 0.  0.
         21    1    1    2  502  501 -0.75871721184E+00 -0.49267912808E+02  0.48099789497E+03  0.48351512680E+03  0.00000000000E+00 0. -1.
         21    1    1    2  503  502 -0.16362488583E+03 -0.90277169595E+02  0.14671809362E+04  0.14790344723E+04  0.00000000000E+00 0.  1.
<mgrwt>
<rscale>  4 0.44447347E+03</rscale>
<asrwt>0</asrwt>
<pdfrwt beam="1">  1        2 0.50446338E+00 0.44447347E+03</pdfrwt>
<pdfrwt beam="2">  1       -2 0.29104716E-02 0.44447347E+03</pdfrwt>
<totfact> 0.60389179E+02</totfact>
</mgrwt>
</event>
<event>
 5    0  0.2465569E-003  0.5669487E+03  0.7546771E-02  0.9976453E-01
          2   -1    0    0  502    0  0.00000000000E+00  0.00000000000E+00  0.77686884599E+03  0.77686884599E+03  0.00000000000E+00 0.  1.
         -2   -1    0    0    0  501 -0.00000000000E+00 -0.00000000000E+00 -0.52495156856E+03  0.52495156856E+03  0.00000000000E+00 0. -1.
         25    1    1    2    0    0  0.10627609763E+03 -0.22031779924E+03 -0.28594396167E+03  0.39651417479E+03  0.12500000000E+03 0.  0.
         21    1    1    2  502  503 -0.19035546392E+03 -0.28632416852E+02  0.60434423814E+03  0.63426096846E+03  0.00000000000E+00 0.  1.
         21    1    1    2  503  501  0.84079366296E+02  0.24895021609E+03 -0.66482999041E+02  0.27104527129E+03  0.00000000000E+00 0.  1.
<mgrwt>
<rscale>  4 0.56694872E+03</rscale>
<asrwt>0</asrwt>
<pdfrwt beam="1">  1        2 0.11951828E+00 0.56694872E+03</pdfrwt>
<pdfrwt beam="2">  1       -2 0.80761779E-01 0.56694872E+03</pdfrwt>
<totfact> 0.49925067E+01</totfact>
</mgrwt>
</event>
<event>
 5    0  0.2465569E-003  0.5085174E+03  0.7546771E-02  0.1011579E+00
          2   -1    0    0  502    0  0.00000000000E+00  0.00000000000E+00  0.13134335467E+04  0.13134335467E+04  0.00000000000E+00 0.  1.
         -2   -1    0    0    0  501 -0.00000000000E+00 -0.00000000000E+00 -0.72711252374E+02  0.72711252374E+02  0.00000000000E+00 0. -1.
         25    1    1    2    0    0 -0.52097667678E+01  0.21556982663E+03  0.88753357447E+03  0.92186676783E+03  0.12500000000E+03 0.  0.
         21    1    1    2  502  503  0.25557852443E+02 -0.92827819914E+02  0.32189445957E+03  0.33598549236E+03  0.00000000000E+00 0.  1.
         21    1    1    2  503  501 -0.20348085675E+02 -0.12274200672E+03  0.31294260272E+02  0.12829253887E+03  0.00000000000E+00 0.  1.
<mgrwt>
<rscale>  4 0.50851743E+03</rscale>
<asrwt>0</asrwt>
<pdfrwt beam="1">  1        2 0.20206668E+00 0.50851743E+03</pdfrwt>
<pdfrwt beam="2">  1       -2 0.11186348E-01 0.50851743E+03</pdfrwt>
<totfact> 0.94494815E+02</totfact>
</mgrwt>
</event>
<event>
 5    0  0.2465569E-003  0.9968179E+03  0.7546771E-02  0.9312042E-01
         -1   -1    0    0    0  501 -0.00000000000E+00  0.00000000000E+00  0.24000470641E+03  0.24000470641E+03  0.00000000000E+00 0.  1.
          1   -1    0    0  503    0  0.00000000000E+00 -0.00000000000E+00 -0.14423606797E+04  0.14423606797E+04  0.00000000000E+00 0. -1.
         25    1    1    2    0    0 -0.10954245007E+03 -0.17745046885E+03 -0.10384843588E+04  0.10665659758E+04  0.12500000000E+03 0.  0.
         21    1    1    2  502  501 -0.23360418312E+02  0.27922053116E+03  0.10487880288E+03  0.29918117831E+03  0.00000000000E+00 0.  1.
         21    1    1    2  503  502  0.13290286838E+03 -0.10177006230E+03 -0.26875041740E+03  0.31661823204E+03  0.00000000000E+00 0. -1.
<mgrwt>
<rscale>  4 0.99681791E+03</rscale>
<asrwt>0</asrwt>
<pdfrwt beam="1">  1        1 0.22190165E+00 0.99681791E+03</pdfrwt>
<pdfrwt beam="2">  1       -1 0.36923800E-01 0.99681791E+03</pdfrwt>
<totfact> 0.50766189E+01</totfact>
</mgrwt>
</event>
<event>
 5    0  0.2465569E-003  0.6259011E+03  0.7546771E-02  0.9853080E-01
         -2   -1    0    0    0  501 -0.00000000000E+00  0.00000000000E+00  0.21042593341E+03  0.21042593341E+03  0.00000000000E+00 0. -1.
          2   -1    0    0  503    0  0.00000000000E+00 -0.00000000000E+00 -0.46542758619E+03  0.46542758619E+03  0.00000000000E+00 0.  1.
         25    1    1    2    0    0  0.20037474581E+03  0.17277099951E+03 -0.27505306712E+03  0.40159562593E+03  0.12500000000E+03 0.  0.
         21    1    1    2  502  501 -0.15185218403E+03 -0.14404911093E+03  0.42481851635E+02  0.21357420226E+03  0.00000000000E+00 0. -1.
         21    1    1    2  503  502 -0.48522561786E+02 -0.28721888585E+02 -0.22430437284E+02  0.60683691409E+02  0.00000000000E+00 0.  1.
<mgrwt>
<rscale>  4 0.62590106E+03</rscale>
<asrwt>0</asrwt>
<pdfrwt beam="1">  1        2 0.71604244E-01 0.62590106E+03</pdfrwt>
<pdfrwt beam="2">  1       -2 0.32373221E-01 0.62590106E+03</pdfrwt>
<totfact> 0.59839743E+02</totfact>
</mgrwt>
</event>
<event>
 5    0  0.2465569E-003  0.5688439E+03  0.7546771E-02  0.9972240E-01
          2   -1    0    0  503    0  0.00000000000E+00  0.00000000000E+00  0.96353805102E+02  0.96353805102E+02  0.00000000000E+00 0. -1.
         -2   -1    0    0    0  501 -0.00000000000E+00 -0.00000000000E+00 -0.11199535063E+04  0.11199535063E+04  0.00000000000E+00 0.  1.
         25    1    1    2    0    0  0.23347472480E+03 -0.94005179157E+02 -0.41235043807E+03  0.49900431322E+03  0.12500000000E+03 0.  0.
         21    1    1    2  502  501  0.11692547017E+02 -0.54771706411E+02 -0.24930408808E+03  0.25551748240E+03  0.00000000000E+00 0.  1.
         21    1    1    2  503  502 -0.24516727182E+03  0.14877688557E+03 -0.36194517504E+03  0.46178551578E+03  0.00000000000E+00 0. -1.
<mgrwt>
<rscale>  4 0.56884391E+03</rscale>
<asrwt>0</asrwt>
<pdfrwt beam="1">  1        2 0.14823662E-01 0.56884391E+03</pdfrwt>
<pdfrwt beam="2">  1       -2 0.17230054E+00 0.56884391E+03</pdfrwt>
<totfact> 0.85348771E+01</totfact>
</mgrwt>
</event>
<event>
 5    0  0.2465569E-003  0.5836959E+03  0.7546771E-02  0.9939821E-01
         -2   -1    0    0    0  501 -0.00000000000E+00  0.00000000000E+00  0.96630663866E+02  0.96630663866E+02  0.00000000000E+00 0. -1.
          2   -1    0    0  503    0  0.00000000000E+00 -0.00000000000E+00 -0.23118604287E+04  0.23118604287E+04  0.00000000000E+00 0.  1.
         25    1    1    2    0    0  0.25797656002E+03  0.17616178304E+03 -0.10692228398E+04  0.11209136276E+04  0.12500000000E+03 0.  0.
         21    1    1    2  502  501 -0.17619423887E+02 -0.18467896355E+03 -0.93131771168E+02  0.20758200904E+03  0.00000000000E+00 0. -1.
         21    1    1    2  503  502 -0.24035713613E+03  0.85171805130E+01 -0.10528751539E+04  0.10799954560E+04  0.00000000000E+00 0. -1.
<mgrwt>
<rscale>  4 0.58369590E+03</rscale>
<asrwt>0</asrwt>
<pdfrwt beam="1">  1        2 0.35567084E+00 0.58369590E+03</pdfrwt>
<pdfrwt beam="2">  1       -2 0.14866256E-01 0.58369590E+03</pdfrwt>
<totfact> 0.16704994E+02</totfact>
</mgrwt>
</event>
<event>
 5    0  0.2465569E-003  0.7557188E+03  0.7546771E-02  0.9626421E-01
         -1   -1    0    0    0  501 -0.00000000000E+00  0.00000000000E+00  0.20976777367E+03  0.20976777367E+03  0.00000000000E+00 0. -1.
          1   -1    0    0  503    0  0.00000000000E+00 -0.00000000000E+00 -0.86882536002E+03  0.86882536002E+03  0.00000000000E+00 0.  1.
         25    1    1    2    0    0 -0.34081650413E+03 -0.11726735926E+03 -0.48042764772E+03  0.61346821248E+03  0.12500000000E+03 0.  0.
         21    1    1    2  502  501  0.33552731922E+03  0.24373980942E+02 -0.14029758100E+03  0.36449428545E+03  0.00000000000E+00 0. -1.
         21    1    1    2  503  502  0.52891849112E+01  0.92893378317E+02 -0.38332357622E+02  0.10063063576E+03  0.00000000000E+00 0.  1.
<mgrwt>
<rscale>  4 0.75571876E+03</rscale>
<asrwt>0</asrwt>
<pdfrwt beam="1">  1        1 0.13366544E+00 0.75571876E+03</pdfrwt>
<pdfrwt beam="2">  1       -1 0.32271964E-01 0.75571876E+03</pdfrwt>
<totfact> 0.17562168E+02</totfact>
</mgrwt>
</event>
<event>
 5    0  0.2465569E-003  0.1161140E+04  0.7546771E-02  0.9147567E-01
          2   -1    0    0  503    0  0.00000000000E+00  0.00000000000E+00  0.20154866784E+04  0.20154866784E+04  0.00000000000E+00 0. -1.
         -2   -1    0    0    0  501 -0.00000000000E+00 -0.00000000000E+00 -0.20083218889E+03  0.20083218889E+03  0.00000000000E+00 0.  1.
         25    1    1    2    0    0  0.43419280258E+03  0.28299808368E+03  0.11813309987E+04  0.12960629745E+04  0.12500000000E+03 0.  0.
         21    1    1    2  502  501 -0.38825987068E+03 -0.38380109023E+03  0.45673181952E+03  0.71179558794E+03  0.00000000000E+00 0.  1.
         21    1    1    2  503  502 -0.45932931894E+02  0.10080300656E+03  0.17659167130E+03  0.20846030494E+03  0.00000000000E+00 0.  1.
<mgrwt>
<rscale>  4 0.11611400E+04</rscale>
<asrwt>0</asrwt>
<pdfrwt beam="1">  1        2 0.31007486E+00 0.11611400E+04</pdfrwt>
<pdfrwt beam="2">  1       -2 0.30897261E-01 0.11611400E+04</pdfrwt>
<totfact> 0.62972652E+01</totfact>
</mgrwt>
</event>
<event>
 5    0  0.2465569E-003  0.9396588E+03  0.7546771E-02  0.9377320E-01
         -2   -1    0    0    0  501 -0.00000000000E+00  0.00000000000E+00  0.12180716862E+03  0.12180716862E+03  0.00000000000E+00 0.  1.
          2   -1    0    0  502    0  0.00000000000E+00 -0.00000000000E+00 -0.20901949381E+04  0.20901949381E+04  0.00000000000E+00 0. -1.
         25    1    1    2    0    0 -0.35047715842E+03 -0.31998251741E+03 -0.78321518171E+03  0.92426947958E+03  0.12500000000E+03 0.  0.
         21    1    1    2  502  503  0.30128434395E+03  0.29745006810E+03 -0.11437324492E+04  0.12195789086E+04  0.00000000000E+00 0. -1.
         21    1    1    2  503  501  0.49192814471E+02  0.22532449315E+02 -0.41440138582E+02  0.68153718559E+02  0.00000000000E+00 0.  1.
<mgrwt>
<rscale>  4 0.93965884E+03</rscale>
<asrwt>0</asrwt>
<pdfrwt beam="1">  1        2 0.32156845E+00 0.93965884E+03</pdfrwt>
<pdfrwt beam="2">  1       -2 0.18739565E-01 0.93965884E+03</pdfrwt>
<totfact> 0.14368798E+02</totfact>
</mgrwt>
</event>
<event>
 5    0  0.2465569E-003  0.5569438E+03  0.7546771E-02  0.9998994E-01
          3   -1    0    0  502    0  0.00000000000E+00  0.00000000000E+00  0.31030767725E+03  0.31030767725E+03  0.00000000000E+00 0. -1.
         -3   -1    0    0    0  501 -0.00000000000E+00 -0.00000000000E+00 -0.36534869010E+03  0.36534869010E+03  0.00000000000E+00 0.  1.
         25    1    1    2    0    0 -0.30526572446E+02 -0.25003927828E+03 -0.82333724823E+02  0.29301084375E+03  0.12500000000E+03 0.  0.
         21    1    1    2  502  503 -0.81929338550E+02  0.24302297182E+03  0.63665029612E+02  0.26424575180E+03  0.00000000000E+00 0.  1.
         21    1    1    2  503  501  0.11245591100E+03  0.70163064601E+01 -0.36372317637E+02  0.11839977181E+03  0.00000000000E+00 0. -1.
<mgrwt>
<rscale>  4 0.55694380E+03</rscale>
<asrwt>0</asrwt>
<pdfrwt beam="1">  1        3 0.47739642E-01 0.55694380E+03</pdfrwt>
<pdfrwt beam="2">  1       -3 0.56207491E-01 0.55694380E+03</pdfrwt>
<totfact> 0.35533541E+01</totfact>
</mgrwt>
</event>
<event>
 5    0  0.2465569E-003  0.8866599E+03  0.7546771E-02  0.9442412E-01
          2   -1    0    0  503    0  0.00000000000E+00  0.00000000000E+00  0.31563154228E+04  0.31563154228E+04  0.00000000000E+00 0.  1.
         -2   -1    0    0    0  501 -0.00000000000E+00 -0.00000000000E+00 -0.80581816154E+02  0.80581816154E+02  0.00000000000E+00 0. -1.
         25    1    1    2    0    0 -0.26093484104E+03  0.25865681400E+03  0.18023531535E+04  0.18436627209E+04  0.12500000000E+03 0.  0.
         21    1    1    2  502  501  0.24384312890E+03 -0.30363302068E+03  0.58252268422E+03  0.70070333265E+03  0.00000000000E+00 0. -1.
         21    1    1    2  503  502  0.17091712139E+02  0.44976206684E+02  0.69085776898E+03  0.69253118540E+03  0.00000000000E+00 0. -1.
<mgrwt>
<rscale>  4 0.88665994E+03</rscale>
<asrwt>0</asrwt>
<pdfrwt beam="1">  1        2 0.48558689E+00 0.88665994E+03</pdfrwt>
<pdfrwt beam="2">  1       -2 0.12397205E-01 0.88665994E+03</pdfrwt>
<totfact> 0.69603798E+01</totfact>
</mgrwt>
</event>
<event>
 5    0  0.2465569E-003  0.5964385E+03  0.7546771E-02  0.9912823E-01
          2   -1    0    0  502    0  0.00000000000E+00  0.00000000000E+00  0.67725939194E+03  0.67725939194E+03  0.00000000000E+00 0.  1.
         -2   -1    0    0    0  501 -0.00000000000E+00 -0.00000000000E+00 -0.21156094258E+03  0.21156094258E+03  0.00000000000E+00 0. -1.
         25    1    1    2    0    0 -0.25879700094E+03  0.72676762135E+02  0.14973389348E+03  0.33211901226E+03  0.12500000000E+03 0.  0.
         21    1    1    2  502  503  0.19731936578E+03 -0.21849995992E+03  0.24606316008E+03  0.38369811486E+03  0.00000000000E+00 0.  1.
         21    1    1    2  503  501  0.61477635157E+02  0.14582319778E+03  0.69901395805E+02  0.17300320740E+03  0.00000000000E+00 0.  1.
<mgrwt>
<rscale>  4 0.59643847E+03</rscale>
<asrwt>0</asrwt>
<pdfrwt beam="1">  1        2 0.10419375E+00 0.59643847E+03</pdfrwt>
<pdfrwt beam="2">  1       -2 0.32547838E-01 0.59643847E+03</pdfrwt>
<totfact> 0.38019999E+02</totfact>
</mgrwt>
</event>
<event>
 5    0  0.2465569E-003  0.8273655E+03  0.7546771E-02  0.9521230E-01
         -2   -1    0    0    0  501 -0.00000000000E+00  0.00000000000E+00  0.83451750983E+02  0.83451750983E+02  0.00000000000E+00 0. -1.
          2   -1    0    0  503    0  0.00000000000E+00 -0.00000000000E+00 -0.28147411143E+04  0.28147411143E+04  0.00000000000E+00 0.  1.
         25    1    1    2    0    0  0.63516653659E+02 -0.32768034005E+03 -0.12457205079E+04  0.12957057360E+04  0.12500000000E+03 0.  0.
         21    1    1    2  502  501  0.57691533751E+02 -0.12001178110E+03 -0.26053786164E+03  0.29259377645E+03  0.00000000000E+00 0.  1.
         21    1    1    2  503  502 -0.12120818741E+03  0.44769212115E+03 -0.12250309938E+04  0.13098933528E+04  0.00000000000E+00 0. -1.
<mgrwt>
<rscale>  4 0.82736547E+03</rscale>
<asrwt>0</asrwt>
<pdfrwt beam="1">  1        2 0.43303705E+00 0.82736547E+03</pdfrwt>
<pdfrwt beam="2">  1       -2 0.12838732E-01 0.82736547E+03</pdfrwt>
<totfact> 0.10706637E+02</totfact>
</mgrwt>
</event>
<event>
 5    0  0.2465569E-003  0.8917007E+03  0.7546771E-02  0.9436016E-01
         -1   -1    0    0    0  501 -0.00000000000E+00  0.00000000000E+00  0.14137782487E+04  0.14137782487E+04  0.00000000000E+00 0.  1.
          1   -1    0    0  503    0  0.00000000000E+00 -0.00000000000E+00 -0.16994294215E+03  0.16994294215E+03  0.00000000000E+00 0. -1.
         25    1    1    2    0    0  0.34955163606E+03 -0.29255980818E+02  0.97311140804E+03  0.10419275748E+04  0.12500000000E+03 0.  0.
         21    1    1    2  502  501 -0.40498179894E+03  0.23668839585E+02  0.26762281838E+03  0.48599634192E+03  0.00000000000E+00 0. -1.
         21    1    1    2  503  502  0.55430162883E+02  0.55871412333E+01  0.31010801529E+01  0.55797274149E+02  0.00000000000E+00 0. -1.
<mgrwt>
<rscale>  4 0.89170066E+03</rscale>
<asrwt>0</asrwt>
<pdfrwt beam="1">  1        1 0.26145069E-01 0.89170066E+03</pdfrwt>
<pdfrwt beam="2">  1       -1 0.21750434E+00 0.89170066E+03</pdfrwt>
<totfact> 0.21363113E+01</totfact>
</mgrwt>
</event>
<event>
 5    0  0.2465569E-003  0.1058269E+04  0.7546771E-02  0.9246848E-01
         -2   -1    0    0    0  501 -0.00000000000E+00  0.00000000000E+00  0.21854596566E+03  0.21854596566E+03  0.00000000000E+00 0. -1.
          2   -1    0    0  503    0  0.00000000000E+00 -0.00000000000E+00 -0.17764323260E+04  0.17764323260E+04  0.00000000000E+00 0.  1.
         25    1    1    2    0    0  0.20532391403E+03  0.36388366312E+03 -0.11027280345E+04  0.11858344522E+04  0.12500000000E+03 0.  0.
         21    1    1    2  502  501 -0.16535240712E+03  0.89034193379E+02 -0.24378980797E+03  0.30773686260E+03  0.00000000000E+00 0. -1.
         21    1    1    2  503  502 -0.39971506910E+02 -0.45291785650E+03 -0.21136851787E+03  0.50140697686E+03  0.00000000000E+00 0. -1.
<mgrwt>
<rscale>  4 0.10582693E+04</rscale>
<asrwt>0</asrwt>
<pdfrwt beam="1">  1        2 0.27329727E+00 0.10582693E+04</pdfrwt>
<pdfrwt beam="2">  1       -2 0.33622458E-01 0.10582693E+04</pdfrwt>
<totfact> 0.73290572E+01</totfact>
</mgrwt>
</event>
<event>
 5    0  0.2465569E-003  0.4147102E+03  0.7546771E-02  0.1038802E+00
          2   -1    0    0  502    0  0.00000000000E+00  0.00000000000E+00  0.65239633417E+03  0.65239633417E+03  0.00000000000E+00 0. -1.
         -2   -1    0    0    0  501 -0.00000000000E+00 -0.00000000000E+00 -0.10884436151E+03  0.10884436151E+03  0.00000000000E+00 0.  1.
         25    1    1    2    0    0 -0.14773093609E+03  0.16545022208E+03  0.23362269760E+03  0.34554705946E+03  0.12500000000E+03 0.  0.
         21    1    1    2  502  503  0.88208646856E+02 -0.10594558549E+03  0.30098535120E+03  0.33105500162E+03  0.00000000000E+00 0. -1.
         21    1    1    2  503  501  0.59522289237E+02 -0.59504636598E+02  0.89439238570E+01  0.84638634598E+02  0.00000000000E+00 0. -1.
<mgrwt>
<rscale>  4 0.41471024E+03</rscale>
<asrwt>0</asrwt>
<pdfrwt beam="1">  1        2 0.10036866E+00 0.41471024E+03</pdfrwt>
<pdfrwt beam="2">  1       -2 0.16745287E-01 0.41471024E+03</pdfrwt>
<totfact> 0.13027538E+03</totfact>
</mgrwt>
</event>
<event>
 5    0  0.2465569E-003  0.5742182E+03  0.7546771E-02  0.9960388E-01
          2   -1    0    0  502    0  0.00000000000E+00  0.00000000000E+00  0.18066934425E+03  0.18066934425E+03  0.00000000000E+00 0.  1.
         -2   -1    0    0    0  501 -0.00000000000E+00 -0.00000000000E+00 -0.60510790478E+03  0.60510790478E+03  0.00000000000E+00 0. -1.
         25    1    1    2    0    0 -0.28771866568E+03 -0.17441751748E+02 -0.19705108992E+03  0.37086436513E+03  0.12500000000E+03 0.  0.
         21    1    1    2  502  503  0.42604184290E+02 -0.61637510080E+02 -0.57967044534E+01  0.75152517925E+02  0.00000000000E+00 0.  1.
         21    1    1    2  503  501  0.24511448139E+03  0.79079261828E+02 -0.22159076616E+03  0.33976036597E+03  0.00000000000E+00 0. -1.
<mgrwt>
<rscale>  4 0.57421817E+03</rscale>
<asrwt>0</asrwt>
<pdfrwt beam="1">  1        2 0.27795284E-01 0.57421817E+03</pdfrwt>
<pdfrwt beam="2">  1       -2 0.93093523E-01 0.57421817E+03</pdfrwt>
<totfact> 0.19221748E+02</totfact>
</mgrwt>
</event>
<event>
 5    0  0.2465569E-003  0.9499873E+03  0.7546771E-02  0.9365165E-01
         -2   -1    0    0    0  501 -0.00000000000E+00  0.00000000000E+00  0.17650194596E+03  0.17650194596E+03  0.00000000000E+00 0.  1.
          2   -1    0    0  502    0  0.00000000000E+00 -0.00000000000E+00 -0.14947511637E+04  0.14947511637E+04  0.00000000000E+00 0. -1.
         25    1    1    2    0    0  0.13966387306E+03 -0.18319422143E+03  0.29762499704E+02  0.26377438578E+03  0.12500000000E+03 0.  0.
         21    1    1    2  502  503 -0.12666852624E+03  0.25938741660E+03 -0.12487109297E+04  0.12816418117E+04  0.00000000000E+00 0. -1.
         21    1    1    2  503  501 -0.12995346820E+02 -0.76193195170E+02 -0.99300787678E+02  0.12583691216E+03  0.00000000000E+00 0. -1.
<mgrwt>
<rscale>  4 0.94998734E+03</rscale>
<asrwt>0</asrwt>
<pdfrwt beam="1">  1        2 0.22996173E+00 0.94998734E+03</pdfrwt>
<pdfrwt beam="2">  1       -2 0.27154144E-01 0.94998734E+03</pdfrwt>
<totfact> 0.15778128E+02</totfact>
</mgrwt>
</event>
<event>
 5    0  0.2465569E-003  0.1487645E+04  0.7546771E-02  0.8892711E-01
          2   -1    0    0  502    0  0.00000000000E+00  0.00000000000E+00  0.12470625115E+04  0.12470625115E+04  0.00000000000E+00 0. -1.
         -2   -1    0    0    0  501 -0.00000000000E+00 -0.00000000000E+00 -0.57188765325E+03  0.57188765325E+03  0.00000000000E+00 0.  1.
         25    1    1    2    0    0  0.23103000103E+03  0.27892313197E+03  0.98125034596E+03  0.10533993622E+04  0.12500000000E+03 0.  0.
         21    1    1    2  502  503 -0.12165919328E+03 -0.12933191259E+03  0.17543682202E+03  0.24961126065E+03  0.00000000000E+00 0.  1.
         21    1    1    2  503  501 -0.10937080775E+03 -0.14959121938E+03 -0.48151230969E+03  0.51593954189E+03  0.00000000000E+00 0.  1.
<mgrwt>
<rscale>  4 0.14876446E+04</rscale>
<asrwt>0</asrwt>
<pdfrwt beam="1">  1        2 0.19185577E+00 0.14876446E+04</pdfrwt>
<pdfrwt beam="2">  1       -2 0.87982716E-01 0.14876446E+04</pdfrwt>
<totfact> 0.19034043E+01</totfact>
</mgrwt>
</event>
<event>
 5    0  0.2957743E-003  0.6895042E+03  0.7546771E-02  0.9735352E-01
          2   -1    0    0  503    0  0.00000000000E+00  0.00000000000E+00  0.85159857615E+03  0.85159857615E+03  0.00000000000E+00 0.  1.
         -2   -1    0    0    0  501 -0.00000000000E+00 -0.00000000000E+00 -0.19018092705E+03  0.19018092705E+03  0.00000000000E+00 0. -1.
         25    1    1    2    0    0 -0.21667318504E+03  0.81781474102E+02 -0.29465024002E+02  0.26481817585E+03  0.12500000000E+03 0.  0.
         21    1    1    2  502  501  0.10622855014E+03 -0.11511432847E+02  0.41679095645E+02  0.11469160809E+03  0.00000000000E+00 0.  1.
         21    1    1    2  503  502  0.11044463490E+03 -0.70270041254E+02  0.64920357745E+03  0.66226971926E+03  0.00000000000E+00 0.  1.
<mgrwt>
<rscale>  4 0.68950424E+03</rscale>
<asrwt>0</asrwt>
<pdfrwt beam="1">  1        2 0.13101516E+00 0.68950424E+03</pdfrwt>
<pdfrwt beam="2">  1       -2 0.29258604E-01 0.68950424E+03</pdfrwt>
<totfact> 0.34319835E+02</totfact>
</mgrwt>
</event>
<event>
 5    0  0.2465569E-003  0.7196358E+03  0.7546771E-02  0.9684229E-01
         -2   -1    0    0    0  501 -0.00000000000E+00  0.00000000000E+00  0.84064229525E+03  0.84064229525E+03  0.00000000000E+00 0.  1.
          2   -1    0    0  502    0  0.00000000000E+00 -0.00000000000E+00 -0.35441883088E+03  0.35441883088E+03  0.00000000000E+00 0. -1.
         25    1    1    2    0    0 -0.22216275013E+03  0.44304292686E+02 -0.80847268479E+01  0.25886197230E+03  0.12500000000E+03 0.  0.
         21    1    1    2  502  503  0.20064260284E+03 -0.39180377408E+03  0.21524392174E+03  0.48999754826E+03  0.00000000000E+00 0.  1.
         21    1    1    2  503  501  0.21520147298E+02  0.34749948139E+03  0.27906426948E+03  0.44620160556E+03  0.00000000000E+00 0.  1.
<mgrwt>
<rscale>  4 0.71963578E+03</rscale>
<asrwt>0</asrwt>
<pdfrwt beam="1">  1        2 0.54525974E-01 0.71963578E+03</pdfrwt>
<pdfrwt beam="2">  1       -2 0.12932958E+00 0.71963578E+03</pdfrwt>
<totfact> 0.40628696E+01</totfact>
</mgrwt>
</event>
